Protein in INSANE! Membrane UpperLeaflet>POPC=1.0 LowerLeaflet>POPC=1.0
239342
    1AU     AUC    1  44.057  12.288   7.493
    1AU     AUC    2  44.320  12.292   7.332
    1AU     AUC    3  44.310  12.282   7.644
    1AU     AUC    4  43.807  12.292   7.328
    1AU     AUC    5  43.797  12.310   7.644
    1AU     AUC    6  43.905  12.546   7.483
    1AU     AUC    7  44.218  12.541   7.479
    1AU     AUC    8  43.907  12.031   7.503
    1AU     AUC    9  44.198  12.034   7.515
    1AU     AUC   10  44.048  12.141   7.756
    1AU     AUC   11  44.070  12.448   7.751
    1AU     AUC   12  44.059  12.122   7.238
    1AU     AUC   13  44.052  12.425   7.229
    1AU     AUC   14  44.570  12.284   7.173
    1AU     AUC   15  44.575  12.292   7.484
    1AU     AUC   16  44.570  12.283   7.791
    1AU     AUC   17  43.547  12.280   7.182
    1AU     AUC   18  43.541  12.310   7.489
    1AU     AUC   19  43.546  12.331   7.800
    1AU     AUC   20  43.772  12.814   7.480
    1AU     AUC   21  44.072  12.808   7.480
    1AU     AUC   22  44.361  12.804   7.475
    1AU     AUC   23  43.725  11.777   7.510
    1AU     AUC   24  44.042  11.766   7.502
    1AU     AUC   25  44.357  11.770   7.523
    1AU     AUC   26  44.030  11.992   8.007
    1AU     AUC   27  44.050  12.299   8.019
    1AU     AUC   28  44.077  12.603   8.011
    1AU     AUC   29  44.061  11.944   7.003
    1AU     AUC   30  44.072  12.259   6.969
    1AU     AUC   31  44.048  12.565   6.961
    1AU     AUC   32  44.320  12.142   7.919
    1AU     AUC   33  44.324  12.435   7.911
    1AU     AUC   34  44.334  12.113   7.079
    1AU     AUC   35  44.331  12.420   7.062
    1AU     AUC   36  43.781  12.163   7.916
    1AU     AUC   37  43.804  12.473   7.915
    1AU     AUC   38  43.814  12.118   7.063
    1AU     AUC   39  43.796  12.424   7.068
    1AU     AUC   40  44.469  12.556   7.310
    1AU     AUC   41  44.485  12.534   7.628
    1AU     AUC   42  43.635  12.542   7.338
    1AU     AUC   43  43.653  12.579   7.653
    1AU     AUC   44  44.472  12.022   7.347
    1AU     AUC   45  44.473  12.029   7.664
    1AU     AUC   46  43.633  12.040   7.332
    1AU     AUC   47  43.641  12.043   7.671
    1AU     AUC   48  43.915  12.711   7.759
    1AU     AUC   49  44.233  12.712   7.731
    1AU     AUC   50  43.882  11.867   7.749
    1AU     AUC   51  44.199  11.881   7.782
    1AU     AUC   52  43.895  12.692   7.219
    1AU     AUC   53  44.212  12.685   7.207
    1AU     AUC   54  43.885  11.871   7.238
    1AU     AUC   55  44.215  11.859   7.263
    1AU    AUSL   56  44.409  12.235   8.079
    1AU    AUSL   57  44.357  11.817   8.131
    1AU     AUL   58  44.589  11.896   8.396
    1AU       S   59  44.623  11.530   8.076
    1AU     LIG   60  44.512  11.314   8.429
    1AU     LIG   61  44.548  10.876   8.549
    1AU     LIG   62  44.788  10.548   8.774
    1AU     LIG   63   0.054  10.262   9.053
    1AU     LIG   64   0.196  10.020   9.438
    1AU     LIG   65   0.207   9.923   9.909
    1AU       S   66  44.449  12.260   8.654
    1AU     LIG   67  44.685  11.961   8.910
    1AU     LIG   68  44.898  11.816   9.320
    1AU     LIG   69   0.136  11.695   9.726
    1AU     LIG   70   0.555  11.662   9.979
    1AU     LIG   71   0.952  11.809  10.210
    1AU     LIG   72   1.188  12.150  10.446
    1AU    AUSL   73  44.129  12.094   8.342
    1AU    AUSL   74  43.963  12.472   8.278
    1AU     AUL   75  44.032  12.444   8.700
    1AU       S   76  44.189  12.085   8.491
    1AU     LIG   77  44.252  11.707   8.727
    1AU     LIG   78  44.477  11.541   9.145
    1AU     LIG   79  44.661  11.447   9.607
    1AU     LIG   80  44.727  11.315  10.080
    1AU     LIG   81  44.719  11.281  10.575
    1AU     LIG   82  44.821  11.477  11.005
    1AU       S   83  43.681  12.196   8.572
    1AU     LIG   84  43.573  12.111   9.053
    1AU     LIG   85  43.399  11.992   9.493
    1AU     LIG   86  43.276  11.952   9.951
    1AU     LIG   87  43.291  12.205  10.367
    1AU     LIG   88  43.230  12.576  10.681
    1AU     LIG   89  43.097  12.885  11.025
    1AU    AUSL   90  44.351  12.578   8.288
    1AU    AUSL   91  44.709  12.492   7.967
    1AU     AUL   92  44.692  12.323   8.278
    1AU       S   93  44.381  12.619   8.456
    1AU     LIG   94  44.556  12.720   8.867
    1AU     LIG   95  44.680  12.924   9.294
    1AU     LIG   96  44.609  13.049   9.768
    1AU     LIG   97  44.578  13.127  10.247
    1AU     LIG   98  44.724  13.161  10.700
    1AU     LIG   99   0.025  13.039  11.051
    1AU       S  100  44.995  12.555   8.015
    1AU     LIG  101   0.185  12.548   8.443
    1AU     LIG  102   0.444  12.825   8.742
    1AU     LIG  103   0.782  12.978   9.071
    1AU     LIG  104   1.164  13.026   9.399
    1AU     LIG  105   1.532  13.225   9.667
    1AU     LIG  106   1.823  13.462   9.957
    1AU    AUSL  107  44.604  12.314   6.862
    1AU    AUSL  108  44.355  12.695   6.803
    1AU     AUL  109  44.752  12.676   6.471
    1AU       S  110  44.631  12.337   6.699
    1AU     LIG  111  44.920  12.237   6.311
    1AU     LIG  112  44.960  12.014   5.911
    1AU     LIG  113   0.118  11.879   5.475
    1AU     LIG  114   0.467  11.789   5.136
    1AU     LIG  115   0.888  11.730   4.877
    1AU     LIG  116   1.196  11.817   4.515
    1AU       S  117  44.352  12.740   6.635
    1AU     LIG  118  44.603  13.139   6.532
    1AU     LIG  119  44.966  13.157   6.224
    1AU     LIG  120   0.281  13.348   5.913
    1AU     LIG  121   0.420  13.578   5.515
    1AU     LIG  122   0.644  13.843   5.198
    1AU     LIG  123   0.854  14.130   4.884
    1AU    AUSL  124  44.353  11.989   6.714
    1AU    AUSL  125  44.676  11.942   7.010
    1AU     AUL  126  44.790  11.936   6.685
    1AU       S  127  44.745  11.511   6.861
    1AU     LIG  128  44.863  11.334   6.447
    1AU     LIG  129   0.103  10.954   6.293
    1AU     LIG  130   0.341  10.653   6.014
    1AU     LIG  131   0.609  10.576   5.631
    1AU     LIG  132   1.027  10.623   5.396
    1AU     LIG  133   1.445  10.655   5.158
    1AU       S  134  44.449  12.184   6.443
    1AU     LIG  135  44.565  11.803   6.244
    1AU     LIG  136  44.620  11.651   5.791
    1AU     LIG  137  44.700  11.607   5.312
    1AU     LIG  138  44.706  11.330   4.901
    1AU     LIG  139  44.744  11.143   4.449
    1AU     LIG  140  44.663  11.108   3.979
    1AU    AUSL  141  44.193  12.336   6.881
    1AU    AUSL  142  43.954  12.078   6.665
    1AU     AUL  143  44.144  11.858   6.570
    1AU       S  144  43.911  12.176   6.319
    1AU     LIG  145  43.838  11.812   6.104
    1AU     LIG  146  43.611  11.710   5.694
    1AU     LIG  147  43.365  11.576   5.304
    1AU     LIG  148  43.110  11.445   4.920
    1AU     LIG  149  43.102  11.179   4.512
    1AU     LIG  150  43.117  11.213   4.031
    1AU       S  151  44.353  12.296   6.482
    1AU     LIG  152  44.435  12.225   5.963
    1AU     LIG  153  44.627  12.100   5.526
    1AU     LIG  154  44.822  12.083   5.085
    1AU     LIG  155  44.919  12.262   4.639
    1AU     LIG  156  44.953  12.516   4.222
    1AU     LIG  157  44.988  12.751   3.801
    1AU    AUSL  158  43.578  12.390   8.161
    1AU    AUSL  159  43.749  12.779   8.121
    1AU     AUL  160  43.797  12.704   8.416
    1AU       S  161  43.521  12.373   8.606
    1AU     LIG  162  43.226  11.999   8.692
    1AU     LIG  163  43.070  11.835   9.126
    1AU     LIG  164  42.919  11.768   9.600
    1AU     LIG  165  42.642  11.717  10.002
    1AU     LIG  166  42.299  11.901  10.316
    1AU     LIG  167  41.899  11.973  10.600
    1AU       S  168  43.345  12.770   8.335
    1AU     LIG  169  43.382  12.857   8.771
    1AU     LIG  170  43.296  13.201   9.094
    1AU     LIG  171  43.100  13.553   9.364
    1AU     LIG  172  42.958  13.768   9.782
    1AU     LIG  173  42.857  13.955  10.234
    1AU     LIG  174  42.748  14.293  10.572
    1AU    AUSL  175  43.884  12.154   8.027
    1AU    AUSL  176  43.418  12.057   7.992
    1AU     AUL  177  43.375  12.206   8.205
    1AU       S  178  43.258  11.751   8.230
    1AU     LIG  179  42.840  11.736   8.116
    1AU     LIG  180  42.563  11.382   8.254
    1AU     LIG  181  42.320  11.055   8.513
    1AU     LIG  182  42.073  10.717   8.737
    1AU     LIG  183  41.845  10.525   9.101
    1AU     LIG  184  41.559  10.614   9.466
    1AU       S  185  43.702  12.099   8.531
    1AU     LIG  186  43.676  11.708   8.753
    1AU     LIG  187  43.517  11.582   9.192
    1AU     LIG  188  43.346  11.489   9.644
    1AU     LIG  189  43.141  11.461  10.077
    1AU     LIG  190  42.914  11.278  10.455
    1AU     LIG  191  42.911  11.194  10.927
    1AU    AUSL  192  43.667  12.242   6.894
    1AU    AUSL  193  43.791  11.815   6.925
    1AU     AUL  194  43.627  11.929   6.624
    1AU       S  195  43.690  12.269   6.298
    1AU     LIG  196  43.383  12.056   6.029
    1AU     LIG  197  43.141  11.920   5.629
    1AU     LIG  198  42.855  11.659   5.328
    1AU     LIG  199  42.592  11.565   4.937
    1AU     LIG  200  42.224  11.637   4.631
    1AU     LIG  201  41.912  11.806   4.309
    1AU       S  202  43.359  11.552   6.790
    1AU     LIG  203  43.149  11.137   6.801
    1AU     LIG  204  42.826  10.878   6.552
    1AU     LIG  205  42.529  10.606   6.257
    1AU     LIG  206  42.432  10.339   5.835
    1AU     LIG  207  42.412  10.235   5.336
    1AU     LIG  208  42.315  10.113   4.863
    1AU    AUSL  209  43.906  12.513   6.656
    1AU    AUSL  210  43.397  12.528   6.995
    1AU     AUL  211  43.479  12.378   6.685
    1AU       S  212  43.251  12.773   6.762
    1AU     LIG  213  43.166  12.837   6.302
    1AU     LIG  214  42.991  13.109   5.933
    1AU     LIG  215  42.772  13.235   5.513
    1AU     LIG  216  42.392  13.330   5.231
    1AU     LIG  217  41.981  13.462   5.045
    1AU     LIG  218  41.561  13.602   4.873
    1AU       S  219  43.904  12.442   6.463
    1AU     LIG  220  43.939  12.505   5.952
    1AU     LIG  221  43.675  12.235   5.638
    1AU     LIG  222  43.412  12.145   5.235
    1AU     LIG  223  43.281  12.346   4.799
    1AU     LIG  224  43.240  12.545   4.349
    1AU     LIG  225  43.225  12.677   3.879
    1AU    AUSL  226  44.663  12.895   7.416
    1AU    AUSL  227  44.693  12.654   7.068
    1AU     AUL  228  44.774  13.122   7.229
    1AU       S  229  44.803  12.724   6.947
    1AU     LIG  230   0.175  12.563   6.729
    1AU     LIG  231   0.367  12.823   6.351
    1AU     LIG  232   0.675  13.014   6.010
    1AU     LIG  233   1.052  13.040   5.683
    1AU     LIG  234   1.470  13.155   5.458
    1AU     LIG  235   1.748  13.405   5.155
    1AU       S  236   0.119  12.801   7.325
    1AU     LIG  237   0.612  12.817   7.469
    1AU     LIG  238   1.109  12.890   7.508
    1AU     LIG  239   1.583  13.023   7.512
    1AU     LIG  240   1.861  13.414   7.394
    1AU     LIG  241   2.068  13.854   7.320
    1AU     LIG  242   2.355  14.190   7.496
    1AU    AUSL  243  44.891  12.345   7.238
    1AU    AUSL  244  44.887  12.180   7.651
    1AU     AUL  245   0.172  12.117   7.413
    1AU       S  246   0.091  12.562   7.303
    1AU     LIG  247   0.496  12.429   7.162
    1AU     LIG  248   0.979  12.475   7.232
    1AU     LIG  249   1.454  12.634   7.195
    1AU     LIG  250   1.910  12.834   7.143
    1AU     LIG  251   2.396  12.832   7.013
    1AU     LIG  252   2.736  13.160   6.871
    1AU       S  253   0.195  11.711   7.661
    1AU     LIG  254   0.552  11.464   7.727
    1AU     LIG  255   0.952  11.232   7.751
    1AU     LIG  256   1.350  10.994   7.773
    1AU     LIG  257   1.757  10.765   7.775
    1AU     LIG  258   2.212  10.704   7.940
    1AU     LIG  259   2.669  10.800   7.910
    1AU    AUSL  260  44.678  12.513   7.561
    1AU    AUSL  261  44.586  12.860   7.819
    1AU     AUL  262  44.828  12.855   7.688
    1AU       S  263  44.835  12.753   8.124
    1AU     LIG  264   0.227  13.015   8.207
    1AU     LIG  265   0.385  13.310   8.563
    1AU     LIG  266   0.619  13.687   8.759
    1AU     LIG  267   0.926  14.068   8.788
    1AU     LIG  268   1.298  14.394   8.855
    1AU     LIG  269   1.570  14.800   8.887
    1AU       S  270   0.156  12.576   7.552
    1AU     LIG  271   0.503  12.373   7.718
    1AU     LIG  272   0.978  12.455   7.755
    1AU     LIG  273   1.427  12.636   7.840
    1AU     LIG  274   1.901  12.678   8.023
    1AU     LIG  275   2.383  12.796   8.058
    1AU     LIG  276   2.857  12.911   8.141
    1AU    AUSL  277  43.451  12.910   7.551
    1AU    AUSL  278  43.435  12.646   7.879
    1AU     AUL  279  43.427  13.092   7.817
    1AU       S  280  43.239  12.721   8.091
    1AU     LIG  281  42.880  12.875   8.398
    1AU     LIG  282  42.872  13.042   8.840
    1AU     LIG  283  42.694  13.261   9.226
    1AU     LIG  284  42.340  13.302   9.568
    1AU     LIG  285  41.949  13.428   9.826
    1AU     LIG  286  41.548  13.686   9.899
    1AU       S  287  43.068  12.856   7.655
    1AU     LIG  288  42.855  13.280   7.577
    1AU     LIG  289  42.496  13.636   7.533
    1AU     LIG  290  42.098  13.954   7.516
    1AU     LIG  291  41.737  14.266   7.657
    1AU     LIG  292  41.344  14.554   7.637
    1AU     LIG  293  40.884  14.653   7.764
    1AU    AUSL  294  43.442  12.535   7.397
    1AU    AUSL  295  43.560  12.905   7.159
    1AU     AUL  296  43.271  12.841   7.231
    1AU       S  297  42.962  12.778   7.605
    1AU     LIG  298  42.570  12.654   7.353
    1AU     LIG  299  42.173  12.710   7.039
    1AU     LIG  300  41.777  12.970   6.873
    1AU     LIG  301  41.390  13.285   6.750
    1AU     LIG  302  40.933  13.533   6.682
    1AU     LIG  303  40.473  13.362   6.771
    1AU       S  304  43.379  13.026   6.805
    1AU     LIG  305  43.373  13.288   6.411
    1AU     LIG  306  43.174  13.582   6.079
    1AU     LIG  307  42.951  14.000   5.938
    1AU     LIG  308  42.713  14.432   5.873
    1AU     LIG  309  42.388  14.793   5.871
    1AU     LIG  310  41.950  14.910   6.013
    1AU    AUSL  311  43.200  12.379   7.700
    1AU    AUSL  312  43.243  12.192   7.310
    1AU     AUL  313  43.056  12.448   7.309
    1AU       S  314  42.894  11.984   7.441
    1AU     LIG  315  42.515  11.964   7.748
    1AU     LIG  316  42.042  12.082   7.714
    1AU     LIG  317  41.585  12.113   7.535
    1AU     LIG  318  41.229  11.904   7.213
    1AU     LIG  319  40.972  11.512   7.283
    1AU     LIG  320  40.556  11.281   7.274
    1AU       S  321  43.013  12.419   7.787
    1AU     LIG  322  42.663  12.639   7.981
    1AU     LIG  323  42.216  12.802   8.043
    1AU     LIG  324  41.783  12.996   8.111
    1AU     LIG  325  41.386  13.047   8.370
    1AU     LIG  326  40.986  13.322   8.454
    1AU     LIG  327  40.534  13.332   8.267
    1AU    AUSL  328  44.746  11.789   7.567
    1AU    AUSL  329  44.699  11.989   7.952
    1AU     AUL  330   0.007  12.053   7.904
    1AU       S  331  44.889  11.537   7.547
    1AU     LIG  332   0.090  11.205   7.746
    1AU     LIG  333   0.488  10.961   7.640
    1AU     LIG  334   0.914  10.777   7.514
    1AU     LIG  335   1.356  10.612   7.432
    1AU     LIG  336   1.753  10.357   7.428
    1AU     LIG  337   2.179  10.166   7.428
    1AU       S  338  44.740  11.677   8.029
    1AU     LIG  339   0.029  11.322   8.258
    1AU     LIG  340   0.071  10.928   8.521
    1AU     LIG  341   0.320  10.641   8.820
    1AU     LIG  342   0.653  10.572   9.186
    1AU     LIG  343   1.029  10.603   9.520
    1AU     LIG  344   1.417  10.542   9.819
    1AU    AUSL  345  44.593  12.112   7.365
    1AU    AUSL  346  44.518  11.644   7.261
    1AU     AUL  347  44.867  11.856   7.185
    1AU       S  348  44.938  11.698   7.595
    1AU     LIG  349   0.278  11.412   7.279
    1AU     LIG  350   0.745  11.237   7.276
    1AU     LIG  351   1.231  11.114   7.287
    1AU     LIG  352   1.710  10.965   7.280
    1AU     LIG  353   2.157  11.029   7.068
    1AU     LIG  354   2.584  10.964   6.860
    1AU       S  355  44.759  11.407   7.068
    1AU     LIG  356  44.825  10.985   6.823
    1AU     LIG  357  44.927  10.565   6.580
    1AU     LIG  358   0.140  10.247   6.281
    1AU     LIG  359   0.316   9.857   6.060
    1AU     LIG  360   0.723   9.573   5.994
    1AU     LIG  361   1.163   9.625   5.814
    1AU    AUSL  362  43.346  11.806   7.459
    1AU    AUSL  363  43.428  11.955   7.047
    1AU     AUL  364  43.136  12.039   7.035
    1AU       S  365  43.348  11.632   7.010
    1AU     LIG  366  42.864  11.587   6.952
    1AU     LIG  367  42.550  11.277   6.764
    1AU     LIG  368  42.156  11.066   6.576
    1AU     LIG  369  41.757  10.937   6.332
    1AU     LIG  370  41.552  10.789   5.933
    1AU     LIG  371  41.409  10.709   5.492
    1AU       S  372  43.038  11.773   7.403
    1AU     LIG  373  42.623  11.559   7.436
    1AU     LIG  374  42.156  11.586   7.561
    1AU     LIG  375  41.754  11.349   7.710
    1AU     LIG  376  41.334  11.233   7.526
    1AU     LIG  377  40.908  11.081   7.582
    1AU     LIG  378  40.615  10.790   7.799
    1AU    AUSL  379  43.519  12.155   7.618
    1AU    AUSL  380  43.599  11.752   7.783
    1AU     AUL  381  43.233  11.912   7.794
    1AU       S  382  43.317  11.534   8.035
    1AU     LIG  383  42.958  11.340   7.823
    1AU     LIG  384  42.664  10.978   7.955
    1AU     LIG  385  42.434  10.642   8.223
    1AU     LIG  386  42.235  10.285   8.487
    1AU     LIG  387  41.934  10.016   8.747
    1AU     LIG  388  41.605   9.635   8.799
    1AU       S  389  42.937  12.041   7.478
    1AU     LIG  390  42.461  12.138   7.275
    1AU     LIG  391  42.008  11.981   7.215
    1AU     LIG  392  41.666  11.671   7.343
    1AU     LIG  393  41.283  11.706   7.672
    1AU     LIG  394  40.823  11.577   7.773
    1AU     LIG  395  40.452  11.291   7.789
    1AU    AUSL  396  44.097  12.960   8.008
    1AU    AUSL  397  43.788  12.760   7.721
    1AU     AUL  398  43.817  13.081   8.077
    1AU       S  399  43.419  12.924   8.245
    1AU     LIG  400  43.219  13.262   8.502
    1AU     LIG  401  43.016  13.541   8.832
    1AU     LIG  402  42.871  13.924   9.056
    1AU     LIG  403  42.663  14.353   9.016
    1AU     LIG  404  42.311  14.660   8.924
    1AU     LIG  405  41.976  14.982   8.999
    1AU       S  406  44.176  13.362   7.946
    1AU     LIG  407  44.423  13.483   8.280
    1AU     LIG  408  44.518  13.884   8.515
    1AU     LIG  409  44.543  14.318   8.706
    1AU     LIG  410  44.537  14.622   9.075
    1AU     LIG  411  44.423  14.836   9.502
    1AU     LIG  412  44.409  15.227   9.779
    1AU    AUSL  413  43.870  13.142   7.634
    1AU    AUSL  414  44.248  13.130   7.268
    1AU     AUL  415  43.772  13.332   7.376
    1AU       S  416  44.072  13.402   7.738
    1AU     LIG  417  44.190  13.856   7.979
    1AU     LIG  418  44.256  14.256   8.259
    1AU     LIG  419  44.275  14.709   8.446
    1AU     LIG  420  44.086  15.171   8.469
    1AU     LIG  421  43.913  15.639   8.509
    1AU     LIG  422  43.959  16.118   8.608
    1AU       S  423  44.356  13.422   7.231
    1AU     LIG  424  44.607  13.803   7.195
    1AU     LIG  425  44.721  14.164   6.901
    1AU     LIG  426  44.857  14.577   6.692
    1AU     LIG  427   0.136  14.990   6.624
    1AU     LIG  428   0.287  15.480   6.584
    1AU     LIG  429   0.286  15.970   6.501
    1AU    AUSL  430  44.245  12.953   7.628
    1AU    AUSL  431  44.274  12.613   7.901
    1AU     AUL  432  44.406  12.979   8.056
    1AU       S  433  44.781  12.775   8.235
    1AU     LIG  434  44.928  12.973   8.617
    1AU     LIG  435   0.124  13.144   8.995
    1AU     LIG  436   0.476  13.389   9.176
    1AU     LIG  437   0.635  13.627   9.556
    1AU     LIG  438   0.627  14.005   9.858
    1AU     LIG  439   0.631  14.356  10.188
    1AU       S  440  44.350  13.279   7.704
    1AU     LIG  441  44.621  13.628   7.815
    1AU     LIG  442  44.691  14.046   8.058
    1AU     LIG  443  44.717  14.500   8.246
    1AU     LIG  444  44.944  14.923   8.349
    1AU     LIG  445   0.069  15.424   8.321
    1AU     LIG  446   0.135  15.926   8.326
    1AU    AUSL  447  44.026  11.729   7.912
    1AU    AUSL  448  44.381  11.856   7.725
    1AU     AUL  449  44.194  11.619   8.192
    1AU       S  450  44.114  11.186   8.041
    1AU     LIG  451  44.175  10.766   8.192
    1AU     LIG  452  43.877  10.421   8.229
    1AU     LIG  453  43.680  10.014   8.327
    1AU     LIG  454  43.810   9.673   8.623
    1AU     LIG  455  43.798   9.478   9.061
    1AU     LIG  456  43.878   9.331   9.510
    1AU       S  457  44.667  11.487   7.954
    1AU     LIG  458  44.653  11.007   8.037
    1AU     LIG  459  44.826  10.582   8.226
    1AU     LIG  460   0.061  10.229   8.496
    1AU     LIG  461   0.198   9.844   8.782
    1AU     LIG  462   0.587   9.583   8.980
    1AU     LIG  463   1.003   9.269   8.966
    1AU    AUSL  464  43.861  11.470   7.650
    1AU    AUSL  465  43.737  11.819   8.180
    1AU     AUL  466  43.772  11.502   8.003
    1AU       S  467  43.903  11.087   7.863
    1AU     LIG  468  43.701  10.682   7.802
    1AU     LIG  469  43.547  10.234   7.852
    1AU     LIG  470  43.199   9.906   7.968
    1AU     LIG  471  42.954   9.484   7.971
    1AU     LIG  472  42.794   9.106   8.214
    1AU     LIG  473  42.969   8.688   8.370
    1AU       S  474  43.466  11.694   8.290
    1AU     LIG  475  43.079  11.338   8.421
    1AU     LIG  476  42.817  10.944   8.459
    1AU     LIG  477  42.580  10.616   8.716
    1AU     LIG  478  42.320  10.334   8.999
    1AU     LIG  479  42.175  10.313   9.451
    1AU     LIG  480  42.298  10.358   9.914
    1AU    AUSL  481  44.295  11.465   7.695
    1AU    AUSL  482  43.792  11.482   7.246
    1AU     AUL  483  44.094  11.211   7.463
    1AU       S  484  43.695  11.180   7.143
    1AU     LIG  485  43.382  10.863   7.218
    1AU     LIG  486  43.421  10.417   7.355
    1AU     LIG  487  43.290  10.006   7.143
    1AU     LIG  488  43.185   9.632   6.868
    1AU     LIG  489  42.883   9.266   6.784
    1AU     LIG  490  42.695   8.837   6.672
    1AU       S  491  44.226  11.263   7.889
    1AU     LIG  492  44.265  10.788   7.698
    1AU     LIG  493  44.081  10.346   7.766
    1AU     LIG  494  44.136   9.991   8.092
    1AU     LIG  495  44.317   9.660   8.406
    1AU     LIG  496  44.454   9.187   8.440
    1AU     LIG  497  44.480   8.690   8.494
    1AU    AUSL  498  44.050  12.929   6.940
    1AU    AUSL  499  44.341  12.736   7.230
    1AU     AUL  500  44.396  13.032   6.965
    1AU       S  501  44.118  13.402   6.898
    1AU     LIG  502  44.393  13.749   6.726
    1AU     LIG  503  44.468  14.132   6.426
    1AU     LIG  504  44.411  14.363   5.987
    1AU     LIG  505  44.377  14.735   5.661
    1AU     LIG  506  44.344  15.158   5.419
    1AU     LIG  507  44.361  15.591   5.194
    1AU       S  508  44.783  12.797   6.913
    1AU     LIG  509   0.094  13.084   6.723
    1AU     LIG  510   0.394  13.357   6.434
    1AU     LIG  511   0.621  13.772   6.286
    1AU     LIG  512   1.018  14.014   6.165
    1AU     LIG  513   1.264  14.424   6.047
    1AU     LIG  514   1.496  14.859   6.103
    1AU    AUSL  515  43.927  12.881   7.332
    1AU    AUSL  516  43.807  12.616   7.028
    1AU     AUL  517  43.801  13.070   7.002
    1AU       S  518  44.192  13.331   7.240
    1AU     LIG  519  44.088  13.830   7.159
    1AU     LIG  520  44.185  14.217   6.869
    1AU     LIG  521  44.028  14.638   6.644
    1AU     LIG  522  43.747  15.054   6.531
    1AU     LIG  523  43.503  15.496   6.526
    1AU     LIG  524  43.339  15.942   6.544
    1AU       S  525  43.573  12.840   6.673
    1AU     LIG  526  43.676  12.871   6.250
    1AU     LIG  527  43.499  13.173   5.912
    1AU     LIG  528  43.251  13.436   5.575
    1AU     LIG  529  43.113  13.702   5.181
    1AU     LIG  530  42.961  14.118   4.974
    1AU     LIG  531  42.818  14.323   4.556
    1AU    AUSL  532  44.121  11.583   6.977
    1AU    AUSL  533  43.722  11.864   7.328
    1AU     AUL  534  43.804  11.571   6.899
    1AU       S  535  43.332  11.506   7.105
    1AU     LIG  536  43.040  11.251   7.298
    1AU     LIG  537  42.752  10.930   7.086
    1AU     LIG  538  42.428  10.679   6.802
    1AU     LIG  539  42.231  10.293   6.560
    1AU     LIG  540  41.923  10.052   6.277
    1AU     LIG  541  41.939   9.591   6.100
    1AU       S  542  43.947  11.154   7.011
    1AU     LIG  543  43.672  10.844   6.788
    1AU     LIG  544  43.553  10.405   6.861
    1AU     LIG  545  43.630   9.958   6.736
    1AU     LIG  546  43.709   9.706   6.331
    1AU     LIG  547  43.782   9.593   5.863
    1AU     LIG  548  43.941   9.379   5.473
    1AU    AUSL  549  44.131  11.664   7.387
    1AU    AUSL  550  44.263  11.937   7.096
    1AU     AUL  551  44.304  11.443   7.141
    1AU       S  552  43.706  11.279   7.257
    1AU     LIG  553  43.873  10.761   7.329
    1AU     LIG  554  43.928  10.280   7.248
    1AU     LIG  555  44.072   9.834   7.084
    1AU     LIG  556  44.281   9.381   7.008
    1AU     LIG  557  44.451   8.908   6.968
    1AU     LIG  558  44.640   8.465   6.822
    1AU       S  559  44.534  11.556   6.762
    1AU     LIG  560  44.378  11.184   6.650
    1AU     LIG  561  44.588  10.881   6.346
    1AU     LIG  562  44.824  10.576   6.045
    1AU     LIG  563   0.076  10.294   5.728
    1AU     LIG  564   0.216  10.209   5.264
    1AU     LIG  565   0.391   9.959   4.890
    2AU     AUC  566  23.172  36.360   7.504
    2AU     AUC  567  23.434  36.362   7.346
    2AU     AUC  568  23.421  36.348   7.661
    2AU     AUC  569  22.922  36.363   7.339
    2AU     AUC  570  22.911  36.379   7.658
    2AU     AUC  571  23.023  36.617   7.505
    2AU     AUC  572  23.334  36.613   7.495
    2AU     AUC  573  23.013  36.113   7.512
    2AU     AUC  574  23.311  36.095   7.517
    2AU     AUC  575  23.171  36.205   7.761
    2AU     AUC  576  23.184  36.517   7.764
    2AU     AUC  577  23.171  36.203   7.242
    2AU     AUC  578  23.166  36.503   7.245
    2AU     AUC  579  23.688  36.361   7.188
    2AU     AUC  580  23.690  36.368   7.489
    2AU     AUC  581  23.676  36.353   7.810
    2AU     AUC  582  22.663  36.352   7.185
    2AU     AUC  583  22.654  36.379   7.490
    2AU     AUC  584  22.660  36.401   7.816
    2AU     AUC  585  22.878  36.881   7.510
    2AU     AUC  586  23.190  36.881   7.505
    2AU     AUC  587  23.485  36.875   7.500
    2AU     AUC  588  22.835  35.862   7.516
    2AU     AUC  589  23.144  35.839   7.501
    2AU     AUC  590  23.462  35.837   7.521
    2AU     AUC  591  23.172  36.052   8.011
    2AU     AUC  592  23.188  36.360   8.032
    2AU     AUC  593  23.190  36.668   8.024
    2AU     AUC  594  23.176  36.029   7.002
    2AU     AUC  595  23.179  36.345   6.981
    2AU     AUC  596  23.165  36.654   6.983
    2AU     AUC  597  23.435  36.199   7.924
    2AU     AUC  598  23.445  36.502   7.928
    2AU     AUC  599  23.445  36.195   7.085
    2AU     AUC  600  23.446  36.499   7.077
    2AU     AUC  601  22.908  36.233   7.930
    2AU     AUC  602  22.921  36.536   7.933
    2AU     AUC  603  22.924  36.202   7.071
    2AU     AUC  604  22.911  36.508   7.081
    2AU     AUC  605  23.590  36.623   7.329
    2AU     AUC  606  23.604  36.598   7.658
    2AU     AUC  607  22.755  36.622   7.352
    2AU     AUC  608  22.766  36.642   7.672
    2AU     AUC  609  23.590  36.093   7.361
    2AU     AUC  610  23.566  36.071   7.663
    2AU     AUC  611  22.751  36.106   7.345
    2AU     AUC  612  22.750  36.129   7.688
    2AU     AUC  613  23.026  36.779   7.776
    2AU     AUC  614  23.344  36.784   7.749
    2AU     AUC  615  22.982  35.947   7.758
    2AU     AUC  616  23.301  35.934   7.769
    2AU     AUC  617  23.016  36.774   7.244
    2AU     AUC  618  23.333  36.763   7.231
    2AU     AUC  619  23.003  35.954   7.240
    2AU     AUC  620  23.333  35.940   7.259
    2AU    AUSL  621  23.694  36.237   8.195
    2AU    AUSL  622  23.452  35.873   8.116
    2AU     AUL  623  23.605  35.800   8.473
    2AU       S  624  23.815  35.597   8.091
    2AU     LIG  625  23.607  35.290   8.374
    2AU     LIG  626  23.694  34.924   8.626
    2AU     LIG  627  23.956  34.625   8.875
    2AU     LIG  628  24.257  34.418   9.181
    2AU     LIG  629  24.531  34.363   9.564
    2AU     LIG  630  24.651  34.114   9.950
    2AU       S  631  23.755  36.175   8.286
    2AU     LIG  632  23.767  36.157   8.781
    2AU     LIG  633  23.994  35.981   9.186
    2AU     LIG  634  24.277  35.859   9.567
    2AU     LIG  635  24.663  35.856   9.871
    2AU     LIG  636  24.961  35.986  10.228
    2AU     LIG  637  25.061  36.252  10.611
    2AU    AUSL  638  23.293  36.194   8.321
    2AU    AUSL  639  23.093  36.556   8.284
    2AU     AUL  640  23.241  36.521   8.699
    2AU       S  641  23.341  36.163   8.465
    2AU     LIG  642  23.281  36.015   8.872
    2AU     LIG  643  23.513  35.799   9.220
    2AU     LIG  644  23.775  35.673   9.611
    2AU     LIG  645  23.802  35.489  10.069
    2AU     LIG  646  23.769  35.456  10.551
    2AU     LIG  647  23.855  35.298  10.995
    2AU       S  648  22.861  36.284   8.637
    2AU     LIG  649  22.769  36.190   9.088
    2AU     LIG  650  22.544  36.135   9.501
    2AU     LIG  651  22.415  36.100   9.959
    2AU     LIG  652  22.426  36.361  10.372
    2AU     LIG  653  22.500  36.626  10.774
    2AU     LIG  654  22.376  36.890  11.161
    2AU    AUSL  655  23.493  36.593   8.284
    2AU    AUSL  656  23.813  36.572   7.990
    2AU     AUL  657  23.922  36.519   8.478
    2AU       S  658  23.520  36.676   8.385
    2AU     LIG  659  23.657  36.863   8.763
    2AU     LIG  660  23.680  37.023   9.225
    2AU     LIG  661  23.687  37.230   9.670
    2AU     LIG  662  23.744  37.286  10.143
    2AU     LIG  663  23.898  37.202  10.590
    2AU     LIG  664  23.963  37.157  11.064
    2AU       S  665  24.053  36.600   8.035
    2AU     LIG  666  24.397  36.664   8.351
    2AU     LIG  667  24.644  36.892   8.704
    2AU     LIG  668  24.952  37.124   9.005
    2AU     LIG  669  25.217  37.322   9.375
    2AU     LIG  670  25.546  37.404   9.749
    2AU     LIG  671  25.795  37.626  10.111
    2AU    AUSL  672  23.702  36.384   6.866
    2AU    AUSL  673  23.479  36.785   6.834
    2AU     AUL  674  23.834  36.730   6.454
    2AU       S  675  23.761  36.407   6.725
    2AU     LIG  676  24.033  36.288   6.355
    2AU     LIG  677  24.079  36.166   5.916
    2AU     LIG  678  24.222  36.048   5.470
    2AU     LIG  679  24.578  35.948   5.137
    2AU     LIG  680  24.973  35.863   4.843
    2AU     LIG  681  25.225  35.901   4.425
    2AU       S  682  23.494  36.846   6.692
    2AU     LIG  683  23.768  37.202   6.598
    2AU     LIG  684  24.108  37.214   6.267
    2AU     LIG  685  24.340  37.366   5.866
    2AU     LIG  686  24.329  37.630   5.438
    2AU     LIG  687  24.479  38.006   5.148
    2AU     LIG  688  24.559  38.219   4.716
    2AU    AUSL  689  23.432  36.085   6.702
    2AU    AUSL  690  23.814  36.026   7.019
    2AU     AUL  691  23.774  35.982   6.649
    2AU       S  692  23.956  35.613   6.878
    2AU     LIG  693  24.047  35.258   6.583
    2AU     LIG  694  24.159  34.850   6.379
    2AU     LIG  695  24.425  34.613   6.061
    2AU     LIG  696  24.778  34.560   5.720
    2AU     LIG  697  25.183  34.608   5.436
    2AU     LIG  698  25.580  34.713   5.172
    2AU       S  699  23.530  36.333   6.435
    2AU     LIG  700  23.608  35.994   6.154
    2AU     LIG  701  23.745  35.836   5.711
    2AU     LIG  702  23.837  35.784   5.236
    2AU     LIG  703  23.861  35.544   4.804
    2AU     LIG  704  23.988  35.377   4.363
    2AU     LIG  705  24.042  35.415   3.884
    2AU    AUSL  706  23.296  36.431   6.890
    2AU    AUSL  707  23.033  36.188   6.682
    2AU     AUL  708  23.228  35.996   6.543
    2AU       S  709  22.799  36.297   6.358
    2AU     LIG  710  22.907  35.908   6.152
    2AU     LIG  711  22.725  35.684   5.769
    2AU     LIG  712  22.512  35.613   5.337
    2AU     LIG  713  22.245  35.504   4.935
    2AU     LIG  714  22.132  35.487   4.461
    2AU     LIG  715  22.086  35.550   3.986
    2AU       S  716  23.429  36.426   6.497
    2AU     LIG  717  23.648  36.484   5.996
    2AU     LIG  718  23.764  36.330   5.540
    2AU     LIG  719  23.936  36.300   5.087
    2AU     LIG  720  23.984  36.482   4.628
    2AU     LIG  721  24.115  36.667   4.182
    2AU     LIG  722  24.311  36.954   3.846
    2AU    AUSL  723  22.714  36.430   8.222
    2AU    AUSL  724  22.848  36.839   8.140
    2AU     AUL  725  22.921  36.757   8.458
    2AU       S  726  22.649  36.420   8.639
    2AU     LIG  727  22.402  36.049   8.733
    2AU     LIG  728  22.234  35.906   9.156
    2AU     LIG  729  22.047  35.952   9.601
    2AU     LIG  730  21.692  35.953   9.929
    2AU     LIG  731  21.435  36.036  10.322
    2AU     LIG  732  21.127  36.283  10.582
    2AU       S  733  22.463  36.807   8.363
    2AU     LIG  734  22.503  37.026   8.762
    2AU     LIG  735  22.447  37.403   9.037
    2AU     LIG  736  22.266  37.589   9.432
    2AU     LIG  737  22.057  37.718   9.841
    2AU     LIG  738  21.809  37.987  10.148
    2AU     LIG  739  21.503  38.306  10.317
    2AU    AUSL  740  23.006  36.221   8.038
    2AU    AUSL  741  22.466  36.202   7.992
    2AU     AUL  742  22.581  36.196   8.244
    2AU       S  743  22.287  35.842   8.256
    2AU     LIG  744  21.935  35.659   8.030
    2AU     LIG  745  21.615  35.328   8.158
    2AU     LIG  746  21.425  34.994   8.456
    2AU     LIG  747  21.233  34.698   8.769
    2AU     LIG  748  20.873  34.786   9.072
    2AU     LIG  749  20.589  34.655   9.429
    2AU       S  750  22.888  36.153   8.579
    2AU     LIG  751  22.833  35.771   8.794
    2AU     LIG  752  22.696  35.690   9.236
    2AU     LIG  753  22.464  35.648   9.650
    2AU     LIG  754  22.360  35.583  10.109
    2AU     LIG  755  22.398  35.467  10.573
    2AU     LIG  756  22.267  35.489  11.034
    2AU    AUSL  757  22.740  36.331   6.919
    2AU    AUSL  758  22.926  35.891   6.934
    2AU     AUL  759  22.770  35.951   6.661
    2AU       S  760  22.500  36.255   6.471
    2AU     LIG  761  22.413  36.004   6.119
    2AU     LIG  762  22.298  35.962   5.680
    2AU     LIG  763  22.064  35.864   5.288
    2AU     LIG  764  21.752  35.726   4.970
    2AU     LIG  765  21.411  35.815   4.652
    2AU     LIG  766  21.030  35.955   4.404
    2AU       S  767  22.487  35.587   6.822
    2AU     LIG  768  22.205  35.198   6.799
    2AU     LIG  769  21.868  34.895   6.606
    2AU     LIG  770  21.573  34.581   6.365
    2AU     LIG  771  21.544  34.325   5.946
    2AU     LIG  772  21.447  34.211   5.496
    2AU     LIG  773  21.571  34.130   5.035
    2AU    AUSL  774  23.002  36.618   6.683
    2AU    AUSL  775  22.525  36.672   6.975
    2AU     AUL  776  22.637  36.614   6.694
    2AU       S  777  22.378  36.984   6.785
    2AU     LIG  778  22.132  37.038   6.414
    2AU     LIG  779  22.020  37.166   5.970
    2AU     LIG  780  21.798  37.260   5.559
    2AU     LIG  781  21.392  37.428   5.355
    2AU     LIG  782  21.060  37.645   5.094
    2AU     LIG  783  20.684  37.917   5.034
    2AU       S  784  22.960  36.394   6.455
    2AU     LIG  785  23.137  36.337   6.010
    2AU     LIG  786  22.795  36.188   5.674
    2AU     LIG  787  22.527  36.139   5.251
    2AU     LIG  788  22.384  36.271   4.796
    2AU     LIG  789  22.292  36.487   4.357
    2AU     LIG  790  22.098  36.655   3.937
    2AU    AUSL  791  23.803  36.952   7.430
    2AU    AUSL  792  23.815  36.711   7.083
    2AU     AUL  793  23.972  37.166   7.233
    2AU       S  794  23.953  36.823   6.895
    2AU     LIG  795  24.295  36.668   6.648
    2AU     LIG  796  24.529  36.906   6.295
    2AU     LIG  797  24.827  37.192   6.025
    2AU     LIG  798  25.219  37.261   5.728
    2AU     LIG  799  25.601  37.364   5.428
    2AU     LIG  800  25.923  37.657   5.208
    2AU       S  801  24.280  36.834   7.357
    2AU     LIG  802  24.771  36.892   7.489
    2AU     LIG  803  25.287  36.921   7.535
    2AU     LIG  804  25.770  37.033   7.516
    2AU     LIG  805  26.192  37.272   7.556
    2AU     LIG  806  26.391  37.713   7.459
    2AU     LIG  807  26.630  38.115   7.531
    2AU    AUSL  808  24.021  36.419   7.276
    2AU    AUSL  809  23.998  36.245   7.700
    2AU     AUL  810  24.294  36.177   7.474
    2AU       S  811  24.205  36.613   7.331
    2AU     LIG  812  24.640  36.480   7.211
    2AU     LIG  813  25.141  36.508   7.269
    2AU     LIG  814  25.656  36.590   7.264
    2AU     LIG  815  26.125  36.795   7.199
    2AU     LIG  816  26.581  36.955   7.053
    2AU     LIG  817  26.974  37.244   7.050
    2AU       S  818  24.295  35.768   7.734
    2AU     LIG  819  24.681  35.522   7.763
    2AU     LIG  820  25.101  35.295   7.785
    2AU     LIG  821  25.536  35.093   7.762
    2AU     LIG  822  25.972  34.875   7.747
    2AU     LIG  823  26.440  34.875   7.803
    2AU     LIG  824  26.858  34.726   7.976
    2AU    AUSL  825  23.788  36.572   7.586
    2AU    AUSL  826  23.696  36.933   7.824
    2AU     AUL  827  23.957  36.920   7.685
    2AU       S  828  23.903  36.765   8.091
    2AU     LIG  829  24.338  37.031   8.007
    2AU     LIG  830  24.565  37.269   8.362
    2AU     LIG  831  24.820  37.527   8.697
    2AU     LIG  832  25.115  37.862   8.923
    2AU     LIG  833  25.466  38.235   8.967
    2AU     LIG  834  25.737  38.652   8.957
    2AU       S  835  24.295  36.629   7.611
    2AU     LIG  836  24.721  36.439   7.723
    2AU     LIG  837  25.223  36.468   7.781
    2AU     LIG  838  25.704  36.591   7.777
    2AU     LIG  839  26.148  36.794   7.799
    2AU     LIG  840  26.553  37.008   7.944
    2AU     LIG  841  26.948  37.207   8.137
    2AU    AUSL  842  22.518  36.907   7.585
    2AU    AUSL  843  22.563  36.649   7.916
    2AU     AUL  844  22.521  37.105   7.845
    2AU       S  845  22.348  36.728   8.110
    2AU     LIG  846  22.040  37.038   8.410
    2AU     LIG  847  22.002  37.207   8.865
    2AU     LIG  848  21.842  37.303   9.329
    2AU     LIG  849  21.575  37.408   9.736
    2AU     LIG  850  21.162  37.564   9.946
    2AU     LIG  851  20.834  37.877  10.111
    2AU       S  852  22.138  36.929   7.672
    2AU     LIG  853  22.102  37.324   7.442
    2AU     LIG  854  21.762  37.689   7.467
    2AU     LIG  855  21.360  37.978   7.579
    2AU     LIG  856  20.972  38.266   7.729
    2AU     LIG  857  20.682  38.647   7.889
    2AU     LIG  858  20.229  38.794   7.827
    2AU    AUSL  859  22.588  36.575   7.357
    2AU    AUSL  860  22.686  36.995   7.221
    2AU     AUL  861  22.395  36.911   7.254
    2AU       S  862  22.013  36.829   7.515
    2AU     LIG  863  21.920  36.910   7.076
    2AU     LIG  864  21.510  36.986   6.850
    2AU     LIG  865  21.038  37.093   6.873
    2AU     LIG  866  20.625  37.256   6.714
    2AU     LIG  867  20.189  37.103   6.701
    2AU     LIG  868  19.725  37.210   6.725
    2AU       S  869  22.510  37.192   6.883
    2AU     LIG  870  22.434  37.468   6.507
    2AU     LIG  871  22.480  37.878   6.253
    2AU     LIG  872  22.387  38.347   6.129
    2AU     LIG  873  22.080  38.595   5.837
    2AU     LIG  874  21.731  38.917   5.753
    2AU     LIG  875  21.578  39.362   5.663
    2AU    AUSL  876  22.312  36.493   7.651
    2AU    AUSL  877  22.360  36.241   7.310
    2AU     AUL  878  22.194  36.502   7.253
    2AU       S  879  22.022  36.025   7.442
    2AU     LIG  880  21.626  35.980   7.711
    2AU     LIG  881  21.146  35.999   7.802
    2AU     LIG  882  20.705  36.067   7.603
    2AU     LIG  883  20.444  35.731   7.314
    2AU     LIG  884  20.132  35.352   7.232
    2AU     LIG  885  19.650  35.370   7.135
    2AU       S  886  22.116  36.533   7.733
    2AU     LIG  887  21.811  36.772   8.023
    2AU     LIG  888  21.431  37.057   8.208
    2AU     LIG  889  21.002  37.304   8.339
    2AU     LIG  890  20.496  37.375   8.288
    2AU     LIG  891  20.000  37.372   8.203
    2AU     LIG  892  19.671  37.050   8.348
    2AU    AUSL  893  23.868  35.874   7.564
    2AU    AUSL  894  23.631  36.117   7.823
    2AU     AUL  895  24.054  36.109   7.922
    2AU       S  896  24.038  35.627   7.568
    2AU     LIG  897  24.245  35.253   7.654
    2AU     LIG  898  24.663  35.027   7.607
    2AU     LIG  899  25.104  34.850   7.526
    2AU     LIG  900  25.552  34.656   7.492
    2AU     LIG  901  25.915  34.366   7.654
    2AU     LIG  902  26.315  34.378   7.920
    2AU       S  903  23.842  35.745   8.078
    2AU     LIG  904  24.067  35.515   8.489
    2AU     LIG  905  24.191  35.086   8.648
    2AU     LIG  906  24.458  34.716   8.798
    2AU     LIG  907  24.757  34.567   9.138
    2AU     LIG  908  25.076  34.681   9.486
    2AU     LIG  909  25.403  34.882   9.789
    2AU    AUSL  910  23.707  36.194   7.374
    2AU    AUSL  911  23.646  35.720   7.258
    2AU     AUL  912  23.998  35.948   7.205
    2AU       S  913  24.020  35.764   7.614
    2AU     LIG  914  24.441  35.590   7.296
    2AU     LIG  915  24.912  35.367   7.305
    2AU     LIG  916  25.394  35.189   7.276
    2AU     LIG  917  25.873  35.017   7.263
    2AU     LIG  918  26.372  34.989   7.176
    2AU     LIG  919  26.795  34.888   6.939
    2AU       S  920  23.915  35.488   7.091
    2AU     LIG  921  23.720  35.072   6.925
    2AU     LIG  922  23.816  34.634   6.717
    2AU     LIG  923  24.004  34.256   6.433
    2AU     LIG  924  24.251  33.827   6.349
    2AU     LIG  925  24.637  33.584   6.176
    2AU     LIG  926  25.029  33.333   6.093
    2AU    AUSL  927  22.478  35.870   7.496
    2AU    AUSL  928  22.552  35.999   7.056
    2AU     AUL  929  22.268  36.067   7.040
    2AU       S  930  22.475  35.659   7.055
    2AU     LIG  931  21.994  35.611   7.014
    2AU     LIG  932  21.662  35.341   6.767
    2AU     LIG  933  21.340  35.032   6.537
    2AU     LIG  934  20.926  34.877   6.306
    2AU     LIG  935  20.680  34.696   5.922
    2AU     LIG  936  20.515  34.476   5.540
    2AU       S  937  22.184  35.825   7.427
    2AU     LIG  938  21.839  35.546   7.533
    2AU     LIG  939  21.386  35.499   7.694
    2AU     LIG  940  20.962  35.241   7.657
    2AU     LIG  941  20.492  35.167   7.559
    2AU     LIG  942  20.064  34.969   7.620
    2AU     LIG  943  19.625  34.767   7.750
    2AU    AUSL  944  22.625  36.239   7.629
    2AU    AUSL  945  22.704  35.895   7.864
    2AU     AUL  946  22.340  36.001   7.816
    2AU       S  947  22.465  35.725   8.157
    2AU     LIG  948  22.356  35.475   7.800
    2AU     LIG  949  21.994  35.152   7.853
    2AU     LIG  950  21.667  34.807   8.043
    2AU     LIG  951  21.405  34.461   8.306
    2AU     LIG  952  21.087  34.162   8.525
    2AU     LIG  953  20.785  33.783   8.579
    2AU       S  954  22.072  36.116   7.474
    2AU     LIG  955  21.670  36.350   7.345
    2AU     LIG  956  21.256  36.081   7.311
    2AU     LIG  957  20.970  35.689   7.420
    2AU     LIG  958  20.615  35.610   7.770
    2AU     LIG  959  20.148  35.757   7.756
    2AU     LIG  960  19.669  35.722   7.747
    2AU    AUSL  961  23.198  37.020   8.037
    2AU    AUSL  962  22.888  36.826   7.737
    2AU     AUL  963  22.909  37.127   8.112
    2AU       S  964  22.526  36.933   8.268
    2AU     LIG  965  22.470  37.361   8.355
    2AU     LIG  966  22.316  37.720   8.634
    2AU     LIG  967  22.159  38.149   8.820
    2AU     LIG  968  21.864  38.543   8.934
    2AU     LIG  969  21.540  38.920   9.010
    2AU     LIG  970  21.132  39.176   9.114
    2AU       S  971  23.266  37.423   7.995
    2AU     LIG  972  23.435  37.618   8.342
    2AU     LIG  973  23.315  38.007   8.581
    2AU     LIG  974  23.501  38.305   8.875
    2AU     LIG  975  23.543  38.673   9.148
    2AU     LIG  976  23.532  39.006   9.473
    2AU     LIG  977  23.370  39.410   9.643
    2AU    AUSL  978  22.957  37.212   7.668
    2AU    AUSL  979  23.411  37.193   7.283
    2AU     AUL  980  23.114  37.457   7.436
    2AU       S  981  23.099  37.501   7.892
    2AU     LIG  982  23.125  37.929   8.090
    2AU     LIG  983  23.222  38.360   8.197
    2AU     LIG  984  23.209  38.817   8.343
    2AU     LIG  985  22.884  39.199   8.314
    2AU     LIG  986  22.569  39.612   8.298
    2AU     LIG  987  22.462  40.098   8.371
    2AU       S  988  23.429  37.548   7.082
    2AU     LIG  989  23.577  37.978   6.919
    2AU     LIG  990  23.713  38.376   6.691
    2AU     LIG  991  23.867  38.816   6.579
    2AU     LIG  992  24.145  39.231   6.572
    2AU     LIG  993  24.299  39.695   6.487
    2AU     LIG  994  24.141  40.111   6.310
    2AU    AUSL  995  23.352  37.057   7.661
    2AU    AUSL  996  23.385  36.685   7.914
    2AU     AUL  997  23.509  37.044   8.082
    2AU       S  998  23.923  36.886   8.210
    2AU     LIG  999  24.123  37.037   8.568
    2AU     LIG 1000  24.374  37.301   8.863
    2AU     LIG 1001  24.650  37.494   9.192
    2AU     LIG 1002  24.860  37.768   9.503
    2AU     LIG 1003  24.843  38.110   9.846
    2AU     LIG 1004  24.847  38.439  10.197
    2AU       S 1005  23.446  37.360   7.746
    2AU     LIG 1006  23.567  37.799   7.856
    2AU     LIG 1007  23.661  38.096   8.207
    2AU     LIG 1008  23.652  38.525   8.425
    2AU     LIG 1009  23.743  38.999   8.425
    2AU     LIG 1010  23.931  39.450   8.482
    2AU     LIG 1011  23.965  39.926   8.555
    2AU    AUSL 1012  23.137  35.798   7.865
    2AU    AUSL 1013  23.543  35.714   7.743
    2AU     AUL 1014  23.329  35.599   8.112
    2AU       S 1015  23.147  35.199   7.992
    2AU     LIG 1016  23.196  34.797   8.189
    2AU     LIG 1017  22.935  34.441   8.310
    2AU     LIG 1018  22.768  34.024   8.380
    2AU     LIG 1019  22.914  33.679   8.640
    2AU     LIG 1020  22.962  33.421   9.025
    2AU     LIG 1021  22.868  33.110   9.372
    2AU       S 1022  23.701  35.480   7.864
    2AU     LIG 1023  23.994  35.128   8.099
    2AU     LIG 1024  24.063  34.701   8.337
    2AU     LIG 1025  24.219  34.314   8.564
    2AU     LIG 1026  24.505  34.089   8.865
    2AU     LIG 1027  24.883  33.799   8.897
    2AU     LIG 1028  25.286  33.531   8.883
    2AU    AUSL 1029  22.850  35.601   7.639
    2AU    AUSL 1030  22.935  35.872   8.213
    2AU     AUL 1031  22.867  35.578   7.991
    2AU       S 1032  22.949  35.141   7.873
    2AU     LIG 1033  22.746  34.727   7.910
    2AU     LIG 1034  22.573  34.274   7.968
    2AU     LIG 1035  22.269  33.893   8.088
    2AU     LIG 1036  21.963  33.509   8.211
    2AU     LIG 1037  21.925  33.013   8.267
    2AU     LIG 1038  22.189  32.651   8.475
    2AU       S 1039  22.609  35.741   8.338
    2AU     LIG 1040  22.254  35.328   8.317
    2AU     LIG 1041  21.945  35.003   8.425
    2AU     LIG 1042  21.748  34.628   8.648
    2AU     LIG 1043  21.629  34.419   9.053
    2AU     LIG 1044  21.675  34.151   9.448
    2AU     LIG 1045  21.623  34.048   9.911
    2AU    AUSL 1046  23.245  35.470   7.626
    2AU    AUSL 1047  22.960  35.553   7.250
    2AU     AUL 1048  22.787  35.357   7.505
    2AU       S 1049  22.945  35.173   7.087
    2AU     LIG 1050  22.574  34.896   7.044
    2AU     LIG 1051  22.412  34.430   6.944
    2AU     LIG 1052  22.157  33.982   6.942
    2AU     LIG 1053  22.002  33.503   7.020
    2AU     LIG 1054  22.154  33.020   6.938
    2AU     LIG 1055  22.373  32.659   6.641
    2AU       S 1056  23.209  35.307   7.721
    2AU     LIG 1057  23.223  34.798   7.673
    2AU     LIG 1058  23.126  34.367   7.833
    2AU     LIG 1059  23.218  34.008   8.123
    2AU     LIG 1060  23.333  33.595   8.342
    2AU     LIG 1061  23.609  33.226   8.475
    2AU     LIG 1062  23.685  32.744   8.505
    2AU    AUSL 1063  23.168  37.011   6.966
    2AU    AUSL 1064  23.469  36.793   7.267
    2AU     AUL 1065  23.558  37.108   7.039
    2AU       S 1066  23.213  37.287   6.779
    2AU     LIG 1067  23.453  37.620   6.561
    2AU     LIG 1068  23.458  38.043   6.378
    2AU     LIG 1069  23.496  38.486   6.209
    2AU     LIG 1070  23.539  38.711   5.780
    2AU     LIG 1071  23.532  38.974   5.378
    2AU     LIG 1072  23.682  39.339   5.120
    2AU       S 1073  23.910  36.797   6.973
    2AU     LIG 1074  24.264  37.167   6.765
    2AU     LIG 1075  24.570  37.407   6.436
    2AU     LIG 1076  24.944  37.695   6.247
    2AU     LIG 1077  25.269  38.104   6.205
    2AU     LIG 1078  25.527  38.560   6.200
    2AU     LIG 1079  25.516  39.064   6.124
    2AU    AUSL 1080  23.066  36.975   7.360
    2AU    AUSL 1081  22.928  36.703   7.067
    2AU     AUL 1082  22.902  37.186   7.130
    2AU       S 1083  23.246  37.467   6.998
    2AU     LIG 1084  23.083  37.889   6.839
    2AU     LIG 1085  23.202  38.326   6.704
    2AU     LIG 1086  23.112  38.751   6.582
    2AU     LIG 1087  22.835  39.165   6.603
    2AU     LIG 1088  22.645  39.618   6.579
    2AU     LIG 1089  22.460  39.982   6.341
    2AU       S 1090  22.746  37.054   6.721
    2AU     LIG 1091  22.632  37.051   6.285
    2AU     LIG 1092  22.484  37.377   5.947
    2AU     LIG 1093  22.287  37.506   5.503
    2AU     LIG 1094  22.273  37.820   5.114
    2AU     LIG 1095  22.083  38.157   4.805
    2AU     LIG 1096  21.884  38.578   4.655
    2AU    AUSL 1097  23.265  35.669   6.980
    2AU    AUSL 1098  22.842  35.929   7.334
    2AU     AUL 1099  22.928  35.619   6.952
    2AU       S 1100  22.502  35.537   7.165
    2AU     LIG 1101  22.212  35.252   7.323
    2AU     LIG 1102  21.833  35.018   7.132
    2AU     LIG 1103  21.500  34.715   6.917
    2AU     LIG 1104  21.139  34.539   6.656
    2AU     LIG 1105  20.808  34.368   6.364
    2AU     LIG 1106  20.775  33.930   6.184
    2AU       S 1107  23.210  35.262   6.923
    2AU     LIG 1108  23.236  34.878   6.706
    2AU     LIG 1109  22.885  34.563   6.703
    2AU     LIG 1110  22.785  34.153   6.519
    2AU     LIG 1111  23.008  33.836   6.242
    2AU     LIG 1112  23.016  33.561   5.837
    2AU     LIG 1113  23.128  33.363   5.410
    2AU    AUSL 1114  23.269  35.786   7.394
    2AU    AUSL 1115  23.406  36.024   7.089
    2AU     AUL 1116  23.469  35.523   7.199
    2AU       S 1117  23.123  35.245   7.213
    2AU     LIG 1118  23.355  34.865   7.203
    2AU     LIG 1119  23.251  34.471   7.043
    2AU     LIG 1120  23.122  34.057   6.895
    2AU     LIG 1121  23.380  33.709   6.710
    2AU     LIG 1122  23.484  33.238   6.676
    2AU     LIG 1123  23.324  32.769   6.601
    2AU       S 1124  23.691  35.568   6.805
    2AU     LIG 1125  23.526  35.294   6.504
    2AU     LIG 1126  23.630  34.879   6.313
    2AU     LIG 1127  23.882  34.580   6.036
    2AU     LIG 1128  24.147  34.488   5.641
    2AU     LIG 1129  24.316  34.339   5.227
    2AU     LIG 1130  24.415  34.006   4.901
    3AU     AUC 1131  24.969  18.768   7.505
    3AU     AUC 1132  25.228  18.764   7.344
    3AU     AUC 1133  25.215  18.749   7.663
    3AU     AUC 1134  24.720  18.777   7.344
    3AU     AUC 1135  24.709  18.790   7.660
    3AU     AUC 1136  24.825  19.028   7.510
    3AU     AUC 1137  25.135  19.018   7.495
    3AU     AUC 1138  24.805  18.522   7.511
    3AU     AUC 1139  25.104  18.499   7.513
    3AU     AUC 1140  24.964  18.611   7.761
    3AU     AUC 1141  24.985  18.921   7.767
    3AU     AUC 1142  24.963  18.613   7.238
    3AU     AUC 1143  24.968  18.912   7.247
    3AU     AUC 1144  25.489  18.765   7.190
    3AU     AUC 1145  25.487  18.764   7.493
    3AU     AUC 1146  25.472  18.748   7.815
    3AU     AUC 1147  24.461  18.777   7.192
    3AU     AUC 1148  24.452  18.800   7.489
    3AU     AUC 1149  24.457  18.818   7.816
    3AU     AUC 1150  24.686  19.296   7.514
    3AU     AUC 1151  25.000  19.289   7.511
    3AU     AUC 1152  25.296  19.275   7.498
    3AU     AUC 1153  24.624  18.276   7.513
    3AU     AUC 1154  24.933  18.247   7.496
    3AU     AUC 1155  25.251  18.232   7.510
    3AU     AUC 1156  24.962  18.457   8.009
    3AU     AUC 1157  24.982  18.766   8.032
    3AU     AUC 1158  24.993  19.072   8.026
    3AU     AUC 1159  24.960  18.440   7.000
    3AU     AUC 1160  24.968  18.749   6.982
    3AU     AUC 1161  24.965  19.064   6.985
    3AU     AUC 1162  25.227  18.601   7.924
    3AU     AUC 1163  25.242  18.904   7.932
    3AU     AUC 1164  25.231  18.596   7.083
    3AU     AUC 1165  25.239  18.897   7.073
    3AU     AUC 1166  24.702  18.643   7.930
    3AU     AUC 1167  24.720  18.947   7.935
    3AU     AUC 1168  24.711  18.615   7.075
    3AU     AUC 1169  24.710  18.927   7.085
    3AU     AUC 1170  25.392  19.018   7.326
    3AU     AUC 1171  25.403  18.999   7.660
    3AU     AUC 1172  24.559  19.043   7.357
    3AU     AUC 1173  24.568  19.057   7.674
    3AU     AUC 1174  25.383  18.494   7.362
    3AU     AUC 1175  25.357  18.468   7.662
    3AU     AUC 1176  24.541  18.522   7.349
    3AU     AUC 1177  24.541  18.544   7.688
    3AU     AUC 1178  24.832  19.188   7.782
    3AU     AUC 1179  25.150  19.187   7.751
    3AU     AUC 1180  24.773  18.357   7.754
    3AU     AUC 1181  25.090  18.338   7.765
    3AU     AUC 1182  24.826  19.190   7.252
    3AU     AUC 1183  25.142  19.168   7.235
    3AU     AUC 1184  24.792  18.367   7.235
    3AU     AUC 1185  25.123  18.348   7.257
    3AU    AUSL 1186  25.485  18.642   8.191
    3AU    AUSL 1187  25.240  18.274   8.117
    3AU     AUL 1188  25.409  18.222   8.484
    3AU       S 1189  25.600  18.003   8.099
    3AU     LIG 1190  25.394  17.712   8.399
    3AU     LIG 1191  25.537  17.381   8.676
    3AU     LIG 1192  25.807  17.058   8.894
    3AU     LIG 1193  25.974  16.690   9.155
    3AU     LIG 1194  25.990  16.531   9.616
    3AU     LIG 1195  26.153  16.361  10.041
    3AU       S 1196  25.549  18.587   8.272
    3AU     LIG 1197  25.885  18.448   8.491
    3AU     LIG 1198  25.906  18.268   8.946
    3AU     LIG 1199  26.022  18.236   9.433
    3AU     LIG 1200  26.273  18.305   9.861
    3AU     LIG 1201  26.524  18.475  10.250
    3AU     LIG 1202  26.766  18.761  10.568
    3AU    AUSL 1203  25.086  18.597   8.318
    3AU    AUSL 1204  24.887  18.960   8.287
    3AU     AUL 1205  25.044  18.923   8.700
    3AU       S 1206  25.130  18.569   8.458
    3AU     LIG 1207  25.092  18.402   8.860
    3AU     LIG 1208  25.368  18.158   9.180
    3AU     LIG 1209  25.518  17.947   9.599
    3AU     LIG 1210  25.560  17.720  10.035
    3AU     LIG 1211  25.609  17.572  10.503
    3AU     LIG 1212  25.556  17.576  10.975
    3AU       S 1213  24.662  18.689   8.635
    3AU     LIG 1214  24.545  18.582   9.089
    3AU     LIG 1215  24.325  18.512   9.509
    3AU     LIG 1216  24.166  18.477   9.961
    3AU     LIG 1217  24.158  18.724  10.383
    3AU     LIG 1218  24.084  19.008  10.775
    3AU     LIG 1219  23.988  19.229  11.195
    3AU    AUSL 1220  25.285  18.999   8.287
    3AU    AUSL 1221  25.614  18.986   8.006
    3AU     AUL 1222  25.677  18.920   8.509
    3AU       S 1223  25.304  19.114   8.384
    3AU     LIG 1224  25.443  19.327   8.756
    3AU     LIG 1225  25.530  19.527   9.205
    3AU     LIG 1226  25.511  19.672   9.688
    3AU     LIG 1227  25.637  19.783  10.150
    3AU     LIG 1228  25.826  19.735  10.586
    3AU     LIG 1229  25.752  19.579  11.031
    3AU       S 1230  25.853  18.969   8.066
    3AU     LIG 1231  26.171  18.976   8.392
    3AU     LIG 1232  26.414  19.240   8.715
    3AU     LIG 1233  26.696  19.469   9.037
    3AU     LIG 1234  26.942  19.662   9.417
    3AU     LIG 1235  27.368  19.709   9.670
    3AU     LIG 1236  27.574  19.868  10.077
    3AU    AUSL 1237  25.469  18.750   6.853
    3AU    AUSL 1238  25.275  19.175   6.825
    3AU     AUL 1239  25.608  19.076   6.438
    3AU       S 1240  25.528  18.753   6.708
    3AU     LIG 1241  25.800  18.598   6.395
    3AU     LIG 1242  25.846  18.471   5.945
    3AU     LIG 1243  25.954  18.309   5.504
    3AU     LIG 1244  26.258  18.280   5.130
    3AU     LIG 1245  26.644  18.293   4.829
    3AU     LIG 1246  26.917  18.334   4.429
    3AU       S 1247  25.286  19.235   6.678
    3AU     LIG 1248  25.591  19.559   6.579
    3AU     LIG 1249  25.932  19.601   6.263
    3AU     LIG 1250  26.237  19.800   5.946
    3AU     LIG 1251  26.405  20.005   5.531
    3AU     LIG 1252  26.458  20.234   5.097
    3AU     LIG 1253  26.587  20.618   4.835
    3AU    AUSL 1254  25.173  18.468   6.695
    3AU    AUSL 1255  25.645  18.434   7.040
    3AU     AUL 1256  25.493  18.315   6.695
    3AU       S 1257  25.901  18.114   6.863
    3AU     LIG 1258  26.063  17.707   6.656
    3AU     LIG 1259  26.235  17.371   6.381
    3AU     LIG 1260  26.462  17.209   6.035
    3AU     LIG 1261  26.901  17.331   5.908
    3AU     LIG 1262  27.231  17.212   5.609
    3AU     LIG 1263  27.385  17.085   5.179
    3AU       S 1264  25.300  18.679   6.427
    3AU     LIG 1265  25.371  18.331   6.177
    3AU     LIG 1266  25.510  18.120   5.765
    3AU     LIG 1267  25.536  18.039   5.294
    3AU     LIG 1268  25.571  17.866   4.844
    3AU     LIG 1269  25.718  17.752   4.408
    3AU     LIG 1270  25.895  17.877   3.990
    3AU    AUSL 1271  25.070  18.834   6.867
    3AU    AUSL 1272  24.789  18.605   6.670
    3AU     AUL 1273  24.968  18.381   6.544
    3AU       S 1274  24.707  18.717   6.351
    3AU     LIG 1275  24.755  18.347   6.090
    3AU     LIG 1276  24.557  18.084   5.738
    3AU     LIG 1277  24.363  18.035   5.296
    3AU     LIG 1278  24.273  17.797   4.867
    3AU     LIG 1279  24.202  17.638   4.401
    3AU     LIG 1280  23.966  17.564   3.981
    3AU       S 1281  25.194  18.807   6.489
    3AU     LIG 1282  25.449  18.816   5.997
    3AU     LIG 1283  25.514  18.597   5.558
    3AU     LIG 1284  25.668  18.501   5.098
    3AU     LIG 1285  25.720  18.554   4.615
    3AU     LIG 1286  25.842  18.737   4.176
    3AU     LIG 1287  26.098  18.900   3.789
    3AU    AUSL 1288  24.505  18.845   8.227
    3AU    AUSL 1289  24.653  19.251   8.139
    3AU     AUL 1290  24.725  19.163   8.462
    3AU       S 1291  24.448  18.829   8.638
    3AU     LIG 1292  24.194  18.453   8.721
    3AU     LIG 1293  24.017  18.314   9.141
    3AU     LIG 1294  23.820  18.347   9.584
    3AU     LIG 1295  23.520  18.403   9.952
    3AU     LIG 1296  23.183  18.493  10.283
    3AU     LIG 1297  22.957  18.274  10.658
    3AU       S 1298  24.269  19.234   8.371
    3AU     LIG 1299  24.406  19.500   8.742
    3AU     LIG 1300  24.317  19.866   9.042
    3AU     LIG 1301  24.285  20.107   9.466
    3AU     LIG 1302  24.135  20.240   9.910
    3AU     LIG 1303  23.824  20.420  10.239
    3AU     LIG 1304  23.493  20.754  10.331
    3AU    AUSL 1305  24.792  18.628   8.042
    3AU    AUSL 1306  24.262  18.617   7.992
    3AU     AUL 1307  24.372  18.604   8.245
    3AU       S 1308  24.109  18.225   8.240
    3AU     LIG 1309  23.744  18.088   8.019
    3AU     LIG 1310  23.396  17.804   8.138
    3AU     LIG 1311  23.206  17.536   8.489
    3AU     LIG 1312  22.997  17.259   8.822
    3AU     LIG 1313  22.737  16.990   9.122
    3AU     LIG 1314  22.334  17.003   9.380
    3AU       S 1315  24.680  18.553   8.577
    3AU     LIG 1316  24.623  18.170   8.798
    3AU     LIG 1317  24.462  18.075   9.241
    3AU     LIG 1318  24.220  18.027   9.664
    3AU     LIG 1319  24.003  17.918  10.090
    3AU     LIG 1320  23.996  17.732  10.546
    3AU     LIG 1321  24.210  17.710  10.969
    3AU    AUSL 1322  24.554  18.743   6.968
    3AU    AUSL 1323  24.694  18.308   6.925
    3AU     AUL 1324  24.489  18.430   6.647
    3AU       S 1325  24.513  18.813   6.332
    3AU     LIG 1326  24.265  18.458   6.132
    3AU     LIG 1327  24.128  18.361   5.674
    3AU     LIG 1328  23.879  18.264   5.268
    3AU     LIG 1329  23.458  18.222   5.010
    3AU     LIG 1330  23.178  18.290   4.618
    3AU     LIG 1331  23.026  18.448   4.200
    3AU       S 1332  24.258  18.026   6.814
    3AU     LIG 1333  24.031  17.643   6.791
    3AU     LIG 1334  23.739  17.376   6.546
    3AU     LIG 1335  23.472  17.120   6.257
    3AU     LIG 1336  23.267  16.949   5.876
    3AU     LIG 1337  23.182  16.831   5.432
    3AU     LIG 1338  23.037  16.648   5.018
    3AU    AUSL 1339  24.755  19.027   6.698
    3AU    AUSL 1340  24.362  19.101   6.959
    3AU     AUL 1341  24.328  18.865   6.742
    3AU       S 1342  24.363  19.334   6.754
    3AU     LIG 1343  24.087  19.496   6.401
    3AU     LIG 1344  23.859  19.642   5.999
    3AU     LIG 1345  23.634  19.703   5.574
    3AU     LIG 1346  23.308  19.861   5.270
    3AU     LIG 1347  22.878  19.895   5.064
    3AU     LIG 1348  22.439  20.076   5.112
    3AU       S 1349  24.745  18.963   6.489
    3AU     LIG 1350  24.925  18.836   5.961
    3AU     LIG 1351  24.635  18.586   5.635
    3AU     LIG 1352  24.339  18.566   5.240
    3AU     LIG 1353  24.206  18.740   4.795
    3AU     LIG 1354  24.157  18.955   4.350
    3AU     LIG 1355  24.055  19.264   3.988
    3AU    AUSL 1356  25.639  19.305   7.414
    3AU    AUSL 1357  25.611  19.074   7.057
    3AU     AUL 1358  25.818  19.496   7.209
    3AU       S 1359  25.769  19.147   6.870
    3AU     LIG 1360  26.094  19.044   6.565
    3AU     LIG 1361  26.354  19.297   6.245
    3AU     LIG 1362  26.683  19.546   5.992
    3AU     LIG 1363  26.991  19.607   5.622
    3AU     LIG 1364  27.408  19.744   5.431
    3AU     LIG 1365  27.640  19.993   5.102
    3AU       S 1366  26.115  19.198   7.426
    3AU     LIG 1367  26.588  19.121   7.541
    3AU     LIG 1368  27.080  19.165   7.565
    3AU     LIG 1369  27.540  19.361   7.548
    3AU     LIG 1370  27.897  19.735   7.471
    3AU     LIG 1371  28.144  20.203   7.488
    3AU     LIG 1372  28.333  20.581   7.753
    3AU    AUSL 1373  25.819  18.830   7.304
    3AU    AUSL 1374  25.794  18.635   7.714
    3AU     AUL 1375  26.102  18.578   7.502
    3AU       S 1376  25.997  18.998   7.330
    3AU     LIG 1377  26.394  18.833   7.150
    3AU     LIG 1378  26.900  18.841   7.197
    3AU     LIG 1379  27.397  18.965   7.207
    3AU     LIG 1380  27.876  19.147   7.224
    3AU     LIG 1381  28.292  19.381   7.130
    3AU     LIG 1382  28.568  19.654   6.806
    3AU       S 1383  26.097  18.161   7.742
    3AU     LIG 1384  26.468  17.887   7.673
    3AU     LIG 1385  26.901  17.671   7.679
    3AU     LIG 1386  27.316  17.659   7.944
    3AU     LIG 1387  27.774  17.531   7.949
    3AU     LIG 1388  28.246  17.589   7.896
    3AU     LIG 1389  28.646  17.605   8.161
    3AU    AUSL 1390  25.568  18.954   7.609
    3AU    AUSL 1391  25.507  19.337   7.802
    3AU     AUL 1392  25.755  19.326   7.701
    3AU       S 1393  25.719  19.113   8.087
    3AU     LIG 1394  26.176  19.351   8.031
    3AU     LIG 1395  26.364  19.619   8.370
    3AU     LIG 1396  26.566  19.864   8.722
    3AU     LIG 1397  26.748  20.228   8.981
    3AU     LIG 1398  26.947  20.682   8.997
    3AU     LIG 1399  27.159  21.122   9.029
    3AU       S 1400  26.081  19.020   7.647
    3AU     LIG 1401  26.386  18.852   7.935
    3AU     LIG 1402  26.892  18.818   7.916
    3AU     LIG 1403  27.387  18.849   7.839
    3AU     LIG 1404  27.836  19.053   7.871
    3AU     LIG 1405  28.297  19.088   8.010
    3AU     LIG 1406  28.733  19.170   8.160
    3AU    AUSL 1407  24.330  19.329   7.585
    3AU    AUSL 1408  24.367  19.065   7.917
    3AU     AUL 1409  24.324  19.512   7.856
    3AU       S 1410  24.144  19.136   8.111
    3AU     LIG 1411  23.792  19.334   8.422
    3AU     LIG 1412  23.644  19.394   8.872
    3AU     LIG 1413  23.473  19.455   9.317
    3AU     LIG 1414  23.061  19.539   9.539
    3AU     LIG 1415  22.768  19.807   9.815
    3AU     LIG 1416  22.487  20.150  10.000
    3AU       S 1417  23.947  19.376   7.636
    3AU     LIG 1418  23.657  19.760   7.532
    3AU     LIG 1419  23.458  20.237   7.514
    3AU     LIG 1420  23.178  20.599   7.681
    3AU     LIG 1421  22.763  20.826   7.667
    3AU     LIG 1422  22.329  20.942   7.569
    3AU     LIG 1423  21.896  21.014   7.740
    3AU    AUSL 1424  24.384  19.001   7.347
    3AU    AUSL 1425  24.504  19.415   7.223
    3AU     AUL 1426  24.210  19.341   7.225
    3AU       S 1427  23.829  19.268   7.489
    3AU     LIG 1428  23.609  19.273   7.087
    3AU     LIG 1429  23.257  19.385   6.760
    3AU     LIG 1430  22.818  19.537   6.623
    3AU     LIG 1431  22.381  19.690   6.695
    3AU     LIG 1432  21.947  19.522   6.755
    3AU     LIG 1433  21.477  19.612   6.744
    3AU       S 1434  24.342  19.613   6.854
    3AU     LIG 1435  24.425  19.881   6.465
    3AU     LIG 1436  24.219  20.192   6.161
    3AU     LIG 1437  23.988  20.611   6.134
    3AU     LIG 1438  23.593  20.884   6.101
    3AU     LIG 1439  23.275  21.212   6.157
    3AU     LIG 1440  22.923  21.483   5.976
    3AU    AUSL 1441  24.112  18.926   7.648
    3AU    AUSL 1442  24.150  18.670   7.315
    3AU     AUL 1443  24.003  18.936   7.228
    3AU       S 1444  23.824  18.497   7.447
    3AU     LIG 1445  23.447  18.434   7.734
    3AU     LIG 1446  22.968  18.368   7.832
    3AU     LIG 1447  22.505  18.221   7.877
    3AU     LIG 1448  22.177  17.974   7.597
    3AU     LIG 1449  21.748  17.745   7.473
    3AU     LIG 1450  21.278  17.547   7.450
    3AU       S 1451  23.934  18.975   7.704
    3AU     LIG 1452  23.647  19.155   7.972
    3AU     LIG 1453  23.247  19.362   8.044
    3AU     LIG 1454  22.821  19.269   8.194
    3AU     LIG 1455  22.401  19.288   8.387
    3AU     LIG 1456  22.056  19.587   8.369
    3AU     LIG 1457  21.592  19.593   8.379
    3AU    AUSL 1458  25.660  18.270   7.567
    3AU    AUSL 1459  25.420  18.513   7.822
    3AU     AUL 1460  25.848  18.496   7.926
    3AU       S 1461  25.882  18.014   7.611
    3AU     LIG 1462  26.116  17.660   7.381
    3AU     LIG 1463  26.546  17.416   7.383
    3AU     LIG 1464  26.875  17.107   7.537
    3AU     LIG 1465  27.239  16.787   7.474
    3AU     LIG 1466  27.685  16.566   7.517
    3AU     LIG 1467  28.131  16.735   7.579
    3AU       S 1468  25.622  18.143   8.084
    3AU     LIG 1469  25.853  17.936   8.503
    3AU     LIG 1470  26.030  17.535   8.648
    3AU     LIG 1471  26.300  17.193   8.828
    3AU     LIG 1472  26.646  17.116   9.153
    3AU     LIG 1473  27.020  17.150   9.460
    3AU     LIG 1474  27.315  17.104   9.845
    3AU    AUSL 1475  25.504  18.594   7.381
    3AU    AUSL 1476  25.442  18.111   7.261
    3AU     AUL 1477  25.797  18.364   7.238
    3AU       S 1478  25.808  18.148   7.623
    3AU     LIG 1479  26.231  18.138   7.269
    3AU     LIG 1480  26.602  17.869   7.159
    3AU     LIG 1481  27.034  17.692   7.158
    3AU     LIG 1482  27.523  17.742   7.077
    3AU     LIG 1483  27.988  17.551   7.044
    3AU     LIG 1484  28.399  17.774   6.918
    3AU       S 1485  25.719  17.905   7.161
    3AU     LIG 1486  25.763  17.479   7.017
    3AU     LIG 1487  25.894  17.165   6.698
    3AU     LIG 1488  26.129  16.848   6.421
    3AU     LIG 1489  26.188  16.406   6.221
    3AU     LIG 1490  26.393  16.040   5.982
    3AU     LIG 1491  26.631  15.617   5.959
    3AU    AUSL 1492  24.266  18.296   7.497
    3AU    AUSL 1493  24.329  18.420   7.063
    3AU     AUL 1494  24.061  18.495   7.033
    3AU       S 1495  24.257  18.079   7.063
    3AU     LIG 1496  23.790  18.052   7.015
    3AU     LIG 1497  23.509  17.813   6.737
    3AU     LIG 1498  23.262  17.568   6.418
    3AU     LIG 1499  23.001  17.320   6.113
    3AU     LIG 1500  22.805  17.138   5.719
    3AU     LIG 1501  22.519  17.177   5.350
    3AU       S 1502  23.976  18.269   7.426
    3AU     LIG 1503  23.665  18.001   7.522
    3AU     LIG 1504  23.229  17.976   7.619
    3AU     LIG 1505  22.766  17.892   7.575
    3AU     LIG 1506  22.441  17.543   7.608
    3AU     LIG 1507  22.038  17.299   7.530
    3AU     LIG 1508  21.863  16.867   7.410
    3AU    AUSL 1509  24.420  18.663   7.629
    3AU    AUSL 1510  24.496  18.309   7.858
    3AU     AUL 1511  24.123  18.440   7.818
    3AU       S 1512  24.258  18.133   8.126
    3AU     LIG 1513  24.148  17.887   7.768
    3AU     LIG 1514  23.775  17.583   7.849
    3AU     LIG 1515  23.432  17.285   8.085
    3AU     LIG 1516  23.140  17.022   8.381
    3AU     LIG 1517  22.876  16.756   8.678
    3AU     LIG 1518  22.776  16.463   9.032
    3AU       S 1519  23.871  18.554   7.461
    3AU     LIG 1520  23.420  18.377   7.225
    3AU     LIG 1521  22.983  18.241   7.236
    3AU     LIG 1522  22.569  18.348   7.399
    3AU     LIG 1523  22.144  18.480   7.593
    3AU     LIG 1524  21.741  18.240   7.700
    3AU     LIG 1525  21.397  17.925   7.807
    3AU    AUSL 1526  25.017  19.415   8.063
    3AU    AUSL 1527  24.697  19.232   7.737
    3AU     AUL 1528  24.715  19.527   8.123
    3AU       S 1529  24.326  19.338   8.276
    3AU     LIG 1530  24.266  19.770   8.318
    3AU     LIG 1531  24.184  20.147   8.603
    3AU     LIG 1532  23.902  20.461   8.815
    3AU     LIG 1533  23.656  20.852   8.884
    3AU     LIG 1534  23.369  21.196   9.068
    3AU     LIG 1535  23.096  21.342   9.428
    3AU       S 1536  25.076  19.821   8.041
    3AU     LIG 1537  25.230  20.022   8.405
    3AU     LIG 1538  25.216  20.484   8.512
    3AU     LIG 1539  25.305  20.879   8.758
    3AU     LIG 1540  25.224  21.085   9.180
    3AU     LIG 1541  25.008  21.428   9.425
    3AU     LIG 1542  24.938  21.869   9.595
    3AU    AUSL 1543  24.756  19.622   7.684
    3AU    AUSL 1544  25.246  19.594   7.307
    3AU     AUL 1545  24.891  19.865   7.453
    3AU       S 1546  24.914  19.897   7.909
    3AU     LIG 1547  24.895  20.292   8.127
    3AU     LIG 1548  25.104  20.674   8.042
    3AU     LIG 1549  25.131  21.035   8.286
    3AU     LIG 1550  24.897  21.369   8.498
    3AU     LIG 1551  24.599  21.717   8.362
    3AU     LIG 1552  24.318  22.048   8.541
    3AU       S 1553  25.307  19.899   7.225
    3AU     LIG 1554  25.395  20.302   6.998
    3AU     LIG 1555  25.391  20.699   6.738
    3AU     LIG 1556  25.650  21.104   6.644
    3AU     LIG 1557  25.989  21.477   6.643
    3AU     LIG 1558  26.152  21.942   6.581
    3AU     LIG 1559  26.111  22.431   6.543
    3AU    AUSL 1560  25.149  19.469   7.681
    3AU    AUSL 1561  25.199  19.091   7.911
    3AU     AUL 1562  25.347  19.452   8.062
    3AU       S 1563  25.733  19.241   8.189
    3AU     LIG 1564  25.919  19.398   8.541
    3AU     LIG 1565  26.126  19.635   8.884
    3AU     LIG 1566  26.397  19.844   9.212
    3AU     LIG 1567  26.603  20.101   9.535
    3AU     LIG 1568  26.519  20.459   9.851
    3AU     LIG 1569  26.539  20.837  10.141
    3AU       S 1570  25.234  19.792   7.764
    3AU     LIG 1571  25.386  20.230   7.961
    3AU     LIG 1572  25.587  20.634   8.188
    3AU     LIG 1573  25.706  21.088   8.343
    3AU     LIG 1574  26.040  21.479   8.378
    3AU     LIG 1575  26.214  21.943   8.370
    3AU     LIG 1576  26.215  22.419   8.374
    3AU    AUSL 1577  24.928  18.207   7.859
    3AU    AUSL 1578  25.332  18.113   7.742
    3AU     AUL 1579  25.118  18.005   8.113
    3AU       S 1580  24.940  17.607   7.979
    3AU     LIG 1581  24.938  17.315   8.286
    3AU     LIG 1582  24.671  16.991   8.439
    3AU     LIG 1583  24.617  16.549   8.473
    3AU     LIG 1584  24.642  16.094   8.551
    3AU     LIG 1585  24.678  15.789   8.913
    3AU     LIG 1586  24.682  15.454   9.258
    3AU       S 1587  25.488  17.879   7.862
    3AU     LIG 1588  25.783  17.540   8.128
    3AU     LIG 1589  25.883  17.120   8.379
    3AU     LIG 1590  25.944  16.669   8.568
    3AU     LIG 1591  26.196  16.268   8.600
    3AU     LIG 1592  26.443  15.979   8.850
    3AU     LIG 1593  26.883  15.977   9.016
    3AU    AUSL 1594  24.635  18.012   7.631
    3AU    AUSL 1595  24.726  18.274   8.208
    3AU     AUL 1596  24.662  17.983   7.977
    3AU       S 1597  24.734  17.547   7.858
    3AU     LIG 1598  24.497  17.198   7.994
    3AU     LIG 1599  24.329  16.769   8.099
    3AU     LIG 1600  24.336  16.294   8.123
    3AU     LIG 1601  24.064  15.902   8.086
    3AU     LIG 1602  23.934  15.456   8.162
    3AU     LIG 1603  23.911  15.112   8.459
    3AU       S 1604  24.420  18.149   8.329
    3AU     LIG 1605  24.179  17.682   8.260
    3AU     LIG 1606  23.764  17.500   8.403
    3AU     LIG 1607  23.526  17.181   8.679
    3AU     LIG 1608  23.296  16.865   8.955
    3AU     LIG 1609  23.170  16.615   9.330
    3AU     LIG 1610  23.207  16.308   9.689
    3AU    AUSL 1611  25.030  17.883   7.616
    3AU    AUSL 1612  24.749  17.969   7.241
    3AU     AUL 1613  24.607  17.754   7.473
    3AU       S 1614  24.814  17.633   7.078
    3AU     LIG 1615  24.429  17.419   7.095
    3AU     LIG 1616  24.350  16.939   7.104
    3AU     LIG 1617  24.392  16.448   6.998
    3AU     LIG 1618  24.339  15.940   6.913
    3AU     LIG 1619  24.215  15.428   6.874
    3AU     LIG 1620  24.248  14.977   6.638
    3AU       S 1621  25.004  17.701   7.727
    3AU     LIG 1622  25.010  17.155   7.783
    3AU     LIG 1623  24.836  16.754   8.001
    3AU     LIG 1624  24.881  16.280   8.120
    3AU     LIG 1625  25.128  15.877   8.273
    3AU     LIG 1626  25.410  15.457   8.224
    3AU     LIG 1627  25.451  14.966   8.097
    3AU    AUSL 1628  24.996  19.430   6.976
    3AU    AUSL 1629  25.282  19.196   7.256
    3AU     AUL 1630  25.392  19.489   7.027
    3AU       S 1631  25.074  19.770   6.835
    3AU     LIG 1632  25.094  20.175   6.591
    3AU     LIG 1633  25.132  20.565   6.300
    3AU     LIG 1634  25.309  20.746   5.896
    3AU     LIG 1635  25.379  21.040   5.535
    3AU     LIG 1636  25.395  21.495   5.419
    3AU     LIG 1637  25.308  21.887   5.164
    3AU       S 1638  25.709  19.154   6.934
    3AU     LIG 1639  26.073  19.514   6.760
    3AU     LIG 1640  26.384  19.764   6.460
    3AU     LIG 1641  26.653  20.048   6.172
    3AU     LIG 1642  26.921  20.454   6.096
    3AU     LIG 1643  27.121  20.903   6.040
    3AU     LIG 1644  27.296  21.349   5.937
    3AU    AUSL 1645  24.882  19.405   7.367
    3AU    AUSL 1646  24.759  19.123   7.084
    3AU     AUL 1647  24.729  19.601   7.114
    3AU       S 1648  25.128  19.869   7.070
    3AU     LIG 1649  24.891  20.234   7.072
    3AU     LIG 1650  24.874  20.596   6.782
    3AU     LIG 1651  24.946  20.999   6.556
    3AU     LIG 1652  24.956  21.471   6.530
    3AU     LIG 1653  24.596  21.799   6.508
    3AU     LIG 1654  24.178  22.050   6.472
    3AU       S 1655  24.586  19.450   6.707
    3AU     LIG 1656  24.586  19.426   6.278
    3AU     LIG 1657  24.372  19.728   5.961
    3AU     LIG 1658  24.079  19.976   5.657
    3AU     LIG 1659  23.789  20.105   5.270
    3AU     LIG 1660  23.603  20.464   5.006
    3AU     LIG 1661  23.476  20.681   4.593
    3AU    AUSL 1662  25.038  18.099   6.963
    3AU    AUSL 1663  24.630  18.343   7.330
    3AU     AUL 1664  24.701  18.049   6.921
    3AU       S 1665  24.290  17.957   7.173
    3AU     LIG 1666  23.984  17.662   7.302
    3AU     LIG 1667  23.627  17.429   7.061
    3AU     LIG 1668  23.309  17.179   6.757
    3AU     LIG 1669  23.031  16.905   6.441
    3AU     LIG 1670  22.718  16.532   6.313
    3AU     LIG 1671  22.508  16.103   6.170
    3AU       S 1672  24.987  17.682   6.957
    3AU     LIG 1673  24.875  17.240   6.779
    3AU     LIG 1674  24.637  16.846   6.684
    3AU     LIG 1675  24.581  16.418   6.514
    3AU     LIG 1676  24.593  16.140   6.133
    3AU     LIG 1677  24.751  15.946   5.727
    3AU     LIG 1678  25.010  15.631   5.487
    3AU    AUSL 1679  25.063  18.195   7.377
    3AU    AUSL 1680  25.237  18.427   7.081
    3AU     AUL 1681  25.292  18.028   7.007
    3AU       S 1682  25.022  17.693   7.207
    3AU     LIG 1683  24.868  17.204   7.295
    3AU     LIG 1684  24.830  16.739   7.146
    3AU     LIG 1685  24.892  16.303   6.929
    3AU     LIG 1686  25.163  15.891   6.873
    3AU     LIG 1687  25.267  15.421   6.849
    3AU     LIG 1688  25.591  15.107   6.675
    3AU       S 1689  25.742  17.985   6.925
    3AU     LIG 1690  25.535  17.747   6.627
    3AU     LIG 1691  25.718  17.447   6.299
    3AU     LIG 1692  25.944  17.119   6.028
    3AU     LIG 1693  26.200  16.776   5.819
    3AU     LIG 1694  26.189  16.546   5.386
    3AU     LIG 1695  26.338  16.510   4.922
    4AU     AUC 1696   1.731  25.921   7.506
    4AU     AUC 1697   1.992  25.921   7.348
    4AU     AUC 1698   1.979  25.908   7.662
    4AU     AUC 1699   1.480  25.926   7.342
    4AU     AUC 1700   1.471  25.941   7.660
    4AU     AUC 1701   1.584  26.179   7.505
    4AU     AUC 1702   1.895  26.172   7.494
    4AU     AUC 1703   1.570  25.672   7.513
    4AU     AUC 1704   1.868  25.653   7.523
    4AU     AUC 1705   1.729  25.767   7.763
    4AU     AUC 1706   1.746  26.078   7.764
    4AU     AUC 1707   1.728  25.761   7.246
    4AU     AUC 1708   1.726  26.062   7.246
    4AU     AUC 1709   2.245  25.914   7.188
    4AU     AUC 1710   2.249  25.926   7.488
    4AU     AUC 1711   2.237  25.914   7.810
    4AU     AUC 1712   1.221  25.917   7.188
    4AU     AUC 1713   1.213  25.944   7.493
    4AU     AUC 1714   1.221  25.966   7.819
    4AU     AUC 1715   1.442  26.445   7.508
    4AU     AUC 1716   1.752  26.442   7.503
    4AU     AUC 1717   2.047  26.434   7.497
    4AU     AUC 1718   1.385  25.424   7.518
    4AU     AUC 1719   1.700  25.399   7.503
    4AU     AUC 1720   2.019  25.394   7.525
    4AU     AUC 1721   1.730  25.615   8.014
    4AU     AUC 1722   1.748  25.924   8.033
    4AU     AUC 1723   1.752  26.231   8.023
    4AU     AUC 1724   1.730  25.587   7.007
    4AU     AUC 1725   1.738  25.902   6.983
    4AU     AUC 1726   1.725  26.211   6.982
    4AU     AUC 1727   1.994  25.762   7.926
    4AU     AUC 1728   2.005  26.063   7.928
    4AU     AUC 1729   2.000  25.749   7.088
    4AU     AUC 1730   2.005  26.053   7.077
    4AU     AUC 1731   1.466  25.796   7.932
    4AU     AUC 1732   1.482  26.100   7.934
    4AU     AUC 1733   1.480  25.763   7.075
    4AU     AUC 1734   1.471  26.069   7.082
    4AU     AUC 1735   2.150  26.180   7.327
    4AU     AUC 1736   2.165  26.158   7.656
    4AU     AUC 1737   1.316  26.186   7.353
    4AU     AUC 1738   1.327  26.206   7.673
    4AU     AUC 1739   2.145  25.647   7.363
    4AU     AUC 1740   2.126  25.631   7.665
    4AU     AUC 1741   1.305  25.672   7.348
    4AU     AUC 1742   1.307  25.692   7.692
    4AU     AUC 1743   1.589  26.342   7.776
    4AU     AUC 1744   1.907  26.345   7.747
    4AU     AUC 1745   1.540  25.508   7.758
    4AU     AUC 1746   1.860  25.495   7.772
    4AU     AUC 1747   1.578  26.335   7.244
    4AU     AUC 1748   1.895  26.321   7.230
    4AU     AUC 1749   1.555  25.518   7.244
    4AU     AUC 1750   1.885  25.494   7.266
    4AU    AUSL 1751   2.254  25.799   8.196
    4AU    AUSL 1752   2.010  25.438   8.117
    4AU     AUL 1753   2.161  25.363   8.470
    4AU       S 1754   2.393  25.182   8.087
    4AU     LIG 1755   2.220  24.860   8.371
    4AU     LIG 1756   2.300  24.545   8.672
    4AU     LIG 1757   2.574  24.286   8.926
    4AU     LIG 1758   2.850  23.984   9.164
    4AU     LIG 1759   2.888  23.706   9.555
    4AU     LIG 1760   2.765  23.441   9.942
    4AU       S 1761   2.316  25.739   8.286
    4AU     LIG 1762   2.353  25.694   8.781
    4AU     LIG 1763   2.605  25.513   9.171
    4AU     LIG 1764   2.941  25.444   9.531
    4AU     LIG 1765   3.343  25.464   9.830
    4AU     LIG 1766   3.601  25.524  10.237
    4AU     LIG 1767   4.015  25.591  10.456
    4AU    AUSL 1768   1.853  25.758   8.323
    4AU    AUSL 1769   1.655  26.122   8.285
    4AU     AUL 1770   1.805  26.088   8.699
    4AU       S 1771   1.901  25.728   8.466
    4AU     LIG 1772   1.846  25.561   8.859
    4AU     LIG 1773   2.111  25.347   9.189
    4AU     LIG 1774   2.308  25.156   9.596
    4AU     LIG 1775   2.339  24.921  10.032
    4AU     LIG 1776   2.395  24.773  10.495
    4AU     LIG 1777   2.439  24.692  10.971
    4AU       S 1778   1.417  25.862   8.645
    4AU     LIG 1779   1.298  25.745   9.079
    4AU     LIG 1780   1.087  25.691   9.495
    4AU     LIG 1781   0.927  25.790   9.931
    4AU     LIG 1782   0.960  26.072  10.336
    4AU     LIG 1783   0.848  26.301  10.749
    4AU     LIG 1784   0.868  26.607  11.122
    4AU    AUSL 1785   2.055  26.157   8.283
    4AU    AUSL 1786   2.373  26.133   7.989
    4AU     AUL 1787   2.476  26.082   8.485
    4AU       S 1788   2.081  26.246   8.381
    4AU     LIG 1789   2.221  26.469   8.734
    4AU     LIG 1790   2.258  26.611   9.208
    4AU     LIG 1791   2.238  26.723   9.693
    4AU     LIG 1792   2.386  26.751  10.157
    4AU     LIG 1793   2.517  26.830  10.612
    4AU     LIG 1794   2.453  26.734  11.087
    4AU       S 1795   2.610  26.157   8.036
    4AU     LIG 1796   2.955  26.169   8.327
    4AU     LIG 1797   3.190  26.415   8.665
    4AU     LIG 1798   3.415  26.618   9.040
    4AU     LIG 1799   3.694  26.694   9.434
    4AU     LIG 1800   4.060  26.892   9.674
    4AU     LIG 1801   4.330  27.228   9.879
    4AU    AUSL 1802   2.261  25.930   6.871
    4AU    AUSL 1803   2.040  26.334   6.828
    4AU     AUL 1804   2.392  26.264   6.452
    4AU       S 1805   2.326  25.945   6.729
    4AU     LIG 1806   2.581  25.812   6.352
    4AU     LIG 1807   2.602  25.646   5.915
    4AU     LIG 1808   2.731  25.551   5.459
    4AU     LIG 1809   3.139  25.515   5.177
    4AU     LIG 1810   3.521  25.511   4.872
    4AU     LIG 1811   3.743  25.467   4.444
    4AU       S 1812   2.042  26.392   6.671
    4AU     LIG 1813   2.312  26.739   6.567
    4AU     LIG 1814   2.660  26.780   6.264
    4AU     LIG 1815   2.973  26.959   5.938
    4AU     LIG 1816   3.147  27.189   5.535
    4AU     LIG 1817   3.295  27.507   5.191
    4AU     LIG 1818   3.425  27.659   4.753
    4AU    AUSL 1819   1.984  25.629   6.714
    4AU    AUSL 1820   2.359  25.568   7.024
    4AU     AUL 1821   2.318  25.517   6.661
    4AU       S 1822   2.509  25.154   6.895
    4AU     LIG 1823   2.636  24.973   6.489
    4AU     LIG 1824   2.830  24.587   6.290
    4AU     LIG 1825   3.089  24.234   6.102
    4AU     LIG 1826   3.361  24.092   5.740
    4AU     LIG 1827   3.667  24.250   5.413
    4AU     LIG 1828   4.029  24.290   5.103
    4AU       S 1829   2.086  25.869   6.440
    4AU     LIG 1830   2.134  25.517   6.177
    4AU     LIG 1831   2.245  25.301   5.772
    4AU     LIG 1832   2.281  25.288   5.302
    4AU     LIG 1833   2.264  25.191   4.836
    4AU     LIG 1834   2.323  25.155   4.361
    4AU     LIG 1835   2.612  25.016   4.011
    4AU    AUSL 1836   1.855  25.984   6.890
    4AU    AUSL 1837   1.590  25.749   6.675
    4AU     AUL 1838   1.767  25.549   6.551
    4AU       S 1839   1.446  25.856   6.348
    4AU     LIG 1840   1.480  25.456   6.150
    4AU     LIG 1841   1.294  25.237   5.777
    4AU     LIG 1842   1.108  25.189   5.337
    4AU     LIG 1843   0.870  25.080   4.933
    4AU     LIG 1844   0.770  24.824   4.524
    4AU     LIG 1845   0.567  24.723   4.098
    4AU       S 1846   2.001  25.960   6.498
    4AU     LIG 1847   2.221  25.998   5.999
    4AU     LIG 1848   2.248  25.775   5.558
    4AU     LIG 1849   2.372  25.754   5.088
    4AU     LIG 1850   2.509  25.990   4.694
    4AU     LIG 1851   2.541  26.078   4.224
    4AU     LIG 1852   2.709  26.145   3.783
    4AU    AUSL 1853   1.275  25.998   8.226
    4AU    AUSL 1854   1.412  26.406   8.136
    4AU     AUL 1855   1.489  26.327   8.456
    4AU       S 1856   1.204  25.998   8.628
    4AU     LIG 1857   0.945  25.630   8.708
    4AU     LIG 1858   0.778  25.495   9.125
    4AU     LIG 1859   0.594  25.516   9.568
    4AU     LIG 1860   0.273  25.402   9.894
    4AU     LIG 1861  44.898  25.536  10.155
    4AU     LIG 1862  44.805  25.541  10.623
    4AU       S 1863   1.033  26.388   8.354
    4AU     LIG 1864   1.116  26.536   8.773
    4AU     LIG 1865   0.996  26.891   9.048
    4AU     LIG 1866   0.787  27.253   9.276
    4AU     LIG 1867   0.664  27.421   9.712
    4AU     LIG 1868   0.470  27.586  10.120
    4AU     LIG 1869   0.211  27.833  10.436
    4AU    AUSL 1870   1.566  25.787   8.040
    4AU    AUSL 1871   1.040  25.755   8.001
    4AU     AUL 1872   1.136  25.745   8.250
    4AU       S 1873   0.868  25.362   8.200
    4AU     LIG 1874   0.436  25.227   8.088
    4AU     LIG 1875   0.003  25.043   8.199
    4AU     LIG 1876  44.810  24.761   8.549
    4AU     LIG 1877  44.637  24.454   8.888
    4AU     LIG 1878  44.311  24.486   9.217
    4AU     LIG 1879  44.316  24.588   9.691
    4AU       S 1880   1.450  25.728   8.580
    4AU     LIG 1881   1.365  25.339   8.764
    4AU     LIG 1882   1.217  25.244   9.220
    4AU     LIG 1883   0.988  25.203   9.654
    4AU     LIG 1884   0.699  25.077  10.035
    4AU     LIG 1885   0.598  24.884  10.480
    4AU     LIG 1886   0.520  24.808  10.949
    4AU    AUSL 1887   1.306  25.889   6.927
    4AU    AUSL 1888   1.476  25.467   6.939
    4AU     AUL 1889   1.280  25.555   6.656
    4AU       S 1890   1.213  25.869   6.326
    4AU     LIG 1891   0.987  25.557   6.084
    4AU     LIG 1892   0.898  25.552   5.633
    4AU     LIG 1893   0.635  25.431   5.258
    4AU     LIG 1894   0.246  25.357   4.973
    4AU     LIG 1895  44.884  25.518   4.687
    4AU     LIG 1896  44.592  25.703   4.357
    4AU       S 1897   1.017  25.160   6.827
    4AU     LIG 1898   0.752  24.776   6.774
    4AU     LIG 1899   0.428  24.493   6.549
    4AU     LIG 1900   0.154  24.252   6.233
    4AU     LIG 1901   0.261  24.012   5.833
    4AU     LIG 1902   0.369  23.855   5.383
    4AU     LIG 1903   0.230  23.610   4.987
    4AU    AUSL 1904   1.561  26.175   6.685
    4AU    AUSL 1905   1.088  26.230   6.975
    4AU     AUL 1906   1.165  26.103   6.706
    4AU       S 1907   0.967  26.519   6.765
    4AU     LIG 1908   0.777  26.520   6.341
    4AU     LIG 1909   0.622  26.819   5.997
    4AU     LIG 1910   0.389  26.929   5.586
    4AU     LIG 1911   0.016  27.033   5.294
    4AU     LIG 1912  44.686  27.193   4.985
    4AU     LIG 1913  44.309  27.490   4.896
    4AU       S 1914   1.544  26.023   6.443
    4AU     LIG 1915   1.728  25.871   5.973
    4AU     LIG 1916   1.423  25.711   5.625
    4AU     LIG 1917   1.228  25.671   5.176
    4AU     LIG 1918   1.194  25.801   4.702
    4AU     LIG 1919   1.077  26.037   4.289
    4AU     LIG 1920   0.901  26.311   3.932
    4AU    AUSL 1921   2.366  26.507   7.424
    4AU    AUSL 1922   2.375  26.263   7.078
    4AU     AUL 1923   2.525  26.720   7.224
    4AU       S 1924   2.516  26.376   6.883
    4AU     LIG 1925   2.870  26.299   6.600
    4AU     LIG 1926   3.104  26.506   6.234
    4AU     LIG 1927   3.439  26.721   5.962
    4AU     LIG 1928   3.819  26.707   5.663
    4AU     LIG 1929   4.223  26.818   5.438
    4AU     LIG 1930   4.468  27.053   5.113
    4AU       S 1931   2.826  26.391   7.371
    4AU     LIG 1932   3.304  26.386   7.534
    4AU     LIG 1933   3.806  26.427   7.556
    4AU     LIG 1934   4.292  26.521   7.522
    4AU     LIG 1935   4.600  26.919   7.488
    4AU     LIG 1936   4.810  27.370   7.522
    4AU     LIG 1937   5.180  27.542   7.757
    4AU    AUSL 1938   2.579  25.972   7.273
    4AU    AUSL 1939   2.560  25.805   7.699
    4AU     AUL 1940   2.852  25.737   7.469
    4AU       S 1941   2.760  26.175   7.334
    4AU     LIG 1942   3.158  26.033   7.189
    4AU     LIG 1943   3.626  26.038   7.264
    4AU     LIG 1944   4.100  26.102   7.263
    4AU     LIG 1945   4.570  26.121   7.222
    4AU     LIG 1946   4.928  26.280   6.976
    4AU     LIG 1947   5.366  26.408   6.984
    4AU       S 1948   2.858  25.334   7.735
    4AU     LIG 1949   3.290  25.180   7.694
    4AU     LIG 1950   3.733  25.006   7.673
    4AU     LIG 1951   4.116  24.768   7.739
    4AU     LIG 1952   4.508  24.571   7.896
    4AU     LIG 1953   4.915  24.772   8.027
    4AU     LIG 1954   5.358  24.666   8.135
    4AU    AUSL 1955   2.349  26.131   7.584
    4AU    AUSL 1956   2.257  26.492   7.818
    4AU     AUL 1957   2.506  26.505   7.695
    4AU       S 1958   2.471  26.299   8.080
    4AU     LIG 1959   2.919  26.563   8.011
    4AU     LIG 1960   3.142  26.842   8.357
    4AU     LIG 1961   3.315  27.218   8.650
    4AU     LIG 1962   3.529  27.688   8.717
    4AU     LIG 1963   3.828  28.076   8.840
    4AU     LIG 1964   4.107  28.475   8.872
    4AU       S 1965   2.824  26.197   7.606
    4AU     LIG 1966   3.120  26.001   7.834
    4AU     LIG 1967   3.609  26.001   7.786
    4AU     LIG 1968   4.105  26.042   7.774
    4AU     LIG 1969   4.584  26.121   7.751
    4AU     LIG 1970   4.985  26.291   7.943
    4AU     LIG 1971   5.261  26.665   7.931
    4AU    AUSL 1972   1.082  26.474   7.586
    4AU    AUSL 1973   1.126  26.212   7.917
    4AU     AUL 1974   1.083  26.664   7.846
    4AU       S 1975   0.908  26.285   8.112
    4AU     LIG 1976   0.562  26.395   8.471
    4AU     LIG 1977   0.469  26.576   8.898
    4AU     LIG 1978   0.195  26.667   9.288
    4AU     LIG 1979  44.901  26.779   9.657
    4AU     LIG 1980  44.616  26.947  10.010
    4AU     LIG 1981  44.388  27.289  10.249
    4AU       S 1982   0.697  26.508   7.658
    4AU     LIG 1983   0.367  26.857   7.604
    4AU     LIG 1984   0.110  27.282   7.604
    4AU     LIG 1985  44.874  27.685   7.745
    4AU     LIG 1986  44.586  28.064   7.792
    4AU     LIG 1987  44.144  28.189   7.586
    4AU     LIG 1988  43.711  28.246   7.416
    4AU    AUSL 1989   1.150  26.142   7.359
    4AU    AUSL 1990   1.249  26.558   7.219
    4AU     AUL 1991   0.959  26.478   7.243
    4AU       S 1992   0.578  26.407   7.502
    4AU     LIG 1993   0.304  26.333   7.118
    4AU     LIG 1994  44.908  26.512   6.864
    4AU     LIG 1995  44.508  26.746   6.732
    4AU     LIG 1996  44.207  27.114   6.676
    4AU     LIG 1997  43.814  27.346   6.762
    4AU     LIG 1998  43.351  27.324   6.681
    4AU       S 1999   1.083  26.742   6.861
    4AU     LIG 2000   1.009  26.959   6.445
    4AU     LIG 2001   0.868  27.292   6.127
    4AU     LIG 2002   0.788  27.786   6.124
    4AU     LIG 2003   0.496  28.168   6.065
    4AU     LIG 2004   0.051  28.331   5.907
    4AU     LIG 2005  44.838  28.607   5.571
    4AU    AUSL 2006   0.871  26.066   7.652
    4AU    AUSL 2007   0.915  25.813   7.314
    4AU     AUL 2008   0.755  26.071   7.253
    4AU       S 2009   0.561  25.601   7.445
    4AU     LIG 2010   0.164  25.510   7.761
    4AU     LIG 2011  44.676  25.486   7.876
    4AU     LIG 2012  44.236  25.256   7.816
    4AU     LIG 2013  43.900  25.206   7.409
    4AU     LIG 2014  43.522  25.381   7.152
    4AU     LIG 2015  43.210  25.100   6.920
    4AU       S 2016   0.669  26.114   7.730
    4AU     LIG 2017   0.361  26.373   8.002
    4AU     LIG 2018  44.881  26.498   8.036
    4AU     LIG 2019  44.416  26.715   8.037
    4AU     LIG 2020  44.016  27.005   8.170
    4AU     LIG 2021  43.617  27.308   8.288
    4AU     LIG 2022  43.161  27.216   8.450
    4AU    AUSL 2023   2.431  25.438   7.557
    4AU    AUSL 2024   2.192  25.685   7.823
    4AU     AUL 2025   2.617  25.676   7.920
    4AU       S 2026   2.618  25.191   7.566
    4AU     LIG 2027   2.887  24.839   7.627
    4AU     LIG 2028   3.326  24.668   7.591
    4AU     LIG 2029   3.757  24.492   7.492
    4AU     LIG 2030   4.203  24.296   7.530
    4AU     LIG 2031   4.469  24.031   7.827
    4AU     LIG 2032   4.738  23.630   7.920
    4AU       S 2033   2.405  25.315   8.079
    4AU     LIG 2034   2.634  25.147   8.505
    4AU     LIG 2035   2.781  24.747   8.702
    4AU     LIG 2036   3.065  24.387   8.836
    4AU     LIG 2037   3.340  24.161   9.146
    4AU     LIG 2038   3.739  24.139   9.402
    4AU     LIG 2039   4.136  24.102   9.658
    4AU    AUSL 2040   2.261  25.755   7.372
    4AU    AUSL 2041   2.192  25.270   7.272
    4AU     AUL 2042   2.551  25.506   7.200
    4AU       S 2043   2.583  25.331   7.610
    4AU     LIG 2044   2.996  25.221   7.264
    4AU     LIG 2045   3.472  25.015   7.227
    4AU     LIG 2046   3.968  24.868   7.213
    4AU     LIG 2047   4.364  24.632   7.037
    4AU     LIG 2048   4.856  24.599   7.050
    4AU     LIG 2049   5.295  24.440   6.912
    4AU       S 2050   2.429  25.045   7.118
    4AU     LIG 2051   2.457  24.627   6.823
    4AU     LIG 2052   2.643  24.210   6.589
    4AU     LIG 2053   2.866  23.818   6.361
    4AU     LIG 2054   3.221  23.473   6.286
    4AU     LIG 2055   3.639  23.216   6.251
    4AU     LIG 2056   4.114  23.124   6.171
    4AU    AUSL 2057   1.024  25.441   7.499
    4AU    AUSL 2058   1.101  25.564   7.065
    4AU     AUL 2059   0.822  25.632   7.049
    4AU       S 2060   1.006  25.210   7.069
    4AU     LIG 2061   0.542  25.206   6.996
    4AU     LIG 2062   0.240  24.944   6.744
    4AU     LIG 2063  44.943  24.673   6.476
    4AU     LIG 2064  44.676  24.470   6.143
    4AU     LIG 2065  44.378  24.636   5.810
    4AU     LIG 2066  44.244  24.639   5.354
    4AU       S 2067   0.721  25.401   7.439
    4AU     LIG 2068   0.326  25.138   7.464
    4AU     LIG 2069  44.866  25.071   7.600
    4AU     LIG 2070  44.417  25.003   7.415
    4AU     LIG 2071  44.032  24.725   7.329
    4AU     LIG 2072  43.613  24.449   7.446
    4AU     LIG 2073  43.408  24.085   7.738
    4AU    AUSL 2074   1.181  25.807   7.633
    4AU    AUSL 2075   1.260  25.445   7.852
    4AU     AUL 2076   0.882  25.612   7.813
    4AU       S 2077   1.009  25.215   7.994
    4AU     LIG 2078   0.736  24.989   7.750
    4AU     LIG 2079   0.286  24.782   7.848
    4AU     LIG 2080  44.885  24.548   8.073
    4AU     LIG 2081  44.580  24.324   8.398
    4AU     LIG 2082  44.277  24.107   8.700
    4AU     LIG 2083  44.293  23.641   8.874
    4AU       S 2084   0.605  25.693   7.470
    4AU     LIG 2085   0.114  25.789   7.350
    4AU     LIG 2086  44.687  25.522   7.350
    4AU     LIG 2087  44.202  25.596   7.458
    4AU     LIG 2088  43.758  25.449   7.816
    4AU     LIG 2089  43.398  25.052   7.983
    4AU     LIG 2090  42.979  24.737   8.093
    4AU    AUSL 2091   1.766  26.582   8.039
    4AU    AUSL 2092   1.451  26.385   7.734
    4AU     AUL 2093   1.474  26.692   8.110
    4AU       S 2094   1.089  26.503   8.269
    4AU     LIG 2095   0.849  26.855   8.454
    4AU     LIG 2096   0.788  27.237   8.732
    4AU     LIG 2097   0.782  27.670   8.925
    4AU     LIG 2098   0.544  28.081   8.962
    4AU     LIG 2099   0.083  28.249   9.002
    4AU     LIG 2100  44.615  28.316   9.070
    4AU       S 2101   1.833  26.982   7.989
    4AU     LIG 2102   1.986  27.098   8.368
    4AU     LIG 2103   2.010  27.527   8.575
    4AU     LIG 2104   1.973  27.963   8.765
    4AU     LIG 2105   1.871  28.277   9.122
    4AU     LIG 2106   1.872  28.659   9.415
    4AU     LIG 2107   2.055  29.000   9.695
    4AU    AUSL 2108   1.517  26.772   7.668
    4AU    AUSL 2109   1.978  26.751   7.283
    4AU     AUL 2110   1.646  27.011   7.442
    4AU       S 2111   1.678  27.070   7.897
    4AU     LIG 2112   1.762  27.504   8.112
    4AU     LIG 2113   1.757  27.968   8.280
    4AU     LIG 2114   1.574  28.436   8.348
    4AU     LIG 2115   1.399  28.906   8.459
    4AU     LIG 2116   1.518  29.307   8.709
    4AU     LIG 2117   1.437  29.766   8.602
    4AU       S 2118   2.036  27.068   7.185
    4AU     LIG 2119   2.362  27.133   6.902
    4AU     LIG 2120   2.460  27.571   6.730
    4AU     LIG 2121   2.541  28.048   6.668
    4AU     LIG 2122   2.789  28.473   6.661
    4AU     LIG 2123   2.842  28.944   6.610
    4AU     LIG 2124   2.595  29.357   6.555
    4AU    AUSL 2125   1.912  26.618   7.660
    4AU    AUSL 2126   1.946  26.246   7.912
    4AU     AUL 2127   2.083  26.607   8.073
    4AU       S 2128   2.491  26.435   8.199
    4AU     LIG 2129   2.709  26.578   8.544
    4AU     LIG 2130   2.959  26.846   8.846
    4AU     LIG 2131   3.211  27.079   9.165
    4AU     LIG 2132   3.278  27.253   9.599
    4AU     LIG 2133   3.280  27.559   9.964
    4AU     LIG 2134   3.338  27.961  10.205
    4AU       S 2135   2.004  26.925   7.737
    4AU     LIG 2136   2.215  27.305   7.946
    4AU     LIG 2137   2.246  27.738   8.165
    4AU     LIG 2138   2.508  28.130   8.303
    4AU     LIG 2139   2.807  28.520   8.386
    4AU     LIG 2140   2.779  28.991   8.488
    4AU     LIG 2141   2.476  29.371   8.545
    4AU    AUSL 2142   1.693  25.363   7.869
    4AU    AUSL 2143   2.108  25.288   7.743
    4AU     AUL 2144   1.910  25.144   8.112
    4AU       S 2145   1.531  24.760   7.913
    4AU     LIG 2146   1.603  24.566   8.277
    4AU     LIG 2147   1.435  24.178   8.380
    4AU     LIG 2148   1.334  23.748   8.448
    4AU     LIG 2149   1.378  23.327   8.624
    4AU     LIG 2150   1.422  23.155   9.064
    4AU     LIG 2151   1.514  22.885   9.435
    4AU       S 2152   2.286  25.048   7.867
    4AU     LIG 2153   2.627  24.742   8.095
    4AU     LIG 2154   2.701  24.349   8.393
    4AU     LIG 2155   2.852  23.956   8.636
    4AU     LIG 2156   3.033  23.564   8.854
    4AU     LIG 2157   3.391  23.264   8.952
    4AU     LIG 2158   3.855  23.201   9.017
    4AU    AUSL 2159   1.423  25.153   7.632
    4AU    AUSL 2160   1.481  25.441   8.212
    4AU     AUL 2161   1.462  25.178   8.048
    4AU       S 2162   1.274  24.841   7.788
    4AU     LIG 2163   1.139  24.461   8.021
    4AU     LIG 2164   1.080  23.998   8.042
    4AU     LIG 2165   1.117  23.525   8.047
    4AU     LIG 2166   1.052  23.108   8.265
    4AU     LIG 2167   0.807  22.695   8.366
    4AU     LIG 2168   0.694  22.337   8.665
    4AU       S 2169   1.089  25.281   8.283
    4AU     LIG 2170   0.771  24.866   8.267
    4AU     LIG 2171   0.327  24.656   8.365
    4AU     LIG 2172   0.067  24.321   8.627
    4AU     LIG 2173   0.009  24.144   9.085
    4AU     LIG 2174   0.061  23.914   9.497
    4AU     LIG 2175   0.042  23.768   9.947
    4AU    AUSL 2176   1.823  25.026   7.657
    4AU    AUSL 2177   1.482  25.124   7.226
    4AU     AUL 2178   1.557  24.889   7.430
    4AU       S 2179   1.426  24.762   6.986
    4AU     LIG 2180   1.159  24.580   7.255
    4AU     LIG 2181   1.129  24.113   7.192
    4AU     LIG 2182   1.144  23.668   7.003
    4AU     LIG 2183   1.159  23.225   6.804
    4AU     LIG 2184   1.057  22.754   6.767
    4AU     LIG 2185   1.153  22.347   6.551
    4AU       S 2186   1.709  24.809   7.846
    4AU     LIG 2187   1.593  24.302   7.779
    4AU     LIG 2188   1.569  23.863   7.978
    4AU     LIG 2189   1.615  23.421   8.158
    4AU     LIG 2190   1.814  23.007   8.281
    4AU     LIG 2191   2.084  22.605   8.345
    4AU     LIG 2192   2.266  22.177   8.481
    4AU    AUSL 2193   1.737  26.569   6.964
    4AU    AUSL 2194   2.030  26.351   7.261
    4AU     AUL 2195   2.122  26.652   7.018
    4AU       S 2196   1.798  26.897   6.799
    4AU     LIG 2197   2.031  27.162   6.503
    4AU     LIG 2198   2.140  27.584   6.327
    4AU     LIG 2199   2.297  27.889   5.997
    4AU     LIG 2200   2.210  28.092   5.569
    4AU     LIG 2201   2.106  28.481   5.328
    4AU     LIG 2202   2.135  28.878   5.072
    4AU       S 2203   2.473  26.346   6.964
    4AU     LIG 2204   2.777  26.769   6.782
    4AU     LIG 2205   3.100  26.968   6.464
    4AU     LIG 2206   3.378  27.226   6.157
    4AU     LIG 2207   3.607  27.657   6.058
    4AU     LIG 2208   3.785  28.120   5.994
    4AU     LIG 2209   3.942  28.572   5.859
    4AU    AUSL 2210   1.629  26.540   7.357
    4AU    AUSL 2211   1.491  26.266   7.067
    4AU     AUL 2212   1.474  26.744   7.109
    4AU       S 2213   1.844  27.028   7.030
    4AU     LIG 2214   1.962  27.480   6.890
    4AU     LIG 2215   2.025  27.922   6.723
    4AU     LIG 2216   1.839  28.374   6.713
    4AU     LIG 2217   1.646  28.814   6.754
    4AU     LIG 2218   1.476  29.245   6.617
    4AU     LIG 2219   1.295  29.675   6.509
    4AU       S 2220   1.306  26.567   6.717
    4AU     LIG 2221   1.288  26.532   6.293
    4AU     LIG 2222   1.130  26.838   5.949
    4AU     LIG 2223   0.893  27.072   5.592
    4AU     LIG 2224   0.804  27.259   5.139
    4AU     LIG 2225   0.688  27.609   4.822
    4AU     LIG 2226   0.510  28.010   4.623
    4AU    AUSL 2227   1.808  25.232   6.970
    4AU    AUSL 2228   1.392  25.498   7.343
    4AU     AUL 2229   1.453  25.213   6.937
    4AU       S 2230   1.031  25.088   7.197
    4AU     LIG 2231   0.669  24.794   7.273
    4AU     LIG 2232   0.305  24.536   7.050
    4AU     LIG 2233   0.009  24.245   6.741
    4AU     LIG 2234  44.663  24.044   6.452
    4AU     LIG 2235  44.558  23.589   6.274
    4AU     LIG 2236  44.177  23.378   6.161
    4AU       S 2237   1.750  24.881   6.835
    4AU     LIG 2238   1.707  24.411   6.692
    4AU     LIG 2239   1.418  24.041   6.730
    4AU     LIG 2240   1.318  23.632   6.519
    4AU     LIG 2241   1.294  23.250   6.244
    4AU     LIG 2242   1.359  23.090   5.791
    4AU     LIG 2243   1.652  22.946   5.443
    4AU    AUSL 2244   1.804  25.317   7.390
    4AU    AUSL 2245   1.953  25.576   7.104
    4AU     AUL 2246   1.972  25.062   7.209
    4AU       S 2247   1.672  24.782   7.011
    4AU     LIG 2248   1.619  24.347   7.217
    4AU     LIG 2249   1.596  23.866   7.175
    4AU     LIG 2250   1.631  23.454   6.911
    4AU     LIG 2251   1.906  23.041   6.808
    4AU     LIG 2252   2.229  22.643   6.801
    4AU     LIG 2253   2.286  22.146   6.809
    4AU       S 2254   2.240  25.107   6.836
    4AU     LIG 2255   2.129  24.877   6.491
    4AU     LIG 2256   2.318  24.501   6.301
    4AU     LIG 2257   2.580  24.173   6.063
    4AU     LIG 2258   2.850  23.975   5.711
    4AU     LIG 2259   2.979  23.812   5.274
    4AU     LIG 2260   3.142  23.459   4.986
    5AU     AUC 2261   9.409  27.010   7.508
    5AU     AUC 2262   9.671  27.014   7.351
    5AU     AUC 2263   9.658  27.001   7.664
    5AU     AUC 2264   9.160  27.013   7.343
    5AU     AUC 2265   9.149  27.028   7.661
    5AU     AUC 2266   9.258  27.267   7.505
    5AU     AUC 2267   9.569  27.265   7.495
    5AU     AUC 2268   9.253  26.759   7.515
    5AU     AUC 2269   9.550  26.744   7.527
    5AU     AUC 2270   9.409  26.858   7.765
    5AU     AUC 2271   9.422  27.169   7.765
    5AU     AUC 2272   9.410  26.849   7.248
    5AU     AUC 2273   9.402  27.150   7.247
    5AU     AUC 2274   9.924  27.009   7.192
    5AU     AUC 2275   9.927  27.024   7.490
    5AU     AUC 2276   9.915  27.012   7.811
    5AU     AUC 2277   8.900  26.999   7.190
    5AU     AUC 2278   8.891  27.026   7.495
    5AU     AUC 2279   8.898  27.049   7.821
    5AU     AUC 2280   9.111  27.531   7.507
    5AU     AUC 2281   9.421  27.532   7.502
    5AU     AUC 2282   9.715  27.528   7.497
    5AU     AUC 2283   9.070  26.509   7.520
    5AU     AUC 2284   9.384  26.489   7.507
    5AU     AUC 2285   9.704  26.487   7.528
    5AU     AUC 2286   9.413  26.706   8.017
    5AU     AUC 2287   9.426  27.016   8.035
    5AU     AUC 2288   9.426  27.324   8.024
    5AU     AUC 2289   9.416  26.675   7.012
    5AU     AUC 2290   9.422  26.989   6.985
    5AU     AUC 2291   9.401  27.297   6.983
    5AU     AUC 2292   9.674  26.856   7.928
    5AU     AUC 2293   9.682  27.158   7.929
    5AU     AUC 2294   9.684  26.840   7.092
    5AU     AUC 2295   9.683  27.146   7.080
    5AU     AUC 2296   9.146  26.884   7.934
    5AU     AUC 2297   9.158  27.188   7.935
    5AU     AUC 2298   9.165  26.846   7.076
    5AU     AUC 2299   9.151  27.154   7.082
    5AU     AUC 2300   9.824  27.276   7.330
    5AU     AUC 2301   9.840  27.254   7.657
    5AU     AUC 2302   8.990  27.267   7.354
    5AU     AUC 2303   9.001  27.290   7.674
    5AU     AUC 2304   9.828  26.741   7.366
    5AU     AUC 2305   9.808  26.727   7.667
    5AU     AUC 2306   8.987  26.755   7.350
    5AU     AUC 2307   8.990  26.776   7.694
    5AU     AUC 2308   9.261  27.431   7.777
    5AU     AUC 2309   9.578  27.438   7.747
    5AU     AUC 2310   9.224  26.597   7.759
    5AU     AUC 2311   9.544  26.588   7.775
    5AU     AUC 2312   9.249  27.422   7.244
    5AU     AUC 2313   9.566  27.412   7.230
    5AU     AUC 2314   9.239  26.602   7.245
    5AU     AUC 2315   9.569  26.583   7.270
    5AU    AUSL 2316   9.934  26.898   8.199
    5AU    AUSL 2317   9.694  26.533   8.120
    5AU     AUL 2318   9.849  26.465   8.475
    5AU       S 2319  10.075  26.268   8.094
    5AU     LIG 2320   9.894  25.962   8.394
    5AU     LIG 2321   9.987  25.593   8.629
    5AU     LIG 2322  10.252  25.327   8.898
    5AU     LIG 2323  10.333  25.154   9.331
    5AU     LIG 2324  10.319  24.975   9.774
    5AU     LIG 2325  10.487  24.799  10.193
    5AU       S 2326   9.999  26.838   8.283
    5AU     LIG 2327  10.210  26.723   8.696
    5AU     LIG 2328  10.325  26.533   9.129
    5AU     LIG 2329  10.610  26.492   9.530
    5AU     LIG 2330  10.997  26.497   9.843
    5AU     LIG 2331  11.315  26.583  10.197
    5AU     LIG 2332  11.510  26.832  10.549
    5AU    AUSL 2333   9.534  26.852   8.325
    5AU    AUSL 2334   9.330  27.212   8.289
    5AU     AUL 2335   9.482  27.182   8.700
    5AU       S 2336   9.581  26.823   8.468
    5AU     LIG 2337   9.545  26.641   8.863
    5AU     LIG 2338   9.811  26.396   9.195
    5AU     LIG 2339   9.975  26.177   9.612
    5AU     LIG 2340  10.027  26.027  10.084
    5AU     LIG 2341  10.103  26.081  10.564
    5AU     LIG 2342  10.364  25.941  10.938
    5AU       S 2343   9.096  26.951   8.649
    5AU     LIG 2344   8.959  26.840   9.099
    5AU     LIG 2345   8.772  26.754   9.536
    5AU     LIG 2346   8.597  26.717   9.988
    5AU     LIG 2347   8.476  26.946  10.408
    5AU     LIG 2348   8.513  27.233  10.820
    5AU     LIG 2349   8.388  27.482  11.230
    5AU    AUSL 2350   9.729  27.254   8.283
    5AU    AUSL 2351  10.047  27.232   7.988
    5AU     AUL 2352  10.145  27.183   8.489
    5AU       S 2353   9.753  27.351   8.382
    5AU     LIG 2354   9.890  27.529   8.777
    5AU     LIG 2355   9.908  27.629   9.262
    5AU     LIG 2356   9.955  27.824   9.710
    5AU     LIG 2357   9.953  27.905  10.187
    5AU     LIG 2358   9.959  28.026  10.654
    5AU     LIG 2359  10.101  27.876  11.083
    5AU       S 2360  10.287  27.255   8.039
    5AU     LIG 2361  10.628  27.268   8.336
    5AU     LIG 2362  10.862  27.502   8.688
    5AU     LIG 2363  11.116  27.668   9.073
    5AU     LIG 2364  11.491  27.722   9.396
    5AU     LIG 2365  11.858  27.893   9.671
    5AU     LIG 2366  12.052  28.316   9.809
    5AU    AUSL 2367   9.950  27.029   6.877
    5AU    AUSL 2368   9.714  27.425   6.830
    5AU     AUL 2369  10.074  27.371   6.463
    5AU       S 2370  10.006  27.047   6.734
    5AU     LIG 2371  10.268  26.932   6.346
    5AU     LIG 2372  10.317  26.762   5.918
    5AU     LIG 2373  10.445  26.640   5.462
    5AU     LIG 2374  10.833  26.592   5.143
    5AU     LIG 2375  11.191  26.619   4.798
    5AU     LIG 2376  11.558  26.689   4.493
    5AU       S 2377   9.708  27.480   6.666
    5AU     LIG 2378   9.994  27.854   6.574
    5AU     LIG 2379  10.347  27.945   6.242
    5AU     LIG 2380  10.631  28.156   5.882
    5AU     LIG 2381  10.840  28.323   5.452
    5AU     LIG 2382  10.994  28.535   5.025
    5AU     LIG 2383  11.208  28.847   4.732
    5AU    AUSL 2384   9.686  26.717   6.722
    5AU    AUSL 2385  10.038  26.663   7.030
    5AU     AUL 2386  10.048  26.622   6.666
    5AU       S 2387  10.181  26.239   6.908
    5AU     LIG 2388  10.319  25.952   6.557
    5AU     LIG 2389  10.540  25.636   6.270
    5AU     LIG 2390  10.747  25.357   5.946
    5AU     LIG 2391  11.067  25.320   5.589
    5AU     LIG 2392  11.467  25.346   5.310
    5AU     LIG 2393  11.790  25.353   4.943
    5AU       S 2394   9.774  26.948   6.451
    5AU     LIG 2395   9.856  26.598   6.178
    5AU     LIG 2396   9.984  26.415   5.737
    5AU     LIG 2397  10.100  26.265   5.285
    5AU     LIG 2398  10.135  26.037   4.845
    5AU     LIG 2399  10.134  25.984   4.359
    5AU     LIG 2400  10.262  26.000   3.884
    5AU    AUSL 2401   9.541  27.069   6.892
    5AU    AUSL 2402   9.290  26.825   6.674
    5AU     AUL 2403   9.486  26.600   6.572
    5AU       S 2404   9.241  26.925   6.349
    5AU     LIG 2405   9.190  26.552   6.124
    5AU     LIG 2406   8.921  26.359   5.768
    5AU     LIG 2407   8.723  26.292   5.330
    5AU     LIG 2408   8.529  26.086   4.939
    5AU     LIG 2409   8.357  26.024   4.494
    5AU     LIG 2410   8.245  26.101   4.044
    5AU       S 2411   9.690  27.039   6.507
    5AU     LIG 2412   9.861  27.089   6.002
    5AU     LIG 2413   9.978  26.913   5.565
    5AU     LIG 2414  10.118  26.896   5.107
    5AU     LIG 2415  10.091  27.057   4.643
    5AU     LIG 2416  10.173  27.379   4.297
    5AU     LIG 2417  10.123  27.556   3.846
    5AU    AUSL 2418   8.952  27.085   8.226
    5AU    AUSL 2419   9.088  27.494   8.136
    5AU     AUL 2420   9.160  27.415   8.458
    5AU       S 2421   8.883  27.081   8.637
    5AU     LIG 2422   8.627  26.715   8.717
    5AU     LIG 2423   8.471  26.577   9.142
    5AU     LIG 2424   8.284  26.569   9.588
    5AU     LIG 2425   8.085  26.604  10.019
    5AU     LIG 2426   7.743  26.673  10.334
    5AU     LIG 2427   7.464  26.626  10.704
    5AU       S 2428   8.703  27.468   8.361
    5AU     LIG 2429   8.751  27.585   8.789
    5AU     LIG 2430   8.696  27.969   9.057
    5AU     LIG 2431   8.485  28.304   9.321
    5AU     LIG 2432   8.320  28.457   9.750
    5AU     LIG 2433   8.128  28.651  10.152
    5AU     LIG 2434   7.907  28.957  10.449
    5AU    AUSL 2435   9.247  26.877   8.042
    5AU    AUSL 2436   8.718  26.840   8.002
    5AU     AUL 2437   8.821  26.839   8.252
    5AU       S 2438   8.537  26.474   8.242
    5AU     LIG 2439   8.144  26.338   8.057
    5AU     LIG 2440   7.826  26.027   8.207
    5AU     LIG 2441   7.621  25.745   8.527
    5AU     LIG 2442   7.406  25.478   8.844
    5AU     LIG 2443   7.095  25.367   9.179
    5AU     LIG 2444   6.764  25.442   9.515
    5AU       S 2445   9.131  26.814   8.587
    5AU     LIG 2446   9.051  26.432   8.804
    5AU     LIG 2447   8.904  26.326   9.258
    5AU     LIG 2448   8.686  26.264   9.699
    5AU     LIG 2449   8.438  26.212  10.118
    5AU     LIG 2450   8.302  26.067  10.568
    5AU     LIG 2451   8.220  26.161  11.029
    5AU    AUSL 2452   9.013  26.971   6.931
    5AU    AUSL 2453   9.157  26.548   6.935
    5AU     AUL 2454   8.969  26.664   6.639
    5AU       S 2455   9.028  27.010   6.311
    5AU     LIG 2456   8.727  26.766   6.049
    5AU     LIG 2457   8.498  26.648   5.632
    5AU     LIG 2458   8.244  26.514   5.234
    5AU     LIG 2459   7.831  26.515   4.958
    5AU     LIG 2460   7.432  26.501   4.673
    5AU     LIG 2461   7.173  26.609   4.278
    5AU       S 2462   8.704  26.261   6.813
    5AU     LIG 2463   8.530  25.839   6.848
    5AU     LIG 2464   8.232  25.579   6.595
    5AU     LIG 2465   7.944  25.396   6.257
    5AU     LIG 2466   7.779  25.194   5.842
    5AU     LIG 2467   7.808  25.064   5.362
    5AU     LIG 2468   7.768  24.773   4.978
    5AU    AUSL 2469   9.243  27.254   6.687
    5AU    AUSL 2470   8.763  27.291   6.973
    5AU     AUL 2471   8.832  27.121   6.702
    5AU       S 2472   8.690  27.558   6.763
    5AU     LIG 2473   8.446  27.687   6.384
    5AU     LIG 2474   8.279  27.822   5.949
    5AU     LIG 2475   7.988  27.914   5.577
    5AU     LIG 2476   7.542  27.961   5.394
    5AU     LIG 2477   7.202  28.233   5.199
    5AU     LIG 2478   7.003  28.576   4.930
    5AU       S 2479   9.245  27.188   6.457
    5AU     LIG 2480   9.299  27.080   5.904
    5AU     LIG 2481   8.992  26.845   5.601
    5AU     LIG 2482   8.763  26.796   5.176
    5AU     LIG 2483   8.812  26.966   4.714
    5AU     LIG 2484   8.886  27.238   4.311
    5AU     LIG 2485   8.796  27.455   3.896
    5AU    AUSL 2486  10.029  27.613   7.427
    5AU    AUSL 2487  10.049  27.366   7.085
    5AU     AUL 2488  10.184  27.831   7.223
    5AU       S 2489  10.185  27.472   6.900
    5AU     LIG 2490  10.530  27.315   6.662
    5AU     LIG 2491  10.698  27.540   6.272
    5AU     LIG 2492  10.998  27.799   5.987
    5AU     LIG 2493  11.239  27.888   5.567
    5AU     LIG 2494  11.623  27.948   5.265
    5AU     LIG 2495  11.989  28.185   5.068
    5AU       S 2496  10.487  27.501   7.370
    5AU     LIG 2497  10.969  27.552   7.523
    5AU     LIG 2498  11.478  27.637   7.529
    5AU     LIG 2499  11.973  27.733   7.531
    5AU     LIG 2500  12.392  27.984   7.417
    5AU     LIG 2501  12.554  28.454   7.437
    5AU     LIG 2502  12.737  28.786   7.710
    5AU    AUSL 2503  10.256  27.071   7.272
    5AU    AUSL 2504  10.238  26.908   7.700
    5AU     AUL 2505  10.529  26.844   7.471
    5AU       S 2506  10.442  27.280   7.330
    5AU     LIG 2507  10.860  27.152   7.226
    5AU     LIG 2508  11.339  27.224   7.255
    5AU     LIG 2509  11.822  27.338   7.232
    5AU     LIG 2510  12.312  27.455   7.252
    5AU     LIG 2511  12.720  27.663   7.106
    5AU     LIG 2512  13.163  27.776   6.966
    5AU       S 2513  10.544  26.438   7.728
    5AU     LIG 2514  10.914  26.179   7.723
    5AU     LIG 2515  11.327  25.946   7.730
    5AU     LIG 2516  11.757  25.730   7.738
    5AU     LIG 2517  12.212  25.572   7.754
    5AU     LIG 2518  12.666  25.591   7.902
    5AU     LIG 2519  12.989  25.529   8.249
    5AU    AUSL 2520  10.028  27.235   7.583
    5AU    AUSL 2521   9.923  27.590   7.821
    5AU     AUL 2522  10.173  27.611   7.700
    5AU       S 2523  10.147  27.388   8.078
    5AU     LIG 2524  10.596  27.650   8.002
    5AU     LIG 2525  10.804  27.915   8.360
    5AU     LIG 2526  10.967  28.286   8.659
    5AU     LIG 2527  11.198  28.727   8.749
    5AU     LIG 2528  11.545  28.997   8.951
    5AU     LIG 2529  11.615  29.470   9.057
    5AU       S 2530  10.492  27.307   7.603
    5AU     LIG 2531  10.818  27.154   7.820
    5AU     LIG 2532  11.305  27.207   7.776
    5AU     LIG 2533  11.800  27.276   7.742
    5AU     LIG 2534  12.300  27.284   7.748
    5AU     LIG 2535  12.730  27.303   7.982
    5AU     LIG 2536  13.130  27.552   7.991
    5AU    AUSL 2537   8.753  27.558   7.587
    5AU    AUSL 2538   8.799  27.302   7.921
    5AU     AUL 2539   8.756  27.754   7.848
    5AU       S 2540   8.586  27.376   8.113
    5AU     LIG 2541   8.250  27.629   8.405
    5AU     LIG 2542   8.253  27.843   8.826
    5AU     LIG 2543   8.087  27.977   9.251
    5AU     LIG 2544   7.734  28.063   9.571
    5AU     LIG 2545   7.337  28.246   9.771
    5AU     LIG 2546   6.884  28.383   9.852
    5AU       S 2547   8.377  27.575   7.670
    5AU     LIG 2548   8.277  27.991   7.486
    5AU     LIG 2549   7.935  28.363   7.486
    5AU     LIG 2550   7.535  28.680   7.524
    5AU     LIG 2551   7.122  28.983   7.555
    5AU     LIG 2552   6.689  29.186   7.693
    5AU     LIG 2553   6.292  29.473   7.637
    5AU    AUSL 2554   8.820  27.224   7.362
    5AU    AUSL 2555   8.911  27.636   7.215
    5AU     AUL 2556   8.622  27.552   7.241
    5AU       S 2557   8.255  27.478   7.524
    5AU     LIG 2558   7.995  27.473   7.154
    5AU     LIG 2559   7.538  27.545   6.973
    5AU     LIG 2560   7.135  27.738   6.761
    5AU     LIG 2561   6.701  27.812   6.547
    5AU     LIG 2562   6.255  27.924   6.487
    5AU     LIG 2563   5.947  28.117   6.774
    5AU       S 2564   8.732  27.812   6.855
    5AU     LIG 2565   8.697  28.130   6.501
    5AU     LIG 2566   8.676  28.538   6.227
    5AU     LIG 2567   8.503  28.941   6.013
    5AU     LIG 2568   8.138  29.209   5.861
    5AU     LIG 2569   7.750  29.483   5.968
    5AU     LIG 2570   7.332  29.694   6.064
    5AU    AUSL 2571   8.549  27.137   7.661
    5AU    AUSL 2572   8.595  26.887   7.321
    5AU     AUL 2573   8.426  27.145   7.260
    5AU       S 2574   8.250  26.672   7.454
    5AU     LIG 2575   7.829  26.685   7.707
    5AU     LIG 2576   7.335  26.775   7.768
    5AU     LIG 2577   6.851  26.878   7.667
    5AU     LIG 2578   6.379  26.771   7.552
    5AU     LIG 2579   5.987  26.469   7.489
    5AU     LIG 2580   5.687  26.143   7.302
    5AU       S 2581   8.362  27.172   7.737
    5AU     LIG 2582   8.055  27.365   8.009
    5AU     LIG 2583   7.732  27.644   8.243
    5AU     LIG 2584   7.303  27.851   8.367
    5AU     LIG 2585   6.829  27.950   8.349
    5AU     LIG 2586   6.377  28.015   8.228
    5AU     LIG 2587   5.934  28.069   8.041
    5AU    AUSL 2588  10.114  26.539   7.558
    5AU    AUSL 2589   9.873  26.782   7.826
    5AU     AUL 2590  10.297  26.773   7.920
    5AU       S 2591  10.302  26.315   7.591
    5AU     LIG 2592  10.479  25.916   7.632
    5AU     LIG 2593  10.899  25.667   7.601
    5AU     LIG 2594  11.344  25.459   7.538
    5AU     LIG 2595  11.802  25.272   7.496
    5AU     LIG 2596  12.264  25.212   7.395
    5AU     LIG 2597  12.482  24.784   7.386
    5AU       S 2598  10.092  26.410   8.084
    5AU     LIG 2599  10.322  26.235   8.507
    5AU     LIG 2600  10.451  25.818   8.679
    5AU     LIG 2601  10.740  25.459   8.810
    5AU     LIG 2602  11.068  25.290   9.113
    5AU     LIG 2603  11.454  25.277   9.403
    5AU     LIG 2604  11.779  25.335   9.749
    5AU    AUSL 2605   9.939  26.854   7.375
    5AU    AUSL 2606   9.875  26.363   7.277
    5AU     AUL 2607  10.235  26.606   7.198
    5AU       S 2608  10.256  26.432   7.608
    5AU     LIG 2609  10.643  26.263   7.260
    5AU     LIG 2610  11.084  26.017   7.260
    5AU     LIG 2611  11.554  25.847   7.268
    5AU     LIG 2612  12.022  25.695   7.282
    5AU     LIG 2613  12.496  25.720   7.193
    5AU     LIG 2614  12.876  26.001   7.016
    5AU       S 2615  10.113  26.147   7.144
    5AU     LIG 2616  10.004  25.733   6.902
    5AU     LIG 2617  10.226  25.403   6.604
    5AU     LIG 2618  10.551  25.100   6.371
    5AU     LIG 2619  10.859  24.696   6.309
    5AU     LIG 2620  11.173  24.300   6.230
    5AU     LIG 2621  11.460  24.086   5.908
    5AU    AUSL 2622   8.713  26.518   7.501
    5AU    AUSL 2623   8.784  26.658   7.056
    5AU     AUL 2624   8.500  26.712   7.052
    5AU       S 2625   8.699  26.300   7.063
    5AU     LIG 2626   8.227  26.256   7.002
    5AU     LIG 2627   7.944  26.001   6.706
    5AU     LIG 2628   7.630  25.789   6.407
    5AU     LIG 2629   7.215  25.641   6.213
    5AU     LIG 2630   6.949  25.416   5.898
    5AU     LIG 2631   6.906  25.011   5.653
    5AU       S 2632   8.404  26.473   7.438
    5AU     LIG 2633   8.019  26.226   7.552
    5AU     LIG 2634   7.521  26.263   7.602
    5AU     LIG 2635   7.070  26.035   7.638
    5AU     LIG 2636   6.614  25.821   7.555
    5AU     LIG 2637   6.264  25.470   7.598
    5AU     LIG 2638   5.914  25.267   7.832
    5AU    AUSL 2639   8.865  26.887   7.635
    5AU    AUSL 2640   8.944  26.529   7.860
    5AU     AUL 2641   8.574  26.666   7.817
    5AU       S 2642   8.700  26.340   8.106
    5AU     LIG 2643   8.519  26.128   7.798
    5AU     LIG 2644   8.173  25.808   7.895
    5AU     LIG 2645   7.837  25.495   8.129
    5AU     LIG 2646   7.538  25.203   8.417
    5AU     LIG 2647   7.290  24.802   8.589
    5AU     LIG 2648   7.012  24.373   8.549
    5AU       S 2649   8.298  26.761   7.478
    5AU     LIG 2650   7.905  26.970   7.285
    5AU     LIG 2651   7.488  26.732   7.283
    5AU     LIG 2652   7.080  26.498   7.403
    5AU     LIG 2653   6.659  26.348   7.597
    5AU     LIG 2654   6.261  26.142   7.775
    5AU     LIG 2655   5.877  25.842   7.802
    5AU    AUSL 2656   9.439  27.677   8.038
    5AU    AUSL 2657   9.123  27.471   7.733
    5AU     AUL 2658   9.148  27.780   8.112
    5AU       S 2659   8.762  27.594   8.273
    5AU     LIG 2660   8.628  27.988   8.491
    5AU     LIG 2661   8.466  28.347   8.785
    5AU     LIG 2662   8.448  28.826   8.918
    5AU     LIG 2663   8.319  29.306   8.963
    5AU     LIG 2664   7.978  29.648   9.007
    5AU     LIG 2665   7.547  29.851   9.100
    5AU       S 2666   9.500  28.076   7.985
    5AU     LIG 2667   9.642  28.214   8.361
    5AU     LIG 2668   9.661  28.647   8.550
    5AU     LIG 2669   9.512  29.047   8.780
    5AU     LIG 2670   9.523  29.310   9.181
    5AU     LIG 2671   9.541  29.653   9.525
    5AU     LIG 2672   9.673  29.987   9.843
    5AU    AUSL 2673   9.184  27.859   7.670
    5AU    AUSL 2674   9.640  27.845   7.281
    5AU     AUL 2675   9.289  28.095   7.436
    5AU       S 2676   9.341  28.158   7.889
    5AU     LIG 2677   9.422  28.604   8.076
    5AU     LIG 2678   9.488  29.047   8.256
    5AU     LIG 2679   9.378  29.513   8.235
    5AU     LIG 2680   9.355  29.951   8.436
    5AU     LIG 2681   9.325  30.400   8.560
    5AU     LIG 2682   9.139  30.802   8.393
    5AU       S 2683   9.698  28.149   7.207
    5AU     LIG 2684   9.998  28.273   6.916
    5AU     LIG 2685  10.023  28.734   6.754
    5AU     LIG 2686  10.188  29.199   6.708
    5AU     LIG 2687  10.513  29.580   6.658
    5AU     LIG 2688  10.531  30.041   6.502
    5AU     LIG 2689  10.704  30.476   6.425
    5AU    AUSL 2690   9.578  27.706   7.656
    5AU    AUSL 2691   9.616  27.338   7.913
    5AU     AUL 2692   9.756  27.705   8.068
    5AU       S 2693  10.166  27.531   8.197
    5AU     LIG 2694  10.372  27.662   8.559
    5AU     LIG 2695  10.626  27.928   8.857
    5AU     LIG 2696  10.881  28.121   9.200
    5AU     LIG 2697  10.946  28.305   9.634
    5AU     LIG 2698  10.955  28.641   9.976
    5AU     LIG 2699  10.935  29.087  10.141
    5AU       S 2700   9.660  28.019   7.730
    5AU     LIG 2701   9.879  28.403   7.935
    5AU     LIG 2702   9.971  28.829   8.161
    5AU     LIG 2703  10.295  29.202   8.268
    5AU     LIG 2704  10.434  29.661   8.357
    5AU     LIG 2705  10.377  30.138   8.378
    5AU     LIG 2706  10.114  30.548   8.392
    5AU    AUSL 2707   9.379  26.455   7.872
    5AU    AUSL 2708   9.794  26.384   7.747
    5AU     AUL 2709   9.593  26.241   8.117
    5AU       S 2710   9.235  25.846   7.932
    5AU     LIG 2711   9.297  25.574   8.244
    5AU     LIG 2712   9.053  25.254   8.398
    5AU     LIG 2713   8.952  24.826   8.444
    5AU     LIG 2714   9.037  24.410   8.613
    5AU     LIG 2715   9.102  24.046   8.900
    5AU     LIG 2716   9.110  23.748   9.277
    5AU       S 2717   9.973  26.137   7.876
    5AU     LIG 2718  10.294  25.813   8.127
    5AU     LIG 2719  10.410  25.393   8.390
    5AU     LIG 2720  10.592  24.978   8.611
    5AU     LIG 2721  10.827  24.510   8.615
    5AU     LIG 2722  11.208  24.173   8.657
    5AU     LIG 2723  11.680  24.031   8.663
    5AU    AUSL 2724   9.111  26.241   7.635
    5AU    AUSL 2725   9.170  26.530   8.218
    5AU     AUL 2726   9.143  26.265   8.042
    5AU       S 2727   8.972  25.915   7.797
    5AU     LIG 2728   8.807  25.563   8.023
    5AU     LIG 2729   8.703  25.108   8.044
    5AU     LIG 2730   8.755  24.642   8.011
    5AU     LIG 2731   8.817  24.207   8.190
    5AU     LIG 2732   8.633  23.771   8.278
    5AU     LIG 2733   8.491  23.314   8.342
    5AU       S 2734   8.811  26.381   8.335
    5AU     LIG 2735   8.493  25.959   8.309
    5AU     LIG 2736   8.151  25.701   8.472
    5AU     LIG 2737   7.921  25.366   8.712
    5AU     LIG 2738   7.672  25.053   8.969
    5AU     LIG 2739   7.672  24.825   9.392
    5AU     LIG 2740   7.778  24.586   9.792
    5AU    AUSL 2741   9.513  26.117   7.665
    5AU    AUSL 2742   9.168  26.209   7.230
    5AU     AUL 2743   9.254  25.975   7.441
    5AU       S 2744   9.091  25.862   7.004
    5AU     LIG 2745   8.852  25.660   7.290
    5AU     LIG 2746   8.809  25.190   7.203
    5AU     LIG 2747   8.796  24.737   6.999
    5AU     LIG 2748   8.808  24.276   6.781
    5AU     LIG 2749   8.809  23.775   6.691
    5AU     LIG 2750   8.588  23.351   6.543
    5AU       S 2751   9.402  25.895   7.857
    5AU     LIG 2752   9.236  25.410   7.729
    5AU     LIG 2753   9.194  24.983   7.966
    5AU     LIG 2754   9.244  24.531   8.135
    5AU     LIG 2755   9.332  24.100   8.319
    5AU     LIG 2756   9.661  23.764   8.431
    5AU     LIG 2757   9.920  23.383   8.572
    5AU    AUSL 2758   9.407  27.657   6.961
    5AU    AUSL 2759   9.700  27.446   7.263
    5AU     AUL 2760   9.785  27.745   7.011
    5AU       S 2761   9.466  28.006   6.806
    5AU     LIG 2762   9.685  28.298   6.515
    5AU     LIG 2763   9.690  28.755   6.356
    5AU     LIG 2764   9.642  29.147   6.069
    5AU     LIG 2765   9.755  29.366   5.630
    5AU     LIG 2766   9.804  29.643   5.224
    5AU     LIG 2767   9.788  30.058   4.980
    5AU       S 2768  10.143  27.449   6.973
    5AU     LIG 2769  10.477  27.823   6.758
    5AU     LIG 2770  10.810  28.014   6.450
    5AU     LIG 2771  11.064  28.297   6.162
    5AU     LIG 2772  11.413  28.615   6.117
    5AU     LIG 2773  11.561  29.075   6.118
    5AU     LIG 2774  11.627  29.550   6.057
    5AU    AUSL 2775   9.292  27.632   7.354
    5AU    AUSL 2776   9.163  27.353   7.065
    5AU     AUL 2777   9.133  27.823   7.091
    5AU       S 2778   9.506  28.116   7.039
    5AU     LIG 2779   9.550  28.564   6.932
    5AU     LIG 2780   9.528  28.998   6.783
    5AU     LIG 2781   9.663  29.377   6.584
    5AU     LIG 2782   9.473  29.802   6.602
    5AU     LIG 2783   9.445  30.270   6.596
    5AU     LIG 2784   9.233  30.692   6.528
    5AU       S 2785   8.969  27.624   6.706
    5AU     LIG 2786   8.943  27.734   6.273
    5AU     LIG 2787   8.734  28.060   5.972
    5AU     LIG 2788   8.526  28.233   5.553
    5AU     LIG 2789   8.469  28.485   5.117
    5AU     LIG 2790   8.294  28.831   4.812
    5AU     LIG 2791   8.103  29.270   4.757
    5AU    AUSL 2792   9.494  26.320   6.976
    5AU    AUSL 2793   9.074  26.584   7.338
    5AU     AUL 2794   9.142  26.308   6.921
    5AU       S 2795   8.720  26.186   7.179
    5AU     LIG 2796   8.406  25.929   7.345
    5AU     LIG 2797   8.079  25.707   7.106
    5AU     LIG 2798   7.773  25.490   6.801
    5AU     LIG 2799   7.492  25.278   6.473
    5AU     LIG 2800   7.300  24.943   6.197
    5AU     LIG 2801   7.157  24.487   6.139
    5AU       S 2802   9.430  25.961   6.844
    5AU     LIG 2803   9.331  25.517   6.672
    5AU     LIG 2804   9.058  25.133   6.720
    5AU     LIG 2805   8.974  24.709   6.519
    5AU     LIG 2806   8.982  24.309   6.273
    5AU     LIG 2807   8.962  24.173   5.808
    5AU     LIG 2808   8.975  23.945   5.393
    5AU    AUSL 2809   9.488  26.405   7.395
    5AU    AUSL 2810   9.630  26.668   7.110
    5AU     AUL 2811   9.656  26.152   7.211
    5AU       S 2812   9.343  25.875   7.014
    5AU     LIG 2813   9.297  25.424   7.185
    5AU     LIG 2814   9.265  24.937   7.145
    5AU     LIG 2815   9.257  24.508   6.905
    5AU     LIG 2816   9.283  24.042   6.743
    5AU     LIG 2817   9.577  23.635   6.714
    5AU     LIG 2818  10.043  23.424   6.699
    5AU       S 2819   9.920  26.221   6.834
    5AU     LIG 2820   9.806  26.008   6.484
    5AU     LIG 2821  10.008  25.677   6.220
    5AU     LIG 2822  10.226  25.321   6.003
    5AU     LIG 2823  10.391  25.133   5.604
    5AU     LIG 2824  10.427  24.955   5.164
    5AU     LIG 2825  10.577  24.595   4.904
    6AU     AUC 2826  37.053   1.607   7.507
    6AU     AUC 2827  37.316   1.606   7.353
    6AU     AUC 2828  37.299   1.594   7.668
    6AU     AUC 2829  36.805   1.612   7.338
    6AU     AUC 2830  36.791   1.628   7.657
    6AU     AUC 2831  36.906   1.866   7.504
    6AU     AUC 2832  37.218   1.858   7.497
    6AU     AUC 2833  36.892   1.358   7.513
    6AU     AUC 2834  37.189   1.339   7.528
    6AU     AUC 2835  37.047   1.454   7.765
    6AU     AUC 2836  37.065   1.766   7.765
    6AU     AUC 2837  37.053   1.446   7.249
    6AU     AUC 2838  37.052   1.747   7.247
    6AU     AUC 2839  37.570   1.598   7.197
    6AU     AUC 2840  37.571   1.611   7.496
    6AU     AUC 2841  37.555   1.600   7.818
    6AU     AUC 2842  36.548   1.604   7.180
    6AU     AUC 2843  36.535   1.631   7.486
    6AU     AUC 2844  36.540   1.653   7.813
    6AU     AUC 2845  36.764   2.131   7.506
    6AU     AUC 2846  37.076   2.128   7.504
    6AU     AUC 2847  37.370   2.120   7.502
    6AU     AUC 2848  36.706   1.110   7.516
    6AU     AUC 2849  37.020   1.085   7.507
    6AU     AUC 2850  37.339   1.080   7.532
    6AU     AUC 2851  37.045   1.302   8.016
    6AU     AUC 2852  37.064   1.611   8.035
    6AU     AUC 2853  37.068   1.918   8.024
    6AU     AUC 2854  37.058   1.271   7.010
    6AU     AUC 2855  37.067   1.588   6.985
    6AU     AUC 2856  37.056   1.896   6.983
    6AU     AUC 2857  37.311   1.448   7.931
    6AU     AUC 2858  37.322   1.750   7.933
    6AU     AUC 2859  37.327   1.432   7.094
    6AU     AUC 2860  37.333   1.738   7.083
    6AU     AUC 2861  36.782   1.483   7.930
    6AU     AUC 2862  36.799   1.787   7.931
    6AU     AUC 2863  36.808   1.450   7.072
    6AU     AUC 2864  36.800   1.755   7.079
    6AU     AUC 2865  37.475   1.865   7.334
    6AU     AUC 2866  37.485   1.843   7.664
    6AU     AUC 2867  36.641   1.872   7.348
    6AU     AUC 2868  36.648   1.892   7.668
    6AU     AUC 2869  37.469   1.332   7.371
    6AU     AUC 2870  37.445   1.317   7.672
    6AU     AUC 2871  36.629   1.359   7.343
    6AU     AUC 2872  36.626   1.379   7.687
    6AU     AUC 2873  36.908   2.028   7.775
    6AU     AUC 2874  37.226   2.031   7.750
    6AU     AUC 2875  36.857   1.195   7.758
    6AU     AUC 2876  37.178   1.182   7.777
    6AU     AUC 2877  36.905   2.021   7.242
    6AU     AUC 2878  37.221   2.006   7.232
    6AU     AUC 2879  36.880   1.204   7.245
    6AU     AUC 2880  37.209   1.178   7.272
    6AU    AUSL 2881  37.568   1.486   8.204
    6AU    AUSL 2882  37.324   1.125   8.123
    6AU     AUL 2883  37.476   1.053   8.480
    6AU       S 2884  37.711   0.869   8.096
    6AU     LIG 2885  37.535   0.551   8.384
    6AU     LIG 2886  37.592   0.217   8.668
    6AU     LIG 2887  37.865  44.956   8.912
    6AU     LIG 2888  38.151  44.655   9.123
    6AU     LIG 2889  38.209  44.297   9.417
    6AU     LIG 2890  38.262  44.209   9.883
    6AU       S 2891  37.629   1.426   8.290
    6AU     LIG 2892  37.853   1.303   8.686
    6AU     LIG 2893  37.932   1.177   9.146
    6AU     LIG 2894  38.192   1.196   9.565
    6AU     LIG 2895  38.503   1.277   9.931
    6AU     LIG 2896  38.779   1.299  10.317
    6AU     LIG 2897  39.028   1.427  10.701
    6AU    AUSL 2898  37.164   1.446   8.326
    6AU    AUSL 2899  36.968   1.810   8.285
    6AU     AUL 2900  37.110   1.775   8.702
    6AU       S 2901  37.212   1.415   8.471
    6AU     LIG 2902  37.168   1.249   8.876
    6AU     LIG 2903  37.408   1.021   9.244
    6AU     LIG 2904  37.484   0.771   9.675
    6AU     LIG 2905  37.502   0.571  10.133
    6AU     LIG 2906  37.643   0.485  10.594
    6AU     LIG 2907  37.945   0.642  10.938
    6AU       S 2908  36.728   1.542   8.640
    6AU     LIG 2909  36.636   1.418   9.081
    6AU     LIG 2910  36.397   1.349   9.482
    6AU     LIG 2911  36.240   1.331   9.927
    6AU     LIG 2912  36.181   1.632  10.293
    6AU     LIG 2913  36.081   1.964  10.622
    6AU     LIG 2914  35.995   2.125  11.057
    6AU    AUSL 2915  37.368   1.843   8.288
    6AU    AUSL 2916  37.691   1.819   7.999
    6AU     AUL 2917  37.788   1.766   8.494
    6AU       S 2918  37.393   1.929   8.390
    6AU     LIG 2919  37.534   2.121   8.770
    6AU     LIG 2920  37.746   2.229   9.202
    6AU     LIG 2921  37.838   2.419   9.644
    6AU     LIG 2922  37.870   2.497  10.123
    6AU     LIG 2923  37.805   2.594  10.609
    6AU     LIG 2924  37.881   2.432  11.071
    6AU       S 2925  37.922   1.847   8.048
    6AU     LIG 2926  38.262   1.888   8.333
    6AU     LIG 2927  38.488   2.178   8.638
    6AU     LIG 2928  38.675   2.373   9.039
    6AU     LIG 2929  38.893   2.495   9.452
    6AU     LIG 2930  39.302   2.584   9.704
    6AU     LIG 2931  39.664   2.658  10.016
    6AU    AUSL 2932  37.594   1.615   6.877
    6AU    AUSL 2933  37.371   2.019   6.833
    6AU     AUL 2934  37.721   1.939   6.452
    6AU       S 2935  37.659   1.630   6.741
    6AU     LIG 2936  37.922   1.497   6.367
    6AU     LIG 2937  37.965   1.367   5.929
    6AU     LIG 2938  38.115   1.289   5.479
    6AU     LIG 2939  38.442   1.177   5.139
    6AU     LIG 2940  38.815   1.137   4.826
    6AU     LIG 2941  39.071   1.236   4.424
    6AU       S 2942  37.384   2.082   6.681
    6AU     LIG 2943  37.696   2.418   6.549
    6AU     LIG 2944  37.975   2.528   6.152
    6AU     LIG 2945  38.274   2.518   5.758
    6AU     LIG 2946  38.465   2.643   5.319
    6AU     LIG 2947  38.625   3.039   5.081
    6AU     LIG 2948  38.732   3.419   4.813
    6AU    AUSL 2949  37.319   1.313   6.722
    6AU    AUSL 2950  37.682   1.250   7.034
    6AU     AUL 2951  37.660   1.203   6.670
    6AU       S 2952  37.824   0.828   6.913
    6AU     LIG 2953  37.952   0.505   6.604
    6AU     LIG 2954  38.163   0.198   6.318
    6AU     LIG 2955  38.396  44.913   6.023
    6AU     LIG 2956  38.732  44.882   5.693
    6AU     LIG 2957  39.163  44.910   5.492
    6AU     LIG 2958  39.596  44.853   5.324
    6AU       S 2959  37.422   1.553   6.450
    6AU     LIG 2960  37.493   1.199   6.190
    6AU     LIG 2961  37.621   1.013   5.782
    6AU     LIG 2962  37.708   1.004   5.322
    6AU     LIG 2963  37.723   0.936   4.852
    6AU     LIG 2964  37.792   0.683   4.448
    6AU     LIG 2965  37.925   0.630   3.998
    6AU    AUSL 2966  37.188   1.667   6.896
    6AU    AUSL 2967  36.924   1.434   6.678
    6AU     AUL 2968  37.119   1.222   6.556
    6AU       S 2969  36.659   1.552   6.362
    6AU     LIG 2970  36.776   1.162   6.146
    6AU     LIG 2971  36.613   0.945   5.749
    6AU     LIG 2972  36.352   0.782   5.368
    6AU     LIG 2973  36.295   0.556   4.933
    6AU     LIG 2974  36.217   0.460   4.465
    6AU     LIG 2975  36.225   0.499   3.988
    6AU       S 2976  37.322   1.651   6.508
    6AU     LIG 2977  37.525   1.678   6.001
    6AU     LIG 2978  37.626   1.487   5.562
    6AU     LIG 2979  37.754   1.470   5.097
    6AU     LIG 2980  37.684   1.670   4.659
    6AU     LIG 2981  37.840   1.832   4.237
    6AU     LIG 2982  37.778   1.920   3.766
    6AU    AUSL 2983  36.590   1.684   8.222
    6AU    AUSL 2984  36.725   2.093   8.134
    6AU     AUL 2985  36.796   2.012   8.455
    6AU       S 2986  36.517   1.680   8.637
    6AU     LIG 2987  36.270   1.296   8.721
    6AU     LIG 2988  36.087   1.129   9.135
    6AU     LIG 2989  35.901   1.129   9.589
    6AU     LIG 2990  35.639   1.032   9.991
    6AU     LIG 2991  35.344   0.981  10.374
    6AU     LIG 2992  35.094   1.250  10.685
    6AU       S 2993  36.341   2.066   8.349
    6AU     LIG 2994  36.347   2.236   8.767
    6AU     LIG 2995  36.259   2.532   9.132
    6AU     LIG 2996  36.075   2.743   9.514
    6AU     LIG 2997  36.047   2.891   9.976
    6AU     LIG 2998  35.908   3.210  10.305
    6AU     LIG 2999  35.659   3.581  10.475
    6AU    AUSL 3000  36.884   1.475   8.038
    6AU    AUSL 3001  36.355   1.445   7.992
    6AU     AUL 3002  36.447   1.449   8.246
    6AU       S 3003  36.193   1.060   8.202
    6AU     LIG 3004  35.787   0.905   8.071
    6AU     LIG 3005  35.495   0.591   8.266
    6AU     LIG 3006  35.260   0.289   8.545
    6AU     LIG 3007  35.078  44.991   8.863
    6AU     LIG 3008  34.753  44.847   9.185
    6AU     LIG 3009  34.409  44.772   9.520
    6AU       S 3010  36.759   1.413   8.579
    6AU     LIG 3011  36.703   1.019   8.752
    6AU     LIG 3012  36.553   0.915   9.197
    6AU     LIG 3013  36.339   0.860   9.627
    6AU     LIG 3014  36.107   0.822  10.041
    6AU     LIG 3015  35.916   0.688  10.468
    6AU     LIG 3016  35.861   0.744  10.950
    6AU    AUSL 3017  36.631   1.581   6.914
    6AU    AUSL 3018  36.811   1.151   6.940
    6AU     AUL 3019  36.658   1.196   6.651
    6AU       S 3020  36.354   1.514   6.577
    6AU     LIG 3021  36.275   1.236   6.213
    6AU     LIG 3022  36.164   1.193   5.744
    6AU     LIG 3023  35.882   1.034   5.384
    6AU     LIG 3024  35.487   0.972   5.099
    6AU     LIG 3025  35.173   1.066   4.742
    6AU     LIG 3026  35.008   1.272   4.335
    6AU       S 3027  36.361   0.847   6.817
    6AU     LIG 3028  36.137   0.459   6.791
    6AU     LIG 3029  35.844   0.195   6.537
    6AU     LIG 3030  35.580  44.936   6.238
    6AU     LIG 3031  35.328  44.669   5.925
    6AU     LIG 3032  35.357  44.470   5.479
    6AU     LIG 3033  35.369  44.344   5.012
    6AU    AUSL 3034  36.905   1.864   6.683
    6AU    AUSL 3035  36.417   1.922   6.966
    6AU     AUL 3036  36.561   1.895   6.673
    6AU       S 3037  36.254   2.221   6.780
    6AU     LIG 3038  36.091   2.165   6.349
    6AU     LIG 3039  35.914   2.365   5.944
    6AU     LIG 3040  35.672   2.503   5.548
    6AU     LIG 3041  35.312   2.573   5.236
    6AU     LIG 3042  34.896   2.788   5.116
    6AU     LIG 3043  34.428   2.907   5.129
    6AU       S 3044  36.848   1.617   6.456
    6AU     LIG 3045  36.979   1.598   5.990
    6AU     LIG 3046  36.648   1.469   5.642
    6AU     LIG 3047  36.453   1.593   5.201
    6AU     LIG 3048  36.458   1.858   4.779
    6AU     LIG 3049  36.401   2.033   4.330
    6AU     LIG 3050  36.300   2.049   3.859
    6AU    AUSL 3051  37.691   2.191   7.433
    6AU    AUSL 3052  37.703   1.948   7.087
    6AU     AUL 3053  37.851   2.401   7.243
    6AU       S 3054  37.845   2.065   6.884
    6AU     LIG 3055  38.194   2.028   6.574
    6AU     LIG 3056  38.422   2.266   6.222
    6AU     LIG 3057  38.733   2.314   5.856
    6AU     LIG 3058  39.019   2.534   5.558
    6AU     LIG 3059  39.395   2.752   5.362
    6AU     LIG 3060  39.800   2.965   5.227
    6AU       S 3061  38.158   2.070   7.370
    6AU     LIG 3062  38.633   2.076   7.519
    6AU     LIG 3063  39.116   2.114   7.520
    6AU     LIG 3064  39.538   2.355   7.530
    6AU     LIG 3065  39.779   2.806   7.555
    6AU     LIG 3066  40.165   3.104   7.615
    6AU     LIG 3067  40.583   3.256   7.722
    6AU    AUSL 3068  37.904   1.658   7.287
    6AU    AUSL 3069  37.880   1.491   7.711
    6AU     AUL 3070  38.171   1.415   7.480
    6AU       S 3071  38.086   1.855   7.347
    6AU     LIG 3072  38.502   1.693   7.215
    6AU     LIG 3073  38.990   1.677   7.252
    6AU     LIG 3074  39.476   1.827   7.268
    6AU     LIG 3075  39.961   1.807   7.183
    6AU     LIG 3076  40.393   2.026   7.128
    6AU     LIG 3077  40.716   2.385   7.122
    6AU       S 3078  38.176   1.020   7.754
    6AU     LIG 3079  38.570   0.835   7.729
    6AU     LIG 3080  38.973   0.626   7.758
    6AU     LIG 3081  39.406   0.470   7.684
    6AU     LIG 3082  39.823   0.567   7.852
    6AU     LIG 3083  40.281   0.397   7.920
    6AU     LIG 3084  40.732   0.566   8.006
    6AU    AUSL 3085  37.668   1.815   7.594
    6AU    AUSL 3086  37.578   2.179   7.827
    6AU     AUL 3087  37.838   2.170   7.699
    6AU       S 3088  37.787   2.015   8.106
    6AU     LIG 3089  38.205   2.337   8.092
    6AU     LIG 3090  38.358   2.664   8.443
    6AU     LIG 3091  38.530   3.119   8.618
    6AU     LIG 3092  38.931   3.359   8.804
    6AU     LIG 3093  39.337   3.627   8.932
    6AU     LIG 3094  39.622   4.030   8.936
    6AU       S 3095  38.166   1.869   7.624
    6AU     LIG 3096  38.521   1.641   7.776
    6AU     LIG 3097  38.997   1.676   7.775
    6AU     LIG 3098  39.470   1.816   7.783
    6AU     LIG 3099  39.950   1.842   7.890
    6AU     LIG 3100  40.435   1.716   7.910
    6AU     LIG 3101  40.848   1.971   8.022
    6AU    AUSL 3102  36.403   2.159   7.579
    6AU    AUSL 3103  36.445   1.897   7.909
    6AU     AUL 3104  36.403   2.354   7.836
    6AU       S 3105  36.225   1.974   8.102
    6AU     LIG 3106  35.884   2.192   8.430
    6AU     LIG 3107  35.840   2.341   8.891
    6AU     LIG 3108  35.684   2.422   9.351
    6AU     LIG 3109  35.339   2.481   9.703
    6AU     LIG 3110  34.957   2.684   9.945
    6AU     LIG 3111  34.690   3.052  10.123
    6AU       S 3112  36.011   2.181   7.677
    6AU     LIG 3113  35.978   2.614   7.539
    6AU     LIG 3114  35.658   3.005   7.539
    6AU     LIG 3115  35.227   3.241   7.598
    6AU     LIG 3116  34.817   3.451   7.770
    6AU     LIG 3117  34.411   3.732   7.814
    6AU     LIG 3118  33.993   3.984   7.861
    6AU    AUSL 3119  36.474   1.829   7.350
    6AU    AUSL 3120  36.576   2.245   7.216
    6AU     AUL 3121  36.283   2.167   7.250
    6AU       S 3122  35.899   2.092   7.502
    6AU     LIG 3123  35.626   1.982   7.153
    6AU     LIG 3124  35.187   1.914   6.976
    6AU     LIG 3125  34.823   2.204   6.867
    6AU     LIG 3126  34.477   2.437   6.656
    6AU     LIG 3127  34.010   2.458   6.668
    6AU     LIG 3128  33.653   2.490   6.951
    6AU       S 3129  36.409   2.436   6.876
    6AU     LIG 3130  36.246   2.643   6.477
    6AU     LIG 3131  36.064   2.956   6.178
    6AU     LIG 3132  36.014   3.422   6.101
    6AU     LIG 3133  35.787   3.824   6.155
    6AU     LIG 3134  35.420   4.034   5.977
    6AU     LIG 3135  35.093   4.103   5.651
    6AU    AUSL 3136  36.192   1.751   7.641
    6AU    AUSL 3137  36.242   1.498   7.300
    6AU     AUL 3138  36.080   1.760   7.240
    6AU       S 3139  35.889   1.296   7.424
    6AU     LIG 3140  35.495   1.258   7.723
    6AU     LIG 3141  34.982   1.292   7.742
    6AU     LIG 3142  34.524   1.102   7.760
    6AU     LIG 3143  34.200   0.873   7.460
    6AU     LIG 3144  33.771   0.959   7.223
    6AU     LIG 3145  33.317   0.886   7.045
    6AU       S 3146  36.008   1.784   7.715
    6AU     LIG 3147  35.700   1.931   8.007
    6AU     LIG 3148  35.255   2.035   8.166
    6AU     LIG 3149  34.878   2.295   8.273
    6AU     LIG 3150  34.456   2.276   8.465
    6AU     LIG 3151  34.084   2.469   8.295
    6AU     LIG 3152  33.643   2.619   8.333
    6AU    AUSL 3153  37.752   1.125   7.567
    6AU    AUSL 3154  37.510   1.372   7.830
    6AU     AUL 3155  37.934   1.362   7.931
    6AU       S 3156  37.948   0.903   7.594
    6AU     LIG 3157  38.146   0.527   7.617
    6AU     LIG 3158  38.565   0.332   7.594
    6AU     LIG 3159  38.996   0.201   7.464
    6AU     LIG 3160  39.432   0.008   7.437
    6AU     LIG 3161  39.805  44.698   7.524
    6AU     LIG 3162  40.230  44.624   7.729
    6AU       S 3163  37.721   1.001   8.089
    6AU     LIG 3164  37.960   0.820   8.504
    6AU     LIG 3165  38.079   0.407   8.682
    6AU     LIG 3166  38.356   0.033   8.799
    6AU     LIG 3167  38.640  44.849   9.133
    6AU     LIG 3168  39.026  44.876   9.418
    6AU     LIG 3169  39.423  44.756   9.654
    6AU    AUSL 3170  37.583   1.440   7.379
    6AU    AUSL 3171  37.514   0.955   7.283
    6AU     AUL 3172  37.874   1.193   7.204
    6AU       S 3173  37.895   1.021   7.616
    6AU     LIG 3174  38.316   0.915   7.281
    6AU     LIG 3175  38.778   0.688   7.271
    6AU     LIG 3176  39.249   0.527   7.160
    6AU     LIG 3177  39.751   0.505   7.232
    6AU     LIG 3178  40.264   0.462   7.081
    6AU     LIG 3179  40.741   0.324   7.031
    6AU       S 3180  37.753   0.733   7.155
    6AU     LIG 3181  37.607   0.316   6.942
    6AU     LIG 3182  37.842  44.981   6.666
    6AU     LIG 3183  38.145  44.678   6.417
    6AU     LIG 3184  38.428  44.373   6.151
    6AU     LIG 3185  38.729  43.959   6.110
    6AU     LIG 3186  39.046  43.557   6.107
    6AU    AUSL 3187  36.345   1.128   7.490
    6AU    AUSL 3188  36.433   1.252   7.050
    6AU     AUL 3189  36.152   1.324   7.031
    6AU       S 3190  36.340   0.906   7.053
    6AU     LIG 3191  35.879   0.883   6.988
    6AU     LIG 3192  35.608   0.632   6.704
    6AU     LIG 3193  35.349   0.368   6.408
    6AU     LIG 3194  35.081   0.084   6.137
    6AU     LIG 3195  34.715  44.912   5.882
    6AU     LIG 3196  34.290  44.869   5.651
    6AU       S 3197  36.052   1.092   7.422
    6AU     LIG 3198  35.668   0.840   7.474
    6AU     LIG 3199  35.184   0.921   7.435
    6AU     LIG 3200  34.721   0.742   7.447
    6AU     LIG 3201  34.376   0.397   7.568
    6AU     LIG 3202  34.106   0.075   7.820
    6AU     LIG 3203  33.753  44.742   7.789
    6AU    AUSL 3204  36.502   1.493   7.625
    6AU    AUSL 3205  36.576   1.133   7.847
    6AU     AUL 3206  36.198   1.298   7.803
    6AU       S 3207  36.337   0.922   8.013
    6AU     LIG 3208  36.121   0.705   7.750
    6AU     LIG 3209  35.810   0.381   7.911
    6AU     LIG 3210  35.504   0.063   8.151
    6AU     LIG 3211  35.275  44.736   8.443
    6AU     LIG 3212  35.180  44.292   8.631
    6AU     LIG 3213  34.972  43.939   8.870
    6AU       S 3214  35.933   1.378   7.450
    6AU     LIG 3215  35.468   1.514   7.284
    6AU     LIG 3216  34.988   1.508   7.267
    6AU     LIG 3217  34.586   1.255   7.290
    6AU     LIG 3218  34.144   1.367   7.469
    6AU     LIG 3219  33.804   1.104   7.710
    6AU     LIG 3220  33.448   0.806   7.625
    6AU    AUSL 3221  37.079   2.270   8.037
    6AU    AUSL 3222  36.771   2.075   7.732
    6AU     AUL 3223  36.789   2.382   8.106
    6AU       S 3224  36.404   2.185   8.259
    6AU     LIG 3225  36.246   2.571   8.369
    6AU     LIG 3226  36.057   2.793   8.730
    6AU     LIG 3227  35.952   3.182   8.984
    6AU     LIG 3228  35.793   3.632   9.065
    6AU     LIG 3229  35.483   3.977   9.174
    6AU     LIG 3230  35.102   4.212   9.340
    6AU       S 3231  37.155   2.673   7.989
    6AU     LIG 3232  37.421   2.752   8.331
    6AU     LIG 3233  37.560   3.173   8.514
    6AU     LIG 3234  37.614   3.623   8.686
    6AU     LIG 3235  37.562   3.900   9.072
    6AU     LIG 3236  37.482   4.154   9.474
    6AU     LIG 3237  37.363   4.510   9.762
    6AU    AUSL 3238  36.842   2.461   7.664
    6AU    AUSL 3239  37.306   2.437   7.285
    6AU     AUL 3240  37.002   2.704   7.441
    6AU       S 3241  36.997   2.756   7.897
    6AU     LIG 3242  37.151   3.157   8.144
    6AU     LIG 3243  37.276   3.583   8.304
    6AU     LIG 3244  37.292   4.046   8.434
    6AU     LIG 3245  37.033   4.482   8.422
    6AU     LIG 3246  36.807   4.941   8.437
    6AU     LIG 3247  36.892   5.408   8.563
    6AU       S 3248  37.360   2.780   7.129
    6AU     LIG 3249  37.694   3.109   6.986
    6AU     LIG 3250  37.797   3.557   6.854
    6AU     LIG 3251  38.089   3.933   6.747
    6AU     LIG 3252  38.090   4.400   6.648
    6AU     LIG 3253  38.010   4.863   6.676
    6AU     LIG 3254  37.824   5.269   6.509
    6AU    AUSL 3255  37.236   2.304   7.662
    6AU    AUSL 3256  37.265   1.934   7.917
    6AU     AUL 3257  37.390   2.292   8.082
    6AU       S 3258  37.796   2.128   8.218
    6AU     LIG 3259  37.986   2.275   8.572
    6AU     LIG 3260  38.164   2.432   8.967
    6AU     LIG 3261  38.316   2.422   9.418
    6AU     LIG 3262  38.499   2.660   9.778
    6AU     LIG 3263  38.545   3.078  10.005
    6AU     LIG 3264  38.621   3.541  10.056
    6AU       S 3265  37.339   2.611   7.746
    6AU     LIG 3266  37.575   2.994   7.900
    6AU     LIG 3267  37.717   3.417   8.096
    6AU     LIG 3268  37.898   3.834   8.267
    6AU     LIG 3269  38.074   4.290   8.395
    6AU     LIG 3270  38.122   4.765   8.593
    6AU     LIG 3271  37.915   5.212   8.736
    6AU    AUSL 3272  37.010   1.051   7.873
    6AU    AUSL 3273  37.426   0.975   7.751
    6AU     AUL 3274  37.230   0.832   8.118
    6AU       S 3275  36.843   0.443   7.918
    6AU     LIG 3276  36.879   0.221   8.274
    6AU     LIG 3277  36.749  44.801   8.334
    6AU     LIG 3278  36.703  44.341   8.341
    6AU     LIG 3279  36.871  43.948   8.537
    6AU     LIG 3280  36.972  43.724   8.937
    6AU     LIG 3281  37.005  43.489   9.348
    6AU       S 3282  37.605   0.731   7.870
    6AU     LIG 3283  37.931   0.420   8.099
    6AU     LIG 3284  37.979   0.013   8.377
    6AU     LIG 3285  38.102  44.607   8.606
    6AU     LIG 3286  38.264  44.225   8.850
    6AU     LIG 3287  38.627  43.918   8.926
    6AU     LIG 3288  38.959  43.562   8.946
    6AU    AUSL 3289  36.743   0.839   7.635
    6AU    AUSL 3290  36.789   1.132   8.211
    6AU     AUL 3291  36.785   0.865   8.049
    6AU       S 3292  36.594   0.524   7.800
    6AU     LIG 3293  36.460   0.106   7.971
    6AU     LIG 3294  36.474  44.627   7.936
    6AU     LIG 3295  36.315  44.178   8.024
    6AU     LIG 3296  36.070  43.790   8.161
    6AU     LIG 3297  35.993  43.323   8.108
    6AU     LIG 3298  35.933  42.841   8.133
    6AU       S 3299  36.423   0.987   8.294
    6AU     LIG 3300  36.156   0.558   8.285
    6AU     LIG 3301  35.851   0.266   8.463
    6AU     LIG 3302  35.616  44.976   8.740
    6AU     LIG 3303  35.423  44.611   8.957
    6AU     LIG 3304  35.366  44.386   9.359
    6AU     LIG 3305  35.486  44.263   9.804
    6AU    AUSL 3306  37.142   0.712   7.666
    6AU    AUSL 3307  36.806   0.808   7.231
    6AU     AUL 3308  36.877   0.576   7.441
    6AU       S 3309  36.726   0.436   7.007
    6AU     LIG 3310  36.427   0.130   7.113
    6AU     LIG 3311  36.355  44.658   7.132
    6AU     LIG 3312  36.239  44.206   7.004
    6AU     LIG 3313  36.017  43.769   6.957
    6AU     LIG 3314  35.798  43.347   6.869
    6AU     LIG 3315  35.809  42.892   6.710
    6AU       S 3316  37.028   0.490   7.858
    6AU     LIG 3317  36.943  44.981   7.797
    6AU     LIG 3318  36.989  44.529   7.948
    6AU     LIG 3319  37.086  44.076   8.084
    6AU     LIG 3320  37.266  43.643   8.204
    6AU     LIG 3321  37.458  43.204   8.220
    6AU     LIG 3322  37.572  42.823   8.469
    6AU    AUSL 3323  37.066   2.255   6.964
    6AU    AUSL 3324  37.356   2.036   7.266
    6AU     AUL 3325  37.451   2.342   7.028
    6AU       S 3326  37.119   2.560   6.788
    6AU     LIG 3327  37.453   2.851   6.611
    6AU     LIG 3328  37.638   3.248   6.433
    6AU     LIG 3329  37.656   3.457   5.985
    6AU     LIG 3330  37.528   3.714   5.578
    6AU     LIG 3331  37.432   4.143   5.373
    6AU     LIG 3332  37.487   4.510   5.066
    6AU       S 3333  37.804   2.032   6.974
    6AU     LIG 3334  38.120   2.457   6.830
    6AU     LIG 3335  38.297   2.736   6.500
    6AU     LIG 3336  38.659   2.962   6.320
    6AU     LIG 3337  39.000   3.286   6.220
    6AU     LIG 3338  39.301   3.650   6.104
    6AU     LIG 3339  39.641   3.993   6.038
    6AU    AUSL 3340  36.955   2.225   7.356
    6AU    AUSL 3341  36.819   1.953   7.064
    6AU     AUL 3342  36.803   2.435   7.127
    6AU       S 3343  37.160   2.714   7.012
    6AU     LIG 3344  37.187   3.188   6.884
    6AU     LIG 3345  37.288   3.622   6.717
    6AU     LIG 3346  37.077   4.069   6.672
    6AU     LIG 3347  36.813   4.490   6.645
    6AU     LIG 3348  36.652   4.942   6.537
    6AU     LIG 3349  36.473   5.351   6.351
    6AU       S 3350  36.637   2.333   6.718
    6AU     LIG 3351  36.579   2.300   6.283
    6AU     LIG 3352  36.378   2.583   5.946
    6AU     LIG 3353  36.250   2.740   5.496
    6AU     LIG 3354  36.153   3.034   5.117
    6AU     LIG 3355  35.901   3.369   4.877
    6AU     LIG 3356  35.516   3.603   4.728
    6AU    AUSL 3357  37.138   0.912   6.979
    6AU    AUSL 3358  36.715   1.184   7.341
    6AU     AUL 3359  36.794   0.883   6.955
    6AU       S 3360  36.358   0.781   7.181
    6AU     LIG 3361  36.040   0.498   7.290
    6AU     LIG 3362  35.711   0.265   7.049
    6AU     LIG 3363  35.423  44.997   6.758
    6AU     LIG 3364  35.188  44.694   6.462
    6AU     LIG 3365  34.997  44.337   6.208
    6AU     LIG 3366  34.660  44.000   6.207
    6AU       S 3367  37.075   0.540   6.852
    6AU     LIG 3368  36.972   0.085   6.710
    6AU     LIG 3369  36.637  44.773   6.714
    6AU     LIG 3370  36.595  44.321   6.600
    6AU     LIG 3371  36.783  44.020   6.263
    6AU     LIG 3372  36.864  43.868   5.798
    6AU     LIG 3373  36.835  43.563   5.420
    6AU    AUSL 3374  37.126   1.002   7.397
    6AU    AUSL 3375  37.275   1.261   7.110
    6AU     AUL 3376  37.294   0.746   7.217
    6AU       S 3377  36.998   0.457   7.027
    6AU     LIG 3378  36.934   0.048   7.248
    6AU     LIG 3379  36.881  44.592   7.128
    6AU     LIG 3380  37.012  44.197   6.884
    6AU     LIG 3381  37.227  43.805   6.707
    6AU     LIG 3382  37.423  43.366   6.721
    6AU     LIG 3383  37.568  42.914   6.646
    6AU       S 3384  37.569   0.798   6.847
    6AU     LIG 3385  37.449   0.585   6.502
    6AU     LIG 3386  37.634   0.231   6.265
    6AU     LIG 3387  37.859  44.882   6.039
    6AU     LIG 3388  38.091  44.616   5.726
    6AU     LIG 3389  38.176  44.493   5.272
    6AU     LIG 3390  38.498  44.410   4.936
    7AU     AUC 3391  32.057  26.028   7.499
    7AU     AUC 3392  32.320  26.026   7.344
    7AU     AUC 3393  32.304  26.014   7.658
    7AU     AUC 3394  31.807  26.032   7.331
    7AU     AUC 3395  31.795  26.051   7.651
    7AU     AUC 3396  31.910  26.287   7.496
    7AU     AUC 3397  32.222  26.279   7.489
    7AU     AUC 3398  31.895  25.783   7.508
    7AU     AUC 3399  32.193  25.762   7.516
    7AU     AUC 3400  32.052  25.875   7.757
    7AU     AUC 3401  32.069  26.187   7.757
    7AU     AUC 3402  32.055  25.869   7.239
    7AU     AUC 3403  32.054  26.169   7.239
    7AU     AUC 3404  32.575  26.021   7.187
    7AU     AUC 3405  32.575  26.031   7.487
    7AU     AUC 3406  32.559  26.018   7.808
    7AU     AUC 3407  31.550  26.024   7.175
    7AU     AUC 3408  31.539  26.052   7.480
    7AU     AUC 3409  31.544  26.077   7.807
    7AU     AUC 3410  31.767  26.551   7.498
    7AU     AUC 3411  32.079  26.549   7.496
    7AU     AUC 3412  32.373  26.539   7.494
    7AU     AUC 3413  31.713  25.534   7.512
    7AU     AUC 3414  32.022  25.508   7.500
    7AU     AUC 3415  32.340  25.501   7.522
    7AU     AUC 3416  32.050  25.724   8.009
    7AU     AUC 3417  32.069  26.032   8.028
    7AU     AUC 3418  32.075  26.339   8.017
    7AU     AUC 3419  32.061  25.693   6.999
    7AU     AUC 3420  32.069  26.008   6.976
    7AU     AUC 3421  32.058  26.318   6.976
    7AU     AUC 3422  32.315  25.867   7.922
    7AU     AUC 3423  32.328  26.169   7.924
    7AU     AUC 3424  32.332  25.857   7.084
    7AU     AUC 3425  32.336  26.162   7.074
    7AU     AUC 3426  31.788  25.908   7.924
    7AU     AUC 3427  31.805  26.210   7.925
    7AU     AUC 3428  31.811  25.869   7.065
    7AU     AUC 3429  31.802  26.176   7.072
    7AU     AUC 3430  32.478  26.286   7.326
    7AU     AUC 3431  32.491  26.263   7.654
    7AU     AUC 3432  31.643  26.293   7.342
    7AU     AUC 3433  31.652  26.315   7.662
    7AU     AUC 3434  32.473  25.754   7.361
    7AU     AUC 3435  32.447  25.736   7.663
    7AU     AUC 3436  31.634  25.777   7.338
    7AU     AUC 3437  31.631  25.804   7.682
    7AU     AUC 3438  31.913  26.450   7.767
    7AU     AUC 3439  32.231  26.451   7.742
    7AU     AUC 3440  31.860  25.619   7.754
    7AU     AUC 3441  32.179  25.603   7.768
    7AU     AUC 3442  31.907  26.442   7.234
    7AU     AUC 3443  32.223  26.427   7.224
    7AU     AUC 3444  31.884  25.622   7.237
    7AU     AUC 3445  32.214  25.605   7.259
    7AU    AUSL 3446  32.572  25.904   8.195
    7AU    AUSL 3447  32.327  25.542   8.117
    7AU     AUL 3448  32.475  25.470   8.474
    7AU       S 3449  32.691  25.269   8.094
    7AU     LIG 3450  32.490  24.955   8.358
    7AU     LIG 3451  32.636  24.633   8.628
    7AU     LIG 3452  32.902  24.361   8.892
    7AU     LIG 3453  33.185  24.079   9.149
    7AU     LIG 3454  33.240  23.858   9.574
    7AU     LIG 3455  33.173  23.579   9.959
    7AU       S 3456  32.633  25.842   8.286
    7AU     LIG 3457  32.664  25.807   8.786
    7AU     LIG 3458  32.897  25.651   9.201
    7AU     LIG 3459  33.163  25.524   9.599
    7AU     LIG 3460  33.514  25.484   9.941
    7AU     LIG 3461  33.814  25.575  10.308
    7AU     LIG 3462  34.126  25.708  10.642
    7AU    AUSL 3463  32.171  25.866   8.318
    7AU    AUSL 3464  31.976  26.230   8.279
    7AU     AUL 3465  32.123  26.198   8.693
    7AU       S 3466  32.217  25.836   8.463
    7AU     LIG 3467  32.163  25.691   8.866
    7AU     LIG 3468  32.410  25.481   9.210
    7AU     LIG 3469  32.669  25.334   9.601
    7AU     LIG 3470  32.756  25.115  10.039
    7AU     LIG 3471  32.768  25.046  10.524
    7AU     LIG 3472  32.799  25.041  11.012
    7AU       S 3473  31.740  25.965   8.631
    7AU     LIG 3474  31.641  25.862   9.085
    7AU     LIG 3475  31.438  25.786   9.509
    7AU     LIG 3476  31.285  25.766   9.958
    7AU     LIG 3477  31.256  26.053  10.340
    7AU     LIG 3478  31.248  26.353  10.715
    7AU     LIG 3479  31.066  26.480  11.130
    7AU    AUSL 3480  32.376  26.264   8.279
    7AU    AUSL 3481  32.695  26.234   7.986
    7AU     AUL 3482  32.795  26.184   8.485
    7AU       S 3483  32.403  26.352   8.377
    7AU     LIG 3484  32.537  26.543   8.764
    7AU     LIG 3485  32.578  26.654   9.250
    7AU     LIG 3486  32.678  26.754   9.727
    7AU     LIG 3487  32.736  26.849  10.199
    7AU     LIG 3488  32.814  26.810  10.664
    7AU     LIG 3489  33.162  26.715  10.968
    7AU       S 3490  32.938  26.255   8.039
    7AU     LIG 3491  33.280  26.296   8.343
    7AU     LIG 3492  33.510  26.542   8.691
    7AU     LIG 3493  33.800  26.723   9.043
    7AU     LIG 3494  34.077  26.845   9.437
    7AU     LIG 3495  34.458  26.875   9.757
    7AU     LIG 3496  34.816  27.130   9.963
    7AU    AUSL 3497  32.597  26.045   6.868
    7AU    AUSL 3498  32.373  26.445   6.829
    7AU     AUL 3499  32.733  26.386   6.456
    7AU       S 3500  32.656  26.065   6.728
    7AU     LIG 3501  32.931  25.945   6.357
    7AU     LIG 3502  32.960  25.776   5.931
    7AU     LIG 3503  33.070  25.627   5.492
    7AU     LIG 3504  33.297  25.531   5.074
    7AU     LIG 3505  33.675  25.440   4.765
    7AU     LIG 3506  34.053  25.502   4.470
    7AU       S 3507  32.383  26.506   6.677
    7AU     LIG 3508  32.679  26.861   6.598
    7AU     LIG 3509  33.020  26.898   6.270
    7AU     LIG 3510  33.299  27.008   5.869
    7AU     LIG 3511  33.415  27.220   5.428
    7AU     LIG 3512  33.632  27.495   5.091
    7AU     LIG 3513  33.700  27.759   4.696
    7AU    AUSL 3514  32.327  25.745   6.702
    7AU    AUSL 3515  32.695  25.682   7.022
    7AU     AUL 3516  32.677  25.641   6.652
    7AU       S 3517  32.837  25.268   6.891
    7AU     LIG 3518  32.932  25.022   6.511
    7AU     LIG 3519  33.120  24.654   6.302
    7AU     LIG 3520  33.381  24.364   6.058
    7AU     LIG 3521  33.791  24.335   5.843
    7AU     LIG 3522  34.198  24.260   5.633
    7AU     LIG 3523  34.430  24.333   5.248
    7AU       S 3524  32.428  25.988   6.438
    7AU     LIG 3525  32.497  25.636   6.166
    7AU     LIG 3526  32.614  25.442   5.739
    7AU     LIG 3527  32.681  25.369   5.266
    7AU     LIG 3528  32.683  25.200   4.811
    7AU     LIG 3529  32.761  25.173   4.342
    7AU     LIG 3530  33.033  25.159   3.958
    7AU    AUSL 3531  32.190  26.091   6.887
    7AU    AUSL 3532  31.928  25.849   6.677
    7AU     AUL 3533  32.128  25.648   6.544
    7AU       S 3534  31.668  25.962   6.359
    7AU     LIG 3535  31.754  25.545   6.138
    7AU     LIG 3536  31.641  25.302   5.717
    7AU     LIG 3537  31.471  25.192   5.274
    7AU     LIG 3538  31.238  25.045   4.873
    7AU     LIG 3539  31.042  25.053   4.435
    7AU     LIG 3540  30.917  25.014   3.969
    7AU       S 3541  32.326  26.080   6.497
    7AU     LIG 3542  32.555  26.122   5.998
    7AU     LIG 3543  32.636  25.927   5.554
    7AU     LIG 3544  32.798  25.852   5.100
    7AU     LIG 3545  32.816  26.013   4.640
    7AU     LIG 3546  32.952  26.338   4.311
    7AU     LIG 3547  33.149  26.566   3.944
    7AU    AUSL 3548  31.596  26.109   8.214
    7AU    AUSL 3549  31.737  26.516   8.128
    7AU     AUL 3550  31.806  26.434   8.448
    7AU       S 3551  31.528  26.103   8.632
    7AU     LIG 3552  31.281  25.729   8.722
    7AU     LIG 3553  31.138  25.571   9.143
    7AU     LIG 3554  30.955  25.577   9.594
    7AU     LIG 3555  30.647  25.583   9.969
    7AU     LIG 3556  30.234  25.678  10.220
    7AU     LIG 3557  29.907  25.618  10.574
    7AU       S 3558  31.351  26.493   8.347
    7AU     LIG 3559  31.391  26.619   8.776
    7AU     LIG 3560  31.339  26.972   9.091
    7AU     LIG 3561  31.098  27.298   9.345
    7AU     LIG 3562  30.866  27.367   9.774
    7AU     LIG 3563  30.658  27.549  10.179
    7AU     LIG 3564  30.390  27.918  10.361
    7AU    AUSL 3565  31.886  25.895   8.033
    7AU    AUSL 3566  31.346  25.883   7.984
    7AU     AUL 3567  31.460  25.878   8.237
    7AU       S 3568  31.165  25.525   8.248
    7AU     LIG 3569  30.788  25.347   8.065
    7AU     LIG 3570  30.455  25.067   8.248
    7AU     LIG 3571  30.240  24.775   8.550
    7AU     LIG 3572  30.026  24.481   8.845
    7AU     LIG 3573  29.707  24.425   9.196
    7AU     LIG 3574  29.374  24.565   9.517
    7AU       S 3575  31.765  25.831   8.575
    7AU     LIG 3576  31.708  25.445   8.800
    7AU     LIG 3577  31.590  25.351   9.258
    7AU     LIG 3578  31.385  25.306   9.705
    7AU     LIG 3579  31.230  25.267  10.174
    7AU     LIG 3580  31.149  25.170  10.659
    7AU     LIG 3581  30.956  25.205  11.106
    7AU    AUSL 3582  31.636  26.002   6.909
    7AU    AUSL 3583  31.810  25.557   6.930
    7AU     AUL 3584  31.670  25.606   6.649
    7AU       S 3585  31.364  25.925   6.583
    7AU     LIG 3586  31.267  25.683   6.193
    7AU     LIG 3587  31.245  25.629   5.711
    7AU     LIG 3588  31.044  25.485   5.286
    7AU     LIG 3589  30.764  25.327   4.917
    7AU     LIG 3590  30.383  25.336   4.606
    7AU     LIG 3591  30.182  25.611   4.274
    7AU       S 3592  31.373  25.264   6.818
    7AU     LIG 3593  31.121  24.890   6.816
    7AU     LIG 3594  30.754  24.708   6.590
    7AU     LIG 3595  30.503  24.441   6.283
    7AU     LIG 3596  30.524  24.235   5.851
    7AU     LIG 3597  30.571  23.994   5.440
    7AU     LIG 3598  30.456  23.657   5.120
    7AU    AUSL 3599  31.904  26.281   6.675
    7AU    AUSL 3600  31.418  26.340   6.959
    7AU     AUL 3601  31.557  26.316   6.665
    7AU       S 3602  31.254  26.649   6.769
    7AU     LIG 3603  31.057  26.729   6.363
    7AU     LIG 3604  30.924  27.074   6.057
    7AU     LIG 3605  30.702  27.116   5.629
    7AU     LIG 3606  30.312  27.039   5.336
    7AU     LIG 3607  30.021  27.201   4.977
    7AU     LIG 3608  29.591  27.351   4.810
    7AU       S 3609  31.852  26.035   6.464
    7AU     LIG 3610  32.063  25.935   6.056
    7AU     LIG 3611  31.769  25.805   5.678
    7AU     LIG 3612  31.512  25.734   5.265
    7AU     LIG 3613  31.397  25.899   4.813
    7AU     LIG 3614  31.300  26.161   4.407
    7AU     LIG 3615  31.066  26.401   4.058
    7AU    AUSL 3616  32.690  26.618   7.428
    7AU    AUSL 3617  32.706  26.375   7.082
    7AU     AUL 3618  32.852  26.836   7.228
    7AU       S 3619  32.851  26.481   6.895
    7AU     LIG 3620  33.206  26.377   6.625
    7AU     LIG 3621  33.458  26.623   6.284
    7AU     LIG 3622  33.753  26.734   5.907
    7AU     LIG 3623  34.160  26.779   5.635
    7AU     LIG 3624  34.515  26.887   5.323
    7AU     LIG 3625  34.788  27.197   5.093
    7AU       S 3626  33.131  26.496   7.383
    7AU     LIG 3627  33.584  26.558   7.528
    7AU     LIG 3628  34.062  26.673   7.531
    7AU     LIG 3629  34.534  26.801   7.519
    7AU     LIG 3630  34.988  26.981   7.573
    7AU     LIG 3631  35.310  27.293   7.760
    7AU     LIG 3632  35.644  27.653   7.846
    7AU    AUSL 3633  32.904  26.075   7.269
    7AU    AUSL 3634  32.879  25.906   7.701
    7AU     AUL 3635  33.175  25.847   7.481
    7AU       S 3636  33.092  26.281   7.330
    7AU     LIG 3637  33.485  26.160   7.206
    7AU     LIG 3638  33.937  26.235   7.279
    7AU     LIG 3639  34.390  26.366   7.252
    7AU     LIG 3640  34.846  26.483   7.251
    7AU     LIG 3641  35.270  26.675   7.268
    7AU     LIG 3642  35.635  26.941   7.177
    7AU       S 3643  33.177  25.434   7.730
    7AU     LIG 3644  33.562  25.206   7.720
    7AU     LIG 3645  33.980  24.989   7.720
    7AU     LIG 3646  34.425  24.803   7.705
    7AU     LIG 3647  34.858  24.872   7.904
    7AU     LIG 3648  35.300  24.833   8.094
    7AU     LIG 3649  35.753  24.994   8.208
    7AU    AUSL 3650  32.679  26.238   7.581
    7AU    AUSL 3651  32.579  26.594   7.821
    7AU     AUL 3652  32.819  26.626   7.706
    7AU       S 3653  32.800  26.385   8.072
    7AU     LIG 3654  33.243  26.655   7.988
    7AU     LIG 3655  33.437  26.925   8.344
    7AU     LIG 3656  33.606  27.277   8.650
    7AU     LIG 3657  33.794  27.724   8.754
    7AU     LIG 3658  34.026  28.148   8.812
    7AU     LIG 3659  34.280  28.510   8.988
    7AU       S 3660  33.126  26.311   7.603
    7AU     LIG 3661  33.442  26.166   7.834
    7AU     LIG 3662  33.925  26.243   7.800
    7AU     LIG 3663  34.410  26.354   7.767
    7AU     LIG 3664  34.887  26.498   7.764
    7AU     LIG 3665  35.363  26.627   7.774
    7AU     LIG 3666  35.828  26.628   7.934
    7AU    AUSL 3667  31.409  26.581   7.571
    7AU    AUSL 3668  31.449  26.328   7.907
    7AU     AUL 3669  31.413  26.781   7.831
    7AU       S 3670  31.234  26.406   8.099
    7AU     LIG 3671  30.896  26.624   8.434
    7AU     LIG 3672  30.893  26.826   8.872
    7AU     LIG 3673  30.738  26.930   9.333
    7AU     LIG 3674  30.483  27.009   9.750
    7AU     LIG 3675  30.093  27.130  10.005
    7AU     LIG 3676  29.750  27.379  10.208
    7AU       S 3677  31.027  26.612   7.657
    7AU     LIG 3678  30.923  27.040   7.501
    7AU     LIG 3679  30.594  27.409   7.541
    7AU     LIG 3680  30.223  27.717   7.545
    7AU     LIG 3681  29.851  27.978   7.364
    7AU     LIG 3682  29.399  28.126   7.481
    7AU     LIG 3683  29.019  28.232   7.752
    7AU    AUSL 3684  31.475  26.248   7.343
    7AU    AUSL 3685  31.578  26.665   7.205
    7AU     AUL 3686  31.284  26.583   7.238
    7AU       S 3687  30.905  26.511   7.499
    7AU     LIG 3688  30.759  26.580   7.077
    7AU     LIG 3689  30.322  26.709   6.873
    7AU     LIG 3690  29.882  26.930   6.768
    7AU     LIG 3691  29.460  27.183   6.687
    7AU     LIG 3692  28.988  27.209   6.646
    7AU     LIG 3693  28.569  27.198   6.839
    7AU       S 3694  31.406  26.861   6.870
    7AU     LIG 3695  31.212  27.166   6.571
    7AU     LIG 3696  31.217  27.482   6.228
    7AU     LIG 3697  31.063  27.929   6.205
    7AU     LIG 3698  30.859  28.328   6.105
    7AU     LIG 3699  30.437  28.503   6.024
    7AU     LIG 3700  30.073  28.791   5.970
    7AU    AUSL 3701  31.199  26.173   7.639
    7AU    AUSL 3702  31.244  25.914   7.302
    7AU     AUL 3703  31.081  26.176   7.238
    7AU       S 3704  30.899  25.705   7.440
    7AU     LIG 3705  30.499  25.648   7.723
    7AU     LIG 3706  30.003  25.576   7.761
    7AU     LIG 3707  29.541  25.766   7.652
    7AU     LIG 3708  29.155  25.627   7.351
    7AU     LIG 3709  28.767  25.344   7.247
    7AU     LIG 3710  28.306  25.162   7.143
    7AU       S 3711  31.013  26.211   7.715
    7AU     LIG 3712  30.718  26.402   8.004
    7AU     LIG 3713  30.364  26.650   8.220
    7AU     LIG 3714  29.886  26.780   8.284
    7AU     LIG 3715  29.394  26.852   8.327
    7AU     LIG 3716  28.925  26.866   8.438
    7AU     LIG 3717  28.629  27.245   8.381
    7AU    AUSL 3718  32.747  25.536   7.567
    7AU    AUSL 3719  32.511  25.782   7.823
    7AU     AUL 3720  32.934  25.770   7.925
    7AU       S 3721  32.921  25.294   7.585
    7AU     LIG 3722  33.136  24.920   7.626
    7AU     LIG 3723  33.555  24.702   7.577
    7AU     LIG 3724  33.995  24.538   7.475
    7AU     LIG 3725  34.376  24.254   7.538
    7AU     LIG 3726  34.693  23.966   7.753
    7AU     LIG 3727  35.032  23.641   7.896
    7AU       S 3728  32.714  25.411   8.082
    7AU     LIG 3729  32.932  25.203   8.504
    7AU     LIG 3730  33.124  24.811   8.682
    7AU     LIG 3731  33.400  24.443   8.815
    7AU     LIG 3732  33.686  24.257   9.149
    7AU     LIG 3733  34.087  24.240   9.417
    7AU     LIG 3734  34.449  24.149   9.716
    7AU    AUSL 3735  32.590  25.855   7.375
    7AU    AUSL 3736  32.524  25.381   7.263
    7AU     AUL 3737  32.882  25.609   7.210
    7AU       S 3738  32.893  25.426   7.618
    7AU     LIG 3739  33.285  25.285   7.266
    7AU     LIG 3740  33.735  25.067   7.251
    7AU     LIG 3741  34.218  24.964   7.256
    7AU     LIG 3742  34.711  24.939   7.256
    7AU     LIG 3743  35.126  24.961   6.980
    7AU     LIG 3744  35.620  24.981   6.863
    7AU       S 3745  32.787  25.153   7.110
    7AU     LIG 3746  32.700  24.743   6.885
    7AU     LIG 3747  32.837  24.369   6.616
    7AU     LIG 3748  33.140  24.059   6.406
    7AU     LIG 3749  33.424  23.661   6.362
    7AU     LIG 3750  33.674  23.321   6.142
    7AU     LIG 3751  34.057  23.051   6.209
    7AU    AUSL 3752  31.356  25.545   7.491
    7AU    AUSL 3753  31.436  25.677   7.044
    7AU     AUL 3754  31.147  25.738   7.037
    7AU       S 3755  31.359  25.333   7.049
    7AU     LIG 3756  30.861  25.298   7.017
    7AU     LIG 3757  30.461  25.131   6.799
    7AU     LIG 3758  30.313  24.905   6.400
    7AU     LIG 3759  30.000  24.664   6.149
    7AU     LIG 3760  29.628  24.677   5.833
    7AU     LIG 3761  29.402  24.567   5.409
    7AU       S 3762  31.064  25.500   7.424
    7AU     LIG 3763  30.730  25.226   7.554
    7AU     LIG 3764  30.326  25.146   7.756
    7AU     LIG 3765  29.867  25.085   7.625
    7AU     LIG 3766  29.471  24.899   7.407
    7AU     LIG 3767  29.040  24.650   7.475
    7AU     LIG 3768  28.873  24.227   7.657
    7AU    AUSL 3769  31.508  25.915   7.621
    7AU    AUSL 3770  31.581  25.571   7.860
    7AU     AUL 3771  31.218  25.684   7.809
    7AU       S 3772  31.337  25.405   8.150
    7AU     LIG 3773  31.194  25.152   7.815
    7AU     LIG 3774  30.791  24.848   7.913
    7AU     LIG 3775  30.431  24.543   8.132
    7AU     LIG 3776  30.124  24.219   8.393
    7AU     LIG 3777  29.843  23.797   8.502
    7AU     LIG 3778  29.574  23.377   8.596
    7AU       S 3779  30.947  25.795   7.466
    7AU     LIG 3780  30.486  25.919   7.287
    7AU     LIG 3781  30.014  25.830   7.332
    7AU     LIG 3782  29.692  25.446   7.314
    7AU     LIG 3783  29.336  25.302   7.682
    7AU     LIG 3784  28.844  25.312   7.790
    7AU     LIG 3785  28.388  25.170   7.983
    7AU    AUSL 3786  32.092  26.692   8.030
    7AU    AUSL 3787  31.777  26.497   7.726
    7AU     AUL 3788  31.802  26.803   8.099
    7AU       S 3789  31.414  26.619   8.258
    7AU     LIG 3790  31.259  26.998   8.445
    7AU     LIG 3791  31.101  27.295   8.769
    7AU     LIG 3792  31.049  27.714   8.964
    7AU     LIG 3793  30.861  28.143   9.025
    7AU     LIG 3794  30.587  28.523   9.044
    7AU     LIG 3795  30.289  28.707   9.355
    7AU       S 3796  32.169  27.089   7.975
    7AU     LIG 3797  32.333  27.146   8.361
    7AU     LIG 3798  32.466  27.568   8.533
    7AU     LIG 3799  32.432  27.967   8.794
    7AU     LIG 3800  32.326  28.269   9.151
    7AU     LIG 3801  32.201  28.604   9.468
    7AU     LIG 3802  32.086  29.012   9.683
    7AU    AUSL 3803  31.849  26.883   7.657
    7AU    AUSL 3804  32.306  26.857   7.275
    7AU     AUL 3805  32.009  27.122   7.432
    7AU       S 3806  32.007  27.177   7.888
    7AU     LIG 3807  32.127  27.581   8.133
    7AU     LIG 3808  32.237  28.016   8.315
    7AU     LIG 3809  32.087  28.466   8.476
    7AU     LIG 3810  31.964  28.938   8.574
    7AU     LIG 3811  31.755  29.368   8.624
    7AU     LIG 3812  31.746  29.831   8.730
    7AU       S 3813  32.348  27.200   7.105
    7AU     LIG 3814  32.693  27.389   6.853
    7AU     LIG 3815  32.902  27.824   6.729
    7AU     LIG 3816  33.175  28.240   6.702
    7AU     LIG 3817  33.309  28.697   6.583
    7AU     LIG 3818  33.360  29.153   6.438
    7AU     LIG 3819  33.112  29.555   6.409
    7AU    AUSL 3820  32.241  26.722   7.652
    7AU    AUSL 3821  32.265  26.350   7.909
    7AU     AUL 3822  32.409  26.709   8.070
    7AU       S 3823  32.819  26.534   8.196
    7AU     LIG 3824  33.008  26.681   8.554
    7AU     LIG 3825  33.243  26.957   8.848
    7AU     LIG 3826  33.515  27.120   9.194
    7AU     LIG 3827  33.692  27.186   9.625
    7AU     LIG 3828  33.655  27.498   9.983
    7AU     LIG 3829  33.626  27.939  10.159
    7AU       S 3830  32.351  27.034   7.738
    7AU     LIG 3831  32.587  27.401   7.989
    7AU     LIG 3832  32.769  27.837   8.190
    7AU     LIG 3833  33.128  28.212   8.261
    7AU     LIG 3834  33.247  28.707   8.293
    7AU     LIG 3835  33.389  29.189   8.286
    7AU     LIG 3836  33.192  29.630   8.395
    7AU    AUSL 3837  32.013  25.470   7.864
    7AU    AUSL 3838  32.419  25.380   7.744
    7AU     AUL 3839  32.202  25.270   8.113
    7AU       S 3840  32.015  24.872   7.995
    7AU     LIG 3841  32.074  24.488   8.191
    7AU     LIG 3842  31.790  24.185   8.356
    7AU     LIG 3843  31.593  23.803   8.476
    7AU     LIG 3844  31.715  23.389   8.605
    7AU     LIG 3845  31.772  23.208   9.042
    7AU     LIG 3846  31.791  23.013   9.474
    7AU       S 3847  32.575  25.143   7.868
    7AU     LIG 3848  32.909  24.820   8.106
    7AU     LIG 3849  33.037  24.413   8.375
    7AU     LIG 3850  33.168  24.003   8.616
    7AU     LIG 3851  33.278  23.524   8.679
    7AU     LIG 3852  33.633  23.237   8.788
    7AU     LIG 3853  34.044  23.200   9.033
    7AU    AUSL 3854  31.725  25.274   7.638
    7AU    AUSL 3855  31.809  25.548   8.210
    7AU     AUL 3856  31.739  25.253   7.990
    7AU       S 3857  31.826  24.818   7.870
    7AU     LIG 3858  31.609  24.436   7.921
    7AU     LIG 3859  31.469  23.989   8.000
    7AU     LIG 3860  31.410  23.527   8.076
    7AU     LIG 3861  31.198  23.112   8.090
    7AU     LIG 3862  31.060  22.668   8.143
    7AU     LIG 3863  31.235  22.230   8.211
    7AU       S 3864  31.487  25.424   8.337
    7AU     LIG 3865  31.123  25.026   8.354
    7AU     LIG 3866  30.780  24.725   8.460
    7AU     LIG 3867  30.538  24.374   8.665
    7AU     LIG 3868  30.354  24.115   9.016
    7AU     LIG 3869  30.351  23.882   9.433
    7AU     LIG 3870  30.265  23.760   9.884
    7AU    AUSL 3871  32.119  25.138   7.628
    7AU    AUSL 3872  31.836  25.221   7.250
    7AU     AUL 3873  31.658  25.032   7.504
    7AU       S 3874  31.825  24.852   7.095
    7AU     LIG 3875  31.465  24.643   7.164
    7AU     LIG 3876  31.390  24.174   7.145
    7AU     LIG 3877  31.360  23.698   7.024
    7AU     LIG 3878  31.199  23.262   6.835
    7AU     LIG 3879  31.000  22.799   6.788
    7AU     LIG 3880  30.833  22.413   6.531
    7AU       S 3881  32.080  24.982   7.723
    7AU     LIG 3882  32.107  24.483   7.663
    7AU     LIG 3883  31.969  24.067   7.873
    7AU     LIG 3884  31.921  23.649   8.113
    7AU     LIG 3885  32.074  23.199   8.246
    7AU     LIG 3886  32.357  22.786   8.238
    7AU     LIG 3887  32.539  22.328   8.256
    7AU    AUSL 3888  32.064  26.677   6.956
    7AU    AUSL 3889  32.358  26.456   7.262
    7AU     AUL 3890  32.449  26.764   7.026
    7AU       S 3891  32.111  26.962   6.776
    7AU     LIG 3892  32.343  27.232   6.510
    7AU     LIG 3893  32.507  27.652   6.412
    7AU     LIG 3894  32.390  28.057   6.187
    7AU     LIG 3895  32.315  28.281   5.761
    7AU     LIG 3896  32.365  28.633   5.444
    7AU     LIG 3897  32.232  28.971   5.125
    7AU       S 3898  32.802  26.461   6.971
    7AU     LIG 3899  33.147  26.851   6.804
    7AU     LIG 3900  33.423  27.117   6.504
    7AU     LIG 3901  33.603  27.518   6.299
    7AU     LIG 3902  33.910  27.879   6.212
    7AU     LIG 3903  34.134  28.201   5.948
    7AU     LIG 3904  34.188  28.667   5.986
    7AU    AUSL 3905  31.956  26.645   7.349
    7AU    AUSL 3906  31.820  26.372   7.056
    7AU     AUL 3907  31.800  26.856   7.120
    7AU       S 3908  32.153  27.135   6.996
    7AU     LIG 3909  32.204  27.597   6.845
    7AU     LIG 3910  32.347  28.026   6.728
    7AU     LIG 3911  32.174  28.409   6.524
    7AU     LIG 3912  32.062  28.836   6.376
    7AU     LIG 3913  31.953  29.291   6.421
    7AU     LIG 3914  31.548  29.471   6.559
    7AU       S 3915  31.635  26.756   6.707
    7AU     LIG 3916  31.533  26.904   6.269
    7AU     LIG 3917  31.400  27.147   5.864
    7AU     LIG 3918  31.397  27.346   5.419
    7AU     LIG 3919  31.269  27.584   5.017
    7AU     LIG 3920  31.051  27.924   4.766
    7AU     LIG 3921  30.654  28.115   4.581
    7AU    AUSL 3922  32.145  25.330   6.982
    7AU    AUSL 3923  31.720  25.600   7.328
    7AU     AUL 3924  31.814  25.285   6.951
    7AU       S 3925  31.382  25.216   7.158
    7AU     LIG 3926  31.082  24.952   7.327
    7AU     LIG 3927  30.688  24.782   7.102
    7AU     LIG 3928  30.302  24.604   6.818
    7AU     LIG 3929  30.069  24.257   6.517
    7AU     LIG 3930  29.865  23.800   6.374
    7AU     LIG 3931  29.801  23.318   6.221
    7AU       S 3932  32.076  24.909   6.939
    7AU     LIG 3933  32.006  24.532   6.718
    7AU     LIG 3934  31.720  24.156   6.736
    7AU     LIG 3935  31.548  23.759   6.549
    7AU     LIG 3936  31.598  23.308   6.417
    7AU     LIG 3937  31.614  23.034   6.010
    7AU     LIG 3938  31.573  22.753   5.613
    7AU    AUSL 3939  32.146  25.452   7.395
    7AU    AUSL 3940  32.286  25.686   7.089
    7AU     AUL 3941  32.336  25.185   7.199
    7AU       S 3942  32.001  24.890   7.228
    7AU     LIG 3943  31.911  24.382   7.204
    7AU     LIG 3944  31.841  23.918   7.177
    7AU     LIG 3945  31.847  23.536   6.899
    7AU     LIG 3946  32.051  23.148   6.717
    7AU     LIG 3947  32.398  22.804   6.680
    7AU     LIG 3948  32.638  22.475   6.418
    7AU       S 3949  32.571  25.234   6.812
    7AU     LIG 3950  32.409  24.961   6.516
    7AU     LIG 3951  32.601  24.635   6.238
    7AU     LIG 3952  32.859  24.296   6.021
    7AU     LIG 3953  33.033  24.036   5.649
    7AU     LIG 3954  33.130  23.717   5.284
    7AU     LIG 3955  33.167  23.362   4.953
    8AU     AUC 3956  11.571   7.625   7.499
    8AU     AUC 3957  11.834   7.628   7.343
    8AU     AUC 3958  11.819   7.613   7.657
    8AU     AUC 3959  11.322   7.628   7.332
    8AU     AUC 3960  11.310   7.642   7.652
    8AU     AUC 3961  11.421   7.882   7.500
    8AU     AUC 3962  11.733   7.878   7.491
    8AU     AUC 3963  11.412   7.378   7.506
    8AU     AUC 3964  11.711   7.360   7.514
    8AU     AUC 3965  11.569   7.470   7.756
    8AU     AUC 3966  11.583   7.782   7.759
    8AU     AUC 3967  11.571   7.468   7.238
    8AU     AUC 3968  11.566   7.768   7.240
    8AU     AUC 3969  12.089   7.628   7.185
    8AU     AUC 3970  12.089   7.635   7.486
    8AU     AUC 3971  12.075   7.619   7.807
    8AU     AUC 3972  11.065   7.618   7.176
    8AU     AUC 3973  11.053   7.643   7.481
    8AU     AUC 3974  11.058   7.664   7.808
    8AU     AUC 3975  11.275   8.145   7.505
    8AU     AUC 3976  11.587   8.146   7.503
    8AU     AUC 3977  11.882   8.141   7.498
    8AU     AUC 3978  11.234   7.126   7.509
    8AU     AUC 3979  11.543   7.104   7.496
    8AU     AUC 3980  11.861   7.102   7.518
    8AU     AUC 3981  11.569   7.317   8.006
    8AU     AUC 3982  11.585   7.625   8.028
    8AU     AUC 3983  11.587   7.932   8.020
    8AU     AUC 3984  11.578   7.293   6.997
    8AU     AUC 3985  11.582   7.610   6.976
    8AU     AUC 3986  11.567   7.920   6.979
    8AU     AUC 3987  11.832   7.464   7.921
    8AU     AUC 3988  11.842   7.766   7.925
    8AU     AUC 3989  11.847   7.461   7.082
    8AU     AUC 3990  11.847   7.766   7.074
    8AU     AUC 3991  11.305   7.497   7.924
    8AU     AUC 3992  11.318   7.800   7.927
    8AU     AUC 3993  11.326   7.467   7.064
    8AU     AUC 3994  11.313   7.774   7.074
    8AU     AUC 3995  11.988   7.889   7.326
    8AU     AUC 3996  12.003   7.865   7.654
    8AU     AUC 3997  11.155   7.887   7.345
    8AU     AUC 3998  11.163   7.905   7.666
    8AU     AUC 3999  11.991   7.358   7.358
    8AU     AUC 4000  11.965   7.337   7.660
    8AU     AUC 4001  11.152   7.371   7.337
    8AU     AUC 4002  11.148   7.394   7.681
    8AU     AUC 4003  11.423   8.042   7.773
    8AU     AUC 4004  11.741   8.048   7.746
    8AU     AUC 4005  11.381   7.211   7.752
    8AU     AUC 4006  11.699   7.199   7.765
    8AU     AUC 4007  11.416   8.039   7.240
    8AU     AUC 4008  11.732   8.030   7.229
    8AU     AUC 4009  11.404   7.220   7.235
    8AU     AUC 4010  11.734   7.206   7.255
    8AU    AUSL 4011  12.090   7.504   8.192
    8AU    AUSL 4012  11.849   7.140   8.113
    8AU     AUL 4013  12.005   7.069   8.472
    8AU       S 4014  12.208   6.857   8.090
    8AU     LIG 4015  11.998   6.546   8.368
    8AU     LIG 4016  12.076   6.113   8.504
    8AU     LIG 4017  12.337   5.858   8.772
    8AU     LIG 4018  12.625   5.612   9.043
    8AU     LIG 4019  12.689   5.427   9.465
    8AU     LIG 4020  12.668   5.313   9.931
    8AU       S 4021  12.151   7.444   8.282
    8AU     LIG 4022  12.154   7.432   8.783
    8AU     LIG 4023  12.396   7.300   9.199
    8AU     LIG 4024  12.741   7.276   9.561
    8AU     LIG 4025  13.132   7.348   9.867
    8AU     LIG 4026  13.485   7.377  10.208
    8AU     LIG 4027  13.699   7.471  10.626
    8AU    AUSL 4028  11.689   7.459   8.318
    8AU    AUSL 4029  11.490   7.821   8.278
    8AU     AUL 4030  11.638   7.786   8.695
    8AU       S 4031  11.736   7.428   8.461
    8AU     LIG 4032  11.674   7.270   8.865
    8AU     LIG 4033  11.924   7.068   9.213
    8AU     LIG 4034  12.098   6.889   9.633
    8AU     LIG 4035  12.139   6.735  10.094
    8AU     LIG 4036  12.351   6.611  10.501
    8AU     LIG 4037  12.426   6.445  10.933
    8AU       S 4038  11.260   7.547   8.631
    8AU     LIG 4039  11.160   7.444   9.085
    8AU     LIG 4040  10.948   7.374   9.503
    8AU     LIG 4041  10.868   7.360   9.967
    8AU     LIG 4042  10.953   7.652  10.355
    8AU     LIG 4043  10.825   7.944  10.721
    8AU     LIG 4044  10.517   8.154  11.030
    8AU    AUSL 4045  11.890   7.860   8.281
    8AU    AUSL 4046  12.209   7.838   7.986
    8AU     AUL 4047  12.315   7.786   8.479
    8AU       S 4048  11.917   7.948   8.382
    8AU     LIG 4049  12.069   8.113   8.789
    8AU     LIG 4050  12.149   8.256   9.267
    8AU     LIG 4051  12.195   8.422   9.743
    8AU     LIG 4052  12.254   8.479  10.231
    8AU     LIG 4053  12.458   8.396  10.671
    8AU     LIG 4054  12.488   8.499  11.149
    8AU       S 4055  12.447   7.862   8.032
    8AU     LIG 4056  12.794   7.874   8.315
    8AU     LIG 4057  13.019   8.088   8.671
    8AU     LIG 4058  13.285   8.345   8.970
    8AU     LIG 4059  13.566   8.468   9.344
    8AU     LIG 4060  13.915   8.493   9.685
    8AU     LIG 4061  14.280   8.643   9.958
    8AU    AUSL 4062  12.105   7.651   6.864
    8AU    AUSL 4063  11.877   8.050   6.829
    8AU     AUL 4064  12.233   7.998   6.454
    8AU       S 4065  12.162   7.674   6.723
    8AU     LIG 4066  12.429   7.555   6.340
    8AU     LIG 4067  12.450   7.397   5.900
    8AU     LIG 4068  12.573   7.293   5.444
    8AU     LIG 4069  12.978   7.242   5.154
    8AU     LIG 4070  13.408   7.232   4.899
    8AU     LIG 4071  13.682   7.249   4.496
    8AU       S 4072  11.877   8.113   6.670
    8AU     LIG 4073  12.156   8.478   6.586
    8AU     LIG 4074  12.514   8.487   6.277
    8AU     LIG 4075  12.825   8.650   5.930
    8AU     LIG 4076  12.994   8.805   5.479
    8AU     LIG 4077  13.098   9.102   5.083
    8AU     LIG 4078  13.211   9.419   4.724
    8AU    AUSL 4079  11.837   7.349   6.699
    8AU    AUSL 4080  12.215   7.292   7.018
    8AU     AUL 4081  12.185   7.249   6.648
    8AU       S 4082  12.360   6.879   6.880
    8AU     LIG 4083  12.448   6.603   6.515
    8AU     LIG 4084  12.557   6.211   6.281
    8AU     LIG 4085  12.784   5.913   5.989
    8AU     LIG 4086  13.155   5.873   5.675
    8AU     LIG 4087  13.595   5.897   5.469
    8AU     LIG 4088  13.893   5.923   5.091
    8AU       S 4089  11.933   7.596   6.435
    8AU     LIG 4090  12.000   7.241   6.166
    8AU     LIG 4091  12.111   7.039   5.747
    8AU     LIG 4092  12.151   7.014   5.271
    8AU     LIG 4093  12.093   6.904   4.794
    8AU     LIG 4094  12.157   6.635   4.383
    8AU     LIG 4095  12.452   6.510   4.019
    8AU    AUSL 4096  11.699   7.694   6.887
    8AU    AUSL 4097  11.437   7.452   6.675
    8AU     AUL 4098  11.639   7.252   6.541
    8AU       S 4099  11.174   7.564   6.361
    8AU     LIG 4100  11.255   7.167   6.125
    8AU     LIG 4101  11.109   6.949   5.707
    8AU     LIG 4102  10.867   6.846   5.290
    8AU     LIG 4103  10.803   6.549   4.887
    8AU     LIG 4104  10.688   6.367   4.456
    8AU     LIG 4105  10.559   6.524   4.024
    8AU       S 4106  11.832   7.685   6.494
    8AU     LIG 4107  12.046   7.726   5.991
    8AU     LIG 4108  12.087   7.516   5.549
    8AU     LIG 4109  12.179   7.491   5.081
    8AU     LIG 4110  12.220   7.619   4.630
    8AU     LIG 4111  12.384   7.884   4.271
    8AU     LIG 4112  12.673   8.108   3.966
    8AU    AUSL 4113  11.113   7.691   8.215
    8AU    AUSL 4114  11.241   8.102   8.134
    8AU     AUL 4115  11.318   8.018   8.452
    8AU       S 4116  11.048   7.681   8.637
    8AU     LIG 4117  10.795   7.312   8.728
    8AU     LIG 4118  10.625   7.168   9.158
    8AU     LIG 4119  10.462   7.181   9.627
    8AU     LIG 4120  10.152   7.117   9.997
    8AU     LIG 4121   9.914   7.203  10.409
    8AU     LIG 4122   9.561   7.229  10.733
    8AU       S 4123  10.859   8.064   8.358
    8AU     LIG 4124  10.910   8.248   8.769
    8AU     LIG 4125  10.830   8.568   9.106
    8AU     LIG 4126  10.612   8.894   9.363
    8AU     LIG 4127  10.536   9.179   9.743
    8AU     LIG 4128  10.353   9.346  10.166
    8AU     LIG 4129  10.085   9.512  10.538
    8AU    AUSL 4130  11.407   7.485   8.031
    8AU    AUSL 4131  10.864   7.465   7.984
    8AU     AUL 4132  10.976   7.465   8.237
    8AU       S 4133  10.692   7.105   8.244
    8AU     LIG 4134  10.315   6.895   8.105
    8AU     LIG 4135   9.948   6.621   8.226
    8AU     LIG 4136   9.722   6.299   8.511
    8AU     LIG 4137   9.563   5.930   8.787
    8AU     LIG 4138   9.372   5.753   9.168
    8AU     LIG 4139   9.010   5.846   9.465
    8AU       S 4140  11.283   7.415   8.574
    8AU     LIG 4141  11.221   7.029   8.794
    8AU     LIG 4142  11.081   6.938   9.238
    8AU     LIG 4143  10.879   6.886   9.674
    8AU     LIG 4144  10.606   6.829  10.060
    8AU     LIG 4145  10.551   6.647  10.506
    8AU     LIG 4146  10.528   6.708  10.975
    8AU    AUSL 4147  11.146   7.598   6.913
    8AU    AUSL 4148  11.331   7.156   6.928
    8AU     AUL 4149  11.183   7.205   6.647
    8AU       S 4150  10.873   7.520   6.582
    8AU     LIG 4151  10.767   7.293   6.192
    8AU     LIG 4152  10.720   7.278   5.711
    8AU     LIG 4153  10.433   7.174   5.337
    8AU     LIG 4154   9.994   7.171   5.096
    8AU     LIG 4155   9.697   7.231   4.711
    8AU     LIG 4156   9.485   7.311   4.291
    8AU       S 4157  10.887   6.858   6.813
    8AU     LIG 4158  10.598   6.501   6.783
    8AU     LIG 4159  10.257   6.288   6.532
    8AU     LIG 4160   9.991   6.030   6.211
    8AU     LIG 4161   9.789   5.839   5.798
    8AU     LIG 4162   9.814   5.687   5.317
    8AU     LIG 4163   9.964   5.387   4.956
    8AU    AUSL 4164  11.409   7.883   6.678
    8AU    AUSL 4165  10.931   7.939   6.963
    8AU     AUL 4166  11.063   7.911   6.671
    8AU       S 4167  10.771   8.248   6.781
    8AU     LIG 4168  10.625   8.184   6.360
    8AU     LIG 4169  10.476   8.451   5.993
    8AU     LIG 4170  10.240   8.614   5.611
    8AU     LIG 4171   9.910   8.700   5.265
    8AU     LIG 4172   9.466   8.833   5.145
    8AU     LIG 4173   8.990   8.897   5.132
    8AU       S 4174  11.359   7.638   6.462
    8AU     LIG 4175  11.555   7.563   6.041
    8AU     LIG 4176  11.256   7.445   5.658
    8AU     LIG 4177  11.007   7.405   5.228
    8AU     LIG 4178  10.918   7.608   4.770
    8AU     LIG 4179  10.747   7.870   4.375
    8AU     LIG 4180  10.583   8.198   4.042
    8AU    AUSL 4181  12.201   8.220   7.427
    8AU    AUSL 4182  12.213   7.980   7.079
    8AU     AUL 4183  12.356   8.441   7.228
    8AU       S 4184  12.351   8.094   6.890
    8AU     LIG 4185  12.704   7.977   6.625
    8AU     LIG 4186  12.940   8.181   6.253
    8AU     LIG 4187  13.276   8.405   5.974
    8AU     LIG 4188  13.585   8.431   5.588
    8AU     LIG 4189  13.979   8.564   5.326
    8AU     LIG 4190  14.377   8.665   5.070
    8AU       S 4191  12.654   8.109   7.374
    8AU     LIG 4192  13.125   8.189   7.529
    8AU     LIG 4193  13.628   8.294   7.537
    8AU     LIG 4194  14.126   8.404   7.535
    8AU     LIG 4195  14.600   8.598   7.558
    8AU     LIG 4196  14.922   9.010   7.589
    8AU     LIG 4197  15.085   9.445   7.800
    8AU    AUSL 4198  12.418   7.685   7.268
    8AU    AUSL 4199  12.397   7.512   7.698
    8AU     AUL 4200  12.690   7.456   7.476
    8AU       S 4201  12.603   7.890   7.326
    8AU     LIG 4202  13.029   7.768   7.251
    8AU     LIG 4203  13.488   7.862   7.283
    8AU     LIG 4204  13.953   7.977   7.267
    8AU     LIG 4205  14.423   8.066   7.269
    8AU     LIG 4206  14.833   8.174   7.073
    8AU     LIG 4207  15.292   8.203   7.002
    8AU       S 4208  12.703   7.043   7.722
    8AU     LIG 4209  13.106   6.799   7.726
    8AU     LIG 4210  13.525   6.546   7.734
    8AU     LIG 4211  13.959   6.310   7.737
    8AU     LIG 4212  14.449   6.242   7.772
    8AU     LIG 4213  14.933   6.307   7.841
    8AU     LIG 4214  15.414   6.429   7.866
    8AU    AUSL 4215  12.190   7.841   7.581
    8AU    AUSL 4216  12.089   8.198   7.819
    8AU     AUL 4217  12.335   8.222   7.699
    8AU       S 4218  12.306   7.997   8.073
    8AU     LIG 4219  12.756   8.257   7.988
    8AU     LIG 4220  12.979   8.490   8.348
    8AU     LIG 4221  13.210   8.774   8.674
    8AU     LIG 4222  13.489   9.129   8.866
    8AU     LIG 4223  13.810   9.514   8.907
    8AU     LIG 4224  14.162   9.867   8.961
    8AU       S 4225  12.652   7.916   7.601
    8AU     LIG 4226  12.990   7.780   7.814
    8AU     LIG 4227  13.473   7.870   7.801
    8AU     LIG 4228  13.965   7.968   7.782
    8AU     LIG 4229  14.455   8.079   7.786
    8AU     LIG 4230  14.924   8.029   7.920
    8AU     LIG 4231  15.342   8.114   8.118
    8AU    AUSL 4232  10.916   8.169   7.578
    8AU    AUSL 4233  10.958   7.909   7.910
    8AU     AUL 4234  10.913   8.361   7.843
    8AU       S 4235  10.741   7.980   8.104
    8AU     LIG 4236  10.414   8.240   8.410
    8AU     LIG 4237  10.402   8.395   8.868
    8AU     LIG 4238  10.241   8.515   9.315
    8AU     LIG 4239   9.888   8.550   9.664
    8AU     LIG 4240   9.492   8.697   9.912
    8AU     LIG 4241   9.063   8.867  10.067
    8AU       S 4242  10.528   8.188   7.669
    8AU     LIG 4243  10.582   8.589   7.479
    8AU     LIG 4244  10.263   8.952   7.450
    8AU     LIG 4245   9.867   9.228   7.532
    8AU     LIG 4246   9.474   9.498   7.626
    8AU     LIG 4247   9.109   9.765   7.781
    8AU     LIG 4248   8.719   9.961   7.949
    8AU    AUSL 4249  10.988   7.840   7.346
    8AU    AUSL 4250  11.086   8.261   7.214
    8AU     AUL 4251  10.794   8.175   7.248
    8AU       S 4252  10.404   8.093   7.491
    8AU     LIG 4253   9.999   8.098   7.208
    8AU     LIG 4254   9.571   8.173   6.933
    8AU     LIG 4255   9.131   8.262   6.721
    8AU     LIG 4256   8.833   8.633   6.669
    8AU     LIG 4257   8.400   8.812   6.548
    8AU     LIG 4258   7.991   9.107   6.563
    8AU       S 4259  10.910   8.463   6.882
    8AU     LIG 4260  10.798   8.660   6.453
    8AU     LIG 4261  10.669   8.926   6.085
    8AU     LIG 4262  10.464   9.254   5.821
    8AU     LIG 4263  10.136   9.608   5.784
    8AU     LIG 4264   9.772   9.926   5.861
    8AU     LIG 4265   9.506  10.319   5.937
    8AU    AUSL 4266  10.710   7.759   7.639
    8AU    AUSL 4267  10.762   7.505   7.299
    8AU     AUL 4268  10.597   7.766   7.236
    8AU       S 4269  10.429   7.318   7.431
    8AU     LIG 4270  10.118   7.272   7.793
    8AU     LIG 4271   9.635   7.256   7.781
    8AU     LIG 4272   9.162   7.302   7.671
    8AU     LIG 4273   8.800   7.402   7.342
    8AU     LIG 4274   8.460   7.106   7.133
    8AU     LIG 4275   8.008   6.958   7.001
    8AU       S 4276  10.520   7.793   7.716
    8AU     LIG 4277  10.198   7.985   7.999
    8AU     LIG 4278   9.760   8.201   8.105
    8AU     LIG 4279   9.377   8.471   8.250
    8AU     LIG 4280   8.901   8.410   8.316
    8AU     LIG 4281   8.406   8.390   8.360
    8AU     LIG 4282   8.032   8.660   8.553
    8AU    AUSL 4283  12.268   7.140   7.564
    8AU    AUSL 4284  12.030   7.383   7.820
    8AU     AUL 4285  12.453   7.374   7.921
    8AU       S 4286  12.438   6.893   7.571
    8AU     LIG 4287  12.656   6.530   7.668
    8AU     LIG 4288  13.059   6.293   7.617
    8AU     LIG 4289  13.469   6.093   7.494
    8AU     LIG 4290  13.897   5.909   7.407
    8AU     LIG 4291  14.289   5.650   7.486
    8AU     LIG 4292  14.560   5.487   7.838
    8AU       S 4293  12.239   7.010   8.077
    8AU     LIG 4294  12.465   6.770   8.479
    8AU     LIG 4295  12.540   6.329   8.607
    8AU     LIG 4296  12.838   5.995   8.764
    8AU     LIG 4297  13.126   5.760   9.065
    8AU     LIG 4298  13.531   5.746   9.320
    8AU     LIG 4299  13.941   5.706   9.561
    8AU    AUSL 4300  12.108   7.459   7.373
    8AU    AUSL 4301  12.047   6.986   7.257
    8AU     AUL 4302  12.400   7.213   7.207
    8AU       S 4303  12.420   7.029   7.614
    8AU     LIG 4304  12.824   6.850   7.279
    8AU     LIG 4305  13.288   6.610   7.271
    8AU     LIG 4306  13.776   6.440   7.271
    8AU     LIG 4307  14.256   6.265   7.290
    8AU     LIG 4308  14.748   6.244   7.192
    8AU     LIG 4309  15.152   6.329   6.951
    8AU       S 4310  12.313   6.752   7.090
    8AU     LIG 4311  12.163   6.330   6.849
    8AU     LIG 4312  12.300   5.901   6.614
    8AU     LIG 4313  12.563   5.552   6.370
    8AU     LIG 4314  12.814   5.126   6.294
    8AU     LIG 4315  13.248   4.878   6.242
    8AU     LIG 4316  13.658   4.800   5.976
    8AU    AUSL 4317  10.876   7.135   7.486
    8AU    AUSL 4318  10.955   7.266   7.043
    8AU     AUL 4319  10.674   7.331   7.027
    8AU       S 4320  10.869   6.918   7.047
    8AU     LIG 4321  10.374   6.911   7.000
    8AU     LIG 4322   9.995   6.716   6.760
    8AU     LIG 4323   9.787   6.472   6.407
    8AU     LIG 4324   9.497   6.181   6.194
    8AU     LIG 4325   9.181   6.118   5.871
    8AU     LIG 4326   9.194   5.947   5.436
    8AU       S 4327  10.579   7.098   7.415
    8AU     LIG 4328  10.225   6.845   7.528
    8AU     LIG 4329   9.762   6.807   7.550
    8AU     LIG 4330   9.328   6.813   7.736
    8AU     LIG 4331   8.922   6.554   7.750
    8AU     LIG 4332   8.455   6.466   7.675
    8AU     LIG 4333   8.038   6.250   7.606
    8AU    AUSL 4334  11.023   7.504   7.620
    8AU    AUSL 4335  11.101   7.158   7.854
    8AU     AUL 4336  10.734   7.271   7.806
    8AU       S 4337  10.853   6.978   8.136
    8AU     LIG 4338  10.693   6.747   7.786
    8AU     LIG 4339  10.298   6.440   7.861
    8AU     LIG 4340   9.993   6.114   8.102
    8AU     LIG 4341   9.681   5.803   8.313
    8AU     LIG 4342   9.408   5.462   8.565
    8AU     LIG 4343   9.256   5.066   8.805
    8AU       S 4344  10.469   7.380   7.456
    8AU     LIG 4345   9.971   7.238   7.300
    8AU     LIG 4346   9.497   7.167   7.284
    8AU     LIG 4347   9.082   6.961   7.308
    8AU     LIG 4348   8.708   6.986   7.612
    8AU     LIG 4349   8.329   6.944   7.873
    8AU     LIG 4350   7.902   7.093   7.808
    8AU    AUSL 4351  11.597   8.279   8.043
    8AU    AUSL 4352  11.285   8.085   7.732
    8AU     AUL 4353  11.302   8.390   8.110
    8AU       S 4354  10.920   8.189   8.265
    8AU     LIG 4355  10.811   8.589   8.378
    8AU     LIG 4356  10.618   8.846   8.724
    8AU     LIG 4357  10.414   9.190   8.982
    8AU     LIG 4358  10.118   9.553   9.101
    8AU     LIG 4359   9.709   9.804   9.173
    8AU     LIG 4360   9.346  10.120   9.271
    8AU       S 4361  11.663   8.682   8.001
    8AU     LIG 4362  11.903   8.825   8.336
    8AU     LIG 4363  11.866   9.251   8.557
    8AU     LIG 4364  11.901   9.698   8.705
    8AU     LIG 4365  11.903   9.968   9.094
    8AU     LIG 4366  11.883  10.317   9.417
    8AU     LIG 4367  11.688  10.579   9.772
    8AU    AUSL 4368  11.346   8.473   7.669
    8AU    AUSL 4369  11.809   8.460   7.289
    8AU     AUL 4370  11.459   8.718   7.452
    8AU       S 4371  11.513   8.767   7.904
    8AU     LIG 4372  11.658   9.187   8.073
    8AU     LIG 4373  11.758   9.614   8.192
    8AU     LIG 4374  11.552   9.983   8.331
    8AU     LIG 4375  11.316  10.388   8.365
    8AU     LIG 4376  11.115  10.828   8.335
    8AU     LIG 4377  11.239  11.292   8.324
    8AU       S 4378  11.872   8.763   7.233
    8AU     LIG 4379  12.182   8.879   6.952
    8AU     LIG 4380  12.218   9.327   6.762
    8AU     LIG 4381  12.206   9.804   6.576
    8AU     LIG 4382  12.352  10.303   6.564
    8AU     LIG 4383  12.542  10.786   6.529
    8AU     LIG 4384  12.639  11.281   6.492
    8AU    AUSL 4385  11.742   8.323   7.664
    8AU    AUSL 4386  11.781   7.947   7.910
    8AU     AUL 4387  11.917   8.308   8.074
    8AU       S 4388  12.330   8.139   8.195
    8AU     LIG 4389  12.536   8.263   8.552
    8AU     LIG 4390  12.789   8.518   8.854
    8AU     LIG 4391  13.047   8.754   9.176
    8AU     LIG 4392  13.139   9.000   9.565
    8AU     LIG 4393  13.128   9.352   9.890
    8AU     LIG 4394  13.288   9.753  10.087
    8AU       S 4395  11.821   8.622   7.741
    8AU     LIG 4396  12.078   8.958   7.861
    8AU     LIG 4397  12.176   9.320   8.149
    8AU     LIG 4398  12.241   9.779   8.308
    8AU     LIG 4399  12.413  10.244   8.310
    8AU     LIG 4400  12.538  10.719   8.241
    8AU     LIG 4401  12.539  11.173   8.387
    8AU    AUSL 4402  11.535   7.062   7.862
    8AU    AUSL 4403  11.941   6.981   7.740
    8AU     AUL 4404  11.725   6.869   8.114
    8AU       S 4405  11.547   6.470   7.990
    8AU     LIG 4406  11.673   6.120   8.191
    8AU     LIG 4407  11.472   5.741   8.346
    8AU     LIG 4408  11.311   5.312   8.426
    8AU     LIG 4409  11.372   4.949   8.686
    8AU     LIG 4410  11.269   4.773   9.101
    8AU     LIG 4411  11.255   4.502   9.483
    8AU       S 4412  12.095   6.748   7.862
    8AU     LIG 4413  12.366   6.374   8.076
    8AU     LIG 4414  12.501   5.942   8.267
    8AU     LIG 4415  12.683   5.571   8.512
    8AU     LIG 4416  13.000   5.325   8.789
    8AU     LIG 4417  13.388   5.010   8.875
    8AU     LIG 4418  13.794   4.848   9.101
    8AU    AUSL 4419  11.251   6.864   7.632
    8AU    AUSL 4420  11.326   7.138   8.206
    8AU     AUL 4421  11.263   6.842   7.984
    8AU       S 4422  11.361   6.406   7.865
    8AU     LIG 4423  11.245   5.974   7.915
    8AU     LIG 4424  11.213   5.499   7.950
    8AU     LIG 4425  10.931   5.118   8.081
    8AU     LIG 4426  10.630   4.716   8.034
    8AU     LIG 4427  10.574   4.223   7.995
    8AU     LIG 4428  10.729   3.792   8.176
    8AU       S 4429  11.014   7.015   8.332
    8AU     LIG 4430  10.675   6.638   8.441
    8AU     LIG 4431  10.314   6.324   8.446
    8AU     LIG 4432  10.075   5.962   8.662
    8AU     LIG 4433   9.936   5.770   9.092
    8AU     LIG 4434   9.757   5.572   9.483
    8AU     LIG 4435   9.798   5.385   9.913
    8AU    AUSL 4436  11.647   6.734   7.620
    8AU    AUSL 4437  11.360   6.819   7.243
    8AU     AUL 4438  11.198   6.616   7.492
    8AU       S 4439  11.333   6.438   7.062
    8AU     LIG 4440  11.057   6.070   7.094
    8AU     LIG 4441  10.947   5.593   7.052
    8AU     LIG 4442  10.589   5.229   7.053
    8AU     LIG 4443  10.312   4.824   6.969
    8AU     LIG 4444  10.337   4.379   6.796
    8AU     LIG 4445  10.696   4.236   6.504
    8AU       S 4446  11.614   6.586   7.720
    8AU     LIG 4447  11.710   6.135   7.648
    8AU     LIG 4448  11.690   5.729   7.861
    8AU     LIG 4449  11.712   5.354   8.115
    8AU     LIG 4450  11.629   4.936   8.223
    8AU     LIG 4451  11.918   4.577   8.224
    8AU     LIG 4452  12.106   4.142   8.256
    8AU    AUSL 4453  11.572   8.283   6.966
    8AU    AUSL 4454  11.867   8.061   7.263
    8AU     AUL 4455  11.955   8.366   7.021
    8AU       S 4456  11.632   8.631   6.825
    8AU     LIG 4457  11.852   8.932   6.572
    8AU     LIG 4458  11.859   9.361   6.405
    8AU     LIG 4459  11.943   9.679   6.072
    8AU     LIG 4460  11.919   9.923   5.663
    8AU     LIG 4461  11.964  10.252   5.333
    8AU     LIG 4462  11.811  10.643   5.130
    8AU       S 4463  12.309   8.066   6.968
    8AU     LIG 4464  12.638   8.464   6.787
    8AU     LIG 4465  12.967   8.651   6.463
    8AU     LIG 4466  13.288   8.905   6.204
    8AU     LIG 4467  13.588   9.307   6.170
    8AU     LIG 4468  13.798   9.752   6.108
    8AU     LIG 4469  14.161  10.055   6.032
    8AU    AUSL 4470  11.463   8.242   7.358
    8AU    AUSL 4471  11.333   7.972   7.061
    8AU     AUL 4472  11.310   8.449   7.118
    8AU       S 4473  11.682   8.740   7.058
    8AU     LIG 4474  11.736   9.203   6.997
    8AU     LIG 4475  11.803   9.636   6.844
    8AU     LIG 4476  11.586  10.019   6.720
    8AU     LIG 4477  11.325  10.421   6.710
    8AU     LIG 4478  11.174  10.756   6.422
    8AU     LIG 4479  11.097  11.214   6.272
    8AU       S 4480  11.147   8.349   6.709
    8AU     LIG 4481  11.115   8.294   6.264
    8AU     LIG 4482  10.964   8.555   5.877
    8AU     LIG 4483  10.706   8.844   5.559
    8AU     LIG 4484  10.596   9.059   5.121
    8AU     LIG 4485  10.338   9.298   4.779
    8AU     LIG 4486  10.085   9.602   4.503
    8AU    AUSL 4487  11.668   6.933   6.975
    8AU    AUSL 4488  11.241   7.195   7.327
    8AU     AUL 4489  11.326   6.884   6.951
    8AU       S 4490  10.900   6.801   7.162
    8AU     LIG 4491  10.559   6.536   7.296
    8AU     LIG 4492  10.167   6.341   7.059
    8AU     LIG 4493   9.836   6.093   6.751
    8AU     LIG 4494   9.639   5.729   6.461
    8AU     LIG 4495   9.448   5.282   6.309
    8AU     LIG 4496   9.222   4.859   6.130
    8AU       S 4497  11.612   6.530   6.911
    8AU     LIG 4498  11.662   6.147   6.699
    8AU     LIG 4499  11.389   5.755   6.741
    8AU     LIG 4500  11.348   5.334   6.523
    8AU     LIG 4501  11.447   4.981   6.218
    8AU     LIG 4502  11.321   4.670   5.861
    8AU     LIG 4503  11.462   4.396   5.487
    8AU    AUSL 4504  11.667   7.051   7.389
    8AU    AUSL 4505  11.807   7.289   7.086
    8AU     AUL 4506  11.866   6.788   7.196
    8AU       S 4507  11.532   6.495   7.200
    8AU     LIG 4508  11.566   6.014   7.180
    8AU     LIG 4509  11.452   5.580   7.232
    8AU     LIG 4510  11.403   5.189   7.006
    8AU     LIG 4511  11.712   4.940   6.733
    8AU     LIG 4512  12.098   4.625   6.708
    8AU     LIG 4513  12.478   4.300   6.722
    8AU       S 4514  12.096   6.838   6.807
    8AU     LIG 4515  11.921   6.619   6.489
    8AU     LIG 4516  12.028   6.207   6.302
    8AU     LIG 4517  12.246   5.841   6.083
    8AU     LIG 4518  12.484   5.516   5.830
    8AU     LIG 4519  12.694   5.407   5.412
    8AU     LIG 4520  12.812   5.187   5.003
    9AU     AUC 4521  23.172   5.196   7.507
    9AU     AUC 4522  23.433   5.198   7.349
    9AU     AUC 4523  23.421   5.184   7.662
    9AU     AUC 4524  22.922   5.200   7.344
    9AU     AUC 4525  22.913   5.214   7.662
    9AU     AUC 4526  23.023   5.453   7.506
    9AU     AUC 4527  23.334   5.449   7.495
    9AU     AUC 4528  23.014   4.947   7.514
    9AU     AUC 4529  23.311   4.929   7.524
    9AU     AUC 4530  23.172   5.041   7.764
    9AU     AUC 4531  23.187   5.353   7.765
    9AU     AUC 4532  23.171   5.036   7.246
    9AU     AUC 4533  23.165   5.337   7.247
    9AU     AUC 4534  23.686   5.193   7.190
    9AU     AUC 4535  23.690   5.205   7.488
    9AU     AUC 4536  23.678   5.192   7.809
    9AU     AUC 4537  22.662   5.189   7.192
    9AU     AUC 4538  22.654   5.216   7.496
    9AU     AUC 4539  22.663   5.237   7.822
    9AU     AUC 4540  22.879   5.719   7.510
    9AU     AUC 4541  23.188   5.717   7.503
    9AU     AUC 4542  23.481   5.711   7.498
    9AU     AUC 4543  22.830   4.697   7.518
    9AU     AUC 4544  23.142   4.674   7.504
    9AU     AUC 4545  23.462   4.671   7.524
    9AU     AUC 4546  23.173   4.889   8.014
    9AU     AUC 4547  23.191   5.197   8.035
    9AU     AUC 4548  23.194   5.506   8.025
    9AU     AUC 4549  23.175   4.863   7.009
    9AU     AUC 4550  23.183   5.177   6.984
    9AU     AUC 4551  23.163   5.485   6.983
    9AU     AUC 4552  23.437   5.037   7.926
    9AU     AUC 4553  23.447   5.339   7.928
    9AU     AUC 4554  23.445   5.027   7.089
    9AU     AUC 4555  23.446   5.332   7.079
    9AU     AUC 4556  22.910   5.069   7.934
    9AU     AUC 4557  22.924   5.374   7.936
    9AU     AUC 4558  22.925   5.035   7.075
    9AU     AUC 4559  22.912   5.342   7.084
    9AU     AUC 4560  23.588   5.459   7.329
    9AU     AUC 4561  23.605   5.435   7.656
    9AU     AUC 4562  22.754   5.456   7.356
    9AU     AUC 4563  22.766   5.478   7.677
    9AU     AUC 4564  23.588   4.925   7.363
    9AU     AUC 4565  23.568   4.908   7.664
    9AU     AUC 4566  22.748   4.944   7.349
    9AU     AUC 4567  22.751   4.964   7.693
    9AU     AUC 4568  23.028   5.616   7.778
    9AU     AUC 4569  23.345   5.620   7.748
    9AU     AUC 4570  22.984   4.783   7.758
    9AU     AUC 4571  23.303   4.770   7.771
    9AU     AUC 4572  23.013   5.609   7.245
    9AU     AUC 4573  23.330   5.597   7.230
    9AU     AUC 4574  22.999   4.790   7.242
    9AU     AUC 4575  23.329   4.771   7.265
    9AU    AUSL 4576  23.698   5.076   8.195
    9AU    AUSL 4577  23.456   4.712   8.117
    9AU     AUL 4578  23.617   4.641   8.474
    9AU       S 4579  23.816   4.428   8.090
    9AU     LIG 4580  23.602   4.123   8.376
    9AU     LIG 4581  23.628   3.732   8.590
    9AU     LIG 4582  23.879   3.482   8.872
    9AU     LIG 4583  24.159   3.223   9.145
    9AU     LIG 4584  24.198   3.008   9.565
    9AU     LIG 4585  24.300   2.882  10.021
    9AU       S 4586  23.760   5.016   8.283
    9AU     LIG 4587  23.759   5.007   8.780
    9AU     LIG 4588  23.990   4.828   9.172
    9AU     LIG 4589  24.306   4.735   9.534
    9AU     LIG 4590  24.688   4.744   9.842
    9AU     LIG 4591  24.991   4.770  10.217
    9AU     LIG 4592  25.193   4.778  10.644
    9AU    AUSL 4593  23.298   5.032   8.323
    9AU    AUSL 4594  23.099   5.394   8.288
    9AU     AUL 4595  23.252   5.358   8.700
    9AU       S 4596  23.345   4.999   8.466
    9AU     LIG 4597  23.287   4.821   8.867
    9AU     LIG 4598  23.524   4.597   9.226
    9AU     LIG 4599  23.715   4.386   9.634
    9AU     LIG 4600  23.760   4.166  10.080
    9AU     LIG 4601  23.859   4.094  10.552
    9AU     LIG 4602  24.068   4.163  10.977
    9AU       S 4603  22.867   5.128   8.645
    9AU     LIG 4604  22.743   5.018   9.093
    9AU     LIG 4605  22.541   4.942   9.517
    9AU     LIG 4606  22.413   4.998   9.972
    9AU     LIG 4607  22.509   5.292  10.367
    9AU     LIG 4608  22.434   5.585  10.754
    9AU     LIG 4609  22.206   5.717  11.168
    9AU    AUSL 4610  23.498   5.433   8.283
    9AU    AUSL 4611  23.814   5.409   7.985
    9AU     AUL 4612  23.925   5.359   8.478
    9AU       S 4613  23.526   5.521   8.382
    9AU     LIG 4614  23.665   5.706   8.759
    9AU     LIG 4615  23.703   5.835   9.227
    9AU     LIG 4616  23.684   5.975   9.696
    9AU     LIG 4617  23.810   5.976  10.164
    9AU     LIG 4618  24.057   6.050  10.572
    9AU     LIG 4619  24.091   6.051  11.050
    9AU       S 4620  24.055   5.435   8.030
    9AU     LIG 4621  24.406   5.464   8.324
    9AU     LIG 4622  24.639   5.694   8.681
    9AU     LIG 4623  24.937   5.950   8.968
    9AU     LIG 4624  25.230   6.160   9.308
    9AU     LIG 4625  25.632   6.151   9.617
    9AU     LIG 4626  26.004   6.324   9.884
    9AU    AUSL 4627  23.709   5.215   6.875
    9AU    AUSL 4628  23.478   5.613   6.830
    9AU     AUL 4629  23.826   5.550   6.451
    9AU       S 4630  23.772   5.234   6.734
    9AU     LIG 4631  24.037   5.116   6.362
    9AU     LIG 4632  24.073   4.945   5.945
    9AU     LIG 4633  24.219   4.808   5.513
    9AU     LIG 4634  24.452   4.764   5.090
    9AU     LIG 4635  24.905   4.735   4.872
    9AU     LIG 4636  25.330   4.734   4.618
    9AU       S 4637  23.475   5.669   6.673
    9AU     LIG 4638  23.752   6.032   6.581
    9AU     LIG 4639  24.110   6.028   6.281
    9AU     LIG 4640  24.410   6.214   5.937
    9AU     LIG 4641  24.600   6.474   5.562
    9AU     LIG 4642  24.770   6.732   5.167
    9AU     LIG 4643  24.857   7.109   4.868
    9AU    AUSL 4644  23.444   4.908   6.716
    9AU    AUSL 4645  23.801   4.849   7.025
    9AU     AUL 4646  23.798   4.807   6.665
    9AU       S 4647  23.942   4.422   6.896
    9AU     LIG 4648  24.050   4.057   6.605
    9AU     LIG 4649  24.217   3.726   6.301
    9AU     LIG 4650  24.468   3.441   6.018
    9AU     LIG 4651  24.811   3.248   5.747
    9AU     LIG 4652  25.155   3.408   5.440
    9AU     LIG 4653  25.541   3.373   5.156
    9AU       S 4654  23.531   5.138   6.448
    9AU     LIG 4655  23.599   4.779   6.193
    9AU     LIG 4656  23.741   4.586   5.788
    9AU     LIG 4657  23.816   4.551   5.326
    9AU     LIG 4658  23.980   4.543   4.879
    9AU     LIG 4659  23.969   4.366   4.435
    9AU     LIG 4660  24.066   4.286   3.974
    9AU    AUSL 4661  23.301   5.258   6.891
    9AU    AUSL 4662  23.047   5.015   6.674
    9AU     AUL 4663  23.242   4.789   6.570
    9AU       S 4664  22.996   5.116   6.350
    9AU     LIG 4665  22.972   4.740   6.125
    9AU     LIG 4666  22.729   4.524   5.765
    9AU     LIG 4667  22.566   4.455   5.310
    9AU     LIG 4668  22.409   4.243   4.899
    9AU     LIG 4669  22.365   4.092   4.432
    9AU     LIG 4670  22.111   4.051   4.024
    9AU       S 4671  23.448   5.229   6.506
    9AU     LIG 4672  23.629   5.254   5.995
    9AU     LIG 4673  23.750   5.055   5.558
    9AU     LIG 4674  23.944   5.006   5.115
    9AU     LIG 4675  23.934   5.020   4.636
    9AU     LIG 4676  24.026   5.304   4.259
    9AU     LIG 4677  24.115   5.656   3.954
    9AU    AUSL 4678  22.718   5.273   8.228
    9AU    AUSL 4679  22.857   5.679   8.139
    9AU     AUL 4680  22.933   5.598   8.460
    9AU       S 4681  22.656   5.266   8.642
    9AU     LIG 4682  22.396   4.900   8.721
    9AU     LIG 4683  22.229   4.757   9.143
    9AU     LIG 4684  22.046   4.784   9.595
    9AU     LIG 4685  21.833   4.721  10.016
    9AU     LIG 4686  21.458   4.643  10.304
    9AU     LIG 4687  21.217   4.721  10.709
    9AU       S 4688  22.477   5.658   8.364
    9AU     LIG 4689  22.515   5.769   8.795
    9AU     LIG 4690  22.450   6.153   9.065
    9AU     LIG 4691  22.209   6.479   9.322
    9AU     LIG 4692  22.047   6.613   9.762
    9AU     LIG 4693  21.900   6.848  10.168
    9AU     LIG 4694  21.693   7.234  10.375
    9AU    AUSL 4695  23.008   5.059   8.044
    9AU    AUSL 4696  22.480   5.032   8.003
    9AU     AUL 4697  22.584   5.034   8.253
    9AU       S 4698  22.301   4.671   8.253
    9AU     LIG 4699  21.941   4.522   8.038
    9AU     LIG 4700  21.613   4.228   8.193
    9AU     LIG 4701  21.400   3.946   8.521
    9AU     LIG 4702  21.188   3.665   8.835
    9AU     LIG 4703  20.915   3.408   9.118
    9AU     LIG 4704  20.537   3.428   9.409
    9AU       S 4705  22.895   4.991   8.583
    9AU     LIG 4706  22.815   4.607   8.797
    9AU     LIG 4707  22.668   4.508   9.244
    9AU     LIG 4708  22.428   4.453   9.669
    9AU     LIG 4709  22.170   4.308  10.062
    9AU     LIG 4710  22.128   4.177  10.533
    9AU     LIG 4711  22.010   4.230  10.997
    9AU    AUSL 4712  22.771   5.160   6.931
    9AU    AUSL 4713  22.916   4.735   6.933
    9AU     AUL 4714  22.726   4.854   6.640
    9AU       S 4715  22.783   5.198   6.310
    9AU     LIG 4716  22.500   4.926   6.039
    9AU     LIG 4717  22.284   4.760   5.624
    9AU     LIG 4718  22.038   4.497   5.278
    9AU     LIG 4719  21.679   4.455   4.948
    9AU     LIG 4720  21.321   4.657   4.665
    9AU     LIG 4721  21.174   4.935   4.296
    9AU       S 4722  22.461   4.453   6.813
    9AU     LIG 4723  22.244   4.055   6.807
    9AU     LIG 4724  21.959   3.785   6.544
    9AU     LIG 4725  21.706   3.520   6.239
    9AU     LIG 4726  21.596   3.362   5.803
    9AU     LIG 4727  21.733   3.137   5.390
    9AU     LIG 4728  21.705   2.987   4.939
    9AU    AUSL 4729  23.003   5.444   6.687
    9AU    AUSL 4730  22.522   5.479   6.980
    9AU     AUL 4731  22.594   5.317   6.702
    9AU       S 4732  22.434   5.746   6.775
    9AU     LIG 4733  22.185   5.762   6.390
    9AU     LIG 4734  22.022   6.031   6.024
    9AU     LIG 4735  21.779   6.121   5.613
    9AU     LIG 4736  21.395   6.217   5.326
    9AU     LIG 4737  21.003   6.366   5.091
    9AU     LIG 4738  20.844   6.738   4.841
    9AU       S 4739  23.004   5.374   6.454
    9AU     LIG 4740  23.059   5.254   5.902
    9AU     LIG 4741  22.764   5.011   5.593
    9AU     LIG 4742  22.582   4.972   5.146
    9AU     LIG 4743  22.610   5.177   4.690
    9AU     LIG 4744  22.612   5.394   4.246
    9AU     LIG 4745  22.502   5.519   3.788
    9AU    AUSL 4746  23.795   5.794   7.428
    9AU    AUSL 4747  23.814   5.550   7.085
    9AU     AUL 4748  23.953   6.009   7.229
    9AU       S 4749  23.952   5.665   6.882
    9AU     LIG 4750  24.305   5.594   6.582
    9AU     LIG 4751  24.560   5.772   6.211
    9AU     LIG 4752  24.880   5.986   5.920
    9AU     LIG 4753  25.246   5.999   5.599
    9AU     LIG 4754  25.632   6.169   5.376
    9AU     LIG 4755  25.949   6.486   5.204
    9AU       S 4756  24.259   5.677   7.364
    9AU     LIG 4757  24.745   5.706   7.531
    9AU     LIG 4758  25.258   5.743   7.552
    9AU     LIG 4759  25.749   5.829   7.569
    9AU     LIG 4760  26.091   6.189   7.518
    9AU     LIG 4761  26.240   6.605   7.701
    9AU     LIG 4762  26.498   6.898   7.978
    9AU    AUSL 4763  24.018   5.251   7.267
    9AU    AUSL 4764  24.000   5.084   7.696
    9AU     AUL 4765  24.288   5.019   7.468
    9AU       S 4766  24.207   5.456   7.325
    9AU     LIG 4767  24.627   5.314   7.230
    9AU     LIG 4768  25.104   5.331   7.283
    9AU     LIG 4769  25.590   5.407   7.293
    9AU     LIG 4770  26.014   5.631   7.167
    9AU     LIG 4771  26.396   5.900   7.177
    9AU     LIG 4772  26.832   5.887   7.043
    9AU       S 4773  24.303   4.613   7.725
    9AU     LIG 4774  24.712   4.392   7.718
    9AU     LIG 4775  25.137   4.163   7.730
    9AU     LIG 4776  25.563   3.928   7.753
    9AU     LIG 4777  25.999   3.725   7.819
    9AU     LIG 4778  26.436   3.835   8.026
    9AU     LIG 4779  26.861   3.981   8.201
    9AU    AUSL 4780  23.793   5.414   7.580
    9AU    AUSL 4781  23.692   5.769   7.823
    9AU     AUL 4782  23.942   5.785   7.692
    9AU       S 4783  23.911   5.577   8.076
    9AU     LIG 4784  24.358   5.836   7.986
    9AU     LIG 4785  24.573   6.080   8.345
    9AU     LIG 4786  24.800   6.360   8.677
    9AU     LIG 4787  25.057   6.675   8.948
    9AU     LIG 4788  25.371   7.064   8.990
    9AU     LIG 4789  25.628   7.477   8.933
    9AU       S 4790  24.263   5.481   7.597
    9AU     LIG 4791  24.590   5.300   7.811
    9AU     LIG 4792  25.082   5.322   7.800
    9AU     LIG 4793  25.570   5.401   7.817
    9AU     LIG 4794  25.982   5.546   8.004
    9AU     LIG 4795  26.431   5.698   8.146
    9AU     LIG 4796  26.817   5.963   8.172
    9AU    AUSL 4797  22.521   5.751   7.593
    9AU    AUSL 4798  22.566   5.490   7.923
    9AU     AUL 4799  22.528   5.945   7.853
    9AU       S 4800  22.354   5.565   8.117
    9AU     LIG 4801  22.014   5.780   8.429
    9AU     LIG 4802  22.004   5.995   8.857
    9AU     LIG 4803  21.804   6.153   9.274
    9AU     LIG 4804  21.456   6.215   9.625
    9AU     LIG 4805  21.152   6.368   9.977
    9AU     LIG 4806  20.873   6.682  10.214
    9AU       S 4807  22.147   5.764   7.683
    9AU     LIG 4808  22.140   6.161   7.453
    9AU     LIG 4809  21.777   6.491   7.406
    9AU     LIG 4810  21.356   6.754   7.482
    9AU     LIG 4811  21.011   7.082   7.603
    9AU     LIG 4812  20.656   7.348   7.774
    9AU     LIG 4813  20.241   7.582   7.821
    9AU    AUSL 4814  22.585   5.416   7.369
    9AU    AUSL 4815  22.676   5.825   7.219
    9AU     AUL 4816  22.388   5.743   7.251
    9AU       S 4817  22.021   5.673   7.535
    9AU     LIG 4818  21.868   5.830   7.127
    9AU     LIG 4819  21.420   5.978   6.929
    9AU     LIG 4820  20.931   6.118   6.827
    9AU     LIG 4821  20.451   6.179   6.692
    9AU     LIG 4822  20.113   6.551   6.660
    9AU     LIG 4823  19.670   6.514   6.525
    9AU       S 4824  22.495   5.997   6.862
    9AU     LIG 4825  22.441   6.198   6.437
    9AU     LIG 4826  22.271   6.489   6.093
    9AU     LIG 4827  22.086   6.920   5.983
    9AU     LIG 4828  21.745   7.266   5.952
    9AU     LIG 4829  21.318   7.501   5.991
    9AU     LIG 4830  21.049   7.892   6.004
    9AU    AUSL 4831  22.312   5.326   7.665
    9AU    AUSL 4832  22.358   5.082   7.319
    9AU     AUL 4833  22.187   5.339   7.271
    9AU       S 4834  22.015   4.886   7.452
    9AU     LIG 4835  21.632   4.856   7.748
    9AU     LIG 4836  21.133   4.875   7.699
    9AU     LIG 4837  20.662   4.967   7.546
    9AU     LIG 4838  20.219   4.962   7.260
    9AU     LIG 4839  19.817   4.664   7.161
    9AU     LIG 4840  19.410   4.404   7.032
    9AU       S 4841  22.120   5.358   7.750
    9AU     LIG 4842  21.787   5.590   8.002
    9AU     LIG 4843  21.373   5.842   8.134
    9AU     LIG 4844  20.913   6.049   8.198
    9AU     LIG 4845  20.445   6.069   8.318
    9AU     LIG 4846  20.006   6.248   8.369
    9AU     LIG 4847  19.534   6.411   8.329
    9AU    AUSL 4848  23.871   4.714   7.559
    9AU    AUSL 4849  23.635   4.959   7.823
    9AU     AUL 4850  24.058   4.948   7.918
    9AU       S 4851  24.047   4.468   7.576
    9AU     LIG 4852  24.278   4.100   7.668
    9AU     LIG 4853  24.702   3.878   7.615
    9AU     LIG 4854  25.138   3.676   7.551
    9AU     LIG 4855  25.574   3.456   7.547
    9AU     LIG 4856  25.792   3.035   7.629
    9AU     LIG 4857  26.233   2.899   7.633
    9AU       S 4858  23.848   4.583   8.077
    9AU     LIG 4859  24.065   4.342   8.487
    9AU     LIG 4860  24.129   3.902   8.640
    9AU     LIG 4861  24.400   3.551   8.822
    9AU     LIG 4862  24.740   3.350   9.104
    9AU     LIG 4863  25.171   3.317   9.344
    9AU     LIG 4864  25.556   3.185   9.604
    9AU    AUSL 4865  23.703   5.032   7.374
    9AU    AUSL 4866  23.636   4.548   7.269
    9AU     AUL 4867  23.994   4.781   7.199
    9AU       S 4868  24.020   4.604   7.610
    9AU     LIG 4869  24.424   4.437   7.273
    9AU     LIG 4870  24.897   4.212   7.264
    9AU     LIG 4871  25.387   4.038   7.280
    9AU     LIG 4872  25.885   3.893   7.308
    9AU     LIG 4873  26.323   4.002   7.060
    9AU     LIG 4874  26.733   3.834   6.799
    9AU       S 4875  23.879   4.323   7.120
    9AU     LIG 4876  23.692   3.907   6.939
    9AU     LIG 4877  23.894   3.526   6.658
    9AU     LIG 4878  24.216   3.205   6.405
    9AU     LIG 4879  24.576   2.937   6.154
    9AU     LIG 4880  25.012   2.680   6.142
    9AU     LIG 4881  25.439   2.410   6.203
    9AU    AUSL 4882  22.473   4.709   7.498
    9AU    AUSL 4883  22.544   4.846   7.057
    9AU     AUL 4884  22.263   4.909   7.048
    9AU       S 4885  22.457   4.493   7.063
    9AU     LIG 4886  21.987   4.466   7.018
    9AU     LIG 4887  21.723   4.224   6.721
    9AU     LIG 4888  21.474   3.950   6.420
    9AU     LIG 4889  21.234   3.692   6.095
    9AU     LIG 4890  20.922   3.734   5.728
    9AU     LIG 4891  20.554   3.772   5.419
    9AU       S 4892  22.174   4.671   7.435
    9AU     LIG 4893  21.834   4.408   7.548
    9AU     LIG 4894  21.367   4.412   7.634
    9AU     LIG 4895  20.869   4.396   7.654
    9AU     LIG 4896  20.430   4.152   7.563
    9AU     LIG 4897  19.961   3.969   7.540
    9AU     LIG 4898  19.749   3.534   7.551
    9AU    AUSL 4899  22.627   5.075   7.635
    9AU    AUSL 4900  22.703   4.720   7.859
    9AU     AUL 4901  22.336   4.851   7.820
    9AU       S 4902  22.460   4.550   8.138
    9AU     LIG 4903  22.342   4.310   7.787
    9AU     LIG 4904  21.962   4.012   7.868
    9AU     LIG 4905  21.626   3.717   8.099
    9AU     LIG 4906  21.335   3.445   8.380
    9AU     LIG 4907  21.121   3.162   8.697
    9AU     LIG 4908  20.976   2.756   8.889
    9AU       S 4909  22.059   4.947   7.478
    9AU     LIG 4910  21.589   4.752   7.254
    9AU     LIG 4911  21.092   4.646   7.238
    9AU     LIG 4912  20.597   4.563   7.260
    9AU     LIG 4913  20.270   4.628   7.620
    9AU     LIG 4914  19.901   4.457   7.807
    9AU     LIG 4915  19.641   4.103   7.962
    9AU    AUSL 4916  23.208   5.860   8.038
    9AU    AUSL 4917  22.891   5.658   7.736
    9AU     AUL 4918  22.921   5.966   8.115
    9AU       S 4919  22.535   5.780   8.277
    9AU     LIG 4920  22.367   6.161   8.496
    9AU     LIG 4921  22.173   6.491   8.788
    9AU     LIG 4922  22.103   6.918   9.001
    9AU     LIG 4923  21.976   7.393   9.065
    9AU     LIG 4924  21.647   7.721   9.220
    9AU     LIG 4925  21.239   7.924   9.380
    9AU       S 4926  23.276   6.260   7.983
    9AU     LIG 4927  23.421   6.404   8.356
    9AU     LIG 4928  23.416   6.829   8.549
    9AU     LIG 4929  23.498   7.258   8.722
    9AU     LIG 4930  23.508   7.533   9.101
    9AU     LIG 4931  23.445   7.858   9.435
    9AU     LIG 4932  23.605   8.233   9.688
    9AU    AUSL 4933  22.956   6.046   7.673
    9AU    AUSL 4934  23.406   6.029   7.280
    9AU     AUL 4935  23.070   6.283   7.437
    9AU       S 4936  23.117   6.343   7.891
    9AU     LIG 4937  23.281   6.788   8.023
    9AU     LIG 4938  23.372   7.219   8.212
    9AU     LIG 4939  23.119   7.590   8.316
    9AU     LIG 4940  22.837   7.973   8.325
    9AU     LIG 4941  22.734   8.425   8.427
    9AU     LIG 4942  22.819   8.878   8.634
    9AU       S 4943  23.448   6.351   7.166
    9AU     LIG 4944  23.789   6.499   6.947
    9AU     LIG 4945  23.868   6.957   6.819
    9AU     LIG 4946  23.806   7.432   6.677
    9AU     LIG 4947  23.984   7.909   6.665
    9AU     LIG 4948  24.213   8.364   6.602
    9AU     LIG 4949  24.202   8.800   6.388
    9AU    AUSL 4950  23.348   5.888   7.656
    9AU    AUSL 4951  23.383   5.520   7.914
    9AU     AUL 4952  23.521   5.884   8.073
    9AU       S 4953  23.935   5.716   8.197
    9AU     LIG 4954  24.141   5.845   8.555
    9AU     LIG 4955  24.383   6.107   8.857
    9AU     LIG 4956  24.655   6.322   9.177
    9AU     LIG 4957  24.889   6.616   9.442
    9AU     LIG 4958  24.874   6.983   9.739
    9AU     LIG 4959  24.840   7.209  10.153
    9AU       S 4960  23.435   6.195   7.730
    9AU     LIG 4961  23.718   6.500   7.940
    9AU     LIG 4962  23.782   6.910   8.188
    9AU     LIG 4963  23.854   7.377   8.345
    9AU     LIG 4964  24.022   7.849   8.413
    9AU     LIG 4965  24.184   8.324   8.493
    9AU     LIG 4966  24.106   8.759   8.693
    9AU    AUSL 4967  23.138   4.636   7.870
    9AU    AUSL 4968  23.547   4.560   7.743
    9AU     AUL 4969  23.333   4.444   8.123
    9AU       S 4970  23.130   4.041   8.018
    9AU     LIG 4971  23.305   3.689   8.181
    9AU     LIG 4972  23.143   3.302   8.338
    9AU     LIG 4973  22.927   2.922   8.467
    9AU     LIG 4974  23.007   2.604   8.778
    9AU     LIG 4975  22.918   2.449   9.216
    9AU     LIG 4976  23.073   2.243   9.612
    9AU       S 4977  23.707   4.325   7.870
    9AU     LIG 4978  23.969   3.943   8.087
    9AU     LIG 4979  24.014   3.510   8.332
    9AU     LIG 4980  24.150   3.143   8.613
    9AU     LIG 4981  24.401   2.837   8.861
    9AU     LIG 4982  24.790   2.550   8.867
    9AU     LIG 4983  25.143   2.439   9.149
    9AU    AUSL 4984  22.863   4.432   7.632
    9AU    AUSL 4985  22.929   4.709   8.213
    9AU     AUL 4986  22.873   4.421   7.994
    9AU       S 4987  22.896   3.980   7.879
    9AU     LIG 4988  22.825   3.563   7.999
    9AU     LIG 4989  22.759   3.108   8.012
    9AU     LIG 4990  22.537   2.716   8.152
    9AU     LIG 4991  22.256   2.321   8.200
    9AU     LIG 4992  22.236   1.848   8.283
    9AU     LIG 4993  22.417   1.415   8.412
    9AU       S 4994  22.601   4.575   8.333
    9AU     LIG 4995  22.241   4.167   8.321
    9AU     LIG 4996  21.915   3.889   8.484
    9AU     LIG 4997  21.691   3.557   8.733
    9AU     LIG 4998  21.471   3.290   9.056
    9AU     LIG 4999  21.440   3.067   9.465
    9AU     LIG 5000  21.494   2.840   9.878
    9AU    AUSL 5001  23.259   4.300   7.648
    9AU    AUSL 5002  22.935   4.396   7.230
    9AU     AUL 5003  22.890   4.172   7.465
    9AU       S 5004  22.885   4.043   6.997
    9AU     LIG 5005  22.620   3.813   7.224
    9AU     LIG 5006  22.665   3.349   7.201
    9AU     LIG 5007  22.706   2.928   6.983
    9AU     LIG 5008  22.745   2.489   6.761
    9AU     LIG 5009  22.696   2.016   6.638
    9AU     LIG 5010  22.427   1.602   6.571
    9AU       S 5011  23.225   4.128   7.781
    9AU     LIG 5012  23.220   3.674   7.664
    9AU     LIG 5013  23.225   3.239   7.819
    9AU     LIG 5014  23.280   2.873   8.099
    9AU     LIG 5015  23.163   2.486   8.281
    9AU     LIG 5016  23.324   2.049   8.296
    9AU     LIG 5017  23.277   1.569   8.291
    9AU    AUSL 5018  23.170   5.843   6.963
    9AU    AUSL 5019  23.465   5.629   7.263
    9AU     AUL 5020  23.553   5.932   7.020
    9AU       S 5021  23.221   6.155   6.789
    9AU     LIG 5022  23.459   6.472   6.562
    9AU     LIG 5023  23.492   6.937   6.478
    9AU     LIG 5024  23.420   7.300   6.191
    9AU     LIG 5025  23.568   7.479   5.782
    9AU     LIG 5026  23.457   7.805   5.466
    9AU     LIG 5027  23.428   8.192   5.198
    9AU       S 5028  23.911   5.635   6.968
    9AU     LIG 5029  24.224   6.052   6.798
    9AU     LIG 5030  24.547   6.219   6.472
    9AU     LIG 5031  24.829   6.455   6.163
    9AU     LIG 5032  25.136   6.825   6.097
    9AU     LIG 5033  25.406   7.223   6.034
    9AU     LIG 5034  25.509   7.671   5.931
    9AU    AUSL 5035  23.058   5.817   7.356
    9AU    AUSL 5036  22.923   5.541   7.067
    9AU     AUL 5037  22.895   6.013   7.100
    9AU       S 5038  23.261   6.302   7.023
    9AU     LIG 5039  23.302   6.780   6.942
    9AU     LIG 5040  23.447   7.212   6.985
    9AU     LIG 5041  23.336   7.636   6.837
    9AU     LIG 5042  23.143   8.065   6.766
    9AU     LIG 5043  22.988   8.484   6.621
    9AU     LIG 5044  22.814   8.937   6.576
    9AU       S 5045  22.728   5.814   6.717
    9AU     LIG 5046  22.690   5.759   6.284
    9AU     LIG 5047  22.526   6.052   5.929
    9AU     LIG 5048  22.310   6.284   5.548
    9AU     LIG 5049  22.298   6.522   5.101
    9AU     LIG 5050  22.102   6.882   4.826
    9AU     LIG 5051  21.868   7.240   4.601
    9AU    AUSL 5052  23.254   4.508   6.973
    9AU    AUSL 5053  22.835   4.771   7.336
    9AU     AUL 5054  22.900   4.493   6.921
    9AU       S 5055  22.485   4.371   7.180
    9AU     LIG 5056  22.163   4.085   7.314
    9AU     LIG 5057  21.822   3.841   7.052
    9AU     LIG 5058  21.542   3.552   6.743
    9AU     LIG 5059  21.311   3.221   6.444
    9AU     LIG 5060  21.085   2.762   6.375
    9AU     LIG 5061  20.750   2.403   6.272
    9AU       S 5062  23.196   4.151   6.854
    9AU     LIG 5063  23.261   3.730   6.693
    9AU     LIG 5064  23.011   3.325   6.738
    9AU     LIG 5065  22.969   2.910   6.537
    9AU     LIG 5066  23.106   2.547   6.301
    9AU     LIG 5067  23.140   2.350   5.869
    9AU     LIG 5068  22.969   1.992   5.599
    9AU    AUSL 5069  23.251   4.599   7.392
    9AU    AUSL 5070  23.394   4.856   7.103
    9AU     AUL 5071  23.429   4.342   7.210
    9AU       S 5072  23.103   4.065   7.075
    9AU     LIG 5073  23.115   3.614   7.172
    9AU     LIG 5074  23.153   3.137   7.192
    9AU     LIG 5075  23.171   2.707   6.968
    9AU     LIG 5076  23.231   2.292   6.737
    9AU     LIG 5077  23.261   1.808   6.635
    9AU     LIG 5078  23.230   1.286   6.651
    9AU       S 5079  23.678   4.400   6.823
    9AU     LIG 5080  23.555   4.144   6.486
    9AU     LIG 5081  23.694   3.762   6.250
    9AU     LIG 5082  23.907   3.385   6.036
    9AU     LIG 5083  24.182   3.063   5.823
    9AU     LIG 5084  24.477   2.951   5.467
    9AU     LIG 5085  24.659   2.820   5.050
   10AU     AUC 5086  17.756  20.299   7.507
   10AU     AUC 5087  18.021  20.293   7.354
   10AU     AUC 5088  18.001  20.281   7.668
   10AU     AUC 5089  17.509  20.307   7.338
   10AU     AUC 5090  17.493  20.325   7.656
   10AU     AUC 5091  17.614  20.560   7.502
   10AU     AUC 5092  17.925  20.547   7.498
   10AU     AUC 5093  17.590  20.056   7.513
   10AU     AUC 5094  17.888  20.030   7.524
   10AU     AUC 5095  17.746  20.146   7.765
   10AU     AUC 5096  17.768  20.457   7.765
   10AU     AUC 5097  17.757  20.141   7.245
   10AU     AUC 5098  17.759  20.439   7.246
   10AU     AUC 5099  18.279  20.285   7.201
   10AU     AUC 5100  18.274  20.294   7.501
   10AU     AUC 5101  18.254  20.281   7.822
   10AU     AUC 5102  17.253  20.302   7.180
   10AU     AUC 5103  17.239  20.331   7.483
   10AU     AUC 5104  17.240  20.356   7.808
   10AU     AUC 5105  17.477  20.828   7.502
   10AU     AUC 5106  17.787  20.820   7.503
   10AU     AUC 5107  18.081  20.805   7.504
   10AU     AUC 5108  17.406  19.810   7.515
   10AU     AUC 5109  17.714  19.779   7.506
   10AU     AUC 5110  18.032  19.768   7.531
   10AU     AUC 5111  17.738  19.995   8.015
   10AU     AUC 5112  17.762  20.302   8.035
   10AU     AUC 5113  17.773  20.610   8.023
   10AU     AUC 5114  17.762  19.965   7.006
   10AU     AUC 5115  17.774  20.279   6.984
   10AU     AUC 5116  17.767  20.589   6.983
   10AU     AUC 5117  18.006  20.134   7.932
   10AU     AUC 5118  18.024  20.436   7.934
   10AU     AUC 5119  18.033  20.124   7.094
   10AU     AUC 5120  18.042  20.427   7.084
   10AU     AUC 5121  17.481  20.182   7.928
   10AU     AUC 5122  17.502  20.486   7.929
   10AU     AUC 5123  17.513  20.143   7.071
   10AU     AUC 5124  17.508  20.450   7.078
   10AU     AUC 5125  18.184  20.550   7.338
   10AU     AUC 5126  18.192  20.527   7.667
   10AU     AUC 5127  17.348  20.570   7.345
   10AU     AUC 5128  17.354  20.592   7.665
   10AU     AUC 5129  18.170  20.019   7.373
   10AU     AUC 5130  18.140  20.001   7.674
   10AU     AUC 5131  17.332  20.054   7.342
   10AU     AUC 5132  17.324  20.081   7.685
   10AU     AUC 5133  17.617  20.724   7.773
   10AU     AUC 5134  17.935  20.720   7.751
   10AU     AUC 5135  17.551  19.893   7.759
   10AU     AUC 5136  17.869  19.872   7.776
   10AU     AUC 5137  17.615  20.715   7.240
   10AU     AUC 5138  17.932  20.695   7.233
   10AU     AUC 5139  17.581  19.895   7.241
   10AU     AUC 5140  17.910  19.873   7.267
   10AU    AUSL 5141  18.261  20.168   8.207
   10AU    AUSL 5142  18.013  19.808   8.127
   10AU     AUL 5143  18.160  19.741   8.488
   10AU       S 5144  18.373  19.538   8.111
   10AU     LIG 5145  18.169  19.216   8.360
   10AU     LIG 5146  18.337  18.898   8.624
   10AU     LIG 5147  18.603  18.601   8.870
   10AU     LIG 5148  18.886  18.295   9.098
   10AU     LIG 5149  19.088  18.071   9.455
   10AU     LIG 5150  19.089  17.860   9.877
   10AU       S 5151  18.322  20.108   8.292
   10AU     LIG 5152  18.591  19.961   8.630
   10AU     LIG 5153  18.639  19.775   9.078
   10AU     LIG 5154  18.808  19.741   9.538
   10AU     LIG 5155  19.097  19.799   9.928
   10AU     LIG 5156  19.416  19.925  10.266
   10AU     LIG 5157  19.702  20.092  10.605
   10AU    AUSL 5158  17.857  20.134   8.325
   10AU    AUSL 5159  17.667  20.501   8.285
   10AU     AUL 5160  17.813  20.462   8.703
   10AU       S 5161  17.898  20.103   8.467
   10AU     LIG 5162  17.855  19.935   8.869
   10AU     LIG 5163  18.128  19.710   9.210
   10AU     LIG 5164  18.330  19.517   9.618
   10AU     LIG 5165  18.394  19.320  10.068
   10AU     LIG 5166  18.513  19.135  10.503
   10AU     LIG 5167  18.723  19.121  10.925
   10AU       S 5168  17.418  20.251   8.640
   10AU     LIG 5169  17.273  20.170   9.085
   10AU     LIG 5170  17.087  20.075   9.507
   10AU     LIG 5171  16.893  20.073   9.939
   10AU     LIG 5172  16.856  20.328  10.355
   10AU     LIG 5173  16.808  20.684  10.693
   10AU     LIG 5174  16.738  20.849  11.140
   10AU    AUSL 5175  18.067  20.530   8.290
   10AU    AUSL 5176  18.391  20.498   8.003
   10AU     AUL 5177  18.468  20.445   8.510
   10AU       S 5178  18.089  20.627   8.387
   10AU     LIG 5179  18.241  20.880   8.706
   10AU     LIG 5180  18.494  20.992   9.117
   10AU     LIG 5181  18.558  21.075   9.611
   10AU     LIG 5182  18.508  21.102  10.113
   10AU     LIG 5183  18.524  21.157  10.590
   10AU     LIG 5184  18.557  21.146  11.067
   10AU       S 5185  18.622  20.511   8.064
   10AU     LIG 5186  18.949  20.479   8.374
   10AU     LIG 5187  19.192  20.707   8.703
   10AU     LIG 5188  19.457  21.009   8.946
   10AU     LIG 5189  19.677  21.280   9.267
   10AU     LIG 5190  20.039  21.393   9.561
   10AU     LIG 5191  20.470  21.496   9.753
   10AU    AUSL 5192  18.299  20.304   6.881
   10AU    AUSL 5193  18.089  20.710   6.840
   10AU     AUL 5194  18.458  20.649   6.477
   10AU       S 5195  18.358  20.325   6.737
   10AU     LIG 5196  18.640  20.195   6.376
   10AU     LIG 5197  18.686  20.038   5.944
   10AU     LIG 5198  18.811  19.875   5.510
   10AU     LIG 5199  18.956  19.804   5.057
   10AU     LIG 5200  19.267  19.858   4.698
   10AU     LIG 5201  19.602  19.958   4.362
   10AU       S 5202  18.102  20.766   6.691
   10AU     LIG 5203  18.381  21.128   6.604
   10AU     LIG 5204  18.710  21.195   6.265
   10AU     LIG 5205  18.986  21.405   5.916
   10AU     LIG 5206  19.169  21.512   5.469
   10AU     LIG 5207  19.375  21.718   5.090
   10AU     LIG 5208  19.536  22.016   4.762
   10AU    AUSL 5209  18.026  20.009   6.711
   10AU    AUSL 5210  18.400  19.944   7.039
   10AU     AUL 5211  18.375  19.898   6.676
   10AU       S 5212  18.551  19.530   6.903
   10AU     LIG 5213  18.621  19.375   6.463
   10AU     LIG 5214  18.827  19.009   6.231
   10AU     LIG 5215  19.081  18.684   5.992
   10AU     LIG 5216  19.404  18.563   5.669
   10AU     LIG 5217  19.830  18.616   5.471
   10AU     LIG 5218  20.185  18.526   5.171
   10AU       S 5219  18.141  20.244   6.445
   10AU     LIG 5220  18.233  19.865   6.195
   10AU     LIG 5221  18.379  19.656   5.784
   10AU     LIG 5222  18.426  19.603   5.306
   10AU     LIG 5223  18.531  19.578   4.834
   10AU     LIG 5224  18.555  19.308   4.427
   10AU     LIG 5225  18.559  19.191   3.965
   10AU    AUSL 5226  17.894  20.362   6.890
   10AU    AUSL 5227  17.631  20.122   6.678
   10AU     AUL 5228  17.814  19.925   6.550
   10AU       S 5229  17.504  20.225   6.348
   10AU     LIG 5230  17.407  19.829   6.115
   10AU     LIG 5231  17.212  19.617   5.737
   10AU     LIG 5232  17.015  19.532   5.309
   10AU     LIG 5233  16.752  19.456   4.905
   10AU     LIG 5234  16.612  19.484   4.441
   10AU     LIG 5235  16.512  19.253   4.018
   10AU       S 5236  18.042  20.342   6.504
   10AU     LIG 5237  18.235  20.336   5.987
   10AU     LIG 5238  18.349  20.122   5.553
   10AU     LIG 5239  18.511  20.062   5.095
   10AU     LIG 5240  18.673  20.068   4.640
   10AU     LIG 5241  18.551  20.255   4.187
   10AU     LIG 5242  18.697  20.467   3.765
   10AU    AUSL 5243  17.285  20.392   8.219
   10AU    AUSL 5244  17.438  20.793   8.129
   10AU     AUL 5245  17.517  20.712   8.447
   10AU       S 5246  17.213  20.404   8.621
   10AU     LIG 5247  16.937  20.056   8.698
   10AU     LIG 5248  16.834  19.847   9.104
   10AU     LIG 5249  16.638  19.818   9.549
   10AU     LIG 5250  16.367  19.936   9.931
   10AU     LIG 5251  15.983  19.955  10.240
   10AU     LIG 5252  15.785  20.059  10.671
   10AU       S 5253  17.081  20.833   8.343
   10AU     LIG 5254  17.332  21.142   8.638
   10AU     LIG 5255  17.268  21.435   9.011
   10AU     LIG 5256  16.978  21.563   9.371
   10AU     LIG 5257  16.823  21.770   9.781
   10AU     LIG 5258  16.603  22.060  10.096
   10AU     LIG 5259  16.291  22.273  10.398
   10AU    AUSL 5260  17.572  20.169   8.041
   10AU    AUSL 5261  17.040  20.164   7.985
   10AU     AUL 5262  17.146  20.162   8.237
   10AU       S 5263  16.843  19.817   8.249
   10AU     LIG 5264  16.491  19.587   8.101
   10AU     LIG 5265  16.185  19.281   8.273
   10AU     LIG 5266  16.000  18.982   8.589
   10AU     LIG 5267  15.827  18.667   8.891
   10AU     LIG 5268  15.512  18.498   9.186
   10AU     LIG 5269  15.184  18.557   9.522
   10AU       S 5270  17.446  20.111   8.579
   10AU     LIG 5271  17.353  19.746   8.818
   10AU     LIG 5272  17.279  19.650   9.275
   10AU     LIG 5273  17.081  19.586   9.711
   10AU     LIG 5274  16.987  19.314  10.099
   10AU     LIG 5275  16.758  19.175  10.499
   10AU     LIG 5276  16.727  19.150  10.972
   10AU    AUSL 5277  17.345  20.272   6.920
   10AU    AUSL 5278  17.505  19.834   6.932
   10AU     AUL 5279  17.326  19.929   6.652
   10AU       S 5280  17.262  20.249   6.325
   10AU     LIG 5281  17.002  20.155   5.976
   10AU     LIG 5282  16.814  19.927   5.619
   10AU     LIG 5283  16.574  19.807   5.247
   10AU     LIG 5284  16.265  19.682   4.913
   10AU     LIG 5285  15.982  19.811   4.557
   10AU     LIG 5286  15.648  20.139   4.426
   10AU       S 5287  17.071  19.544   6.815
   10AU     LIG 5288  16.833  19.166   6.802
   10AU     LIG 5289  16.564  18.871   6.568
   10AU     LIG 5290  16.315  18.586   6.285
   10AU     LIG 5291  16.070  18.301   5.990
   10AU     LIG 5292  15.995  18.075   5.584
   10AU     LIG 5293  16.039  18.148   5.110
   10AU    AUSL 5294  17.604  20.552   6.681
   10AU    AUSL 5295  17.126  20.613   6.965
   10AU     AUL 5296  17.210  20.490   6.697
   10AU       S 5297  16.998  20.900   6.759
   10AU     LIG 5298  16.716  20.826   6.403
   10AU     LIG 5299  16.590  20.929   5.961
   10AU     LIG 5300  16.440  21.140   5.571
   10AU     LIG 5301  16.037  21.179   5.332
   10AU     LIG 5302  15.636  21.321   5.124
   10AU     LIG 5303  15.262  21.617   5.069
   10AU       S 5304  17.585  20.404   6.424
   10AU     LIG 5305  17.620  20.268   5.895
   10AU     LIG 5306  17.311  20.096   5.566
   10AU     LIG 5307  17.069  20.031   5.148
   10AU     LIG 5308  17.080  20.152   4.662
   10AU     LIG 5309  17.118  20.342   4.196
   10AU     LIG 5310  17.035  20.578   3.770
   10AU    AUSL 5311  18.402  20.875   7.441
   10AU    AUSL 5312  18.417  20.630   7.097
   10AU     AUL 5313  18.581  21.084   7.243
   10AU       S 5314  18.568  20.724   6.922
   10AU     LIG 5315  18.904  20.555   6.682
   10AU     LIG 5316  19.072  20.798   6.302
   10AU     LIG 5317  19.356  21.057   5.992
   10AU     LIG 5318  19.613  21.336   5.675
   10AU     LIG 5319  19.958  21.505   5.362
   10AU     LIG 5320  20.238  21.743   5.033
   10AU       S 5321  18.858  20.739   7.402
   10AU     LIG 5322  19.330  20.606   7.503
   10AU     LIG 5323  19.813  20.607   7.528
   10AU     LIG 5324  20.243  20.860   7.491
   10AU     LIG 5325  20.606  21.212   7.497
   10AU     LIG 5326  20.856  21.665   7.462
   10AU     LIG 5327  21.030  22.142   7.451
   10AU    AUSL 5328  18.610  20.332   7.292
   10AU    AUSL 5329  18.574  20.163   7.720
   10AU     AUL 5330  18.876  20.092   7.504
   10AU       S 5331  18.796  20.527   7.357
   10AU     LIG 5332  19.117  20.348   7.117
   10AU     LIG 5333  19.586  20.450   7.054
   10AU     LIG 5334  20.075  20.556   7.080
   10AU     LIG 5335  20.560  20.553   7.169
   10AU     LIG 5336  21.024  20.710   7.183
   10AU     LIG 5337  21.497  20.859   7.159
   10AU       S 5338  18.854  19.677   7.761
   10AU     LIG 5339  19.281  19.622   7.732
   10AU     LIG 5340  19.604  19.322   7.817
   10AU     LIG 5341  20.042  19.256   7.753
   10AU     LIG 5342  20.442  19.301   7.961
   10AU     LIG 5343  20.898  19.288   7.990
   10AU     LIG 5344  21.363  19.310   7.997
   10AU    AUSL 5345  18.379  20.498   7.599
   10AU    AUSL 5346  18.284  20.859   7.833
   10AU     AUL 5347  18.537  20.871   7.720
   10AU       S 5348  18.495  20.653   8.100
   10AU     LIG 5349  18.960  20.882   8.059
   10AU     LIG 5350  19.186  21.139   8.417
   10AU     LIG 5351  19.344  21.468   8.744
   10AU     LIG 5352  19.614  21.849   8.881
   10AU     LIG 5353  19.827  22.289   8.925
   10AU     LIG 5354  20.183  22.556   9.077
   10AU       S 5355  18.842  20.552   7.634
   10AU     LIG 5356  19.099  20.357   7.899
   10AU     LIG 5357  19.561  20.466   7.974
   10AU     LIG 5358  20.061  20.563   7.983
   10AU     LIG 5359  20.518  20.657   7.884
   10AU     LIG 5360  20.970  20.780   7.907
   10AU     LIG 5361  21.413  20.948   7.953
   10AU    AUSL 5362  17.116  20.866   7.572
   10AU    AUSL 5363  17.150  20.607   7.905
   10AU     AUL 5364  17.122  21.063   7.825
   10AU       S 5365  16.949  20.686   8.090
   10AU     LIG 5366  16.735  20.543   8.501
   10AU     LIG 5367  16.480  20.859   8.746
   10AU     LIG 5368  16.279  21.067   9.129
   10AU     LIG 5369  15.924  21.219   9.424
   10AU     LIG 5370  15.562  21.385   9.709
   10AU     LIG 5371  15.168  21.602   9.898
   10AU       S 5372  16.728  20.895   7.662
   10AU     LIG 5373  16.417  21.256   7.684
   10AU     LIG 5374  16.113  21.613   7.570
   10AU     LIG 5375  15.831  21.988   7.657
   10AU     LIG 5376  15.553  22.366   7.580
   10AU     LIG 5377  15.119  22.444   7.670
   10AU     LIG 5378  14.773  22.539   7.954
   10AU    AUSL 5379  17.181  20.529   7.351
   10AU    AUSL 5380  17.290  20.942   7.207
   10AU     AUL 5381  16.999  20.872   7.234
   10AU       S 5382  16.619  20.813   7.493
   10AU     LIG 5383  16.383  20.785   7.076
   10AU     LIG 5384  15.987  20.823   6.775
   10AU     LIG 5385  15.578  21.060   6.637
   10AU     LIG 5386  15.219  21.392   6.645
   10AU     LIG 5387  14.741  21.335   6.620
   10AU     LIG 5388  14.251  21.272   6.662
   10AU       S 5389  17.133  21.118   6.842
   10AU     LIG 5390  17.099  21.452   6.506
   10AU     LIG 5391  17.054  21.894   6.295
   10AU     LIG 5392  16.752  22.263   6.237
   10AU     LIG 5393  16.403  22.345   5.948
   10AU     LIG 5394  16.090  22.659   5.841
   10AU     LIG 5395  16.089  23.063   5.610
   10AU    AUSL 5396  16.896  20.456   7.640
   10AU    AUSL 5397  16.943  20.202   7.300
   10AU     AUL 5398  16.788  20.470   7.246
   10AU       S 5399  16.611  20.015   7.421
   10AU     LIG 5400  16.337  19.969   7.796
   10AU     LIG 5401  15.883  19.993   7.808
   10AU     LIG 5402  15.465  19.828   7.647
   10AU     LIG 5403  15.066  19.663   7.407
   10AU     LIG 5404  14.655  19.414   7.265
   10AU     LIG 5405  14.252  19.165   7.124
   10AU       S 5406  16.689  20.500   7.728
   10AU     LIG 5407  16.471  20.783   8.084
   10AU     LIG 5408  16.047  20.941   8.187
   10AU     LIG 5409  15.563  21.052   8.235
   10AU     LIG 5410  15.072  21.122   8.310
   10AU     LIG 5411  14.620  21.320   8.344
   10AU     LIG 5412  14.160  21.476   8.255
   10AU    AUSL 5413  18.438  19.797   7.580
   10AU    AUSL 5414  18.202  20.046   7.835
   10AU     AUL 5415  18.627  20.030   7.941
   10AU       S 5416  18.626  19.520   7.580
   10AU     LIG 5417  19.004  19.219   7.560
   10AU     LIG 5418  19.420  18.976   7.486
   10AU     LIG 5419  19.857  18.770   7.537
   10AU     LIG 5420  20.142  18.353   7.511
   10AU     LIG 5421  20.544  18.100   7.401
   10AU     LIG 5422  21.002  18.015   7.472
   10AU       S 5423  18.400  19.674   8.096
   10AU     LIG 5424  18.612  19.448   8.519
   10AU     LIG 5425  18.829  19.062   8.689
   10AU     LIG 5426  19.105  18.696   8.842
   10AU     LIG 5427  19.350  18.516   9.223
   10AU     LIG 5428  19.726  18.596   9.520
   10AU     LIG 5429  20.063  18.650   9.858
   10AU    AUSL 5430  18.287  20.119   7.388
   10AU    AUSL 5431  18.218  19.643   7.273
   10AU     AUL 5432  18.575  19.867   7.228
   10AU       S 5433  18.589  19.683   7.634
   10AU     LIG 5434  19.011  19.653   7.288
   10AU     LIG 5435  19.421  19.443   7.266
   10AU     LIG 5436  19.834  19.243   7.292
   10AU     LIG 5437  20.290  19.365   7.235
   10AU     LIG 5438  20.727  19.266   7.075
   10AU     LIG 5439  21.180  19.379   7.105
   10AU       S 5440  18.478  19.411   7.104
   10AU     LIG 5441  18.505  19.011   6.808
   10AU     LIG 5442  18.678  18.629   6.546
   10AU     LIG 5443  18.879  18.276   6.281
   10AU     LIG 5444  19.076  17.829   6.205
   10AU     LIG 5445  19.477  17.569   6.137
   10AU     LIG 5446  19.681  17.144   6.181
   10AU    AUSL 5447  17.052  19.826   7.487
   10AU    AUSL 5448  17.133  19.953   7.053
   10AU     AUL 5449  16.860  20.034   7.021
   10AU       S 5450  17.061  19.621   7.049
   10AU     LIG 5451  16.587  19.591   6.993
   10AU     LIG 5452  16.317  19.312   6.728
   10AU     LIG 5453  16.076  19.028   6.434
   10AU     LIG 5454  15.826  18.732   6.162
   10AU     LIG 5455  15.549  18.620   5.794
   10AU     LIG 5456  15.230  18.732   5.448
   10AU       S 5457  16.763  19.797   7.409
   10AU     LIG 5458  16.418  19.536   7.544
   10AU     LIG 5459  15.926  19.524   7.573
   10AU     LIG 5460  15.466  19.329   7.526
   10AU     LIG 5461  14.997  19.185   7.588
   10AU     LIG 5462  14.537  19.057   7.626
   10AU     LIG 5463  14.236  18.705   7.793
   10AU    AUSL 5464  17.202  20.192   7.622
   10AU    AUSL 5465  17.269  19.847   7.861
   10AU     AUL 5466  16.907  19.965   7.807
   10AU       S 5467  17.020  19.692   8.156
   10AU     LIG 5468  16.899  19.435   7.820
   10AU     LIG 5469  16.560  19.089   7.960
   10AU     LIG 5470  16.233  18.756   8.185
   10AU     LIG 5471  15.962  18.425   8.454
   10AU     LIG 5472  15.767  18.025   8.698
   10AU     LIG 5473  15.516  17.591   8.790
   10AU       S 5474  16.657  20.079   7.449
   10AU     LIG 5475  16.139  19.945   7.331
   10AU     LIG 5476  15.724  20.206   7.355
   10AU     LIG 5477  15.238  20.200   7.384
   10AU     LIG 5478  14.886  20.068   7.667
   10AU     LIG 5479  14.620  19.682   7.710
   10AU     LIG 5480  14.300  19.435   7.922
   10AU    AUSL 5481  17.796  20.964   8.036
   10AU    AUSL 5482  17.482  20.772   7.727
   10AU     AUL 5483  17.508  21.074   8.102
   10AU       S 5484  17.114  20.898   8.248
   10AU     LIG 5485  17.108  21.361   8.243
   10AU     LIG 5486  17.056  21.648   8.601
   10AU     LIG 5487  16.960  22.068   8.824
   10AU     LIG 5488  16.658  22.455   8.845
   10AU     LIG 5489  16.353  22.827   8.945
   10AU     LIG 5490  15.960  23.136   8.970
   10AU       S 5491  17.874  21.365   7.985
   10AU     LIG 5492  17.805  21.360   8.418
   10AU     LIG 5493  17.875  21.738   8.707
   10AU     LIG 5494  18.014  22.151   8.906
   10AU     LIG 5495  18.062  22.554   9.151
   10AU     LIG 5496  18.056  22.877   9.506
   10AU     LIG 5497  18.021  23.274   9.768
   10AU    AUSL 5498  17.559  21.157   7.661
   10AU    AUSL 5499  18.020  21.124   7.282
   10AU     AUL 5500  17.715  21.394   7.428
   10AU       S 5501  17.693  21.447   7.885
   10AU     LIG 5502  17.722  21.826   8.189
   10AU     LIG 5503  17.955  22.185   8.399
   10AU     LIG 5504  17.930  22.675   8.369
   10AU     LIG 5505  17.636  23.066   8.426
   10AU     LIG 5506  17.331  23.474   8.482
   10AU     LIG 5507  17.129  23.939   8.544
   10AU       S 5508  18.047  21.460   7.096
   10AU     LIG 5509  18.298  21.638   6.794
   10AU     LIG 5510  18.300  22.089   6.701
   10AU     LIG 5511  18.356  22.548   6.601
   10AU     LIG 5512  18.573  22.991   6.622
   10AU     LIG 5513  18.684  23.471   6.583
   10AU     LIG 5514  18.646  23.931   6.435
   10AU    AUSL 5515  17.949  20.991   7.659
   10AU    AUSL 5516  17.966  20.619   7.917
   10AU     AUL 5517  18.111  20.980   8.078
   10AU       S 5518  18.510  20.792   8.217
   10AU     LIG 5519  18.736  20.911   8.568
   10AU     LIG 5520  18.956  21.141   8.905
   10AU     LIG 5521  19.155  21.217   9.326
   10AU     LIG 5522  19.388  21.436   9.680
   10AU     LIG 5523  19.434  21.834   9.936
   10AU     LIG 5524  19.374  22.300  10.051
   10AU       S 5525  18.045  21.300   7.742
   10AU     LIG 5526  18.063  21.787   7.773
   10AU     LIG 5527  18.277  22.136   8.009
   10AU     LIG 5528  18.402  22.504   8.292
   10AU     LIG 5529  18.399  22.989   8.384
   10AU     LIG 5530  18.528  23.476   8.408
   10AU     LIG 5531  18.616  23.970   8.421
   10AU    AUSL 5532  17.701  19.741   7.871
   10AU    AUSL 5533  18.107  19.645   7.755
   10AU     AUL 5534  17.884  19.537   8.120
   10AU       S 5535  17.689  19.144   7.998
   10AU     LIG 5536  17.776  18.804   8.242
   10AU     LIG 5537  17.516  18.465   8.394
   10AU     LIG 5538  17.430  18.023   8.378
   10AU     LIG 5539  17.589  17.643   8.578
   10AU     LIG 5540  17.601  17.383   8.961
   10AU     LIG 5541  17.673  17.057   9.285
   10AU       S 5542  18.262  19.419   7.876
   10AU     LIG 5543  18.592  19.090   8.107
   10AU     LIG 5544  18.734  18.676   8.363
   10AU     LIG 5545  18.895  18.258   8.584
   10AU     LIG 5546  19.109  17.834   8.745
   10AU     LIG 5547  19.436  17.470   8.656
   10AU     LIG 5548  19.813  17.208   8.828
   10AU    AUSL 5549  17.414  19.550   7.639
   10AU    AUSL 5550  17.494  19.821   8.214
   10AU     AUL 5551  17.418  19.528   7.992
   10AU       S 5552  17.510  19.093   7.872
   10AU     LIG 5553  17.297  18.740   8.011
   10AU     LIG 5554  17.166  18.298   8.025
   10AU     LIG 5555  17.008  17.856   8.092
   10AU     LIG 5556  16.713  17.475   8.148
   10AU     LIG 5557  16.687  17.023   8.286
   10AU     LIG 5558  16.525  16.644   8.078
   10AU       S 5559  17.176  19.711   8.341
   10AU     LIG 5560  16.844  19.313   8.395
   10AU     LIG 5561  16.540  18.990   8.519
   10AU     LIG 5562  16.339  18.627   8.742
   10AU     LIG 5563  16.199  18.385   9.124
   10AU     LIG 5564  16.331  18.201   9.546
   10AU     LIG 5565  16.245  17.967   9.947
   10AU    AUSL 5566  17.805  19.408   7.635
   10AU    AUSL 5567  17.527  19.496   7.252
   10AU     AUL 5568  17.341  19.311   7.510
   10AU       S 5569  17.483  19.139   7.091
   10AU     LIG 5570  17.145  18.855   7.090
   10AU     LIG 5571  17.051  18.384   7.068
   10AU     LIG 5572  16.999  17.905   7.008
   10AU     LIG 5573  16.703  17.512   6.941
   10AU     LIG 5574  16.587  17.113   6.709
   10AU     LIG 5575  16.810  16.764   6.487
   10AU       S 5576  17.762  19.243   7.729
   10AU     LIG 5577  17.754  18.706   7.716
   10AU     LIG 5578  17.686  18.262   7.948
   10AU     LIG 5579  17.791  17.783   8.095
   10AU     LIG 5580  17.842  17.323   8.263
   10AU     LIG 5581  18.051  16.916   8.450
   10AU     LIG 5582  18.152  16.426   8.527
   10AU    AUSL 5583  17.779  20.943   6.961
   10AU    AUSL 5584  18.068  20.723   7.272
   10AU     AUL 5585  18.172  21.028   7.039
   10AU       S 5586  17.833  21.214   6.777
   10AU     LIG 5587  17.993  21.430   6.433
   10AU     LIG 5588  18.087  21.859   6.301
   10AU     LIG 5589  18.048  22.309   6.179
   10AU     LIG 5590  18.085  22.634   5.817
   10AU     LIG 5591  18.012  22.929   5.433
   10AU     LIG 5592  18.068  23.296   5.131
   10AU       S 5593  18.515  20.713   6.987
   10AU     LIG 5594  18.868  21.063   6.757
   10AU     LIG 5595  19.182  21.287   6.439
   10AU     LIG 5596  19.443  21.557   6.134
   10AU     LIG 5597  19.709  21.952   6.041
   10AU     LIG 5598  19.896  22.406   6.045
   10AU     LIG 5599  20.146  22.750   5.834
   10AU    AUSL 5600  17.667  20.919   7.353
   10AU    AUSL 5601  17.529  20.645   7.062
   10AU     AUL 5602  17.509  21.126   7.111
   10AU       S 5603  17.870  21.398   6.994
   10AU     LIG 5604  17.809  21.794   6.747
   10AU     LIG 5605  17.809  22.254   6.717
   10AU     LIG 5606  17.467  22.581   6.755
   10AU     LIG 5607  17.233  22.969   6.590
   10AU     LIG 5608  17.292  23.409   6.400
   10AU     LIG 5609  17.197  23.868   6.543
   10AU       S 5610  17.355  20.949   6.709
   10AU     LIG 5611  17.191  20.988   6.286
   10AU     LIG 5612  16.965  21.300   5.991
   10AU     LIG 5613  16.836  21.503   5.561
   10AU     LIG 5614  16.741  21.753   5.147
   10AU     LIG 5615  16.483  22.079   4.905
   10AU     LIG 5616  16.257  22.419   4.642
   10AU    AUSL 5617  17.839  19.604   6.987
   10AU    AUSL 5618  17.421  19.876   7.332
   10AU     AUL 5619  17.511  19.572   6.934
   10AU       S 5620  17.077  19.493   7.153
   10AU     LIG 5621  16.774  19.225   7.312
   10AU     LIG 5622  16.440  18.950   7.078
   10AU     LIG 5623  16.149  18.659   6.789
   10AU     LIG 5624  15.917  18.332   6.496
   10AU     LIG 5625  15.809  17.927   6.237
   10AU     LIG 5626  15.558  17.685   5.916
   10AU       S 5627  17.756  19.184   6.957
   10AU     LIG 5628  17.693  18.853   6.700
   10AU     LIG 5629  17.389  18.522   6.705
   10AU     LIG 5630  17.337  18.067   6.605
   10AU     LIG 5631  17.574  17.692   6.394
   10AU     LIG 5632  17.640  17.493   5.945
   10AU     LIG 5633  17.698  17.365   5.477
   10AU    AUSL 5634  17.839  19.721   7.401
   10AU    AUSL 5635  17.990  19.954   7.099
   10AU     AUL 5636  18.030  19.452   7.210
   10AU       S 5637  17.678  19.174   7.227
   10AU     LIG 5638  17.624  18.668   7.188
   10AU     LIG 5639  17.537  18.193   7.079
   10AU     LIG 5640  17.519  17.731   6.941
   10AU     LIG 5641  17.671  17.329   6.771
   10AU     LIG 5642  18.067  17.090   6.825
   10AU     LIG 5643  18.192  16.612   6.838
   10AU       S 5644  18.268  19.487   6.825
   10AU     LIG 5645  18.113  19.216   6.534
   10AU     LIG 5646  18.324  18.890   6.275
   10AU     LIG 5647  18.572  18.600   5.978
   10AU     LIG 5648  18.717  18.407   5.546
   10AU     LIG 5649  18.884  18.143   5.167
   10AU     LIG 5650  19.062  17.781   4.908
   11POPC   NC3 5651   3.092  41.579   9.445
   11POPC   PO4 5652   2.479  41.293   9.557
   11POPC   GL1 5653   2.592  41.588   9.200
   11POPC   GL2 5654   2.329  41.843   9.200
   11POPC   C1A 5655   2.868  41.703   8.828
   11POPC   D2A 5656   3.005  41.459   8.460
   11POPC   C3A 5657   3.154  41.727   8.136
   11POPC   C4A 5658   3.023  41.693   7.723
   11POPC   C1B 5659   2.367  41.800   8.756
   11POPC   C2B 5660   2.648  41.851   8.378
   11POPC   C3B 5661   2.581  41.663   7.990
   11POPC   C4B 5662   2.266  41.767   7.648
   12POPC   NC3 5663   6.078  34.820   9.586
   12POPC   PO4 5664   5.808  34.231   9.444
   12POPC   GL1 5665   5.791  34.624   9.197
   12POPC   GL2 5666   6.088  34.577   9.136
   12POPC   C1A 5667   5.840  34.875   8.797
   12POPC   D2A 5668   5.961  34.788   8.377
   12POPC   C3A 5669   5.650  34.684   8.080
   12POPC   C4A 5670   5.611  34.901   7.714
   12POPC   C1B 5671   6.146  34.427   8.732
   12POPC   C2B 5672   6.338  34.416   8.306
   12POPC   C3B 5673   6.140  34.537   7.932
   12POPC   C4B 5674   5.804  34.439   7.633
   13POPC   NC3 5675   7.791   9.404   9.664
   13POPC   PO4 5676   7.253   9.044   9.634
   13POPC   GL1 5677   7.217   9.078   9.188
   13POPC   GL2 5678   7.495   8.865   9.085
   13POPC   C1A 5679   7.252   9.378   8.838
   13POPC   D2A 5680   7.358   9.420   8.390
   13POPC   C3A 5681   7.207   9.091   8.118
   13POPC   C4A 5682   7.252   9.014   7.678
   13POPC   C1B 5683   7.511   8.957   8.630
   13POPC   C2B 5684   7.711   8.936   8.215
   13POPC   C3B 5685   7.752   8.993   7.762
   13POPC   C4B 5686   7.622   8.847   7.351
   14POPC   NC3 5687   7.913   1.224   9.356
   14POPC   PO4 5688   8.571   1.377   9.454
   14POPC   GL1 5689   8.395   1.268   9.122
   14POPC   GL2 5690   8.305   0.919   9.199
   14POPC   C1A 5691   8.385   1.477   8.728
   14POPC   D2A 5692   8.495   1.312   8.328
   14POPC   C3A 5693   8.180   1.403   8.031
   14POPC   C4A 5694   8.166   1.559   7.640
   14POPC   C1B 5695   8.433   0.932   8.752
   14POPC   C2B 5696   8.316   0.844   8.351
   14POPC   C3B 5697   8.411   0.954   7.949
   14POPC   C4B 5698   8.033   0.778   7.816
   15POPC   NC3 5699  23.839  13.426   9.400
   15POPC   PO4 5700  23.492  14.034   9.493
   15POPC   GL1 5701  23.520  13.752   9.137
   15POPC   GL2 5702  23.572  13.411   8.978
   15POPC   C1A 5703  23.704  13.824   8.708
   15POPC   D2A 5704  23.589  13.895   8.283
   15POPC   C3A 5705  23.932  14.000   8.004
   15POPC   C4A 5706  23.755  14.125   7.603
   15POPC   C1B 5707  23.962  13.383   8.685
   15POPC   C2B 5708  24.025  13.184   8.285
   15POPC   C3B 5709  23.842  13.466   8.048
   15POPC   C4B 5710  23.790  13.635   7.695
   16POPC   NC3 5711  33.156   3.945   9.684
   16POPC   PO4 5712  32.978   3.240   9.623
   16POPC   GL1 5713  32.975   3.299   9.192
   16POPC   GL2 5714  33.108   3.610   9.129
   16POPC   C1A 5715  33.143   3.270   8.756
   16POPC   D2A 5716  33.402   3.055   8.489
   16POPC   C3A 5717  33.131   2.950   8.170
   16POPC   C4A 5718  32.918   3.294   7.912
   16POPC   C1B 5719  32.749   3.590   8.810
   16POPC   C2B 5720  32.840   3.582   8.405
   16POPC   C3B 5721  32.732   3.759   8.057
   16POPC   C4B 5722  32.489   3.605   7.758
   17POPC   NC3 5723  32.623   8.447   9.312
   17POPC   PO4 5724  32.075   8.191   9.563
   17POPC   GL1 5725  32.153   8.368   9.142
   17POPC   GL2 5726  32.353   8.086   9.103
   17POPC   C1A 5727  32.341   8.427   8.723
   17POPC   D2A 5728  32.169   8.552   8.353
   17POPC   C3A 5729  32.078   8.209   8.102
   17POPC   C4A 5730  32.375   8.158   7.729
   17POPC   C1B 5731  32.538   7.952   8.723
   17POPC   C2B 5732  32.536   8.127   8.324
   17POPC   C3B 5733  32.774   7.995   7.954
   17POPC   C4B 5734  32.641   7.706   7.622
   18POPC   NC3 5735  41.676  17.812   9.334
   18POPC   PO4 5736  41.201  17.360   9.535
   18POPC   GL1 5737  41.287  17.519   9.167
   18POPC   GL2 5738  41.163  17.850   9.219
   18POPC   C1A 5739  41.430  17.335   8.797
   18POPC   D2A 5740  41.443  17.175   8.378
   18POPC   C3A 5741  41.713  17.402   8.081
   18POPC   C4A 5742  41.785  17.266   7.667
   18POPC   C1B 5743  41.256  17.871   8.794
   18POPC   C2B 5744  41.372  17.694   8.425
   18POPC   C3B 5745  41.209  17.526   8.083
   18POPC   C4B 5746  41.405  17.629   7.706
   19POPC   NC3 5747  15.287   3.981   9.442
   19POPC   PO4 5748  15.127   3.297   9.497
   19POPC   GL1 5749  15.072   3.525   9.155
   19POPC   GL2 5750  15.432   3.563   9.102
   19POPC   C1A 5751  15.116   3.399   8.736
   19POPC   D2A 5752  15.348   3.546   8.370
   19POPC   C3A 5753  15.108   3.705   8.008
   19POPC   C4A 5754  15.012   3.325   7.832
   19POPC   C1B 5755  15.589   3.221   8.792
   19POPC   C2B 5756  15.738   3.214   8.335
   19POPC   C3B 5757  15.584   3.340   7.901
   19POPC   C4B 5758  15.793   3.340   7.486
   20POPC   NC3 5759  28.476  25.935   9.645
   20POPC   PO4 5760  28.005  26.353   9.607
   20POPC   GL1 5761  28.124  26.108   9.259
   20POPC   GL2 5762  27.955  25.811   9.163
   20POPC   C1A 5763  28.278  26.085   8.826
   20POPC   D2A 5764  28.124  26.147   8.391
   20POPC   C3A 5765  28.348  26.064   7.957
   20POPC   C4A 5766  28.492  26.314   7.583
   20POPC   C1B 5767  28.021  25.646   8.725
   20POPC   C2B 5768  27.931  25.681   8.275
   20POPC   C3B 5769  28.086  25.614   7.852
   20POPC   C4B 5770  28.389  25.443   7.562
   21POPC   NC3 5771  20.076  10.444   9.578
   21POPC   PO4 5772  19.485  10.233   9.525
   21POPC   GL1 5773  19.695  10.481   9.197
   21POPC   GL2 5774  20.039  10.393   9.092
   21POPC   C1A 5775  19.738  10.672   8.791
   21POPC   D2A 5776  19.630  10.481   8.410
   21POPC   C3A 5777  19.641  10.749   8.053
   21POPC   C4A 5778  19.658  10.510   7.658
   21POPC   C1B 5779  20.136  10.358   8.680
   21POPC   C2B 5780  20.109  10.669   8.347
   21POPC   C3B 5781  20.088  10.545   7.928
   21POPC   C4B 5782  20.048  10.115   7.706
   22POPC   NC3 5783  41.299  41.366   9.545
   22POPC   PO4 5784  41.705  41.770   9.518
   22POPC   GL1 5785  41.545  41.572   9.159
   22POPC   GL2 5786  41.290  41.761   9.089
   22POPC   C1A 5787  41.536  41.251   8.863
   22POPC   D2A 5788  41.288  41.159   8.473
   22POPC   C3A 5789  41.462  41.342   8.104
   22POPC   C4A 5790  41.560  41.576   7.729
   22POPC   C1B 5791  41.267  41.624   8.701
   22POPC   C2B 5792  41.309  41.765   8.337
   22POPC   C3B 5793  41.106  41.731   7.954
   22POPC   C4B 5794  41.125  42.015   7.613
   23POPC   NC3 5795   5.272  20.760   9.562
   23POPC   PO4 5796   4.652  20.541   9.535
   23POPC   GL1 5797   4.890  20.384   9.197
   23POPC   GL2 5798   5.280  20.349   9.231
   23POPC   C1A 5799   4.961  20.669   8.870
   23POPC   D2A 5800   4.987  20.783   8.436
   23POPC   C3A 5801   4.911  20.411   8.183
   23POPC   C4A 5802   4.933  20.383   7.729
   23POPC   C1B 5803   5.476  20.611   8.904
   23POPC   C2B 5804   5.538  20.541   8.452
   23POPC   C3B 5805   5.407  20.400   8.038
   23POPC   C4B 5806   5.489  20.603   7.654
   24POPC   NC3 5807   4.043   3.597   9.212
   24POPC   PO4 5808   4.524   3.423   9.677
   24POPC   GL1 5809   4.549   3.509   9.225
   24POPC   GL2 5810   4.583   3.191   9.139
   24POPC   C1A 5811   4.673   3.498   8.749
   24POPC   D2A 5812   4.670   3.705   8.369
   24POPC   C3A 5813   4.541   3.554   7.968
   24POPC   C4A 5814   4.227   3.739   7.714
   24POPC   C1B 5815   4.263   3.219   8.754
   24POPC   C2B 5816   4.200   3.537   8.473
   24POPC   C3B 5817   4.031   3.471   8.087
   24POPC   C4B 5818   3.993   3.146   7.787
   25POPC   NC3 5819  17.954  15.729   9.802
   25POPC   PO4 5820  17.563  16.168   9.474
   25POPC   GL1 5821  17.694  15.754   9.302
   25POPC   GL2 5822  17.997  15.831   9.139
   25POPC   C1A 5823  17.685  15.573   8.854
   25POPC   D2A 5824  17.554  15.687   8.422
   25POPC   C3A 5825  17.786  15.579   8.023
   25POPC   C4A 5826  17.626  15.685   7.593
   25POPC   C1B 5827  17.815  16.079   8.794
   25POPC   C2B 5828  17.676  16.196   8.368
   25POPC   C3B 5829  17.500  16.014   7.981
   25POPC   C4B 5830  17.259  16.210   7.655
   26POPC   NC3 5831   4.699  40.971   9.707
   26POPC   PO4 5832   4.287  40.911   9.219
   26POPC   GL1 5833   4.239  40.618   8.957
   26POPC   GL2 5834   4.374  40.326   9.081
   26POPC   C1A 5835   4.408  40.610   8.546
   26POPC   D2A 5836   4.465  40.934   8.246
   26POPC   C3A 5837   4.174  40.840   7.947
   26POPC   C4A 5838   4.156  40.628   7.603
   26POPC   C1B 5839   4.522  40.117   8.735
   26POPC   C2B 5840   4.670  40.207   8.328
   26POPC   C3B 5841   4.601  40.482   7.947
   26POPC   C4B 5842   4.546  40.293   7.525
   27POPC   NC3 5843   7.262   8.513   9.746
   27POPC   PO4 5844   7.031   7.785   9.660
   27POPC   GL1 5845   7.197   8.061   9.316
   27POPC   GL2 5846   7.262   8.420   9.238
   27POPC   C1A 5847   7.223   8.044   8.872
   27POPC   D2A 5848   7.452   7.978   8.513
   27POPC   C3A 5849   7.485   8.078   8.094
   27POPC   C4A 5850   7.173   8.154   7.857
   27POPC   C1B 5851   7.216   8.550   8.791
   27POPC   C2B 5852   7.449   8.509   8.379
   27POPC   C3B 5853   7.447   8.592   7.931
   27POPC   C4B 5854   7.482   8.398   7.534
   28POPC   NC3 5855   0.657  36.571   9.994
   28POPC   PO4 5856   0.312  36.886   9.502
   28POPC   GL1 5857   0.487  37.007   9.128
   28POPC   GL2 5858   0.855  37.092   9.157
   28POPC   C1A 5859   0.263  37.016   8.752
   28POPC   D2A 5860   0.108  36.650   8.542
   28POPC   C3A 5861   0.067  36.752   8.133
   28POPC   C4A 5862   0.255  37.031   7.864
   28POPC   C1B 5863   0.777  36.897   8.723
   28POPC   C2B 5864   0.537  36.895   8.321
   28POPC   C3B 5865   0.657  36.737   7.922
   28POPC   C4B 5866   0.716  37.138   7.710
   29POPC   NC3 5867  14.536  36.261   9.369
   29POPC   PO4 5868  14.166  35.620   9.480
   29POPC   GL1 5869  14.181  35.975   9.142
   29POPC   GL2 5870  14.102  36.340   9.091
   29POPC   C1A 5871  14.093  35.924   8.719
   29POPC   D2A 5872  14.260  36.029   8.319
   29POPC   C3A 5873  14.091  35.789   7.988
   29POPC   C4A 5874  13.863  35.908   7.604
   29POPC   C1B 5875  14.424  36.311   8.735
   29POPC   C2B 5876  14.553  36.464   8.326
   29POPC   C3B 5877  14.456  36.294   7.924
   29POPC   C4B 5878  14.584  36.412   7.536
   30POPC   NC3 5879  28.254   6.452   9.434
   30POPC   PO4 5880  28.748   6.827   9.361
   30POPC   GL1 5881  28.617   6.473   9.074
   30POPC   GL2 5882  28.232   6.459   8.933
   30POPC   C1A 5883  28.637   6.305   8.686
   30POPC   D2A 5884  28.329   6.459   8.376
   30POPC   C3A 5885  28.549   6.595   8.008
   30POPC   C4A 5886  28.772   6.356   7.704
   30POPC   C1B 5887  28.104   6.879   8.772
   30POPC   C2B 5888  27.858   6.953   8.386
   30POPC   C3B 5889  28.023   6.759   8.025
   30POPC   C4B 5890  28.295   6.983   7.791
   31POPC   NC3 5891  32.922  12.018   9.651
   31POPC   PO4 5892  33.414  11.640   9.570
   31POPC   GL1 5893  33.135  11.938   9.210
   31POPC   GL2 5894  32.860  12.236   9.197
   31POPC   C1A 5895  33.116  12.141   8.790
   31POPC   D2A 5896  32.908  11.983   8.409
   31POPC   C3A 5897  33.085  12.013   8.007
   31POPC   C4A 5898  33.448  12.167   7.760
   31POPC   C1B 5899  32.621  12.099   8.831
   31POPC   C2B 5900  32.421  12.143   8.440
   31POPC   C3B 5901  32.619  12.254   8.051
   31POPC   C4B 5902  32.958  12.458   7.774
   32POPC   NC3 5903  15.685  32.732   9.691
   32POPC   PO4 5904  16.201  32.887   9.277
   32POPC   GL1 5905  16.128  33.110   8.938
   32POPC   GL2 5906  16.199  33.423   9.129
   32POPC   C1A 5907  15.942  32.897   8.569
   32POPC   D2A 5908  15.877  32.535   8.307
   32POPC   C3A 5909  15.915  32.781   7.943
   32POPC   C4A 5910  15.699  33.188   7.953
   32POPC   C1B 5911  16.426  33.489   8.758
   32POPC   C2B 5912  16.264  33.263   8.404
   32POPC   C3B 5913  16.252  33.175   7.977
   32POPC   C4B 5914  16.350  33.427   7.605
   33POPC   NC3 5915  30.410  38.365   9.502
   33POPC   PO4 5916  31.114  38.490   9.440
   33POPC   GL1 5917  30.777  38.529   9.147
   33POPC   GL2 5918  30.481  38.759   9.188
   33POPC   C1A 5919  30.748  38.331   8.756
   33POPC   D2A 5920  30.780  38.538   8.370
   33POPC   C3A 5921  30.846  38.239   8.084
   33POPC   C4A 5922  30.676  38.126   7.726
   33POPC   C1B 5923  30.464  38.744   8.773
   33POPC   C2B 5924  30.262  38.476   8.508
   33POPC   C3B 5925  30.279  38.466   8.076
   33POPC   C4B 5926  30.622  38.650   7.853
   34POPC   NC3 5927   6.246  20.553   9.652
   34POPC   PO4 5928   5.601  20.247   9.654
   34POPC   GL1 5929   5.869  20.296   9.273
   34POPC   GL2 5930   5.948  20.647   9.223
   34POPC   C1A 5931   5.901  20.345   8.805
   34POPC   D2A 5932   6.119  20.472   8.415
   34POPC   C3A 5933   5.917  20.424   8.049
   34POPC   C4A 5934   5.949  20.310   7.644
   34POPC   C1B 5935   6.078  20.822   8.824
   34POPC   C2B 5936   5.891  20.929   8.424
   34POPC   C3B 5937   6.106  20.892   8.064
   34POPC   C4B 5938   6.219  20.733   7.734
   35POPC   NC3 5939  40.604   5.171   9.677
   35POPC   PO4 5940  40.883   4.659   9.746
   35POPC   GL1 5941  40.865   4.903   9.287
   35POPC   GL2 5942  41.212   4.999   9.228
   35POPC   C1A 5943  40.670   5.215   8.914
   35POPC   D2A 5944  40.732   5.348   8.458
   35POPC   C3A 5945  40.703   5.183   8.014
   35POPC   C4A 5946  40.780   5.378   7.592
   35POPC   C1B 5947  41.144   5.115   8.777
   35POPC   C2B 5948  41.091   4.963   8.355
   35POPC   C3B 5949  41.001   4.759   7.975
   35POPC   C4B 5950  40.876   4.877   7.605
   36POPC   NC3 5951  13.213  22.954   9.446
   36POPC   PO4 5952  13.906  22.919   9.489
   36POPC   GL1 5953  13.769  23.051   9.070
   36POPC   GL2 5954  13.438  23.204   9.015
   36POPC   C1A 5955  13.884  22.762   8.729
   36POPC   D2A 5956  13.971  22.572   8.343
   36POPC   C3A 5957  13.811  22.822   8.037
   36POPC   C4A 5958  13.701  22.672   7.689
   36POPC   C1B 5959  13.387  22.785   8.817
   36POPC   C2B 5960  13.467  22.678   8.390
   36POPC   C3B 5961  13.283  22.718   7.960
   36POPC   C4B 5962  13.274  22.746   7.447
   37POPC   NC3 5963  31.147  39.894   9.540
   37POPC   PO4 5964  31.771  40.024   9.586
   37POPC   GL1 5965  31.564  40.115   9.220
   37POPC   GL2 5966  31.576  39.796   9.118
   37POPC   C1A 5967  31.650  40.140   8.768
   37POPC   D2A 5968  31.856  39.836   8.543
   37POPC   C3A 5969  31.812  39.849   8.092
   37POPC   C4A 5970  31.902  39.595   7.727
   37POPC   C1B 5971  31.188  39.939   8.848
   37POPC   C2B 5972  31.061  40.087   8.448
   37POPC   C3B 5973  31.143  39.957   8.036
   37POPC   C4B 5974  31.439  39.985   7.727
   38POPC   NC3 5975  29.989  15.864   9.543
   38POPC   PO4 5976  30.047  16.545   9.428
   38POPC   GL1 5977  29.737  16.360   9.124
   38POPC   GL2 5978  29.661  15.978   9.157
   38POPC   C1A 5979  29.842  16.199   8.729
   38POPC   D2A 5980  29.938  16.091   8.318
   38POPC   C3A 5981  29.822  16.080   7.893
   38POPC   C4A 5982  30.198  15.909   7.769
   38POPC   C1B 5983  29.880  15.656   8.895
   38POPC   C2B 5984  30.076  15.587   8.519
   38POPC   C3B 5985  29.956  15.628   8.126
   38POPC   C4B 5986  29.928  15.475   7.751
   39POPC   NC3 5987  38.637  37.898   9.472
   39POPC   PO4 5988  38.498  38.571   9.634
   39POPC   GL1 5989  38.354  38.429   9.245
   39POPC   GL2 5990  38.226  38.736   9.148
   39POPC   C1A 5991  38.481  38.434   8.793
   39POPC   D2A 5992  38.716  38.582   8.415
   39POPC   C3A 5993  38.536  38.503   7.987
   39POPC   C4A 5994  38.508  38.103   7.802
   39POPC   C1B 5995  38.000  38.638   8.777
   39POPC   C2B 5996  38.204  38.622   8.377
   39POPC   C3B 5997  38.064  38.734   7.970
   39POPC   C4B 5998  38.142  38.785   7.548
   40POPC   NC3 5999  22.010  12.990   9.482
   40POPC   PO4 6000  22.542  12.823   9.719
   40POPC   GL1 6001  22.351  12.761   9.190
   40POPC   GL2 6002  22.098  13.043   9.000
   40POPC   C1A 6003  22.408  12.785   8.725
   40POPC   D2A 6004  22.183  13.112   8.462
   40POPC   C3A 6005  22.436  13.161   8.095
   40POPC   C4A 6006  22.489  12.876   7.759
   40POPC   C1B 6007  21.904  12.690   8.783
   40POPC   C2B 6008  22.005  12.637   8.361
   40POPC   C3B 6009  22.014  12.858   7.962
   40POPC   C4B 6010  21.854  12.627   7.587
   41POPC   NC3 6011  14.524  40.936   9.609
   41POPC   PO4 6012  13.952  40.559   9.347
   41POPC   GL1 6013  14.312  40.692   9.120
   41POPC   GL2 6014  14.594  40.908   9.111
   41POPC   C1A 6015  14.264  40.877   8.715
   41POPC   D2A 6016  14.421  41.029   8.334
   41POPC   C3A 6017  14.235  40.867   7.946
   41POPC   C4A 6018  14.143  40.574   7.595
   41POPC   C1B 6019  14.734  40.698   8.710
   41POPC   C2B 6020  14.711  40.569   8.291
   41POPC   C3B 6021  14.739  40.742   7.878
   41POPC   C4B 6022  14.899  40.634   7.470
   42POPC   NC3 6023   5.474   4.069   9.577
   42POPC   PO4 6024   4.891   4.352   9.622
   42POPC   GL1 6025   4.915   4.204   9.203
   42POPC   GL2 6026   5.247   4.348   9.169
   42POPC   C1A 6027   4.869   4.276   8.755
   42POPC   D2A 6028   4.921   4.126   8.349
   42POPC   C3A 6029   4.874   4.387   8.025
   42POPC   C4A 6030   5.217   4.518   7.811
   42POPC   C1B 6031   5.392   4.261   8.761
   42POPC   C2B 6032   5.513   3.976   8.463
   42POPC   C3B 6033   5.390   4.127   8.097
   42POPC   C4B 6034   5.385   4.006   7.700
   43POPC   NC3 6035  17.069   4.194   9.489
   43POPC   PO4 6036  16.388   4.400   9.547
   43POPC   GL1 6037  16.631   4.266   9.209
   43POPC   GL2 6038  16.650   3.901   9.183
   43POPC   C1A 6039  16.697   4.401   8.794
   43POPC   D2A 6040  16.611   4.603   8.419
   43POPC   C3A 6041  16.723   4.315   8.122
   43POPC   C4A 6042  16.932   4.450   7.776
   43POPC   C1B 6043  16.298   4.039   8.886
   43POPC   C2B 6044  16.246   4.263   8.491
   43POPC   C3B 6045  16.257   4.082   8.074
   43POPC   C4B 6046  16.504   3.973   7.706
   44POPC   NC3 6047  36.408  17.560   9.812
   44POPC   PO4 6048  35.852  17.793   9.619
   44POPC   GL1 6049  36.079  17.731   9.232
   44POPC   GL2 6050  36.012  17.405   9.184
   44POPC   C1A 6051  36.235  17.674   8.788
   44POPC   D2A 6052  36.024  17.560   8.407
   44POPC   C3A 6053  36.204  17.742   8.075
   44POPC   C4A 6054  36.353  17.655   7.715
   44POPC   C1B 6055  36.047  17.172   8.757
   44POPC   C2B 6056  35.885  17.079   8.322
   44POPC   C3B 6057  36.023  17.283   7.918
   44POPC   C4B 6058  36.117  17.299   7.441
   45POPC   NC3 6059  39.322   6.080   9.223
   45POPC   PO4 6060  38.903   6.503   9.601
   45POPC   GL1 6061  38.996   6.484   9.148
   45POPC   GL2 6062  39.321   6.657   9.076
   45POPC   C1A 6063  39.110   6.425   8.671
   45POPC   D2A 6064  39.126   6.615   8.236
   45POPC   C3A 6065  39.388   6.450   7.841
   45POPC   C4A 6066  39.561   6.336   7.381
   45POPC   C1B 6067  39.021   6.936   8.836
   45POPC   C2B 6068  39.063   7.255   8.501
   45POPC   C3B 6069  39.273   7.124   8.131
   45POPC   C4B 6070  39.086   6.882   7.798
   46POPC   NC3 6071  14.446  37.283   9.515
   46POPC   PO4 6072  14.274  36.615   9.493
   46POPC   GL1 6073  14.399  36.783   9.115
   46POPC   GL2 6074  14.222  37.069   9.107
   46POPC   C1A 6075  14.328  36.805   8.671
   46POPC   D2A 6076  14.059  36.545   8.409
   46POPC   C3A 6077  14.156  36.692   8.013
   46POPC   C4A 6078  14.310  36.836   7.658
   46POPC   C1B 6079  14.072  37.252   8.725
   46POPC   C2B 6080  13.917  37.042   8.348
   46POPC   C3B 6081  13.948  37.169   7.913
   46POPC   C4B 6082  14.012  37.210   7.456
   47POPC   NC3 6083   2.126  39.790   9.546
   47POPC   PO4 6084   1.496  40.100   9.409
   47POPC   GL1 6085   1.762  40.116   9.040
   47POPC   GL2 6086   2.119  39.993   9.064
   47POPC   C1A 6087   1.844  40.080   8.598
   47POPC   D2A 6088   1.830  39.819   8.237
   47POPC   C3A 6089   1.838  40.159   7.929
   47POPC   C4A 6090   1.700  40.324   7.531
   47POPC   C1B 6091   2.496  39.884   8.789
   47POPC   C2B 6092   2.611  39.979   8.339
   47POPC   C3B 6093   2.308  39.860   8.006
   47POPC   C4B 6094   2.415  39.612   7.634
   48POPC   NC3 6095  41.452  23.357   9.591
   48POPC   PO4 6096  42.011  22.917   9.630
   48POPC   GL1 6097  41.799  23.061   9.244
   48POPC   GL2 6098  41.437  23.057   9.177
   48POPC   C1A 6099  41.755  22.983   8.782
   48POPC   D2A 6100  41.517  23.252   8.456
   48POPC   C3A 6101  41.610  23.294   8.016
   48POPC   C4A 6102  41.660  22.937   7.730
   48POPC   C1B 6103  41.229  22.968   8.759
   48POPC   C2B 6104  41.158  22.726   8.341
   48POPC   C3B 6105  41.143  22.786   7.868
   48POPC   C4B 6106  41.197  22.816   7.390
   49POPC   NC3 6107  39.029  41.039   9.397
   49POPC   PO4 6108  39.433  41.637   9.329
   49POPC   GL1 6109  39.205  41.420   9.103
   49POPC   GL2 6110  39.431  41.238   8.906
   49POPC   C1A 6111  39.058  41.566   8.749
   49POPC   D2A 6112  39.223  41.396   8.395
   49POPC   C3A 6113  39.112  41.618   8.053
   49POPC   C4A 6114  38.910  41.536   7.659
   49POPC   C1B 6115  39.597  41.602   8.714
   49POPC   C2B 6116  39.557  41.787   8.329
   49POPC   C3B 6117  39.623  41.621   7.942
   49POPC   C4B 6118  39.398  41.419   7.590
   50POPC   NC3 6119   1.479  34.775   9.389
   50POPC   PO4 6120   1.031  34.349   9.609
   50POPC   GL1 6121   1.100  34.459   9.167
   50POPC   GL2 6122   1.379  34.303   9.035
   50POPC   C1A 6123   1.006  34.649   8.732
   50POPC   D2A 6124   1.205  34.756   8.318
   50POPC   C3A 6125   1.006  34.686   7.932
   50POPC   C4A 6126   1.326  34.665   7.631
   50POPC   C1B 6127   1.524  34.632   8.725
   50POPC   C2B 6128   1.673  34.504   8.303
   50POPC   C3B 6129   1.748  34.380   7.849
   50POPC   C4B 6130   1.666  34.371   7.390
   51POPC   NC3 6131  19.039  38.021   9.489
   51POPC   PO4 6132  19.140  37.345   9.587
   51POPC   GL1 6133  18.883  37.451   9.188
   51POPC   GL2 6134  18.981  37.747   9.071
   51POPC   C1A 6135  18.890  37.382   8.729
   51POPC   D2A 6136  19.132  37.422   8.395
   51POPC   C3A 6137  18.971  37.419   8.009
   51POPC   C4A 6138  19.101  37.734   7.763
   51POPC   C1B 6139  19.351  37.533   8.923
   51POPC   C2B 6140  19.612  37.507   8.551
   51POPC   C3B 6141  19.512  37.592   8.089
   51POPC   C4B 6142  19.582  37.927   7.736
   52POPC   NC3 6143   5.193  14.673   9.500
   52POPC   PO4 6144   4.811  14.173   9.514
   52POPC   GL1 6145   5.091  14.215   9.162
   52POPC   GL2 6146   4.801  14.244   8.963
   52POPC   C1A 6147   5.275  14.363   8.750
   52POPC   D2A 6148   5.124  14.337   8.327
   52POPC   C3A 6149   5.352  14.432   7.956
   52POPC   C4A 6150   5.254  14.193   7.593
   52POPC   C1B 6151   4.885  14.693   8.878
   52POPC   C2B 6152   5.022  14.819   8.461
   52POPC   C3B 6153   4.903  14.693   8.019
   52POPC   C4B 6154   5.012  14.623   7.566
   53POPC   NC3 6155  11.759  21.513   9.880
   53POPC   PO4 6156  12.272  21.386   9.487
   53POPC   GL1 6157  12.109  21.399   9.107
   53POPC   GL2 6158  11.874  21.167   9.182
   53POPC   C1A 6159  12.280  21.513   8.691
   53POPC   D2A 6160  12.351  21.771   8.293
   53POPC   C3A 6161  12.183  21.534   7.937
   53POPC   C4A 6162  12.409  21.193   7.785
   53POPC   C1B 6163  11.954  21.024   8.790
   53POPC   C2B 6164  11.795  21.084   8.412
   53POPC   C3B 6165  12.008  21.062   8.077
   53POPC   C4B 6166  11.877  21.122   7.693
   54POPC   NC3 6167  16.138   7.061   9.608
   54POPC   PO4 6168  15.754   7.693   9.693
   54POPC   GL1 6169  15.959   7.474   9.341
   54POPC   GL2 6170  16.267   7.611   9.212
   54POPC   C1A 6171  15.944   7.355   8.893
   54POPC   D2A 6172  15.928   7.564   8.477
   54POPC   C3A 6173  15.942   7.334   8.120
   54POPC   C4A 6174  15.662   7.301   7.821
   54POPC   C1B 6175  16.350   7.625   8.763
   54POPC   C2B 6176  16.358   7.802   8.330
   54POPC   C3B 6177  16.285   7.637   7.898
   54POPC   C4B 6178  15.953   7.650   7.583
   55POPC   NC3 6179  39.970  13.201   9.494
   55POPC   PO4 6180  39.967  12.477   9.625
   55POPC   GL1 6181  40.089  12.717   9.263
   55POPC   GL2 6182  40.293  12.551   9.040
   55POPC   C1A 6183  39.954  12.922   8.855
   55POPC   D2A 6184  40.116  13.090   8.454
   55POPC   C3A 6185  39.923  13.003   8.066
   55POPC   C4A 6186  39.924  13.032   7.619
   55POPC   C1B 6187  40.258  12.593   8.567
   55POPC   C2B 6188  40.408  12.761   8.166
   55POPC   C3B 6189  40.204  12.641   7.839
   55POPC   C4B 6190  39.745  12.586   7.803
   56POPC   NC3 6191  31.705  39.524   9.541
   56POPC   PO4 6192  31.157  39.225   9.748
   56POPC   GL1 6193  31.383  39.017   9.322
   56POPC   GL2 6194  31.652  39.242   9.140
   56POPC   C1A 6195  31.415  38.976   8.813
   56POPC   D2A 6196  31.287  39.141   8.376
   56POPC   C3A 6197  31.085  38.844   8.022
   56POPC   C4A 6198  30.976  38.881   7.529
   56POPC   C1B 6199  31.481  39.476   8.750
   56POPC   C2B 6200  31.375  39.678   8.390
   56POPC   C3B 6201  31.416  39.539   7.973
   56POPC   C4B 6202  31.283  39.210   7.736
   57POPC   NC3 6203  28.242  13.055   9.544
   57POPC   PO4 6204  28.701  12.626   9.422
   57POPC   GL1 6205  28.422  12.776   9.130
   57POPC   GL2 6206  28.536  13.127   9.161
   57POPC   C1A 6207  28.321  12.674   8.691
   57POPC   D2A 6208  28.278  12.881   8.287
   57POPC   C3A 6209  28.009  12.854   7.929
   57POPC   C4A 6210  28.231  12.693   7.583
   57POPC   C1B 6211  28.273  13.169   8.818
   57POPC   C2B 6212  28.515  13.281   8.484
   57POPC   C3B 6213  28.434  13.341   8.101
   57POPC   C4B 6214  28.425  13.139   7.743
   58POPC   NC3 6215  40.376  25.085   9.758
   58POPC   PO4 6216  40.982  25.128   9.540
   58POPC   GL1 6217  40.944  25.029   9.099
   58POPC   GL2 6218  41.133  24.752   9.047
   58POPC   C1A 6219  40.646  25.122   8.744
   58POPC   D2A 6220  40.574  25.416   8.400
   58POPC   C3A 6221  40.657  25.349   7.918
   58POPC   C4A 6222  40.457  25.375   7.476
   58POPC   C1B 6223  40.984  24.730   8.650
   58POPC   C2B 6224  40.941  25.010   8.295
   58POPC   C3B 6225  41.177  24.931   7.920
   58POPC   C4B 6226  41.321  25.154   7.563
   59POPC   NC3 6227  36.810  33.400   9.529
   59POPC   PO4 6228  36.850  34.111   9.511
   59POPC   GL1 6229  36.718  34.047   9.099
   59POPC   GL2 6230  36.779  33.679   9.098
   59POPC   C1A 6231  36.560  33.882   8.687
   59POPC   D2A 6232  36.708  33.451   8.554
   59POPC   C3A 6233  36.687  33.329   8.109
   59POPC   C4A 6234  36.476  33.540   7.762
   59POPC   C1B 6235  37.073  33.829   8.781
   59POPC   C2B 6236  36.965  34.048   8.397
   59POPC   C3B 6237  36.775  33.838   8.063
   59POPC   C4B 6238  37.091  33.645   7.777
   60POPC   NC3 6239  36.474  21.897   9.450
   60POPC   PO4 6240  35.759  21.852   9.478
   60POPC   GL1 6241  36.033  22.058   9.180
   60POPC   GL2 6242  36.192  22.394   9.191
   60POPC   C1A 6243  36.245  21.966   8.805
   60POPC   D2A 6244  36.240  22.136   8.410
   60POPC   C3A 6245  36.128  21.897   8.087
   60POPC   C4A 6246  36.243  22.034   7.687
   60POPC   C1B 6247  36.347  22.482   8.775
   60POPC   C2B 6248  36.530  22.561   8.363
   60POPC   C3B 6249  36.338  22.504   7.970
   60POPC   C4B 6250  36.153  22.529   7.582
   61POPC   NC3 6251  21.437  12.463   9.443
   61POPC   PO4 6252  21.042  12.984   9.520
   61POPC   GL1 6253  21.260  12.960   9.125
   61POPC   GL2 6254  21.610  12.900   9.174
   61POPC   C1A 6255  21.351  12.707   8.743
   61POPC   D2A 6256  21.508  12.486   8.368
   61POPC   C3A 6257  21.531  12.726   7.989
   61POPC   C4A 6258  21.192  12.896   7.731
   61POPC   C1B 6259  21.663  13.140   8.790
   61POPC   C2B 6260  21.648  13.014   8.402
   61POPC   C3B 6261  21.449  13.228   8.087
   61POPC   C4B 6262  21.639  13.197   7.732
   62POPC   NC3 6263  13.912  44.675  10.007
   62POPC   PO4 6264  14.423  44.917   9.575
   62POPC   GL1 6265  14.471  44.869   9.136
   62POPC   GL2 6266  14.426  44.545   9.073
   62POPC   C1A 6267  14.383  44.931   8.700
   62POPC   D2A 6268  14.425  44.640   8.355
   62POPC   C3A 6269  14.306  44.821   7.946
   62POPC   C4A 6270  14.306   0.000   7.505
   62POPC   C1B 6271  14.092  44.510   8.720
   62POPC   C2B 6272  14.011  44.341   8.279
   62POPC   C3B 6273  13.993  44.408   7.843
   62POPC   C4B 6274  14.155  44.171   7.498
   63POPC   NC3 6275  28.089  15.904   9.572
   63POPC   PO4 6276  28.709  16.029   9.434
   63POPC   GL1 6277  28.568  15.684   9.140
   63POPC   GL2 6278  28.196  15.668   9.134
   63POPC   C1A 6279  28.509  15.673   8.681
   63POPC   D2A 6280  28.655  15.726   8.252
   63POPC   C3A 6281  28.508  16.077   7.982
   63POPC   C4A 6282  28.088  16.229   7.802
   63POPC   C1B 6283  28.015  15.544   8.749
   63POPC   C2B 6284  28.190  15.447   8.343
   63POPC   C3B 6285  28.185  15.676   7.940
   63POPC   C4B 6286  28.179  15.819   7.505
   64POPC   NC3 6287  39.671  40.397   9.818
   64POPC   PO4 6288  39.952  39.831   9.517
   64POPC   GL1 6289  40.027  39.901   9.117
   64POPC   GL2 6290  40.014  40.229   9.087
   64POPC   C1A 6291  39.937  39.904   8.698
   64POPC   D2A 6292  40.108  39.711   8.385
   64POPC   C3A 6293  39.846  39.728   8.067
   64POPC   C4A 6294  40.025  39.803   7.701
   64POPC   C1B 6295  40.175  40.345   8.722
   64POPC   C2B 6296  40.030  40.245   8.313
   64POPC   C3B 6297  39.964  40.281   7.875
   64POPC   C4B 6298  39.717  40.201   7.503
   65POPC   NC3 6299  15.675  38.399   9.524
   65POPC   PO4 6300  16.176  38.016   9.554
   65POPC   GL1 6301  16.045  38.229   9.178
   65POPC   GL2 6302  15.737  38.019   9.183
   65POPC   C1A 6303  16.056  38.533   8.806
   65POPC   D2A 6304  16.162  38.792   8.402
   65POPC   C3A 6305  15.918  38.673   8.013
   65POPC   C4A 6306  16.046  38.391   7.618
   65POPC   C1B 6307  15.624  38.229   8.816
   65POPC   C2B 6308  15.719  38.365   8.400
   65POPC   C3B 6309  15.676  38.236   7.972
   65POPC   C4B 6310  15.553  38.434   7.572
   66POPC   NC3 6311  33.171  22.625   9.540
   66POPC   PO4 6312  33.192  23.194   9.348
   66POPC   GL1 6313  33.050  22.835   9.065
   66POPC   GL2 6314  33.213  22.473   9.056
   66POPC   C1A 6315  33.002  22.996   8.644
   66POPC   D2A 6316  33.258  23.095   8.274
   66POPC   C3A 6317  33.020  23.025   7.891
   66POPC   C4A 6318  32.736  23.095   7.526
   66POPC   C1B 6319  32.991  22.464   8.653
   66POPC   C2B 6320  32.871  22.697   8.252
   66POPC   C3B 6321  32.653  22.642   7.817
   66POPC   C4B 6322  32.612  22.603   7.344
   67POPC   NC3 6323   0.765  30.096   9.510
   67POPC   PO4 6324   0.081  30.136   9.377
   67POPC   GL1 6325   0.329  29.973   9.061
   67POPC   GL2 6326   0.703  29.915   9.042
   67POPC   C1A 6327   0.252  29.871   8.656
   67POPC   D2A 6328   0.499  29.851   8.308
   67POPC   C3A 6329   0.264  29.795   7.953
   67POPC   C4A 6330   0.313  30.105   7.663
   67POPC   C1B 6331   0.915  29.890   8.623
   67POPC   C2B 6332   1.000  29.760   8.188
   67POPC   C3B 6333   0.796  29.898   7.822
   67POPC   C4B 6334   0.936  30.230   7.600
   68POPC   NC3 6335   3.779  19.592   9.505
   68POPC   PO4 6336   3.246  19.998   9.457
   68POPC   GL1 6337   3.445  19.783   9.149
   68POPC   GL2 6338   3.272  19.501   9.057
   68POPC   C1A 6339   3.680  19.678   8.765
   68POPC   D2A 6340   3.603  19.883   8.368
   68POPC   C3A 6341   3.685  19.681   7.984
   68POPC   C4A 6342   3.680  19.868   7.607
   68POPC   C1B 6343   3.183  19.757   8.683
   68POPC   C2B 6344   3.108  19.937   8.292
   68POPC   C3B 6345   3.290  20.038   7.913
   68POPC   C4B 6346   3.189  19.765   7.589
   69POPC   NC3 6347  14.806   1.992   9.804
   69POPC   PO4 6348  14.181   1.947   9.553
   69POPC   GL1 6349  14.471   1.712   9.299
   69POPC   GL2 6350  14.748   1.897   9.197
   69POPC   C1A 6351  14.469   1.643   8.839
   69POPC   D2A 6352  14.284   1.908   8.513
   69POPC   C3A 6353  14.236   1.772   8.079
   69POPC   C4A 6354  14.214   2.082   7.771
   69POPC   C1B 6355  14.685   2.112   8.810
   69POPC   C2B 6356  14.797   1.949   8.433
   69POPC   C3B 6357  14.669   2.047   8.042
   69POPC   C4B 6358  14.653   1.871   7.655
   70POPC   NC3 6359   3.057  36.563   9.360
   70POPC   PO4 6360   2.852  35.982   9.529
   70POPC   GL1 6361   2.668  36.017   9.150
   70POPC   GL2 6362   2.885  36.228   9.023
   70POPC   C1A 6363   2.551  36.055   8.698
   70POPC   D2A 6364   2.759  36.240   8.411
   70POPC   C3A 6365   2.655  35.994   8.100
   70POPC   C4A 6366   2.447  36.094   7.747
   70POPC   C1B 6367   3.024  35.872   8.749
   70POPC   C2B 6368   3.147  35.920   8.327
   70POPC   C3B 6369   3.099  36.180   7.967
   70POPC   C4B 6370   3.275  36.078   7.621
   71POPC   NC3 6371  32.039  44.842   9.531
   71POPC   PO4 6372  32.731  44.759   9.625
   71POPC   GL1 6373  32.457  44.625   9.207
   71POPC   GL2 6374  32.141  44.703   9.059
   71POPC   C1A 6375  32.612  44.587   8.762
   71POPC   D2A 6376  32.646  44.375   8.347
   71POPC   C3A 6377  32.498  44.503   7.947
   71POPC   C4A 6378  32.107  44.460   7.746
   71POPC   C1B 6379  32.137  44.487   8.658
   71POPC   C2B 6380  32.155  44.675   8.268
   71POPC   C3B 6381  32.000  44.971   7.984
   71POPC   C4B 6382  32.137  44.946   7.594
   72POPC   NC3 6383   7.875  42.069   9.376
   72POPC   PO4 6384   8.290  42.555   9.547
   72POPC   GL1 6385   8.168  42.438   9.106
   72POPC   GL2 6386   8.167  42.073   8.978
   72POPC   C1A 6387   8.121  42.411   8.631
   72POPC   D2A 6388   8.199  42.067   8.423
   72POPC   C3A 6389   8.069  42.178   8.049
   72POPC   C4A 6390   8.178  42.443   7.704
   72POPC   C1B 6391   7.778  42.047   8.744
   72POPC   C2B 6392   7.623  42.137   8.353
   72POPC   C3B 6393   7.595  41.967   7.945
   72POPC   C4B 6394   7.697  42.299   7.710
   73POPC   NC3 6395  42.361  22.594   9.723
   73POPC   PO4 6396  42.529  23.056   9.293
   73POPC   GL1 6397  42.231  22.850   9.053
   73POPC   GL2 6398  42.099  22.608   9.218
   73POPC   C1A 6399  42.226  22.794   8.620
   73POPC   D2A 6400  42.404  23.071   8.318
   73POPC   C3A 6401  42.526  22.903   7.918
   73POPC   C4A 6402  42.585  23.107   7.497
   73POPC   C1B 6403  41.956  22.405   8.839
   73POPC   C2B 6404  42.046  22.361   8.403
   73POPC   C3B 6405  42.063  22.693   8.111
   73POPC   C4B 6406  42.077  22.638   7.678
   74POPC   NC3 6407  20.411   9.084   9.476
   74POPC   PO4 6408  21.023   8.731   9.426
   74POPC   GL1 6409  20.705   8.876   9.120
   74POPC   GL2 6410  20.850   9.201   9.008
   74POPC   C1A 6411  20.413   9.092   8.802
   74POPC   D2A 6412  20.507   9.191   8.386
   74POPC   C3A 6413  20.231   9.179   8.041
   74POPC   C4A 6414  20.311   9.038   7.618
   74POPC   C1B 6415  20.944   9.398   8.604
   74POPC   C2B 6416  20.831   9.497   8.160
   74POPC   C3B 6417  20.723   9.151   7.893
   74POPC   C4B 6418  20.826   9.070   7.438
   75POPC   NC3 6419  30.809  35.905   9.458
   75POPC   PO4 6420  31.094  36.504   9.230
   75POPC   GL1 6421  30.670  36.311   9.118
   75POPC   GL2 6422  30.589  35.974   8.997
   75POPC   C1A 6423  30.501  36.427   8.730
   75POPC   D2A 6424  30.777  36.584   8.383
   75POPC   C3A 6425  30.880  36.263   8.097
   75POPC   C4A 6426  30.515  36.147   7.906
   75POPC   C1B 6427  30.785  36.023   8.591
   75POPC   C2B 6428  30.745  35.784   8.211
   75POPC   C3B 6429  30.909  35.765   7.778
   75POPC   C4B 6430  30.869  35.675   7.260
   76POPC   NC3 6431   3.050  31.345   9.560
   76POPC   PO4 6432   3.669  31.692   9.642
   76POPC   GL1 6433   3.675  31.461   9.249
   76POPC   GL2 6434   3.392  31.315   9.187
   76POPC   C1A 6435   3.727  31.552   8.839
   76POPC   D2A 6436   3.892  31.602   8.422
   76POPC   C3A 6437   3.560  31.742   8.148
   76POPC   C4A 6438   3.467  31.514   7.772
   76POPC   C1B 6439   3.344  31.171   8.776
   76POPC   C2B 6440   3.425  31.326   8.407
   76POPC   C3B 6441   3.325  31.101   8.050
   76POPC   C4B 6442   3.396  30.977   7.666
   77POPC   NC3 6443  19.892  12.447   9.467
   77POPC   PO4 6444  20.187  11.749   9.449
   77POPC   GL1 6445  19.919  11.883   9.099
   77POPC   GL2 6446  19.917  12.263   8.986
   77POPC   C1A 6447  19.893  11.862   8.664
   77POPC   D2A 6448  20.065  12.198   8.446
   77POPC   C3A 6449  20.033  12.175   8.029
   77POPC   C4A 6450  19.915  11.912   7.699
   77POPC   C1B 6451  19.605  12.291   8.629
   77POPC   C2B 6452  19.570  12.373   8.186
   77POPC   C3B 6453  19.654  12.339   7.739
   77POPC   C4B 6454  19.976  12.363   7.397
   78POPC   NC3 6455  29.507   0.784   9.292
   78POPC   PO4 6456  29.987   0.533   9.672
   78POPC   GL1 6457  30.115   0.331   9.288
   78POPC   GL2 6458  29.793   0.374   9.165
   78POPC   C1A 6459  30.189   0.319   8.852
   78POPC   D2A 6460  30.177   0.421   8.398
   78POPC   C3A 6461  30.479   0.329   8.084
   78POPC   C4A 6462  30.260   0.276   7.702
   78POPC   C1B 6463  29.742   0.521   8.711
   78POPC   C2B 6464  29.700   0.292   8.347
   78POPC   C3B 6465  29.870   0.472   7.980
   78POPC   C4B 6466  29.817   0.767   7.677
   79POPC   NC3 6467  12.383   2.540   9.607
   79POPC   PO4 6468  11.943   3.096   9.439
   79POPC   GL1 6469  12.104   2.832   9.076
   79POPC   GL2 6470  12.369   2.625   9.109
   79POPC   C1A 6471  12.171   2.759   8.613
   79POPC   D2A 6472  11.898   2.522   8.326
   79POPC   C3A 6473  12.013   2.441   7.914
   79POPC   C4A 6474  12.164   2.730   7.609
   79POPC   C1B 6475  12.511   2.415   8.807
   79POPC   C2B 6476  12.689   2.594   8.475
   79POPC   C3B 6477  12.434   2.647   8.123
   79POPC   C4B 6478  12.555   2.428   7.765
   80POPC   NC3 6479  14.612   1.285   9.594
   80POPC   PO4 6480  14.125   0.949   9.516
   80POPC   GL1 6481  14.360   1.211   9.157
   80POPC   GL2 6482  14.779   1.329   9.124
   80POPC   C1A 6483  14.143   1.192   8.762
   80POPC   D2A 6484  14.170   0.911   8.406
   80POPC   C3A 6485  14.058   1.160   8.097
   80POPC   C4A 6486  14.243   1.323   7.757
   80POPC   C1B 6487  14.655   1.167   8.719
   80POPC   C2B 6488  14.457   1.393   8.373
   80POPC   C3B 6489  14.679   1.503   8.000
   80POPC   C4B 6490  14.716   1.391   7.551
   81POPC   NC3 6491  43.651  41.775   9.544
   81POPC   PO4 6492  44.313  41.548   9.614
   81POPC   GL1 6493  44.075  41.514   9.233
   81POPC   GL2 6494  43.775  41.364   9.253
   81POPC   C1A 6495  44.157  41.606   8.784
   81POPC   D2A 6496  44.125  41.353   8.400
   81POPC   C3A 6497  44.036  41.613   8.053
   81POPC   C4A 6498  43.968  41.890   7.698
   81POPC   C1B 6499  43.799  41.266   8.830
   81POPC   C2B 6500  43.675  41.590   8.529
   81POPC   C3B 6501  43.531  41.681   8.112
   81POPC   C4B 6502  43.651  41.516   7.707
   82POPC   NC3 6503   4.057  10.937   9.518
   82POPC   PO4 6504   3.353  10.764   9.555
   82POPC   GL1 6505   3.499  10.536   9.157
   82POPC   GL2 6506   3.862  10.509   9.117
   82POPC   C1A 6507   3.564  10.327   8.764
   82POPC   D2A 6508   3.493  10.463   8.339
   82POPC   C3A 6509   3.509  10.223   7.952
   82POPC   C4A 6510   3.532  10.343   7.495
   82POPC   C1B 6511   4.070  10.425   8.704
   82POPC   C2B 6512   4.010  10.457   8.240
   82POPC   C3B 6513   3.995  10.418   7.778
   82POPC   C4B 6514   4.011  10.445   7.318
   83POPC   NC3 6515  11.797  43.523   9.524
   83POPC   PO4 6516  11.988  44.126   9.740
   83POPC   GL1 6517  12.051  43.932   9.305
   83POPC   GL2 6518  12.395  43.879   9.202
   83POPC   C1A 6519  11.983  43.889   8.835
   83POPC   D2A 6520  11.824  44.027   8.414
   83POPC   C3A 6521  11.849  43.741   8.052
   83POPC   C4A 6522  12.053  43.880   7.687
   83POPC   C1B 6523  12.507  43.805   8.756
   83POPC   C2B 6524  12.285  43.779   8.344
   83POPC   C3B 6525  12.322  43.537   7.960
   83POPC   C4B 6526  12.374  43.531   7.473
   84POPC   NC3 6527  42.908  18.257   9.864
   84POPC   PO4 6528  42.466  18.658   9.489
   84POPC   GL1 6529  42.202  18.467   9.160
   84POPC   GL2 6530  42.411  18.195   8.985
   84POPC   C1A 6531  42.053  18.488   8.720
   84POPC   D2A 6532  41.921  18.557   8.299
   84POPC   C3A 6533  42.149  18.425   7.883
   84POPC   C4A 6534  42.348  18.061   7.691
   84POPC   C1B 6535  42.536  18.601   8.804
   84POPC   C2B 6536  42.418  18.712   8.406
   84POPC   C3B 6537  42.597  18.485   8.102
   84POPC   C4B 6538  42.704  18.461   7.700
   85POPC   NC3 6539  24.154  10.601   9.535
   85POPC   PO4 6540  23.450  10.936   9.475
   85POPC   GL1 6541  23.744  10.725   9.171
   85POPC   GL2 6542  23.944  10.418   9.122
   85POPC   C1A 6543  23.591  10.541   8.779
   85POPC   D2A 6544  23.675  10.222   8.475
   85POPC   C3A 6545  23.539  10.303   8.062
   85POPC   C4A 6546  23.484  10.630   7.729
   85POPC   C1B 6547  24.094  10.479   8.731
   85POPC   C2B 6548  24.007  10.588   8.359
   85POPC   C3B 6549  24.067  10.402   8.005
   85POPC   C4B 6550  23.836  10.270   7.652
   86POPC   NC3 6551  37.262  36.198   9.390
   86POPC   PO4 6552  37.982  36.232   9.479
   86POPC   GL1 6553  37.956  36.068   9.067
   86POPC   GL2 6554  37.646  35.945   9.169
   86POPC   C1A 6555  37.950  36.013   8.612
   86POPC   D2A 6556  37.885  36.187   8.229
   86POPC   C3A 6557  37.862  35.841   7.944
   86POPC   C4A 6558  37.831  35.977   7.546
   86POPC   C1B 6559  37.477  35.981   8.755
   86POPC   C2B 6560  37.490  35.865   8.305
   86POPC   C3B 6561  37.381  35.980   7.868
   86POPC   C4B 6562  37.418  36.266   7.495
   87POPC   NC3 6563  32.687  43.318   9.461
   87POPC   PO4 6564  33.322  42.926   9.528
   87POPC   GL1 6565  33.074  42.963   9.169
   87POPC   GL2 6566  32.815  42.694   9.178
   87POPC   C1A 6567  33.096  43.260   8.806
   87POPC   D2A 6568  32.886  43.356   8.404
   87POPC   C3A 6569  33.109  43.191   8.048
   87POPC   C4A 6570  33.254  43.409   7.669
   87POPC   C1B 6571  32.675  42.986   8.848
   87POPC   C2B 6572  32.730  42.863   8.441
   87POPC   C3B 6573  32.623  42.955   8.041
   87POPC   C4B 6574  32.725  43.224   7.707
   88POPC   NC3 6575  43.130   5.516   9.676
   88POPC   PO4 6576  42.837   6.067   9.438
   88POPC   GL1 6577  43.181   5.916   9.184
   88POPC   GL2 6578  43.449   5.683   9.294
   88POPC   C1A 6579  43.237   5.974   8.773
   88POPC   D2A 6580  43.334   6.238   8.482
   88POPC   C3A 6581  43.106   6.119   8.108
   88POPC   C4A 6582  43.218   6.052   7.682
   88POPC   C1B 6583  43.398   5.501   8.894
   88POPC   C2B 6584  43.239   5.413   8.497
   88POPC   C3B 6585  43.349   5.541   8.064
   88POPC   C4B 6586  43.379   5.588   7.624
   89POPC   NC3 6587  14.960  13.203   9.342
   89POPC   PO4 6588  15.029  13.848   9.606
   89POPC   GL1 6589  14.930  13.660   9.156
   89POPC   GL2 6590  15.289  13.579   9.022
   89POPC   C1A 6591  14.933  13.796   8.726
   89POPC   D2A 6592  15.275  13.692   8.465
   89POPC   C3A 6593  15.198  13.492   8.166
   89POPC   C4A 6594  15.215  13.658   7.781
   89POPC   C1B 6595  15.076  13.287   8.710
   89POPC   C2B 6596  14.840  13.146   8.343
   89POPC   C3B 6597  15.008  13.119   7.905
   89POPC   C4B 6598  14.917  13.322   7.544
   90POPC   NC3 6599  41.332  36.599   9.400
   90POPC   PO4 6600  41.336  35.875   9.467
   90POPC   GL1 6601  41.334  36.138   9.128
   90POPC   GL2 6602  41.655  36.326   9.128
   90POPC   C1A 6603  41.480  36.052   8.721
   90POPC   D2A 6604  41.712  35.969   8.391
   90POPC   C3A 6605  41.455  35.918   8.023
   90POPC   C4A 6606  41.511  35.749   7.597
   90POPC   C1B 6607  41.558  36.561   8.720
   90POPC   C2B 6608  41.525  36.462   8.230
   90POPC   C3B 6609  41.268  36.550   7.826
   90POPC   C4B 6610  41.122  36.571   7.385
   91POPC   NC3 6611  23.677  12.748   9.670
   91POPC   PO4 6612  23.388  13.305   9.490
   91POPC   GL1 6613  23.643  12.958   9.213
   91POPC   GL2 6614  23.942  13.040   9.058
   91POPC   C1A 6615  23.738  12.598   8.898
   91POPC   D2A 6616  23.994  12.625   8.529
   91POPC   C3A 6617  23.801  12.716   8.129
   91POPC   C4A 6618  24.020  12.575   7.778
   91POPC   C1B 6619  23.637  13.011   8.662
   91POPC   C2B 6620  23.503  13.153   8.274
   91POPC   C3B 6621  23.554  13.085   7.835
   91POPC   C4B 6622  23.332  12.731   7.724
   92POPC   NC3 6623  14.393  26.850   9.587
   92POPC   PO4 6624  14.953  26.615   9.348
   92POPC   GL1 6625  14.586  26.694   9.068
   92POPC   GL2 6626  14.272  26.926   9.109
   92POPC   C1A 6627  14.316  26.683   8.671
   92POPC   D2A 6628  14.413  26.586   8.252
   92POPC   C3A 6629  14.201  26.788   7.943
   92POPC   C4A 6630  14.289  27.090   7.638
   92POPC   C1B 6631  14.547  27.121   8.818
   92POPC   C2B 6632  14.705  26.950   8.467
   92POPC   C3B 6633  14.634  27.043   8.060
   92POPC   C4B 6634  14.809  27.071   7.699
   93POPC   NC3 6635  10.205  44.756   9.404
   93POPC   PO4 6636  10.873  44.800   9.452
   93POPC   GL1 6637  10.785  44.651   9.105
   93POPC   GL2 6638  10.495  44.434   9.142
   93POPC   C1A 6639  10.734  44.844   8.758
   93POPC   D2A 6640  10.676  44.512   8.525
   93POPC   C3A 6641  10.699  44.553   8.131
   93POPC   C4A 6642  10.613  44.550   7.720
   93POPC   C1B 6643  10.253  44.551   8.795
   93POPC   C2B 6644  10.167  44.439   8.409
   93POPC   C3B 6645  10.228  44.390   8.018
   93POPC   C4B 6646  10.173  44.791   7.890
   94POPC   NC3 6647  17.265   2.440   9.496
   94POPC   PO4 6648  17.608   3.054   9.658
   94POPC   GL1 6649  17.461   2.899   9.296
   94POPC   GL2 6650  17.168   3.084   9.303
   94POPC   C1A 6651  17.572   2.732   8.904
   94POPC   D2A 6652  17.355   2.723   8.529
   94POPC   C3A 6653  17.568   2.557   8.189
   94POPC   C4A 6654  17.616   2.525   7.760
   94POPC   C1B 6655  17.227   3.106   8.873
   94POPC   C2B 6656  17.133   3.185   8.434
   94POPC   C3B 6657  17.188   2.932   8.077
   94POPC   C4B 6658  17.272   3.037   7.672
   95POPC   NC3 6659  34.202  35.195   9.413
   95POPC   PO4 6660  34.699  35.665   9.512
   95POPC   GL1 6661  34.924  35.553   9.129
   95POPC   GL2 6662  35.009  35.157   9.187
   95POPC   C1A 6663  34.967  35.728   8.702
   95POPC   D2A 6664  35.109  35.602   8.278
   95POPC   C3A 6665  34.770  35.512   7.989
   95POPC   C4A 6666  34.309  35.528   7.898
   95POPC   C1B 6667  34.719  35.186   8.835
   95POPC   C2B 6668  34.594  35.225   8.411
   95POPC   C3B 6669  34.638  34.989   8.046
   95POPC   C4B 6670  34.568  35.158   7.644
   96POPC   NC3 6671  16.074  29.562   9.728
   96POPC   PO4 6672  15.575  29.141   9.485
   96POPC   GL1 6673  15.807  29.279   9.162
   96POPC   GL2 6674  16.125  29.394   9.249
   96POPC   C1A 6675  15.930  29.034   8.837
   96POPC   D2A 6676  15.714  28.832   8.510
   96POPC   C3A 6677  15.983  28.831   8.183
   96POPC   C4A 6678  16.094  28.982   7.762
   96POPC   C1B 6679  16.099  29.532   8.816
   96POPC   C2B 6680  15.988  29.347   8.424
   96POPC   C3B 6681  15.712  29.280   8.107
   96POPC   C4B 6682  15.888  29.451   7.729
   97POPC   NC3 6683   5.470   2.258   9.688
   97POPC   PO4 6684   6.048   2.039   9.617
   97POPC   GL1 6685   5.939   2.061   9.203
   97POPC   GL2 6686   5.596   2.065   9.182
   97POPC   C1A 6687   5.929   1.778   8.855
   97POPC   D2A 6688   6.103   1.735   8.464
   97POPC   C3A 6689   5.824   1.897   8.171
   97POPC   C4A 6690   5.927   1.851   7.734
   97POPC   C1B 6691   5.683   2.240   8.773
   97POPC   C2B 6692   5.594   2.354   8.324
   97POPC   C3B 6693   5.756   2.318   7.903
   97POPC   C4B 6694   6.065   2.393   7.617
   98POPC   NC3 6695  41.897  37.799   9.406
   98POPC   PO4 6696  42.312  37.568   9.829
   98POPC   GL1 6697  42.361  37.756   9.298
   98POPC   GL2 6698  42.115  37.479   9.105
   98POPC   C1A 6699  42.250  37.876   8.821
   98POPC   D2A 6700  42.345  37.741   8.357
   98POPC   C3A 6701  42.154  37.875   7.955
   98POPC   C4A 6702  42.332  37.750   7.574
   98POPC   C1B 6703  42.247  37.368   8.695
   98POPC   C2B 6704  42.122  37.275   8.322
   98POPC   C3B 6705  42.235  37.354   7.905
   98POPC   C4B 6706  42.083  37.280   7.496
   99POPC   NC3 6707  23.008  44.451   9.442
   99POPC   PO4 6708  22.624  44.929   9.579
   99POPC   GL1 6709  22.683  44.785   9.159
   99POPC   GL2 6710  22.509  44.453   9.077
   99POPC   C1A 6711  22.555  44.803   8.726
   99POPC   D2A 6712  22.794  44.685   8.390
   99POPC   C3A 6713  22.732  44.752   8.004
   99POPC   C4A 6714  23.001  44.628   7.688
   99POPC   C1B 6715  22.897  44.433   8.817
   99POPC   C2B 6716  23.125  44.231   8.484
   99POPC   C3B 6717  23.231  44.338   8.053
   99POPC   C4B 6718  23.449  44.371   7.658
  100POPC   NC3 6719  10.710   3.848   9.618
  100POPC   PO4 6720  10.420   3.188   9.691
  100POPC   GL1 6721  10.376   3.366   9.233
  100POPC   GL2 6722  10.587   3.640   9.164
  100POPC   C1A 6723  10.205   3.327   8.756
  100POPC   D2A 6724  10.099   3.153   8.319
  100POPC   C3A 6725  10.316   3.320   7.918
  100POPC   C4A 6726  10.331   3.783   7.819
  100POPC   C1B 6727  10.711   3.415   8.797
  100POPC   C2B 6728  10.592   3.314   8.374
  100POPC   C3B 6729  10.828   3.309   8.013
  100POPC   C4B 6730  10.822   3.602   7.708
  101POPC   NC3 6731   0.219   1.200   9.382
  101POPC   PO4 6732   0.873   1.433   9.454
  101POPC   GL1 6733   0.679   1.380   9.106
  101POPC   GL2 6734   0.708   1.031   9.113
  101POPC   C1A 6735   0.393   1.445   8.775
  101POPC   D2A 6736   0.332   1.248   8.367
  101POPC   C3A 6737   0.321   1.396   7.916
  101POPC   C4A 6738   0.205   1.167   7.503
  101POPC   C1B 6739   0.430   0.909   8.773
  101POPC   C2B 6740   0.301   0.704   8.392
  101POPC   C3B 6741   0.273   0.884   8.015
  101POPC   C4B 6742   0.595   0.979   7.778
  102POPC   NC3 6743  19.742  11.471   9.386
  102POPC   PO4 6744  20.181  10.886   9.501
  102POPC   GL1 6745  20.062  11.141   9.126
  102POPC   GL2 6746  19.684  11.134   8.999
  102POPC   C1A 6747  20.079  11.380   8.735
  102POPC   D2A 6748  19.853  11.241   8.367
  102POPC   C3A 6749  20.073  11.090   8.010
  102POPC   C4A 6750  19.870  10.984   7.625
  102POPC   C1B 6751  19.521  11.482   8.720
  102POPC   C2B 6752  19.580  11.684   8.287
  102POPC   C3B 6753  19.750  11.487   7.905
  102POPC   C4B 6754  19.510  11.473   7.501
  103POPC   NC3 6755  24.927  40.376   9.858
  103POPC   PO4 6756  25.481  40.683   9.657
  103POPC   GL1 6757  25.319  40.601   9.260
  103POPC   GL2 6758  25.509  40.819   9.111
  103POPC   C1A 6759  25.209  40.593   8.788
  103POPC   D2A 6760  25.045  40.734   8.415
  103POPC   C3A 6761  25.200  40.570   8.041
  103POPC   C4A 6762  25.223  40.808   7.626
  103POPC   C1B 6763  25.642  40.898   8.728
  103POPC   C2B 6764  25.661  40.804   8.316
  103POPC   C3B 6765  25.688  40.685   7.926
  103POPC   C4B 6766  25.720  40.916   7.588
  104POPC   NC3 6767  17.576   7.746   9.555
  104POPC   PO4 6768  17.451   8.447   9.726
  104POPC   GL1 6769  17.473   8.273   9.302
  104POPC   GL2 6770  17.343   8.448   9.023
  104POPC   C1A 6771  17.720   8.137   8.938
  104POPC   D2A 6772  17.706   7.928   8.532
  104POPC   C3A 6773  17.426   8.061   8.208
  104POPC   C4A 6774  17.593   8.214   7.813
  104POPC   C1B 6775  17.543   8.560   8.646
  104POPC   C2B 6776  17.601   8.551   8.202
  104POPC   C3B 6777  17.334   8.641   7.845
  104POPC   C4B 6778  17.138   8.533   7.420
  105POPC   NC3 6779  17.239  22.175   9.441
  105POPC   PO4 6780  17.628  21.769   9.460
  105POPC   GL1 6781  17.553  21.990   9.067
  105POPC   GL2 6782  17.594  22.348   9.136
  105POPC   C1A 6783  17.444  21.993   8.631
  105POPC   D2A 6784  17.127  22.064   8.321
  105POPC   C3A 6785  17.311  22.019   7.926
  105POPC   C4A 6786  17.580  21.862   7.604
  105POPC   C1B 6787  17.620  22.462   8.714
  105POPC   C2B 6788  17.519  22.379   8.267
  105POPC   C3B 6789  17.771  22.261   7.901
  105POPC   C4B 6790  17.713  22.347   7.452
  106POPC   NC3 6791  37.895  10.040   9.382
  106POPC   PO4 6792  37.819   9.387   9.581
  106POPC   GL1 6793  37.574   9.452   9.158
  106POPC   GL2 6794  37.603   9.815   9.032
  106POPC   C1A 6795  37.654   9.474   8.663
  106POPC   D2A 6796  37.435   9.707   8.386
  106POPC   C3A 6797  37.618   9.652   7.996
  106POPC   C4A 6798  37.739   9.634   7.570
  106POPC   C1B 6799  37.961   9.876   8.723
  106POPC   C2B 6800  37.952   9.937   8.277
  106POPC   C3B 6801  37.844  10.079   7.860
  106POPC   C4B 6802  38.113   9.974   7.509
  107POPC   NC3 6803   7.245  17.997   9.320
  107POPC   PO4 6804   7.688  18.317   9.694
  107POPC   GL1 6805   7.616  18.375   9.184
  107POPC   GL2 6806   7.777  18.631   9.097
  107POPC   C1A 6807   7.367  18.331   8.795
  107POPC   D2A 6808   7.280  18.492   8.411
  107POPC   C3A 6809   7.304  18.231   8.075
  107POPC   C4A 6810   7.388  18.590   7.882
  107POPC   C1B 6811   7.879  18.299   8.748
  107POPC   C2B 6812   7.759  18.211   8.294
  107POPC   C3B 6813   7.761  18.246   7.824
  107POPC   C4B 6814   7.872  18.128   7.373
  108POPC   NC3 6815  12.335  15.198   9.570
  108POPC   PO4 6816  11.727  15.444   9.481
  108POPC   GL1 6817  11.832  15.220   9.094
  108POPC   GL2 6818  12.149  15.070   9.110
  108POPC   C1A 6819  12.016  15.300   8.690
  108POPC   D2A 6820  11.879  15.421   8.311
  108POPC   C3A 6821  12.157  15.383   7.977
  108POPC   C4A 6822  12.066  15.202   7.612
  108POPC   C1B 6823  11.922  14.796   8.798
  108POPC   C2B 6824  11.822  14.923   8.383
  108POPC   C3B 6825  12.028  14.882   8.019
  108POPC   C4B 6826  12.112  14.561   7.729
  109POPC   NC3 6827   8.956  40.017   9.424
  109POPC   PO4 6828   8.288  40.012   9.491
  109POPC   GL1 6829   8.520  40.061   9.118
  109POPC   GL2 6830   8.547  39.707   9.036
  109POPC   C1A 6831   8.783  40.067   8.730
  109POPC   D2A 6832   9.145  39.977   8.437
  109POPC   C3A 6833   9.088  40.076   7.987
  109POPC   C4A 6834   8.960  40.307   7.614
  109POPC   C1B 6835   8.817  39.544   8.680
  109POPC   C2B 6836   9.070  39.476   8.301
  109POPC   C3B 6837   8.981  39.596   7.875
  109POPC   C4B 6838   9.207  39.863   7.539
  110POPC   NC3 6839  31.479  37.481   9.679
  110POPC   PO4 6840  31.584  36.860   9.506
  110POPC   GL1 6841  31.560  36.788   9.065
  110POPC   GL2 6842  31.839  36.599   8.998
  110POPC   C1A 6843  31.476  36.683   8.633
  110POPC   D2A 6844  31.551  36.969   8.299
  110POPC   C3A 6845  31.284  37.008   7.978
  110POPC   C4A 6846  31.143  36.620   7.829
  110POPC   C1B 6847  31.965  36.520   8.554
  110POPC   C2B 6848  31.869  36.618   8.109
  110POPC   C3B 6849  31.645  36.774   7.727
  110POPC   C4B 6850  31.764  36.819   7.275
  111POPC   NC3 6851  27.824  14.206   9.548
  111POPC   PO4 6852  27.366  14.640   9.424
  111POPC   GL1 6853  27.639  14.443   9.128
  111POPC   GL2 6854  27.778  14.088   9.066
  111POPC   C1A 6855  27.808  14.490   8.739
  111POPC   D2A 6856  27.659  14.706   8.422
  111POPC   C3A 6857  27.700  14.529   8.045
  111POPC   C4A 6858  27.593  14.840   7.758
  111POPC   C1B 6859  27.458  14.117   8.754
  111POPC   C2B 6860  27.544  14.058   8.317
  111POPC   C3B 6861  27.345  14.168   7.951
  111POPC   C4B 6862  27.474  14.351   7.598
  112POPC   NC3 6863  14.107  43.857   9.466
  112POPC   PO4 6864  14.667  43.571   9.307
  112POPC   GL1 6865  14.547  44.003   9.126
  112POPC   GL2 6866  14.195  44.092   9.041
  112POPC   C1A 6867  14.541  44.200   8.708
  112POPC   D2A 6868  14.419  44.044   8.360
  112POPC   C3A 6869  14.474  44.269   8.009
  112POPC   C4A 6870  14.586  44.008   7.694
  112POPC   C1B 6871  13.952  44.030   8.683
  112POPC   C2B 6872  13.974  43.827   8.329
  112POPC   C3B 6873  14.135  43.880   7.939
  112POPC   C4B 6874  14.214  43.596   7.602
  113POPC   NC3 6875  16.658  41.432   9.513
  113POPC   PO4 6876  16.576  42.152   9.522
  113POPC   GL1 6877  16.717  41.825   9.209
  113POPC   GL2 6878  17.007  41.573   9.156
  113POPC   C1A 6879  16.656  41.719   8.809
  113POPC   D2A 6880  16.592  41.426   8.466
  113POPC   C3A 6881  16.745  41.545   8.051
  113POPC   C4A 6882  16.507  41.601   7.687
  113POPC   C1B 6883  17.102  41.437   8.711
  113POPC   C2B 6884  17.298  41.358   8.295
  113POPC   C3B 6885  17.155  41.264   7.858
  113POPC   C4B 6886  16.976  41.531   7.547
  114POPC   NC3 6887  43.638   1.618   9.561
  114POPC   PO4 6888  44.190   1.050   9.640
  114POPC   GL1 6889  44.210   1.034   9.149
  114POPC   GL2 6890  44.446   0.816   9.032
  114POPC   C1A 6891  43.987   1.267   8.749
  114POPC   D2A 6892  43.699   1.403   8.417
  114POPC   C3A 6893  43.906   1.324   8.021
  114POPC   C4A 6894  43.727   1.015   7.789
  114POPC   C1B 6895  44.450   1.081   8.666
  114POPC   C2B 6896  44.358   1.112   8.210
  114POPC   C3B 6897  44.240   0.997   7.753
  114POPC   C4B 6898  44.139   0.981   7.284
  115POPC   NC3 6899  30.388   3.572   9.481
  115POPC   PO4 6900  30.799   3.137   9.737
  115POPC   GL1 6901  30.794   3.361   9.281
  115POPC   GL2 6902  30.879   3.673   9.326
  115POPC   C1A 6903  30.619   3.699   8.893
  115POPC   D2A 6904  30.663   3.887   8.486
  115POPC   C3A 6905  30.348   3.792   8.168
  115POPC   C4A 6906  30.439   3.563   7.808
  115POPC   C1B 6907  31.091   3.549   8.925
  115POPC   C2B 6908  31.090   3.587   8.494
  115POPC   C3B 6909  30.873   3.619   8.118
  115POPC   C4B 6910  30.992   3.543   7.728
  116POPC   NC3 6911   4.262  11.639   9.509
  116POPC   PO4 6912   4.442  11.070   9.740
  116POPC   GL1 6913   4.379  11.240   9.244
  116POPC   GL2 6914   4.112  11.362   9.020
  116POPC   C1A 6915   4.557  11.497   8.859
  116POPC   D2A 6916   4.602  11.433   8.417
  116POPC   C3A 6917   4.318  11.422   8.072
  116POPC   C4A 6918   4.509  11.424   7.665
  116POPC   C1B 6919   4.142  11.269   8.610
  116POPC   C2B 6920   4.128  10.975   8.294
  116POPC   C3B 6921   3.948  11.076   7.902
  116POPC   C4B 6922   3.947  11.286   7.505
  117POPC   NC3 6923  17.636  41.576   9.659
  117POPC   PO4 6924  17.019  41.793   9.638
  117POPC   GL1 6925  17.386  41.883   9.314
  117POPC   GL2 6926  17.662  41.610   9.151
  117POPC   C1A 6927  17.320  41.885   8.866
  117POPC   D2A 6928  17.613  41.681   8.596
  117POPC   C3A 6929  17.676  41.805   8.169
  117POPC   C4A 6930  17.552  41.576   7.825
  117POPC   C1B 6931  17.976  41.393   8.855
  117POPC   C2B 6932  18.079  41.520   8.430
  117POPC   C3B 6933  18.068  41.349   8.013
  117POPC   C4B 6934  17.891  41.273   7.616
  118POPC   NC3 6935  29.005   6.434   9.430
  118POPC   PO4 6936  29.521   6.960   9.490
  118POPC   GL1 6937  29.397   6.681   9.141
  118POPC   GL2 6938  29.471   6.328   9.171
  118POPC   C1A 6939  29.100   6.577   8.797
  118POPC   D2A 6940  28.871   6.721   8.432
  118POPC   C3A 6941  29.073   6.635   8.039
  118POPC   C4A 6942  29.115   6.711   7.623
  118POPC   C1B 6943  29.603   6.312   8.767
  118POPC   C2B 6944  29.418   6.426   8.391
  118POPC   C3B 6945  29.420   6.266   7.983
  118POPC   C4B 6946  29.526   6.422   7.593
  119POPC   NC3 6947   7.623  12.721   9.367
  119POPC   PO4 6948   7.046  12.423   9.651
  119POPC   GL1 6949   7.049  12.680   9.248
  119POPC   GL2 6950   7.215  13.033   9.211
  119POPC   C1A 6951   7.188  12.702   8.798
  119POPC   D2A 6952   7.110  12.782   8.355
  119POPC   C3A 6953   7.461  12.733   8.098
  119POPC   C4A 6954   7.687  12.995   7.839
  119POPC   C1B 6955   7.264  13.227   8.771
  119POPC   C2B 6956   7.172  13.366   8.341
  119POPC   C3B 6957   7.205  13.162   7.925
  119POPC   C4B 6958   7.287  13.198   7.456
  120POPC   NC3 6959  19.709  27.871   9.672
  120POPC   PO4 6960  19.752  28.489   9.533
  120POPC   GL1 6961  19.624  28.220   9.241
  120POPC   GL2 6962  19.955  28.255   9.075
  120POPC   C1A 6963  19.516  28.342   8.849
  120POPC   D2A 6964  19.815  28.258   8.551
  120POPC   C3A 6965  19.719  28.315   8.144
  120POPC   C4A 6966  19.849  28.301   7.741
  120POPC   C1B 6967  19.922  28.663   8.858
  120POPC   C2B 6968  19.976  28.760   8.428
  120POPC   C3B 6969  20.139  28.601   8.030
  120POPC   C4B 6970  20.322  28.488   7.631
  121POPC   NC3 6971  21.839  42.264   9.233
  121POPC   PO4 6972  22.495  42.349   9.483
  121POPC   GL1 6973  22.334  42.371   9.074
  121POPC   GL2 6974  22.119  42.656   9.032
  121POPC   C1A 6975  22.285  42.133   8.668
  121POPC   D2A 6976  22.222  42.224   8.229
  121POPC   C3A 6977  22.271  42.013   7.839
  121POPC   C4A 6978  22.169  42.038   7.365
  121POPC   C1B 6979  22.464  42.642   8.673
  121POPC   C2B 6980  22.354  42.816   8.285
  121POPC   C3B 6981  21.982  42.638   8.084
  121POPC   C4B 6982  21.913  42.365   7.730
  122POPC   NC3 6983  34.061  10.959   9.494
  122POPC   PO4 6984  34.520  10.380   9.657
  122POPC   GL1 6985  34.500  10.425   9.205
  122POPC   GL2 6986  34.314  10.710   9.132
  122POPC   C1A 6987  34.759  10.529   8.837
  122POPC   D2A 6988  34.942  10.460   8.433
  122POPC   C3A 6989  34.749  10.611   8.079
  122POPC   C4A 6990  34.777  10.429   7.689
  122POPC   C1B 6991  34.457  10.935   8.777
  122POPC   C2B 6992  34.667  11.060   8.396
  122POPC   C3B 6993  34.763  11.086   7.932
  122POPC   C4B 6994  34.640  10.895   7.497
  123POPC   NC3 6995  10.046  36.921   9.792
  123POPC   PO4 6996   9.573  36.515   9.562
  123POPC   GL1 6997   9.738  36.806   9.216
  123POPC   GL2 6998   9.501  37.058   9.164
  123POPC   C1A 6999   9.771  36.997   8.761
  123POPC   D2A 7000   9.842  36.924   8.346
  123POPC   C3A 7001   9.866  37.060   7.930
  123POPC   C4A 7002   9.856  36.725   7.618
  123POPC   C1B 7003   9.306  36.775   8.864
  123POPC   C2B 7004   9.284  36.837   8.419
  123POPC   C3B 7005   9.443  36.796   8.027
  123POPC   C4B 7006   9.431  36.997   7.657
  124POPC   NC3 7007   0.288  41.999   9.831
  124POPC   PO4 7008   0.699  41.517   9.485
  124POPC   GL1 7009   0.779  41.565   9.096
  124POPC   GL2 7010   0.755  41.904   9.111
  124POPC   C1A 7011   0.762  41.340   8.723
  124POPC   D2A 7012   1.010  41.275   8.372
  124POPC   C3A 7013   0.780  41.388   7.977
  124POPC   C4A 7014   0.422  41.351   7.706
  124POPC   C1B 7015   0.461  41.804   8.736
  124POPC   C2B 7016   0.162  41.789   8.383
  124POPC   C3B 7017   0.354  41.803   7.979
  124POPC   C4B 7018   0.627  42.011   7.717
  125POPC   NC3 7019  26.482  30.515   9.516
  125POPC   PO4 7020  27.129  30.734   9.567
  125POPC   GL1 7021  26.917  30.552   9.233
  125POPC   GL2 7022  26.642  30.748   9.120
  125POPC   C1A 7023  27.035  30.570   8.798
  125POPC   D2A 7024  26.893  30.501   8.381
  125POPC   C3A 7025  27.178  30.525   8.071
  125POPC   C4A 7026  26.968  30.666   7.763
  125POPC   C1B 7027  26.525  30.604   8.727
  125POPC   C2B 7028  26.470  30.810   8.342
  125POPC   C3B 7029  26.488  30.671   7.931
  125POPC   C4B 7030  26.558  30.918   7.557
  126POPC   NC3 7031  25.991  28.023   9.533
  126POPC   PO4 7032  26.416  27.523   9.753
  126POPC   GL1 7033  26.345  27.644   9.262
  126POPC   GL2 7034  26.351  27.995   9.110
  126POPC   C1A 7035  26.022  27.648   8.859
  126POPC   D2A 7036  26.008  27.779   8.413
  126POPC   C3A 7037  25.965  27.467   8.079
  126POPC   C4A 7038  25.816  27.680   7.700
  126POPC   C1B 7039  26.487  27.710   8.729
  126POPC   C2B 7040  26.458  27.588   8.264
  126POPC   C3B 7041  26.291  27.801   7.882
  126POPC   C4B 7042  26.273  27.527   7.511
  127POPC   NC3 7043  33.058   9.165   9.351
  127POPC   PO4 7044  33.361   8.517   9.481
  127POPC   GL1 7045  33.286   8.769   9.098
  127POPC   GL2 7046  32.895   8.801   9.022
  127POPC   C1A 7047  33.202   8.793   8.641
  127POPC   D2A 7048  32.827   8.803   8.386
  127POPC   C3A 7049  33.085   8.778   8.023
  127POPC   C4A 7050  33.145   8.811   7.591
  127POPC   C1B 7051  32.883   9.198   8.714
  127POPC   C2B 7052  32.947   9.274   8.242
  127POPC   C3B 7053  32.771   9.117   7.826
  127POPC   C4B 7054  32.807   9.083   7.340
  128POPC   NC3 7055   6.334  17.372   9.588
  128POPC   PO4 7056   6.784  17.865   9.442
  128POPC   GL1 7057   6.717  17.481   9.244
  128POPC   GL2 7058   6.467  17.655   9.115
  128POPC   C1A 7059   6.812  17.305   8.837
  128POPC   D2A 7060   6.991  17.542   8.481
  128POPC   C3A 7061   6.793  17.533   8.064
  128POPC   C4A 7062   6.797  17.641   7.611
  128POPC   C1B 7063   6.314  17.416   8.846
  128POPC   C2B 7064   6.447  17.397   8.464
  128POPC   C3B 7065   6.232  17.350   8.118
  128POPC   C4B 7066   6.365  17.497   7.813
  129POPC   NC3 7067  30.976  31.629   9.481
  129POPC   PO4 7068  30.249  31.428   9.476
  129POPC   GL1 7069  30.292  31.677   9.118
  129POPC   GL2 7070  30.664  31.742   9.072
  129POPC   C1A 7071  30.350  31.617   8.664
  129POPC   D2A 7072  30.706  31.611   8.415
  129POPC   C3A 7073  30.763  31.382   8.060
  129POPC   C4A 7074  30.539  31.468   7.707
  129POPC   C1B 7075  31.011  31.868   8.752
  129POPC   C2B 7076  31.148  31.829   8.273
  129POPC   C3B 7077  30.860  31.863   7.869
  129POPC   C4B 7078  30.920  31.660   7.427
  130POPC   NC3 7079  43.771  24.982   9.594
  130POPC   PO4 7080  43.666  24.425   9.486
  130POPC   GL1 7081  43.748  24.447   9.076
  130POPC   GL2 7082  43.909  24.760   9.014
  130POPC   C1A 7083  43.805  24.402   8.634
  130POPC   D2A 7084  43.881  24.615   8.234
  130POPC   C3A 7085  43.876  24.325   7.887
  130POPC   C4A 7086  44.086  24.269   7.517
  130POPC   C1B 7087  44.241  24.677   8.660
  130POPC   C2B 7088  44.406  24.768   8.220
  130POPC   C3B 7089  44.203  24.735   7.829
  130POPC   C4B 7090  43.794  24.841   7.755
  131POPC   NC3 7091  38.099  28.985   9.535
  131POPC   PO4 7092  38.624  29.309   9.581
  131POPC   GL1 7093  38.450  29.379   9.202
  131POPC   GL2 7094  38.401  29.042   9.092
  131POPC   C1A 7095  38.503  29.390   8.756
  131POPC   D2A 7096  38.208  29.236   8.473
  131POPC   C3A 7097  38.238  29.415   8.091
  131POPC   C4A 7098  38.116  29.344   7.708
  131POPC   C1B 7099  38.538  28.852   8.709
  131POPC   C2B 7100  38.678  29.032   8.353
  131POPC   C3B 7101  38.417  28.943   8.055
  131POPC   C4B 7102  38.468  28.889   7.672
  132POPC   NC3 7103   5.388  34.436   9.443
  132POPC   PO4 7104   4.781  34.701   9.530
  132POPC   GL1 7105   5.025  34.625   9.149
  132POPC   GL2 7106   5.322  34.840   9.119
  132POPC   C1A 7107   5.108  34.405   8.761
  132POPC   D2A 7108   4.807  34.265   8.428
  132POPC   C3A 7109   4.857  34.417   8.006
  132POPC   C4A 7110   4.756  34.602   7.608
  132POPC   C1B 7111   5.293  34.904   8.709
  132POPC   C2B 7112   5.035  34.770   8.363
  132POPC   C3B 7113   5.117  34.876   7.939
  132POPC   C4B 7114   5.176  34.838   7.482
  133POPC   NC3 7115  29.127  10.224   9.584
  133POPC   PO4 7116  28.864  10.827   9.495
  133POPC   GL1 7117  28.973  10.489   9.174
  133POPC   GL2 7118  28.967  10.070   9.127
  133POPC   C1A 7119  29.297  10.379   8.892
  133POPC   D2A 7120  29.171  10.483   8.498
  133POPC   C3A 7121  29.438  10.465   8.144
  133POPC   C4A 7122  29.416  10.733   7.781
  133POPC   C1B 7123  28.802  10.180   8.721
  133POPC   C2B 7124  28.659  10.428   8.351
  133POPC   C3B 7125  28.944  10.564   8.049
  133POPC   C4B 7126  28.966  10.524   7.646
  134POPC   NC3 7127  43.105  32.512   9.759
  134POPC   PO4 7128  43.060  33.252   9.637
  134POPC   GL1 7129  43.062  33.242   9.174
  134POPC   GL2 7130  43.316  33.016   8.994
  134POPC   C1A 7131  42.848  33.083   8.818
  134POPC   D2A 7132  42.967  32.789   8.556
  134POPC   C3A 7133  42.912  32.869   8.105
  134POPC   C4A 7134  43.015  33.166   7.767
  134POPC   C1B 7135  43.336  33.297   8.718
  134POPC   C2B 7136  43.099  33.254   8.373
  134POPC   C3B 7137  43.393  33.317   8.081
  134POPC   C4B 7138  43.532  33.211   7.706
  135POPC   NC3 7139  19.279  27.104   9.914
  135POPC   PO4 7140  19.268  27.691   9.562
  135POPC   GL1 7141  19.081  27.539   9.160
  135POPC   GL2 7142  18.916  27.226   9.039
  135POPC   C1A 7143  19.012  27.633   8.720
  135POPC   D2A 7144  19.009  27.844   8.319
  135POPC   C3A 7145  19.209  27.722   7.943
  135POPC   C4A 7146  19.223  27.715   7.484
  135POPC   C1B 7147  19.310  27.229   8.774
  135POPC   C2B 7148  19.352  27.418   8.392
  135POPC   C3B 7149  19.313  27.245   8.017
  135POPC   C4B 7150  19.068  27.247   7.631
  136POPC   NC3 7151  26.901  25.423   9.446
  136POPC   PO4 7152  26.524  24.840   9.500
  136POPC   GL1 7153  26.628  25.087   9.155
  136POPC   GL2 7154  26.363  25.326   9.171
  136POPC   C1A 7155  26.680  24.918   8.718
  136POPC   D2A 7156  26.756  25.053   8.274
  136POPC   C3A 7157  27.004  25.450   8.119
  136POPC   C4A 7158  27.050  25.508   7.654
  136POPC   C1B 7159  26.508  25.378   8.741
  136POPC   C2B 7160  26.522  25.528   8.316
  136POPC   C3B 7161  26.577  25.485   7.865
  136POPC   C4B 7162  26.405  25.649   7.488
  137POPC   NC3 7163  39.038  36.223   9.463
  137POPC   PO4 7164  39.682  36.079   9.516
  137POPC   GL1 7165  39.417  35.902   9.136
  137POPC   GL2 7166  39.024  35.910   9.077
  137POPC   C1A 7167  39.327  35.874   8.676
  137POPC   D2A 7168  39.477  36.072   8.313
  137POPC   C3A 7169  39.675  35.885   7.920
  137POPC   C4A 7170  39.578  35.881   7.475
  137POPC   C1B 7171  38.799  36.016   8.713
  137POPC   C2B 7172  38.971  36.043   8.298
  137POPC   C3B 7173  39.183  36.109   7.911
  137POPC   C4B 7174  39.129  36.493   7.775
  138POPC   NC3 7175   7.819  12.081   9.381
  138POPC   PO4 7176   8.494  11.954   9.267
  138POPC   GL1 7177   8.177  12.099   9.008
  138POPC   GL2 7178   7.933  12.389   8.985
  138POPC   C1A 7179   8.210  11.983   8.582
  138POPC   D2A 7180   8.534  11.917   8.278
  138POPC   C3A 7181   8.297  12.031   7.915
  138POPC   C4A 7182   7.835  12.034   7.882
  138POPC   C1B 7183   8.307  12.489   8.714
  138POPC   C2B 7184   8.357  12.407   8.268
  138POPC   C3B 7185   8.511  12.525   7.849
  138POPC   C4B 7186   8.555  12.510   7.379
  139POPC   NC3 7187   2.694  38.666   9.599
  139POPC   PO4 7188   2.908  38.094   9.424
  139POPC   GL1 7189   2.969  38.422   9.161
  139POPC   GL2 7190   2.673  38.624   9.106
  139POPC   C1A 7191   3.158  38.447   8.762
  139POPC   D2A 7192   2.981  38.525   8.360
  139POPC   C3A 7193   3.172  38.391   8.007
  139POPC   C4A 7194   2.929  38.355   7.654
  139POPC   C1B 7195   2.631  38.397   8.724
  139POPC   C2B 7196   2.406  38.460   8.318
  139POPC   C3B 7197   2.478  38.519   7.862
  139POPC   C4B 7198   2.496  38.417   7.392
  140POPC   NC3 7199  43.380  24.093   9.356
  140POPC   PO4 7200  42.977  24.565   9.625
  140POPC   GL1 7201  43.155  24.570   9.207
  140POPC   GL2 7202  43.414  24.833   9.238
  140POPC   C1A 7203  43.068  24.357   8.762
  140POPC   D2A 7204  43.176  24.095   8.365
  140POPC   C3A 7205  42.981  24.247   7.969
  140POPC   C4A 7206  42.754  24.211   7.574
  140POPC   C1B 7207  43.428  24.745   8.798
  140POPC   C2B 7208  43.380  24.576   8.379
  140POPC   C3B 7209  43.416  24.545   7.935
  140POPC   C4B 7210  43.120  24.569   7.592
  141POPC   NC3 7211   1.628  31.532   9.429
  141POPC   PO4 7212   0.964  31.616   9.542
  141POPC   GL1 7213   1.151  31.367   9.247
  141POPC   GL2 7214   1.273  31.563   9.043
  141POPC   C1A 7215   1.006  31.167   8.878
  141POPC   D2A 7216   1.228  31.044   8.504
  141POPC   C3A 7217   1.225  31.252   8.127
  141POPC   C4A 7218   1.281  31.104   7.705
  141POPC   C1B 7219   1.368  31.762   8.665
  141POPC   C2B 7220   1.197  31.772   8.264
  141POPC   C3B 7221   1.298  31.675   7.840
  141POPC   C4B 7222   1.267  31.477   7.371
  142POPC   NC3 7223   3.067   2.154   9.478
  142POPC   PO4 7224   2.460   1.937   9.408
  142POPC   GL1 7225   2.760   2.006   9.092
  142POPC   GL2 7226   2.938   2.338   9.025
  142POPC   C1A 7227   2.705   1.759   8.727
  142POPC   D2A 7228   2.398   1.861   8.411
  142POPC   C3A 7229   2.584   1.717   8.053
  142POPC   C4A 7230   2.855   1.718   7.741
  142POPC   C1B 7231   2.737   2.273   8.658
  142POPC   C2B 7232   2.887   2.043   8.317
  142POPC   C3B 7233   3.110   2.107   7.953
  142POPC   C4B 7234   2.877   2.425   7.747
  143POPC   NC3 7235  32.514  31.918   9.679
  143POPC   PO4 7236  32.190  32.442   9.607
  143POPC   GL1 7237  32.230  32.152   9.278
  143POPC   GL2 7238  32.590  32.107   9.204
  143POPC   C1A 7239  32.031  32.132   8.884
  143POPC   D2A 7240  32.263  32.120   8.508
  143POPC   C3A 7241  32.095  32.274   8.166
  143POPC   C4A 7242  31.930  32.146   7.788
  143POPC   C1B 7243  32.724  32.067   8.784
  143POPC   C2B 7244  32.759  32.144   8.369
  143POPC   C3B 7245  32.554  32.075   8.002
  143POPC   C4B 7246  32.605  32.032   7.571
  144POPC   NC3 7247  42.326  33.614   9.562
  144POPC   PO4 7248  42.072  34.240   9.507
  144POPC   GL1 7249  42.282  33.990   9.222
  144POPC   GL2 7250  42.003  33.712   9.166
  144POPC   C1A 7251  42.479  33.898   8.826
  144POPC   D2A 7252  42.653  33.808   8.399
  144POPC   C3A 7253  42.518  33.972   8.004
  144POPC   C4A 7254  42.253  33.779   7.707
  144POPC   C1B 7255  41.941  34.081   8.876
  144POPC   C2B 7256  42.135  34.165   8.507
  144POPC   C3B 7257  42.154  34.383   8.160
  144POPC   C4B 7258  42.102  34.244   7.761
  145POPC   NC3 7259  40.927  17.719   9.653
  145POPC   PO4 7260  40.462  17.257   9.748
  145POPC   GL1 7261  40.477  17.362   9.288
  145POPC   GL2 7262  40.817  17.305   9.192
  145POPC   C1A 7263  40.615  17.662   8.918
  145POPC   D2A 7264  40.891  17.556   8.553
  145POPC   C3A 7265  40.804  17.815   8.180
  145POPC   C4A 7266  40.591  17.746   7.793
  145POPC   C1B 7267  40.575  17.142   8.830
  145POPC   C2B 7268  40.611  17.073   8.390
  145POPC   C3B 7269  40.713  17.305   8.040
  145POPC   C4B 7270  40.937  17.392   7.677
  146POPC   NC3 7271   3.128  40.162   9.581
  146POPC   PO4 7272   2.485  40.068   9.557
  146POPC   GL1 7273   2.789  40.020   9.212
  146POPC   GL2 7274   3.020  39.702   9.298
  146POPC   C1A 7275   2.891  40.237   8.796
  146POPC   D2A 7276   3.159  40.167   8.399
  146POPC   C3A 7277   2.952  40.295   8.000
  146POPC   C4A 7278   2.571  40.223   7.788
  146POPC   C1B 7279   3.059  39.764   8.859
  146POPC   C2B 7280   3.001  39.641   8.440
  146POPC   C3B 7281   3.092  39.778   8.054
  146POPC   C4B 7282   2.872  39.832   7.709
  147POPC   NC3 7283  24.166  23.238   9.696
  147POPC   PO4 7284  23.824  22.598   9.725
  147POPC   GL1 7285  23.651  22.664   9.308
  147POPC   GL2 7286  23.404  22.935   9.316
  147POPC   C1A 7287  23.655  22.736   8.872
  147POPC   D2A 7288  23.638  22.867   8.446
  147POPC   C3A 7289  23.707  22.654   8.050
  147POPC   C4A 7290  23.900  22.936   7.756
  147POPC   C1B 7291  23.216  23.011   8.899
  147POPC   C2B 7292  23.159  23.002   8.426
  147POPC   C3B 7293  23.393  23.054   8.006
  147POPC   C4B 7294  23.439  22.759   7.616
  148POPC   NC3 7295  33.695   5.321   9.625
  148POPC   PO4 7296  33.484   4.784   9.184
  148POPC   GL1 7297  33.522   5.213   9.146
  148POPC   GL2 7298  33.850   5.195   9.148
  148POPC   C1A 7299  33.628   5.423   8.753
  148POPC   D2A 7300  33.457   5.378   8.356
  148POPC   C3A 7301  33.679   5.122   8.100
  148POPC   C4A 7302  33.748   4.864   7.749
  148POPC   C1B 7303  33.934   4.992   8.753
  148POPC   C2B 7304  34.015   4.825   8.371
  148POPC   C3B 7305  34.204   4.913   8.002
  148POPC   C4B 7306  34.086   5.277   7.830
  149POPC   NC3 7307  39.864  27.686   9.477
  149POPC   PO4 7308  40.497  27.818   9.503
  149POPC   GL1 7309  40.339  27.673   9.145
  149POPC   GL2 7310  40.121  27.416   9.097
  149POPC   C1A 7311  40.190  27.770   8.742
  149POPC   D2A 7312  39.935  27.696   8.427
  149POPC   C3A 7313  40.119  27.778   8.056
  149POPC   C4A 7314  40.218  27.885   7.646
  149POPC   C1B 7315  39.891  27.252   8.728
  149POPC   C2B 7316  39.585  27.330   8.407
  149POPC   C3B 7317  39.712  27.417   8.036
  149POPC   C4B 7318  40.024  27.375   7.770
  150POPC   NC3 7319   8.702  42.630   9.346
  150POPC   PO4 7320   8.924  43.284   9.491
  150POPC   GL1 7321   8.808  43.113   9.120
  150POPC   GL2 7322   8.627  43.392   9.057
  150POPC   C1A 7323   8.972  43.095   8.717
  150POPC   D2A 7324   9.278  43.270   8.421
  150POPC   C3A 7325   9.274  43.134   8.025
  150POPC   C4A 7326   9.212  43.164   7.578
  150POPC   C1B 7327   8.473  43.305   8.690
  150POPC   C2B 7328   8.611  43.120   8.345
  150POPC   C3B 7329   8.779  43.151   7.972
  150POPC   C4B 7330   8.890  42.803   7.781
  151POPC   NC3 7331  40.800   6.941   9.423
  151POPC   PO4 7332  40.504   6.342   9.443
  151POPC   GL1 7333  40.741   6.517   9.112
  151POPC   GL2 7334  41.093   6.479   9.157
  151POPC   C1A 7335  40.900   6.742   8.741
  151POPC   D2A 7336  41.120   6.878   8.349
  151POPC   C3A 7337  40.882   6.711   7.970
  151POPC   C4A 7338  40.599   6.485   7.679
  151POPC   C1B 7339  41.040   6.225   8.781
  151POPC   C2B 7340  40.996   6.371   8.369
  151POPC   C3B 7341  40.915   6.192   7.982
  151POPC   C4B 7342  41.105   6.332   7.663
  152POPC   NC3 7343  18.247  11.518   9.751
  152POPC   PO4 7344  18.294  11.062   9.356
  152POPC   GL1 7345  18.332  11.350   9.085
  152POPC   GL2 7346  17.935  11.348   9.129
  152POPC   C1A 7347  18.489  11.355   8.629
  152POPC   D2A 7348  18.641  11.423   8.192
  152POPC   C3A 7349  18.489  11.338   7.756
  152POPC   C4A 7350  18.453  11.651   7.430
  152POPC   C1B 7351  17.996  11.237   8.718
  152POPC   C2B 7352  18.127  11.174   8.302
  152POPC   C3B 7353  17.967  11.148   7.879
  152POPC   C4B 7354  18.075  11.101   7.420
  153POPC   NC3 7355  12.455  16.557   9.382
  153POPC   PO4 7356  12.854  17.014   9.470
  153POPC   GL1 7357  12.827  16.925   9.023
  153POPC   GL2 7358  13.018  16.654   8.923
  153POPC   C1A 7359  12.677  16.877   8.594
  153POPC   D2A 7360  12.682  16.639   8.228
  153POPC   C3A 7361  12.790  16.805   7.841
  153POPC   C4A 7362  13.237  16.871   7.736
  153POPC   C1B 7363  12.689  16.382   8.681
  153POPC   C2B 7364  12.470  16.189   8.326
  153POPC   C3B 7365  12.677  16.250   7.901
  153POPC   C4B 7366  12.545  16.454   7.524
  154POPC   NC3 7367  19.291  13.923   9.325
  154POPC   PO4 7368  19.224  14.543   9.573
  154POPC   GL1 7369  19.201  14.421   9.169
  154POPC   GL2 7370  19.446  14.662   9.098
  154POPC   C1A 7371  18.931  14.502   8.795
  154POPC   D2A 7372  18.976  14.648   8.368
  154POPC   C3A 7373  18.966  14.306   8.063
  154POPC   C4A 7374  18.909  14.391   7.640
  154POPC   C1B 7375  19.461  14.464   8.716
  154POPC   C2B 7376  19.486  14.559   8.289
  154POPC   C3B 7377  19.375  14.515   7.845
  154POPC   C4B 7378  19.379  14.400   7.416
  155POPC   NC3 7379  37.254  29.447   9.392
  155POPC   PO4 7380  37.498  30.103   9.422
  155POPC   GL1 7381  37.616  29.758   9.136
  155POPC   GL2 7382  37.991  29.699   9.112
  155POPC   C1A 7383  37.702  29.619   8.712
  155POPC   D2A 7384  37.969  29.777   8.380
  155POPC   C3A 7385  37.823  29.734   7.942
  155POPC   C4A 7386  37.972  30.080   7.691
  155POPC   C1B 7387  37.867  30.098   8.856
  155POPC   C2B 7388  37.715  30.298   8.486
  155POPC   C3B 7389  37.670  30.230   8.074
  155POPC   C4B 7390  37.513  30.351   7.671
  156POPC   NC3 7391  26.441   2.841   9.656
  156POPC   PO4 7392  26.930   3.242   9.600
  156POPC   GL1 7393  26.920   3.496   9.129
  156POPC   GL2 7394  27.026   3.270   8.866
  156POPC   C1A 7395  26.841   3.689   8.652
  156POPC   D2A 7396  26.790   3.465   8.218
  156POPC   C3A 7397  26.878   3.664   7.803
  156POPC   C4A 7398  26.818   4.108   7.668
  156POPC   C1B 7399  26.571   3.265   8.676
  156POPC   C2B 7400  26.295   3.390   8.299
  156POPC   C3B 7401  26.393   3.361   7.845
  156POPC   C4B 7402  26.667   3.327   7.483
  157POPC   NC3 7403  31.715  32.966   9.376
  157POPC   PO4 7404  31.041  33.184   9.514
  157POPC   GL1 7405  31.223  33.022   9.164
  157POPC   GL2 7406  31.414  33.307   9.096
  157POPC   C1A 7407  31.343  32.753   8.796
  157POPC   D2A 7408  31.221  32.816   8.392
  157POPC   C3A 7409  31.529  32.858   8.091
  157POPC   C4A 7410  31.869  32.660   7.898
  157POPC   C1B 7411  31.332  33.261   8.656
  157POPC   C2B 7412  31.574  33.371   8.272
  157POPC   C3B 7413  31.646  33.310   7.840
  157POPC   C4B 7414  31.400  33.009   7.607
  158POPC   NC3 7415   2.224   5.382   9.586
  158POPC   PO4 7416   1.566   5.452   9.441
  158POPC   GL1 7417   1.743   5.123   9.148
  158POPC   GL2 7418   2.103   5.145   9.163
  158POPC   C1A 7419   1.719   4.937   8.689
  158POPC   D2A 7420   1.663   4.926   8.185
  158POPC   C3A 7421   1.752   5.221   7.811
  158POPC   C4A 7422   2.096   5.309   7.515
  158POPC   C1B 7423   2.240   4.935   8.820
  158POPC   C2B 7424   2.133   4.987   8.402
  158POPC   C3B 7425   2.195   5.201   8.047
  158POPC   C4B 7426   2.473   5.071   7.762
  159POPC   NC3 7427  16.181  15.663   9.490
  159POPC   PO4 7428  15.763  16.174   9.548
  159POPC   GL1 7429  15.781  15.870   9.215
  159POPC   GL2 7430  16.088  16.031   9.139
  159POPC   C1A 7431  15.937  15.697   8.797
  159POPC   D2A 7432  15.970  15.976   8.455
  159POPC   C3A 7433  15.848  15.855   8.063
  159POPC   C4A 7434  15.913  15.481   7.842
  159POPC   C1B 7435  16.223  16.344   8.868
  159POPC   C2B 7436  16.200  16.459   8.452
  159POPC   C3B 7437  16.178  16.259   8.085
  159POPC   C4B 7438  16.155  16.306   7.686
  160POPC   NC3 7439  44.879  42.761   9.465
  160POPC   PO4 7440  44.492  43.315   9.599
  160POPC   GL1 7441  44.651  43.156   9.221
  160POPC   GL2 7442  44.422  42.927   9.238
  160POPC   C1A 7443  44.772  43.221   8.800
  160POPC   D2A 7444  44.780  43.013   8.408
  160POPC   C3A 7445  44.667  43.285   8.095
  160POPC   C4A 7446  44.849  43.293   7.728
  160POPC   C1B 7447  44.475  42.812   8.831
  160POPC   C2B 7448  44.374  42.666   8.421
  160POPC   C3B 7449  44.428  42.837   8.019
  160POPC   C4B 7450  44.246  42.734   7.638
  161POPC   NC3 7451   0.156  32.633   9.319
  161POPC   PO4 7452  44.501  32.437   9.609
  161POPC   GL1 7453  44.594  32.253   9.243
  161POPC   GL2 7454  44.899  32.196   9.208
  161POPC   C1A 7455  44.503  32.296   8.825
  161POPC   D2A 7456  44.228  32.381   8.476
  161POPC   C3A 7457  44.473  32.482   8.112
  161POPC   C4A 7458  44.639  32.256   7.740
  161POPC   C1B 7459   0.028  32.225   8.798
  161POPC   C2B 7460  44.892  32.349   8.412
  161POPC   C3B 7461   0.078  32.285   8.040
  161POPC   C4B 7462   0.139  32.419   7.645
  162POPC   NC3 7463   5.947  38.092   9.607
  162POPC   PO4 7464   5.721  38.731   9.546
  162POPC   GL1 7465   5.871  38.569   9.190
  162POPC   GL2 7466   5.844  38.224   9.134
  162POPC   C1A 7467   5.670  38.585   8.777
  162POPC   D2A 7468   5.657  38.675   8.335
  162POPC   C3A 7469   5.590  38.368   8.013
  162POPC   C4A 7470   5.580  38.613   7.653
  162POPC   C1B 7471   6.192  38.358   8.858
  162POPC   C2B 7472   6.182  38.205   8.406
  162POPC   C3B 7473   6.113  38.334   7.967
  162POPC   C4B 7474   6.097  38.600   7.593
  163POPC   NC3 7475  15.861   4.369   9.535
  163POPC   PO4 7476  15.644   4.807   9.077
  163POPC   GL1 7477  15.819   4.416   9.033
  163POPC   GL2 7478  16.155   4.476   9.110
  163POPC   C1A 7479  15.796   4.180   8.702
  163POPC   D2A 7480  15.764   4.260   8.283
  163POPC   C3A 7481  15.763   4.086   7.894
  163POPC   C4A 7482  16.019   4.196   7.560
  163POPC   C1B 7483  16.252   4.717   8.764
  163POPC   C2B 7484  16.011   4.718   8.378
  163POPC   C3B 7485  16.029   4.538   7.956
  163POPC   C4B 7486  16.416   4.472   7.748
  164POPC   NC3 7487  38.776  10.289   9.789
  164POPC   PO4 7488  38.671  10.838   9.425
  164POPC   GL1 7489  38.382  10.694   9.147
  164POPC   GL2 7490  38.147  10.493   9.308
  164POPC   C1A 7491  38.526  10.675   8.730
  164POPC   D2A 7492  38.618  10.469   8.361
  164POPC   C3A 7493  38.533  10.771   8.046
  164POPC   C4A 7494  38.631  10.612   7.678
  164POPC   C1B 7495  38.230  10.284   8.890
  164POPC   C2B 7496  38.106  10.383   8.498
  164POPC   C3B 7497  38.185  10.386   8.093
  164POPC   C4B 7498  38.163  10.447   7.681
  165POPC   NC3 7499  30.388  18.340   9.411
  165POPC   PO4 7500  29.742  18.542   9.358
  165POPC   GL1 7501  30.020  18.406   9.040
  165POPC   GL2 7502  30.315  18.223   8.934
  165POPC   C1A 7503  29.897  18.371   8.651
  165POPC   D2A 7504  29.918  18.487   8.258
  165POPC   C3A 7505  29.735  18.324   7.917
  165POPC   C4A 7506  29.760  18.574   7.569
  165POPC   C1B 7507  30.049  17.898   8.764
  165POPC   C2B 7508  29.887  17.929   8.379
  165POPC   C3B 7509  29.604  17.857   8.082
  165POPC   C4B 7510  29.842  17.741   7.744
  166POPC   NC3 7511  24.811  10.948   9.518
  166POPC   PO4 7512  24.735  10.200   9.502
  166POPC   GL1 7513  24.627  10.527   9.220
  166POPC   GL2 7514  24.362  10.692   9.084
  166POPC   C1A 7515  24.735  10.533   8.781
  166POPC   D2A 7516  24.490  10.471   8.406
  166POPC   C3A 7517  24.619  10.304   8.048
  166POPC   C4A 7518  24.827  10.462   7.706
  166POPC   C1B 7519  24.389  10.894   8.687
  166POPC   C2B 7520  24.273  11.018   8.286
  166POPC   C3B 7521  24.403  10.782   7.927
  166POPC   C4B 7522  24.135  10.662   7.577
  167POPC   NC3 7523  44.183  37.165   9.529
  167POPC   PO4 7524  43.670  36.738   9.515
  167POPC   GL1 7525  43.805  36.867   9.156
  167POPC   GL2 7526  43.756  37.224   9.237
  167POPC   C1A 7527  43.902  36.733   8.723
  167POPC   D2A 7528  44.104  36.743   8.313
  167POPC   C3A 7529  43.878  36.615   7.974
  167POPC   C4A 7530  44.156  36.805   7.711
  167POPC   C1B 7531  43.837  37.224   8.789
  167POPC   C2B 7532  43.744  37.100   8.384
  167POPC   C3B 7533  43.839  37.132   7.973
  167POPC   C4B 7534  43.996  37.284   7.592
  168POPC   NC3 7535  39.322  37.941   9.601
  168POPC   PO4 7536  39.118  38.578   9.506
  168POPC   GL1 7537  39.281  38.328   9.201
  168POPC   GL2 7538  39.422  38.610   9.029
  168POPC   C1A 7539  39.178  38.254   8.756
  168POPC   D2A 7540  39.317  38.319   8.334
  168POPC   C3A 7541  39.026  38.333   7.979
  168POPC   C4A 7542  38.877  38.317   7.538
  168POPC   C1B 7543  39.166  38.809   8.706
  168POPC   C2B 7544  39.129  38.816   8.253
  168POPC   C3B 7545  39.404  38.693   7.957
  168POPC   C4B 7546  39.524  38.933   7.627
  169POPC   NC3 7547   1.397  33.146   9.802
  169POPC   PO4 7548   1.110  32.526   9.801
  169POPC   GL1 7549   1.204  32.901   9.400
  169POPC   GL2 7550   0.993  33.011   9.119
  169POPC   C1A 7551   1.424  32.854   8.948
  169POPC   D2A 7552   1.313  32.749   8.509
  169POPC   C3A 7553   1.391  33.088   8.190
  169POPC   C4A 7554   1.276  33.236   7.775
  169POPC   C1B 7555   1.036  33.177   8.703
  169POPC   C2B 7556   0.857  33.107   8.287
  169POPC   C3B 7557   0.970  32.813   7.949
  169POPC   C4B 7558   1.034  32.812   7.508
  170POPC   NC3 7559  27.571  23.494   9.603
  170POPC   PO4 7560  27.943  24.196   9.472
  170POPC   GL1 7561  27.906  23.934   9.114
  170POPC   GL2 7562  27.660  23.678   9.126
  170POPC   C1A 7563  27.738  24.015   8.687
  170POPC   D2A 7564  27.649  23.725   8.343
  170POPC   C3A 7565  27.790  23.719   7.927
  170POPC   C4A 7566  27.937  23.328   7.771
  170POPC   C1B 7567  27.365  23.685   8.777
  170POPC   C2B 7568  27.166  23.583   8.374
  170POPC   C3B 7569  27.291  23.533   7.963
  170POPC   C4B 7570  27.385  23.723   7.604
  171POPC   NC3 7571   6.575  23.374   9.560
  171POPC   PO4 7572   6.483  23.988   9.403
  171POPC   GL1 7573   6.629  23.652   9.130
  171POPC   GL2 7574   6.825  23.879   8.958
  171POPC   C1A 7575   6.743  23.420   8.745
  171POPC   D2A 7576   6.833  23.616   8.408
  171POPC   C3A 7577   6.765  23.417   8.024
  171POPC   C4A 7578   6.470  23.518   7.725
  171POPC   C1B 7579   6.551  23.996   8.650
  171POPC   C2B 7580   6.645  24.105   8.241
  171POPC   C3B 7581   6.760  23.935   7.844
  171POPC   C4B 7582   6.883  24.165   7.453
  172POPC   NC3 7583   6.392   4.640   9.408
  172POPC   PO4 7584   6.629   4.088   9.587
  172POPC   GL1 7585   6.907   4.100   9.233
  172POPC   GL2 7586   6.822   4.442   9.092
  172POPC   C1A 7587   6.933   3.965   8.803
  172POPC   D2A 7588   6.729   4.163   8.451
  172POPC   C3A 7589   6.711   4.047   8.009
  172POPC   C4A 7590   6.376   4.240   7.744
  172POPC   C1B 7591   7.076   4.505   8.727
  172POPC   C2B 7592   7.037   4.548   8.297
  172POPC   C3B 7593   6.689   4.542   8.056
  172POPC   C4B 7594   6.875   4.433   7.688
  173POPC   NC3 7595  28.128  39.095   9.646
  173POPC   PO4 7596  28.717  39.428   9.544
  173POPC   GL1 7597  28.477  39.114   9.280
  173POPC   GL2 7598  28.232  39.381   9.217
  173POPC   C1A 7599  28.150  38.985   8.923
  173POPC   D2A 7600  27.885  39.122   8.563
  173POPC   C3A 7601  28.084  39.056   8.132
  173POPC   C4A 7602  28.169  39.002   7.664
  173POPC   C1B 7603  28.539  39.362   8.856
  173POPC   C2B 7604  28.609  39.490   8.446
  173POPC   C3B 7605  28.654  39.693   8.057
  173POPC   C4B 7606  28.437  39.368   7.857
  174POPC   NC3 7607  35.891  10.279   9.460
  174POPC   PO4 7608  36.581  10.498   9.403
  174POPC   GL1 7609  36.243  10.470   9.113
  174POPC   GL2 7610  35.917  10.651   9.108
  174POPC   C1A 7611  36.362  10.535   8.707
  174POPC   D2A 7612  36.478  10.864   8.424
  174POPC   C3A 7613  36.324  10.717   8.066
  174POPC   C4A 7614  36.304  10.421   7.723
  174POPC   C1B 7615  35.840  10.419   8.750
  174POPC   C2B 7616  36.001  10.383   8.347
  174POPC   C3B 7617  35.797  10.323   7.965
  174POPC   C4B 7618  35.843  10.375   7.529
  175POPC   NC3 7619  23.588  42.572   9.637
  175POPC   PO4 7620  23.948  42.040   9.476
  175POPC   GL1 7621  23.780  42.346   9.193
  175POPC   GL2 7622  23.427  42.437   9.179
  175POPC   C1A 7623  23.929  42.510   8.827
  175POPC   D2A 7624  24.156  42.502   8.440
  175POPC   C3A 7625  23.955  42.336   8.095
  175POPC   C4A 7626  24.061  42.478   7.687
  175POPC   C1B 7627  23.456  42.295   8.764
  175POPC   C2B 7628  23.389  42.507   8.391
  175POPC   C3B 7629  23.294  42.564   7.949
  175POPC   C4B 7630  23.591  42.268   7.738
  176POPC   NC3 7631  36.234  35.311   9.517
  176POPC   PO4 7632  36.203  35.835   9.137
  176POPC   GL1 7633  36.026  35.397   9.047
  176POPC   GL2 7634  36.228  35.081   9.078
  176POPC   C1A 7635  35.933  35.181   8.678
  176POPC   D2A 7636  35.986  35.407   8.306
  176POPC   C3A 7637  36.340  35.507   8.051
  176POPC   C4A 7638  36.258  35.565   7.613
  176POPC   C1B 7639  36.410  34.935   8.708
  176POPC   C2B 7640  36.533  35.083   8.295
  176POPC   C3B 7641  36.432  35.054   7.828
  176POPC   C4B 7642  36.381  34.798   7.430
  177POPC   NC3 7643   8.485  44.526   9.432
  177POPC   PO4 7644   8.144   0.061   9.561
  177POPC   GL1 7645   8.155  44.845   9.198
  177POPC   GL2 7646   7.913  44.648   9.110
  177POPC   C1A 7647   8.349  44.791   8.810
  177POPC   D2A 7648   8.391  44.683   8.403
  177POPC   C3A 7649   8.413  44.975   8.086
  177POPC   C4A 7650   8.423  44.662   7.775
  177POPC   C1B 7651   7.874  44.664   8.736
  177POPC   C2B 7652   7.943  44.902   8.421
  177POPC   C3B 7653   7.962  44.693   8.064
  177POPC   C4B 7654   7.773  44.581   7.665
  178POPC   NC3 7655   4.435  14.100   9.755
  178POPC   PO4 7656   4.373  14.725   9.606
  178POPC   GL1 7657   4.253  14.568   9.198
  178POPC   GL2 7658   4.323  14.229   9.187
  178POPC   C1A 7659   4.384  14.531   8.787
  178POPC   D2A 7660   4.651  14.448   8.463
  178POPC   C3A 7661   4.426  14.531   8.098
  178POPC   C4A 7662   4.533  14.534   7.684
  178POPC   C1B 7663   3.976  14.231   8.816
  178POPC   C2B 7664   3.766  14.136   8.416
  178POPC   C3B 7665   3.920  14.340   8.101
  178POPC   C4B 7666   4.076  14.362   7.747
  179POPC   NC3 7667   3.279  37.954   9.210
  179POPC   PO4 7668   3.831  37.764   9.496
  179POPC   GL1 7669   3.709  37.557   9.135
  179POPC   GL2 7670   3.489  37.281   9.204
  179POPC   C1A 7671   3.647  37.686   8.736
  179POPC   D2A 7672   3.427  37.943   8.498
  179POPC   C3A 7673   3.443  37.755   8.108
  179POPC   C4A 7674   3.363  37.980   7.770
  179POPC   C1B 7675   3.221  37.401   8.846
  179POPC   C2B 7676   3.125  37.467   8.426
  179POPC   C3B 7677   3.221  37.259   8.046
  179POPC   C4B 7678   3.285  37.483   7.682
  180POPC   NC3 7679  38.864  37.122   9.265
  180POPC   PO4 7680  38.349  36.838   9.605
  180POPC   GL1 7681  38.341  37.031   9.208
  180POPC   GL2 7682  38.021  37.217   9.233
  180POPC   C1A 7683  38.525  36.912   8.771
  180POPC   D2A 7684  38.692  36.946   8.385
  180POPC   C3A 7685  38.370  36.756   8.222
  180POPC   C4A 7686  38.287  36.771   7.819
  180POPC   C1B 7687  38.086  37.258   8.787
  180POPC   C2B 7688  38.375  37.334   8.434
  180POPC   C3B 7689  38.457  37.242   8.008
  180POPC   C4B 7690  38.152  37.254   7.705
  181POPC   NC3 7691  39.782  25.743   9.604
  181POPC   PO4 7692  39.702  26.437   9.488
  181POPC   GL1 7693  40.043  26.286   9.202
  181POPC   GL2 7694  39.883  25.982   9.177
  181POPC   C1A 7695  40.198  26.029   8.809
  181POPC   D2A 7696  40.461  25.943   8.485
  181POPC   C3A 7697  40.373  26.106   8.077
  181POPC   C4A 7698  40.385  25.815   7.738
  181POPC   C1B 7699  39.708  26.230   8.824
  181POPC   C2B 7700  39.722  26.066   8.418
  181POPC   C3B 7701  39.912  25.906   8.049
  181POPC   C4B 7702  39.964  26.111   7.674
  182POPC   NC3 7703   5.833  13.404   9.439
  182POPC   PO4 7704   6.184  13.910   9.355
  182POPC   GL1 7705   6.234  13.570   9.084
  182POPC   GL2 7706   5.942  13.367   8.948
  182POPC   C1A 7707   6.213  13.677   8.644
  182POPC   D2A 7708   5.822  13.607   8.465
  182POPC   C3A 7709   5.876  13.715   8.080
  182POPC   C4A 7710   5.920  13.645   7.646
  182POPC   C1B 7711   5.528  13.279   8.758
  182POPC   C2B 7712   5.506  13.069   8.338
  182POPC   C3B 7713   5.599  13.307   7.950
  182POPC   C4B 7714   5.532  13.298   7.465
  183POPC   NC3 7715  32.987  30.633   9.596
  183POPC   PO4 7716  33.293  31.066   9.806
  183POPC   GL1 7717  33.199  31.007   9.312
  183POPC   GL2 7718  32.902  31.117   9.194
  183POPC   C1A 7719  33.308  31.120   8.835
  183POPC   D2A 7720  33.349  30.896   8.414
  183POPC   C3A 7721  33.130  30.930   7.986
  183POPC   C4A 7722  33.310  30.934   7.560
  183POPC   C1B 7723  32.855  30.899   8.811
  183POPC   C2B 7724  32.763  30.926   8.374
  183POPC   C3B 7725  32.580  30.943   7.957
  183POPC   C4B 7726  32.678  30.624   7.664
  184POPC   NC3 7727  37.838  16.059   9.535
  184POPC   PO4 7728  37.198  15.871   9.456
  184POPC   GL1 7729  37.530  15.850   9.170
  184POPC   GL2 7730  37.830  15.646   9.224
  184POPC   C1A 7731  37.483  15.746   8.766
  184POPC   D2A 7732  37.521  15.981   8.344
  184POPC   C3A 7733  37.587  15.769   7.983
  184POPC   C4A 7734  37.564  15.862   7.558
  184POPC   C1B 7735  37.997  15.743   8.841
  184POPC   C2B 7736  38.135  15.852   8.434
  184POPC   C3B 7737  38.106  15.926   7.995
  184POPC   C4B 7738  38.033  16.060   7.561
  185POPC   NC3 7739  20.649   6.647   9.561
  185POPC   PO4 7740  20.757   6.213   9.441
  185POPC   GL1 7741  20.504   6.403   9.117
  185POPC   GL2 7742  20.685   6.705   9.039
  185POPC   C1A 7743  20.408   6.451   8.667
  185POPC   D2A 7744  20.646   6.542   8.281
  185POPC   C3A 7745  20.574   6.333   7.883
  185POPC   C4A 7746  20.734   6.455   7.464
  185POPC   C1B 7747  20.618   6.936   8.647
  185POPC   C2B 7748  20.616   7.052   8.202
  185POPC   C3B 7749  20.598   6.841   7.807
  185POPC   C4B 7750  20.334   6.798   7.475
  186POPC   NC3 7751  32.111   1.832   9.630
  186POPC   PO4 7752  32.515   2.362   9.506
  186POPC   GL1 7753  32.244   2.093   9.201
  186POPC   GL2 7754  32.387   1.768   9.212
  186POPC   C1A 7755  32.008   2.104   8.770
  186POPC   D2A 7756  31.901   2.233   8.328
  186POPC   C3A 7757  31.940   1.936   7.978
  186POPC   C4A 7758  32.176   2.016   7.563
  186POPC   C1B 7759  32.465   1.883   8.774
  186POPC   C2B 7760  32.266   1.801   8.389
  186POPC   C3B 7761  32.419   1.778   7.985
  186POPC   C4B 7762  32.682   1.833   7.637
  187POPC   NC3 7763  12.746  43.394   9.482
  187POPC   PO4 7764  12.500  42.730   9.440
  187POPC   GL1 7765  12.732  43.026   9.130
  187POPC   GL2 7766  13.107  43.036   9.108
  187POPC   C1A 7767  12.777  43.279   8.782
  187POPC   D2A 7768  12.574  43.372   8.413
  187POPC   C3A 7769  12.771  43.660   8.154
  187POPC   C4A 7770  12.803  43.455   7.759
  187POPC   C1B 7771  13.074  42.818   8.694
  187POPC   C2B 7772  12.934  43.007   8.314
  187POPC   C3B 7773  12.899  42.940   7.884
  187POPC   C4B 7774  12.997  42.909   7.443
  188POPC   NC3 7775  18.611   6.091   9.512
  188POPC   PO4 7776  18.153   6.652   9.509
  188POPC   GL1 7777  18.357   6.829   9.148
  188POPC   GL2 7778  18.391   6.474   9.062
  188POPC   C1A 7779  18.372   6.871   8.712
  188POPC   D2A 7780  18.446   6.599   8.368
  188POPC   C3A 7781  18.500   6.810   7.984
  188POPC   C4A 7782  18.140   6.927   7.794
  188POPC   C1B 7783  18.016   6.503   8.793
  188POPC   C2B 7784  17.915   6.366   8.401
  188POPC   C3B 7785  18.094   6.453   7.999
  188POPC   C4B 7786  18.456   6.348   7.736
  189POPC   NC3 7787  20.097  13.716   9.466
  189POPC   PO4 7788  19.395  13.534   9.555
  189POPC   GL1 7789  19.570  13.538   9.107
  189POPC   GL2 7790  19.918  13.402   9.099
  189POPC   C1A 7791  19.719  13.699   8.685
  189POPC   D2A 7792  19.787  13.592   8.257
  189POPC   C3A 7793  19.654  13.687   7.836
  189POPC   C4A 7794  19.889  13.568   7.487
  189POPC   C1B 7795  19.904  13.196   8.701
  189POPC   C2B 7796  20.123  13.202   8.289
  189POPC   C3B 7797  19.900  13.250   7.895
  189POPC   C4B 7798  19.523  13.226   7.615
  190POPC   NC3 7799   2.444   6.465   9.606
  190POPC   PO4 7800   1.896   6.802   9.754
  190POPC   GL1 7801   1.996   6.792   9.279
  190POPC   GL2 7802   2.057   6.484   9.145
  190POPC   C1A 7803   1.828   6.805   8.829
  190POPC   D2A 7804   1.912   6.607   8.448
  190POPC   C3A 7805   2.123   6.732   8.101
  190POPC   C4A 7806   1.774   6.857   7.837
  190POPC   C1B 7807   1.815   6.255   8.804
  190POPC   C2B 7808   1.780   6.094   8.377
  190POPC   C3B 7809   1.782   6.311   7.983
  190POPC   C4B 7810   2.105   6.436   7.694
  191POPC   NC3 7811  34.260  33.258   9.320
  191POPC   PO4 7812  33.810  32.826   9.613
  191POPC   GL1 7813  33.860  32.979   9.140
  191POPC   GL2 7814  34.113  33.149   8.870
  191POPC   C1A 7815  33.672  32.974   8.722
  191POPC   D2A 7816  33.792  33.035   8.294
  191POPC   C3A 7817  33.580  33.374   8.045
  191POPC   C4A 7818  33.481  33.352   7.612
  191POPC   C1B 7819  34.138  32.717   8.776
  191POPC   C2B 7820  33.971  32.568   8.397
  191POPC   C3B 7821  34.081  32.701   8.000
  191POPC   C4B 7822  33.952  33.099   7.819
  192POPC   NC3 7823  33.026  37.251   9.786
  192POPC   PO4 7824  32.750  37.777   9.471
  192POPC   GL1 7825  33.058  37.706   9.169
  192POPC   GL2 7826  33.085  37.399   9.047
  192POPC   C1A 7827  33.312  37.819   8.836
  192POPC   D2A 7828  33.265  37.489   8.567
  192POPC   C3A 7829  33.250  37.541   8.135
  192POPC   C4A 7830  33.214  37.758   7.760
  192POPC   C1B 7831  32.783  37.388   8.691
  192POPC   C2B 7832  32.766  37.557   8.349
  192POPC   C3B 7833  32.742  37.800   8.041
  192POPC   C4B 7834  32.717  37.688   7.658
  193POPC   NC3 7835  40.541   1.441   9.642
  193POPC   PO4 7836  39.976   1.413   9.597
  193POPC   GL1 7837  40.021   1.269   9.161
  193POPC   GL2 7838  40.389   1.263   9.086
  193POPC   C1A 7839  40.033   1.401   8.714
  193POPC   D2A 7840  40.281   1.416   8.321
  193POPC   C3A 7841  40.018   1.342   7.957
  193POPC   C4A 7842  39.814   1.486   7.554
  193POPC   C1B 7843  40.306   0.979   8.718
  193POPC   C2B 7844  40.095   0.934   8.308
  193POPC   C3B 7845  40.245   0.891   7.896
  193POPC   C4B 7846  40.148   0.707   7.499
  194POPC   NC3 7847  17.000   1.360   9.490
  194POPC   PO4 7848  16.632   0.758   9.464
  194POPC   GL1 7849  16.643   1.036   9.135
  194POPC   GL2 7850  16.333   1.210   9.124
  194POPC   C1A 7851  16.959   1.169   8.840
  194POPC   D2A 7852  17.105   1.085   8.437
  194POPC   C3A 7853  17.014   1.303   8.089
  194POPC   C4A 7854  16.682   1.142   7.825
  194POPC   C1B 7855  16.549   1.486   8.847
  194POPC   C2B 7856  16.619   1.456   8.415
  194POPC   C3B 7857  16.580   1.599   7.999
  194POPC   C4B 7858  16.950   1.581   7.673
  195POPC   NC3 7859   9.204   2.889   9.538
  195POPC   PO4 7860   8.615   3.101   9.315
  195POPC   GL1 7861   8.935   2.978   9.100
  195POPC   GL2 7862   8.947   2.670   9.122
  195POPC   C1A 7863   8.832   2.952   8.709
  195POPC   D2A 7864   8.921   2.780   8.366
  195POPC   C3A 7865   9.078   2.967   8.028
  195POPC   C4A 7866   8.917   2.845   7.662
  195POPC   C1B 7867   9.203   2.577   8.799
  195POPC   C2B 7868   9.417   2.654   8.449
  195POPC   C3B 7869   9.494   2.628   8.043
  195POPC   C4B 7870   9.344   2.521   7.643
  196POPC   NC3 7871   5.071   6.109   9.500
  196POPC   PO4 7872   4.933   6.724   9.481
  196POPC   GL1 7873   4.956   6.629   9.066
  196POPC   GL2 7874   4.691   6.405   9.061
  196POPC   C1A 7875   5.187   6.586   8.652
  196POPC   D2A 7876   5.474   6.429   8.326
  196POPC   C3A 7877   5.400   6.699   7.996
  196POPC   C4A 7878   5.046   6.710   7.757
  196POPC   C1B 7879   5.039   6.162   8.871
  196POPC   C2B 7880   5.065   6.085   8.448
  196POPC   C3B 7881   5.043   6.283   8.050
  196POPC   C4B 7882   4.657   6.410   7.877
  197POPC   NC3 7883  29.254  35.307   9.426
  197POPC   PO4 7884  29.191  35.970   9.504
  197POPC   GL1 7885  29.197  35.714   9.132
  197POPC   GL2 7886  28.897  35.612   9.018
  197POPC   C1A 7887  29.308  35.396   8.788
  197POPC   D2A 7888  29.155  35.198   8.412
  197POPC   C3A 7889  29.360  35.192   8.033
  197POPC   C4A 7890  29.354  35.447   7.708
  197POPC   C1B 7891  28.809  35.178   8.807
  197POPC   C2B 7892  28.681  35.032   8.376
  197POPC   C3B 7893  28.836  35.255   7.981
  197POPC   C4B 7894  28.868  35.494   7.567
  198POPC   NC3 7895  12.426  35.875   9.463
  198POPC   PO4 7896  11.812  36.021   9.367
  198POPC   GL1 7897  11.957  36.285   9.058
  198POPC   GL2 7898  12.259  36.198   9.078
  198POPC   C1A 7899  12.121  36.339   8.627
  198POPC   D2A 7900  12.040  36.037   8.311
  198POPC   C3A 7901  11.909  36.348   8.042
  198POPC   C4A 7902  11.963  36.500   7.659
  198POPC   C1B 7903  12.423  35.915   8.777
  198POPC   C2B 7904  12.488  35.716   8.355
  198POPC   C3B 7905  12.432  35.786   7.926
  198POPC   C4B 7906  12.264  36.078   7.627
  199POPC   NC3 7907  10.856  43.710   9.325
  199POPC   PO4 7908  11.439  44.067   9.469
  199POPC   GL1 7909  11.232  44.012   9.081
  199POPC   GL2 7910  10.896  44.139   9.047
  199POPC   C1A 7911  11.185  43.845   8.652
  199POPC   D2A 7912  11.118  43.779   8.203
  199POPC   C3A 7913  11.420  44.031   7.974
  199POPC   C4A 7914  11.549  43.868   7.608
  199POPC   C1B 7915  11.113  44.361   8.729
  199POPC   C2B 7916  11.087  44.281   8.297
  199POPC   C3B 7917  10.935  44.177   7.887
  199POPC   C4B 7918  11.051  43.962   7.544
  200POPC   NC3 7919  33.564  31.440   9.714
  200POPC   PO4 7920  32.945  31.756   9.705
  200POPC   GL1 7921  32.876  31.622   9.327
  200POPC   GL2 7922  33.219  31.516   9.316
  200POPC   C1A 7923  32.807  31.561   8.906
  200POPC   D2A 7924  32.942  31.397   8.513
  200POPC   C3A 7925  32.936  31.691   8.124
  200POPC   C4A 7926  32.646  31.569   7.794
  200POPC   C1B 7927  33.299  31.628   8.888
  200POPC   C2B 7928  33.359  31.687   8.440
  200POPC   C3B 7929  33.335  31.364   8.172
  200POPC   C4B 7930  33.240  31.416   7.764
  201POPC   NC3 7931  25.590   1.314   9.593
  201POPC   PO4 7932  24.973   1.475   9.726
  201POPC   GL1 7933  25.239   1.379   9.233
  201POPC   GL2 7934  25.591   1.471   9.075
  201POPC   C1A 7935  25.368   1.104   8.822
  201POPC   D2A 7936  25.359   1.149   8.346
  201POPC   C3A 7937  25.084   1.120   7.965
  201POPC   C4A 7938  25.125   0.951   7.528
  201POPC   C1B 7939  25.727   1.401   8.616
  201POPC   C2B 7940  25.796   1.398   8.187
  201POPC   C3B 7941  25.563   1.269   7.880
  201POPC   C4B 7942  25.617   1.029   7.540
  202POPC   NC3 7943  15.114  23.028   9.641
  202POPC   PO4 7944  14.839  22.559   9.481
  202POPC   GL1 7945  15.064  22.901   9.146
  202POPC   GL2 7946  15.332  23.196   9.211
  202POPC   C1A 7947  15.188  22.994   8.682
  202POPC   D2A 7948  15.127  22.758   8.264
  202POPC   C3A 7949  15.433  22.792   7.913
  202POPC   C4A 7950  15.524  23.051   7.544
  202POPC   C1B 7951  15.055  23.422   8.938
  202POPC   C2B 7952  15.089  23.517   8.495
  202POPC   C3B 7953  15.137  23.252   8.123
  202POPC   C4B 7954  14.988  22.981   7.773
  203POPC   NC3 7955  35.652  20.544   9.403
  203POPC   PO4 7956  36.319  20.750   9.418
  203POPC   GL1 7957  36.116  20.492   9.106
  203POPC   GL2 7958  35.805  20.265   9.016
  203POPC   C1A 7959  35.987  20.672   8.755
  203POPC   D2A 7960  36.262  20.768   8.448
  203POPC   C3A 7961  36.059  20.945   8.104
  203POPC   C4A 7962  36.274  21.028   7.742
  203POPC   C1B 7963  36.080  20.181   8.665
  203POPC   C2B 7964  36.055  20.344   8.254
  203POPC   C3B 7965  36.157  20.488   7.846
  203POPC   C4B 7966  35.936  20.362   7.478
  204POPC   NC3 7967  38.000  15.332   9.629
  204POPC   PO4 7968  37.431  15.062   9.596
  204POPC   GL1 7969  37.659  15.164   9.241
  204POPC   GL2 7970  37.958  14.978   9.185
  204POPC   C1A 7971  37.743  15.287   8.821
  204POPC   D2A 7972  37.752  15.510   8.431
  204POPC   C3A 7973  37.954  15.453   8.085
  204POPC   C4A 7974  37.727  15.388   7.659
  204POPC   C1B 7975  37.994  14.843   8.753
  204POPC   C2B 7976  37.931  14.997   8.324
  204POPC   C3B 7977  38.017  15.029   7.858
  204POPC   C4B 7978  38.062  15.138   7.345
  205POPC   NC3 7979   3.199  21.979   9.368
  205POPC   PO4 7980   3.912  21.923   9.324
  205POPC   GL1 7981   3.611  21.983   9.052
  205POPC   GL2 7982   3.549  22.284   9.163
  205POPC   C1A 7983   3.304  22.149   8.732
  205POPC   D2A 7984   3.234  22.059   8.311
  205POPC   C3A 7985   3.635  21.991   8.170
  205POPC   C4A 7986   3.779  21.877   7.797
  205POPC   C1B 7987   3.784  22.353   8.775
  205POPC   C2B 7988   3.590  22.444   8.410
  205POPC   C3B 7989   3.514  22.502   8.007
  205POPC   C4B 7990   3.675  22.586   7.598
  206POPC   NC3 7991  18.755  33.237   9.308
  206POPC   PO4 7992  19.151  33.821   9.629
  206POPC   GL1 7993  19.085  33.652   9.182
  206POPC   GL2 7994  19.166  33.290   9.034
  206POPC   C1A 7995  18.931  33.940   8.803
  206POPC   D2A 7996  18.608  34.020   8.449
  206POPC   C3A 7997  18.816  34.028   8.028
  206POPC   C4A 7998  19.257  33.874   7.920
  206POPC   C1B 7999  19.289  33.552   8.709
  206POPC   C2B 8000  19.031  33.683   8.358
  206POPC   C3B 8001  18.925  33.512   7.965
  206POPC   C4B 8002  19.248  33.390   7.697
  207POPC   NC3 8003  36.500  42.169   9.420
  207POPC   PO4 8004  35.801  42.254   9.570
  207POPC   GL1 8005  36.035  42.181   9.184
  207POPC   GL2 8006  35.883  41.887   9.120
  207POPC   C1A 8007  36.195  42.354   8.776
  207POPC   D2A 8008  36.493  42.251   8.403
  207POPC   C3A 8009  36.269  42.386   8.004
  207POPC   C4A 8010  35.916  42.505   7.732
  207POPC   C1B 8011  36.128  41.857   8.767
  207POPC   C2B 8012  36.019  42.041   8.374
  207POPC   C3B 8013  36.219  41.872   8.037
  207POPC   C4B 8014  36.436  42.014   7.684
  208POPC   NC3 8015  12.304  20.937   9.368
  208POPC   PO4 8016  12.113  20.324   9.410
  208POPC   GL1 8017  12.023  20.601   9.101
  208POPC   GL2 8018  11.708  20.693   9.281
  208POPC   C1A 8019  12.245  20.620   8.711
  208POPC   D2A 8020  12.386  20.398   8.371
  208POPC   C3A 8021  12.349  20.649   8.061
  208POPC   C4A 8022  12.185  20.716   7.698
  208POPC   C1B 8023  11.574  20.480   8.904
  208POPC   C2B 8024  11.730  20.592   8.502
  208POPC   C3B 8025  11.802  20.592   8.046
  208POPC   C4B 8026  11.702  20.635   7.599
  209POPC   NC3 8027  31.107  33.621   9.376
  209POPC   PO4 8028  31.534  34.039   9.672
  209POPC   GL1 8029  31.533  33.963   9.199
  209POPC   GL2 8030  31.231  34.100   9.174
  209POPC   C1A 8031  31.741  33.963   8.742
  209POPC   D2A 8032  31.752  34.098   8.279
  209POPC   C3A 8033  31.521  33.807   7.989
  209POPC   C4A 8034  31.171  33.589   7.770
  209POPC   C1B 8035  31.313  34.222   8.766
  209POPC   C2B 8036  31.250  34.061   8.358
  209POPC   C3B 8037  31.167  34.176   7.945
  209POPC   C4B 8038  31.133  34.288   7.520
  210POPC   NC3 8039   1.208  41.932   9.466
  210POPC   PO4 8040   1.397  42.570   9.638
  210POPC   GL1 8041   1.386  42.353   9.225
  210POPC   GL2 8042   1.019  42.342   9.196
  210POPC   C1A 8043   1.306  42.259   8.784
  210POPC   D2A 8044   1.480  42.404   8.403
  210POPC   C3A 8045   1.370  42.409   7.974
  210POPC   C4A 8046   1.707  42.618   7.801
  210POPC   C1B 8047   0.795  42.284   8.805
  210POPC   C2B 8048   0.956  42.348   8.417
  210POPC   C3B 8049   0.808  42.363   8.043
  210POPC   C4B 8050   0.921  42.488   7.667
  211POPC   NC3 8051  36.231  36.644   9.515
  211POPC   PO4 8052  36.502  37.264   9.392
  211POPC   GL1 8053  36.315  36.970   9.117
  211POPC   GL2 8054  36.486  36.636   9.086
  211POPC   C1A 8055  36.127  37.146   8.756
  211POPC   D2A 8056  36.255  37.303   8.361
  211POPC   C3A 8057  35.968  37.179   8.054
  211POPC   C4A 8058  35.864  36.801   7.877
  211POPC   C1B 8059  36.460  36.764   8.665
  211POPC   C2B 8060  36.724  36.815   8.332
  211POPC   C3B 8061  36.630  36.611   7.967
  211POPC   C4B 8062  36.456  36.733   7.605
  212POPC   NC3 8063  36.320  14.602   9.463
  212POPC   PO4 8064  36.393  13.975   9.228
  212POPC   GL1 8065  36.322  14.324   9.029
  212POPC   GL2 8066  35.999  14.423   9.092
  212POPC   C1A 8067  36.249  14.494   8.659
  212POPC   D2A 8068  36.032  14.519   8.331
  212POPC   C3A 8069  36.347  14.422   8.073
  212POPC   C4A 8070  36.358  14.739   7.810
  212POPC   C1B 8071  35.798  14.714   8.803
  212POPC   C2B 8072  35.627  14.838   8.405
  212POPC   C3B 8073  35.752  14.796   7.988
  212POPC   C4B 8074  35.908  14.386   7.818
  213POPC   NC3 8075  26.597  10.369   9.554
  213POPC   PO4 8076  27.236  10.693   9.544
  213POPC   GL1 8077  27.006  10.797   9.196
  213POPC   GL2 8078  26.899  10.491   9.189
  213POPC   C1A 8079  26.750  10.788   8.808
  213POPC   D2A 8080  26.657  10.563   8.428
  213POPC   C3A 8081  26.824  10.658   8.013
  213POPC   C4A 8082  26.683  10.762   7.624
  213POPC   C1B 8083  26.757  10.281   8.840
  213POPC   C2B 8084  26.939  10.136   8.449
  213POPC   C3B 8085  26.747  10.151   8.046
  213POPC   C4B 8086  26.929  10.290   7.646
  214POPC   NC3 8087  26.319  11.140   9.351
  214POPC   PO4 8088  25.883  11.567   9.485
  214POPC   GL1 8089  25.875  11.292   9.119
  214POPC   GL2 8090  25.833  10.905   9.168
  214POPC   C1A 8091  25.995  11.299   8.669
  214POPC   D2A 8092  26.158  11.446   8.258
  214POPC   C3A 8093  25.998  11.392   7.811
  214POPC   C4A 8094  25.691  11.519   7.436
  214POPC   C1B 8095  26.129  10.805   8.819
  214POPC   C2B 8096  26.290  10.934   8.443
  214POPC   C3B 8097  26.041  10.956   8.077
  214POPC   C4B 8098  26.176  10.860   7.663
  215POPC   NC3 8099   3.989  41.301   9.291
  215POPC   PO4 8100   4.441  41.739   9.649
  215POPC   GL1 8101   4.361  41.676   9.209
  215POPC   GL2 8102   4.419  41.361   9.051
  215POPC   C1A 8103   4.191  41.738   8.789
  215POPC   D2A 8104   4.307  41.646   8.379
  215POPC   C3A 8105   4.164  41.935   8.088
  215POPC   C4A 8106   4.374  41.806   7.762
  215POPC   C1B 8107   4.230  41.189   8.643
  215POPC   C2B 8108   4.025  41.251   8.238
  215POPC   C3B 8109   4.358  41.315   7.913
  215POPC   C4B 8110   4.461  41.034   7.544
  216POPC   NC3 8111  33.424  33.055   9.435
  216POPC   PO4 8112  32.833  33.205   9.666
  216POPC   GL1 8113  32.875  33.072   9.214
  216POPC   GL2 8114  32.702  32.754   9.174
  216POPC   C1A 8115  33.145  33.001   8.798
  216POPC   D2A 8116  33.307  33.113   8.384
  216POPC   C3A 8117  33.164  33.051   7.926
  216POPC   C4A 8118  33.052  33.163   7.470
  216POPC   C1B 8119  32.648  32.955   8.768
  216POPC   C2B 8120  32.503  33.081   8.372
  216POPC   C3B 8121  32.642  33.124   7.964
  216POPC   C4B 8122  32.677  32.861   7.645
  217POPC   NC3 8123  37.975  36.674   9.357
  217POPC   PO4 8124  37.472  37.063   9.255
  217POPC   GL1 8125  37.716  36.917   8.913
  217POPC   GL2 8126  38.066  36.749   8.880
  217POPC   C1A 8127  37.691  37.108   8.514
  217POPC   D2A 8128  37.963  37.065   8.167
  217POPC   C3A 8129  37.688  36.959   7.853
  217POPC   C4A 8130  37.469  36.763   7.532
  217POPC   C1B 8131  37.938  36.641   8.500
  217POPC   C2B 8132  37.536  36.651   8.323
  217POPC   C3B 8133  37.502  36.469   7.962
  217POPC   C4B 8134  37.861  36.452   7.751
  218POPC   NC3 8135  27.492  37.102   9.576
  218POPC   PO4 8136  27.621  37.808   9.541
  218POPC   GL1 8137  27.665  37.772   9.141
  218POPC   GL2 8138  27.804  37.454   9.178
  218POPC   C1A 8139  27.612  38.003   8.739
  218POPC   D2A 8140  27.833  38.102   8.346
  218POPC   C3A 8141  27.547  38.051   7.979
  218POPC   C4A 8142  27.525  37.849   7.553
  218POPC   C1B 8143  27.666  37.457   8.754
  218POPC   C2B 8144  27.465  37.650   8.374
  218POPC   C3B 8145  27.686  37.569   7.987
  218POPC   C4B 8146  27.808  37.352   7.649
  219POPC   NC3 8147  41.978  18.738   9.559
  219POPC   PO4 8148  41.474  18.237   9.413
  219POPC   GL1 8149  41.500  18.242   9.039
  219POPC   GL2 8150  41.657  18.543   9.031
  219POPC   C1A 8151  41.632  18.202   8.629
  219POPC   D2A 8152  41.682  18.066   8.260
  219POPC   C3A 8153  41.658  18.303   7.935
  219POPC   C4A 8154  41.841  17.966   7.714
  219POPC   C1B 8155  41.290  18.555   8.706
  219POPC   C2B 8156  41.406  18.615   8.311
  219POPC   C3B 8157  41.210  18.557   7.987
  219POPC   C4B 8158  41.285  18.480   7.614
  220POPC   NC3 8159  31.548   1.475   9.622
  220POPC   PO4 8160  31.807   0.916   9.424
  220POPC   GL1 8161  31.606   1.162   9.111
  220POPC   GL2 8162  31.286   1.304   9.157
  220POPC   C1A 8163  31.724   1.246   8.695
  220POPC   D2A 8164  31.794   1.598   8.398
  220POPC   C3A 8165  31.670   1.462   7.988
  220POPC   C4A 8166  31.699   1.004   7.873
  220POPC   C1B 8167  31.225   1.126   8.739
  220POPC   C2B 8168  31.381   1.172   8.314
  220POPC   C3B 8169  31.198   1.189   7.916
  220POPC   C4B 8170  31.105   1.022   7.524
  221POPC   NC3 8171  10.972  36.078   9.558
  221POPC   PO4 8172  10.378  35.812   9.742
  221POPC   GL1 8173  10.410  35.853   9.291
  221POPC   GL2 8174  10.535  36.193   9.268
  221POPC   C1A 8175  10.580  35.874   8.860
  221POPC   D2A 8176  10.399  35.803   8.473
  221POPC   C3A 8177  10.474  36.099   8.148
  221POPC   C4A 8178  10.637  35.974   7.759
  221POPC   C1B 8179  10.586  36.385   8.854
  221POPC   C2B 8180  10.784  36.475   8.440
  221POPC   C3B 8181  10.762  36.593   7.982
  221POPC   C4B 8182  10.710  36.427   7.547
  222POPC   NC3 8183  34.885  34.571   9.794
  222POPC   PO4 8184  34.321  34.742   9.445
  222POPC   GL1 8185  34.446  34.784   9.039
  222POPC   GL2 8186  34.493  34.439   9.004
  222POPC   C1A 8187  34.573  34.737   8.592
  222POPC   D2A 8188  34.392  34.421   8.348
  222POPC   C3A 8189  34.533  34.311   8.030
  222POPC   C4A 8190  34.533  34.604   7.704
  222POPC   C1B 8191  34.744  34.229   8.668
  222POPC   C2B 8192  34.978  34.171   8.267
  222POPC   C3B 8193  34.982  34.321   7.817
  222POPC   C4B 8194  35.000  34.328   7.368
  223POPC   NC3 8195  10.660  34.309   9.466
  223POPC   PO4 8196  10.223  34.909   9.524
  223POPC   GL1 8197  10.462  34.753   9.207
  223POPC   GL2 8198  10.375  34.445   9.096
  223POPC   C1A 8199  10.446  34.868   8.779
  223POPC   D2A 8200  10.725  34.956   8.434
  223POPC   C3A 8201  10.555  34.844   8.022
  223POPC   C4A 8202  10.176  34.617   7.896
  223POPC   C1B 8203  10.305  34.271   8.716
  223POPC   C2B 8204  10.392  34.395   8.306
  223POPC   C3B 8205  10.544  34.273   7.907
  223POPC   C4B 8206  10.740  34.473   7.555
  224POPC   NC3 8207   9.606  13.395   9.392
  224POPC   PO4 8208  10.024  13.919   9.604
  224POPC   GL1 8209  10.001  13.697   9.183
  224POPC   GL2 8210   9.929  13.332   9.010
  224POPC   C1A 8211   9.844  13.793   8.776
  224POPC   D2A 8212   9.587  13.721   8.438
  224POPC   C3A 8213   9.759  13.887   8.082
  224POPC   C4A 8214   9.904  13.996   7.714
  224POPC   C1B 8215   9.499  13.296   8.764
  224POPC   C2B 8216   9.330  13.298   8.346
  224POPC   C3B 8217   9.647  13.373   8.033
  224POPC   C4B 8218   9.744  13.507   7.635
  225POPC   NC3 8219  38.296   8.125   9.645
  225POPC   PO4 8220  38.870   8.378   9.357
  225POPC   GL1 8221  38.663   8.051   9.107
  225POPC   GL2 8222  38.305   8.084   9.132
  225POPC   C1A 8223  38.544   8.116   8.663
  225POPC   D2A 8224  38.517   8.549   8.480
  225POPC   C3A 8225  38.600   8.538   8.037
  225POPC   C4A 8226  38.643   8.088   7.847
  225POPC   C1B 8227  38.033   8.078   8.765
  225POPC   C2B 8228  37.953   7.868   8.386
  225POPC   C3B 8229  38.146   7.980   8.021
  225POPC   C4B 8230  38.196   8.353   7.800
  226POPC   NC3 8231  34.684  38.646   9.524
  226POPC   PO4 8232  34.335  37.996   9.520
  226POPC   GL1 8233  34.509  38.290   9.218
  226POPC   GL2 8234  34.839  38.242   9.055
  226POPC   C1A 8235  34.425  38.441   8.813
  226POPC   D2A 8236  34.560  38.270   8.430
  226POPC   C3A 8237  34.386  38.367   8.035
  226POPC   C4A 8238  34.544  38.314   7.601
  226POPC   C1B 8239  34.877  38.659   8.877
  226POPC   C2B 8240  34.680  38.811   8.499
  226POPC   C3B 8241  34.774  38.695   8.059
  226POPC   C4B 8242  34.931  38.783   7.627
  227POPC   NC3 8243  16.736  14.800   9.389
  227POPC   PO4 8244  16.866  15.450   9.495
  227POPC   GL1 8245  16.576  15.350   9.163
  227POPC   GL2 8246  16.813  15.157   9.035
  227POPC   C1A 8247  16.635  15.455   8.682
  227POPC   D2A 8248  16.631  15.277   8.285
  227POPC   C3A 8249  16.766  15.349   7.896
  227POPC   C4A 8250  16.693  15.088   7.556
  227POPC   C1B 8251  16.879  14.988   8.629
  227POPC   C2B 8252  17.247  14.913   8.435
  227POPC   C3B 8253  17.094  14.943   8.044
  227POPC   C4B 8254  16.946  14.670   7.730
  228POPC   NC3 8255  37.448  12.461   9.531
  228POPC   PO4 8256  37.416  11.830   9.494
  228POPC   GL1 8257  37.618  11.893   9.109
  228POPC   GL2 8258  37.478  12.220   9.077
  228POPC   C1A 8259  37.857  12.051   8.754
  228POPC   D2A 8260  37.848  12.277   8.365
  228POPC   C3A 8261  37.803  12.025   8.013
  228POPC   C4A 8262  37.955  12.181   7.625
  228POPC   C1B 8263  37.447  12.429   8.679
  228POPC   C2B 8264  37.318  12.397   8.228
  228POPC   C3B 8265  37.524  12.409   7.837
  228POPC   C4B 8266  37.590  12.428   7.367
  229POPC   NC3 8267  27.003   8.704   9.737
  229POPC   PO4 8268  26.382   8.332   9.617
  229POPC   GL1 8269  26.759   8.355   9.308
  229POPC   GL2 8270  26.853   8.072   9.063
  229POPC   C1A 8271  26.955   8.544   8.918
  229POPC   D2A 8272  27.020   8.714   8.476
  229POPC   C3A 8273  26.944   8.520   8.064
  229POPC   C4A 8274  26.702   8.369   7.719
  229POPC   C1B 8275  26.766   8.204   8.597
  229POPC   C2B 8276  26.700   8.073   8.155
  229POPC   C3B 8277  26.580   7.884   7.742
  229POPC   C4B 8278  26.450   8.094   7.353
  230POPC   NC3 8279  33.549  43.334   9.629
  230POPC   PO4 8280  34.026  42.950   9.770
  230POPC   GL1 8281  33.838  43.037   9.277
  230POPC   GL2 8282  33.573  42.803   9.114
  230POPC   C1A 8283  33.837  43.126   8.796
  230POPC   D2A 8284  33.826  43.389   8.405
  230POPC   C3A 8285  34.056  43.282   8.034
  230POPC   C4A 8286  33.949  43.314   7.591
  230POPC   C1B 8287  33.399  42.869   8.704
  230POPC   C2B 8288  33.634  42.924   8.302
  230POPC   C3B 8289  33.588  43.089   7.880
  230POPC   C4B 8290  33.666  42.898   7.455
  231POPC   NC3 8291   1.374  34.067   9.528
  231POPC   PO4 8292   1.396  33.400   9.410
  231POPC   GL1 8293   1.333  33.743   9.133
  231POPC   GL2 8294   1.023  33.931   9.177
  231POPC   C1A 8295   1.358  33.818   8.708
  231POPC   D2A 8296   1.050  33.826   8.353
  231POPC   C3A 8297   1.264  33.754   7.957
  231POPC   C4A 8298   1.048  33.673   7.591
  231POPC   C1B 8299   0.947  34.132   8.782
  231POPC   C2B 8300   1.268  34.265   8.485
  231POPC   C3B 8301   1.285  34.269   8.030
  231POPC   C4B 8302   1.246  34.142   7.575
  232POPC   NC3 8303  36.574  25.800   9.436
  232POPC   PO4 8304  35.918  25.878   9.277
  232POPC   GL1 8305  36.253  25.930   9.019
  232POPC   GL2 8306  36.433  26.228   9.103
  232POPC   C1A 8307  36.195  26.124   8.624
  232POPC   D2A 8308  36.154  26.251   8.179
  232POPC   C3A 8309  36.144  25.841   7.946
  232POPC   C4A 8310  35.754  25.663   7.913
  232POPC   C1B 8311  36.581  26.471   8.686
  232POPC   C2B 8312  36.601  26.590   8.226
  232POPC   C3B 8313  36.374  26.609   7.831
  232POPC   C4B 8314  36.103  26.282   7.649
  233POPC   NC3 8315  18.437  10.299   9.536
  233POPC   PO4 8316  17.746  10.506   9.662
  233POPC   GL1 8317  18.146  10.518   9.191
  233POPC   GL2 8318  18.457  10.641   9.148
  233POPC   C1A 8319  18.253  10.376   8.759
  233POPC   D2A 8320  18.134  10.566   8.355
  233POPC   C3A 8321  18.260  10.403   7.935
  233POPC   C4A 8322  18.000  10.633   7.597
  233POPC   C1B 8323  18.366  10.867   8.747
  233POPC   C2B 8324  18.599  10.909   8.376
  233POPC   C3B 8325  18.398  10.885   7.991
  233POPC   C4B 8326  18.489  10.789   7.588
  234POPC   NC3 8327  33.370   9.583   9.878
  234POPC   PO4 8328  32.884   9.798   9.487
  234POPC   GL1 8329  33.253   9.646   9.251
  234POPC   GL2 8330  33.237   9.930   9.063
  234POPC   C1A 8331  33.351   9.528   8.794
  234POPC   D2A 8332  33.274   9.819   8.434
  234POPC   C3A 8333  33.261   9.625   8.024
  234POPC   C4A 8334  33.054   9.481   7.663
  234POPC   C1B 8335  32.877   9.875   8.820
  234POPC   C2B 8336  32.732   9.950   8.409
  234POPC   C3B 8337  32.846   9.922   7.983
  234POPC   C4B 8338  32.919   9.943   7.541
  235POPC   NC3 8339  33.414  18.552   9.507
  235POPC   PO4 8340  32.765  18.660   9.501
  235POPC   GL1 8341  32.917  18.370   9.205
  235POPC   GL2 8342  33.111  18.632   9.085
  235POPC   C1A 8343  33.125  18.206   8.818
  235POPC   D2A 8344  33.202  17.852   8.563
  235POPC   C3A 8345  33.147  17.917   8.141
  235POPC   C4A 8346  33.086  17.953   7.737
  235POPC   C1B 8347  33.380  18.638   8.712
  235POPC   C2B 8348  33.267  18.370   8.353
  235POPC   C3B 8349  33.066  18.422   7.946
  235POPC   C4B 8350  33.205  18.380   7.515
  236POPC   NC3 8351  14.337   5.114   9.641
  236POPC   PO4 8352  14.939   5.024   9.557
  236POPC   GL1 8353  14.618   4.933   9.240
  236POPC   GL2 8354  14.288   5.041   9.124
  236POPC   C1A 8355  14.607   4.769   8.817
  236POPC   D2A 8356  14.486   4.666   8.409
  236POPC   C3A 8357  14.598   4.912   8.069
  236POPC   C4A 8358  14.403   4.806   7.738
  236POPC   C1B 8359  14.115   4.919   8.694
  236POPC   C2B 8360  14.128   5.029   8.237
  236POPC   C3B 8361  14.114   5.217   7.799
  236POPC   C4B 8362  13.851   5.378   7.445
  237POPC   NC3 8363   3.993  32.438   9.317
  237POPC   PO4 8364   4.221  31.902   9.691
  237POPC   GL1 8365   4.412  31.956   9.249
  237POPC   GL2 8366   4.375  32.312   9.035
  237POPC   C1A 8367   4.595  31.939   8.813
  237POPC   D2A 8368   4.447  32.242   8.500
  237POPC   C3A 8369   4.477  32.196   8.065
  237POPC   C4A 8370   4.709  31.936   7.802
  237POPC   C1B 8371   4.141  32.567   8.703
  237POPC   C2B 8372   3.811  32.630   8.380
  237POPC   C3B 8373   3.802  32.486   7.956
  237POPC   C4B 8374   4.122  32.328   7.675
  238POPC   NC3 8375   2.986  22.951   9.471
  238POPC   PO4 8376   3.043  22.409   9.313
  238POPC   GL1 8377   3.371  22.755   9.155
  238POPC   GL2 8378   3.750  22.743   9.233
  238POPC   C1A 8379   3.605  22.840   8.744
  238POPC   D2A 8380   3.444  22.931   8.322
  238POPC   C3A 8381   3.699  22.976   7.932
  238POPC   C4A 8382   3.869  23.244   7.578
  238POPC   C1B 8383   4.090  22.740   8.902
  238POPC   C2B 8384   4.057  22.668   8.452
  238POPC   C3B 8385   4.030  22.533   8.011
  238POPC   C4B 8386   4.135  22.811   7.666
  239POPC   NC3 8387  31.220  18.844   9.285
  239POPC   PO4 8388  31.813  19.287   9.255
  239POPC   GL1 8389  31.512  19.215   8.983
  239POPC   GL2 8390  31.165  19.283   9.012
  239POPC   C1A 8391  31.410  19.404   8.588
  239POPC   D2A 8392  31.279  19.201   8.245
  239POPC   C3A 8393  31.326  19.211   7.865
  239POPC   C4A 8394  31.505  18.841   7.692
  239POPC   C1B 8395  31.252  18.927   8.665
  239POPC   C2B 8396  31.315  18.690   8.300
  239POPC   C3B 8397  31.061  18.785   7.961
  239POPC   C4B 8398  31.019  18.918   7.542
  240POPC   NC3 8399  36.113   7.207   9.411
  240POPC   PO4 8400  35.699   7.698   9.289
  240POPC   GL1 8401  35.904   7.475   9.021
  240POPC   GL2 8402  35.821   7.117   9.004
  240POPC   C1A 8403  36.015   7.609   8.619
  240POPC   D2A 8404  35.900   7.440   8.255
  240POPC   C3A 8405  36.226   7.528   7.973
  240POPC   C4A 8406  35.936   7.703   7.732
  240POPC   C1B 8407  36.187   7.150   8.754
  240POPC   C2B 8408  36.327   7.152   8.370
  240POPC   C3B 8409  36.096   7.033   8.007
  240POPC   C4B 8410  36.043   7.201   7.615
  241POPC   NC3 8411   2.677  35.299   9.540
  241POPC   PO4 8412   3.214  34.928   9.323
  241POPC   GL1 8413   2.965  35.217   9.106
  241POPC   GL2 8414   2.928  35.569   9.190
  241POPC   C1A 8415   2.906  35.302   8.675
  241POPC   D2A 8416   2.731  35.105   8.315
  241POPC   C3A 8417   2.872  35.280   7.949
  241POPC   C4A 8418   3.135  35.627   7.848
  241POPC   C1B 8419   2.570  35.600   8.896
  241POPC   C2B 8420   2.496  35.561   8.452
  241POPC   C3B 8421   2.376  35.576   8.014
  241POPC   C4B 8422   2.666  35.668   7.689
  242POPC   NC3 8423  30.238   8.836   9.376
  242POPC   PO4 8424  29.533   8.688   9.349
  242POPC   GL1 8425  29.618   8.903   8.960
  242POPC   GL2 8426  29.901   9.136   9.054
  242POPC   C1A 8427  29.729   8.993   8.543
  242POPC   D2A 8428  29.787   8.838   8.111
  242POPC   C3A 8429  29.572   9.042   7.766
  242POPC   C4A 8430  29.613   8.898   7.341
  242POPC   C1B 8431  30.221   9.047   8.735
  242POPC   C2B 8432  30.392   9.144   8.321
  242POPC   C3B 8433  30.264   9.013   7.924
  242POPC   C4B 8434  30.043   9.182   7.590
  243POPC   NC3 8435   0.567  32.665   9.763
  243POPC   PO4 8436   0.208  32.075   9.592
  243POPC   GL1 8437   0.428  32.205   9.255
  243POPC   GL2 8438   0.348  31.947   9.071
  243POPC   C1A 8439   0.546  32.348   8.818
  243POPC   D2A 8440   0.395  32.510   8.433
  243POPC   C3A 8441   0.577  32.464   7.987
  243POPC   C4A 8442   0.624  32.489   7.510
  243POPC   C1B 8443   0.469  31.852   8.661
  243POPC   C2B 8444   0.477  32.025   8.268
  243POPC   C3B 8445   0.455  31.988   7.833
  243POPC   C4B 8446   0.200  31.909   7.532
  244POPC   NC3 8447  28.756  11.309   9.447
  244POPC   PO4 8448  28.110  11.010   9.489
  244POPC   GL1 8449  28.292  11.270   9.195
  244POPC   GL2 8450  28.507  10.990   9.140
  244POPC   C1A 8451  28.270  11.388   8.760
  244POPC   D2A 8452  28.544  11.351   8.375
  244POPC   C3A 8453  28.272  11.418   8.026
  244POPC   C4A 8454  28.011  11.445   7.677
  244POPC   C1B 8455  28.703  11.080   8.782
  244POPC   C2B 8456  28.860  10.913   8.429
  244POPC   C3B 8457  28.709  11.005   8.032
  244POPC   C4B 8458  28.512  11.124   7.694
  245POPC   NC3 8459  31.542  36.381   9.347
  245POPC   PO4 8460  31.306  35.754   9.495
  245POPC   GL1 8461  31.456  35.921   9.117
  245POPC   GL2 8462  31.112  36.014   9.048
  245POPC   C1A 8463  31.581  36.147   8.702
  245POPC   D2A 8464  31.740  36.114   8.255
  245POPC   C3A 8465  31.574  36.264   7.853
  245POPC   C4A 8466  31.730  36.085   7.459
  245POPC   C1B 8467  31.215  35.769   8.698
  245POPC   C2B 8468  31.251  35.900   8.247
  245POPC   C3B 8469  31.442  35.772   7.852
  245POPC   C4B 8470  31.287  35.873   7.442
  246POPC   NC3 8471  33.547   7.017   9.309
  246POPC   PO4 8472  33.586   7.667   9.360
  246POPC   GL1 8473  33.499   7.457   9.030
  246POPC   GL2 8474  33.867   7.341   9.050
  246POPC   C1A 8475  33.607   7.365   8.629
  246POPC   D2A 8476  33.855   7.128   8.367
  246POPC   C3A 8477  33.782   7.223   7.947
  246POPC   C4A 8478  33.511   7.562   7.833
  246POPC   C1B 8479  34.078   7.579   8.704
  246POPC   C2B 8480  33.866   7.684   8.295
  246POPC   C3B 8481  33.972   7.755   7.869
  246POPC   C4B 8482  34.041   7.462   7.553
  247POPC   NC3 8483  17.569  32.987   9.510
  247POPC   PO4 8484  18.053  32.668   9.161
  247POPC   GL1 8485  17.610  32.793   9.025
  247POPC   GL2 8486  17.391  33.131   9.067
  247POPC   C1A 8487  17.542  32.826   8.595
  247POPC   D2A 8488  17.240  32.989   8.325
  247POPC   C3A 8489  17.458  32.967   7.973
  247POPC   C4A 8490  17.582  32.685   7.712
  247POPC   C1B 8491  17.520  33.335   8.704
  247POPC   C2B 8492  17.646  33.296   8.303
  247POPC   C3B 8493  17.570  33.519   7.929
  247POPC   C4B 8494  17.344  33.481   7.528
  248POPC   NC3 8495  23.134  24.381   9.406
  248POPC   PO4 8496  22.635  24.755   9.537
  248POPC   GL1 8497  22.771  24.668   9.144
  248POPC   GL2 8498  22.659  24.333   9.189
  248POPC   C1A 8499  22.992  24.507   8.770
  248POPC   D2A 8500  23.160  24.629   8.368
  248POPC   C3A 8501  22.965  24.470   8.001
  248POPC   C4A 8502  22.806  24.654   7.667
  248POPC   C1B 8503  22.459  24.442   8.797
  248POPC   C2B 8504  22.625  24.535   8.410
  248POPC   C3B 8505  22.487  24.286   8.048
  248POPC   C4B 8506  22.597  24.189   7.614
  249POPC   NC3 8507  41.913  24.242   9.552
  249POPC   PO4 8508  41.256  24.462   9.429
  249POPC   GL1 8509  41.585  24.503   9.131
  249POPC   GL2 8510  41.660  24.835   9.081
  249POPC   C1A 8511  41.496  24.564   8.680
  249POPC   D2A 8512  41.672  24.351   8.331
  249POPC   C3A 8513  41.557  24.475   7.950
  249POPC   C4A 8514  41.700  24.169   7.687
  249POPC   C1B 8515  41.923  24.858   8.804
  249POPC   C2B 8516  41.938  24.774   8.426
  249POPC   C3B 8517  42.069  24.694   8.039
  249POPC   C4B 8518  41.972  24.621   7.640
  250POPC   NC3 8519  19.279  29.611   9.408
  250POPC   PO4 8520  18.791  30.210   9.520
  250POPC   GL1 8521  18.923  29.981   9.228
  250POPC   GL2 8522  19.208  30.115   9.133
  250POPC   C1A 8523  18.832  29.983   8.804
  250POPC   D2A 8524  18.949  30.094   8.395
  250POPC   C3A 8525  18.840  29.807   8.077
  250POPC   C4A 8526  18.990  29.812   7.634
  250POPC   C1B 8527  19.357  29.922   8.778
  250POPC   C2B 8528  19.433  29.723   8.410
  250POPC   C3B 8529  19.346  29.912   8.040
  250POPC   C4B 8530  19.452  30.050   7.646
  251POPC   NC3 8531   1.082  37.500   9.533
  251POPC   PO4 8532   1.381  38.044   9.892
  251POPC   GL1 8533   1.352  37.996   9.399
  251POPC   GL2 8534   1.529  37.682   9.273
  251POPC   C1A 8535   1.247  37.960   8.933
  251POPC   D2A 8536   1.137  37.724   8.545
  251POPC   C3A 8537   1.040  37.845   8.123
  251POPC   C4A 8538   0.798  37.653   7.809
  251POPC   C1B 8539   1.579  37.565   8.802
  251POPC   C2B 8540   1.618  37.645   8.326
  251POPC   C3B 8541   1.453  37.614   7.881
  251POPC   C4B 8542   1.199  37.755   7.508
  252POPC   NC3 8543  30.028  20.210   9.155
  252POPC   PO4 8544  30.263  20.681   9.637
  252POPC   GL1 8545  30.200  20.745   9.163
  252POPC   GL2 8546  29.853  20.693   9.079
  252POPC   C1A 8547  30.211  20.652   8.694
  252POPC   D2A 8548  29.894  20.494   8.391
  252POPC   C3A 8549  29.978  20.589   7.966
  252POPC   C4A 8550  29.943  20.327   7.626
  252POPC   C1B 8551  29.773  20.913   8.703
  252POPC   C2B 8552  29.980  20.989   8.316
  252POPC   C3B 8553  29.705  21.032   7.975
  252POPC   C4B 8554  29.629  20.804   7.641
  253POPC   NC3 8555  19.280   4.829   9.671
  253POPC   PO4 8556  19.042   5.358   9.476
  253POPC   GL1 8557  19.034   5.243   9.081
  253POPC   GL2 8558  19.001   4.928   9.162
  253POPC   C1A 8559  18.748   5.190   8.726
  253POPC   D2A 8560  18.801   5.183   8.279
  253POPC   C3A 8561  19.180   5.049   8.131
  253POPC   C4A 8562  19.111   5.324   7.820
  253POPC   C1B 8563  18.740   4.710   8.887
  253POPC   C2B 8564  18.924   4.724   8.488
  253POPC   C3B 8565  18.843   4.679   8.069
  253POPC   C4B 8566  18.776   4.917   7.724
  254POPC   NC3 8567  11.568  18.284   9.540
  254POPC   PO4 8568  12.300  18.186   9.509
  254POPC   GL1 8569  11.986  18.278   9.202
  254POPC   GL2 8570  11.844  17.934   9.198
  254POPC   C1A 8571  11.974  18.495   8.793
  254POPC   D2A 8572  12.166  18.419   8.389
  254POPC   C3A 8573  11.986  18.411   7.992
  254POPC   C4A 8574  12.111  18.588   7.595
  254POPC   C1B 8575  11.877  17.998   8.759
  254POPC   C2B 8576  12.075  17.915   8.353
  254POPC   C3B 8577  12.364  18.042   8.020
  254POPC   C4B 8578  12.101  18.058   7.641
  255POPC   NC3 8579   9.298  40.882   9.441
  255POPC   PO4 8580   8.711  40.437   9.459
  255POPC   GL1 8581   8.846  40.645   9.129
  255POPC   GL2 8582   8.835  40.989   9.228
  255POPC   C1A 8583   8.968  40.540   8.711
  255POPC   D2A 8584   8.901  40.422   8.290
  255POPC   C3A 8585   9.215  40.595   7.983
  255POPC   C4A 8586   9.298  40.913   7.676
  255POPC   C1B 8587   8.923  41.033   8.794
  255POPC   C2B 8588   8.700  40.919   8.408
  255POPC   C3B 8589   8.731  40.794   7.995
  255POPC   C4B 8590   8.776  41.003   7.643
  256POPC   NC3 8591  26.931  24.603   9.569
  256POPC   PO4 8592  26.663  24.120   9.262
  256POPC   GL1 8593  26.686  24.517   9.080
  256POPC   GL2 8594  26.953  24.694   9.085
  256POPC   C1A 8595  26.803  24.427   8.660
  256POPC   D2A 8596  26.766  24.177   8.318
  256POPC   C3A 8597  26.835  24.284   7.912
  256POPC   C4A 8598  27.261  24.158   7.857
  256POPC   C1B 8599  27.176  24.767   8.731
  256POPC   C2B 8600  27.191  24.560   8.362
  256POPC   C3B 8601  27.180  24.660   7.988
  256POPC   C4B 8602  26.827  24.828   7.780
  257POPC   NC3 8603  18.430  31.378   9.442
  257POPC   PO4 8604  17.868  31.529   9.831
  257POPC   GL1 8605  17.874  31.567   9.304
  257POPC   GL2 8606  18.044  31.283   9.093
  257POPC   C1A 8607  17.808  31.589   8.789
  257POPC   D2A 8608  18.068  31.407   8.433
  257POPC   C3A 8609  18.311  31.653   8.098
  257POPC   C4A 8610  18.122  31.464   7.699
  257POPC   C1B 8611  18.429  31.188   8.816
  257POPC   C2B 8612  18.590  31.292   8.407
  257POPC   C3B 8613  18.337  31.156   8.058
  257POPC   C4B 8614  18.470  31.089   7.650
  258POPC   NC3 8615  23.188  13.705   9.589
  258POPC   PO4 8616  22.743  14.070   9.490
  258POPC   GL1 8617  22.793  13.648   9.231
  258POPC   GL2 8618  23.073  13.475   9.142
  258POPC   C1A 8619  22.727  13.476   8.781
  258POPC   D2A 8620  22.672  13.685   8.399
  258POPC   C3A 8621  22.791  13.528   8.023
  258POPC   C4A 8622  22.875  13.666   7.641
  258POPC   C1B 8623  23.206  13.676   8.761
  258POPC   C2B 8624  23.202  13.553   8.353
  258POPC   C3B 8625  23.336  13.548   7.958
  258POPC   C4B 8626  23.320  13.449   7.546
  259POPC   NC3 8627  34.887  16.053   9.523
  259POPC   PO4 8628  34.383  15.584   9.582
  259POPC   GL1 8629  34.495  15.848   9.222
  259POPC   GL2 8630  34.505  16.225   9.241
  259POPC   C1A 8631  34.568  15.903   8.784
  259POPC   D2A 8632  34.790  15.696   8.409
  259POPC   C3A 8633  34.652  15.738   7.949
  259POPC   C4A 8634  34.586  15.775   7.463
  259POPC   C1B 8635  34.814  16.314   8.903
  259POPC   C2B 8636  34.748  16.216   8.444
  259POPC   C3B 8637  34.849  16.211   8.050
  259POPC   C4B 8638  34.635  16.218   7.671
  260POPC   NC3 8639  32.817   6.084   9.525
  260POPC   PO4 8640  33.294   5.665   9.605
  260POPC   GL1 8641  33.291   5.728   9.138
  260POPC   GL2 8642  33.153   6.082   9.103
  260POPC   C1A 8643  33.307   5.844   8.680
  260POPC   D2A 8644  32.976   6.032   8.413
  260POPC   C3A 8645  33.081   5.895   8.000
  260POPC   C4A 8646  33.151   6.058   7.587
  260POPC   C1B 8647  32.815   5.810   8.867
  260POPC   C2B 8648  32.537   5.755   8.481
  260POPC   C3B 8649  32.606   5.665   8.062
  260POPC   C4B 8650  32.740   5.761   7.640
  261POPC   NC3 8651  24.169  22.310   9.566
  261POPC   PO4 8652  23.472  22.100   9.493
  261POPC   GL1 8653  23.759  22.155   9.168
  261POPC   GL2 8654  23.470  22.276   9.023
  261POPC   C1A 8655  23.881  22.293   8.731
  261POPC   D2A 8656  24.045  22.408   8.324
  261POPC   C3A 8657  23.961  22.173   7.931
  261POPC   C4A 8658  23.665  22.308   7.634
  261POPC   C1B 8659  23.418  22.061   8.670
  261POPC   C2B 8660  23.599  22.118   8.280
  261POPC   C3B 8661  23.456  21.928   7.903
  261POPC   C4B 8662  23.421  21.515   7.709
  262POPC   NC3 8663  38.809  33.756   9.551
  262POPC   PO4 8664  38.157  33.475   9.518
  262POPC   GL1 8665  38.424  33.688   9.178
  262POPC   GL2 8666  38.730  33.454   9.174
  262POPC   C1A 8667  38.395  34.027   8.797
  262POPC   D2A 8668  38.189  34.012   8.384
  262POPC   C3A 8669  38.360  33.912   7.967
  262POPC   C4A 8670  38.156  33.966   7.570
  262POPC   C1B 8671  38.794  33.728   8.811
  262POPC   C2B 8672  38.697  33.782   8.366
  262POPC   C3B 8673  38.635  33.493   8.003
  262POPC   C4B 8674  38.624  33.661   7.583
  263POPC   NC3 8675  22.606  40.214   9.349
  263POPC   PO4 8676  22.080  40.175   9.806
  263POPC   GL1 8677  22.006  40.337   9.293
  263POPC   GL2 8678  22.267  40.513   9.150
  263POPC   C1A 8679  21.809  40.145   8.863
  263POPC   D2A 8680  21.988  39.930   8.480
  263POPC   C3A 8681  22.101  39.779   8.058
  263POPC   C4A 8682  21.889  39.834   7.649
  263POPC   C1B 8683  22.233  40.371   8.752
  263POPC   C2B 8684  21.892  40.427   8.422
  263POPC   C3B 8685  22.054  40.284   8.037
  263POPC   C4B 8686  22.467  40.123   7.863
  264POPC   NC3 8687  27.416   1.750   9.590
  264POPC   PO4 8688  27.590   2.401   9.537
  264POPC   GL1 8689  27.673   2.219   9.124
  264POPC   GL2 8690  27.516   1.866   9.092
  264POPC   C1A 8691  27.890   2.020   8.770
  264POPC   D2A 8692  27.746   1.685   8.477
  264POPC   C3A 8693  27.736   1.759   8.040
  264POPC   C4A 8694  27.867   2.129   7.853
  264POPC   C1B 8695  27.397   2.032   8.677
  264POPC   C2B 8696  27.607   2.189   8.305
  264POPC   C3B 8697  27.420   2.341   7.912
  264POPC   C4B 8698  27.353   2.168   7.509
  265POPC   NC3 8699  41.618  17.028   9.445
  265POPC   PO4 8700  41.371  16.455   9.682
  265POPC   GL1 8701  41.581  16.547   9.232
  265POPC   GL2 8702  41.860  16.362   9.109
  265POPC   C1A 8703  41.560  16.804   8.810
  265POPC   D2A 8704  41.580  16.688   8.368
  265POPC   C3A 8705  41.662  16.894   7.999
  265POPC   C4A 8706  41.338  17.102   7.815
  265POPC   C1B 8707  41.742  16.323   8.675
  265POPC   C2B 8708  41.786  16.273   8.205
  265POPC   C3B 8709  41.637  16.423   7.818
  265POPC   C4B 8710  41.735  16.372   7.389
  266POPC   NC3 8711  15.264  40.629   9.514
  266POPC   PO4 8712  14.950  41.141   9.499
  266POPC   GL1 8713  15.096  40.942   9.130
  266POPC   GL2 8714  15.023  40.561   9.087
  266POPC   C1A 8715  15.092  41.086   8.709
  266POPC   D2A 8716  14.931  41.064   8.302
  266POPC   C3A 8717  15.232  41.008   8.016
  266POPC   C4A 8718  15.394  41.057   7.628
  266POPC   C1B 8719  15.375  40.663   8.816
  266POPC   C2B 8720  15.199  40.628   8.425
  266POPC   C3B 8721  15.161  40.497   8.029
  266POPC   C4B 8722  15.371  40.513   7.665
  267POPC   NC3 8723  10.735   2.849   9.572
  267POPC   PO4 8724  10.090   2.929   9.259
  267POPC   GL1 8725  10.501   2.881   9.117
  267POPC   GL2 8726  10.752   2.614   9.091
  267POPC   C1A 8727  10.591   2.930   8.710
  267POPC   D2A 8728  10.471   2.777   8.303
  267POPC   C3A 8729  10.597   2.863   7.882
  267POPC   C4A 8730  10.728   3.133   7.554
  267POPC   C1B 8731  10.440   2.443   8.786
  267POPC   C2B 8732  10.417   2.262   8.370
  267POPC   C3B 8733  10.380   2.400   7.938
  267POPC   C4B 8734  10.204   2.485   7.529
  268POPC   NC3 8735  23.333  29.441   9.431
  268POPC   PO4 8736  22.887  28.964   9.528
  268POPC   GL1 8737  22.922  29.232   9.182
  268POPC   GL2 8738  23.231  29.030   9.122
  268POPC   C1A 8739  23.038  29.394   8.778
  268POPC   D2A 8740  22.841  29.275   8.395
  268POPC   C3A 8741  22.951  29.421   7.989
  268POPC   C4A 8742  22.605  29.301   7.723
  268POPC   C1B 8743  23.193  28.906   8.699
  268POPC   C2B 8744  23.271  29.022   8.263
  268POPC   C3B 8745  23.202  28.825   7.870
  268POPC   C4B 8746  23.303  28.813   7.419
  269POPC   NC3 8747  44.423   1.452   9.558
  269POPC   PO4 8748  44.828   0.903   9.415
  269POPC   GL1 8749  44.747   1.284   9.155
  269POPC   GL2 8750  44.449   1.452   9.062
  269POPC   C1A 8751  44.879   1.348   8.731
  269POPC   D2A 8752  44.881   1.002   8.414
  269POPC   C3A 8753  44.855   1.187   8.026
  269POPC   C4A 8754  44.757   0.947   7.689
  269POPC   C1B 8755  44.409   1.623   8.701
  269POPC   C2B 8756  44.572   1.581   8.289
  269POPC   C3B 8757  44.456   1.472   7.851
  269POPC   C4B 8758  44.368   1.419   7.402
  270POPC   NC3 8759  14.026  44.757   9.335
  270POPC   PO4 8760  13.452  44.729   9.720
  270POPC   GL1 8761  13.502  44.738   9.255
  270POPC   GL2 8762  13.646   0.057   9.112
  270POPC   C1A 8763  13.595  44.655   8.803
  270POPC   D2A 8764  13.542  44.459   8.422
  270POPC   C3A 8765  13.444  44.630   8.051
  270POPC   C4A 8766  13.503  44.485   7.661
  270POPC   C1B 8767  13.879   0.050   8.671
  270POPC   C2B 8768  13.883  44.831   8.234
  270POPC   C3B 8769  13.829  44.900   7.746
  270POPC   C4B 8770  13.849   0.100   7.310
  271POPC   NC3 8771  28.011  11.584   9.503
  271POPC   PO4 8772  27.977  12.296   9.342
  271POPC   GL1 8773  27.784  11.950   9.152
  271POPC   GL2 8774  27.464  11.821   9.250
  271POPC   C1A 8775  27.886  11.867   8.729
  271POPC   D2A 8776  27.883  12.110   8.352
  271POPC   C3A 8777  27.725  11.954   7.945
  271POPC   C4A 8778  27.368  12.147   7.659
  271POPC   C1B 8779  27.401  11.976   8.811
  271POPC   C2B 8780  27.427  11.810   8.370
  271POPC   C3B 8781  27.254  11.748   7.933
  271POPC   C4B 8782  27.535  11.662   7.542
  272POPC   NC3 8783  37.547   6.380   9.879
  272POPC   PO4 8784  37.521   5.743   9.657
  272POPC   GL1 8785  37.581   5.726   9.169
  272POPC   GL2 8786  37.930   5.735   8.978
  272POPC   C1A 8787  37.446   5.531   8.766
  272POPC   D2A 8788  37.679   5.489   8.358
  272POPC   C3A 8789  37.464   5.543   7.944
  272POPC   C4A 8790  37.580   5.365   7.555
  272POPC   C1B 8791  37.705   5.933   8.635
  272POPC   C2B 8792  37.447   5.927   8.272
  272POPC   C3B 8793  37.562   6.044   7.861
  272POPC   C4B 8794  37.884   6.319   7.796
  273POPC   NC3 8795  17.954   6.202   9.349
  273POPC   PO4 8796  17.381   6.404   9.528
  273POPC   GL1 8797  17.530   6.513   9.137
  273POPC   GL2 8798  17.168   6.503   9.041
  273POPC   C1A 8799  17.525   6.712   8.743
  273POPC   D2A 8800  17.315   6.737   8.384
  273POPC   C3A 8801  17.592   6.632   8.115
  273POPC   C4A 8802  17.704   6.643   7.720
  273POPC   C1B 8803  16.972   6.430   8.612
  273POPC   C2B 8804  17.127   6.284   8.197
  273POPC   C3B 8805  17.217   6.478   7.798
  273POPC   C4B 8806  17.232   6.501   7.342
  274POPC   NC3 8807  44.040  29.627   9.784
  274POPC   PO4 8808  43.482  29.990   9.845
  274POPC   GL1 8809  43.774  29.959   9.414
  274POPC   GL2 8810  43.572  29.979   9.090
  274POPC   C1A 8811  44.073  30.005   9.008
  274POPC   D2A 8812  44.214  29.903   8.564
  274POPC   C3A 8813  44.006  29.962   8.145
  274POPC   C4A 8814  43.792  29.694   7.841
  274POPC   C1B 8815  43.675  29.695   8.724
  274POPC   C2B 8816  43.532  29.773   8.291
  274POPC   C3B 8817  43.271  29.861   7.900
  274POPC   C4B 8818  43.232  30.003   7.455
  275POPC   NC3 8819  20.631   8.469   9.506
  275POPC   PO4 8820  20.445   7.964   9.708
  275POPC   GL1 8821  20.425   8.056   9.250
  275POPC   GL2 8822  20.239   8.327   9.194
  275POPC   C1A 8823  20.428   8.124   8.754
  275POPC   D2A 8824  20.386   8.282   8.283
  275POPC   C3A 8825  20.557   8.207   7.827
  275POPC   C4A 8826  20.831   8.209   7.422
  275POPC   C1B 8827  20.270   8.612   8.863
  275POPC   C2B 8828  20.201   8.770   8.434
  275POPC   C3B 8829  20.416   8.718   8.030
  275POPC   C4B 8830  20.175   8.539   7.743
  276POPC   NC3 8831  41.333  19.457   9.368
  276POPC   PO4 8832  41.519  18.840   9.580
  276POPC   GL1 8833  41.496  19.006   9.128
  276POPC   GL2 8834  41.841  19.038   9.127
  276POPC   C1A 8835  41.660  18.900   8.653
  276POPC   D2A 8836  41.564  19.185   8.274
  276POPC   C3A 8837  41.364  19.050   7.860
  276POPC   C4A 8838  41.525  18.919   7.451
  276POPC   C1B 8839  41.745  19.360   8.812
  276POPC   C2B 8840  41.909  19.546   8.481
  276POPC   C3B 8841  41.872  19.617   8.062
  276POPC   C4B 8842  41.785  19.314   7.763
  277POPC   NC3 8843  43.938  22.538   9.653
  277POPC   PO4 8844  43.457  22.814   9.576
  277POPC   GL1 8845  43.760  22.718   9.210
  277POPC   GL2 8846  43.899  23.019   9.188
  277POPC   C1A 8847  43.919  22.735   8.762
  277POPC   D2A 8848  43.840  22.989   8.377
  277POPC   C3A 8849  43.945  22.752   8.026
  277POPC   C4A 8850  44.032  22.866   7.625
  277POPC   C1B 8851  43.911  23.283   8.822
  277POPC   C2B 8852  44.159  23.392   8.435
  277POPC   C3B 8853  44.127  23.257   8.004
  277POPC   C4B 8854  43.870  23.343   7.663
  278POPC   NC3 8855  11.198  33.005   9.527
  278POPC   PO4 8856  11.664  33.241   9.210
  278POPC   GL1 8857  11.273  33.341   9.011
  278POPC   GL2 8858  10.947  33.362   9.164
  278POPC   C1A 8859  11.232  33.263   8.568
  278POPC   D2A 8860  11.572  33.006   8.333
  278POPC   C3A 8861  11.535  32.989   7.905
  278POPC   C4A 8862  11.226  33.203   7.716
  278POPC   C1B 8863  10.955  32.943   8.905
  278POPC   C2B 8864  11.143  32.766   8.518
  278POPC   C3B 8865  11.062  32.904   8.113
  278POPC   C4B 8866  11.050  32.722   7.707
  279POPC   NC3 8867  18.985  13.318   9.444
  279POPC   PO4 8868  18.775  13.945   9.341
  279POPC   GL1 8869  18.940  13.687   9.036
  279POPC   GL2 8870  19.037  14.012   8.887
  279POPC   C1A 8871  19.003  13.596   8.611
  279POPC   D2A 8872  19.308  13.483   8.330
  279POPC   C3A 8873  19.177  13.532   7.919
  279POPC   C4A 8874  18.847  13.330   7.670
  279POPC   C1B 8875  19.325  14.005   8.533
  279POPC   C2B 8876  19.454  14.062   8.113
  279POPC   C3B 8877  19.268  14.014   7.726
  279POPC   C4B 8878  18.873  13.861   7.677
  280POPC   NC3 8879  25.363  22.939   9.647
  280POPC   PO4 8880  24.786  22.708   9.476
  280POPC   GL1 8881  25.108  23.101   9.231
  280POPC   GL2 8882  25.522  23.124   9.208
  280POPC   C1A 8883  25.206  23.328   8.806
  280POPC   D2A 8884  25.030  23.355   8.347
  280POPC   C3A 8885  25.052  23.284   7.874
  280POPC   C4A 8886  25.131  22.903   7.551
  280POPC   C1B 8887  25.617  22.994   8.810
  280POPC   C2B 8888  25.529  23.140   8.393
  280POPC   C3B 8889  25.504  23.029   7.969
  280POPC   C4B 8890  25.480  23.245   7.598
  281POPC   NC3 8891  14.174  14.971   9.499
  281POPC   PO4 8892  14.852  15.090   9.488
  281POPC   GL1 8893  14.522  15.182   9.174
  281POPC   GL2 8894  14.440  15.525   9.076
  281POPC   C1A 8895  14.451  15.130   8.726
  281POPC   D2A 8896  14.385  14.895   8.344
  281POPC   C3A 8897  14.573  15.026   7.974
  281POPC   C4A 8898  14.705  15.347   7.703
  281POPC   C1B 8899  14.165  15.564   8.736
  281POPC   C2B 8900  14.155  15.361   8.320
  281POPC   C3B 8901  14.189  15.374   7.856
  281POPC   C4B 8902  14.004  15.610   7.516
  282POPC   NC3 8903  25.624  36.059   9.748
  282POPC   PO4 8904  26.161  35.929   9.679
  282POPC   GL1 8905  26.242  36.137   9.256
  282POPC   GL2 8906  25.942  36.333   9.170
  282POPC   C1A 8907  26.280  36.269   8.775
  282POPC   D2A 8908  26.119  36.507   8.374
  282POPC   C3A 8909  26.082  36.288   7.976
  282POPC   C4A 8910  26.356  35.979   7.783
  282POPC   C1B 8911  25.764  36.333   8.721
  282POPC   C2B 8912  25.630  36.347   8.264
  282POPC   C3B 8913  25.593  36.104   7.884
  282POPC   C4B 8914  25.800  36.128   7.490
  283POPC   NC3 8915  41.273   7.314   9.596
  283POPC   PO4 8916  41.681   7.790   9.624
  283POPC   GL1 8917  41.627   7.528   9.245
  283POPC   GL2 8918  41.917   7.305   9.199
  283POPC   C1A 8919  41.572   7.602   8.797
  283POPC   D2A 8920  41.421   7.334   8.462
  283POPC   C3A 8921  41.624   7.376   8.108
  283POPC   C4A 8922  41.555   7.597   7.733
  283POPC   C1B 8923  42.063   7.479   8.805
  283POPC   C2B 8924  41.961   7.662   8.417
  283POPC   C3B 8925  41.912   7.815   8.024
  283POPC   C4B 8926  42.058   7.693   7.638
  284POPC   NC3 8927  27.264  30.262   9.581
  284POPC   PO4 8928  27.314  29.605   9.715
  284POPC   GL1 8929  27.438  29.634   9.266
  284POPC   GL2 8930  27.145  29.825   9.216
  284POPC   C1A 8931  27.690  29.786   8.844
  284POPC   D2A 8932  27.800  30.076   8.464
  284POPC   C3A 8933  27.727  29.954   8.044
  284POPC   C4A 8934  27.352  30.106   7.844
  284POPC   C1B 8935  27.142  29.758   8.765
  284POPC   C2B 8936  27.382  29.730   8.366
  284POPC   C3B 8937  27.299  29.614   7.921
  284POPC   C4B 8938  27.280  29.688   7.433
  285POPC   NC3 8939  30.938  32.640   9.472
  285POPC   PO4 8940  30.641  31.987   9.560
  285POPC   GL1 8941  30.380  32.159   9.243
  285POPC   GL2 8942  30.553  32.437   9.181
  285POPC   C1A 8943  30.483  32.123   8.788
  285POPC   D2A 8944  30.723  32.122   8.409
  285POPC   C3A 8945  30.597  32.295   8.039
  285POPC   C4A 8946  30.474  32.196   7.662
  285POPC   C1B 8947  30.488  32.659   8.807
  285POPC   C2B 8948  30.732  32.641   8.436
  285POPC   C3B 8949  30.871  32.731   8.038
  285POPC   C4B 8950  30.724  32.637   7.644
  286POPC   NC3 8951   4.968  36.583   9.421
  286POPC   PO4 8952   5.186  37.209   9.601
  286POPC   GL1 8953   5.098  37.001   9.172
  286POPC   GL2 8954   4.841  36.838   9.023
  286POPC   C1A 8955   5.267  36.817   8.768
  286POPC   D2A 8956   5.181  37.001   8.374
  286POPC   C3A 8957   5.379  36.775   8.042
  286POPC   C4A 8958   5.207  36.898   7.670
  286POPC   C1B 8959   4.834  37.153   8.744
  286POPC   C2B 8960   4.644  37.071   8.381
  286POPC   C3B 8961   4.809  36.832   8.050
  286POPC   C4B 8962   4.712  36.973   7.668
  287POPC   NC3 8963   4.101   9.944   9.549
  287POPC   PO4 8964   4.669   9.669   9.443
  287POPC   GL1 8965   4.330   9.753   9.141
  287POPC   GL2 8966   4.259  10.147   9.119
  287POPC   C1A 8967   4.379   9.544   8.762
  287POPC   D2A 8968   4.632   9.644   8.400
  287POPC   C3A 8969   4.365   9.505   8.081
  287POPC   C4A 8970   4.162   9.543   7.706
  287POPC   C1B 8971   4.469  10.047   8.740
  287POPC   C2B 8972   4.298  10.023   8.353
  287POPC   C3B 8973   4.445   9.982   7.923
  287POPC   C4B 8974   4.268  10.010   7.510
  288POPC   NC3 8975   3.653   8.445   9.597
  288POPC   PO4 8976   3.890   7.926   9.204
  288POPC   GL1 8977   3.652   8.264   9.076
  288POPC   GL2 8978   3.356   8.166   9.138
  288POPC   C1A 8979   3.613   8.472   8.670
  288POPC   D2A 8980   3.738   8.475   8.238
  288POPC   C3A 8981   3.672   8.101   8.042
  288POPC   C4A 8982   3.836   7.841   7.757
  288POPC   C1B 8983   3.170   8.251   8.762
  288POPC   C2B 8984   3.251   8.226   8.337
  288POPC   C3B 8985   3.239   8.341   7.901
  288POPC   C4B 8986   3.403   8.059   7.583
  289POPC   NC3 8987  41.806  35.921   9.494
  289POPC   PO4 8988  42.425  35.827   9.512
  289POPC   GL1 8989  42.465  36.069   9.162
  289POPC   GL2 8990  42.125  36.118   9.134
  289POPC   C1A 8991  42.404  36.022   8.721
  289POPC   D2A 8992  42.243  35.919   8.343
  289POPC   C3A 8993  42.466  35.785   7.999
  289POPC   C4A 8994  42.290  35.995   7.650
  289POPC   C1B 8995  41.983  36.284   8.741
  289POPC   C2B 8996  42.057  36.406   8.331
  289POPC   C3B 8997  41.928  36.150   7.981
  289POPC   C4B 8998  41.642  36.247   7.647
  290POPC   NC3 8999  37.296  23.145   9.482
  290POPC   PO4 9000  37.864  22.933   9.699
  290POPC   GL1 9001  37.771  22.883   9.249
  290POPC   GL2 9002  38.056  22.644   9.189
  290POPC   C1A 9003  37.484  22.985   8.857
  290POPC   D2A 9004  37.315  23.096   8.448
  290POPC   C3A 9005  37.440  22.930   8.067
  290POPC   C4A 9006  37.564  23.148   7.748
  290POPC   C1B 9007  37.960  22.844   8.782
  290POPC   C2B 9008  37.776  22.774   8.401
  290POPC   C3B 9009  37.945  22.886   7.987
  290POPC   C4B 9010  38.136  22.731   7.628
  291POPC   NC3 9011  11.751  40.884   9.642
  291POPC   PO4 9012  11.264  40.340   9.565
  291POPC   GL1 9013  11.585  40.499   9.257
  291POPC   GL2 9014  11.516  40.848   9.207
  291POPC   C1A 9015  11.489  40.510   8.805
  291POPC   D2A 9016  11.218  40.670   8.472
  291POPC   C3A 9017  11.370  40.510   8.075
  291POPC   C4A 9018  11.171  40.709   7.731
  291POPC   C1B 9019  11.412  41.014   8.836
  291POPC   C2B 9020  11.610  40.993   8.460
  291POPC   C3B 9021  11.438  41.019   8.073
  291POPC   C4B 9022  11.556  41.055   7.663
  292POPC   NC3 9023  34.120  13.444   9.413
  292POPC   PO4 9024  33.516  13.159   9.523
  292POPC   GL1 9025  33.662  13.397   9.142
  292POPC   GL2 9026  33.764  13.747   9.149
  292POPC   C1A 9027  33.898  13.433   8.719
  292POPC   D2A 9028  33.867  13.283   8.270
  292POPC   C3A 9029  34.146  13.358   7.900
  292POPC   C4A 9030  33.982  13.368   7.445
  292POPC   C1B 9031  33.366  13.771   8.887
  292POPC   C2B 9032  33.323  13.929   8.479
  292POPC   C3B 9033  33.555  13.727   8.172
  292POPC   C4B 9034  33.775  13.691   7.781
  293POPC   NC3 9035  19.131   2.422   9.383
  293POPC   PO4 9036  18.822   1.887   9.649
  293POPC   GL1 9037  18.782   1.847   9.234
  293POPC   GL2 9038  18.678   2.173   9.196
  293POPC   C1A 9039  19.002   1.998   8.845
  293POPC   D2A 9040  19.225   1.959   8.481
  293POPC   C3A 9041  19.007   1.937   8.107
  293POPC   C4A 9042  19.187   1.721   7.809
  293POPC   C1B 9043  18.640   2.373   8.817
  293POPC   C2B 9044  18.735   2.256   8.421
  293POPC   C3B 9045  18.782   2.407   8.037
  293POPC   C4B 9046  18.970   2.252   7.676
  294POPC   NC3 9047  28.326  18.192   9.506
  294POPC   PO4 9048  28.295  18.941   9.471
  294POPC   GL1 9049  28.413  18.626   9.105
  294POPC   GL2 9050  28.532  18.270   9.051
  294POPC   C1A 9051  28.399  18.531   8.633
  294POPC   D2A 9052  28.197  18.356   8.247
  294POPC   C3A 9053  28.327  18.583   7.880
  294POPC   C4A 9054  28.236  18.904   7.539
  294POPC   C1B 9055  28.792  18.175   8.660
  294POPC   C2B 9056  28.721  18.133   8.187
  294POPC   C3B 9057  28.619  17.957   7.775
  294POPC   C4B 9058  28.346  17.802   7.428
  295POPC   NC3 9059  13.341  40.062   9.311
  295POPC   PO4 9060  13.941  40.038   9.621
  295POPC   GL1 9061  13.923  40.060   9.171
  295POPC   GL2 9062  13.702  40.278   8.999
  295POPC   C1A 9063  13.932  39.870   8.765
  295POPC   D2A 9064  13.702  39.654   8.458
  295POPC   C3A 9065  13.881  39.754   8.067
  295POPC   C4A 9066  13.598  39.776   7.718
  295POPC   C1B 9067  13.519  40.133   8.603
  295POPC   C2B 9068  13.580  40.153   8.163
  295POPC   C3B 9069  13.687  40.314   7.763
  295POPC   C4B 9070  13.363  40.270   7.456
  296POPC   NC3 9071  11.508  22.453   9.648
  296POPC   PO4 9072  11.501  21.791   9.622
  296POPC   GL1 9073  11.281  21.991   9.258
  296POPC   GL2 9074  11.260  22.353   9.225
  296POPC   C1A 9075  11.487  22.097   8.864
  296POPC   D2A 9076  11.607  21.962   8.481
  296POPC   C3A 9077  11.451  22.122   8.134
  296POPC   C4A 9078  11.366  21.864   7.844
  296POPC   C1B 9079  11.127  22.480   8.805
  296POPC   C2B 9080  10.977  22.579   8.409
  296POPC   C3B 9081  11.063  22.411   8.006
  296POPC   C4B 9082  11.253  22.305   7.611
  297POPC   NC3 9083   0.225  17.855   9.573
  297POPC   PO4 9084  44.774  17.325   9.572
  297POPC   GL1 9085  44.643  17.452   9.163
  297POPC   GL2 9086  44.276  17.516   9.138
  297POPC   C1A 9087  44.829  17.429   8.756
  297POPC   D2A 9088  44.788  17.656   8.394
  297POPC   C3A 9089  44.662  17.499   7.998
  297POPC   C4A 9090  44.902  17.265   7.733
  297POPC   C1B 9091  44.303  17.472   8.737
  297POPC   C2B 9092  44.348  17.326   8.356
  297POPC   C3B 9093  44.138  17.409   8.000
  297POPC   C4B 9094  44.305  17.461   7.630
  298POPC   NC3 9095  12.443  29.927   9.706
  298POPC   PO4 9096  13.027  29.952   9.743
  298POPC   GL1 9097  12.859  30.015   9.338
  298POPC   GL2 9098  12.915  29.689   9.227
  298POPC   C1A 9099  13.061  30.133   8.934
  298POPC   D2A 9100  12.983  29.945   8.519
  298POPC   C3A 9101  12.797  30.096   8.140
  298POPC   C4A 9102  12.938  29.967   7.723
  298POPC   C1B 9103  12.635  29.817   8.878
  298POPC   C2B 9104  12.516  29.743   8.418
  298POPC   C3B 9105  12.705  29.601   8.008
  298POPC   C4B 9106  13.099  29.439   7.823
  299POPC   NC3 9107  43.894  36.334   9.446
  299POPC   PO4 9108  44.024  35.657   9.462
  299POPC   GL1 9109  44.155  36.018   9.141
  299POPC   GL2 9110  44.156  36.426   9.030
  299POPC   C1A 9111  43.892  36.069   8.780
  299POPC   D2A 9112  43.820  35.744   8.518
  299POPC   C3A 9113  43.760  35.799   8.108
  299POPC   C4A 9114  43.799  36.124   7.827
  299POPC   C1B 9115  44.261  36.382   8.630
  299POPC   C2B 9116  44.097  36.207   8.255
  299POPC   C3B 9117  44.258  36.305   7.832
  299POPC   C4B 9118  43.985  36.431   7.421
  300POPC   NC3 9119  29.803  20.853   9.570
  300POPC   PO4 9120  30.175  21.515   9.534
  300POPC   GL1 9121  29.971  21.471   9.181
  300POPC   GL2 9122  29.953  21.177   9.202
  300POPC   C1A 9123  29.757  21.408   8.789
  300POPC   D2A 9124  29.642  21.347   8.390
  300POPC   C3A 9125  29.781  21.521   7.999
  300POPC   C4A 9126  29.700  21.805   7.687
  300POPC   C1B 9127  30.209  21.151   8.828
  300POPC   C2B 9128  30.275  21.381   8.475
  300POPC   C3B 9129  30.291  21.321   8.050
  300POPC   C4B 9130  30.156  21.024   7.725
  301POPC   NC3 9131  13.557  29.250   9.281
  301POPC   PO4 9132  14.002  29.021   9.699
  301POPC   GL1 9133  14.035  29.038   9.197
  301POPC   GL2 9134  14.062  29.382   9.082
  301POPC   C1A 9135  13.935  29.057   8.704
  301POPC   D2A 9136  13.802  28.762   8.367
  301POPC   C3A 9137  13.828  28.908   7.933
  301POPC   C4A 9138  13.564  28.926   7.547
  301POPC   C1B 9139  13.820  29.557   8.720
  301POPC   C2B 9140  13.631  29.320   8.352
  301POPC   C3B 9141  13.617  29.379   7.894
  301POPC   C4B 9142  13.898  29.591   7.623
  302POPC   NC3 9143  16.590  38.021   9.381
  302POPC   PO4 9144  17.018  38.527   9.536
  302POPC   GL1 9145  16.917  38.359   9.153
  302POPC   GL2 9146  16.569  38.460   9.104
  302POPC   C1A 9147  16.918  38.281   8.723
  302POPC   D2A 9148  16.711  38.430   8.382
  302POPC   C3A 9149  16.836  38.288   7.984
  302POPC   C4A 9150  17.046  38.645   7.880
  302POPC   C1B 9151  16.424  38.174   8.777
  302POPC   C2B 9152  16.230  38.260   8.384
  302POPC   C3B 9153  16.374  38.471   7.994
  302POPC   C4B 9154  16.598  38.528   7.560
  303POPC   NC3 9155   8.210  21.704   9.521
  303POPC   PO4 9156   8.356  22.294   9.455
  303POPC   GL1 9157   8.039  22.217   9.156
  303POPC   GL2 9158   8.239  21.944   9.078
  303POPC   C1A 9159   7.974  22.153   8.714
  303POPC   D2A 9160   8.128  21.966   8.362
  303POPC   C3A 9161   8.125  22.134   7.952
  303POPC   C4A 9162   7.795  22.364   7.779
  303POPC   C1B 9163   8.472  21.785   8.746
  303POPC   C2B 9164   8.590  21.806   8.338
  303POPC   C3B 9165   8.670  21.903   7.899
  303POPC   C4B 9166   8.493  22.092   7.515
  304POPC   NC3 9167  15.167  31.084   9.515
  304POPC   PO4 9168  15.464  31.660   9.376
  304POPC   GL1 9169  15.158  31.440   9.153
  304POPC   GL2 9170  15.438  31.208   9.087
  304POPC   C1A 9171  15.021  31.269   8.771
  304POPC   D2A 9172  15.224  31.305   8.372
  304POPC   C3A 9173  14.976  31.208   8.013
  304POPC   C4A 9174  15.054  31.501   7.708
  304POPC   C1B 9175  15.645  31.216   8.662
  304POPC   C2B 9176  15.612  30.995   8.261
  304POPC   C3B 9177  15.463  31.121   7.816
  304POPC   C4B 9178  15.474  31.035   7.341
  305POPC   NC3 9179  11.011  42.287   9.580
  305POPC   PO4 9180  11.345  41.807   9.462
  305POPC   GL1 9181  11.311  42.163   9.173
  305POPC   GL2 9182  10.998  42.052   9.125
  305POPC   C1A 9183  11.246  42.196   8.717
  305POPC   D2A 9184  11.280  41.905   8.410
  305POPC   C3A 9185  11.170  42.002   8.011
  305POPC   C4A 9186  11.257  42.215   7.665
  305POPC   C1B 9187  10.903  42.483   8.932
  305POPC   C2B 9188  10.768  42.566   8.517
  305POPC   C3B 9189  10.882  42.448   8.098
  305POPC   C4B 9190  10.917  42.600   7.669
  306POPC   NC3 9191  42.923  41.090   9.551
  306POPC   PO4 9192  43.068  40.468   9.383
  306POPC   GL1 9193  43.102  40.824   9.137
  306POPC   GL2 9194  43.353  41.074   9.215
  306POPC   C1A 9195  43.050  40.826   8.724
  306POPC   D2A 9196  42.871  41.087   8.436
  306POPC   C3A 9197  42.965  40.849   8.096
  306POPC   C4A 9198  42.774  40.915   7.724
  306POPC   C1B 9199  43.297  41.255   8.795
  306POPC   C2B 9200  43.386  41.172   8.335
  306POPC   C3B 9201  43.300  41.149   7.854
  306POPC   C4B 9202  43.427  41.187   7.414
  307POPC   NC3 9203  26.460   4.986   9.433
  307POPC   PO4 9204  26.121   5.326   9.752
  307POPC   GL1 9205  26.118   5.322   9.279
  307POPC   GL2 9206  26.421   5.476   9.120
  307POPC   C1A 9207  26.146   5.112   8.844
  307POPC   D2A 9208  26.063   5.231   8.391
  307POPC   C3A 9209  25.976   5.025   7.970
  307POPC   C4A 9210  25.668   4.944   7.596
  307POPC   C1B 9211  26.465   5.454   8.634
  307POPC   C2B 9212  26.560   5.200   8.260
  307POPC   C3B 9213  26.444   5.310   7.827
  307POPC   C4B 9214  26.260   5.729   7.640
  308POPC   NC3 9215   9.015  43.707   9.652
  308POPC   PO4 9216   8.579  44.086   9.340
  308POPC   GL1 9217   8.777  43.890   9.031
  308POPC   GL2 9218   9.059  43.672   9.127
  308POPC   C1A 9219   8.880  44.097   8.624
  308POPC   D2A 9220   8.635  44.262   8.290
  308POPC   C3A 9221   8.561  44.029   7.905
  308POPC   C4A 9222   8.788  43.918   7.539
  308POPC   C1B 9223   8.972  43.597   8.678
  308POPC   C2B 9224   9.139  43.767   8.282
  308POPC   C3B 9225   9.048  43.617   7.870
  308POPC   C4B 9226   9.212  43.660   7.453
  309POPC   NC3 9227  22.649  23.515   9.534
  309POPC   PO4 9228  23.194  23.927   9.364
  309POPC   GL1 9229  23.113  23.757   8.992
  309POPC   GL2 9230  22.762  23.712   9.079
  309POPC   C1A 9231  23.203  23.789   8.581
  309POPC   D2A 9232  23.112  23.510   8.273
  309POPC   C3A 9233  23.240  23.536   7.855
  309POPC   C4A 9234  22.887  23.515   7.612
  309POPC   C1B 9235  22.765  24.039   8.768
  309POPC   C2B 9236  22.889  24.109   8.355
  309POPC   C3B 9237  22.876  23.911   7.959
  309POPC   C4B 9238  23.121  23.967   7.587
  310POPC   NC3 9239  30.873  18.832   9.743
  310POPC   PO4 9240  30.851  18.238   9.522
  310POPC   GL1 9241  30.816  18.282   9.111
  310POPC   GL2 9242  30.763  17.991   9.027
  310POPC   C1A 9243  30.948  18.522   8.761
  310POPC   D2A 9244  30.799  18.703   8.392
  310POPC   C3A 9245  30.679  18.437   8.057
  310POPC   C4A 9246  30.769  18.485   7.619
  310POPC   C1B 9247  30.689  18.116   8.609
  310POPC   C2B 9248  30.326  18.222   8.396
  310POPC   C3B 9249  30.217  18.097   7.991
  310POPC   C4B 9250  30.605  18.009   7.774
  311POPC   NC3 9251  21.958  25.696   9.534
  311POPC   PO4 9252  22.074  25.043   9.517
  311POPC   GL1 9253  22.183  25.347   9.174
  311POPC   GL2 9254  21.853  25.392   9.123
  311POPC   C1A 9255  22.348  25.443   8.734
  311POPC   D2A 9256  22.092  25.443   8.357
  311POPC   C3A 9257  22.330  25.315   8.020
  311POPC   C4A 9258  22.282  25.130   7.621
  311POPC   C1B 9259  21.973  25.126   8.764
  311POPC   C2B 9260  21.838  24.970   8.411
  311POPC   C3B 9261  21.972  24.947   8.016
  311POPC   C4B 9262  21.840  24.804   7.640
  312POPC   NC3 9263  25.711  42.090   9.548
  312POPC   PO4 9264  26.218  42.501   9.667
  312POPC   GL1 9265  26.096  42.239   9.233
  312POPC   GL2 9266  25.863  42.461   9.131
  312POPC   C1A 9267  25.889  42.097   8.785
  312POPC   D2A 9268  25.903  42.256   8.357
  312POPC   C3A 9269  26.232  42.103   8.102
  312POPC   C4A 9270  26.260  42.146   7.670
  312POPC   C1B 9271  25.972  42.605   8.721
  312POPC   C2B 9272  25.983  42.861   8.371
  312POPC   C3B 9273  26.122  42.827   7.965
  312POPC   C4B 9274  25.891  42.501   7.752
  313POPC   NC3 9275  32.631  36.323   9.282
  313POPC   PO4 9276  31.964  36.175   9.290
  313POPC   GL1 9277  32.254  36.324   8.949
  313POPC   GL2 9278  32.463  36.047   8.872
  313POPC   C1A 9279  32.501  36.480   8.586
  313POPC   D2A 9280  32.618  36.274   8.189
  313POPC   C3A 9281  32.207  36.231   7.994
  313POPC   C4A 9282  32.018  36.459   7.643
  313POPC   C1B 9283  32.174  36.038   8.520
  313POPC   C2B 9284  32.058  35.697   8.224
  313POPC   C3B 9285  31.976  35.730   7.779
  313POPC   C4B 9286  32.225  36.009   7.523
  314POPC   NC3 9287  31.537  42.167   9.545
  314POPC   PO4 9288  31.330  42.785   9.456
  314POPC   GL1 9289  31.445  42.471   9.119
  314POPC   GL2 9290  31.661  42.146   9.058
  314POPC   C1A 9291  31.352  42.305   8.708
  314POPC   D2A 9292  31.581  42.330   8.334
  314POPC   C3A 9293  31.297  42.485   8.051
  314POPC   C4A 9294  31.391  42.576   7.661
  314POPC   C1B 9295  31.767  41.939   8.671
  314POPC   C2B 9296  31.693  41.832   8.227
  314POPC   C3B 9297  31.561  42.060   7.881
  314POPC   C4B 9298  31.651  42.045   7.452
  315POPC   NC3 9299  41.678  21.877   9.542
  315POPC   PO4 9300  41.573  21.234   9.774
  315POPC   GL1 9301  41.571  21.275   9.305
  315POPC   GL2 9302  41.337  21.020   9.230
  315POPC   C1A 9303  41.572  21.451   8.878
  315POPC   D2A 9304  41.592  21.277   8.469
  315POPC   C3A 9305  41.534  21.438   8.069
  315POPC   C4A 9306  41.244  21.605   7.769
  315POPC   C1B 9307  41.392  20.949   8.815
  315POPC   C2B 9308  41.172  21.014   8.439
  315POPC   C3B 9309  41.333  20.984   8.030
  315POPC   C4B 9310  41.319  21.107   7.599
  316POPC   NC3 9311  32.601  15.596   9.291
  316POPC   PO4 9312  32.611  16.217   9.580
  316POPC   GL1 9313  32.447  16.228   9.159
  316POPC   GL2 9314  32.098  16.096   9.163
  316POPC   C1A 9315  32.497  16.041   8.726
  316POPC   D2A 9316  32.601  15.732   8.358
  316POPC   C3A 9317  32.549  15.878   7.916
  316POPC   C4A 9318  32.326  15.916   7.514
  316POPC   C1B 9319  32.013  16.244   8.732
  316POPC   C2B 9320  31.984  16.058   8.328
  316POPC   C3B 9321  32.019  15.908   7.921
  316POPC   C4B 9322  31.835  16.042   7.554
  317POPC   NC3 9323   1.806   0.275   9.404
  317POPC   PO4 9324   2.318   0.437   9.795
  317POPC   GL1 9325   2.266   0.501   9.274
  317POPC   GL2 9326   2.339   0.250   8.978
  317POPC   C1A 9327   1.992   0.611   8.869
  317POPC   D2A 9328   2.008   0.489   8.396
  317POPC   C3A 9329   1.659   0.575   8.078
  317POPC   C4A 9330   1.784   0.771   7.680
  317POPC   C1B 9331   1.908   0.128   8.765
  317POPC   C2B 9332   1.722  44.994   8.408
  317POPC   C3B 9333   1.855   0.112   8.061
  317POPC   C4B 9334   2.082   0.371   7.838
  318POPC   NC3 9335  28.184  33.958   9.419
  318POPC   PO4 9336  28.775  33.652   9.434
  318POPC   GL1 9337  28.533  33.714   9.066
  318POPC   GL2 9338  28.162  33.678   8.999
  318POPC   C1A 9339  28.495  33.590   8.635
  318POPC   D2A 9340  28.459  33.737   8.216
  318POPC   C3A 9341  28.622  33.552   7.854
  318POPC   C4A 9342  28.548  33.578   7.381
  318POPC   C1B 9343  28.331  34.054   8.735
  318POPC   C2B 9344  28.269  34.204   8.317
  318POPC   C3B 9345  28.194  34.158   7.863
  318POPC   C4B 9346  28.234  34.036   7.425
  319POPC   NC3 9347  15.412   7.377   9.645
  319POPC   PO4 9348  14.886   7.324   9.362
  319POPC   GL1 9349  15.329   7.347   9.120
  319POPC   GL2 9350  15.619   7.108   9.223
  319POPC   C1A 9351  15.460   7.548   8.675
  319POPC   D2A 9352  15.369   7.597   8.176
  319POPC   C3A 9353  15.494   7.784   7.760
  319POPC   C4A 9354  15.523   7.637   7.320
  319POPC   C1B 9355  15.571   7.036   8.776
  319POPC   C2B 9356  15.526   7.148   8.349
  319POPC   C3B 9357  15.303   6.986   7.987
  319POPC   C4B 9358  15.484   6.885   7.580
  320POPC   NC3 9359  32.258   0.847   9.534
  320POPC   PO4 9360  31.987   1.429   9.780
  320POPC   GL1 9361  31.969   1.468   9.304
  320POPC   GL2 9362  32.131   1.189   9.138
  320POPC   C1A 9363  32.048   1.597   8.862
  320POPC   D2A 9364  32.223   1.293   8.546
  320POPC   C3A 9365  32.157   1.326   8.108
  320POPC   C4A 9366  32.103   1.500   7.694
  320POPC   C1B 9367  32.232   0.868   8.856
  320POPC   C2B 9368  32.178   0.727   8.443
  320POPC   C3B 9369  32.341   0.751   8.036
  320POPC   C4B 9370  32.178   0.977   7.707
  321POPC   NC3 9371  14.805  10.674   9.585
  321POPC   PO4 9372  15.431  10.614   9.530
  321POPC   GL1 9373  15.301  10.562   9.149
  321POPC   GL2 9374  14.997  10.381   9.162
  321POPC   C1A 9375  15.210  10.758   8.772
  321POPC   D2A 9376  14.930  10.645   8.450
  321POPC   C3A 9377  15.068  10.694   8.022
  321POPC   C4A 9378  15.193  10.762   7.599
  321POPC   C1B 9379  15.129  10.245   8.729
  321POPC   C2B 9380  15.302  10.299   8.300
  321POPC   C3B 9381  15.236  10.210   7.854
  321POPC   C4B 9382  14.901  10.334   7.562
  322POPC   NC3 9383  44.688  22.322   9.259
  322POPC   PO4 9384  44.618  21.737   9.568
  322POPC   GL1 9385  44.584  21.859   9.135
  322POPC   GL2 9386  44.235  21.885   9.217
  322POPC   C1A 9387  44.702  22.046   8.687
  322POPC   D2A 9388  44.868  21.792   8.344
  322POPC   C3A 9389  44.842  22.001   7.968
  322POPC   C4A 9390  44.757  22.274   7.618
  322POPC   C1B 9391  44.201  21.926   8.764
  322POPC   C2B 9392  44.357  21.877   8.328
  322POPC   C3B 9393  44.339  22.016   7.903
  322POPC   C4B 9394  44.242  22.407   7.717
  323POPC   NC3 9395  37.077  40.378   9.261
  323POPC   PO4 9396  36.846  40.958   9.556
  323POPC   GL1 9397  36.961  40.854   9.180
  323POPC   GL2 9398  36.663  40.626   9.111
  323POPC   C1A 9399  37.123  41.043   8.797
  323POPC   D2A 9400  37.079  40.874   8.371
  323POPC   C3A 9401  37.143  41.074   8.022
  323POPC   C4A 9402  37.237  40.887   7.669
  323POPC   C1B 9403  36.795  40.657   8.732
  323POPC   C2B 9404  36.627  40.614   8.394
  323POPC   C3B 9405  36.851  40.480   8.065
  323POPC   C4B 9406  36.789  40.621   7.678
  324POPC   NC3 9407  14.695   9.757   9.836
  324POPC   PO4 9408  14.473  10.351   9.647
  324POPC   GL1 9409  14.532  10.172   9.214
  324POPC   GL2 9410  14.721   9.863   9.141
  324POPC   C1A 9411  14.590  10.148   8.733
  324POPC   D2A 9412  14.558   9.878   8.336
  324POPC   C3A 9413  14.300   9.987   7.941
  324POPC   C4A 9414  14.023  10.213   7.608
  324POPC   C1B 9415  14.941   9.765   8.714
  324POPC   C2B 9416  15.066   9.845   8.259
  324POPC   C3B 9417  14.819   9.878   7.861
  324POPC   C4B 9418  14.636   9.544   7.561
  325POPC   NC3 9419  43.710  39.623   9.393
  325POPC   PO4 9420  43.748  38.942   9.588
  325POPC   GL1 9421  44.017  39.213   9.300
  325POPC   GL2 9422  44.209  38.986   9.133
  325POPC   C1A 9423  44.074  39.404   8.870
  325POPC   D2A 9424  44.135  39.323   8.441
  325POPC   C3A 9425  43.843  39.405   8.122
  325POPC   C4A 9426  44.141  39.433   7.757
  325POPC   C1B 9427  43.863  38.938   8.846
  325POPC   C2B 9428  43.772  38.959   8.405
  325POPC   C3B 9429  43.992  38.944   8.026
  325POPC   C4B 9430  43.757  39.077   7.712
  326POPC   NC3 9431  33.268  20.881   9.542
  326POPC   PO4 9432  32.771  21.304   9.569
  326POPC   GL1 9433  32.933  21.396   9.143
  326POPC   GL2 9434  32.812  21.053   9.111
  326POPC   C1A 9435  32.944  21.528   8.686
  326POPC   D2A 9436  33.185  21.694   8.291
  326POPC   C3A 9437  32.964  21.606   7.916
  326POPC   C4A 9438  32.834  21.298   7.649
  326POPC   C1B 9439  33.203  21.097   8.847
  326POPC   C2B 9440  33.186  21.171   8.397
  326POPC   C3B 9441  33.243  21.208   7.987
  326POPC   C4B 9442  33.272  20.991   7.620
  327POPC   NC3 9443  29.281   4.728   9.520
  327POPC   PO4 9444  29.309   5.387   9.478
  327POPC   GL1 9445  29.183   5.120   9.187
  327POPC   GL2 9446  28.833   5.181   9.263
  327POPC   C1A 9447  29.376   5.109   8.788
  327POPC   D2A 9448  29.483   5.339   8.399
  327POPC   C3A 9449  29.412   5.100   8.021
  327POPC   C4A 9450  29.282   5.039   7.602
  327POPC   C1B 9451  28.842   5.254   8.801
  327POPC   C2B 9452  29.023   5.069   8.420
  327POPC   C3B 9453  28.899   5.047   7.997
  327POPC   C4B 9454  28.689   4.763   7.791
  328POPC   NC3 9455   9.522  41.629   9.575
  328POPC   PO4 9456   9.751  41.018   9.441
  328POPC   GL1 9457   9.952  41.357   9.207
  328POPC   GL2 9458  10.052  41.726   9.267
  328POPC   C1A 9459   9.736  41.576   8.892
  328POPC   D2A 9460   9.760  41.524   8.471
  328POPC   C3A 9461   9.414  41.566   8.186
  328POPC   C4A 9462   9.556  41.372   7.819
  328POPC   C1B 9463  10.210  41.774   8.824
  328POPC   C2B 9464  10.130  41.921   8.397
  328POPC   C3B 9465   9.890  41.736   8.029
  328POPC   C4B 9466  10.041  41.617   7.608
  329POPC   NC3 9467   4.569  13.032   9.780
  329POPC   PO4 9468   4.432  13.686   9.551
  329POPC   GL1 9469   4.494  13.751   9.125
  329POPC   GL2 9470   4.612  13.405   9.076
  329POPC   C1A 9471   4.435  13.974   8.744
  329POPC   D2A 9472   4.270  14.125   8.390
  329POPC   C3A 9473   4.266  13.941   7.990
  329POPC   C4A 9474   4.392  13.899   7.581
  329POPC   C1B 9475   4.242  13.497   8.786
  329POPC   C2B 9476   4.280  13.565   8.376
  329POPC   C3B 9477   4.293  13.345   8.009
  329POPC   C4B 9478   4.043  13.533   7.712
  330POPC   NC3 9479  34.107   7.559   9.444
  330POPC   PO4 9480  34.788   7.664   9.436
  330POPC   GL1 9481  34.504   7.560   9.115
  330POPC   GL2 9482  34.438   7.203   9.195
  330POPC   C1A 9483  34.608   7.553   8.699
  330POPC   D2A 9484  34.883   7.301   8.435
  330POPC   C3A 9485  34.675   7.098   8.108
  330POPC   C4A 9486  34.480   7.266   7.711
  330POPC   C1B 9487  34.231   7.100   8.816
  330POPC   C2B 9488  34.334   7.219   8.446
  330POPC   C3B 9489  34.249   7.412   8.128
  330POPC   C4B 9490  34.480   7.715   7.949
  331POPC   NC3 9491  24.969  30.792   9.853
  331POPC   PO4 9492  24.458  31.090   9.440
  331POPC   GL1 9493  24.473  30.806   9.095
  331POPC   GL2 9494  24.717  30.528   9.128
  331POPC   C1A 9495  24.274  30.920   8.754
  331POPC   D2A 9496  24.309  30.739   8.392
  331POPC   C3A 9497  24.378  30.947   8.096
  331POPC   C4A 9498  24.577  30.926   7.776
  331POPC   C1B 9499  24.469  30.408   8.743
  331POPC   C2B 9500  24.521  30.287   8.291
  331POPC   C3B 9501  24.657  30.400   7.867
  331POPC   C4B 9502  24.867  30.617   7.509
  332POPC   NC3 9503  43.030  31.207   9.469
  332POPC   PO4 9504  42.786  31.884   9.607
  332POPC   GL1 9505  42.916  31.742   9.170
  332POPC   GL2 9506  43.248  31.660   9.219
  332POPC   C1A 9507  42.974  31.463   8.800
  332POPC   D2A 9508  42.995  31.545   8.376
  332POPC   C3A 9509  42.944  31.285   8.009
  332POPC   C4A 9510  42.983  31.484   7.614
  332POPC   C1B 9511  43.324  31.899   8.815
  332POPC   C2B 9512  43.329  31.955   8.360
  332POPC   C3B 9513  43.329  31.677   7.996
  332POPC   C4B 9514  43.404  31.267   7.809
  333POPC   NC3 9515   1.291   7.762   9.295
  333POPC   PO4 9516   1.670   7.209   9.316
  333POPC   GL1 9517   1.296   7.281   9.054
  333POPC   GL2 9518   0.948   7.314   9.197
  333POPC   C1A 9519   1.328   7.406   8.628
  333POPC   D2A 9520   1.346   7.707   8.302
  333POPC   C3A 9521   1.541   7.456   7.989
  333POPC   C4A 9522   1.314   7.082   7.789
  333POPC   C1B 9523   0.885   7.552   8.800
  333POPC   C2B 9524   0.832   7.589   8.373
  333POPC   C3B 9525   1.017   7.467   7.979
  333POPC   C4B 9526   0.842   7.289   7.624
  334POPC   NC3 9527  29.580  11.732   9.287
  334POPC   PO4 9528  30.197  11.919   9.480
  334POPC   GL1 9529  29.953  12.023   9.099
  334POPC   GL2 9530  29.675  12.246   9.123
  334POPC   C1A 9531  29.801  11.810   8.694
  334POPC   D2A 9532  29.993  11.552   8.413
  334POPC   C3A 9533  29.912  11.696   8.020
  334POPC   C4A 9534  30.072  11.741   7.624
  334POPC   C1B 9535  29.829  12.310   8.703
  334POPC   C2B 9536  29.709  12.256   8.346
  334POPC   C3B 9537  29.895  12.227   7.993
  334POPC   C4B 9538  29.822  12.177   7.643
  335POPC   NC3 9539  21.488  14.409   9.347
  335POPC   PO4 9540  21.119  13.959   9.539
  335POPC   GL1 9541  21.045  14.205   9.165
  335POPC   GL2 9542  20.911  14.556   9.217
  335POPC   C1A 9543  21.230  14.173   8.730
  335POPC   D2A 9544  21.016  14.095   8.334
  335POPC   C3A 9545  21.270  14.136   7.936
  335POPC   C4A 9546  21.648  14.375   7.822
  335POPC   C1B 9547  21.125  14.680   8.828
  335POPC   C2B 9548  21.183  14.825   8.413
  335POPC   C3B 9549  20.998  14.845   8.013
  335POPC   C4B 9550  21.229  14.652   7.737
  336POPC   NC3 9551  31.746  14.265   9.446
  336POPC   PO4 9552  32.507  14.288   9.549
  336POPC   GL1 9553  32.208  14.423   9.206
  336POPC   GL2 9554  31.992  14.187   9.032
  336POPC   C1A 9555  32.223  14.528   8.745
  336POPC   D2A 9556  32.084  14.413   8.331
  336POPC   C3A 9557  32.209  14.626   7.969
  336POPC   C4A 9558  32.049  14.625   7.558
  336POPC   C1B 9559  32.131  14.024   8.675
  336POPC   C2B 9560  32.509  14.173   8.493
  336POPC   C3B 9561  32.533  14.203   8.069
  336POPC   C4B 9562  32.156  14.122   7.799
  337POPC   NC3 9563  17.074   5.729   9.300
  337POPC   PO4 9564  16.566   6.021   9.605
  337POPC   GL1 9565  16.607   5.891   9.166
  337POPC   GL2 9566  16.916   6.039   8.946
  337POPC   C1A 9567  16.485   5.904   8.750
  337POPC   D2A 9568  16.752   5.992   8.410
  337POPC   C3A 9569  16.759   5.656   8.141
  337POPC   C4A 9570  16.519   5.826   7.816
  337POPC   C1B 9571  16.924   5.616   8.698
  337POPC   C2B 9572  17.213   5.587   8.376
  337POPC   C3B 9573  17.234   5.800   8.004
  337POPC   C4B 9574  16.988   5.734   7.684
  338POPC   NC3 9575   8.054  22.661   9.435
  338POPC   PO4 9576   8.707  22.936   9.536
  338POPC   GL1 9577   8.440  22.913   9.172
  338POPC   GL2 9578   8.464  22.597   9.057
  338POPC   C1A 9579   8.273  23.101   8.768
  338POPC   D2A 9580   8.078  22.997   8.326
  338POPC   C3A 9581   8.144  23.153   7.882
  338POPC   C4A 9582   7.989  23.320   7.447
  338POPC   C1B 9583   8.112  22.623   8.773
  338POPC   C2B 9584   8.057  22.487   8.337
  338POPC   C3B 9585   8.181  22.637   7.950
  338POPC   C4B 9586   8.424  22.692   7.583
  339POPC   NC3 9587   3.601  10.329   9.597
  339POPC   PO4 9588   3.777   9.591   9.519
  339POPC   GL1 9589   3.488   9.815   9.281
  339POPC   GL2 9590   3.726  10.033   9.190
  339POPC   C1A 9591   3.391   9.819   8.844
  339POPC   D2A 9592   3.493   9.560   8.485
  339POPC   C3A 9593   3.429   9.725   8.061
  339POPC   C4A 9594   3.434   9.524   7.634
  339POPC   C1B 9595   3.917   9.947   8.799
  339POPC   C2B 9596   3.757  10.017   8.396
  339POPC   C3B 9597   3.934   9.930   8.015
  339POPC   C4B 9598   3.782   9.912   7.639
  340POPC   NC3 9599  39.529  30.167   9.539
  340POPC   PO4 9600  40.200  30.102   9.458
  340POPC   GL1 9601  39.898  29.822   9.281
  340POPC   GL2 9602  40.094  29.508   9.214
  340POPC   C1A 9603  39.818  29.904   8.857
  340POPC   D2A 9604  39.981  29.982   8.447
  340POPC   C3A 9605  39.674  30.063   8.126
  340POPC   C4A 9606  39.809  30.090   7.709
  340POPC   C1B 9607  40.258  29.634   8.802
  340POPC   C2B 9608  40.418  29.714   8.374
  340POPC   C3B 9609  40.214  29.778   7.943
  340POPC   C4B 9610  40.235  29.859   7.478
  341POPC   NC3 9611  28.184  32.426   9.460
  341POPC   PO4 9612  28.509  31.839   9.453
  341POPC   GL1 9613  28.384  32.060   9.096
  341POPC   GL2 9614  28.547  32.369   9.091
  341POPC   C1A 9615  28.130  32.279   8.752
  341POPC   D2A 9616  28.202  32.588   8.414
  341POPC   C3A 9617  28.392  32.346   8.099
  341POPC   C4A 9618  28.234  32.123   7.760
  341POPC   C1B 9619  28.633  32.358   8.643
  341POPC   C2B 9620  28.749  32.669   8.314
  341POPC   C3B 9621  28.729  32.619   7.852
  341POPC   C4B 9622  28.682  32.246   7.566
  342POPC   NC3 9623  42.856  27.385   9.458
  342POPC   PO4 9624  42.816  28.042   9.728
  342POPC   GL1 9625  43.155  27.814   9.396
  342POPC   GL2 9626  43.337  27.996   9.169
  342POPC   C1A 9627  43.159  27.618   8.907
  342POPC   D2A 9628  42.941  27.709   8.491
  342POPC   C3A 9629  43.049  27.553   8.067
  342POPC   C4A 9630  43.435  27.514   7.819
  342POPC   C1B 9631  43.255  28.096   8.717
  342POPC   C2B 9632  43.371  27.895   8.307
  342POPC   C3B 9633  43.218  27.998   7.901
  342POPC   C4B 9634  42.875  27.991   7.610
  343POPC   NC3 9635   0.320  41.870   9.358
  343POPC   PO4 9636   0.747  42.364   9.618
  343POPC   GL1 9637   0.466  42.354   9.220
  343POPC   GL2 9638   0.259  42.657   9.137
  343POPC   C1A 9639   0.274  42.273   8.800
  343POPC   D2A 9640   0.450  42.216   8.381
  343POPC   C3A 9641   0.290  42.320   7.960
  343POPC   C4A 9642   0.430  42.450   7.553
  343POPC   C1B 9643   0.539  42.715   8.768
  343POPC   C2B 9644   0.656  42.780   8.349
  343POPC   C3B 9645   0.574  42.787   7.903
  343POPC   C4B 9646   0.714  42.914   7.464
  344POPC   NC3 9647  28.483  41.821   9.540
  344POPC   PO4 9648  27.855  41.776   9.373
  344POPC   GL1 9649  28.091  41.518   9.101
  344POPC   GL2 9650  28.444  41.481   9.166
  344POPC   C1A 9651  28.153  41.489   8.675
  344POPC   D2A 9652  28.208  41.275   8.297
  344POPC   C3A 9653  28.278  41.588   7.977
  344POPC   C4A 9654  28.256  41.554   7.539
  344POPC   C1B 9655  28.656  41.408   8.784
  344POPC   C2B 9656  28.674  41.587   8.372
  344POPC   C3B 9657  28.721  41.847   8.000
  344POPC   C4B 9658  28.718  41.612   7.676
  345POPC   NC3 9659  37.146   5.916   9.456
  345POPC   PO4 9660  36.496   5.901   9.441
  345POPC   GL1 9661  36.753   5.938   9.112
  345POPC   GL2 9662  36.690   5.575   9.057
  345POPC   C1A 9663  37.035   5.875   8.774
  345POPC   D2A 9664  36.942   5.974   8.370
  345POPC   C3A 9665  37.073   5.956   7.920
  345POPC   C4A 9666  36.984   6.152   7.530
  345POPC   C1B 9667  36.479   5.762   8.719
  345POPC   C2B 9668  36.548   5.690   8.316
  345POPC   C3B 9669  36.740   5.578   7.929
  345POPC   C4B 9670  37.037   5.416   7.624
  346POPC   NC3 9671  35.501   9.444   9.589
  346POPC   PO4 9672  35.201  10.057   9.450
  346POPC   GL1 9673  35.594   9.873   9.257
  346POPC   GL2 9674  35.507   9.551   9.094
  346POPC   C1A 9675  35.771   9.895   8.831
  346POPC   D2A 9676  35.582  10.048   8.446
  346POPC   C3A 9677  35.580   9.839   8.058
  346POPC   C4A 9678  35.378   9.951   7.665
  346POPC   C1B 9679  35.383   9.558   8.661
  346POPC   C2B 9680  35.140   9.720   8.304
  346POPC   C3B 9681  35.133   9.532   7.880
  346POPC   C4B 9682  35.104   9.580   7.420
  347POPC   NC3 9683  14.123  39.625   9.412
  347POPC   PO4 9684  14.530  39.075   9.551
  347POPC   GL1 9685  14.367  39.218   9.160
  347POPC   GL2 9686  13.990  39.158   9.184
  347POPC   C1A 9687  14.566  39.349   8.761
  347POPC   D2A 9688  14.730  39.527   8.358
  347POPC   C3A 9689  14.628  39.362   7.930
  347POPC   C4A 9690  14.615  39.406   7.457
  347POPC   C1B 9691  14.028  39.349   8.781
  347POPC   C2B 9692  14.184  39.481   8.408
  347POPC   C3B 9693  14.136  39.288   8.026
  347POPC   C4B 9694  14.166  39.540   7.696
  348POPC   NC3 9695   3.761  13.113   9.493
  348POPC   PO4 9696   3.609  12.473   9.416
  348POPC   GL1 9697   3.599  12.825   9.096
  348POPC   GL2 9698   3.423  13.163   9.097
  348POPC   C1A 9699   3.772  13.043   8.746
  348POPC   D2A 9700   3.622  12.946   8.314
  348POPC   C3A 9701   3.698  13.206   7.951
  348POPC   C4A 9702   3.597  12.966   7.568
  348POPC   C1B 9703   3.261  13.064   8.678
  348POPC   C2B 9704   3.244  13.285   8.271
  348POPC   C3B 9705   3.178  13.186   7.850
  348POPC   C4B 9706   3.032  12.801   7.660
  349POPC   NC3 9707  17.346  28.555   9.405
  349POPC   PO4 9708  17.758  28.077   9.360
  349POPC   GL1 9709  17.711  28.409   9.026
  349POPC   GL2 9710  17.720  28.757   9.120
  349POPC   C1A 9711  17.564  28.304   8.604
  349POPC   D2A 9712  17.620  27.946   8.316
  349POPC   C3A 9713  17.411  28.078   7.968
  349POPC   C4A 9714  17.337  28.463   7.787
  349POPC   C1B 9715  17.842  28.836   8.706
  349POPC   C2B 9716  17.687  28.993   8.341
  349POPC   C3B 9717  17.654  28.802   7.946
  349POPC   C4B 9718  17.731  28.632   7.519
  350POPC   NC3 9719  21.474  44.293   9.335
  350POPC   PO4 9720  21.006  44.800   9.464
  350POPC   GL1 9721  21.034  44.634   9.101
  350POPC   GL2 9722  21.368  44.706   9.061
  350POPC   C1A 9723  21.053  44.704   8.652
  350POPC   D2A 9724  21.271  44.566   8.278
  350POPC   C3A 9725  21.077  44.398   7.930
  350POPC   C4A 9726  21.143  44.444   7.441
  350POPC   C1B 9727  21.602  44.696   8.671
  350POPC   C2B 9728  21.752  44.757   8.236
  350POPC   C3B 9729  21.833  44.833   7.774
  350POPC   C4B 9730  21.637   0.144   7.492
  351POPC   NC3 9731  30.238  40.277   9.581
  351POPC   PO4 9732  29.594  39.905   9.481
  351POPC   GL1 9733  29.810  39.848   9.111
  351POPC   GL2 9734  29.972  40.147   9.167
  351POPC   C1A 9735  29.734  39.824   8.646
  351POPC   D2A 9736  29.508  39.893   8.257
  351POPC   C3A 9737  29.758  39.936   7.884
  351POPC   C4A 9738  30.015  39.860   7.532
  351POPC   C1B 9739  30.166  40.101   8.769
  351POPC   C2B 9740  30.067  40.164   8.312
  351POPC   C3B 9741  30.278  40.068   7.926
  351POPC   C4B 9742  30.325  40.252   7.492
  352POPC   NC3 9743  17.617  14.400   9.457
  352POPC   PO4 9744  17.142  14.787   9.166
  352POPC   GL1 9745  17.416  14.498   8.992
  352POPC   GL2 9746  17.358  14.129   9.022
  352POPC   C1A 9747  17.745  14.354   8.735
  352POPC   D2A 9748  17.724  14.150   8.344
  352POPC   C3A 9749  17.731  14.429   7.999
  352POPC   C4A 9750  17.471  14.702   7.772
  352POPC   C1B 9751  17.273  14.194   8.570
  352POPC   C2B 9752  17.187  14.047   8.138
  352POPC   C3B 9753  17.222  14.239   7.708
  352POPC   C4B 9754  17.151  14.073   7.238
  353POPC   NC3 9755  44.358  40.381   9.466
  353POPC   PO4 9756  44.204  39.721   9.452
  353POPC   GL1 9757  44.353  39.985   9.117
  353POPC   GL2 9758  44.475  39.694   8.986
  353POPC   C1A 9759  44.340  40.326   8.764
  353POPC   D2A 9760  44.415  40.181   8.324
  353POPC   C3A 9761  44.304  40.172   7.864
  353POPC   C4A 9762  44.497  39.843   7.632
  353POPC   C1B 9763  44.710  40.003   8.735
  353POPC   C2B 9764  44.945  39.965   8.364
  353POPC   C3B 9765  44.809  40.135   7.986
  353POPC   C4B 9766  44.865  40.197   7.547
  354POPC   NC3 9767  16.195   9.058   9.704
  354POPC   PO4 9768  16.749   9.153   9.636
  354POPC   GL1 9769  16.659   9.020   9.227
  354POPC   GL2 9770  16.511   8.674   9.237
  354POPC   C1A 9771  16.729   9.207   8.805
  354POPC   D2A 9772  16.920   9.395   8.421
  354POPC   C3A 9773  16.712   9.302   8.016
  354POPC   C4A 9774  16.412   8.983   7.871
  354POPC   C1B 9775  16.790   8.676   8.884
  354POPC   C2B 9776  16.696   8.789   8.490
  354POPC   C3B 9777  16.612   8.588   8.132
  354POPC   C4B 9778  16.827   8.691   7.774
  355POPC   NC3 9779  30.764  17.789   9.538
  355POPC   PO4 9780  30.885  17.117   9.482
  355POPC   GL1 9781  31.010  17.476   9.242
  355POPC   GL2 9782  30.679  17.511   9.127
  355POPC   C1A 9783  31.024  17.601   8.797
  355POPC   D2A 9784  31.224  17.504   8.430
  355POPC   C3A 9785  30.959  17.428   8.069
  355POPC   C4A 9786  31.071  17.315   7.646
  355POPC   C1B 9787  30.503  17.662   8.743
  355POPC   C2B 9788  30.404  17.701   8.324
  355POPC   C3B 9789  30.310  17.578   7.911
  355POPC   C4B 9790  30.324  17.728   7.480
  356POPC   NC3 9791  24.293  24.825   9.352
  356POPC   PO4 9792  23.573  24.615   9.447
  356POPC   GL1 9793  23.786  24.629   9.074
  356POPC   GL2 9794  23.879  24.293   9.091
  356POPC   C1A 9795  23.618  24.426   8.673
  356POPC   D2A 9796  23.433  24.188   8.324
  356POPC   C3A 9797  23.472  24.445   7.945
  356POPC   C4A 9798  23.488  24.315   7.529
  356POPC   C1B 9799  24.129  24.246   8.740
  356POPC   C2B 9800  24.173  24.413   8.346
  356POPC   C3B 9801  23.980  24.359   7.938
  356POPC   C4B 9802  23.882  24.638   7.573
  357POPC   NC3 9803  38.787   7.255   9.647
  357POPC   PO4 9804  38.209   7.677   9.626
  357POPC   GL1 9805  38.383   7.567   9.193
  357POPC   GL2 9806  38.724   7.394   9.156
  357POPC   C1A 9807  38.232   7.593   8.744
  357POPC   D2A 9808  38.007   7.320   8.404
  357POPC   C3A 9809  38.218   7.233   8.002
  357POPC   C4A 9810  38.455   7.594   7.853
  357POPC   C1B 9811  38.547   7.181   8.801
  357POPC   C2B 9812  38.543   7.358   8.392
  357POPC   C3B 9813  38.782   7.245   8.056
  357POPC   C4B 9814  38.730   7.210   7.644
  358POPC   NC3 9815  14.798  28.330   9.462
  358POPC   PO4 9816  14.166  28.140   9.539
  358POPC   GL1 9817  14.370  28.312   9.176
  358POPC   GL2 9818  14.391  28.645   9.043
  358POPC   C1A 9819  14.448  28.145   8.803
  358POPC   D2A 9820  14.548  28.308   8.449
  358POPC   C3A 9821  14.537  28.089   8.109
  358POPC   C4A 9822  14.388  28.252   7.742
  358POPC   C1B 9823  14.288  28.716   8.625
  358POPC   C2B 9824  14.269  28.928   8.239
  358POPC   C3B 9825  14.327  28.743   7.825
  358POPC   C4B 9826  14.038  28.716   7.483
  359POPC   NC3 9827  14.884  23.794   9.857
  359POPC   PO4 9828  14.311  23.819   9.429
  359POPC   GL1 9829  14.174  23.906   8.991
  359POPC   GL2 9830  14.044  24.245   8.918
  359POPC   C1A 9831  13.984  23.921   8.539
  359POPC   D2A 9832  13.932  23.840   8.084
  359POPC   C3A 9833  14.251  23.551   7.867
  359POPC   C4A 9834  14.739  23.451   7.823
  359POPC   C1B 9835  14.453  24.185   8.674
  359POPC   C2B 9836  14.694  24.103   8.282
  359POPC   C3B 9837  14.585  23.946   7.887
  359POPC   C4B 9838  14.186  24.038   7.687
  360POPC   NC3 9839  35.915  13.431   9.650
  360POPC   PO4 9840  35.276  13.289   9.497
  360POPC   GL1 9841  35.428  13.573   9.197
  360POPC   GL2 9842  35.346  13.314   8.984
  360POPC   C1A 9843  35.344  13.808   8.803
  360POPC   D2A 9844  35.463  13.689   8.391
  360POPC   C3A 9845  35.294  13.836   8.052
  360POPC   C4A 9846  34.988  13.653   7.840
  360POPC   C1B 9847  35.517  13.057   8.694
  360POPC   C2B 9848  35.761  13.077   8.369
  360POPC   C3B 9849  35.609  13.250   7.999
  360POPC   C4B 9850  35.483  13.524   7.688
  361POPC   NC3 9851   1.429  29.351   9.438
  361POPC   PO4 9852   0.822  29.632   9.531
  361POPC   GL1 9853   0.970  29.357   9.181
  361POPC   GL2 9854   1.106  29.563   8.967
  361POPC   C1A 9855   1.074  29.015   8.881
  361POPC   D2A 9856   0.839  28.927   8.494
  361POPC   C3A 9857   0.977  29.096   8.096
  361POPC   C4A 9858   1.054  29.396   7.765
  361POPC   C1B 9859   1.059  29.395   8.538
  361POPC   C2B 9860   1.374  29.398   8.215
  361POPC   C3B 9861   1.469  29.642   7.862
  361POPC   C4B 9862   1.249  29.804   7.480
  362POPC   NC3 9863   9.799  18.501   9.623
  362POPC   PO4 9864   9.441  17.984   9.605
  362POPC   GL1 9865   9.632  18.191   9.235
  362POPC   GL2 9866   9.436  17.997   9.032
  362POPC   C1A 9867   9.876  18.282   8.837
  362POPC   D2A 9868  10.069  18.185   8.426
  362POPC   C3A 9869   9.973  18.421   8.086
  362POPC   C4A 9870   9.888  18.647   7.721
  362POPC   C1B 9871   9.386  18.371   8.773
  362POPC   C2B 9872   9.514  18.274   8.358
  362POPC   C3B 9873   9.721  17.961   8.113
  362POPC   C4B 9874   9.875  18.082   7.709
  363POPC   NC3 9875   5.205  22.386   9.580
  363POPC   PO4 9876   4.575  22.588   9.366
  363POPC   GL1 9877   4.826  22.312   9.098
  363POPC   GL2 9878   5.104  22.072   9.165
  363POPC   C1A 9879   5.077  22.389   8.735
  363POPC   D2A 9880   5.189  22.388   8.339
  363POPC   C3A 9881   5.382  22.096   8.106
  363POPC   C4A 9882   5.375  22.277   7.707
  363POPC   C1B 9883   4.913  21.911   8.765
  363POPC   C2B 9884   4.750  22.099   8.366
  363POPC   C3B 9885   4.901  22.142   7.943
  363POPC   C4B 9886   5.147  21.847   7.683
  364POPC   NC3 9887  44.339  23.895   9.558
  364POPC   PO4 9888  44.598  23.401   9.586
  364POPC   GL1 9889  44.686  23.690   9.214
  364POPC   GL2 9890  44.787  23.425   9.024
  364POPC   C1A 9891  44.729  23.883   8.754
  364POPC   D2A 9892  44.518  23.812   8.328
  364POPC   C3A 9893  44.579  24.096   7.935
  364POPC   C4A 9894  44.515  24.029   7.480
  364POPC   C1B 9895  44.664  23.386   8.589
  364POPC   C2B 9896  44.618  23.327   8.138
  364POPC   C3B 9897  44.634  23.603   7.771
  364POPC   C4B 9898  44.789  23.640   7.320
  365POPC   NC3 9899   0.722  29.178   9.577
  365POPC   PO4 9900   0.087  29.203   9.482
  365POPC   GL1 9901   0.371  29.172   9.150
  365POPC   GL2 9902   0.459  29.493   9.203
  365POPC   C1A 9903   0.277  29.085   8.706
  365POPC   D2A 9904   0.068  29.263   8.332
  365POPC   C3A 9905   0.234  29.171   7.884
  365POPC   C4A 9906   0.652  29.022   7.678
  365POPC   C1B 9907   0.607  29.488   8.784
  365POPC   C2B 9908   0.577  29.348   8.372
  365POPC   C3B 9909   0.626  29.453   7.993
  365POPC   C4B 9910   0.526  29.508   7.572
  366POPC   NC3 9911  20.169  17.088   9.625
  366POPC   PO4 9912  19.465  16.980   9.461
  366POPC   GL1 9913  19.659  16.778   9.093
  366POPC   GL2 9914  20.019  16.762   9.136
  366POPC   C1A 9915  19.819  16.725   8.646
  366POPC   D2A 9916  19.827  16.587   8.180
  366POPC   C3A 9917  19.787  16.610   7.722
  366POPC   C4A 9918  19.850  16.401   7.322
  366POPC   C1B 9919  20.281  16.870   8.768
  366POPC   C2B 9920  20.196  16.973   8.332
  366POPC   C3B 9921  20.092  16.976   7.881
  366POPC   C4B 9922  19.934  17.256   7.506
  367POPC   NC3 9923   8.577   2.669   9.495
  367POPC   PO4 9924   8.088   3.138   9.652
  367POPC   GL1 9925   8.128   2.866   9.231
  367POPC   GL2 9926   8.437   2.715   9.020
  367POPC   C1A 9927   7.987   2.643   8.823
  367POPC   D2A 9928   8.296   2.620   8.456
  367POPC   C3A 9929   8.061   2.740   8.067
  367POPC   C4A 9930   8.073   2.556   7.659
  367POPC   C1B 9931   8.300   3.054   8.751
  367POPC   C2B 9932   8.488   3.096   8.355
  367POPC   C3B 9933   8.551   2.861   8.017
  367POPC   C4B 9934   8.342   2.976   7.659
  368POPC   NC3 9935   2.355  32.941   9.603
  368POPC   PO4 9936   2.992  33.067   9.635
  368POPC   GL1 9937   2.743  32.805   9.297
  368POPC   GL2 9938   2.737  33.110   9.163
  368POPC   C1A 9939   2.557  32.825   8.819
  368POPC   D2A 9940   2.909  32.894   8.502
  368POPC   C3A 9941   2.983  32.596   8.134
  368POPC   C4A 9942   2.846  32.653   7.695
  368POPC   C1B 9943   2.669  33.339   8.794
  368POPC   C2B 9944   2.601  33.295   8.379
  368POPC   C3B 9945   2.680  33.034   8.032
  368POPC   C4B 9946   2.409  33.125   7.688
  369POPC   NC3 9947  35.095  21.348   9.610
  369POPC   PO4 9948  35.573  21.004   9.310
  369POPC   GL1 9949  35.273  21.245   9.127
  369POPC   GL2 9950  35.376  21.575   9.232
  369POPC   C1A 9951  35.348  21.159   8.693
  369POPC   D2A 9952  35.630  21.182   8.330
  369POPC   C3A 9953  35.393  20.986   7.990
  369POPC   C4A 9954  35.219  21.337   7.750
  369POPC   C1B 9955  35.285  21.663   8.822
  369POPC   C2B 9956  35.100  21.523   8.452
  369POPC   C3B 9957  35.109  21.676   8.088
  369POPC   C4B 9958  35.293  21.875   7.766
  370POPC   NC3 9959  26.104  27.147   9.465
  370POPC   PO4 9960  26.552  26.555   9.542
  370POPC   GL1 9961  26.273  26.629   9.144
  370POPC   GL2 9962  26.147  26.959   8.993
  370POPC   C1A 9963  25.915  26.565   8.814
  370POPC   D2A 9964  25.777  26.777   8.434
  370POPC   C3A 9965  26.023  26.810   8.049
  370POPC   C4A 9966  25.851  26.630   7.657
  370POPC   C1B 9967  26.273  27.210   8.644
  370POPC   C2B 9968  26.472  27.065   8.272
  370POPC   C3B 9969  26.371  27.174   7.877
  370POPC   C4B 9970  25.965  27.144   7.652
  371POPC   NC3 9971  35.581  41.823   9.513
  371POPC   PO4 9972  36.266  41.763   9.428
  371POPC   GL1 9973  36.153  41.432   9.146
  371POPC   GL2 9974  35.814  41.381   9.237
  371POPC   C1A 9975  36.227  41.338   8.735
  371POPC   D2A 9976  36.369  41.563   8.409
  371POPC   C3A 9977  36.300  41.367   8.073
  371POPC   C4A 9978  36.486  41.521   7.707
  371POPC   C1B 9979  35.764  41.502   8.819
  371POPC   C2B 9980  35.848  41.571   8.414
  371POPC   C3B 9981  35.739  41.624   8.020
  371POPC   C4B 9982  35.968  41.482   7.687
  372POPC   NC3 9983  23.301  26.671   9.484
  372POPC   PO4 9984  23.876  27.064   9.478
  372POPC   GL1 9985  23.601  26.992   9.152
  372POPC   GL2 9986  23.657  26.632   9.091
  372POPC   C1A 9987  23.507  26.975   8.700
  372POPC   D2A 9988  23.464  26.615   8.393
  372POPC   C3A 9989  23.541  26.736   7.971
  372POPC   C4A 9990  23.600  27.149   7.801
  372POPC   C1B 9991  23.914  26.660   8.701
  372POPC   C2B 9992  23.917  26.908   8.328
  372POPC   C3B 9993  24.049  26.835   7.910
  372POPC   C4B 9994  23.846  26.815   7.521
  373POPC   NC3 9995   9.685   1.589   9.402
  373POPC   PO4 9996  10.015   1.022   9.437
  373POPC   GL1 9997   9.708   1.047   9.155
  373POPC   GL2 9998   9.906   0.915   8.886
  373POPC   C1A 9999   9.531   1.268   8.807
  373POPC   D2A10000   9.627   1.161   8.386
  373POPC   C3A10001   9.431   1.449   8.110
  373POPC   C4A10002   9.459   1.496   7.681
  373POPC   C1B10003  10.065   1.288   8.668
  373POPC   C2B10004  10.042   1.392   8.223
  373POPC   C3B10005   9.855   1.225   7.901
  373POPC   C4B10006  10.064   0.897   7.659
  374POPC   NC310007  24.708  44.797   9.287
  374POPC   PO410008  24.307  44.369   9.621
  374POPC   GL110009  24.347  44.485   9.134
  374POPC   GL210010  24.682  44.538   8.864
  374POPC   C1A10011  24.229  44.771   8.774
  374POPC   D2A10012  24.286  44.648   8.332
  374POPC   C3A10013  24.108  44.877   8.013
  374POPC   C4A10014  24.387  44.754   7.685
  374POPC   C1B10015  24.693  44.946   8.667
  374POPC   C2B10016  24.587   0.060   8.275
  374POPC   C3B10017  24.833   0.033   7.910
  374POPC   C4B10018  24.821  44.981   7.473
  375POPC   NC310019  17.876  32.022   9.615
  375POPC   PO410020  18.555  32.193   9.671
  375POPC   GL110021  18.279  32.169   9.284
  375POPC   GL210022  18.282  31.828   9.179
  375POPC   C1A10023  18.349  32.200   8.824
  375POPC   D2A10024  18.551  32.099   8.412
  375POPC   C3A10025  18.354  32.271   8.057
  375POPC   C4A10026  18.012  32.424   7.804
  375POPC   C1B10027  18.327  31.705   8.751
  375POPC   C2B10028  18.061  31.939   8.453
  375POPC   C3B10029  17.922  31.981   8.024
  375POPC   C4B10030  18.185  31.963   7.674
  376POPC   NC310031  30.374  21.109   9.492
  376POPC   PO410032  30.948  21.355   9.450
  376POPC   GL110033  30.729  21.151   9.134
  376POPC   GL210034  30.496  21.443   9.114
  376POPC   C1A10035  30.719  21.196   8.712
  376POPC   D2A10036  30.775  21.389   8.327
  376POPC   C3A10037  30.786  21.217   7.948
  376POPC   C4A10038  30.598  21.335   7.537
  376POPC   C1B10039  30.588  21.692   8.741
  376POPC   C2B10040  30.515  21.824   8.324
  376POPC   C3B10041  30.609  21.706   7.906
  376POPC   C4B10042  30.836  21.780   7.512
  377POPC   NC310043  21.098  30.475   9.429
  377POPC   PO410044  21.696  30.673   9.480
  377POPC   GL110045  21.421  30.754   9.148
  377POPC   GL210046  21.438  30.439   9.031
  377POPC   C1A10047  21.124  30.804   8.830
  377POPC   D2A10048  21.016  30.965   8.448
  377POPC   C3A10049  21.132  30.657   8.159
  377POPC   C4A10050  21.139  30.799   7.740
  377POPC   C1B10051  21.640  30.704   8.703
  377POPC   C2B10052  21.577  30.886   8.303
  377POPC   C3B10053  21.591  30.640   7.948
  377POPC   C4B10054  21.482  30.499   7.549
  378POPC   NC310055   5.715  23.078   9.600
  378POPC   PO410056   6.188  22.618   9.488
  378POPC   GL110057   6.070  22.954   9.199
  378POPC   GL210058   5.791  22.799   9.113
  378POPC   C1A10059   5.919  23.117   8.757
  378POPC   D2A10060   5.990  22.895   8.354
  378POPC   C3A10061   5.730  23.009   7.989
  378POPC   C4A10062   5.864  23.062   7.545
  378POPC   C1B10063   5.773  22.534   8.672
  378POPC   C2B10064   5.699  22.494   8.193
  378POPC   C3B10065   5.773  22.574   7.720
  378POPC   C4B10066   5.579  22.481   7.285
  379POPC   NC310067  12.814  34.120   9.320
  379POPC   PO410068  12.838  33.542   9.673
  379POPC   GL110069  12.978  33.588   9.180
  379POPC   GL210070  12.810  33.837   8.900
  379POPC   C1A10071  13.008  33.423   8.721
  379POPC   D2A10072  12.956  33.647   8.292
  379POPC   C3A10073  12.698  33.995   8.089
  379POPC   C4A10074  12.645  34.010   7.647
  379POPC   C1B10075  13.016  34.064   8.579
  379POPC   C2B10076  13.179  34.135   8.181
  379POPC   C3B10077  13.132  34.060   7.728
  379POPC   C4B10078  13.229  34.108   7.253
  380POPC   NC310079   3.451  33.021   9.651
  380POPC   PO410080   3.935  32.546   9.760
  380POPC   GL110081   3.839  32.909   9.336
  380POPC   GL210082   3.514  33.147   9.165
  380POPC   C1A10083   3.810  32.907   8.856
  380POPC   D2A10084   3.468  32.993   8.548
  380POPC   C3A10085   3.515  32.983   8.083
  380POPC   C4A10086   3.357  32.692   7.782
  380POPC   C1B10087   3.683  33.397   8.794
  380POPC   C2B10088   3.771  33.368   8.340
  380POPC   C3B10089   3.800  33.418   7.914
  380POPC   C4B10090   3.575  33.250   7.570
  381POPC   NC310091  25.132  31.612   9.722
  381POPC   PO410092  25.749  31.477   9.396
  381POPC   GL110093  25.328  31.369   9.197
  381POPC   GL210094  25.171  31.706   9.222
  381POPC   C1A10095  25.124  31.316   8.761
  381POPC   D2A10096  25.204  31.079   8.382
  381POPC   C3A10097  25.216  31.407   8.084
  381POPC   C4A10098  25.042  31.786   7.933
  381POPC   C1B10099  25.334  31.768   8.828
  381POPC   C2B10100  25.257  31.796   8.411
  381POPC   C3B10101  25.576  31.782   8.075
  381POPC   C4B10102  25.475  31.722   7.665
  382POPC   NC310103  21.107   1.085   9.544
  382POPC   PO410104  21.712   1.354   9.487
  382POPC   GL110105  21.418   1.211   9.135
  382POPC   GL210106  21.037   1.322   9.103
  382POPC   C1A10107  21.549   1.160   8.685
  382POPC   D2A10108  21.390   0.994   8.290
  382POPC   C3A10109  21.622   1.035   7.892
  382POPC   C4A10110  21.517   1.270   7.540
  382POPC   C1B10111  21.051   1.168   8.720
  382POPC   C2B10112  21.042   1.358   8.326
  382POPC   C3B10113  21.140   1.234   7.903
  382POPC   C4B10114  21.166   0.871   7.663
  383POPC   NC310115   6.441  19.572   9.627
  383POPC   PO410116   6.783  20.188   9.485
  383POPC   GL110117   6.663  19.821   9.242
  383POPC   GL210118   6.708  20.022   8.967
  383POPC   C1A10119   6.519  19.575   8.873
  383POPC   D2A10120   6.645  19.753   8.480
  383POPC   C3A10121   6.593  19.597   8.067
  383POPC   C4A10122   6.577  19.765   7.673
  383POPC   C1B10123   7.045  20.055   8.689
  383POPC   C2B10124   7.087  19.930   8.288
  383POPC   C3B10125   6.868  20.076   7.968
  383POPC   C4B10126   7.004  20.332   7.664
  384POPC   NC310127  28.043   2.211   9.482
  384POPC   PO410128  28.623   1.940   9.346
  384POPC   GL110129  28.517   2.171   9.020
  384POPC   GL210130  28.207   2.348   9.022
  384POPC   C1A10131  28.388   1.923   8.664
  384POPC   D2A10132  28.110   2.007   8.304
  384POPC   C3A10133  28.273   1.848   7.972
  384POPC   C4A10134  28.652   1.790   7.714
  384POPC   C1B10135  28.208   2.400   8.592
  384POPC   C2B10136  28.562   2.287   8.354
  384POPC   C3B10137  28.568   2.257   7.942
  384POPC   C4B10138  28.252   2.423   7.704
  385POPC   NC310139  13.564  16.341   9.528
  385POPC   PO410140  13.461  16.993   9.541
  385POPC   GL110141  13.581  16.751   9.180
  385POPC   GL210142  13.851  16.499   9.139
  385POPC   C1A10143  13.688  16.785   8.741
  385POPC   D2A10144  13.443  16.850   8.382
  385POPC   C3A10145  13.644  16.745   8.033
  385POPC   C4A10146  13.879  16.633   7.698
  385POPC   C1B10147  13.441  16.364   8.888
  385POPC   C2B10148  13.176  16.393   8.503
  385POPC   C3B10149  13.161  16.458   8.062
  385POPC   C4B10150  13.421  16.388   7.699
  386POPC   NC310151  28.404   7.173   9.429
  386POPC   PO410152  27.843   7.563   9.458
  386POPC   GL110153  28.178   7.514   9.120
  386POPC   GL210154  28.441   7.710   9.145
  386POPC   C1A10155  28.439   7.279   8.768
  386POPC   D2A10156  28.329   7.145   8.308
  386POPC   C3A10157  28.318   7.464   7.937
  386POPC   C4A10158  28.582   7.361   7.605
  386POPC   C1B10159  28.613   7.751   8.764
  386POPC   C2B10160  28.537   7.623   8.367
  386POPC   C3B10161  28.813   7.524   8.028
  386POPC   C4B10162  28.884   7.770   7.634
  387POPC   NC310163   9.298   2.088   9.634
  387POPC   PO410164   9.940   1.964   9.539
  387POPC   GL110165   9.822   2.129   9.200
  387POPC   GL210166   9.493   1.995   9.162
  387POPC   C1A10167   9.851   1.938   8.803
  387POPC   D2A10168   9.704   1.653   8.513
  387POPC   C3A10169   9.764   1.805   8.086
  387POPC   C4A10170   9.877   1.819   7.663
  387POPC   C1B10171   9.345   2.075   8.758
  387POPC   C2B10172   9.290   1.880   8.372
  387POPC   C3B10173   9.354   2.097   7.993
  387POPC   C4B10174   9.369   1.987   7.582
  388POPC   NC310175  24.259   9.121   9.757
  388POPC   PO410176  24.899   9.215   9.538
  388POPC   GL110177  24.610   9.150   9.210
  388POPC   GL210178  24.616   8.800   9.160
  388POPC   C1A10179  24.477   9.147   8.756
  388POPC   D2A10180  24.689   9.286   8.361
  388POPC   C3A10181  24.474   9.197   7.964
  388POPC   C4A10182  24.122   8.954   7.800
  388POPC   C1B10183  24.602   8.641   8.726
  388POPC   C2B10184  24.461   8.802   8.316
  388POPC   C3B10185  24.543   8.654   7.902
  388POPC   C4B10186  24.871   8.570   7.578
  389POPC   NC310187   7.191  38.894   9.476
  389POPC   PO410188   7.620  39.396   9.452
  389POPC   GL110189   7.370  39.192   9.068
  389POPC   GL210190   7.007  39.260   9.154
  389POPC   C1A10191   7.314  39.217   8.577
  389POPC   D2A10192   7.565  39.473   8.231
  389POPC   C3A10193   7.534  39.337   7.798
  389POPC   C4A10194   7.457  39.003   7.471
  389POPC   C1B10195   6.807  39.265   8.763
  389POPC   C2B10196   6.847  39.380   8.348
  389POPC   C3B10197   7.104  39.185   8.024
  389POPC   C4B10198   7.062  39.310   7.570
  390POPC   NC310199   4.531   4.177   9.891
  390POPC   PO410200   3.977   3.975   9.453
  390POPC   GL110201   4.383   4.008   9.275
  390POPC   GL210202   4.390   4.354   9.270
  390POPC   C1A10203   4.483   3.960   8.838
  390POPC   D2A10204   4.273   4.098   8.464
  390POPC   C3A10205   4.457   4.060   8.078
  390POPC   C4A10206   4.482   4.179   7.671
  390POPC   C1B10207   4.387   4.475   8.828
  390POPC   C2B10208   4.508   4.553   8.390
  390POPC   C3B10209   4.228   4.518   8.037
  390POPC   C4B10210   4.114   4.503   7.612
  391POPC   NC310211  38.102  25.200   9.679
  391POPC   PO410212  37.574  24.857   9.591
  391POPC   GL110213  37.641  25.080   9.250
  391POPC   GL210214  37.349  25.179   9.186
  391POPC   C1A10215  37.641  25.108   8.796
  391POPC   D2A10216  37.632  24.935   8.413
  391POPC   C3A10217  37.638  25.212   8.098
  391POPC   C4A10218  37.692  25.196   7.701
  391POPC   C1B10219  37.315  25.475   8.872
  391POPC   C2B10220  37.335  25.378   8.472
  391POPC   C3B10221  37.191  25.424   8.071
  391POPC   C4B10222  37.276  25.580   7.664
  392POPC   NC310223  39.591   9.790   9.495
  392POPC   PO410224  40.153   9.392   9.537
  392POPC   GL110225  39.863   9.420   9.193
  392POPC   GL210226  39.950   9.736   9.123
  392POPC   C1A10227  39.796   9.497   8.713
  392POPC   D2A10228  39.985   9.616   8.321
  392POPC   C3A10229  39.660   9.649   8.013
  392POPC   C4A10230  39.704   9.638   7.589
  392POPC   C1B10231  40.101   9.923   8.753
  392POPC   C2B10232  40.190  10.086   8.342
  392POPC   C3B10233  39.978  10.042   7.937
  392POPC   C4B10234  40.190   9.996   7.551
  393POPC   NC310235  41.214  23.941   9.314
  393POPC   PO410236  41.823  23.714   9.554
  393POPC   GL110237  41.677  23.644   9.201
  393POPC   GL210238  41.703  23.996   9.109
  393POPC   C1A10239  41.750  23.561   8.799
  393POPC   D2A10240  41.940  23.864   8.539
  393POPC   C3A10241  41.721  23.849   8.165
  393POPC   C4A10242  41.986  23.693   7.826
  393POPC   C1B10243  41.482  24.030   8.721
  393POPC   C2B10244  41.226  24.139   8.385
  393POPC   C3B10245  41.256  24.021   7.973
  393POPC   C4B10246  41.458  23.714   7.748
  394POPC   NC310247  17.637  30.163   9.717
  394POPC   PO410248  17.509  29.507   9.491
  394POPC   GL110249  17.534  29.691   9.088
  394POPC   GL210250  17.595  30.057   9.188
  394POPC   C1A10251  17.596  29.750   8.629
  394POPC   D2A10252  17.739  29.653   8.217
  394POPC   C3A10253  17.481  29.802   7.878
  394POPC   C4A10254  17.247  30.174   7.747
  394POPC   C1B10255  17.893  30.360   8.976
  394POPC   C2B10256  17.964  30.310   8.518
  394POPC   C3B10257  17.689  30.172   8.189
  394POPC   C4B10258  17.766  30.233   7.748
  395POPC   NC310259  13.793  15.732   9.622
  395POPC   PO410260  13.224  16.022   9.474
  395POPC   GL110261  13.571  15.933   9.160
  395POPC   GL210262  13.942  15.857   9.142
  395POPC   C1A10263  13.667  15.690   8.758
  395POPC   D2A10264  13.911  15.816   8.363
  395POPC   C3A10265  13.732  15.724   7.943
  395POPC   C4A10266  13.523  15.773   7.513
  395POPC   C1B10267  13.888  16.138   8.787
  395POPC   C2B10268  13.698  16.351   8.439
  395POPC   C3B10269  13.755  16.230   8.030
  395POPC   C4B10270  13.904  16.100   7.612
  396POPC   NC310271  13.214  11.052   9.802
  396POPC   PO410272  12.835  11.441   9.466
  396POPC   GL110273  13.108  11.548   9.130
  396POPC   GL210274  12.867  11.668   8.977
  396POPC   C1A10275  13.252  11.499   8.674
  396POPC   D2A10276  13.042  11.286   8.301
  396POPC   C3A10277  13.117  11.188   7.865
  396POPC   C4A10278  12.900  11.375   7.504
  396POPC   C1B10279  12.748  11.631   8.565
  396POPC   C2B10280  12.676  11.614   8.110
  396POPC   C3B10281  12.594  11.230   7.875
  396POPC   C4B10282  12.749  10.882   7.616
  397POPC   NC310283  30.327  36.579   9.434
  397POPC   PO410284  29.583  36.530   9.395
  397POPC   GL110285  29.830  36.853   9.112
  397POPC   GL210286  30.195  36.881   9.048
  397POPC   C1A10287  29.840  37.154   8.766
  397POPC   D2A10288  29.793  37.006   8.339
  397POPC   C3A10289  29.667  37.046   7.928
  397POPC   C4A10290  29.872  36.839   7.582
  397POPC   C1B10291  30.087  36.706   8.664
  397POPC   C2B10292  30.251  36.545   8.260
  397POPC   C3B10293  30.159  36.494   7.806
  397POPC   C4B10294  30.423  36.417   7.434
  398POPC   NC310295   6.127  22.167   9.577
  398POPC   PO410296   5.435  21.965   9.571
  398POPC   GL110297   5.643  22.034   9.187
  398POPC   GL210298   5.910  22.307   9.128
  398POPC   C1A10299   5.505  22.075   8.766
  398POPC   D2A10300   5.818  22.050   8.462
  398POPC   C3A10301   5.823  21.849   8.095
  398POPC   C4A10302   5.850  22.069   7.764
  398POPC   C1B10303   6.254  22.476   8.819
  398POPC   C2B10304   6.291  22.246   8.426
  398POPC   C3B10305   6.168  22.366   8.041
  398POPC   C4B10306   6.276  22.640   7.739
  399POPC   NC310307  27.436  21.681   9.456
  399POPC   PO410308  27.295  22.343   9.636
  399POPC   GL110309  27.429  22.168   9.277
  399POPC   GL210310  27.116  21.975   9.216
  399POPC   C1A10311  27.693  22.280   8.910
  399POPC   D2A10312  27.861  22.129   8.465
  399POPC   C3A10313  27.811  22.270   8.017
  399POPC   C4A10314  27.810  22.139   7.579
  399POPC   C1B10315  27.266  22.049   8.795
  399POPC   C2B10316  27.348  22.253   8.392
  399POPC   C3B10317  27.144  22.259   8.012
  399POPC   C4B10318  27.319  22.098   7.690
  400POPC   NC310319  31.073   2.746   9.543
  400POPC   PO410320  31.726   2.887   9.458
  400POPC   GL110321  31.423   2.679   9.170
  400POPC   GL210322  31.709   2.731   8.970
  400POPC   C1A10323  31.299   2.619   8.714
  400POPC   D2A10324  31.582   2.654   8.359
  400POPC   C3A10325  31.348   2.737   8.009
  400POPC   C4A10326  31.337   2.617   7.605
  400POPC   C1B10327  31.871   3.166   8.806
  400POPC   C2B10328  31.986   3.174   8.381
  400POPC   C3B10329  31.762   3.118   8.019
  400POPC   C4B10330  31.749   2.867   7.691
  401POPC   NC310331  27.010  22.734   9.619
  401POPC   PO410332  26.517  23.220   9.444
  401POPC   GL110333  26.789  22.985   9.224
  401POPC   GL210334  26.580  22.733   9.121
  401POPC   C1A10335  26.901  22.990   8.812
  401POPC   D2A10336  26.856  23.197   8.461
  401POPC   C3A10337  27.131  23.072   8.145
  401POPC   C4A10338  27.120  22.741   7.845
  401POPC   C1B10339  26.568  22.592   8.735
  401POPC   C2B10340  26.506  22.831   8.405
  401POPC   C3B10341  26.641  23.009   8.020
  401POPC   C4B10342  26.460  22.935   7.642
  402POPC   NC310343  41.111  25.638   9.538
  402POPC   PO410344  40.597  26.182   9.651
  402POPC   GL110345  40.574  26.162   9.214
  402POPC   GL210346  40.393  25.837   9.229
  402POPC   C1A10347  40.772  26.212   8.805
  402POPC   D2A10348  40.644  26.437   8.416
  402POPC   C3A10349  40.838  26.313   8.032
  402POPC   C4A10350  40.697  26.222   7.662
  402POPC   C1B10351  40.689  25.681   8.901
  402POPC   C2B10352  40.958  25.762   8.534
  402POPC   C3B10353  40.806  25.806   8.130
  402POPC   C4B10354  40.915  25.764   7.743
  403POPC   NC310355  44.227  33.747   9.582
  403POPC   PO410356  43.625  33.596   9.423
  403POPC   GL110357  43.800  33.848   9.060
  403POPC   GL210358  44.165  33.924   9.097
  403POPC   C1A10359  43.638  33.976   8.628
  403POPC   D2A10360  43.498  34.042   8.171
  403POPC   C3A10361  43.710  33.900   7.760
  403POPC   C4A10362  43.766  33.553   7.433
  403POPC   C1B10363  44.138  33.846   8.669
  403POPC   C2B10364  43.962  33.813   8.264
  403POPC   C3B10365  44.056  33.593   7.912
  403POPC   C4B10366  44.256  33.993   7.795
  404POPC   NC310367  41.285   9.183   9.430
  404POPC   PO410368  41.889   9.410   9.561
  404POPC   GL110369  41.712   9.225   9.151
  404POPC   GL210370  41.597   8.871   9.162
  404POPC   C1A10371  41.696   9.107   8.686
  404POPC   D2A10372  41.449   9.050   8.269
  404POPC   C3A10373  41.584   9.140   7.812
  404POPC   C4A10374  41.530   9.344   7.364
  404POPC   C1B10375  41.484   8.551   8.867
  404POPC   C2B10376  41.500   8.509   8.421
  404POPC   C3B10377  41.357   8.628   7.995
  404POPC   C4B10378  41.631   8.631   7.657
  405POPC   NC310379  43.461  25.895   9.665
  405POPC   PO410380  43.030  26.273   9.609
  405POPC   GL110381  43.020  26.051   9.218
  405POPC   GL210382  43.336  26.169   9.196
  405POPC   C1A10383  43.099  26.099   8.740
  405POPC   D2A10384  43.411  26.341   8.498
  405POPC   C3A10385  43.347  26.389   8.051
  405POPC   C4A10386  42.943  26.214   7.767
  405POPC   C1B10387  43.414  25.772   8.967
  405POPC   C2B10388  43.489  25.824   8.517
  405POPC   C3B10389  43.159  25.971   8.203
  405POPC   C4B10390  43.346  25.927   7.749
  406POPC   NC310391  39.706  10.585   9.573
  406POPC   PO410392  39.996  10.082   9.492
  406POPC   GL110393  39.841  10.300   9.122
  406POPC   GL210394  39.725  10.687   9.084
  406POPC   C1A10395  40.010  10.426   8.726
  406POPC   D2A10396  39.914  10.514   8.312
  406POPC   C3A10397  40.218  10.488   7.993
  406POPC   C4A10398  40.016  10.462   7.626
  406POPC   C1B10399  39.524  10.927   8.719
  406POPC   C2B10400  39.745  10.998   8.299
  406POPC   C3B10401  40.004  10.951   7.893
  406POPC   C4B10402  40.002  11.260   7.548
  407POPC   NC310403   0.276  22.127   9.630
  407POPC   PO410404   0.025  22.620   9.335
  407POPC   GL110405   0.137  22.203   9.060
  407POPC   GL210406   0.097  21.856   9.240
  407POPC   C1A10407   0.210  22.141   8.580
  407POPC   D2A10408   0.451  22.293   8.209
  407POPC   C3A10409   0.244  22.295   7.815
  407POPC   C4A10410   0.236  22.441   7.394
  407POPC   C1B10411   0.071  21.719   8.828
  407POPC   C2B10412   0.343  21.638   8.456
  407POPC   C3B10413   0.332  21.820   8.049
  407POPC   C4B10414   0.600  21.791   7.676
  408POPC   NC310415   3.718  29.891   9.613
  408POPC   PO410416   4.368  30.071   9.703
  408POPC   GL110417   4.390  29.874   9.277
  408POPC   GL210418   4.082  29.731   9.239
  408POPC   C1A10419   4.512  29.996   8.846
  408POPC   D2A10420   4.350  30.172   8.448
  408POPC   C3A10421   4.481  29.967   8.071
  408POPC   C4A10422   4.737  29.785   7.740
  408POPC   C1B10423   4.013  29.886   8.822
  408POPC   C2B10424   3.898  29.954   8.405
  408POPC   C3B10425   4.015  29.772   8.039
  408POPC   C4B10426   4.232  29.837   7.667
  409POPC   NC310427  12.487  40.218   9.430
  409POPC   PO410428  12.022  40.511   9.615
  409POPC   GL110429  12.054  40.750   9.251
  409POPC   GL210430  12.387  40.714   9.225
  409POPC   C1A10431  11.921  40.836   8.854
  409POPC   D2A10432  12.043  40.728   8.443
  409POPC   C3A10433  11.936  40.910   8.057
  409POPC   C4A10434  12.033  40.858   7.644
  409POPC   C1B10435  12.357  40.536   8.824
  409POPC   C2B10436  12.516  40.578   8.382
  409POPC   C3B10437  12.361  40.625   7.978
  409POPC   C4B10438  12.465  40.617   7.519
  410POPC   NC310439  34.944  41.592   9.351
  410POPC   PO410440  34.353  41.414   9.609
  410POPC   GL110441  34.413  41.395   9.172
  410POPC   GL210442  34.684  41.194   9.226
  410POPC   C1A10443  34.562  41.636   8.788
  410POPC   D2A10444  34.886  41.720   8.457
  410POPC   C3A10445  34.751  41.603   8.059
  410POPC   C4A10446  34.559  41.606   7.629
  410POPC   C1B10447  34.873  41.232   8.818
  410POPC   C2B10448  34.737  41.227   8.417
  410POPC   C3B10449  34.883  41.137   7.993
  410POPC   C4B10450  35.029  41.427   7.661
  411POPC   NC310451  25.900   8.376   9.665
  411POPC   PO410452  25.291   8.508   9.638
  411POPC   GL110453  25.324   8.385   9.213
  411POPC   GL210454  25.604   8.571   9.174
  411POPC   C1A10455  25.304   8.195   8.784
  411POPC   D2A10456  25.220   8.384   8.356
  411POPC   C3A10457  25.269   8.177   7.951
  411POPC   C4A10458  25.254   8.225   7.498
  411POPC   C1B10459  25.409   8.688   8.749
  411POPC   C2B10460  25.465   8.839   8.288
  411POPC   C3B10461  25.349   8.697   7.896
  411POPC   C4B10462  25.656   8.450   7.747
  412POPC   NC310463  12.806  19.434   9.552
  412POPC   PO410464  13.060  20.071   9.363
  412POPC   GL110465  12.855  19.774   9.086
  412POPC   GL210466  12.587  19.583   9.140
  412POPC   C1A10467  12.786  19.591   8.670
  412POPC   D2A10468  12.974  19.736   8.312
  412POPC   C3A10469  12.921  19.644   7.909
  412POPC   C4A10470  12.999  19.991   7.660
  412POPC   C1B10471  12.369  19.815   8.859
  412POPC   C2B10472  12.417  19.910   8.465
  412POPC   C3B10473  12.521  19.896   8.070
  412POPC   C4B10474  12.494  20.073   7.694
  413POPC   NC310475  28.058  28.855   9.282
  413POPC   PO410476  28.639  29.171   9.455
  413POPC   GL110477  28.435  29.114   9.038
  413POPC   GL210478  28.300  29.458   8.883
  413POPC   C1A10479  28.330  28.985   8.612
  413POPC   D2A10480  28.212  29.171   8.200
  413POPC   C3A10481  28.421  29.025   7.819
  413POPC   C4A10482  28.527  29.196   7.413
  413POPC   C1B10483  27.908  29.268   8.657
  413POPC   C2B10484  27.829  28.914   8.363
  413POPC   C3B10485  27.913  28.868   7.886
  413POPC   C4B10486  28.004  29.213   7.579
  414POPC   NC310487  14.134  41.477   9.531
  414POPC   PO410488  14.576  41.303   9.890
  414POPC   GL110489  14.582  41.417   9.352
  414POPC   GL210490  14.865  41.603   9.218
  414POPC   C1A10491  14.457  41.355   8.896
  414POPC   D2A10492  14.064  41.358   8.617
  414POPC   C3A10493  14.029  41.694   8.274
  414POPC   C4A10494  14.212  41.708   7.856
  414POPC   C1B10495  14.773  41.796   8.836
  414POPC   C2B10496  14.845  41.576   8.452
  414POPC   C3B10497  14.749  41.692   8.025
  414POPC   C4B10498  14.792  41.493   7.644
  415POPC   NC310499  41.442  24.895   9.512
  415POPC   PO410500  41.634  25.588   9.496
  415POPC   GL110501  41.473  25.335   9.160
  415POPC   GL210502  41.799  25.331   8.988
  415POPC   C1A10503  41.386  25.107   8.753
  415POPC   D2A10504  41.472  25.095   8.310
  415POPC   C3A10505  41.210  25.422   8.055
  415POPC   C4A10506  41.401  25.652   7.708
  415POPC   C1B10507  41.907  25.312   8.545
  415POPC   C2B10508  41.970  25.187   8.145
  415POPC   C3B10509  41.699  24.997   7.842
  415POPC   C4B10510  41.769  25.046   7.356
  416POPC   NC310511  11.716  40.124   9.589
  416POPC   PO410512  12.346  39.837   9.665
  416POPC   GL110513  12.247  39.895   9.169
  416POPC   GL210514  12.046  40.226   9.173
  416POPC   C1A10515  12.155  39.793   8.733
  416POPC   D2A10516  11.801  39.835   8.441
  416POPC   C3A10517  12.005  39.822   8.056
  416POPC   C4A10518  12.169  39.831   7.662
  416POPC   C1B10519  11.934  40.262   8.763
  416POPC   C2B10520  12.114  40.233   8.367
  416POPC   C3B10521  11.903  40.372   8.031
  416POPC   C4B10522  12.077  40.334   7.662
  417POPC   NC310523  18.103  12.915   9.505
  417POPC   PO410524  18.612  12.382   9.353
  417POPC   GL110525  18.323  12.650   9.128
  417POPC   GL210526  18.401  13.031   9.107
  417POPC   C1A10527  18.198  12.788   8.728
  417POPC   D2A10528  18.404  13.007   8.429
  417POPC   C3A10529  18.360  12.690   8.147
  417POPC   C4A10530  18.325  12.634   7.719
  417POPC   C1B10531  18.071  13.248   8.909
  417POPC   C2B10532  17.853  13.219   8.541
  417POPC   C3B10533  18.016  13.176   8.118
  417POPC   C4B10534  18.244  13.174   7.698
  418POPC   NC310535  17.724  39.973   9.429
  418POPC   PO410536  18.410  39.983   9.491
  418POPC   GL110537  18.141  40.071   9.116
  418POPC   GL210538  17.873  40.368   9.115
  418POPC   C1A10539  18.279  39.928   8.702
  418POPC   D2A10540  18.260  39.764   8.299
  418POPC   C3A10541  18.559  39.808   8.002
  418POPC   C4A10542  18.572  39.977   7.612
  418POPC   C1B10543  17.949  40.306   8.681
  418POPC   C2B10544  17.968  40.177   8.255
  418POPC   C3B10545  18.108  40.161   7.836
  418POPC   C4B10546  17.862  40.349   7.480
  419POPC   NC310547  21.488   0.077   9.463
  419POPC   PO410548  21.048   0.614   9.592
  419POPC   GL110549  21.212   0.478   9.216
  419POPC   GL210550  21.092   0.156   9.122
  419POPC   C1A10551  21.375   0.697   8.859
  419POPC   D2A10552  21.504   0.536   8.466
  419POPC   C3A10553  21.222   0.545   8.106
  419POPC   C4A10554  21.527   0.544   7.775
  419POPC   C1B10555  21.381   0.161   8.811
  419POPC   C2B10556  21.346   0.065   8.408
  419POPC   C3B10557  21.449   0.098   8.009
  419POPC   C4B10558  21.327  44.800   7.768
  420POPC   NC310559  16.679  44.447   9.569
  420POPC   PO410560  17.114  44.899   9.295
  420POPC   GL110561  16.804  44.699   9.133
  420POPC   GL210562  16.957  44.398   9.072
  420POPC   C1A10563  16.675  44.656   8.713
  420POPC   D2A10564  16.499  44.696   8.332
  420POPC   C3A10565  16.740  44.716   7.939
  420POPC   C4A10566  16.592  44.615   7.511
  420POPC   C1B10567  16.873  44.188   8.707
  420POPC   C2B10568  16.908  44.360   8.298
  420POPC   C3B10569  17.131  44.388   7.915
  420POPC   C4B10570  17.064  44.477   7.476
  421POPC   NC310571  18.973  33.410   9.733
  421POPC   PO410572  18.843  32.760   9.471
  421POPC   GL110573  19.022  32.684   9.100
  421POPC   GL210574  19.339  32.678   9.108
  421POPC   C1A10575  19.000  32.888   8.708
  421POPC   D2A10576  19.164  33.171   8.381
  421POPC   C3A10577  19.032  33.011   7.991
  421POPC   C4A10578  18.833  33.130   7.596
  421POPC   C1B10579  19.364  32.492   8.718
  421POPC   C2B10580  19.304  32.679   8.322
  421POPC   C3B10581  19.463  32.653   7.922
  421POPC   C4B10582  19.311  32.870   7.565
  422POPC   NC310583  10.152  37.143   9.285
  422POPC   PO410584  10.497  36.828   9.781
  422POPC   GL110585  10.558  36.747   9.290
  422POPC   GL210586  10.231  36.621   9.193
  422POPC   C1A10587  10.583  36.889   8.799
  422POPC   D2A10588  10.802  36.999   8.367
  422POPC   C3A10589  10.617  37.114   7.954
  422POPC   C4A10590  10.619  36.923   7.550
  422POPC   C1B10591  10.118  36.604   8.748
  422POPC   C2B10592  10.328  36.743   8.358
  422POPC   C3B10593  10.270  36.738   7.924
  422POPC   C4B10594  10.215  36.361   7.760
  423POPC   NC310595  38.274  28.143   9.330
  423POPC   PO410596  38.646  27.624   9.540
  423POPC   GL110597  38.335  27.585   9.145
  423POPC   GL210598  38.254  27.864   8.924
  423POPC   C1A10599  38.202  27.403   8.709
  423POPC   D2A10600  38.190  27.602   8.270
  423POPC   C3A10601  38.591  27.536   8.039
  423POPC   C4A10602  38.765  27.325   7.668
  423POPC   C1B10603  38.555  27.813   8.633
  423POPC   C2B10604  38.477  28.031   8.255
  423POPC   C3B10605  38.338  27.943   7.852
  423POPC   C4B10606  38.720  27.914   7.694
  424POPC   NC310607   8.801  33.589   9.459
  424POPC   PO410608   9.252  34.035   9.473
  424POPC   GL110609   8.993  33.915   9.129
  424POPC   GL210610   8.595  33.932   9.133
  424POPC   C1A10611   8.864  33.609   8.794
  424POPC   D2A10612   8.621  33.697   8.419
  424POPC   C3A10613   8.850  33.651   8.059
  424POPC   C4A10614   9.110  33.877   7.809
  424POPC   C1B10615   8.753  34.099   8.736
  424POPC   C2B10616   8.805  34.375   8.440
  424POPC   C3B10617   8.759  34.175   8.055
  424POPC   C4B10618   8.646  34.005   7.650
  425POPC   NC310619  36.806   8.483   9.521
  425POPC   PO410620  37.251   7.975   9.424
  425POPC   GL110621  37.103   8.279   9.147
  425POPC   GL210622  36.758   8.240   9.019
  425POPC   C1A10623  37.148   8.376   8.731
  425POPC   D2A10624  36.819   8.384   8.481
  425POPC   C3A10625  36.902   8.396   8.090
  425POPC   C4A10626  36.621   8.321   7.754
  425POPC   C1B10627  36.945   7.917   8.662
  425POPC   C2B10628  37.079   7.929   8.178
  425POPC   C3B10629  37.060   8.076   7.676
  425POPC   C4B10630  37.200   7.957   7.218
  426POPC   NC310631  19.275  26.432   9.553
  426POPC   PO410632  19.010  27.097   9.537
  426POPC   GL110633  19.165  26.796   9.196
  426POPC   GL210634  19.023  26.431   9.118
  426POPC   C1A10635  19.059  26.787   8.750
  426POPC   D2A10636  18.974  27.036   8.386
  426POPC   C3A10637  19.072  26.808   8.002
  426POPC   C4A10638  18.873  26.781   7.623
  426POPC   C1B10639  19.365  26.375   8.810
  426POPC   C2B10640  19.336  26.533   8.392
  426POPC   C3B10641  19.331  26.367   7.989
  426POPC   C4B10642  19.272  26.477   7.592
  427POPC   NC310643  31.864   3.350   9.445
  427POPC   PO410644  31.264   3.771   9.638
  427POPC   GL110645  31.435   3.556   9.271
  427POPC   GL210646  31.302   3.200   9.302
  427POPC   C1A10647  31.585   3.632   8.818
  427POPC   D2A10648  31.704   4.004   8.537
  427POPC   C3A10649  31.702   3.950   8.080
  427POPC   C4A10650  31.549   3.751   7.691
  427POPC   C1B10651  31.361   3.115   8.862
  427POPC   C2B10652  31.497   3.272   8.460
  427POPC   C3B10653  31.365   3.430   8.064
  427POPC   C4B10654  31.324   3.152   7.709
  428POPC   NC310655  36.622  12.878   9.519
  428POPC   PO410656  37.177  12.694   9.263
  428POPC   GL110657  37.070  12.716   8.916
  428POPC   GL210658  36.804  12.962   9.010
  428POPC   C1A10659  37.071  12.773   8.512
  428POPC   D2A10660  36.806  13.103   8.495
  428POPC   C3A10661  36.779  13.096   8.116
  428POPC   C4A10662  36.844  12.992   7.701
  428POPC   C1B10663  36.587  12.693   8.730
  428POPC   C2B10664  36.595  12.610   8.336
  428POPC   C3B10665  36.861  12.570   8.032
  428POPC   C4B10666  36.647  12.375   7.722
  429POPC   NC310667  14.306  40.285   9.446
  429POPC   PO410668  14.581  39.671   9.342
  429POPC   GL110669  14.418  39.935   9.082
  429POPC   GL210670  14.574  40.265   9.006
  429POPC   C1A10671  14.424  39.845   8.694
  429POPC   D2A10672  14.495  40.077   8.402
  429POPC   C3A10673  14.408  39.818   8.081
  429POPC   C4A10674  14.607  39.831   7.721
  429POPC   C1B10675  14.203  40.339   8.754
  429POPC   C2B10676  14.203  40.515   8.336
  429POPC   C3B10677  14.399  40.331   7.961
  429POPC   C4B10678  14.135  40.062   7.724
  430POPC   NC310679  13.867  30.168   9.490
  430POPC   PO410680  14.442  29.823   9.661
  430POPC   GL110681  14.234  29.847   9.226
  430POPC   GL210682  14.086  30.145   9.043
  430POPC   C1A10683  14.295  29.759   8.765
  430POPC   D2A10684  14.253  29.937   8.329
  430POPC   C3A10685  14.305  29.786   7.890
  430POPC   C4A10686  14.249  29.953   7.459
  430POPC   C1B10687  14.316  30.315   8.712
  430POPC   C2B10688  14.237  30.454   8.314
  430POPC   C3B10689  14.249  30.293   7.924
  430POPC   C4B10690  14.406  30.428   7.564
  431POPC   NC310691  12.444  22.467   9.296
  431POPC   PO410692  12.138  23.014   9.638
  431POPC   GL110693  12.162  22.883   9.202
  431POPC   GL210694  12.082  23.190   9.092
  431POPC   C1A10695  12.066  22.734   8.764
  431POPC   D2A10696  12.185  22.950   8.384
  431POPC   C3A10697  12.276  22.693   8.071
  431POPC   C4A10698  12.032  22.723   7.734
  431POPC   C1B10699  11.729  23.122   8.796
  431POPC   C2B10700  11.686  22.946   8.443
  431POPC   C3B10701  11.786  23.040   8.042
  431POPC   C4B10702  11.714  23.155   7.590
  432POPC   NC310703  43.479  30.442   9.931
  432POPC   PO410704  42.943  30.472   9.509
  432POPC   GL110705  43.086  30.654   9.146
  432POPC   GL210706  43.401  30.490   9.075
  432POPC   C1A10707  42.893  30.928   8.849
  432POPC   D2A10708  42.955  31.014   8.448
  432POPC   C3A10709  42.850  30.695   8.156
  432POPC   C4A10710  42.715  30.819   7.773
  432POPC   C1B10711  43.390  30.808   8.732
  432POPC   C2B10712  43.343  30.696   8.295
  432POPC   C3B10713  43.283  30.773   7.859
  432POPC   C4B10714  43.583  30.869   7.509
  433POPC   NC310715  34.622  21.813   9.571
  433POPC   PO410716  34.376  22.446   9.402
  433POPC   GL110717  34.666  22.230   9.155
  433POPC   GL210718  34.465  21.950   9.117
  433POPC   C1A10719  34.596  22.257   8.715
  433POPC   D2A10720  34.297  22.183   8.361
  433POPC   C3A10721  34.521  22.272   7.979
  433POPC   C4A10722  34.809  22.584   7.752
  433POPC   C1B10723  34.296  21.813   8.736
  433POPC   C2B10724  34.198  21.685   8.328
  433POPC   C3B10725  34.139  21.870   7.919
  433POPC   C4B10726  34.423  21.980   7.584
  434POPC   NC310727  39.354  33.228   9.443
  434POPC   PO410728  39.243  33.924   9.458
  434POPC   GL110729  39.184  33.727   9.134
  434POPC   GL210730  39.485  33.597   9.104
  434POPC   C1A10731  39.321  33.885   8.740
  434POPC   D2A10732  39.145  34.046   8.375
  434POPC   C3A10733  39.378  33.971   8.022
  434POPC   C4A10734  38.998  33.927   7.790
  434POPC   C1B10735  39.627  33.428   8.726
  434POPC   C2B10736  39.612  33.623   8.354
  434POPC   C3B10737  39.606  33.506   7.936
  434POPC   C4B10738  39.522  33.586   7.507
  435POPC   NC310739  35.786  35.769   9.322
  435POPC   PO410740  36.201  36.203   9.602
  435POPC   GL110741  36.096  36.325   9.140
  435POPC   GL210742  35.923  36.627   9.053
  435POPC   C1A10743  36.208  36.279   8.693
  435POPC   D2A10744  36.154  35.882   8.419
  435POPC   C3A10745  36.013  35.889   7.953
  435POPC   C4A10746  36.084  36.005   7.503
  435POPC   C1B10747  35.926  36.696   8.602
  435POPC   C2B10748  36.176  36.569   8.240
  435POPC   C3B10749  36.149  36.399   7.827
  435POPC   C4B10750  35.831  36.432   7.524
  436POPC   NC310751  21.194  15.956   9.504
  436POPC   PO410752  21.649  15.496   9.672
  436POPC   GL110753  21.457  15.562   9.256
  436POPC   GL210754  21.139  15.550   9.195
  436POPC   C1A10755  21.438  15.632   8.787
  436POPC   D2A10756  21.610  15.894   8.442
  436POPC   C3A10757  21.400  15.936   8.074
  436POPC   C4A10758  21.235  16.273   7.838
  436POPC   C1B10759  20.911  15.703   8.865
  436POPC   C2B10760  21.039  15.836   8.467
  436POPC   C3B10761  20.879  15.866   8.080
  436POPC   C4B10762  21.073  15.824   7.687
  437POPC   NC310763  13.959  27.707   9.527
  437POPC   PO410764  13.298  27.648   9.598
  437POPC   GL110765  13.584  27.651   9.175
  437POPC   GL210766  13.877  27.409   9.116
  437POPC   C1A10767  13.602  27.571   8.710
  437POPC   D2A10768  13.861  27.524   8.371
  437POPC   C3A10769  13.633  27.607   7.993
  437POPC   C4A10770  13.421  27.554   7.530
  437POPC   C1B10771  14.030  27.202   8.757
  437POPC   C2B10772  13.973  26.973   8.381
  437POPC   C3B10773  13.933  27.197   8.000
  437POPC   C4B10774  13.912  27.431   7.627
  438POPC   NC310775  36.647  27.567   9.347
  438POPC   PO410776  37.141  27.875   9.587
  438POPC   GL110777  37.178  27.828   9.136
  438POPC   GL210778  37.399  28.115   9.060
  438POPC   C1A10779  36.941  27.632   8.745
  438POPC   D2A10780  36.819  27.340   8.372
  438POPC   C3A10781  36.686  27.471   7.947
  438POPC   C4A10782  36.936  27.458   7.559
  438POPC   C1B10783  37.411  28.016   8.666
  438POPC   C2B10784  37.151  27.893   8.368
  438POPC   C3B10785  37.145  27.661   8.014
  438POPC   C4B10786  37.428  27.612   7.688
  439POPC   NC310787  17.096  29.616   9.663
  439POPC   PO410788  17.347  28.976   9.577
  439POPC   GL110789  17.357  29.102   9.178
  439POPC   GL210790  17.098  28.888   9.074
  439POPC   C1A10791  17.502  29.243   8.777
  439POPC   D2A10792  17.314  29.393   8.375
  439POPC   C3A10793  17.481  29.287   7.949
  439POPC   C4A10794  17.500  29.416   7.507
  439POPC   C1B10795  17.327  28.755   8.724
  439POPC   C2B10796  17.276  28.648   8.292
  439POPC   C3B10797  17.133  28.892   7.949
  439POPC   C4B10798  17.320  28.951   7.546
  440POPC   NC310799  16.419  11.483   9.442
  440POPC   PO410800  15.869  11.097   9.505
  440POPC   GL110801  15.759  11.362   9.120
  440POPC   GL210802  15.827  11.679   9.246
  440POPC   C1A10803  15.798  11.260   8.667
  440POPC   D2A10804  16.128  11.101   8.380
  440POPC   C3A10805  15.990  10.953   7.982
  440POPC   C4A10806  15.857  11.176   7.615
  440POPC   C1B10807  16.128  11.639   8.857
  440POPC   C2B10808  16.046  11.622   8.402
  440POPC   C3B10809  16.158  11.471   7.984
  440POPC   C4B10810  16.354  11.832   7.821
  441POPC   NC310811   8.944  30.685   9.513
  441POPC   PO410812   8.232  30.860   9.527
  441POPC   GL110813   8.234  30.830   9.111
  441POPC   GL210814   7.916  30.702   9.118
  441POPC   C1A10815   8.280  30.974   8.668
  441POPC   D2A10816   8.522  30.970   8.251
  441POPC   C3A10817   8.254  30.983   7.891
  441POPC   C4A10818   7.833  31.086   7.818
  441POPC   C1B10819   8.121  30.493   8.757
  441POPC   C2B10820   8.349  30.487   8.389
  441POPC   C3B10821   8.362  30.426   7.961
  441POPC   C4B10822   8.240  30.580   7.538
  442POPC   NC310823  13.190  12.974   9.357
  442POPC   PO410824  13.944  12.757   9.433
  442POPC   GL110825  13.711  12.786   9.094
  442POPC   GL210826  13.463  12.575   9.167
  442POPC   C1A10827  13.849  12.897   8.681
  442POPC   D2A10828  13.745  13.226   8.386
  442POPC   C3A10829  13.789  13.043   8.010
  442POPC   C4A10830  13.698  12.802   7.650
  442POPC   C1B10831  13.309  12.702   8.743
  442POPC   C2B10832  13.479  12.792   8.342
  442POPC   C3B10833  13.290  12.957   7.968
  442POPC   C4B10834  13.254  12.577   7.821
  443POPC   NC310835  30.799   0.853   9.398
  443POPC   PO410836  31.018   1.516   9.552
  443POPC   GL110837  30.733   1.317   9.206
  443POPC   GL210838  30.361   1.324   9.310
  443POPC   C1A10839  30.726   1.038   8.770
  443POPC   D2A10840  30.866   1.192   8.344
  443POPC   C3A10841  30.623   1.151   7.947
  443POPC   C4A10842  30.603   1.048   7.483
  443POPC   C1B10843  30.343   1.342   8.853
  443POPC   C2B10844  30.361   1.295   8.394
  443POPC   C3B10845  30.170   1.375   7.965
  443POPC   C4B10846  30.096   1.162   7.577
  444POPC   NC310847  20.047  29.714   9.812
  444POPC   PO410848  19.395  30.030   9.592
  444POPC   GL110849  19.708  30.180   9.272
  444POPC   GL210850  19.684  29.862   9.149
  444POPC   C1A10851  19.922  30.216   8.841
  444POPC   D2A10852  19.824  30.045   8.432
  444POPC   C3A10853  19.994  30.020   8.027
  444POPC   C4A10854  19.919  30.265   7.652
  444POPC   C1B10855  19.814  29.667   8.775
  444POPC   C2B10856  19.931  29.561   8.372
  444POPC   C3B10857  19.757  29.582   8.000
  444POPC   C4B10858  20.124  29.510   7.801
  445POPC   NC310859  15.330  34.255   9.786
  445POPC   PO410860  15.364  34.902   9.505
  445POPC   GL110861  15.196  34.722   9.195
  445POPC   GL210862  15.066  34.421   9.355
  445POPC   C1A10863  15.261  34.782   8.787
  445POPC   D2A10864  15.438  34.503   8.527
  445POPC   C3A10865  15.247  34.503   8.150
  445POPC   C4A10866  15.186  34.759   7.823
  445POPC   C1B10867  15.064  34.310   8.924
  445POPC   C2B10868  14.925  34.342   8.528
  445POPC   C3B10869  14.875  34.139   8.146
  445POPC   C4B10870  15.040  34.250   7.733
  446POPC   NC310871  17.186  40.683   9.677
  446POPC   PO410872  17.749  41.110   9.624
  446POPC   GL110873  17.707  41.044   9.187
  446POPC   GL210874  17.494  40.764   9.182
  446POPC   C1A10875  17.546  41.129   8.758
  446POPC   D2A10876  17.808  41.094   8.391
  446POPC   C3A10877  17.622  41.069   7.999
  446POPC   C4A10878  17.473  40.919   7.611
  446POPC   C1B10879  17.529  40.612   8.780
  446POPC   C2B10880  17.659  40.604   8.373
  446POPC   C3B10881  17.685  40.518   7.967
  446POPC   C4B10882  17.414  40.417   7.697
  447POPC   NC310883   5.727  21.536   9.525
  447POPC   PO410884   6.203  21.002   9.499
  447POPC   GL110885   5.913  21.206   9.159
  447POPC   GL210886   5.938  21.605   9.090
  447POPC   C1A10887   6.027  21.319   8.715
  447POPC   D2A10888   5.780  21.457   8.395
  447POPC   C3A10889   5.747  21.236   7.996
  447POPC   C4A10890   5.991  21.260   7.633
  447POPC   C1B10891   5.542  21.549   8.866
  447POPC   C2B10892   5.289  21.643   8.498
  447POPC   C3B10893   5.377  21.579   8.068
  447POPC   C4B10894   5.604  21.617   7.686
  448POPC   NC310895  20.287  27.193   9.337
  448POPC   PO410896  20.438  26.610   9.564
  448POPC   GL110897  20.629  26.724   9.155
  448POPC   GL210898  20.641  27.072   9.009
  448POPC   C1A10899  20.810  26.710   8.724
  448POPC   D2A10900  20.661  26.963   8.422
  448POPC   C3A10901  20.860  26.988   8.032
  448POPC   C4A10902  20.917  26.765   7.683
  448POPC   C1B10903  20.281  26.863   8.781
  448POPC   C2B10904  20.120  26.940   8.377
  448POPC   C3B10905  20.356  26.865   8.028
  448POPC   C4B10906  20.486  27.033   7.669
  449POPC   NC310907  42.998  29.302   9.442
  449POPC   PO410908  43.442  28.767   9.464
  449POPC   GL110909  43.315  29.049   9.135
  449POPC   GL210910  43.000  28.888   9.109
  449POPC   C1A10911  43.248  29.351   8.778
  449POPC   D2A10912  43.293  29.181   8.402
  449POPC   C3A10913  43.400  29.357   8.041
  449POPC   C4A10914  43.094  29.393   7.742
  449POPC   C1B10915  42.873  29.025   8.724
  449POPC   C2B10916  42.736  29.146   8.310
  449POPC   C3B10917  42.792  28.926   7.924
  449POPC   C4B10918  43.055  28.793   7.575
  450POPC   NC310919  36.106  15.670   9.583
  450POPC   PO410920  36.305  16.319   9.513
  450POPC   GL110921  36.317  15.950   9.203
  450POPC   GL210922  35.996  15.845   9.108
  450POPC   C1A10923  36.374  15.727   8.777
  450POPC   D2A10924  36.160  15.763   8.367
  450POPC   C3A10925  36.161  15.652   7.928
  450POPC   C4A10926  36.273  15.859   7.533
  450POPC   C1B10927  36.065  16.163   8.768
  450POPC   C2B10928  35.864  16.176   8.359
  450POPC   C3B10929  36.092  16.168   7.975
  450POPC   C4B10930  35.870  16.200   7.589
  451POPC   NC310931   4.264  18.356   9.549
  451POPC   PO410932   4.819  17.938   9.409
  451POPC   GL110933   4.507  18.170   9.156
  451POPC   GL210934   4.111  18.106   9.138
  451POPC   C1A10935   4.476  18.420   8.790
  451POPC   D2A10936   4.723  18.458   8.396
  451POPC   C3A10937   4.546  18.502   7.965
  451POPC   C4A10938   4.573  18.344   7.561
  451POPC   C1B10939   3.964  18.367   8.788
  451POPC   C2B10940   3.770  18.296   8.390
  451POPC   C3B10941   4.005  18.399   8.016
  451POPC   C4B10942   4.093  18.507   7.598
  452POPC   NC310943   2.425  31.211   9.240
  452POPC   PO410944   2.727  31.845   9.474
  452POPC   GL110945   2.664  31.614   9.097
  452POPC   GL210946   2.891  31.298   9.070
  452POPC   C1A10947   2.634  31.478   8.668
  452POPC   D2A10948   2.458  31.655   8.300
  452POPC   C3A10949   2.578  31.500   7.915
  452POPC   C4A10950   2.614  31.671   7.529
  452POPC   C1B10951   3.127  31.621   8.857
  452POPC   C2B10952   3.083  31.755   8.445
  452POPC   C3B10953   3.053  31.532   8.091
  452POPC   C4B10954   3.002  31.309   7.709
  453POPC   NC310955  14.935  39.044   9.344
  453POPC   PO410956  15.419  39.534   9.538
  453POPC   GL110957  15.229  39.416   9.142
  453POPC   GL210958  15.299  39.059   8.980
  453POPC   C1A10959  15.084  39.450   8.733
  453POPC   D2A10960  15.230  39.334   8.336
  453POPC   C3A10961  15.122  39.611   8.001
  453POPC   C4A10962  15.077  39.622   7.580
  453POPC   C1B10963  14.930  38.967   8.651
  453POPC   C2B10964  14.885  38.993   8.185
  453POPC   C3B10965  15.069  39.147   7.792
  453POPC   C4B10966  15.019  39.133   7.334
  454POPC   NC310967  43.875  28.637   9.556
  454POPC   PO410968  43.641  28.078   9.569
  454POPC   GL110969  43.774  28.274   9.192
  454POPC   GL210970  44.118  28.271   9.275
  454POPC   C1A10971  43.689  28.394   8.757
  454POPC   D2A10972  43.475  28.405   8.348
  454POPC   C3A10973  43.781  28.543   8.091
  454POPC   C4A10974  43.903  28.633   7.700
  454POPC   C1B10975  44.171  28.528   8.911
  454POPC   C2B10976  44.109  28.501   8.471
  454POPC   C3B10977  44.275  28.428   8.036
  454POPC   C4B10978  44.408  28.766   7.754
  455POPC   NC310979  31.291   6.357   9.248
  455POPC   PO410980  31.470   7.003   9.482
  455POPC   GL110981  31.540   6.892   9.088
  455POPC   GL210982  31.869   7.081   9.062
  455POPC   C1A10983  31.252   6.865   8.734
  455POPC   D2A10984  31.336   7.018   8.325
  455POPC   C3A10985  31.314   6.662   8.024
  455POPC   C4A10986  31.238   6.625   7.582
  455POPC   C1B10987  31.768   6.909   8.636
  455POPC   C2B10988  31.580   6.526   8.458
  455POPC   C3B10989  31.760   6.331   8.105
  455POPC   C4B10990  31.749   6.589   7.734
  456POPC   NC310991  23.626   9.760   9.652
  456POPC   PO410992  23.762  10.401   9.622
  456POPC   GL110993  23.585  10.122   9.296
  456POPC   GL210994  23.897   9.931   9.258
  456POPC   C1A10995  23.530   9.922   8.889
  456POPC   D2A10996  23.745   9.720   8.500
  456POPC   C3A10997  23.491   9.736   8.133
  456POPC   C4A10998  23.445   9.901   7.739
  456POPC   C1B10999  24.030   9.992   8.825
  456POPC   C2B11000  24.158  10.063   8.390
  456POPC   C3B11001  23.952   9.909   7.992
  456POPC   C4B11002  23.920   9.803   7.527
  457POPC   NC311003  21.053  13.441   9.440
  457POPC   PO411004  21.720  13.330   9.457
  457POPC   GL111005  21.468  13.442   9.135
  457POPC   GL211006  21.304  13.760   9.106
  457POPC   C1A11007  21.202  13.371   8.782
  457POPC   D2A11008  21.241  13.671   8.494
  457POPC   C3A11009  21.137  13.643   8.093
  457POPC   C4A11010  21.369  13.650   7.739
  457POPC   C1B11011  21.616  13.836   8.788
  457POPC   C2B11012  21.613  14.001   8.347
  457POPC   C3B11013  21.768  13.905   7.933
  457POPC   C4B11014  21.611  14.013   7.466
  458POPC   NC311015  18.336   7.096   9.583
  458POPC   PO411016  18.035   7.644   9.558
  458POPC   GL111017  18.158   7.401   9.197
  458POPC   GL211018  17.920   7.134   9.289
  458POPC   C1A11019  18.243   7.361   8.754
  458POPC   D2A11020  18.296   7.255   8.313
  458POPC   C3A11021  18.474   7.584   8.030
  458POPC   C4A11022  18.507   7.297   7.727
  458POPC   C1B11023  17.902   7.011   8.887
  458POPC   C2B11024  17.922   6.891   8.446
  458POPC   C3B11025  17.786   7.108   8.096
  458POPC   C4B11026  18.005   7.424   7.833
  459POPC   NC311027  31.261  11.791   9.550
  459POPC   PO411028  31.493  12.410   9.620
  459POPC   GL111029  31.549  12.128   9.269
  459POPC   GL211030  31.251  12.123   9.158
  459POPC   C1A11031  31.708  12.030   8.845
  459POPC   D2A11032  31.566  11.859   8.419
  459POPC   C3A11033  31.720  11.932   8.010
  459POPC   C4A11034  31.471  11.901   7.630
  459POPC   C1B11035  31.198  11.907   8.782
  459POPC   C2B11036  31.186  12.171   8.401
  459POPC   C3B11037  31.285  12.225   7.971
  459POPC   C4B11038  31.142  12.576   7.726
  460POPC   NC311039  13.635  40.429   9.644
  460POPC   PO411040  14.056  41.027   9.530
  460POPC   GL111041  13.894  40.972   9.053
  460POPC   GL211042  13.566  40.770   9.051
  460POPC   C1A11043  13.760  40.927   8.607
  460POPC   D2A11044  13.695  40.645   8.246
  460POPC   C3A11045  13.730  40.838   7.825
  460POPC   C4A11046  13.987  41.059   7.512
  460POPC   C1B11047  13.358  40.606   8.717
  460POPC   C2B11048  13.163  40.469   8.326
  460POPC   C3B11049  13.288  40.582   7.902
  460POPC   C4B11050  13.340  40.766   7.463
  461POPC   NC311051  20.156  36.213   9.573
  461POPC   PO411052  19.674  35.953   9.704
  461POPC   GL111053  19.703  36.236   9.276
  461POPC   GL211054  20.005  36.370   9.095
  461POPC   C1A11055  19.564  36.219   8.817
  461POPC   D2A11056  19.549  36.017   8.385
  461POPC   C3A11057  19.593  36.210   7.966
  461POPC   C4A11058  19.705  36.171   7.510
  461POPC   C1B11059  20.055  36.177   8.675
  461POPC   C2B11060  20.044  36.068   8.228
  461POPC   C3B11061  20.084  36.273   7.853
  461POPC   C4B11062  20.239  36.183   7.457
  462POPC   NC311063  13.948   2.716   9.439
  462POPC   PO411064  13.403   3.081   9.482
  462POPC   GL111065  13.618   2.932   9.117
  462POPC   GL211066  13.927   3.130   9.137
  462POPC   C1A11067  13.626   2.718   8.708
  462POPC   D2A11068  13.616   2.584   8.278
  462POPC   C3A11069  13.419   2.745   7.914
  462POPC   C4A11070  13.593   2.514   7.630
  462POPC   C1B11071  13.985   3.084   8.700
  462POPC   C2B11072  14.059   2.864   8.304
  462POPC   C3B11073  13.868   2.944   7.913
  462POPC   C4B11074  13.998   3.007   7.473
  463POPC   NC311075   6.450  33.272   9.517
  463POPC   PO411076   6.887  33.740   9.359
  463POPC   GL111077   6.746  33.758   8.959
  463POPC   GL211078   6.432  33.596   9.102
  463POPC   C1A11079   6.920  33.999   8.580
  463POPC   D2A11080   6.725  34.064   8.189
  463POPC   C3A11081   6.810  33.933   7.769
  463POPC   C4A11082   6.952  33.540   7.615
  463POPC   C1B11083   6.323  33.488   8.690
  463POPC   C2B11084   6.654  33.595   8.435
  463POPC   C3B11085   6.651  33.538   8.047
  463POPC   C4B11086   6.437  33.553   7.711
  464POPC   NC311087  39.856  19.043   9.527
  464POPC   PO411088  40.520  18.802   9.577
  464POPC   GL111089  40.351  18.841   9.128
  464POPC   GL211090  40.205  19.166   9.096
  464POPC   C1A11091  40.175  18.953   8.658
  464POPC   D2A11092  39.793  18.883   8.379
  464POPC   C3A11093  39.864  18.840   7.918
  464POPC   C4A11094  40.080  19.025   7.527
  464POPC   C1B11095  39.819  19.292   8.865
  464POPC   C2B11096  39.713  19.411   8.453
  464POPC   C3B11097  39.914  19.336   8.056
  464POPC   C4B11098  39.870  19.464   7.647
  465POPC   NC311099  39.930  20.783   9.617
  465POPC   PO411100  39.514  20.213   9.675
  465POPC   GL111101  39.737  20.521   9.250
  465POPC   GL211102  39.759  20.891   9.161
  465POPC   C1A11103  40.029  20.415   8.870
  465POPC   D2A11104  40.212  20.562   8.497
  465POPC   C3A11105  40.146  20.367   8.112
  465POPC   C4A11106  40.057  20.499   7.716
  465POPC   C1B11107  39.944  20.922   8.760
  465POPC   C2B11108  39.774  20.796   8.356
  465POPC   C3B11109  40.004  20.898   8.037
  465POPC   C4B11110  40.042  21.023   7.639
  466POPC   NC311111   9.596  15.867   9.613
  466POPC   PO411112   9.575  16.240   9.095
  466POPC   GL111113   9.834  15.849   9.055
  466POPC   GL211114   9.784  15.530   9.255
  466POPC   C1A11115   9.939  15.718   8.645
  466POPC   D2A11116  10.118  15.892   8.256
  466POPC   C3A11117   9.872  16.039   7.878
  466POPC   C4A11118   9.705  16.125   7.443
  466POPC   C1B11119   9.578  15.398   8.870
  466POPC   C2B11120   9.601  15.392   8.412
  466POPC   C3B11121   9.799  15.522   8.031
  466POPC   C4B11122   9.679  15.646   7.607
  467POPC   NC311123  34.459  12.542   9.242
  467POPC   PO411124  34.580  11.925   9.358
  467POPC   GL111125  34.580  11.904   8.938
  467POPC   GL211126  34.315  12.146   8.964
  467POPC   C1A11127  34.840  11.963   8.561
  467POPC   D2A11128  34.872  12.354   8.296
  467POPC   C3A11129  34.773  12.228   7.879
  467POPC   C4A11130  34.447  11.984   7.677
  467POPC   C1B11131  34.418  12.255   8.582
  467POPC   C2B11132  34.382  12.100   8.200
  467POPC   C3B11133  34.289  12.413   7.954
  467POPC   C4B11134  34.018  12.569   7.659
  468POPC   NC311135   6.196  32.054   9.618
  468POPC   PO411136   6.833  32.114   9.614
  468POPC   GL111137   6.789  32.226   9.165
  468POPC   GL211138   6.436  32.290   9.189
  468POPC   C1A11139   6.670  32.110   8.747
  468POPC   D2A11140   6.596  32.295   8.377
  468POPC   C3A11141   6.931  32.193   8.155
  468POPC   C4A11142   6.825  32.021   7.795
  468POPC   C1B11143   6.184  32.212   8.815
  468POPC   C2B11144   6.163  31.997   8.433
  468POPC   C3B11145   6.360  31.954   8.059
  468POPC   C4B11146   6.356  32.156   7.707
  469POPC   NC311147   3.974   5.231   9.728
  469POPC   PO411148   4.364   4.824   9.588
  469POPC   GL111149   4.330   5.045   9.196
  469POPC   GL211150   4.163   5.394   9.250
  469POPC   C1A11151   4.408   4.985   8.741
  469POPC   D2A11152   4.177   5.184   8.397
  469POPC   C3A11153   4.272   5.045   7.975
  469POPC   C4A11154   4.228   5.043   7.529
  469POPC   C1B11155   4.339   5.491   8.846
  469POPC   C2B11156   4.486   5.595   8.442
  469POPC   C3B11157   4.302   5.595   8.040
  469POPC   C4B11158   4.447   5.544   7.622
  470POPC   NC311159  17.313   5.204   9.564
  470POPC   PO411160  17.329   4.576   9.442
  470POPC   GL111161  17.549   4.882   9.139
  470POPC   GL211162  17.531   5.268   9.116
  470POPC   C1A11163  17.716   5.018   8.721
  470POPC   D2A11164  17.912   5.052   8.257
  470POPC   C3A11165  17.623   5.143   7.878
  470POPC   C4A11166  17.273   4.848   7.778
  470POPC   C1B11167  17.243   5.184   8.767
  470POPC   C2B11168  17.360   5.094   8.310
  470POPC   C3B11169  17.123   5.301   7.932
  470POPC   C4B11170  16.979   5.261   7.462
  471POPC   NC311171  27.213   3.617   9.538
  471POPC   PO411172  27.822   3.333   9.725
  471POPC   GL111173  27.792   3.702   9.314
  471POPC   GL211174  27.444   3.708   9.098
  471POPC   C1A11175  27.832   3.737   8.788
  471POPC   D2A11176  27.804   3.489   8.401
  471POPC   C3A11177  27.766   3.705   8.009
  471POPC   C4A11178  27.552   3.879   7.654
  471POPC   C1B11179  27.349   3.629   8.628
  471POPC   C2B11180  27.284   3.609   8.148
  471POPC   C3B11181  27.350   3.370   7.727
  471POPC   C4B11182  27.149   3.079   7.379
  472POPC   NC311183  18.082  34.878   9.574
  472POPC   PO411184  18.246  34.237   9.718
  472POPC   GL111185  18.056  34.445   9.317
  472POPC   GL211186  18.364  34.582   9.212
  472POPC   C1A11187  18.036  34.751   8.893
  472POPC   D2A11188  18.314  34.859   8.545
  472POPC   C3A11189  18.254  34.670   8.149
  472POPC   C4A11190  18.234  34.639   7.690
  472POPC   C1B11191  18.525  34.438   8.785
  472POPC   C2B11192  18.696  34.520   8.360
  472POPC   C3B11193  18.691  34.514   7.913
  472POPC   C4B11194  18.574  34.255   7.595
  473POPC   NC311195  37.591  37.471   9.428
  473POPC   PO411196  38.142  37.816   9.588
  473POPC   GL111197  37.887  37.801   9.177
  473POPC   GL211198  37.516  37.920   9.192
  473POPC   C1A11199  37.700  37.633   8.761
  473POPC   D2A11200  37.912  37.540   8.352
  473POPC   C3A11201  37.709  37.470   7.947
  473POPC   C4A11202  37.768  37.759   7.617
  473POPC   C1B11203  37.308  38.003   8.798
  473POPC   C2B11204  37.380  38.126   8.379
  473POPC   C3B11205  37.530  37.941   8.031
  473POPC   C4B11206  37.234  37.783   7.727
  474POPC   NC311207  18.886  15.918   9.494
  474POPC   PO411208  19.534  16.098   9.506
  474POPC   GL111209  19.398  15.903   9.139
  474POPC   GL211210  19.110  15.716   9.090
  474POPC   C1A11211  19.350  15.928   8.702
  474POPC   D2A11212  19.113  16.048   8.371
  474POPC   C3A11213  19.261  15.920   7.964
  474POPC   C4A11214  19.026  16.168   7.665
  474POPC   C1B11215  18.844  15.804   8.801
  474POPC   C2B11216  18.711  15.711   8.435
  474POPC   C3B11217  18.762  15.857   8.018
  474POPC   C4B11218  18.656  15.700   7.653
  475POPC   NC311219  30.241  31.829   9.704
  475POPC   PO411220  29.816  31.414   9.828
  475POPC   GL111221  29.814  31.230   9.321
  475POPC   GL211222  29.532  31.373   9.142
  475POPC   C1A11223  29.970  31.347   8.880
  475POPC   D2A11224  29.959  31.169   8.469
  475POPC   C3A11225  30.240  31.282   8.138
  475POPC   C4A11226  30.043  31.418   7.751
  475POPC   C1B11227  29.496  31.171   8.726
  475POPC   C2B11228  29.503  31.305   8.280
  475POPC   C3B11229  29.557  31.307   7.800
  475POPC   C4B11230  29.685  31.144   7.353
  476POPC   NC311231  30.239  20.132   9.634
  476POPC   PO411232  29.901  19.514   9.532
  476POPC   GL111233  29.900  19.712   9.155
  476POPC   GL211234  30.244  19.730   9.137
  476POPC   C1A11235  29.703  19.691   8.736
  476POPC   D2A11236  29.839  19.664   8.293
  476POPC   C3A11237  29.720  20.032   7.990
  476POPC   C4A11238  29.497  20.032   7.572
  476POPC   C1B11239  30.202  19.631   8.698
  476POPC   C2B11240  30.353  19.763   8.294
  476POPC   C3B11241  30.136  19.757   7.888
  476POPC   C4B11242  29.768  19.514   7.791
  477POPC   NC311243  39.775  33.963   9.398
  477POPC   PO411244  39.801  33.306   9.340
  477POPC   GL111245  40.022  33.592   9.087
  477POPC   GL211246  40.261  33.836   9.228
  477POPC   C1A11247  39.896  33.877   8.762
  477POPC   D2A11248  40.107  34.085   8.439
  477POPC   C3A11249  39.891  33.964   8.101
  477POPC   C4A11250  39.903  33.898   7.716
  477POPC   C1B11251  40.419  33.850   8.792
  477POPC   C2B11252  40.588  33.855   8.362
  477POPC   C3B11253  40.396  33.930   7.968
  477POPC   C4B11254  40.390  33.788   7.532
  478POPC   NC311255  31.651  18.204   9.717
  478POPC   PO411256  31.565  17.545   9.421
  478POPC   GL111257  31.472  17.570   9.018
  478POPC   GL211258  31.374  17.260   8.950
  478POPC   C1A11259  31.638  17.720   8.645
  478POPC   D2A11260  31.513  17.908   8.251
  478POPC   C3A11261  31.613  17.938   7.824
  478POPC   C4A11262  31.338  17.733   7.506
  478POPC   C1B11263  31.634  17.198   8.643
  478POPC   C2B11264  31.720  17.355   8.262
  478POPC   C3B11265  31.484  17.465   7.922
  478POPC   C4B11266  31.551  17.290   7.481
  479POPC   NC311267   0.408   8.855   9.525
  479POPC   PO411268   0.071   8.357   9.114
  479POPC   GL111269   0.209   8.787   9.039
  479POPC   GL211270   0.575   8.925   9.039
  479POPC   C1A11271   0.285   8.811   8.605
  479POPC   D2A11272   0.602   8.838   8.301
  479POPC   C3A11273   0.499   8.752   7.905
  479POPC   C4A11274   0.667   8.634   7.544
  479POPC   C1B11275   0.616   9.183   8.671
  479POPC   C2B11276   0.932   9.217   8.350
  479POPC   C3B11277   0.801   9.159   7.915
  479POPC   C4B11278   0.634   9.149   7.473
  480POPC   NC311279   0.615  41.078   9.365
  480POPC   PO411280   0.715  40.449   9.490
  480POPC   GL111281   0.520  40.497   9.110
  480POPC   GL211282   0.183  40.391   9.175
  480POPC   C1A11283   0.360  40.734   8.751
  480POPC   D2A11284   0.120  40.875   8.378
  480POPC   C3A11285   0.391  40.956   8.019
  480POPC   C4A11286   0.385  40.802   7.598
  480POPC   C1B11287   0.137  40.276   8.744
  480POPC   C2B11288   0.269  40.369   8.295
  480POPC   C3B11289   0.068  40.569   7.934
  480POPC   C4B11290  44.881  41.000   7.898
  481POPC   NC311291   0.701  39.131   9.530
  481POPC   PO411292   0.195  39.595   9.492
  481POPC   GL111293   0.427  39.366   9.156
  481POPC   GL211294   0.320  38.996   9.167
  481POPC   C1A11295   0.672  39.164   8.807
  481POPC   D2A11296   0.788  39.337   8.397
  481POPC   C3A11297   0.401  39.430   8.133
  481POPC   C4A11298   0.389  39.368   7.684
  481POPC   C1B11299   0.154  39.140   8.757
  481POPC   C2B11300  44.903  39.167   8.360
  481POPC   C3B11301   0.027  39.091   7.926
  481POPC   C4B11302   0.203  38.911   7.491
  482POPC   NC311303   6.339   5.405   9.793
  482POPC   PO411304   6.760   4.953   9.414
  482POPC   GL111305   6.629   4.940   9.028
  482POPC   GL211306   6.844   5.216   8.932
  482POPC   C1A11307   6.370   5.157   8.728
  482POPC   D2A11308   6.316   5.417   8.393
  482POPC   C3A11309   6.310   5.181   8.012
  482POPC   C4A11310   6.433   5.351   7.621
  482POPC   C1B11311   6.790   4.932   8.545
  482POPC   C2B11312   6.782   5.028   8.112
  482POPC   C3B11313   6.698   4.915   7.677
  482POPC   C4B11314   6.884   4.887   7.255
  483POPC   NC311315  29.171  23.341   9.432
  483POPC   PO411316  28.775  23.808   9.466
  483POPC   GL111317  28.904  23.617   9.086
  483POPC   GL211318  28.724  23.342   9.109
  483POPC   C1A11319  29.065  23.528   8.664
  483POPC   D2A11320  29.254  23.530   8.228
  483POPC   C3A11321  29.215  23.888   7.924
  483POPC   C4A11322  29.331  24.066   7.488
  483POPC   C1B11323  28.554  23.474   8.715
  483POPC   C2B11324  28.658  23.417   8.323
  483POPC   C3B11325  28.819  23.515   7.963
  483POPC   C4B11326  28.729  23.285   7.643
  484POPC   NC311327  20.627  11.006   9.415
  484POPC   PO411328  20.477  10.239   9.484
  484POPC   GL111329  20.517  10.546   9.221
  484POPC   GL211330  20.849  10.576   9.303
  484POPC   C1A11331  20.501  10.717   8.805
  484POPC   D2A11332  20.588  10.471   8.442
  484POPC   C3A11333  20.587  10.639   8.066
  484POPC   C4A11334  20.512  10.387   7.703
  484POPC   C1B11335  21.011  10.814   8.928
  484POPC   C2B11336  20.916  10.872   8.479
  484POPC   C3B11337  21.104  10.747   8.089
  484POPC   C4B11338  20.922  10.699   7.669
  485POPC   NC311339  10.132   2.518   9.443
  485POPC   PO411340   9.649   2.918   9.612
  485POPC   GL111341   9.612   2.785   9.156
  485POPC   GL211342   9.438   2.495   9.230
  485POPC   C1A11343   9.819   2.900   8.695
  485POPC   D2A11344   9.986   2.637   8.356
  485POPC   C3A11345  10.052   2.810   7.946
  485POPC   C4A11346   9.793   2.741   7.626
  485POPC   C1B11347   9.702   2.425   8.812
  485POPC   C2B11348   9.702   2.221   8.372
  485POPC   C3B11349   9.853   2.287   7.901
  485POPC   C4B11350   9.762   2.261   7.417
  486POPC   NC311351  28.188  36.579   9.797
  486POPC   PO411352  27.589  36.630   9.479
  486POPC   GL111353  27.811  36.908   9.205
  486POPC   GL211354  27.524  37.044   9.045
  486POPC   C1A11355  27.946  36.878   8.772
  486POPC   D2A11356  27.870  36.709   8.368
  486POPC   C3A11357  27.840  36.905   7.965
  486POPC   C4A11358  27.528  36.668   7.782
  486POPC   C1B11359  27.309  37.130   8.633
  486POPC   C2B11360  27.464  37.156   8.215
  486POPC   C3B11361  27.340  37.119   7.794
  486POPC   C4B11362  27.127  36.935   7.428
  487POPC   NC311363  34.958  31.011   9.410
  487POPC   PO411364  34.259  30.974   9.564
  487POPC   GL111365  34.517  30.804   9.201
  487POPC   GL211366  34.520  31.134   9.076
  487POPC   C1A11367  34.455  30.765   8.704
  487POPC   D2A11368  34.829  30.649   8.410
  487POPC   C3A11369  34.956  30.605   7.976
  487POPC   C4A11370  34.624  30.598   7.673
  487POPC   C1B11371  34.864  31.061   8.774
  487POPC   C2B11372  34.775  31.146   8.363
  487POPC   C3B11373  34.596  30.979   8.013
  487POPC   C4B11374  34.899  31.028   7.689
  488POPC   NC311375   5.490   9.340   9.952
  488POPC   PO411376   5.834   8.855   9.581
  488POPC   GL111377   5.894   9.075   9.186
  488POPC   GL211378   6.241   9.078   9.199
  488POPC   C1A11379   5.889   9.038   8.725
  488POPC   D2A11380   5.927   8.711   8.394
  488POPC   C3A11381   5.743   8.747   7.977
  488POPC   C4A11382   6.025   8.797   7.632
  488POPC   C1B11383   6.350   9.284   8.806
  488POPC   C2B11384   6.169   9.376   8.396
  488POPC   C3B11385   6.033   9.156   8.031
  488POPC   C4B11386   5.704   9.185   7.702
  489POPC   NC311387   5.005  32.603   9.448
  489POPC   PO411388   5.264  33.217   9.586
  489POPC   GL111389   5.047  33.182   9.138
  489POPC   GL211390   4.837  32.908   9.093
  489POPC   C1A11391   4.996  33.092   8.645
  489POPC   D2A11392   5.152  32.792   8.357
  489POPC   C3A11393   5.401  32.941   8.017
  489POPC   C4A11394   5.224  33.276   7.795
  489POPC   C1B11395   4.541  32.883   8.769
  489POPC   C2B11396   4.591  32.788   8.347
  489POPC   C3B11397   4.815  33.043   8.041
  489POPC   C4B11398   4.905  32.910   7.625
  490POPC   NC311399  27.686  26.022   9.603
  490POPC   PO411400  27.307  26.495   9.342
  490POPC   GL111401  27.611  26.229   9.143
  490POPC   GL211402  27.449  25.897   9.155
  490POPC   C1A11403  27.744  26.078   8.751
  490POPC   D2A11404  27.564  26.049   8.345
  490POPC   C3A11405  27.823  26.100   7.993
  490POPC   C4A11406  27.987  26.292   7.611
  490POPC   C1B11407  27.519  25.614   8.810
  490POPC   C2B11408  27.440  25.549   8.390
  490POPC   C3B11409  27.505  25.632   7.961
  490POPC   C4B11410  27.713  25.835   7.592
  491POPC   NC311411  25.690  31.931   9.338
  491POPC   PO411412  25.178  32.272   9.561
  491POPC   GL111413  25.348  32.245   9.129
  491POPC   GL211414  25.047  32.177   9.039
  491POPC   C1A11415  25.367  32.239   8.653
  491POPC   D2A11416  25.465  32.235   8.233
  491POPC   C3A11417  25.357  32.184   7.851
  491POPC   C4A11418  25.560  32.307   7.525
  491POPC   C1B11419  24.863  32.266   8.662
  491POPC   C2B11420  24.941  32.189   8.244
  491POPC   C3B11421  24.864  32.270   7.835
  491POPC   C4B11422  25.086  32.470   7.505
  492POPC   NC311423  16.184  16.405   9.546
  492POPC   PO411424  16.256  17.026   9.572
  492POPC   GL111425  16.061  16.777   9.174
  492POPC   GL211426  15.822  16.484   9.172
  492POPC   C1A11427  15.856  16.713   8.732
  492POPC   D2A11428  15.895  16.853   8.295
  492POPC   C3A11429  16.069  16.761   7.887
  492POPC   C4A11430  16.427  16.706   7.557
  492POPC   C1B11431  15.716  16.224   8.808
  492POPC   C2B11432  15.683  16.384   8.338
  492POPC   C3B11433  15.695  16.349   7.886
  492POPC   C4B11434  15.741  16.588   7.509
  493POPC   NC311435  34.445  18.862   9.523
  493POPC   PO411436  35.024  19.276   9.376
  493POPC   GL111437  34.829  19.024   9.085
  493POPC   GL211438  34.481  19.029   9.048
  493POPC   C1A11439  34.859  19.018   8.653
  493POPC   D2A11440  35.049  19.119   8.273
  493POPC   C3A11441  34.796  18.953   7.939
  493POPC   C4A11442  34.426  18.844   7.723
  493POPC   C1B11443  34.426  19.295   8.705
  493POPC   C2B11444  34.512  19.199   8.306
  493POPC   C3B11445  34.424  19.319   7.932
  493POPC   C4B11446  34.715  19.444   7.624
  494POPC   NC311447  33.660  12.677   9.505
  494POPC   PO411448  34.346  12.924   9.501
  494POPC   GL111449  33.980  12.946   9.206
  494POPC   GL211450  33.949  12.608   9.029
  494POPC   C1A11451  33.673  12.983   8.849
  494POPC   D2A11452  33.629  12.800   8.437
  494POPC   C3A11453  33.894  12.785   8.105
  494POPC   C4A11454  33.810  13.019   7.751
  494POPC   C1B11455  33.521  12.470   8.813
  494POPC   C2B11456  33.274  12.423   8.399
  494POPC   C3B11457  33.380  12.633   8.011
  494POPC   C4B11458  33.500  12.652   7.590
  495POPC   NC311459  15.854  31.387   9.397
  495POPC   PO411460  16.458  31.762   9.428
  495POPC   GL111461  16.212  31.656   9.117
  495POPC   GL211462  16.277  31.297   9.132
  495POPC   C1A11463  15.935  31.616   8.776
  495POPC   D2A11464  15.584  31.718   8.504
  495POPC   C3A11465  15.662  31.613   8.074
  495POPC   C4A11466  15.914  31.356   7.806
  495POPC   C1B11467  16.176  31.171   8.747
  495POPC   C2B11468  16.073  31.322   8.342
  495POPC   C3B11469  16.317  31.167   8.020
  495POPC   C4B11470  16.428  31.293   7.643
  496POPC   NC311471  41.277  40.603   9.565
  496POPC   PO411472  41.719  41.122   9.534
  496POPC   GL111473  41.531  40.877   9.204
  496POPC   GL211474  41.725  40.558   9.165
  496POPC   C1A11475  41.501  40.759   8.763
  496POPC   D2A11476  41.338  40.567   8.420
  496POPC   C3A11477  41.423  40.824   8.074
  496POPC   C4A11478  41.484  41.032   7.702
  496POPC   C1B11479  41.935  40.544   8.712
  496POPC   C2B11480  41.859  40.614   8.243
  496POPC   C3B11481  41.813  40.623   7.782
  496POPC   C4B11482  41.633  40.638   7.391
  497POPC   NC311483  23.836  28.130   9.598
  497POPC   PO411484  23.596  28.720   9.419
  497POPC   GL111485  23.567  28.358   9.180
  497POPC   GL211486  23.918  28.296   9.126
  497POPC   C1A11487  23.624  28.392   8.739
  497POPC   D2A11488  23.628  28.699   8.459
  497POPC   C3A11489  23.590  28.524   8.089
  497POPC   C4A11490  23.483  28.411   7.694
  497POPC   C1B11491  23.966  28.018   8.779
  497POPC   C2B11492  23.721  28.067   8.375
  497POPC   C3B11493  23.760  28.054   7.944
  497POPC   C4B11494  24.017  28.335   7.684
  498POPC   NC311495  43.177  23.178   9.530
  498POPC   PO411496  42.861  22.550   9.668
  498POPC   GL111497  43.119  22.691   9.225
  498POPC   GL211498  43.330  22.972   9.109
  498POPC   C1A11499  43.012  22.799   8.746
  498POPC   D2A11500  43.053  22.641   8.285
  498POPC   C3A11501  43.045  22.848   7.892
  498POPC   C4A11502  42.956  23.275   7.840
  498POPC   C1B11503  43.488  22.996   8.742
  498POPC   C2B11504  43.294  23.078   8.394
  498POPC   C3B11505  43.448  23.195   8.049
  498POPC   C4B11506  43.506  22.994   7.702
  499POPC   NC311507  39.414  25.152  10.023
  499POPC   PO411508  40.021  25.370   9.743
  499POPC   GL111509  40.150  25.331   9.309
  499POPC   GL211510  40.448  25.089   9.244
  499POPC   C1A11511  40.192  25.500   8.871
  499POPC   D2A11512  40.026  25.647   8.486
  499POPC   C3A11513  40.169  25.466   8.106
  499POPC   C4A11514  40.016  25.445   7.715
  499POPC   C1B11515  40.154  24.998   8.921
  499POPC   C2B11516  40.134  25.063   8.479
  499POPC   C3B11517  40.340  24.974   8.081
  499POPC   C4B11518  40.537  24.879   7.692
  500POPC   NC311519  16.016  20.525   9.495
  500POPC   PO411520  16.528  20.438   9.290
  500POPC   GL111521  16.157  20.549   8.987
  500POPC   GL211522  15.857  20.790   9.094
  500POPC   C1A11523  16.227  20.470   8.512
  500POPC   D2A11524  16.487  20.275   8.160
  500POPC   C3A11525  16.153  20.438   7.896
  500POPC   C4A11526  16.158  20.822   7.678
  500POPC   C1B11527  15.840  20.783   8.640
  500POPC   C2B11528  15.733  20.548   8.244
  500POPC   C3B11529  15.679  20.759   7.834
  500POPC   C4B11530  15.852  21.208   7.786
  501POPC   NC311531  26.814  39.882   9.700
  501POPC   PO411532  26.425  40.360   9.589
  501POPC   GL111533  26.554  40.007   9.257
  501POPC   GL211534  26.906  39.890   9.174
  501POPC   C1A11535  26.535  39.777   8.832
  501POPC   D2A11536  26.701  39.960   8.425
  501POPC   C3A11537  26.853  39.763   8.027
  501POPC   C4A11538  26.498  39.660   7.772
  501POPC   C1B11539  26.858  40.220   8.864
  501POPC   C2B11540  27.001  40.399   8.489
  501POPC   C3B11541  27.079  40.245   8.094
  501POPC   C4B11542  27.097  40.316   7.660
  502POPC   NC311543  18.384  17.469   9.714
  502POPC   PO411544  17.831  17.569   9.704
  502POPC   GL111545  18.031  17.468   9.251
  502POPC   GL211546  18.368  17.310   9.216
  502POPC   C1A11547  18.075  17.412   8.748
  502POPC   D2A11548  18.345  17.352   8.342
  502POPC   C3A11549  18.204  17.375   7.862
  502POPC   C4A11550  18.293  17.237   7.389
  502POPC   C1B11551  18.578  17.534   8.862
  502POPC   C2B11552  18.739  17.666   8.435
  502POPC   C3B11553  18.661  17.593   7.991
  502POPC   C4B11554  18.692  17.221   7.735
  503POPC   NC311555  40.417  39.830   9.469
  503POPC   PO411556  40.935  40.247   9.501
  503POPC   GL111557  40.821  40.051   9.150
  503POPC   GL211558  40.505  40.216   9.149
  503POPC   C1A11559  40.990  39.951   8.722
  503POPC   D2A11560  40.987  39.847   8.261
  503POPC   C3A11561  40.867  40.178   7.946
  503POPC   C4A11562  40.898  40.095   7.495
  503POPC   C1B11563  40.453  39.923   8.811
  503POPC   C2B11564  40.520  40.025   8.408
  503POPC   C3B11565  40.382  39.975   8.014
  503POPC   C4B11566  40.423  40.189   7.624
  504POPC   NC311567  12.704  18.155   9.736
  504POPC   PO411568  13.261  18.443   9.616
  504POPC   GL111569  13.037  18.427   9.211
  504POPC   GL211570  12.700  18.284   9.197
  504POPC   C1A11571  12.987  18.369   8.757
  504POPC   D2A11572  13.089  18.165   8.356
  504POPC   C3A11573  12.939  18.290   7.937
  504POPC   C4A11574  13.083  18.183   7.507
  504POPC   C1B11575  12.489  18.364   8.786
  504POPC   C2B11576  12.657  18.421   8.352
  504POPC   C3B11577  12.478  18.533   7.953
  504POPC   C4B11578  12.574  18.767   7.554
  505POPC   NC311579  12.832  15.791   9.901
  505POPC   PO411580  12.485  16.089   9.382
  505POPC   GL111581  12.579  16.039   9.015
  505POPC   GL211582  12.949  16.149   9.042
  505POPC   C1A11583  12.739  15.850   8.661
  505POPC   D2A11584  12.916  15.967   8.293
  505POPC   C3A11585  12.748  15.754   7.941
  505POPC   C4A11586  12.586  15.912   7.513
  505POPC   C1B11587  13.225  15.932   8.747
  505POPC   C2B11588  13.418  15.932   8.332
  505POPC   C3B11589  13.253  15.958   7.907
  505POPC   C4B11590  13.086  16.038   7.472
  506POPC   NC311591  29.413  42.755   9.328
  506POPC   PO411592  29.425  43.343   9.526
  506POPC   GL111593  29.288  43.192   9.102
  506POPC   GL211594  29.015  43.342   8.989
  506POPC   C1A11595  29.110  42.943   8.719
  506POPC   D2A11596  29.108  42.583   8.428
  506POPC   C3A11597  29.122  42.777   8.012
  506POPC   C4A11598  29.320  42.928   7.648
  506POPC   C1B11599  28.998  43.664   8.663
  506POPC   C2B11600  28.940  43.461   8.268
  506POPC   C3B11601  29.095  43.309   7.878
  506POPC   C4B11602  28.993  43.305   7.415
  507POPC   NC311603  12.587  42.373   9.725
  507POPC   PO411604  11.976  42.172   9.677
  507POPC   GL111605  12.235  42.266   9.322
  507POPC   GL211606  12.098  42.528   9.097
  507POPC   C1A11607  12.189  42.069   8.911
  507POPC   D2A11608  12.127  42.336   8.535
  507POPC   C3A11609  12.127  42.258   8.090
  507POPC   C4A11610  12.430  42.559   7.903
  507POPC   C1B11611  11.730  42.337   8.863
  507POPC   C2B11612  11.636  42.276   8.410
  507POPC   C3B11613  11.623  42.391   7.989
  507POPC   C4B11614  11.777  42.277   7.573
  508POPC   NC311615   6.330   9.879   9.881
  508POPC   PO411616   6.893   9.974   9.564
  508POPC   GL111617   6.714   9.782   9.218
  508POPC   GL211618   6.406   9.689   9.129
  508POPC   C1A11619   6.810   9.658   8.797
  508POPC   D2A11620   6.829   9.426   8.412
  508POPC   C3A11621   6.973   9.580   8.030
  508POPC   C4A11622   6.942   9.423   7.632
  508POPC   C1B11623   6.450  10.046   8.881
  508POPC   C2B11624   6.494   9.987   8.490
  508POPC   C3B11625   6.582   9.981   8.097
  508POPC   C4B11626   6.530   9.680   7.786
  509POPC   NC311627   6.611  22.711   9.368
  509POPC   PO411628   7.031  23.155   9.480
  509POPC   GL111629   6.858  23.018   9.059
  509POPC   GL211630   6.532  23.148   9.114
  509POPC   C1A11631   6.751  22.673   8.728
  509POPC   D2A11632   6.486  22.694   8.352
  509POPC   C3A11633   6.655  22.874   7.995
  509POPC   C4A11634   6.806  22.677   7.674
  509POPC   C1B11635   6.407  23.036   8.733
  509POPC   C2B11636   6.410  23.196   8.326
  509POPC   C3B11637   6.227  23.125   7.912
  509POPC   C4B11638   6.368  23.050   7.459
  510POPC   NC311639  44.446  19.600   9.574
  510POPC   PO411640  44.554  20.244   9.567
  510POPC   GL111641  44.643  19.898   9.196
  510POPC   GL211642  44.363  19.655   9.087
  510POPC   C1A11643  44.736  19.708   8.759
  510POPC   D2A11644  44.707  19.946   8.395
  510POPC   C3A11645  44.934  19.838   8.050
  510POPC   C4A11646  44.914  19.852   7.599
  510POPC   C1B11647  44.307  19.982   8.800
  510POPC   C2B11648  44.261  19.703   8.484
  510POPC   C3B11649  44.425  19.544   8.095
  510POPC   C4B11650  44.424  19.784   7.735
  511POPC   NC311651  12.034  21.791   9.460
  511POPC   PO411652  11.968  22.490   9.490
  511POPC   GL111653  12.080  22.157   9.129
  511POPC   GL211654  12.365  21.846   9.085
  511POPC   C1A11655  12.021  21.964   8.749
  511POPC   D2A11656  12.062  22.201   8.390
  511POPC   C3A11657  11.933  21.992   8.035
  511POPC   C4A11658  11.746  22.201   7.710
  511POPC   C1B11659  12.543  22.025   8.710
  511POPC   C2B11660  12.562  22.241   8.312
  511POPC   C3B11661  12.403  22.227   7.900
  511POPC   C4B11662  12.474  22.551   7.598
  512POPC   NC311663   2.046  41.398   9.463
  512POPC   PO411664   1.621  41.849   9.282
  512POPC   GL111665   1.884  41.628   9.006
  512POPC   GL211666   2.159  41.354   8.978
  512POPC   C1A11667   1.908  41.584   8.583
  512POPC   D2A11668   2.183  41.643   8.299
  512POPC   C3A11669   2.042  41.445   7.969
  512POPC   C4A11670   1.780  41.612   7.685
  512POPC   C1B11671   1.812  41.122   8.771
  512POPC   C2B11672   1.581  41.166   8.365
  512POPC   C3B11673   1.586  41.176   7.903
  512POPC   C4B11674   1.881  41.116   7.573
  513POPC   NC311675  39.507  21.766   9.404
  513POPC   PO411676  39.189  22.265   9.779
  513POPC   GL111677  39.185  22.354   9.259
  513POPC   GL211678  39.268  22.086   9.005
  513POPC   C1A11679  38.919  22.432   8.854
  513POPC   D2A11680  39.113  22.459   8.428
  513POPC   C3A11681  38.924  22.372   8.021
  513POPC   C4A11682  39.139  22.442   7.643
  513POPC   C1B11683  39.377  21.678   8.779
  513POPC   C2B11684  39.344  21.584   8.357
  513POPC   C3B11685  39.343  21.861   8.018
  513POPC   C4B11686  39.685  21.953   7.747
  514POPC   NC311687  13.391  29.843  10.011
  514POPC   PO411688  13.815  29.624   9.450
  514POPC   GL111689  13.681  29.829   9.152
  514POPC   GL211690  13.373  29.926   9.294
  514POPC   C1A11691  13.607  30.097   8.828
  514POPC   D2A11692  13.814  30.190   8.449
  514POPC   C3A11693  13.816  29.901   8.074
  514POPC   C4A11694  13.838  30.085   7.685
  514POPC   C1B11695  13.300  29.689   8.863
  514POPC   C2B11696  13.455  29.795   8.443
  514POPC   C3B11697  13.309  29.975   8.076
  514POPC   C4B11698  13.418  29.807   7.674
  515POPC   NC311699  33.309   4.529   9.522
  515POPC   PO411700  32.786   4.198   9.838
  515POPC   GL111701  32.861   4.465   9.362
  515POPC   GL211702  32.662   4.595   9.174
  515POPC   C1A11703  33.062   4.391   8.894
  515POPC   D2A11704  33.042   4.510   8.439
  515POPC   C3A11705  33.187   4.339   8.025
  515POPC   C4A11706  33.136   4.506   7.600
  515POPC   C1B11707  32.553   4.368   8.819
  515POPC   C2B11708  32.637   4.079   8.495
  515POPC   C3B11709  32.693   4.270   8.095
  515POPC   C4B11710  32.851   4.090   7.705
  516POPC   NC311711   1.077  41.306   9.690
  516POPC   PO411712   1.514  41.739   9.763
  516POPC   GL111713   1.287  41.489   9.267
  516POPC   GL211714   1.234  41.796   8.983
  516POPC   C1A11715   1.319  41.357   8.799
  516POPC   D2A11716   1.415  41.659   8.446
  516POPC   C3A11717   1.270  41.542   8.030
  516POPC   C4A11718   1.290  41.611   7.588
  516POPC   C1B11719   0.964  41.818   8.639
  516POPC   C2B11720   0.848  41.861   8.213
  516POPC   C3B11721   1.095  41.991   7.860
  516POPC   C4B11722   1.034  42.066   7.411
  517POPC   NC311723   6.671  12.890   9.622
  517POPC   PO411724   6.456  12.398   9.286
  517POPC   GL111725   6.544  12.791   9.120
  517POPC   GL211726   6.202  12.903   9.102
  517POPC   C1A11727   6.718  12.840   8.702
  517POPC   D2A11728   6.704  13.082   8.319
  517POPC   C3A11729   6.775  12.823   7.945
  517POPC   C4A11730   6.443  12.964   7.717
  517POPC   C1B11731   6.265  12.597   8.729
  517POPC   C2B11732   6.497  12.528   8.338
  517POPC   C3B11733   6.308  12.533   7.926
  517POPC   C4B11734   6.432  12.501   7.499
  518POPC   NC311735   5.208  44.865   9.365
  518POPC   PO411736   4.742  44.418   9.565
  518POPC   GL111737   4.911  44.456   9.152
  518POPC   GL211738   5.251  44.440   9.055
  518POPC   C1A11739   4.765  44.304   8.763
  518POPC   D2A11740   4.868  44.117   8.373
  518POPC   C3A11741   5.042  44.428   8.089
  518POPC   C4A11742   5.357  44.654   7.882
  518POPC   C1B11743   5.105  44.713   8.724
  518POPC   C2B11744   5.025   0.106   8.530
  518POPC   C3B11745   5.031   0.245   8.141
  518POPC   C4B11746   4.996   0.010   7.772
  519POPC   NC311747  36.300  38.328   9.651
  519POPC   PO411748  35.807  38.651   9.486
  519POPC   GL111749  36.145  38.591   9.169
  519POPC   GL211750  36.372  38.308   9.136
  519POPC   C1A11751  36.217  38.699   8.740
  519POPC   D2A11752  36.289  38.875   8.308
  519POPC   C3A11753  36.135  38.549   8.003
  519POPC   C4A11754  35.827  38.424   7.649
  519POPC   C1B11755  36.174  38.190   8.767
  519POPC   C2B11756  35.992  38.182   8.369
  519POPC   C3B11757  36.252  38.056   8.051
  519POPC   C4B11758  36.307  38.203   7.670
  520POPC   NC311759  40.993  37.735   9.766
  520POPC   PO411760  40.429  37.872   9.491
  520POPC   GL111761  40.807  37.712   9.251
  520POPC   GL211762  41.015  37.943   9.102
  520POPC   C1A11763  40.885  37.531   8.844
  520POPC   D2A11764  40.679  37.635   8.483
  520POPC   C3A11765  40.732  37.570   8.078
  520POPC   C4A11766  40.477  37.611   7.722
  520POPC   C1B11767  40.849  38.066   8.683
  520POPC   C2B11768  40.948  38.042   8.202
  520POPC   C3B11769  40.896  37.930   7.743
  520POPC   C4B11770  41.087  37.889   7.280
  521POPC   NC311771  38.360  26.282   9.544
  521POPC   PO411772  38.274  25.552   9.431
  521POPC   GL111773  38.330  25.752   9.080
  521POPC   GL211774  38.529  26.045   9.106
  521POPC   C1A11775  38.191  25.817   8.682
  521POPC   D2A11776  38.053  26.046   8.304
  521POPC   C3A11777  38.151  25.889   7.919
  521POPC   C4A11778  38.452  25.663   7.717
  521POPC   C1B11779  38.715  25.906   8.741
  521POPC   C2B11780  38.555  26.033   8.366
  521POPC   C3B11781  38.582  26.152   7.961
  521POPC   C4B11782  38.540  26.101   7.478
  522POPC   NC311783  42.548  20.962   9.347
  522POPC   PO411784  42.080  20.450   9.416
  522POPC   GL111785  42.279  20.585   9.101
  522POPC   GL211786  42.571  20.434   8.941
  522POPC   C1A11787  42.092  20.467   8.723
  522POPC   D2A11788  42.106  20.632   8.315
  522POPC   C3A11789  42.127  20.389   7.953
  522POPC   C4A11790  42.518  20.420   7.720
  522POPC   C1B11791  42.443  20.844   8.714
  522POPC   C2B11792  42.475  21.002   8.330
  522POPC   C3B11793  42.368  20.886   7.922
  522POPC   C4B11794  42.762  20.890   7.743
  523POPC   NC311795  27.497  24.129   9.395
  523POPC   PO411796  27.335  24.820   9.467
  523POPC   GL111797  27.438  24.561   9.119
  523POPC   GL211798  27.757  24.426   9.052
  523POPC   C1A11799  27.248  24.245   8.825
  523POPC   D2A11800  27.280  24.073   8.411
  523POPC   C3A11801  27.635  24.243   8.186
  523POPC   C4A11802  27.667  24.536   7.829
  523POPC   C1B11803  27.624  24.525   8.639
  523POPC   C2B11804  27.658  24.760   8.295
  523POPC   C3B11805  28.031  24.798   8.135
  523POPC   C4B11806  28.198  24.691   7.787
  524POPC   NC311807  29.532  13.448   9.541
  524POPC   PO411808  29.035  13.922   9.537
  524POPC   GL111809  29.321  13.854   9.221
  524POPC   GL211810  29.188  13.525   9.161
  524POPC   C1A11811  29.433  13.758   8.779
  524POPC   D2A11812  29.439  13.499   8.369
  524POPC   C3A11813  29.220  13.685   7.980
  524POPC   C4A11814  28.936  13.980   7.729
  524POPC   C1B11815  29.190  13.286   8.778
  524POPC   C2B11816  29.002  13.169   8.392
  524POPC   C3B11817  28.928  13.242   7.981
  524POPC   C4B11818  29.299  13.210   7.716
  525POPC   NC311819  44.313   3.911   9.386
  525POPC   PO411820  44.298   3.219   9.572
  525POPC   GL111821  44.519   3.463   9.203
  525POPC   GL211822  44.903   3.511   9.143
  525POPC   C1A11823  44.562   3.487   8.745
  525POPC   D2A11824  44.638   3.732   8.389
  525POPC   C3A11825  44.595   3.612   7.968
  525POPC   C4A11826  44.966   3.444   7.804
  525POPC   C1B11827  44.977   3.822   8.787
  525POPC   C2B11828   0.001   4.080   8.410
  525POPC   C3B11829   0.013   3.927   7.978
  525POPC   C4B11830   0.350   3.777   7.683
  526POPC   NC311831   8.768  11.627   9.496
  526POPC   PO411832   8.928  12.235   9.731
  526POPC   GL111833   8.958  12.165   9.205
  526POPC   GL211834   9.102  11.831   9.167
  526POPC   C1A11835   8.736  12.160   8.717
  526POPC   D2A11836   8.859  12.379   8.307
  526POPC   C3A11837   8.836  12.134   7.927
  526POPC   C4A11838   8.675  11.729   7.765
  526POPC   C1B11839   9.191  11.951   8.779
  526POPC   C2B11840   9.052  11.899   8.364
  526POPC   C3B11841   9.284  11.918   8.006
  526POPC   C4B11842   9.328  12.141   7.648
  527POPC   NC311843  16.259  24.533   9.758
  527POPC   PO411844  15.747  24.844   9.448
  527POPC   GL111845  15.831  24.616   9.069
  527POPC   GL211846  16.152  24.408   9.061
  527POPC   C1A11847  15.999  24.818   8.712
  527POPC   D2A11848  16.150  24.778   8.307
  527POPC   C3A11849  15.859  24.695   7.991
  527POPC   C4A11850  15.837  24.333   7.714
  527POPC   C1B11851  16.078  24.312   8.615
  527POPC   C2B11852  16.069  24.255   8.158
  527POPC   C3B11853  16.311  24.218   7.744
  527POPC   C4B11854  16.292  24.209   7.281
  528POPC   NC311855  26.899  40.489   9.456
  528POPC   PO411856  26.505  41.073   9.631
  528POPC   GL111857  26.649  40.873   9.218
  528POPC   GL211858  26.508  40.544   9.127
  528POPC   C1A11859  26.974  40.757   8.862
  528POPC   D2A11860  27.276  40.854   8.523
  528POPC   C3A11861  27.108  40.760   8.119
  528POPC   C4A11862  27.133  40.875   7.693
  528POPC   C1B11863  26.484  40.731   8.746
  528POPC   C2B11864  26.709  40.940   8.432
  528POPC   C3B11865  26.617  40.892   8.003
  528POPC   C4B11866  26.683  40.602   7.702
  529POPC   NC311867  18.215  38.807   9.496
  529POPC   PO411868  18.589  38.219   9.580
  529POPC   GL111869  18.340  38.370   9.236
  529POPC   GL211870  18.492  38.651   9.101
  529POPC   C1A11871  18.056  38.438   8.864
  529POPC   D2A11872  18.189  38.513   8.435
  529POPC   C3A11873  18.084  38.316   8.078
  529POPC   C4A11874  17.901  38.578   7.779
  529POPC   C1B11875  18.516  38.297   8.752
  529POPC   C2B11876  18.539  38.122   8.331
  529POPC   C3B11877  18.583  38.321   7.919
  529POPC   C4B11878  18.612  38.613   7.550
  530POPC   NC311879  41.972  26.980   9.648
  530POPC   PO411880  42.671  26.875   9.487
  530POPC   GL111881  42.504  26.771   9.104
  530POPC   GL211882  42.701  27.013   8.951
  530POPC   C1A11883  42.141  26.888   8.834
  530POPC   D2A11884  42.093  26.784   8.386
  530POPC   C3A11885  42.373  26.935   8.055
  530POPC   C4A11886  42.285  26.898   7.616
  530POPC   C1B11887  42.568  26.848   8.547
  530POPC   C2B11888  42.530  26.476   8.264
  530POPC   C3B11889  42.520  26.493   7.809
  530POPC   C4B11890  42.773  26.740   7.539
  531POPC   NC311891  28.951  16.408   9.514
  531POPC   PO411892  29.124  17.002   9.526
  531POPC   GL111893  29.192  16.872   9.165
  531POPC   GL211894  29.258  16.583   9.144
  531POPC   C1A11895  28.953  16.780   8.808
  531POPC   D2A11896  29.055  16.551   8.456
  531POPC   C3A11897  29.058  16.737   8.069
  531POPC   C4A11898  29.044  16.636   7.658
  531POPC   C1B11899  29.467  16.663   8.751
  531POPC   C2B11900  29.533  16.404   8.380
  531POPC   C3B11901  29.355  16.302   7.997
  531POPC   C4B11902  29.528  16.442   7.638
  532POPC   NC311903  37.134   7.533   9.358
  532POPC   PO411904  36.566   7.246   9.499
  532POPC   GL111905  36.692   7.350   9.107
  532POPC   GL211906  36.945   7.078   9.151
  532POPC   C1A11907  36.585   7.500   8.657
  532POPC   D2A11908  36.524   7.815   8.296
  532POPC   C3A11909  36.729   7.733   7.872
  532POPC   C4A11910  37.206   7.615   7.759
  532POPC   C1B11911  36.766   7.015   8.748
  532POPC   C2B11912  36.921   7.163   8.361
  532POPC   C3B11913  36.942   7.248   7.940
  532POPC   C4B11914  36.622   7.290   7.647
  533POPC   NC311915   0.713  18.231   9.685
  533POPC   PO411916   0.149  18.583   9.467
  533POPC   GL111917   0.402  18.249   9.238
  533POPC   GL211918   0.743  18.369   9.139
  533POPC   C1A11919   0.477  18.163   8.780
  533POPC   D2A11920   0.454  18.382   8.406
  533POPC   C3A11921   0.300  18.128   8.070
  533POPC   C4A11922   0.096  18.265   7.699
  533POPC   C1B11923   0.795  18.635   8.748
  533POPC   C2B11924   0.995  18.554   8.339
  533POPC   C3B11925   0.835  18.256   8.073
  533POPC   C4B11926   0.607  18.387   7.720
  534POPC   NC311927  40.219  21.595   9.598
  534POPC   PO411928  39.675  21.199   9.629
  534POPC   GL111929  39.890  21.377   9.268
  534POPC   GL211930  40.192  21.161   9.254
  534POPC   C1A11931  39.893  21.458   8.830
  534POPC   D2A11932  39.785  21.311   8.428
  534POPC   C3A11933  39.853  21.599   8.123
  534POPC   C4A11934  39.846  21.470   7.723
  534POPC   C1B11935  40.366  21.216   8.821
  534POPC   C2B11936  40.279  21.416   8.408
  534POPC   C3B11937  40.304  21.327   7.955
  534POPC   C4B11938  40.491  21.253   7.547
  535POPC   NC311939   4.132   5.888   9.481
  535POPC   PO411940   4.758   5.739   9.509
  535POPC   GL111941   4.550   5.872   9.121
  535POPC   GL211942   4.266   6.134   9.078
  535POPC   C1A11943   4.586   6.028   8.701
  535POPC   D2A11944   4.620   6.302   8.399
  535POPC   C3A11945   4.299   6.166   8.172
  535POPC   C4A11946   4.331   6.036   7.765
  535POPC   C1B11947   4.084   5.944   8.745
  535POPC   C2B11948   3.975   5.749   8.393
  535POPC   C3B11949   3.890   5.920   7.985
  535POPC   C4B11950   3.742   6.285   7.757
  536POPC   NC311951  26.194  14.871   9.492
  536POPC   PO411952  25.904  14.241   9.463
  536POPC   GL111953  26.049  14.378   9.098
  536POPC   GL211954  26.392  14.300   9.102
  536POPC   C1A11955  25.853  14.458   8.696
  536POPC   D2A11956  25.848  14.717   8.332
  536POPC   C3A11957  25.772  14.508   7.949
  536POPC   C4A11958  25.950  14.130   7.834
  536POPC   C1B11959  26.250  14.112   8.702
  536POPC   C2B11960  26.152  14.298   8.286
  536POPC   C3B11961  26.350  14.445   7.918
  536POPC   C4B11962  26.437  14.396   7.502
  537POPC   NC311963   2.997  28.722   9.739
  537POPC   PO411964   3.538  28.486   9.523
  537POPC   GL111965   3.640  28.522   9.097
  537POPC   GL211966   3.307  28.583   9.022
  537POPC   C1A11967   3.689  28.735   8.704
  537POPC   D2A11968   3.410  28.665   8.356
  537POPC   C3A11969   3.603  28.550   7.960
  537POPC   C4A11970   3.401  28.594   7.554
  537POPC   C1B11971   3.381  28.273   8.694
  537POPC   C2B11972   3.486  28.132   8.263
  537POPC   C3B11973   3.416  28.109   7.784
  537POPC   C4B11974   3.504  28.153   7.319
  538POPC   NC311975  39.217  22.692   9.644
  538POPC   PO411976  39.782  23.018   9.467
  538POPC   GL111977  39.458  22.860   9.197
  538POPC   GL211978  39.121  22.996   9.194
  538POPC   C1A11979  39.352  22.761   8.784
  538POPC   D2A11980  39.260  22.949   8.376
  538POPC   C3A11981  39.405  22.724   7.973
  538POPC   C4A11982  39.457  22.809   7.493
  538POPC   C1B11983  38.873  22.965   8.788
  538POPC   C2B11984  38.742  23.040   8.364
  538POPC   C3B11985  38.903  22.910   7.990
  538POPC   C4B11986  39.185  23.151   7.798
  539POPC   NC311987  25.864  30.962   9.516
  539POPC   PO411988  26.062  30.310   9.452
  539POPC   GL111989  26.246  30.394   9.087
  539POPC   GL211990  26.115  30.700   9.114
  539POPC   C1A11991  26.047  30.399   8.680
  539POPC   D2A11992  26.061  30.516   8.261
  539POPC   C3A11993  25.962  30.523   7.855
  539POPC   C4A11994  26.156  30.618   7.491
  539POPC   C1B11995  26.100  30.890   8.709
  539POPC   C2B11996  25.935  31.006   8.346
  539POPC   C3B11997  26.106  31.004   7.940
  539POPC   C4B11998  25.810  30.957   7.626
  540POPC   NC311999   5.684  37.418   9.511
  540POPC   PO412000   6.075  37.777   9.919
  540POPC   GL112001   6.075  37.751   9.297
  540POPC   GL212002   5.826  37.539   9.068
  540POPC   C1A12003   6.010  37.883   8.790
  540POPC   D2A12004   5.779  37.638   8.464
  540POPC   C3A12005   5.706  37.727   8.024
  540POPC   C4A12006   6.059  37.848   7.834
  540POPC   C1B12007   6.019  37.294   8.764
  540POPC   C2B12008   6.173  37.241   8.347
  540POPC   C3B12009   6.205  37.350   7.933
  540POPC   C4B12010   5.904  37.410   7.624
  541POPC   NC312011  40.577  32.195   9.479
  541POPC   PO412012  41.124  31.818   9.207
  541POPC   GL112013  40.840  32.174   9.036
  541POPC   GL212014  40.441  32.164   9.013
  541POPC   C1A12015  40.727  32.377   8.659
  541POPC   D2A12016  40.493  32.251   8.326
  541POPC   C3A12017  40.785  32.150   8.011
  541POPC   C4A12018  40.809  32.502   7.751
  541POPC   C1B12019  40.284  31.914   8.708
  541POPC   C2B12020  40.251  31.800   8.269
  541POPC   C3B12021  40.277  32.057   7.870
  541POPC   C4B12022  40.600  32.060   7.528
  542POPC   NC312023  29.629  33.583   9.648
  542POPC   PO412024  29.968  34.174   9.523
  542POPC   GL112025  29.949  33.968   9.106
  542POPC   GL212026  29.959  33.599   9.147
  542POPC   C1A12027  29.842  34.120   8.688
  542POPC   D2A12028  29.719  34.297   8.276
  542POPC   C3A12029  29.651  33.937   7.987
  542POPC   C4A12030  29.805  33.911   7.541
  542POPC   C1B12031  30.088  33.647   8.712
  542POPC   C2B12032  29.962  33.732   8.324
  542POPC   C3B12033  30.180  33.842   7.943
  542POPC   C4B12034  30.282  33.732   7.521
  543POPC   NC312035  14.639  35.630   9.506
  543POPC   PO412036  14.413  35.035   9.446
  543POPC   GL112037  14.398  35.249   9.066
  543POPC   GL212038  14.439  35.573   9.033
  543POPC   C1A12039  14.239  35.339   8.643
  543POPC   D2A12040  14.446  35.178   8.295
  543POPC   C3A12041  14.435  35.358   7.897
  543POPC   C4A12042  14.413  35.168   7.459
  543POPC   C1B12043  14.576  35.749   8.625
  543POPC   C2B12044  14.780  36.004   8.316
  543POPC   C3B12045  14.768  35.879   7.888
  543POPC   C4B12046  14.722  35.578   7.545
  544POPC   NC312047  38.281   9.438   9.609
  544POPC   PO412048  38.469  10.100   9.483
  544POPC   GL112049  38.350   9.814   9.136
  544POPC   GL212050  38.070   9.590   9.163
  544POPC   C1A12051  38.547   9.684   8.740
  544POPC   D2A12052  38.776   9.486   8.369
  544POPC   C3A12053  38.642   9.662   7.973
  544POPC   C4A12054  38.555  10.111   7.832
  544POPC   C1B12055  38.135   9.385   8.770
  544POPC   C2B12056  38.232   9.516   8.350
  544POPC   C3B12057  38.131   9.570   7.909
  544POPC   C4B12058  38.189   9.214   7.640
  545POPC   NC312059   8.316  43.721   9.295
  545POPC   PO412060   8.043  44.377   9.516
  545POPC   GL112061   8.136  44.176   9.115
  545POPC   GL212062   8.058  43.846   8.898
  545POPC   C1A12063   8.224  44.278   8.679
  545POPC   D2A12064   8.167  44.048   8.269
  545POPC   C3A12065   8.114  44.251   7.855
  545POPC   C4A12066   8.382  44.251   7.452
  545POPC   C1B12067   8.453  43.809   8.631
  545POPC   C2B12068   8.634  43.633   8.228
  545POPC   C3B12069   8.533  43.533   7.755
  545POPC   C4B12070   8.516  43.600   7.266
  546POPC   NC312071  28.224   4.845   9.663
  546POPC   PO412072  28.434   5.422   9.562
  546POPC   GL112073  28.318   5.136   9.259
  546POPC   GL212074  27.991   5.212   9.269
  546POPC   C1A12075  28.292   5.009   8.859
  546POPC   D2A12076  28.551   4.872   8.525
  546POPC   C3A12077  28.350   4.925   8.151
  546POPC   C4A12078  28.343   5.147   7.758
  546POPC   C1B12079  27.915   5.400   8.863
  546POPC   C2B12080  27.991   5.223   8.444
  546POPC   C3B12081  28.121   5.458   8.109
  546POPC   C4B12082  28.128   5.611   7.721
  547POPC   NC312083  27.896  13.486   9.744
  547POPC   PO412084  27.462  13.908   9.472
  547POPC   GL112085  27.491  13.663   9.080
  547POPC   GL212086  27.748  13.403   9.119
  547POPC   C1A12087  27.594  13.646   8.638
  547POPC   D2A12088  27.647  13.403   8.280
  547POPC   C3A12089  27.550  13.673   7.948
  547POPC   C4A12090  27.805  14.013   7.831
  547POPC   C1B12091  27.434  13.201   8.812
  547POPC   C2B12092  27.172  13.362   8.465
  547POPC   C3B12093  27.158  13.313   8.034
  547POPC   C4B12094  27.191  13.333   7.599
  548POPC   NC312095  29.710  18.976   9.501
  548POPC   PO412096  30.443  18.847   9.549
  548POPC   GL112097  30.122  18.877   9.219
  548POPC   GL212098  30.009  19.210   9.140
  548POPC   C1A12099  29.876  18.854   8.801
  548POPC   D2A12100  29.941  19.072   8.419
  548POPC   C3A12101  29.831  18.921   7.997
  548POPC   C4A12102  29.607  19.058   7.594
  548POPC   C1B12103  30.297  19.147   8.831
  548POPC   C2B12104  30.426  19.245   8.421
  548POPC   C3B12105  30.258  19.288   8.027
  548POPC   C4B12106  30.140  19.100   7.651
  549POPC   NC312107  20.983  19.694   9.894
  549POPC   PO412108  20.434  19.839   9.778
  549POPC   GL112109  20.600  19.791   9.339
  549POPC   GL212110  20.498  20.085   9.167
  549POPC   C1A12111  20.616  19.717   8.834
  549POPC   D2A12112  20.503  19.744   8.349
  549POPC   C3A12113  20.684  19.754   7.915
  549POPC   C4A12114  20.698  19.501   7.539
  549POPC   C1B12115  20.409  20.188   8.723
  549POPC   C2B12116  20.477  20.278   8.288
  549POPC   C3B12117  20.392  20.161   7.888
  549POPC   C4B12118  20.274  20.352   7.534
  550POPC   NC312119  18.070  36.183   9.347
  550POPC   PO412120  17.409  36.073   9.579
  550POPC   GL112121  17.333  36.174   9.159
  550POPC   GL212122  17.664  36.314   9.072
  550POPC   C1A12123  17.389  36.038   8.731
  550POPC   D2A12124  17.598  36.096   8.340
  550POPC   C3A12125  17.265  36.119   8.052
  550POPC   C4A12126  17.099  35.828   7.761
  550POPC   C1B12127  17.935  36.366   8.674
  550POPC   C2B12128  17.985  36.422   8.209
  550POPC   C3B12129  17.692  36.406   7.894
  550POPC   C4B12130  17.480  36.147   7.588
  551POPC   NC312131  13.710  42.964   9.494
  551POPC   PO412132  13.692  43.643   9.516
  551POPC   GL112133  13.488  43.376   9.172
  551POPC   GL212134  13.669  43.101   9.019
  551POPC   C1A12135  13.327  43.262   8.699
  551POPC   D2A12136  13.447  42.981   8.307
  551POPC   C3A12137  13.371  43.158   7.867
  551POPC   C4A12138  13.512  43.021   7.439
  551POPC   C1B12139  13.992  43.115   8.735
  551POPC   C2B12140  13.991  42.953   8.325
  551POPC   C3B12141  13.965  42.665   8.004
  551POPC   C4B12142  14.069  42.710   7.593
  552POPC   NC312143   1.014  38.523   9.573
  552POPC   PO412144   1.694  38.569   9.366
  552POPC   GL112145   1.515  38.387   9.061
  552POPC   GL212146   1.176  38.442   9.106
  552POPC   C1A12147   1.374  38.518   8.640
  552POPC   D2A12148   1.194  38.344   8.271
  552POPC   C3A12149   1.414  38.469   7.903
  552POPC   C4A12150   1.407  38.255   7.497
  552POPC   C1B12151   0.864  38.633   8.834
  552POPC   C2B12152   0.763  38.606   8.374
  552POPC   C3B12153   0.919  38.630   7.922
  552POPC   C4B12154   1.051  38.602   7.477
  553POPC   NC312155  40.382  24.206   9.431
  553POPC   PO412156  40.180  23.601   9.558
  553POPC   GL112157  39.988  23.721   9.191
  553POPC   GL212158  39.724  23.923   9.211
  553POPC   C1A12159  39.892  23.636   8.766
  553POPC   D2A12160  40.087  23.461   8.402
  553POPC   C3A12161  39.932  23.587   8.011
  553POPC   C4A12162  40.114  23.546   7.625
  553POPC   C1B12163  40.032  24.109   8.876
  553POPC   C2B12164  40.147  24.018   8.444
  553POPC   C3B12165  40.121  24.082   8.028
  553POPC   C4B12166  39.863  24.047   7.696
  554POPC   NC312167  29.751   5.378   9.297
  554POPC   PO412168  29.656   4.959   9.722
  554POPC   GL112169  29.857   4.804   9.311
  554POPC   GL212170  30.228   4.893   9.209
  554POPC   C1A12171  29.837   4.786   8.843
  554POPC   D2A12172  29.602   4.805   8.438
  554POPC   C3A12173  29.885   4.822   8.090
  554POPC   C4A12174  29.823   4.870   7.680
  554POPC   C1B12175  30.245   5.134   8.811
  554POPC   C2B12176  29.962   5.184   8.466
  554POPC   C3B12177  29.870   5.319   8.038
  554POPC   C4B12178  30.037   5.315   7.597
  555POPC   NC312179   0.107   5.970   9.327
  555POPC   PO412180   0.725   5.832   9.573
  555POPC   GL112181   0.603   5.856   9.196
  555POPC   GL212182   0.611   6.224   9.182
  555POPC   C1A12183   0.502   5.671   8.820
  555POPC   D2A12184   0.674   5.776   8.451
  555POPC   C3A12185   0.531   5.687   8.099
  555POPC   C4A12186   0.644   5.611   7.725
  555POPC   C1B12187   0.438   6.190   8.779
  555POPC   C2B12188   0.545   6.258   8.362
  555POPC   C3B12189   0.415   6.161   7.953
  555POPC   C4B12190   0.093   6.198   7.619
  556POPC   NC312191   1.470  18.402   9.388
  556POPC   PO412192   0.923  17.954   9.393
  556POPC   GL112193   1.179  18.123   9.093
  556POPC   GL212194   1.524  18.043   8.983
  556POPC   C1A12195   1.116  18.238   8.706
  556POPC   D2A12196   1.335  18.042   8.392
  556POPC   C3A12197   1.364  18.133   8.000
  556POPC   C4A12198   1.212  18.469   7.813
  556POPC   C1B12199   1.607  18.409   8.683
  556POPC   C2B12200   1.544  18.558   8.223
  556POPC   C3B12201   1.718  18.408   7.762
  556POPC   C4B12202   1.792  18.304   7.263
  557POPC   NC312203   8.715  32.653   9.464
  557POPC   PO412204   9.122  32.114   9.626
  557POPC   GL112205   9.118  32.122   9.163
  557POPC   GL212206   8.888  32.379   9.096
  557POPC   C1A12207   9.008  32.164   8.690
  557POPC   D2A12208   8.775  32.175   8.312
  557POPC   C3A12209   9.065  32.242   7.959
  557POPC   C4A12210   9.061  32.090   7.555
  557POPC   C1B12211   8.668  32.556   8.726
  557POPC   C2B12212   8.675  32.781   8.330
  557POPC   C3B12213   8.660  32.570   7.927
  557POPC   C4B12214   8.864  32.586   7.520
  558POPC   NC312215   3.384  42.350   9.416
  558POPC   PO412216   3.893  41.812   9.403
  558POPC   GL112217   3.642  42.053   9.063
  558POPC   GL212218   3.293  41.954   9.061
  558POPC   C1A12219   3.620  42.461   8.785
  558POPC   D2A12220   3.792  42.672   8.408
  558POPC   C3A12221   3.631  42.561   8.014
  558POPC   C4A12222   3.663  42.367   7.643
  558POPC   C1B12223   3.203  42.183   8.678
  558POPC   C2B12224   3.288  42.231   8.229
  558POPC   C3B12225   3.185  42.228   7.768
  558POPC   C4B12226   3.247  42.472   7.342
  559POPC   NC312227  12.514  33.312   9.416
  559POPC   PO412228  12.960  32.738   9.546
  559POPC   GL112229  13.068  32.829   9.150
  559POPC   GL212230  12.843  33.080   9.098
  559POPC   C1A12231  13.110  32.817   8.722
  559POPC   D2A12232  12.885  32.665   8.357
  559POPC   C3A12233  13.010  32.930   8.007
  559POPC   C4A12234  12.905  33.202   7.673
  559POPC   C1B12235  12.627  33.029   8.718
  559POPC   C2B12236  12.697  33.207   8.317
  559POPC   C3B12237  12.491  33.341   7.930
  559POPC   C4B12238  12.419  33.093   7.543
  560POPC   NC312239  19.720  38.750   9.428
  560POPC   PO412240  19.461  39.381   9.457
  560POPC   GL112241  19.250  39.064   9.210
  560POPC   GL212242  18.875  39.052   9.152
  560POPC   C1A12243  19.236  39.086   8.775
  560POPC   D2A12244  18.974  39.046   8.426
  560POPC   C3A12245  19.235  39.037   8.065
  560POPC   C4A12246  19.239  39.204   7.658
  560POPC   C1B12247  18.819  39.385   8.838
  560POPC   C2B12248  18.650  39.451   8.436
  560POPC   C3B12249  18.829  39.352   8.029
  560POPC   C4B12250  18.873  39.552   7.637
  561POPC   NC312251  43.087  32.164   9.387
  561POPC   PO412252  43.204  32.788   9.415
  561POPC   GL112253  43.296  32.511   9.092
  561POPC   GL212254  42.947  32.565   9.032
  561POPC   C1A12255  43.305  32.418   8.656
  561POPC   D2A12256  43.087  32.409   8.246
  561POPC   C3A12257  43.208  32.187   7.900
  561POPC   C4A12258  43.609  32.262   7.736
  561POPC   C1B12259  42.854  32.207   8.768
  561POPC   C2B12260  42.782  32.013   8.372
  561POPC   C3B12261  42.795  31.821   7.979
  561POPC   C4B12262  42.851  31.982   7.566
  562POPC   NC312263   7.782  15.288   9.406
  562POPC   PO412264   8.380  15.048   9.508
  562POPC   GL112265   8.175  15.109   9.146
  562POPC   GL212266   7.896  14.860   9.157
  562POPC   C1A12267   8.338  15.123   8.741
  562POPC   D2A12268   8.543  15.408   8.453
  562POPC   C3A12269   8.404  15.268   8.058
  562POPC   C4A12270   8.487  14.897   7.788
  562POPC   C1B12271   7.798  15.101   8.776
  562POPC   C2B12272   7.908  15.278   8.397
  562POPC   C3B12273   7.893  15.104   7.995
  562POPC   C4B12274   8.107  15.299   7.651
  563POPC   NC312275  44.193  38.832   9.624
  563POPC   PO412276  43.835  38.276   9.499
  563POPC   GL112277  44.087  38.502   9.231
  563POPC   GL212278  43.826  38.463   9.008
  563POPC   C1A12279  44.280  38.603   8.818
  563POPC   D2A12280  44.005  38.530   8.521
  563POPC   C3A12281  44.073  38.472   8.112
  563POPC   C4A12282  44.341  38.519   7.819
  563POPC   C1B12283  43.665  38.186   8.722
  563POPC   C2B12284  43.477  37.926   8.396
  563POPC   C3B12285  43.511  37.992   7.964
  563POPC   C4B12286  43.881  38.156   7.763
  564POPC   NC312287  37.406  16.953   9.420
  564POPC   PO412288  38.009  16.497   9.537
  564POPC   GL112289  37.913  16.632   9.126
  564POPC   GL212290  37.653  16.382   9.138
  564POPC   C1A12291  37.732  16.678   8.687
  564POPC   D2A12292  37.462  16.526   8.301
  564POPC   C3A12293  37.612  16.784   7.919
  564POPC   C4A12294  37.331  17.124   7.781
  564POPC   C1B12295  37.765  16.182   8.753
  564POPC   C2B12296  37.922  16.306   8.341
  564POPC   C3B12297  37.746  16.281   7.930
  564POPC   C4B12298  37.607  16.388   7.521
  565POPC   NC312299  21.987   8.921   9.496
  565POPC   PO412300  22.266   9.412   9.559
  565POPC   GL112301  22.355   9.149   9.171
  565POPC   GL212302  22.228   8.787   9.075
  565POPC   C1A12303  22.338   9.174   8.712
  565POPC   D2A12304  22.102   9.138   8.312
  565POPC   C3A12305  22.175   8.958   7.882
  565POPC   C4A12306  22.158   8.991   7.434
  565POPC   C1B12307  22.355   8.680   8.653
  565POPC   C2B12308  22.521   8.849   8.223
  565POPC   C3B12309  22.614   8.766   7.737
  565POPC   C4B12310  22.499   8.668   7.281
  566POPC   NC312311   6.433   3.677   9.672
  566POPC   PO412312   6.340   3.155   9.227
  566POPC   GL112313   6.653   3.509   9.171
  566POPC   GL212314   6.467   3.827   9.165
  566POPC   C1A12315   6.847   3.436   8.764
  566POPC   D2A12316   6.642   3.151   8.457
  566POPC   C3A12317   6.590   3.307   8.052
  566POPC   C4A12318   6.754   3.594   7.794
  566POPC   C1B12319   6.387   3.693   8.740
  566POPC   C2B12320   6.476   3.715   8.314
  566POPC   C3B12321   6.264   3.761   7.899
  566POPC   C4B12322   6.238   3.814   7.432
  567POPC   NC312323  37.129  24.984   9.602
  567POPC   PO412324  37.426  25.545   9.507
  567POPC   GL112325  36.965  25.476   9.311
  567POPC   GL212326  36.831  25.120   9.214
  567POPC   C1A12327  36.815  25.493   8.873
  567POPC   D2A12328  36.881  25.603   8.459
  567POPC   C3A12329  36.600  25.503   8.121
  567POPC   C4A12330  36.792  25.365   7.775
  567POPC   C1B12331  37.058  25.015   8.809
  567POPC   C2B12332  36.927  25.072   8.385
  567POPC   C3B12333  36.991  24.949   7.984
  567POPC   C4B12334  37.202  25.090   7.630
  568POPC   NC312335  44.158  25.901   9.671
  568POPC   PO412336  43.681  26.313   9.709
  568POPC   GL112337  43.816  26.057   9.307
  568POPC   GL212338  44.173  26.020   9.162
  568POPC   C1A12339  43.746  26.140   8.855
  568POPC   D2A12340  43.925  26.158   8.439
  568POPC   C3A12341  43.704  26.030   8.085
  568POPC   C4A12342  43.713  26.282   7.705
  568POPC   C1B12343  44.120  25.789   8.749
  568POPC   C2B12344  44.000  25.663   8.302
  568POPC   C3B12345  44.135  25.828   7.893
  568POPC   C4B12346  44.154  26.114   7.515
  569POPC   NC312347  38.088  32.044   9.270
  569POPC   PO412348  37.628  32.145   9.684
  569POPC   GL112349  37.600  32.295   9.256
  569POPC   GL212350  37.516  32.014   9.086
  569POPC   C1A12351  37.748  32.448   8.847
  569POPC   D2A12352  37.990  32.308   8.476
  569POPC   C3A12353  37.911  32.505   8.063
  569POPC   C4A12354  37.663  32.348   7.729
  569POPC   C1B12355  37.572  31.998   8.639
  569POPC   C2B12356  37.649  32.048   8.204
  569POPC   C3B12357  37.474  31.879   7.869
  569POPC   C4B12358  37.513  31.942   7.426
  570POPC   NC312359  42.505  15.008   9.460
  570POPC   PO412360  42.247  15.567   9.463
  570POPC   GL112361  42.275  15.374   9.105
  570POPC   GL212362  42.578  15.308   9.032
  570POPC   C1A12363  42.115  15.460   8.695
  570POPC   D2A12364  42.203  15.627   8.277
  570POPC   C3A12365  42.222  15.335   7.917
  570POPC   C4A12366  42.087  15.010   7.579
  570POPC   C1B12367  42.616  15.447   8.595
  570POPC   C2B12368  42.679  15.496   8.141
  570POPC   C3B12369  42.756  15.234   7.794
  570POPC   C4B12370  42.676  14.942   7.445
  571POPC   NC312371  36.614  22.808   9.556
  571POPC   PO412372  37.306  22.667   9.443
  571POPC   GL112373  36.979  22.867   9.182
  571POPC   GL212374  36.702  22.659   9.080
  571POPC   C1A12375  36.974  23.155   8.844
  571POPC   D2A12376  36.818  23.114   8.410
  571POPC   C3A12377  36.962  22.786   8.152
  571POPC   C4A12378  37.029  23.129   7.850
  571POPC   C1B12379  36.914  22.672   8.679
  571POPC   C2B12380  37.310  22.559   8.507
  571POPC   C3B12381  37.385  22.419   8.093
  571POPC   C4B12382  37.153  22.455   7.703
  572POPC   NC312383  32.655   2.851   9.569
  572POPC   PO412384  33.257   2.515   9.699
  572POPC   GL112385  33.093   2.781   9.320
  572POPC   GL212386  33.328   2.881   9.064
  572POPC   C1A12387  32.843   2.897   8.930
  572POPC   D2A12388  32.694   2.704   8.593
  572POPC   C3A12389  32.742   2.603   8.156
  572POPC   C4A12390  32.894   2.773   7.757
  572POPC   C1B12391  33.200   2.632   8.669
  572POPC   C2B12392  33.197   2.378   8.284
  572POPC   C3B12393  33.382   2.506   7.892
  572POPC   C4B12394  33.485   2.546   7.440
  573POPC   NC312395  19.630   9.094   9.568
  573POPC   PO412396  20.187   8.655   9.568
  573POPC   GL112397  19.925   8.803   9.242
  573POPC   GL212398  19.530   8.740   9.222
  573POPC   C1A12399  19.842   8.903   8.816
  573POPC   D2A12400  19.576   9.010   8.468
  573POPC   C3A12401  19.799   8.845   8.099
  573POPC   C4A12402  19.835   8.910   7.679
  573POPC   C1B12403  19.383   8.630   8.799
  573POPC   C2B12404  19.527   8.515   8.390
  573POPC   C3B12405  19.426   8.488   7.943
  573POPC   C4B12406  19.353   8.778   7.585
  574POPC   NC312407  22.816  15.288   9.432
  574POPC   PO412408  23.400  15.523   9.312
  574POPC   GL112409  23.183  15.131   9.085
  574POPC   GL212410  22.824  15.133   8.953
  574POPC   C1A12411  23.160  14.854   8.707
  574POPC   D2A12412  22.937  14.840   8.284
  574POPC   C3A12413  23.103  15.098   7.963
  574POPC   C4A12414  23.202  15.459   7.684
  574POPC   C1B12415  22.639  15.181   8.545
  574POPC   C2B12416  22.566  15.426   8.159
  574POPC   C3B12417  22.711  15.340   7.734
  574POPC   C4B12418  22.804  14.999   7.470
  575POPC   NC312419  17.757   8.681   9.446
  575POPC   PO412420  18.278   9.076   9.524
  575POPC   GL112421  18.372   9.016   9.113
  575POPC   GL212422  18.360   9.373   9.081
  575POPC   C1A12423  18.528   9.066   8.706
  575POPC   D2A12424  18.266   9.002   8.381
  575POPC   C3A12425  18.530   8.995   8.060
  575POPC   C4A12426  18.445   8.683   7.755
  575POPC   C1B12427  18.104   9.373   8.734
  575POPC   C2B12428  17.966   9.444   8.315
  575POPC   C3B12429  18.106   9.280   7.942
  575POPC   C4B12430  18.374   9.160   7.608
  576POPC   NC312431  38.584  13.904   9.563
  576POPC   PO412432  38.008  13.590   9.368
  576POPC   GL112433  38.427  13.513   9.180
  576POPC   GL212434  38.493  13.828   9.076
  576POPC   C1A12435  38.719  13.513   8.766
  576POPC   D2A12436  38.807  13.589   8.320
  576POPC   C3A12437  38.602  13.335   7.964
  576POPC   C4A12438  38.533  13.397   7.522
  576POPC   C1B12439  38.208  13.726   8.736
  576POPC   C2B12440  38.285  13.584   8.326
  576POPC   C3B12441  38.245  13.682   7.897
  576POPC   C4B12442  37.910  13.654   7.615
  577POPC   NC312443  17.026   8.515   9.480
  577POPC   PO412444  17.190   7.848   9.298
  577POPC   GL112445  16.943   8.151   9.025
  577POPC   GL212446  16.725   7.956   8.814
  577POPC   C1A12447  17.053   8.308   8.636
  577POPC   D2A12448  17.093   8.471   8.262
  577POPC   C3A12449  17.041   8.225   7.894
  577POPC   C4A12450  16.778   8.185   7.559
  577POPC   C1B12451  16.497   8.313   8.653
  577POPC   C2B12452  16.213   8.301   8.316
  577POPC   C3B12453  16.400   8.154   7.948
  577POPC   C4B12454  16.370   8.482   7.669
  578POPC   NC312455   3.236  14.889   9.472
  578POPC   PO412456   3.806  14.458   9.441
  578POPC   GL112457   3.562  14.272   9.129
  578POPC   GL212458   3.412  14.599   9.065
  578POPC   C1A12459   3.392  14.103   8.746
  578POPC   D2A12460   3.202  14.217   8.346
  578POPC   C3A12461   3.445  14.269   7.986
  578POPC   C4A12462   3.627  14.609   7.752
  578POPC   C1B12463   3.596  14.555   8.661
  578POPC   C2B12464   3.552  14.685   8.264
  578POPC   C3B12465   3.186  14.713   7.993
  578POPC   C4B12466   3.195  14.838   7.580
  579POPC   NC312467   7.509  37.360   9.439
  579POPC   PO412468   7.400  38.046   9.421
  579POPC   GL112469   7.556  37.817   9.099
  579POPC   GL212470   7.477  37.533   8.958
  579POPC   C1A12471   7.681  37.982   8.759
  579POPC   D2A12472   7.689  38.113   8.377
  579POPC   C3A12473   7.459  37.905   8.091
  579POPC   C4A12474   7.547  37.618   7.774
  579POPC   C1B12475   7.605  37.556   8.516
  579POPC   C2B12476   7.427  37.364   8.201
  579POPC   C3B12477   7.303  37.173   7.846
  579POPC   C4B12478   7.525  37.238   7.428
  580POPC   NC312479  27.962  30.962   9.729
  580POPC   PO412480  27.545  31.510   9.577
  580POPC   GL112481  27.275  31.519   9.238
  580POPC   GL212482  27.567  31.429   9.044
  580POPC   C1A12483  27.121  31.490   8.830
  580POPC   D2A12484  27.372  31.399   8.491
  580POPC   C3A12485  27.179  31.437   8.103
  580POPC   C4A12486  27.423  31.465   7.730
  580POPC   C1B12487  27.856  31.349   8.705
  580POPC   C2B12488  28.101  31.385   8.354
  580POPC   C3B12489  27.826  31.282   8.026
  580POPC   C4B12490  27.885  31.248   7.615
  581POPC   NC312491  27.345  44.501   9.572
  581POPC   PO412492  27.820  44.978   9.504
  581POPC   GL112493  27.579  44.871   9.153
  581POPC   GL212494  27.681  44.519   9.186
  581POPC   C1A12495  27.497  44.755   8.714
  581POPC   D2A12496  27.553  44.542   8.333
  581POPC   C3A12497  27.201  44.355   8.106
  581POPC   C4A12498  27.372  44.552   7.765
  581POPC   C1B12499  27.664  44.273   8.802
  581POPC   C2B12500  27.522  44.039   8.413
  581POPC   C3B12501  27.646  44.145   7.984
  581POPC   C4B12502  27.696  44.255   7.528
  582POPC   NC312503  10.300  42.071   9.629
  582POPC   PO412504  10.694  42.624   9.643
  582POPC   GL112505  10.572  42.313   9.253
  582POPC   GL212506  10.235  42.208   9.132
  582POPC   C1A12507  10.628  42.090   8.785
  582POPC   D2A12508  10.771  41.952   8.368
  582POPC   C3A12509  10.568  42.062   8.011
  582POPC   C4A12510  10.451  42.473   7.788
  582POPC   C1B12511  10.310  42.463   8.750
  582POPC   C2B12512  10.327  42.407   8.302
  582POPC   C3B12513  10.094  42.188   7.954
  582POPC   C4B12514  10.185  42.129   7.476
  583POPC   NC312515  42.744  40.130   9.333
  583POPC   PO412516  43.247  39.783   9.541
  583POPC   GL112517  43.192  40.070   9.059
  583POPC   GL212518  43.356  40.400   8.983
  583POPC   C1A12519  43.484  40.123   8.606
  583POPC   D2A12520  43.589  39.829   8.307
  583POPC   C3A12521  43.238  39.989   8.118
  583POPC   C4A12522  42.952  39.929   7.847
  583POPC   C1B12523  42.996  40.317   8.662
  583POPC   C2B12524  42.746  40.245   8.277
  583POPC   C3B12525  42.816  40.405   7.862
  583POPC   C4B12526  43.270  40.464   7.821
  584POPC   NC312527  41.064  16.169   9.473
  584POPC   PO412528  40.398  16.283   9.534
  584POPC   GL112529  40.630  16.166   9.172
  584POPC   GL212530  40.554  15.819   9.112
  584POPC   C1A12531  40.743  16.148   8.722
  584POPC   D2A12532  40.890  15.911   8.385
  584POPC   C3A12533  40.910  16.160   8.008
  584POPC   C4A12534  40.860  16.303   7.584
  584POPC   C1B12535  40.658  15.584   8.753
  584POPC   C2B12536  40.512  15.545   8.345
  584POPC   C3B12537  40.737  15.607   7.982
  584POPC   C4B12538  40.966  15.776   7.673
  585POPC   NC312539  27.721  40.429   9.481
  585POPC   PO412540  27.234  39.987   9.550
  585POPC   GL112541  27.481  40.073   9.170
  585POPC   GL212542  27.865  40.094   9.127
  585POPC   C1A12543  27.372  40.126   8.743
  585POPC   D2A12544  27.197  39.850   8.437
  585POPC   C3A12545  27.387  39.838   8.026
  585POPC   C4A12546  27.435  39.940   7.579
  585POPC   C1B12547  27.928  40.161   8.704
  585POPC   C2B12548  27.816  39.999   8.320
  585POPC   C3B12549  27.809  40.094   7.884
  585POPC   C4B12550  27.892  39.739   7.558
  586POPC   NC312551  37.446  27.513   9.471
  586POPC   PO412552  37.813  28.007   9.422
  586POPC   GL112553  37.776  27.784   9.062
  586POPC   GL212554  37.820  27.446   9.070
  586POPC   C1A12555  37.845  27.769   8.606
  586POPC   D2A12556  37.656  27.729   8.173
  586POPC   C3A12557  37.927  27.601   7.801
  586POPC   C4A12558  37.812  27.535   7.333
  586POPC   C1B12559  37.438  27.513   8.810
  586POPC   C2B12560  37.330  27.392   8.409
  586POPC   C3B12561  37.475  27.240   8.032
  586POPC   C4B12562  37.274  27.102   7.673
  587POPC   NC312563  37.219  35.246   9.357
  587POPC   PO412564  36.547  34.982   9.529
  587POPC   GL112565  36.727  35.204   9.169
  587POPC   GL212566  36.553  35.476   9.134
  587POPC   C1A12567  36.927  35.432   8.788
  587POPC   D2A12568  37.125  35.534   8.415
  587POPC   C3A12569  36.883  35.367   8.076
  587POPC   C4A12570  36.930  35.205   7.674
  587POPC   C1B12571  36.424  35.451   8.673
  587POPC   C2B12572  36.650  35.729   8.393
  587POPC   C3B12573  36.913  35.869   8.044
  587POPC   C4B12574  36.728  35.678   7.699
  588POPC   NC312575  35.013  18.153   9.415
  588POPC   PO412576  35.589  18.537   9.437
  588POPC   GL112577  35.675  18.339   9.089
  588POPC   GL212578  35.637  17.988   9.171
  588POPC   C1A12579  35.736  18.492   8.681
  588POPC   D2A12580  35.678  18.354   8.284
  588POPC   C3A12581  35.711  18.488   7.879
  588POPC   C4A12582  35.486  18.422   7.508
  588POPC   C1B12583  35.314  17.979   8.837
  588POPC   C2B12584  35.187  18.132   8.421
  588POPC   C3B12585  35.237  18.260   8.004
  588POPC   C4B12586  34.884  18.465   7.816
  589POPC   NC312587   2.067  23.119   9.795
  589POPC   PO412588   2.554  22.809   9.540
  589POPC   GL112589   2.719  22.738   9.080
  589POPC   GL212590   2.951  22.998   8.961
  589POPC   C1A12591   2.637  22.754   8.616
  589POPC   D2A12592   2.582  22.542   8.211
  589POPC   C3A12593   2.606  22.778   7.819
  589POPC   C4A12594   2.429  22.823   7.364
  589POPC   C1B12595   3.139  22.661   8.714
  589POPC   C2B12596   3.084  22.561   8.313
  589POPC   C3B12597   3.109  22.791   7.927
  589POPC   C4B12598   3.162  22.557   7.586
  590POPC   NC312599  25.718  44.395   9.519
  590POPC   PO412600  26.330  44.699   9.476
  590POPC   GL112601  26.060  44.617   9.157
  590POPC   GL212602  26.012  44.976   9.129
  590POPC   C1A12603  26.172  44.427   8.758
  590POPC   D2A12604  26.304  44.601   8.357
  590POPC   C3A12605  26.118  44.453   7.983
  590POPC   C4A12606  26.308  44.408   7.560
  590POPC   C1B12607  26.086  44.938   8.672
  590POPC   C2B12608  26.133   0.101   8.263
  590POPC   C3B12609  25.903  44.947   7.936
  590POPC   C4B12610  25.798  44.678   7.644
  591POPC   NC312611  11.370  20.769   9.685
  591POPC   PO412612  11.175  20.260   9.693
  591POPC   GL112613  11.170  20.534   9.274
  591POPC   GL212614  11.255  20.930   9.227
  591POPC   C1A12615  11.089  20.646   8.838
  591POPC   D2A12616  10.981  20.472   8.474
  591POPC   C3A12617  11.319  20.433   8.205
  591POPC   C4A12618  11.237  20.579   7.817
  591POPC   C1B12619  11.447  21.029   8.833
  591POPC   C2B12620  11.315  20.919   8.403
  591POPC   C3B12621  11.474  20.980   7.964
  591POPC   C4B12622  11.324  20.925   7.460
  592POPC   NC312623  34.333  19.845   9.678
  592POPC   PO412624  33.615  19.763   9.881
  592POPC   GL112625  33.844  19.784   9.409
  592POPC   GL212626  34.161  19.690   9.215
  592POPC   C1A12627  33.868  20.011   8.968
  592POPC   D2A12628  34.012  20.024   8.522
  592POPC   C3A12629  33.756  20.031   8.154
  592POPC   C4A12630  33.868  19.990   7.727
  592POPC   C1B12631  33.977  19.522   8.833
  592POPC   C2B12632  33.991  19.369   8.399
  592POPC   C3B12633  33.965  19.555   7.986
  592POPC   C4B12634  34.265  19.679   7.622
  593POPC   NC312635  11.152  38.012   9.558
  593POPC   PO412636  11.051  38.755   9.588
  593POPC   GL112637  11.159  38.431   9.265
  593POPC   GL212638  10.992  38.169   9.073
  593POPC   C1A12639  11.466  38.297   8.958
  593POPC   D2A12640  11.688  38.509   8.649
  593POPC   C3A12641  11.567  38.495   8.231
  593POPC   C4A12642  11.388  38.614   7.863
  593POPC   C1B12643  11.026  38.398   8.660
  593POPC   C2B12644  11.058  38.367   8.200
  593POPC   C3B12645  11.030  38.236   7.731
  593POPC   C4B12646  11.127  38.069   7.275
  594POPC   NC312647  36.401  13.528   9.319
  594POPC   PO412648  36.000  13.875   9.669
  594POPC   GL112649  35.957  13.695   9.176
  594POPC   GL212650  35.893  13.320   9.135
  594POPC   C1A12651  36.243  13.630   8.721
  594POPC   D2A12652  36.456  13.510   8.324
  594POPC   C3A12653  36.321  13.814   7.998
  594POPC   C4A12654  36.518  14.095   7.721
  594POPC   C1B12655  35.765  13.495   8.745
  594POPC   C2B12656  35.944  13.546   8.324
  594POPC   C3B12657  36.114  13.346   7.970
  594POPC   C4B12658  35.987  13.480   7.578
  595POPC   NC312659  25.091   8.818   9.376
  595POPC   PO412660  25.734   9.032   9.501
  595POPC   GL112661  25.485   9.059   9.096
  595POPC   GL212662  25.136   9.237   9.080
  595POPC   C1A12663  25.420   9.175   8.654
  595POPC   D2A12664  25.202   9.298   8.305
  595POPC   C3A12665  25.406   9.215   7.902
  595POPC   C4A12666  25.487   9.194   7.448
  595POPC   C1B12667  24.960   9.005   8.764
  595POPC   C2B12668  24.966   8.825   8.395
  595POPC   C3B12669  24.929   8.956   8.005
  595POPC   C4B12670  25.035   9.046   7.605
  596POPC   NC312671   9.981  35.946   9.579
  596POPC   PO412672   9.289  35.974   9.690
  596POPC   GL112673   9.583  35.958   9.259
  596POPC   GL212674   9.847  36.264   9.219
  596POPC   C1A12675   9.615  36.130   8.808
  596POPC   D2A12676   9.635  36.488   8.531
  596POPC   C3A12677   9.834  36.467   8.111
  596POPC   C4A12678   9.687  36.265   7.741
  596POPC   C1B12679  10.121  36.095   8.906
  596POPC   C2B12680  10.028  36.149   8.473
  596POPC   C3B12681   9.852  35.936   8.123
  596POPC   C4B12682  10.084  35.877   7.755
  597POPC   NC312683   4.750  37.063   9.559
  597POPC   PO412684   4.181  36.873   9.529
  597POPC   GL112685   4.380  36.757   9.202
  597POPC   GL212686   4.446  37.134   9.152
  597POPC   C1A12687   4.373  36.842   8.762
  597POPC   D2A12688   4.108  37.011   8.425
  597POPC   C3A12689   4.291  36.950   8.028
  597POPC   C4A12690   4.111  36.829   7.662
  597POPC   C1B12691   4.194  37.325   8.854
  597POPC   C2B12692   4.207  37.533   8.470
  597POPC   C3B12693   4.370  37.449   8.080
  597POPC   C4B12694   4.351  37.304   7.657
  598POPC   NC312695   2.982   8.647   9.639
  598POPC   PO412696   2.814   9.215   9.465
  598POPC   GL112697   2.889   8.864   9.184
  598POPC   GL212698   3.250   8.677   9.190
  598POPC   C1A12699   2.680   8.940   8.781
  598POPC   D2A12700   2.768   9.117   8.393
  598POPC   C3A12701   2.478   9.129   8.059
  598POPC   C4A12702   2.610   8.985   7.691
  598POPC   C1B12703   3.191   8.783   8.771
  598POPC   C2B12704   2.939   8.631   8.442
  598POPC   C3B12705   2.916   8.761   8.026
  598POPC   C4B12706   2.994   8.677   7.592
  599POPC   NC312707  39.947   8.371   9.613
  599POPC   PO412708  39.669   7.867   9.282
  599POPC   GL112709  40.038   8.045   9.141
  599POPC   GL212710  40.127   8.407   9.140
  599POPC   C1A12711  40.171   8.085   8.728
  599POPC   D2A12712  40.157   7.896   8.323
  599POPC   C3A12713  40.270   8.172   7.983
  599POPC   C4A12714  40.360   7.897   7.679
  599POPC   C1B12715  39.941   8.543   8.738
  599POPC   C2B12716  39.933   8.355   8.332
  599POPC   C3B12717  39.760   8.028   8.042
  599POPC   C4B12718  39.852   8.097   7.643
  600POPC   NC312719  35.531  42.629   9.543
  600POPC   PO412720  35.097  42.021   9.463
  600POPC   GL112721  35.239  42.302   9.229
  600POPC   GL212722  35.538  42.292   9.152
  600POPC   C1A12723  35.169  42.327   8.800
  600POPC   D2A12724  35.170  42.542   8.434
  600POPC   C3A12725  35.120  42.247   8.150
  600POPC   C4A12726  35.195  42.269   7.719
  600POPC   C1B12727  35.656  42.518   8.815
  600POPC   C2B12728  35.679  42.446   8.379
  600POPC   C3B12729  35.469  42.619   8.019
  600POPC   C4B12730  35.465  42.709   7.603
  601POPC   NC312731  30.165  10.739   9.637
  601POPC   PO412732  29.564  10.476   9.564
  601POPC   GL112733  29.903  10.477   9.240
  601POPC   GL212734  30.265  10.592   9.161
  601POPC   C1A12735  29.871  10.336   8.813
  601POPC   D2A12736  29.965  10.281   8.366
  601POPC   C3A12737  29.916  10.645   8.095
  601POPC   C4A12738  29.917  10.766   7.683
  601POPC   C1B12739  30.453  10.629   8.740
  601POPC   C2B12740  30.402  10.601   8.277
  601POPC   C3B12741  30.379  10.617   7.820
  601POPC   C4B12742  30.334  10.835   7.402
  602POPC   NC312743  41.593  27.719   9.588
  602POPC   PO412744  41.231  27.868   9.115
  602POPC   GL112745  41.560  27.860   8.920
  602POPC   GL212746  41.709  27.526   8.875
  602POPC   C1A12747  41.560  28.068   8.557
  602POPC   D2A12748  41.696  28.009   8.172
  602POPC   C3A12749  41.553  27.628   8.022
  602POPC   C4A12750  41.540  27.468   7.635
  602POPC   C1B12751  41.412  27.567   8.513
  602POPC   C2B12752  41.164  27.303   8.209
  602POPC   C3B12753  41.095  27.188   7.762
  602POPC   C4B12754  41.130  27.389   7.338
  603POPC   NC312755  12.054   5.199   9.684
  603POPC   PO412756  11.825   4.887   9.453
  603POPC   GL112757  11.879   5.196   9.116
  603POPC   GL212758  12.196   5.364   9.210
  603POPC   C1A12759  11.816   5.220   8.628
  603POPC   D2A12760  12.125   5.077   8.296
  603POPC   C3A12761  12.004   4.964   7.865
  603POPC   C4A12762  11.828   4.829   7.444
  603POPC   C1B12763  12.284   5.348   8.756
  603POPC   C2B12764  12.135   5.580   8.368
  603POPC   C3B12765  12.153   5.484   7.904
  603POPC   C4B12766  12.248   5.238   7.507
  604POPC   NC312767  11.900  31.870   9.421
  604POPC   PO412768  12.291  31.301   9.418
  604POPC   GL112769  11.940  31.384   9.188
  604POPC   GL212770  12.145  31.658   9.028
  604POPC   C1A12771  11.791  31.369   8.773
  604POPC   D2A12772  12.024  31.604   8.480
  604POPC   C3A12773  12.021  31.426   8.050
  604POPC   C4A12774  11.877  31.477   7.620
  604POPC   C1B12775  12.364  31.361   8.785
  604POPC   C2B12776  12.332  31.186   8.405
  604POPC   C3B12777  12.458  31.113   8.001
  604POPC   C4B12778  12.327  31.252   7.614
  605POPC   NC312779  35.912  16.523   9.382
  605POPC   PO412780  36.268  17.120   9.634
  605POPC   GL112781  36.206  16.915   9.206
  605POPC   GL212782  35.825  16.940   9.137
  605POPC   C1A12783  36.378  16.660   8.827
  605POPC   D2A12784  36.562  16.756   8.380
  605POPC   C3A12785  36.391  16.609   8.014
  605POPC   C4A12786  36.171  16.842   7.719
  605POPC   C1B12787  35.855  16.670   8.762
  605POPC   C2B12788  36.071  16.617   8.412
  605POPC   C3B12789  35.847  16.609   8.040
  605POPC   C4B12790  35.596  16.650   7.698
  606POPC   NC312791   2.555   3.800   9.618
  606POPC   PO412792   3.081   3.548   9.324
  606POPC   GL112793   2.730   3.664   9.042
  606POPC   GL212794   2.586   3.323   9.006
  606POPC   C1A12795   2.572   3.642   8.585
  606POPC   D2A12796   2.827   3.601   8.199
  606POPC   C3A12797   2.718   3.646   7.779
  606POPC   C4A12798   2.491   3.880   7.457
  606POPC   C1B12799   2.951   3.298   8.714
  606POPC   C2B12800   3.156   3.172   8.339
  606POPC   C3B12801   3.130   3.338   7.887
  606POPC   C4B12802   3.038   3.402   7.441
  607POPC   NC312803  34.064  10.299   9.804
  607POPC   PO412804  33.681  10.681   9.478
  607POPC   GL112805  33.846  10.425   9.181
  607POPC   GL212806  33.487  10.371   9.114
  607POPC   C1A12807  34.131  10.350   8.812
  607POPC   D2A12808  34.393  10.530   8.470
  607POPC   C3A12809  34.233  10.467   8.065
  607POPC   C4A12810  33.839  10.359   7.886
  607POPC   C1B12811  33.621  10.465   8.722
  607POPC   C2B12812  33.619  10.259   8.354
  607POPC   C3B12813  33.444  10.587   8.128
  607POPC   C4B12814  33.409  10.637   7.730
  608POPC   NC312815  18.843  43.501   9.609
  608POPC   PO412816  19.313  43.110   9.746
  608POPC   GL112817  19.133  43.032   9.285
  608POPC   GL212818  19.020  42.755   9.205
  608POPC   C1A12819  19.038  43.179   8.836
  608POPC   D2A12820  19.234  43.206   8.405
  608POPC   C3A12821  18.948  43.349   8.062
  608POPC   C4A12822  19.010  43.441   7.595
  608POPC   C1B12823  19.327  42.768   8.860
  608POPC   C2B12824  19.298  42.681   8.422
  608POPC   C3B12825  19.414  42.772   8.023
  608POPC   C4B12826  19.204  43.001   7.757
  609POPC   NC312827  30.692   0.179   9.540
  609POPC   PO412828  30.365   0.780   9.322
  609POPC   GL112829  30.609   0.454   9.087
  609POPC   GL212830  30.919   0.257   9.098
  609POPC   C1A12831  30.619   0.396   8.624
  609POPC   D2A12832  30.610   0.759   8.323
  609POPC   C3A12833  30.883   0.735   7.955
  609POPC   C4A12834  30.713   0.525   7.637
  609POPC   C1B12835  31.030   0.604   8.791
  609POPC   C2B12836  31.037   0.465   8.359
  609POPC   C3B12837  30.992   0.234   7.960
  609POPC   C4B12838  31.060   0.199   7.490
  610POPC   NC312839  14.021  20.722   9.594
  610POPC   PO412840  14.594  20.565   9.459
  610POPC   GL112841  14.219  20.625   9.134
  610POPC   GL212842  14.100  20.980   9.107
  610POPC   C1A12843  14.140  20.641   8.666
  610POPC   D2A12844  14.355  20.417   8.314
  610POPC   C3A12845  14.189  20.491   7.898
  610POPC   C4A12846  14.085  20.877   7.692
  610POPC   C1B12847  14.536  20.928   8.879
  610POPC   C2B12848  14.669  20.811   8.468
  610POPC   C3B12849  14.428  20.903   8.104
  610POPC   C4B12850  14.584  20.978   7.702
  611POPC   NC312851  12.545  25.076   9.479
  611POPC   PO412852  13.191  25.092   9.590
  611POPC   GL112853  13.128  25.111   9.131
  611POPC   GL212854  12.914  24.820   9.137
  611POPC   C1A12855  13.081  25.081   8.663
  611POPC   D2A12856  12.772  25.048   8.308
  611POPC   C3A12857  13.023  25.106   7.959
  611POPC   C4A12858  13.137  25.470   7.745
  611POPC   C1B12859  12.739  24.712   8.727
  611POPC   C2B12860  12.871  24.553   8.302
  611POPC   C3B12861  12.686  24.714   7.884
  611POPC   C4B12862  12.505  25.118   7.833
  612POPC   NC312863   2.675   5.679   9.759
  612POPC   PO412864   2.337   6.114   9.328
  612POPC   GL112865   2.572   5.935   8.961
  612POPC   GL212866   2.934   5.862   8.956
  612POPC   C1A12867   2.653   5.768   8.556
  612POPC   D2A12868   2.618   5.953   8.209
  612POPC   C3A12869   2.869   5.925   7.922
  612POPC   C4A12870   3.109   6.147   7.645
  612POPC   C1B12871   3.047   5.488   8.793
  612POPC   C2B12872   3.037   5.342   8.391
  612POPC   C3B12873   3.172   5.536   8.024
  612POPC   C4B12874   3.041   5.603   7.581
  613POPC   NC312875  13.974  35.200   9.333
  613POPC   PO412876  13.310  35.515   9.415
  613POPC   GL112877  13.550  35.463   9.087
  613POPC   GL212878  13.897  35.551   8.990
  613POPC   C1A12879  13.273  35.381   8.752
  613POPC   D2A12880  13.212  35.141   8.415
  613POPC   C3A12881  13.313  35.332   8.053
  613POPC   C4A12882  13.527  35.312   7.728
  613POPC   C1B12883  13.747  35.203   8.692
  613POPC   C2B12884  13.694  35.034   8.274
  613POPC   C3B12885  13.956  35.155   7.959
  613POPC   C4B12886  14.010  35.428   7.634
  614POPC   NC312887  18.226  13.963   9.439
  614POPC   PO412888  18.384  13.281   9.563
  614POPC   GL112889  18.481  13.532   9.200
  614POPC   GL212890  18.208  13.713   9.018
  614POPC   C1A12891  18.541  13.418   8.776
  614POPC   D2A12892  18.279  13.513   8.435
  614POPC   C3A12893  18.477  13.462   8.034
  614POPC   C4A12894  18.432  13.638   7.611
  614POPC   C1B12895  18.052  13.937   8.696
  614POPC   C2B12896  18.198  14.000   8.306
  614POPC   C3B12897  18.095  13.773   7.967
  614POPC   C4B12898  18.023  13.938   7.583
  615POPC   NC312899  28.291  19.714   9.615
  615POPC   PO412900  28.887  19.622   9.634
  615POPC   GL112901  28.641  19.670   9.232
  615POPC   GL212902  28.427  19.972   9.168
  615POPC   C1A12903  28.514  19.658   8.766
  615POPC   D2A12904  28.389  19.825   8.335
  615POPC   C3A12905  28.491  19.589   7.939
  615POPC   C4A12906  28.564  19.297   7.596
  615POPC   C1B12907  28.472  20.186   8.739
  615POPC   C2B12908  28.493  20.334   8.291
  615POPC   C3B12909  28.499  20.114   7.890
  615POPC   C4B12910  28.677  20.242   7.521
  616POPC   NC312911   2.300  31.966   9.334
  616POPC   PO412912   1.632  32.059   9.476
  616POPC   GL112913   1.939  32.179   9.065
  616POPC   GL212914   2.188  31.895   8.862
  616POPC   C1A12915   2.275  32.358   8.746
  616POPC   D2A12916   2.262  32.129   8.355
  616POPC   C3A12917   1.977  32.257   8.061
  616POPC   C4A12918   2.021  32.612   7.794
  616POPC   C1B12919   1.832  31.995   8.595
  616POPC   C2B12920   1.704  31.767   8.249
  616POPC   C3B12921   1.992  31.750   7.947
  616POPC   C4B12922   2.344  31.934   7.865
  617POPC   NC312923  11.257  15.487   9.471
  617POPC   PO412924  11.204  14.820   9.396
  617POPC   GL112925  11.309  15.092   9.103
  617POPC   GL212926  11.007  15.270   9.051
  617POPC   C1A12927  11.482  15.151   8.701
  617POPC   D2A12928  11.315  15.157   8.281
  617POPC   C3A12929  11.601  15.156   7.931
  617POPC   C4A12930  11.683  14.834   7.646
  617POPC   C1B12931  10.946  14.998   8.676
  617POPC   C2B12932  10.877  14.870   8.214
  617POPC   C3B12933  10.997  15.052   7.834
  617POPC   C4B12934  11.232  15.210   7.494
  618POPC   NC312935   9.790   0.598   9.483
  618POPC   PO412936   9.831  44.847   9.638
  618POPC   GL112937   9.925   0.143   9.212
  618POPC   GL212938  10.086   0.453   9.041
  618POPC   C1A12939   9.762   0.190   8.758
  618POPC   D2A12940   9.654   0.370   8.344
  618POPC   C3A12941   9.899   0.250   7.956
  618POPC   C4A12942   9.885   0.057   7.547
  618POPC   C1B12943  10.153   0.540   8.597
  618POPC   C2B12944  10.045   0.851   8.296
  618POPC   C3B12945   9.736   0.738   7.996
  618POPC   C4B12946   9.380   0.474   7.872
  619POPC   NC312947  41.926  32.700   9.504
  619POPC   PO412948  41.326  33.013   9.430
  619POPC   GL112949  41.614  32.900   9.120
  619POPC   GL212950  41.477  33.150   8.952
  619POPC   C1A12951  41.526  32.755   8.666
  619POPC   D2A12952  41.552  33.084   8.355
  619POPC   C3A12953  41.454  32.973   7.940
  619POPC   C4A12954  41.674  32.658   7.698
  619POPC   C1B12955  41.845  33.237   8.781
  619POPC   C2B12956  41.970  33.406   8.389
  619POPC   C3B12957  41.804  33.379   7.974
  619POPC   C4B12958  41.918  33.441   7.559
  620POPC   NC312959  42.750  18.311   9.354
  620POPC   PO412960  43.320  18.175   9.683
  620POPC   GL112961  43.259  18.411   9.284
  620POPC   GL212962  43.263  18.159   9.017
  620POPC   C1A12963  43.056  18.624   8.902
  620POPC   D2A12964  42.930  18.652   8.475
  620POPC   C3A12965  43.087  18.365   8.172
  620POPC   C4A12966  43.229  18.511   7.796
  620POPC   C1B12967  42.885  18.188   8.740
  620POPC   C2B12968  42.632  18.096   8.431
  620POPC   C3B12969  42.744  17.983   8.031
  620POPC   C4B12970  43.029  18.054   7.695
  621POPC   NC312971   2.097   1.652   9.396
  621POPC   PO412972   1.847   2.295   9.479
  621POPC   GL112973   2.011   2.065   9.101
  621POPC   GL212974   2.261   1.843   8.949
  621POPC   C1A12975   1.804   1.894   8.707
  621POPC   D2A12976   1.727   1.735   8.276
  621POPC   C3A12977   1.895   2.072   8.025
  621POPC   C4A12978   2.334   2.166   7.924
  621POPC   C1B12979   2.135   1.490   8.669
  621POPC   C2B12980   2.174   1.429   8.206
  621POPC   C3B12981   2.127   1.676   7.846
  621POPC   C4B12982   1.710   1.689   7.688
  622POPC   NC312983  40.077  37.675   9.722
  622POPC   PO412984  39.868  37.247   9.324
  622POPC   GL112985  40.043  37.650   9.158
  622POPC   GL212986  39.786  37.782   9.119
  622POPC   C1A12987  40.291  37.807   8.780
  622POPC   D2A12988  40.207  37.635   8.326
  622POPC   C3A12989  40.048  37.830   7.927
  622POPC   C4A12990  40.017  37.692   7.475
  622POPC   C1B12991  39.822  37.654   8.674
  622POPC   C2B12992  39.716  37.928   8.323
  622POPC   C3B12993  39.583  38.127   7.942
  622POPC   C4B12994  39.397  38.337   7.594
  623POPC   NC312995  26.844   9.494   9.310
  623POPC   PO412996  26.677   9.028   9.835
  623POPC   GL112997  26.747   8.874   9.303
  623POPC   GL212998  26.492   8.858   9.107
  623POPC   C1A12999  26.938   9.035   8.877
  623POPC   D2A13000  26.965   9.241   8.480
  623POPC   C3A13001  26.821   9.041   8.081
  623POPC   C4A13002  26.892   8.842   7.671
  623POPC   C1B13003  26.464   9.018   8.693
  623POPC   C2B13004  26.448   9.262   8.383
  623POPC   C3B13005  26.275   9.285   8.018
  623POPC   C4B13006  26.492   9.187   7.666
  624POPC   NC313007  35.359  14.812   9.438
  624POPC   PO413008  35.840  15.305   9.539
  624POPC   GL113009  35.632  15.155   9.135
  624POPC   GL213010  35.608  15.504   9.083
  624POPC   C1A13011  35.330  14.923   8.815
  624POPC   D2A13012  35.058  14.955   8.454
  624POPC   C3A13013  35.220  14.834   8.050
  624POPC   C4A13014  35.104  14.941   7.650
  624POPC   C1B13015  35.371  15.428   8.724
  624POPC   C2B13016  35.400  15.285   8.310
  624POPC   C3B13017  35.129  15.336   8.009
  624POPC   C4B13018  35.212  15.454   7.630
  625POPC   NC313019  42.543  24.630   9.466
  625POPC   PO413020  41.888  24.712   9.528
  625POPC   GL113021  42.122  24.591   9.176
  625POPC   GL213022  42.163  24.261   9.125
  625POPC   C1A13023  42.386  24.583   8.785
  625POPC   D2A13024  42.498  24.729   8.362
  625POPC   C3A13025  42.526  24.492   7.985
  625POPC   C4A13026  42.551  24.682   7.585
  625POPC   C1B13027  41.944  24.323   8.772
  625POPC   C2B13028  42.169  24.318   8.394
  625POPC   C3B13029  42.080  24.184   8.023
  625POPC   C4B13030  42.244  24.212   7.646
  626POPC   NC313031  44.294  22.003   9.778
  626POPC   PO413032  43.710  22.139   9.691
  626POPC   GL113033  43.720  22.009   9.225
  626POPC   GL213034  43.508  22.276   9.218
  626POPC   C1A13035  43.722  22.110   8.750
  626POPC   D2A13036  43.996  22.311   8.428
  626POPC   C3A13037  43.862  22.216   8.012
  626POPC   C4A13038  43.484  22.054   7.853
  626POPC   C1B13039  43.432  22.508   8.861
  626POPC   C2B13040  43.541  22.570   8.431
  626POPC   C3B13041  43.468  22.561   7.994
  626POPC   C4B13042  43.656  22.499   7.581
  627POPC   NC313043  39.035   8.782   9.576
  627POPC   PO413044  39.379   9.343   9.453
  627POPC   GL113045  39.273   9.108   9.089
  627POPC   GL213046  38.924   8.979   9.119
  627POPC   C1A13047  39.168   9.240   8.644
  627POPC   D2A13048  39.185   9.218   8.154
  627POPC   C3A13049  39.457   9.033   7.781
  627POPC   C4A13050  39.531   9.239   7.339
  627POPC   C1B13051  39.027   8.761   8.788
  627POPC   C2B13052  39.275   8.763   8.434
  627POPC   C3B13053  39.103   8.709   8.034
  627POPC   C4B13054  38.969   8.504   7.683
  628POPC   NC313055   0.100   7.974   9.353
  628POPC   PO413056   0.437   8.422   9.715
  628POPC   GL113057   0.555   8.450   9.203
  628POPC   GL213058   0.537   8.104   9.119
  628POPC   C1A13059   0.635   8.431   8.724
  628POPC   D2A13060   0.394   8.365   8.306
  628POPC   C3A13061   0.424   8.257   7.828
  628POPC   C4A13062   0.234   8.354   7.393
  628POPC   C1B13063   0.555   7.923   8.703
  628POPC   C2B13064   0.359   7.817   8.313
  628POPC   C3B13065   0.177   7.806   7.904
  628POPC   C4B13066   0.354   7.873   7.463
  629POPC   NC313067  27.531   2.863   9.610
  629POPC   PO413068  27.701   3.246   9.152
  629POPC   GL113069  27.666   2.780   9.109
  629POPC   GL213070  27.934   2.695   9.274
  629POPC   C1A13071  27.676   2.522   8.711
  629POPC   D2A13072  27.447   2.684   8.305
  629POPC   C3A13073  27.468   2.864   7.856
  629POPC   C4A13074  27.478   2.651   7.466
  629POPC   C1B13075  28.097   2.817   8.843
  629POPC   C2B13076  27.953   2.817   8.402
  629POPC   C3B13077  27.891   2.623   8.013
  629POPC   C4B13078  27.936   2.792   7.595
  630POPC   NC313079  27.561   7.167   9.522
  630POPC   PO413080  27.199   7.789   9.426
  630POPC   GL113081  27.444   7.475   9.127
  630POPC   GL213082  27.748   7.202   9.058
  630POPC   C1A13083  27.454   7.454   8.685
  630POPC   D2A13084  27.576   7.826   8.446
  630POPC   C3A13085  27.586   7.771   8.015
  630POPC   C4A13086  27.416   7.479   7.723
  630POPC   C1B13087  27.954   7.390   8.691
  630POPC   C2B13088  27.942   7.493   8.276
  630POPC   C3B13089  27.856   7.259   7.889
  630POPC   C4B13090  27.802   7.288   7.430
  631POPC   NC313091  33.931  32.369   9.655
  631POPC   PO413092  34.312  31.911   9.458
  631POPC   GL113093  33.954  32.103   9.209
  631POPC   GL213094  33.883  32.469   9.167
  631POPC   C1A13095  33.982  32.209   8.752
  631POPC   D2A13096  33.686  32.149   8.424
  631POPC   C3A13097  33.807  32.244   8.017
  631POPC   C4A13098  33.862  31.951   7.712
  631POPC   C1B13099  33.553  32.488   8.834
  631POPC   C2B13100  33.427  32.615   8.411
  631POPC   C3B13101  33.531  32.669   7.961
  631POPC   C4B13102  33.591  32.383   7.564
  632POPC   NC313103  32.716  35.353   9.511
  632POPC   PO413104  32.081  35.197   9.464
  632POPC   GL113105  32.386  35.217   9.130
  632POPC   GL213106  32.512  35.578   9.113
  632POPC   C1A13107  32.385  35.018   8.731
  632POPC   D2A13108  32.133  35.201   8.405
  632POPC   C3A13109  32.200  35.167   7.979
  632POPC   C4A13110  32.001  35.232   7.598
  632POPC   C1B13111  32.354  35.574   8.699
  632POPC   C2B13112  32.578  35.779   8.357
  632POPC   C3B13113  32.469  35.793   7.932
  632POPC   C4B13114  32.454  35.463   7.632
  633POPC   NC313115   7.580  21.160   9.352
  633POPC   PO413116   7.048  21.535   9.453
  633POPC   GL113117   7.400  21.590   9.124
  633POPC   GL213118   7.774  21.687   9.199
  633POPC   C1A13119   7.543  21.379   8.741
  633POPC   D2A13120   7.700  21.141   8.366
  633POPC   C3A13121   7.414  21.126   8.008
  633POPC   C4A13122   7.247  21.509   7.852
  633POPC   C1B13123   7.962  21.645   8.772
  633POPC   C2B13124   7.735  21.655   8.362
  633POPC   C3B13125   7.781  21.452   7.967
  633POPC   C4B13126   7.654  21.522   7.545
  634POPC   NC313127   7.405  36.566   9.717
  634POPC   PO413128   7.046  37.111   9.476
  634POPC   GL113129   7.252  37.089   9.096
  634POPC   GL213130   7.385  36.802   9.014
  634POPC   C1A13131   7.290  37.158   8.662
  634POPC   D2A13132   7.119  36.953   8.322
  634POPC   C3A13133   7.435  36.740   8.123
  634POPC   C4A13134   7.593  36.783   7.702
  634POPC   C1B13135   7.726  36.856   8.692
  634POPC   C2B13136   7.903  36.625   8.346
  634POPC   C3B13137   8.036  36.647   7.909
  634POPC   C4B13138   7.880  36.392   7.538
  635POPC   NC313139  44.565  44.679   9.625
  635POPC   PO413140  44.986  44.100   9.568
  635POPC   GL113141  44.821  44.414   9.243
  635POPC   GL213142  44.638  44.772   9.138
  635POPC   C1A13143  44.890  44.484   8.809
  635POPC   D2A13144   0.026  44.401   8.417
  635POPC   C3A13145  44.752  44.510   8.093
  635POPC   C4A13146  44.935  44.585   7.703
  635POPC   C1B13147  44.509  44.838   8.695
  635POPC   C2B13148  44.447   0.072   8.289
  635POPC   C3B13149  44.367  44.929   7.882
  635POPC   C4B13150  44.419  44.503   7.699
  636POPC   NC313151  40.919  28.016   9.412
  636POPC   PO413152  40.660  28.649   9.394
  636POPC   GL113153  40.666  28.481   9.046
  636POPC   GL213154  40.964  28.638   8.931
  636POPC   C1A13155  40.445  28.235   8.755
  636POPC   D2A13156  40.404  28.063   8.369
  636POPC   C3A13157  40.546  28.307   8.034
  636POPC   C4A13158  40.631  28.191   7.625
  636POPC   C1B13159  40.947  28.235   8.689
  636POPC   C2B13160  41.037  27.940   8.350
  636POPC   C3B13161  41.040  28.122   7.937
  636POPC   C4B13162  40.940  28.568   7.782
  637POPC   NC313163  26.554  33.511   9.541
  637POPC   PO413164  27.005  33.997   9.330
  637POPC   GL113165  26.843  33.657   9.127
  637POPC   GL213166  26.539  33.791   9.102
  637POPC   C1A13167  26.727  33.441   8.753
  637POPC   D2A13168  26.703  33.594   8.335
  637POPC   C3A13169  27.080  33.712   8.125
  637POPC   C4A13170  27.028  33.752   7.672
  637POPC   C1B13171  26.748  33.956   8.723
  637POPC   C2B13172  26.873  34.122   8.340
  637POPC   C3B13173  26.717  34.058   7.935
  637POPC   C4B13174  26.789  34.356   7.608
  638POPC   NC313175  42.663   0.065   9.279
  638POPC   PO413176  42.655  44.486   9.626
  638POPC   GL113177  42.474  44.558   9.206
  638POPC   GL213178  42.154  44.728   9.274
  638POPC   C1A13179  42.513  44.616   8.732
  638POPC   D2A13180  42.538  44.678   8.278
  638POPC   C3A13181  42.241  44.569   7.950
  638POPC   C4A13182  42.298  44.569   7.493
  638POPC   C1B13183  42.107  44.918   8.861
  638POPC   C2B13184  42.060  44.826   8.415
  638POPC   C3B13185  42.172   0.076   8.045
  638POPC   C4B13186  42.071   0.321   7.660
  639POPC   NC313187  42.551  34.367   9.590
  639POPC   PO413188  43.233  34.517   9.585
  639POPC   GL113189  43.109  34.273   9.272
  639POPC   GL213190  43.447  34.125   9.299
  639POPC   C1A13191  43.021  34.497   8.880
  639POPC   D2A13192  42.936  34.805   8.568
  639POPC   C3A13193  42.886  34.648   8.166
  639POPC   C4A13194  43.044  34.614   7.751
  639POPC   C1B13195  43.517  34.416   8.953
  639POPC   C2B13196  43.424  34.473   8.534
  639POPC   C3B13197  43.403  34.538   8.106
  639POPC   C4B13198  43.445  34.310   7.714
  640POPC   NC313199  16.967  27.119   9.551
  640POPC   PO413200  16.540  27.627   9.495
  640POPC   GL113201  16.714  27.657   9.097
  640POPC   GL213202  16.823  27.302   9.089
  640POPC   C1A13203  16.803  27.900   8.701
  640POPC   D2A13204  16.755  27.729   8.288
  640POPC   C3A13205  16.845  27.894   7.894
  640POPC   C4A13206  16.783  27.746   7.490
  640POPC   C1B13207  16.817  27.376   8.646
  640POPC   C2B13208  16.599  27.243   8.273
  640POPC   C3B13209  16.823  27.365   7.895
  640POPC   C4B13210  16.996  27.296   7.501
  641POPC   NC313211  41.756  26.077   9.536
  641POPC   PO413212  41.140  26.111   9.633
  641POPC   GL113213  41.321  25.914   9.187
  641POPC   GL213214  41.682  25.879   9.088
  641POPC   C1A13215  41.334  26.055   8.755
  641POPC   D2A13216  41.569  26.076   8.378
  641POPC   C3A13217  41.292  25.977   8.087
  641POPC   C4A13218  41.222  26.172   7.711
  641POPC   C1B13219  41.778  25.775   8.727
  641POPC   C2B13220  41.471  25.582   8.492
  641POPC   C3B13221  41.680  25.605   8.133
  641POPC   C4B13222  41.841  25.966   7.922
  642POPC   NC313223  21.693  18.784   9.338
  642POPC   PO413224  22.076  19.042   9.853
  642POPC   GL113225  22.172  19.010   9.359
  642POPC   GL213226  21.930  19.207   9.142
  642POPC   C1A13227  22.289  18.979   8.856
  642POPC   D2A13228  22.148  18.838   8.404
  642POPC   C3A13229  22.274  19.022   7.957
  642POPC   C4A13230  22.322  19.322   7.584
  642POPC   C1B13231  21.866  19.207   8.661
  642POPC   C2B13232  21.829  19.170   8.186
  642POPC   C3B13233  21.830  19.325   7.749
  642POPC   C4B13234  21.860  19.445   7.280
  643POPC   NC313235   6.777  30.068   9.661
  643POPC   PO413236   7.026  29.564   9.433
  643POPC   GL113237   6.830  29.929   9.161
  643POPC   GL213238   7.076  30.198   9.239
  643POPC   C1A13239   6.514  29.999   8.784
  643POPC   D2A13240   6.511  29.823   8.338
  643POPC   C3A13241   6.278  29.913   7.953
  643POPC   C4A13242   6.557  30.191   7.796
  643POPC   C1B13243   7.200  30.065   8.792
  643POPC   C2B13244   7.244  30.104   8.319
  643POPC   C3B13245   7.067  30.008   7.893
  643POPC   C4B13246   6.733  29.708   7.775
  644POPC   NC313247  34.859  36.110   9.478
  644POPC   PO413248  34.216  36.309   9.535
  644POPC   GL113249  34.177  36.171   9.145
  644POPC   GL213250  34.292  35.811   9.145
  644POPC   C1A13251  34.255  36.467   8.820
  644POPC   D2A13252  34.460  36.590   8.465
  644POPC   C3A13253  34.288  36.353   8.152
  644POPC   C4A13254  34.430  36.455   7.777
  644POPC   C1B13255  34.578  36.030   8.865
  644POPC   C2B13256  34.767  36.171   8.496
  644POPC   C3B13257  34.728  36.056   8.083
  644POPC   C4B13258  34.565  35.929   7.705
  645POPC   NC313259  12.331  22.625   9.785
  645POPC   PO413260  12.915  22.573   9.412
  645POPC   GL113261  12.697  22.919   9.223
  645POPC   GL213262  12.961  23.004   8.998
  645POPC   C1A13263  12.506  22.963   8.810
  645POPC   D2A13264  12.638  22.734   8.445
  645POPC   C3A13265  12.701  23.008   8.109
  645POPC   C4A13266  12.471  23.053   7.722
  645POPC   C1B13267  13.043  23.030   8.539
  645POPC   C2B13268  13.373  23.163   8.246
  645POPC   C3B13269  13.382  23.181   7.796
  645POPC   C4B13270  12.976  23.070   7.672
  646POPC   NC313271  33.602  23.235   9.521
  646POPC   PO413272  33.591  22.638   9.715
  646POPC   GL113273  33.695  22.621   9.237
  646POPC   GL213274  33.547  22.886   9.141
  646POPC   C1A13275  33.916  22.767   8.812
  646POPC   D2A13276  33.764  22.950   8.375
  646POPC   C3A13277  33.981  22.918   7.960
  646POPC   C4A13278  33.909  22.701   7.562
  646POPC   C1B13279  33.431  22.751   8.714
  646POPC   C2B13280  33.365  22.603   8.321
  646POPC   C3B13281  33.556  22.651   7.977
  646POPC   C4B13282  33.491  22.946   7.714
  647POPC   NC313283  33.265  44.131   9.389
  647POPC   PO413284  32.698  43.810   9.499
  647POPC   GL113285  32.843  43.960   9.148
  647POPC   GL213286  32.850  44.308   9.109
  647POPC   C1A13287  32.878  43.712   8.817
  647POPC   D2A13288  33.209  43.721   8.535
  647POPC   C3A13289  33.133  43.726   8.079
  647POPC   C4A13290  32.867  43.727   7.703
  647POPC   C1B13291  33.010  44.198   8.712
  647POPC   C2B13292  33.130  44.185   8.315
  647POPC   C3B13293  32.987  44.224   7.932
  647POPC   C4B13294  33.267  44.033   7.660
  648POPC   NC313295   7.073  32.507   9.480
  648POPC   PO413296   7.522  33.075   9.558
  648POPC   GL113297   7.405  33.008   9.133
  648POPC   GL213298   7.123  32.792   9.059
  648POPC   C1A13299   7.486  33.267   8.775
  648POPC   D2A13300   7.704  33.281   8.379
  648POPC   C3A13301   7.507  33.015   8.086
  648POPC   C4A13302   7.466  33.203   7.703
  648POPC   C1B13303   7.207  32.869   8.646
  648POPC   C2B13304   7.117  33.214   8.394
  648POPC   C3B13305   7.030  33.214   8.002
  648POPC   C4B13306   7.074  32.871   7.800
  649POPC   NC313307   5.750  11.770   9.366
  649POPC   PO413308   5.803  11.145   9.551
  649POPC   GL113309   5.950  11.310   9.168
  649POPC   GL213310   6.260  11.420   9.079
  649POPC   C1A13311   5.905  11.251   8.738
  649POPC   D2A13312   5.712  11.276   8.342
  649POPC   C3A13313   5.942  11.135   7.998
  649POPC   C4A13314   5.811  11.201   7.580
  649POPC   C1B13315   6.320  11.642   8.683
  649POPC   C2B13316   6.039  11.704   8.333
  649POPC   C3B13317   5.892  11.628   7.903
  649POPC   C4B13318   6.151  11.637   7.535
  650POPC   NC313319  16.307  42.509   9.354
  650POPC   PO413320  15.710  42.342   9.442
  650POPC   GL113321  15.953  42.232   9.135
  650POPC   GL213322  15.917  42.507   8.993
  650POPC   C1A13323  16.037  42.115   8.712
  650POPC   D2A13324  15.790  42.221   8.369
  650POPC   C3A13325  15.916  42.185   8.005
  650POPC   C4A13326  15.808  42.307   7.659
  650POPC   C1B13327  15.852  42.675   8.623
  650POPC   C2B13328  16.124  42.826   8.330
  650POPC   C3B13329  15.973  42.935   7.966
  650POPC   C4B13330  15.804  42.802   7.625
  651POPC   NC313331  28.741  22.570   9.550
  651POPC   PO413332  29.165  22.058   9.551
  651POPC   GL113333  29.001  22.013   9.180
  651POPC   GL213334  29.037  22.387   9.160
  651POPC   C1A13335  29.174  22.088   8.768
  651POPC   D2A13336  29.320  22.246   8.383
  651POPC   C3A13337  29.225  21.979   8.022
  651POPC   C4A13338  29.166  22.160   7.635
  651POPC   C1B13339  29.072  22.575   8.762
  651POPC   C2B13340  28.935  22.614   8.384
  651POPC   C3B13341  29.086  22.527   8.005
  651POPC   C4B13342  28.824  22.544   7.653
  652POPC   NC313343  24.314  31.538   9.649
  652POPC   PO413344  24.888  31.225   9.715
  652POPC   GL113345  24.716  31.484   9.278
  652POPC   GL213346  24.342  31.534   9.161
  652POPC   C1A13347  24.614  31.316   8.823
  652POPC   D2A13348  24.686  31.105   8.483
  652POPC   C3A13349  24.727  31.320   8.134
  652POPC   C4A13350  24.764  31.405   7.730
  652POPC   C1B13351  24.118  31.432   8.787
  652POPC   C2B13352  24.213  31.319   8.393
  652POPC   C3B13353  24.255  31.430   7.957
  652POPC   C4B13354  24.269  31.539   7.533
  653POPC   NC313355  28.557  39.873   9.628
  653POPC   PO413356  28.175  40.321   9.486
  653POPC   GL113357  28.399  40.220   9.155
  653POPC   GL213358  28.353  39.881   9.141
  653POPC   C1A13359  28.429  40.260   8.741
  653POPC   D2A13360  28.371  39.997   8.403
  653POPC   C3A13361  28.509  40.189   8.033
  653POPC   C4A13362  28.232  40.346   7.737
  653POPC   C1B13363  28.168  39.702   8.783
  653POPC   C2B13364  28.113  39.551   8.364
  653POPC   C3B13365  28.162  39.768   7.990
  653POPC   C4B13366  28.406  39.877   7.627
  654POPC   NC313367  11.582  12.286   9.567
  654POPC   PO413368  11.023  11.901   9.507
  654POPC   GL113369  11.187  12.194   9.187
  654POPC   GL213370  10.872  12.334   9.033
  654POPC   C1A13371  11.301  12.383   8.775
  654POPC   D2A13372  11.221  12.252   8.359
  654POPC   C3A13373  11.522  12.304   8.038
  654POPC   C4A13374  11.662  12.114   7.646
  654POPC   C1B13375  10.994  11.949   8.765
  654POPC   C2B13376  10.998  11.778   8.322
  654POPC   C3B13377  11.192  11.893   7.931
  654POPC   C4B13378  11.122  12.214   7.636
  655POPC   NC313379  44.476  35.705   9.407
  655POPC   PO413380  44.435  36.411   9.430
  655POPC   GL113381  44.644  36.216   9.069
  655POPC   GL213382  44.675  35.852   8.982
  655POPC   C1A13383  44.818  36.234   8.652
  655POPC   D2A13384   0.022  36.234   8.229
  655POPC   C3A13385  44.756  36.362   7.872
  655POPC   C4A13386  44.517  36.532   7.456
  655POPC   C1B13387  44.394  35.918   8.682
  655POPC   C2B13388  44.559  36.015   8.272
  655POPC   C3B13389  44.747  35.833   7.914
  655POPC   C4B13390  44.642  36.014   7.521
  656POPC   NC313391  44.589  18.581   9.362
  656POPC   PO413392  44.808  17.981   9.742
  656POPC   GL113393  44.877  18.160   9.348
  656POPC   GL213394  44.672  17.978   9.200
  656POPC   C1A13395  44.971  18.284   8.898
  656POPC   D2A13396  44.945  18.148   8.470
  656POPC   C3A13397  44.886  18.458   8.139
  656POPC   C4A13398  44.607  18.446   7.788
  656POPC   C1B13399  44.599  17.885   8.811
  656POPC   C2B13400  44.354  17.895   8.434
  656POPC   C3B13401  44.594  18.011   8.077
  656POPC   C4B13402  44.496  17.929   7.692
  657POPC   NC313403  39.564   1.247   9.551
  657POPC   PO413404  39.097   0.941   9.660
  657POPC   GL113405  39.261   1.006   9.205
  657POPC   GL213406  39.139   1.304   9.032
  657POPC   C1A13407  39.595   1.124   8.875
  657POPC   D2A13408  39.663   1.201   8.417
  657POPC   C3A13409  39.444   1.382   8.068
  657POPC   C4A13410  39.599   1.069   7.821
  657POPC   C1B13411  39.163   1.096   8.597
  657POPC   C2B13412  39.167   0.959   8.142
  657POPC   C3B13413  38.975   1.157   7.782
  657POPC   C4B13414  38.677   1.266   7.453
  658POPC   NC313415  10.455  39.609   9.235
  658POPC   PO413416  10.433  40.287   9.408
  658POPC   GL113417  10.614  40.073   9.057
  658POPC   GL213418  10.900  39.796   9.079
  658POPC   C1A13419  10.465  40.174   8.634
  658POPC   D2A13420  10.560  40.462   8.323
  658POPC   C3A13421  10.419  40.299   7.930
  658POPC   C4A13422  10.201  39.942   7.709
  658POPC   C1B13423  10.779  39.774   8.656
  658POPC   C2B13424  10.453  39.650   8.378
  658POPC   C3B13425  10.607  39.817   8.012
  658POPC   C4B13426  10.985  39.791   7.788
  659POPC   NC313427  30.014   0.992   9.547
  659POPC   PO413428  29.487   1.212   9.133
  659POPC   GL113429  29.893   1.184   9.050
  659POPC   GL213430  29.963   0.846   9.037
  659POPC   C1A13431  29.895   1.164   8.599
  659POPC   D2A13432  29.762   1.417   8.275
  659POPC   C3A13433  29.668   1.236   7.866
  659POPC   C4A13434  29.549   1.194   7.423
  659POPC   C1B13435  30.247   0.831   8.678
  659POPC   C2B13436  30.116   0.892   8.210
  659POPC   C3B13437  30.308   0.765   7.832
  659POPC   C4B13438  30.304   0.652   7.361
  660POPC   NC313439  31.937  12.179   9.590
  660POPC   PO413440  32.526  11.776   9.672
  660POPC   GL113441  32.432  11.903   9.259
  660POPC   GL213442  32.345  12.280   9.257
  660POPC   C1A13443  32.207  11.811   8.859
  660POPC   D2A13444  32.048  11.761   8.445
  660POPC   C3A13445  32.221  11.866   8.074
  660POPC   C4A13446  32.271  12.100   7.711
  660POPC   C1B13447  32.158  12.330   8.847
  660POPC   C2B13448  31.924  12.249   8.432
  660POPC   C3B13449  32.015  12.358   8.041
  660POPC   C4B13450  31.807  12.312   7.623
  661POPC   NC313451  32.043   2.534   9.423
  661POPC   PO413452  32.324   3.175   9.472
  661POPC   GL113453  32.173   2.942   9.137
  661POPC   GL213454  32.427   2.710   9.127
  661POPC   C1A13455  32.125   2.741   8.706
  661POPC   D2A13456  32.281   2.774   8.336
  661POPC   C3A13457  32.066   2.702   8.043
  661POPC   C4A13458  32.144   2.561   7.626
  661POPC   C1B13459  32.432   2.382   8.857
  661POPC   C2B13460  32.387   2.299   8.446
  661POPC   C3B13461  32.345   2.277   8.015
  661POPC   C4B13462  32.600   2.354   7.650
  662POPC   NC313463  18.352  32.618   9.526
  662POPC   PO413464  18.538  33.280   9.720
  662POPC   GL113465  18.290  33.100   9.264
  662POPC   GL213466  18.532  32.828   9.065
  662POPC   C1A13467  18.264  33.116   8.749
  662POPC   D2A13468  18.614  33.115   8.416
  662POPC   C3A13469  18.517  33.231   7.994
  662POPC   C4A13470  18.227  33.195   7.688
  662POPC   C1B13471  18.441  32.662   8.626
  662POPC   C2B13472  18.035  32.799   8.422
  662POPC   C3B13473  17.983  32.896   8.011
  662POPC   C4B13474  18.405  32.754   7.856
  663POPC   NC313475  26.683  38.729   9.474
  663POPC   PO413476  26.783  39.478   9.470
  663POPC   GL113477  26.860  39.362   9.071
  663POPC   GL213478  26.627  39.096   9.112
  663POPC   C1A13479  26.834  39.426   8.622
  663POPC   D2A13480  26.538  39.460   8.279
  663POPC   C3A13481  26.720  39.210   7.958
  663POPC   C4A13482  27.135  39.020   7.896
  663POPC   C1B13483  26.740  38.902   8.713
  663POPC   C2B13484  26.875  38.786   8.288
  663POPC   C3B13485  26.706  38.697   7.885
  663POPC   C4B13486  26.430  38.731   7.525
  664POPC   NC313487  18.902  44.094   9.385
  664POPC   PO413488  19.235  43.500   9.364
  664POPC   GL113489  18.917  43.656   9.062
  664POPC   GL213490  18.990  44.016   8.905
  664POPC   C1A13491  18.874  43.628   8.597
  664POPC   D2A13492  18.923  43.978   8.300
  664POPC   C3A13493  18.860  43.855   7.869
  664POPC   C4A13494  18.616  43.806   7.487
  664POPC   C1B13495  19.309  44.189   8.609
  664POPC   C2B13496  19.378  44.199   8.154
  664POPC   C3B13497  19.085  44.358   7.888
  664POPC   C4B13498  18.905  44.232   7.484
  665POPC   NC313499   7.981  33.030   9.582
  665POPC   PO413500   8.456  32.654   9.851
  665POPC   GL113501   8.418  33.016   9.356
  665POPC   GL213502   8.126  32.975   9.120
  665POPC   C1A13503   8.549  33.050   8.866
  665POPC   D2A13504   8.417  33.218   8.427
  665POPC   C3A13505   8.300  33.012   8.026
  665POPC   C4A13506   8.527  32.981   7.648
  665POPC   C1B13507   8.011  33.152   8.767
  665POPC   C2B13508   8.055  32.840   8.458
  665POPC   C3B13509   7.884  32.668   8.095
  665POPC   C4B13510   7.891  32.832   7.671
  666POPC   NC313511   7.588  35.587   9.632
  666POPC   PO413512   7.343  35.011   9.574
  666POPC   GL113513   7.452  35.275   9.222
  666POPC   GL213514   7.423  35.646   9.167
  666POPC   C1A13515   7.432  35.216   8.799
  666POPC   D2A13516   7.237  35.164   8.429
  666POPC   C3A13517   7.543  35.178   8.102
  666POPC   C4A13518   7.361  35.162   7.707
  666POPC   C1B13519   7.668  35.648   8.813
  666POPC   C2B13520   7.503  35.605   8.423
  666POPC   C3B13521   7.525  35.720   8.017
  666POPC   C4B13522   7.694  35.536   7.630
  667POPC   NC313523   5.084   1.450   9.417
  667POPC   PO413524   4.736   0.946   9.596
  667POPC   GL113525   4.894   1.021   9.199
  667POPC   GL213526   5.272   0.997   9.270
  667POPC   C1A13527   4.883   1.235   8.756
  667POPC   D2A13528   5.098   1.503   8.430
  667POPC   C3A13529   4.890   1.588   8.023
  667POPC   C4A13530   4.598   1.343   7.754
  667POPC   C1B13531   5.394   1.184   8.856
  667POPC   C2B13532   5.307   1.038   8.446
  667POPC   C3B13533   5.368   1.198   8.033
  667POPC   C4B13534   5.089   1.150   7.699
  668POPC   NC313535  29.115   8.560   9.543
  668POPC   PO413536  29.035   9.190   9.416
  668POPC   GL113537  29.056   9.077   9.024
  668POPC   GL213538  29.123   8.744   9.063
  668POPC   C1A13539  29.148   8.988   8.600
  668POPC   D2A13540  29.353   9.132   8.229
  668POPC   C3A13541  29.035   9.185   7.931
  668POPC   C4A13542  28.763   9.494   7.774
  668POPC   C1B13543  29.282   8.510   8.750
  668POPC   C2B13544  29.388   8.609   8.347
  668POPC   C3B13545  29.167   8.699   7.985
  668POPC   C4B13546  29.290   8.584   7.614
  669POPC   NC313547  33.389  19.556   9.520
  669POPC   PO413548  32.695  19.655   9.437
  669POPC   GL113549  32.871  19.888   9.140
  669POPC   GL213550  33.124  20.051   9.301
  669POPC   C1A13551  32.779  19.851   8.717
  669POPC   D2A13552  33.056  19.852   8.362
  669POPC   C3A13553  33.208  20.079   8.029
  669POPC   C4A13554  32.976  19.965   7.705
  669POPC   C1B13555  33.366  19.861   8.938
  669POPC   C2B13556  33.574  19.716   8.547
  669POPC   C3B13557  33.457  19.629   8.111
  669POPC   C4B13558  33.437  19.744   7.682
  670POPC   NC313559  17.926  25.345   9.742
  670POPC   PO413560  18.382  24.888   9.640
  670POPC   GL113561  18.310  25.272   9.357
  670POPC   GL213562  18.327  25.039   9.124
  670POPC   C1A13563  18.244  25.488   8.899
  670POPC   D2A13564  18.363  25.431   8.452
  670POPC   C3A13565  18.113  25.473   8.063
  670POPC   C4A13566  18.301  25.419   7.666
  670POPC   C1B13567  18.590  25.108   8.796
  670POPC   C2B13568  18.725  25.062   8.381
  670POPC   C3B13569  18.488  25.101   8.005
  670POPC   C4B13570  18.363  24.911   7.594
  671POPC   NC313571  28.637   4.032   9.334
  671POPC   PO413572  28.225   4.393   9.793
  671POPC   GL113573  28.393   4.495   9.344
  671POPC   GL213574  28.165   4.258   9.258
  671POPC   C1A13575  28.430   4.503   8.869
  671POPC   D2A13576  28.397   4.354   8.414
  671POPC   C3A13577  28.529   4.321   7.974
  671POPC   C4A13578  28.509   3.967   7.664
  671POPC   C1B13579  27.963   4.618   9.015
  671POPC   C2B13580  28.030   4.687   8.557
  671POPC   C3B13581  27.996   4.556   8.134
  671POPC   C4B13582  28.173   4.656   7.745
  672POPC   NC313583  40.878   6.060   9.409
  672POPC   PO413584  40.970   5.382   9.470
  672POPC   GL113585  40.676   5.651   9.174
  672POPC   GL213586  40.544   6.025   9.027
  672POPC   C1A13587  40.854   5.735   8.767
  672POPC   D2A13588  40.730   5.930   8.397
  672POPC   C3A13589  40.793   5.699   8.013
  672POPC   C4A13590  41.084   5.783   7.664
  672POPC   C1B13591  40.547   6.338   8.668
  672POPC   C2B13592  40.503   6.360   8.214
  672POPC   C3B13593  40.397   6.042   7.906
  672POPC   C4B13594  40.599   5.881   7.547
  673POPC   NC313595  23.090  22.006   9.254
  673POPC   PO413596  22.721  22.329   9.713
  673POPC   GL113597  22.767  22.409   9.237
  673POPC   GL213598  23.068  22.578   9.161
  673POPC   C1A13599  22.763  22.311   8.750
  673POPC   D2A13600  22.721  22.122   8.318
  673POPC   C3A13601  22.921  21.992   7.899
  673POPC   C4A13602  22.722  22.115   7.472
  673POPC   C1B13603  23.203  22.553   8.712
  673POPC   C2B13604  23.164  22.374   8.351
  673POPC   C3B13605  23.271  22.402   7.969
  673POPC   C4B13606  23.146  22.338   7.584
  674POPC   NC313607  44.606  32.917   9.645
  674POPC   PO413608   0.051  33.052   9.158
  674POPC   GL113609  44.748  32.712   9.021
  674POPC   GL213610  44.429  32.740   9.192
  674POPC   C1A13611  44.624  32.751   8.587
  674POPC   D2A13612  44.734  33.146   8.392
  674POPC   C3A13613  44.880  33.164   7.967
  674POPC   C4A13614  44.928  32.944   7.591
  674POPC   C1B13615  44.172  32.733   8.843
  674POPC   C2B13616  44.160  32.938   8.441
  674POPC   C3B13617  44.382  32.998   8.043
  674POPC   C4B13618  44.464  32.764   7.678
  675POPC   NC313619   7.088   1.369   9.509
  675POPC   PO413620   7.616   0.910   9.564
  675POPC   GL113621   7.435   1.183   9.200
  675POPC   GL213622   7.145   1.042   9.121
  675POPC   C1A13623   7.343   1.410   8.791
  675POPC   D2A13624   7.271   1.495   8.321
  675POPC   C3A13625   7.662   1.445   8.083
  675POPC   C4A13626   7.789   1.202   7.708
  675POPC   C1B13627   7.253   0.914   8.750
  675POPC   C2B13628   7.490   1.037   8.391
  675POPC   C3B13629   7.342   1.041   7.972
  675POPC   C4B13630   7.439   0.847   7.577
  676POPC   NC313631  34.185  11.725   9.238
  676POPC   PO413632  33.775  11.304   9.379
  676POPC   GL113633  33.544  11.301   9.052
  676POPC   GL213634  33.578  10.933   9.042
  676POPC   C1A13635  33.593  11.444   8.644
  676POPC   D2A13636  33.900  11.666   8.406
  676POPC   C3A13637  33.846  11.397   8.067
  676POPC   C4A13638  34.033  11.426   7.670
  676POPC   C1B13639  33.942  10.849   8.788
  676POPC   C2B13640  33.909  10.722   8.361
  676POPC   C3B13641  33.813  10.888   7.958
  676POPC   C4B13642  33.512  11.154   7.747
  677POPC   NC313643  41.194  32.233   9.414
  677POPC   PO413644  41.852  32.240   9.574
  677POPC   GL113645  41.680  32.065   9.198
  677POPC   GL213646  41.557  32.398   9.097
  677POPC   C1A13647  41.811  32.141   8.769
  677POPC   D2A13648  41.642  32.322   8.403
  677POPC   C3A13649  41.766  32.092   8.066
  677POPC   C4A13650  41.713  32.142   7.683
  677POPC   C1B13651  41.262  32.304   8.745
  677POPC   C2B13652  41.136  32.507   8.354
  677POPC   C3B13653  41.273  32.473   7.928
  677POPC   C4B13654  41.198  32.732   7.516
  678POPC   NC313655  31.821  19.572   9.614
  678POPC   PO413656  31.400  20.159   9.516
  678POPC   GL113657  31.428  20.038   9.083
  678POPC   GL213658  31.565  19.720   9.098
  678POPC   C1A13659  31.492  20.251   8.678
  678POPC   D2A13660  31.638  20.156   8.251
  678POPC   C3A13661  31.299  20.098   7.969
  678POPC   C4A13662  31.211  19.717   7.738
  678POPC   C1B13663  31.715  19.798   8.651
  678POPC   C2B13664  31.629  19.639   8.178
  678POPC   C3B13665  31.695  19.526   7.729
  678POPC   C4B13666  31.635  19.713   7.331
  679POPC   NC313667  20.346  16.148   9.627
  679POPC   PO413668  20.829  15.657   9.598
  679POPC   GL113669  20.565  15.801   9.284
  679POPC   GL213670  20.721  16.113   9.218
  679POPC   C1A13671  20.422  15.871   8.867
  679POPC   D2A13672  20.556  16.079   8.465
  679POPC   C3A13673  20.342  16.012   8.081
  679POPC   C4A13674  20.527  15.869   7.700
  679POPC   C1B13675  20.913  16.212   8.804
  679POPC   C2B13676  20.964  16.338   8.327
  679POPC   C3B13677  20.738  16.317   7.912
  679POPC   C4B13678  20.741  16.271   7.467
  680POPC   NC313679  21.223  40.699   9.581
  680POPC   PO413680  21.271  41.248   9.313
  680POPC   GL113681  21.484  40.928   9.101
  680POPC   GL213682  21.604  40.634   9.238
  680POPC   C1A13683  21.568  41.063   8.666
  680POPC   D2A13684  21.417  41.221   8.290
  680POPC   C3A13685  21.373  40.998   7.955
  680POPC   C4A13686  21.474  40.821   7.579
  680POPC   C1B13687  21.521  40.547   8.780
  680POPC   C2B13688  21.425  40.686   8.362
  680POPC   C3B13689  21.394  40.481   7.960
  680POPC   C4B13690  21.692  40.343   7.690
  681POPC   NC313691   8.840  10.131  10.239
  681POPC   PO413692   8.713  10.429   9.692
  681POPC   GL113693   8.937  10.550   9.271
  681POPC   GL213694   8.810  10.850   9.105
  681POPC   C1A13695   9.011  10.528   8.782
  681POPC   D2A13696   9.128  10.489   8.333
  681POPC   C3A13697   8.883  10.453   7.951
  681POPC   C4A13698   9.028  10.235   7.569
  681POPC   C1B13699   9.108  11.040   8.736
  681POPC   C2B13700   9.268  10.980   8.291
  681POPC   C3B13701   9.322  10.716   7.891
  681POPC   C4B13702   9.045  10.760   7.537
  682POPC   NC313703  16.414  13.379   9.534
  682POPC   PO413704  16.929  13.783   9.484
  682POPC   GL113705  16.888  13.543   9.095
  682POPC   GL213706  16.568  13.320   9.059
  682POPC   C1A13707  16.982  13.800   8.735
  682POPC   D2A13708  16.737  13.951   8.388
  682POPC   C3A13709  16.752  13.723   8.006
  682POPC   C4A13710  16.987  13.808   7.663
  682POPC   C1B13711  16.697  13.370   8.624
  682POPC   C2B13712  16.696  13.226   8.195
  682POPC   C3B13713  16.472  13.324   7.811
  682POPC   C4B13714  16.399  13.393   7.374
  683POPC   NC313715   5.127  31.013   9.379
  683POPC   PO413716   4.911  30.460   9.632
  683POPC   GL113717   4.877  30.595   9.209
  683POPC   GL213718   4.636  30.882   9.201
  683POPC   C1A13719   5.050  30.605   8.773
  683POPC   D2A13720   5.137  30.408   8.367
  683POPC   C3A13721   5.175  30.648   7.994
  683POPC   C4A13722   5.199  31.069   7.848
  683POPC   C1B13723   4.817  31.053   8.800
  683POPC   C2B13724   4.977  30.948   8.369
  683POPC   C3B13725   4.720  30.898   7.988
  683POPC   C4B13726   4.697  30.904   7.524
  684POPC   NC313727  34.269  39.328   9.514
  684POPC   PO413728  34.977  39.207   9.509
  684POPC   GL113729  34.717  39.111   9.151
  684POPC   GL213730  34.463  38.867   9.099
  684POPC   C1A13731  34.588  39.287   8.767
  684POPC   D2A13732  34.418  39.254   8.373
  684POPC   C3A13733  34.572  39.430   7.994
  684POPC   C4A13734  34.592  39.225   7.562
  684POPC   C1B13735  34.202  38.902   8.727
  684POPC   C2B13736  33.971  38.974   8.355
  684POPC   C3B13737  34.170  39.100   7.960
  684POPC   C4B13738  34.400  38.791   7.721
  685POPC   NC313739  27.032  28.327   9.445
  685POPC   PO413740  27.684  28.681   9.525
  685POPC   GL113741  27.646  28.491   9.121
  685POPC   GL213742  27.314  28.471   9.040
  685POPC   C1A13743  27.656  28.329   8.686
  685POPC   D2A13744  27.774  28.429   8.279
  685POPC   C3A13745  27.645  28.334   7.919
  685POPC   C4A13746  27.775  28.496   7.527
  685POPC   C1B13747  27.147  28.306   8.684
  685POPC   C2B13748  27.287  28.229   8.292
  685POPC   C3B13749  27.140  28.354   7.894
  685POPC   C4B13750  27.339  28.235   7.478
  686POPC   NC313751  33.293  32.079   9.603
  686POPC   PO413752  33.175  32.662   9.365
  686POPC   GL113753  33.044  32.384   9.064
  686POPC   GL213754  33.111  32.032   9.123
  686POPC   C1A13755  32.945  32.536   8.665
  686POPC   D2A13756  32.918  32.777   8.292
  686POPC   C3A13757  32.859  32.490   7.958
  686POPC   C4A13758  33.063  32.178   7.708
  686POPC   C1B13759  33.229  32.114   8.673
  686POPC   C2B13760  33.233  32.170   8.214
  686POPC   C3B13761  33.408  31.885   7.933
  686POPC   C4B13762  33.427  31.915   7.467
  687POPC   NC313763   6.554  10.281   9.468
  687POPC   PO413764   7.039  10.618   9.457
  687POPC   GL113765   6.807  10.634   9.121
  687POPC   GL213766   6.474  10.537   9.046
  687POPC   C1A13767   6.865  10.790   8.760
  687POPC   D2A13768   6.667  10.862   8.410
  687POPC   C3A13769   6.625  10.574   8.084
  687POPC   C4A13770   6.613  10.719   7.630
  687POPC   C1B13771   6.400  10.489   8.625
  687POPC   C2B13772   6.193  10.354   8.273
  687POPC   C3B13773   6.265  10.344   7.831
  687POPC   C4B13774   6.662  10.217   7.658
  688POPC   NC313775  20.814  25.378   9.486
  688POPC   PO413776  20.162  25.093   9.521
  688POPC   GL113777  20.244  25.264   9.138
  688POPC   GL213778  20.517  25.464   9.095
  688POPC   C1A13779  20.475  25.060   8.791
  688POPC   D2A13780  20.437  24.851   8.405
  688POPC   C3A13781  20.450  25.152   8.052
  688POPC   C4A13782  20.314  25.205   7.645
  688POPC   C1B13783  20.694  25.581   8.723
  688POPC   C2B13784  20.519  25.587   8.344
  688POPC   C3B13785  20.776  25.557   8.016
  688POPC   C4B13786  20.796  25.351   7.626
  689POPC   NC313787  38.069  13.162   9.504
  689POPC   PO413788  38.609  12.791   9.366
  689POPC   GL113789  38.383  12.727   9.002
  689POPC   GL213790  38.115  12.940   9.064
  689POPC   C1A13791  38.461  12.674   8.581
  689POPC   D2A13792  38.889  12.690   8.388
  689POPC   C3A13793  38.858  12.884   8.024
  689POPC   C4A13794  38.565  12.871   7.723
  689POPC   C1B13795  38.344  13.188   8.795
  689POPC   C2B13796  38.535  13.144   8.420
  689POPC   C3B13797  38.283  12.971   8.117
  689POPC   C4B13798  38.141  13.168   7.716
  690POPC   NC313799  16.215   3.714   9.469
  690POPC   PO413800  16.883   3.532   9.502
  690POPC   GL113801  16.827   3.414   9.105
  690POPC   GL213802  17.150   3.573   9.049
  690POPC   C1A13803  16.540   3.564   8.789
  690POPC   D2A13804  16.600   3.901   8.479
  690POPC   C3A13805  16.677   3.697   8.108
  690POPC   C4A13806  16.514   3.440   7.786
  690POPC   C1B13807  17.051   3.668   8.607
  690POPC   C2B13808  17.107   3.987   8.250
  690POPC   C3B13809  17.012   3.938   7.799
  690POPC   C4B13810  17.037   3.497   7.677
  691POPC   NC313811  13.287  32.445   9.404
  691POPC   PO413812  13.829  32.061   9.554
  691POPC   GL113813  13.848  32.180   9.124
  691POPC   GL213814  13.681  32.450   9.026
  691POPC   C1A13815  14.013  32.127   8.724
  691POPC   D2A13816  13.849  31.951   8.363
  691POPC   C3A13817  13.807  32.170   7.987
  691POPC   C4A13818  13.451  32.166   7.745
  691POPC   C1B13819  13.388  32.359   8.703
  691POPC   C2B13820  13.226  32.211   8.292
  691POPC   C3B13821  13.067  32.435   7.919
  691POPC   C4B13822  13.169  32.726   7.548
  692POPC   NC313823   4.577   8.317   9.497
  692POPC   PO413824   3.955   8.067   9.707
  692POPC   GL113825   4.122   8.346   9.287
  692POPC   GL213826   4.362   8.083   9.113
  692POPC   C1A13827   4.122   8.404   8.780
  692POPC   D2A13828   4.226   8.233   8.319
  692POPC   C3A13829   4.111   8.279   7.849
  692POPC   C4A13830   4.364   8.368   7.435
  692POPC   C1B13831   4.351   7.902   8.720
  692POPC   C2B13832   4.564   7.825   8.342
  692POPC   C3B13833   4.379   7.842   7.920
  692POPC   C4B13834   4.257   7.858   7.490
  693POPC   NC313835  15.669  42.802   9.366
  693POPC   PO413836  15.207  43.238   9.539
  693POPC   GL113837  15.293  43.091   9.130
  693POPC   GL213838  15.397  43.430   9.078
  693POPC   C1A13839  15.109  42.832   8.749
  693POPC   D2A13840  14.864  42.619   8.392
  693POPC   C3A13841  15.013  42.801   7.988
  693POPC   C4A13842  15.357  42.990   7.725
  693POPC   C1B13843  15.132  43.360   8.726
  693POPC   C2B13844  15.232  43.213   8.299
  693POPC   C3B13845  15.163  43.417   7.890
  693POPC   C4B13846  15.306  43.412   7.415
  694POPC   NC313847   2.375  18.816   9.490
  694POPC   PO413848   1.828  19.224   9.481
  694POPC   GL113849   2.035  19.061   9.138
  694POPC   GL213850   2.330  19.240   9.101
  694POPC   C1A13851   1.879  18.971   8.733
  694POPC   D2A13852   2.030  18.927   8.332
  694POPC   C3A13853   1.757  18.961   7.993
  694POPC   C4A13854   1.877  18.862   7.595
  694POPC   C1B13855   2.385  19.147   8.697
  694POPC   C2B13856   2.420  19.243   8.259
  694POPC   C3B13857   2.241  19.128   7.872
  694POPC   C4B13858   2.268  19.364   7.482
  695POPC   NC313859  39.634  12.145   9.574
  695POPC   PO413860  40.284  11.918   9.452
  695POPC   GL113861  39.984  12.165   9.190
  695POPC   GL213862  39.614  12.014   9.084
  695POPC   C1A13863  39.847  12.397   8.823
  695POPC   D2A13864  39.716  12.315   8.394
  695POPC   C3A13865  39.992  12.202   8.041
  695POPC   C4A13866  40.114  12.145   7.591
  695POPC   C1B13867  39.444  11.895   8.666
  695POPC   C2B13868  39.549  11.873   8.199
  695POPC   C3B13869  39.865  11.717   7.873
  695POPC   C4B13870  39.761  11.714   7.435
  696POPC   NC313871  12.711  21.390   9.601
  696POPC   PO413872  13.268  21.639   9.468
  696POPC   GL113873  13.001  21.301   9.186
  696POPC   GL213874  12.624  21.376   9.104
  696POPC   C1A13875  12.823  21.004   8.838
  696POPC   D2A13876  12.568  20.947   8.445
  696POPC   C3A13877  12.789  20.935   8.034
  696POPC   C4A13878  12.931  21.243   7.735
  696POPC   C1B13879  12.810  21.508   8.709
  696POPC   C2B13880  13.019  21.371   8.329
  696POPC   C3B13881  13.194  21.612   8.006
  696POPC   C4B13882  13.251  21.625   7.604
  697POPC   NC313883  33.813  42.623   9.548
  697POPC   PO413884  33.525  42.110   9.479
  697POPC   GL113885  33.728  42.298   9.129
  697POPC   GL213886  34.001  42.540   9.074
  697POPC   C1A13887  33.917  42.092   8.787
  697POPC   D2A13888  34.206  41.922   8.493
  697POPC   C3A13889  34.100  42.099   8.073
  697POPC   C4A13890  33.691  42.046   7.908
  697POPC   C1B13891  33.829  42.607   8.696
  697POPC   C2B13892  33.733  42.380   8.340
  697POPC   C3B13893  33.743  42.547   7.952
  697POPC   C4B13894  33.999  42.815   7.827
  698POPC   NC313895  37.232   9.313   9.566
  698POPC   PO413896  36.636   8.981   9.473
  698POPC   GL113897  36.917   8.816   9.173
  698POPC   GL213898  37.128   9.071   9.130
  698POPC   C1A13899  36.811   8.786   8.789
  698POPC   D2A13900  36.813   9.081   8.491
  698POPC   C3A13901  36.892   8.930   8.112
  698POPC   C4A13902  36.840   9.096   7.704
  698POPC   C1B13903  37.203   9.314   8.776
  698POPC   C2B13904  37.310   9.210   8.333
  698POPC   C3B13905  37.220   9.351   7.921
  698POPC   C4B13906  37.240   9.343   7.448
  699POPC   NC313907  31.724  20.397   9.272
  699POPC   PO413908  31.259  20.760   9.665
  699POPC   GL113909  31.406  20.766   9.206
  699POPC   GL213910  31.756  20.793   8.978
  699POPC   C1A13911  31.240  20.729   8.777
  699POPC   D2A13912  31.071  20.965   8.395
  699POPC   C3A13913  31.182  20.877   7.968
  699POPC   C4A13914  31.230  20.549   7.686
  699POPC   C1B13915  31.735  20.706   8.585
  699POPC   C2B13916  31.452  20.607   8.306
  699POPC   C3B13917  31.664  20.591   7.945
  699POPC   C4B13918  31.649  20.946   7.698
  700POPC   NC313919  23.514  41.597   9.427
  700POPC   PO413920  24.107  41.238   9.439
  700POPC   GL113921  23.900  41.522   9.087
  700POPC   GL213922  24.010  41.871   9.011
  700POPC   C1A13923  23.625  41.646   8.704
  700POPC   D2A13924  23.442  41.514   8.268
  700POPC   C3A13925  23.487  41.758   7.865
  700POPC   C4A13926  23.581  41.531   7.496
  700POPC   C1B13927  23.928  42.054   8.587
  700POPC   C2B13928  23.877  41.808   8.204
  700POPC   C3B13929  23.987  41.598   7.787
  700POPC   C4B13930  23.940  41.914   7.424
  701POPC   NC313931  41.291  37.266   9.531
  701POPC   PO413932  41.758  36.782   9.484
  701POPC   GL113933  41.745  37.113   9.213
  701POPC   GL213934  41.422  37.015   9.099
  701POPC   C1A13935  41.806  37.125   8.777
  701POPC   D2A13936  41.628  36.956   8.407
  701POPC   C3A13937  41.852  36.974   8.029
  701POPC   C4A13938  41.697  36.824   7.680
  701POPC   C1B13939  41.317  37.279   8.769
  701POPC   C2B13940  41.136  37.174   8.375
  701POPC   C3B13941  41.333  37.043   7.979
  701POPC   C4B13942  41.256  37.043   7.505
  702POPC   NC313943   3.156  34.478   9.382
  702POPC   PO413944   2.610  34.824   9.678
  702POPC   GL113945   2.717  34.755   9.258
  702POPC   GL213946   2.395  34.625   9.099
  702POPC   C1A13947   2.753  34.808   8.791
  702POPC   D2A13948   2.482  34.682   8.449
  702POPC   C3A13949   2.651  34.647   8.056
  702POPC   C4A13950   2.778  34.804   7.677
  702POPC   C1B13951   2.520  34.284   8.778
  702POPC   C2B13952   2.632  34.179   8.322
  702POPC   C3B13953   2.510  34.184   7.860
  702POPC   C4B13954   2.632  34.373   7.431
  703POPC   NC313955   7.756   2.105   9.405
  703POPC   PO413956   8.434   2.212   9.502
  703POPC   GL113957   8.212   2.033   9.164
  703POPC   GL213958   8.107   1.700   9.252
  703POPC   C1A13959   8.253   2.159   8.742
  703POPC   D2A13960   8.506   2.120   8.372
  703POPC   C3A13961   8.264   2.248   8.041
  703POPC   C4A13962   8.275   2.068   7.640
  703POPC   C1B13963   7.933   1.732   8.815
  703POPC   C2B13964   8.073   1.816   8.375
  703POPC   C3B13965   7.915   1.874   7.951
  703POPC   C4B13966   7.678   1.680   7.602
  704POPC   NC313967  40.855  43.321   9.469
  704POPC   PO413968  40.524  42.766   9.602
  704POPC   GL113969  40.789  42.870   9.166
  704POPC   GL213970  40.823  43.235   8.991
  704POPC   C1A13971  40.919  42.883   8.685
  704POPC   D2A13972  40.663  43.189   8.435
  704POPC   C3A13973  40.696  42.940   8.089
  704POPC   C4A13974  40.914  42.862   7.692
  704POPC   C1B13975  41.008  43.538   8.684
  704POPC   C2B13976  41.156  43.693   8.288
  704POPC   C3B13977  41.056  43.510   7.879
  704POPC   C4B13978  40.673  43.308   7.733
  705POPC   NC313979   4.538  20.082   9.518
  705POPC   PO413980   4.251  19.420   9.589
  705POPC   GL113981   4.244  19.756   9.234
  705POPC   GL213982   4.571  19.821   9.069
  705POPC   C1A13983   4.135  19.953   8.809
  705POPC   D2A13984   4.100  19.772   8.384
  705POPC   C3A13985   3.989  20.079   8.057
  705POPC   C4A13986   4.161  19.889   7.729
  705POPC   C1B13987   4.588  19.795   8.611
  705POPC   C2B13988   4.725  19.913   8.213
  705POPC   C3B13989   4.662  19.928   7.773
  705POPC   C4B13990   4.498  19.750   7.364
  706POPC   NC313991  41.938  38.133   9.879
  706POPC   PO413992  41.416  37.730   9.562
  706POPC   GL113993  41.486  37.608   9.145
  706POPC   GL213994  41.536  37.958   9.102
  706POPC   C1A13995  41.761  37.635   8.763
  706POPC   D2A13996  41.640  37.458   8.391
  706POPC   C3A13997  41.764  37.549   8.009
  706POPC   C4A13998  41.626  37.327   7.691
  706POPC   C1B13999  41.348  37.935   8.709
  706POPC   C2B14000  41.184  37.669   8.439
  706POPC   C3B14001  41.236  37.547   8.022
  706POPC   C4B14002  41.372  37.774   7.704
  707POPC   NC314003   1.756  35.637   9.344
  707POPC   PO414004   2.224  35.205   9.490
  707POPC   GL114005   2.182  35.358   9.107
  707POPC   GL214006   2.462  35.142   9.048
  707POPC   C1A14007   2.043  35.557   8.715
  707POPC   D2A14008   1.696  35.759   8.479
  707POPC   C3A14009   1.756  35.636   8.071
  707POPC   C4A14010   1.914  35.281   7.847
  707POPC   C1B14011   2.270  35.076   8.684
  707POPC   C2B14012   2.218  35.147   8.267
  707POPC   C3B14013   2.397  35.082   7.881
  707POPC   C4B14014   2.242  35.064   7.487
  708POPC   NC314015   7.176   5.258   9.356
  708POPC   PO414016   7.361   4.742   9.523
  708POPC   GL114017   7.189   4.828   9.117
  708POPC   GL214018   7.536   4.998   9.126
  708POPC   C1A14019   7.249   5.006   8.716
  708POPC   D2A14020   7.299   4.977   8.322
  708POPC   C3A14021   7.183   5.324   8.071
  708POPC   C4A14022   7.215   5.009   7.790
  708POPC   C1B14023   7.708   5.177   8.791
  708POPC   C2B14024   7.617   5.351   8.419
  708POPC   C3B14025   7.661   5.192   8.022
  708POPC   C4B14026   7.655   5.383   7.651
  709POPC   NC314027   0.311   0.207   9.456
  709POPC   PO414028   0.800   0.675   9.472
  709POPC   GL114029   0.603   0.508   9.132
  709POPC   GL214030   0.765   0.212   9.026
  709POPC   C1A14031   0.337   0.388   8.797
  709POPC   D2A14032   0.358   0.100   8.467
  709POPC   C3A14033   0.280   0.255   8.082
  709POPC   C4A14034   0.305   0.504   7.693
  709POPC   C1B14035   0.790  44.936   8.668
  709POPC   C2B14036   0.782  44.984   8.191
  709POPC   C3B14037   0.635   0.073   7.761
  709POPC   C4B14038   0.531   0.231   7.333
  710POPC   NC314039  10.889  19.901   9.564
  710POPC   PO414040  11.502  19.582   9.469
  710POPC   GL114041  11.411  19.920   9.192
  710POPC   GL214042  11.100  19.768   9.111
  710POPC   C1A14043  11.503  19.967   8.743
  710POPC   D2A14044  11.450  19.713   8.355
  710POPC   C3A14045  11.278  19.953   8.039
  710POPC   C4A14046  11.571  20.175   7.808
  710POPC   C1B14047  10.988  20.082   8.833
  710POPC   C2B14048  10.763  19.993   8.449
  710POPC   C3B14049  10.735  20.221   8.091
  710POPC   C4B14050  10.928  20.214   7.715
  711POPC   NC314051  38.945  39.719   9.703
  711POPC   PO414052  39.243  40.329   9.613
  711POPC   GL114053  39.144  40.031   9.316
  711POPC   GL214054  39.455  39.853   9.335
  711POPC   C1A14055  39.211  39.980   8.852
  711POPC   D2A14056  39.499  40.068   8.481
  711POPC   C3A14057  39.301  40.265   8.114
  711POPC   C4A14058  39.216  40.342   7.666
  711POPC   C1B14059  39.596  39.634   8.964
  711POPC   C2B14060  39.597  39.539   8.512
  711POPC   C3B14061  39.331  39.697   8.169
  711POPC   C4B14062  39.435  39.896   7.791
  712POPC   NC314063  41.594   8.240   9.552
  712POPC   PO414064  40.960   7.944   9.453
  712POPC   GL114065  41.306   7.965   9.155
  712POPC   GL214066  41.682   8.016   9.122
  712POPC   C1A14067  41.326   8.072   8.726
  712POPC   D2A14068  41.529   7.929   8.375
  712POPC   C3A14069  41.283   7.903   8.031
  712POPC   C4A14070  41.310   8.201   7.723
  712POPC   C1B14071  41.907   8.016   8.774
  712POPC   C2B14072  41.988   8.199   8.386
  712POPC   C3B14073  41.781   8.294   8.000
  712POPC   C4B14074  41.769   8.107   7.570
  713POPC   NC314075  32.160   5.391   9.448
  713POPC   PO414076  32.570   4.912   9.572
  713POPC   GL114077  32.537   5.087   9.176
  713POPC   GL214078  32.494   5.428   9.058
  713POPC   C1A14079  32.398   4.866   8.820
  713POPC   D2A14080  32.129   5.020   8.528
  713POPC   C3A14081  32.155   4.939   8.073
  713POPC   C4A14082  32.192   4.981   7.609
  713POPC   C1B14083  32.628   5.297   8.685
  713POPC   C2B14084  32.586   5.176   8.278
  713POPC   C3B14085  32.571   5.216   7.846
  713POPC   C4B14086  32.388   5.446   7.509
  714POPC   NC314087   3.998  14.944   9.445
  714POPC   PO414088   3.450  15.348   9.476
  714POPC   GL114089   3.586  15.100   9.155
  714POPC   GL214090   3.864  15.264   9.040
  714POPC   C1A14091   3.453  15.058   8.748
  714POPC   D2A14092   3.727  15.151   8.429
  714POPC   C3A14093   3.601  15.157   8.024
  714POPC   C4A14094   3.484  15.333   7.640
  714POPC   C1B14095   3.952  14.863   8.816
  714POPC   C2B14096   4.061  14.717   8.420
  714POPC   C3B14097   4.010  14.837   7.984
  714POPC   C4B14098   3.990  15.186   7.699
  715POPC   NC314099  12.744  37.330   9.606
  715POPC   PO414100  13.252  37.780   9.425
  715POPC   GL114101  12.948  37.610   9.211
  715POPC   GL214102  13.067  37.276   9.161
  715POPC   C1A14103  12.741  37.853   8.886
  715POPC   D2A14104  12.470  37.761   8.551
  715POPC   C3A14105  12.682  37.686   8.173
  715POPC   C4A14106  12.622  37.642   7.744
  715POPC   C1B14107  13.106  37.492   8.746
  715POPC   C2B14108  13.186  37.566   8.311
  715POPC   C3B14109  13.086  37.470   7.875
  715POPC   C4B14110  13.104  37.502   7.410
  716POPC   NC314111  30.416   2.775   9.627
  716POPC   PO414112  30.891   2.485   9.204
  716POPC   GL114113  30.904   2.901   9.082
  716POPC   GL214114  30.557   2.930   9.167
  716POPC   C1A14115  30.868   3.145   8.703
  716POPC   D2A14116  31.073   3.033   8.331
  716POPC   C3A14117  30.851   2.678   8.160
  716POPC   C4A14118  30.883   2.502   7.763
  716POPC   C1B14119  30.404   3.241   8.903
  716POPC   C2B14120  30.422   3.388   8.488
  716POPC   C3B14121  30.625   3.183   8.149
  716POPC   C4B14122  30.850   3.025   7.789
  717POPC   NC314123   7.096  20.308   9.804
  717POPC   PO414124   7.590  20.695   9.458
  717POPC   GL114125   7.592  20.682   9.071
  717POPC   GL214126   7.639  20.339   9.067
  717POPC   C1A14127   7.448  20.866   8.722
  717POPC   D2A14128   7.387  20.723   8.338
  717POPC   C3A14129   7.075  20.468   8.221
  717POPC   C4A14130   7.105  20.754   7.885
  717POPC   C1B14131   7.469  20.345   8.699
  717POPC   C2B14132   7.519  20.179   8.348
  717POPC   C3B14133   7.529  20.361   7.988
  717POPC   C4B14134   7.496  20.501   7.610
  718POPC   NC314135   9.220  37.178   9.552
  718POPC   PO414136   8.993  37.854   9.446
  718POPC   GL114137   8.931  37.628   9.075
  718POPC   GL214138   9.020  37.273   9.070
  718POPC   C1A14139   8.995  37.680   8.647
  718POPC   D2A14140   8.742  37.758   8.299
  718POPC   C3A14141   8.954  37.962   7.988
  718POPC   C4A14142   9.053  37.823   7.603
  718POPC   C1B14143   9.316  37.266   8.697
  718POPC   C2B14144   9.487  37.312   8.271
  718POPC   C3B14145   9.294  37.437   7.865
  718POPC   C4B14146   9.212  37.379   7.385
  719POPC   NC314147  23.123  14.337   9.388
  719POPC   PO414148  22.658  14.855   9.370
  719POPC   GL114149  22.844  14.619   9.047
  719POPC   GL214150  22.696  14.301   9.046
  719POPC   C1A14151  22.851  14.461   8.609
  719POPC   D2A14152  22.585  14.194   8.349
  719POPC   C3A14153  22.678  14.318   7.959
  719POPC   C4A14154  22.991  14.612   7.800
  719POPC   C1B14155  22.822  13.991   8.803
  719POPC   C2B14156  23.060  14.025   8.423
  719POPC   C3B14157  23.044  13.974   8.014
  719POPC   C4B14158  23.294  13.954   7.652
  720POPC   NC314159  13.811  36.652   9.493
  720POPC   PO414160  13.962  37.308   9.496
  720POPC   GL114161  13.718  37.067   9.185
  720POPC   GL214162  13.398  36.849   9.269
  720POPC   C1A14163  13.823  36.806   8.817
  720POPC   D2A14164  13.543  36.667   8.454
  720POPC   C3A14165  13.650  36.716   8.026
  720POPC   C4A14166  13.781  36.784   7.600
  720POPC   C1B14167  13.345  36.960   8.859
  720POPC   C2B14168  13.226  37.071   8.459
  720POPC   C3B14169  13.439  37.164   8.099
  720POPC   C4B14170  13.296  36.977   7.695
  721POPC   NC314171   6.339   6.342   9.444
  721POPC   PO414172   6.334   7.094   9.464
  721POPC   GL114173   6.472   6.776   9.171
  721POPC   GL214174   6.797   6.754   9.097
  721POPC   C1A14175   6.512   6.578   8.730
  721POPC   D2A14176   6.676   6.349   8.420
  721POPC   C3A14177   6.527   6.513   8.051
  721POPC   C4A14178   6.789   6.647   7.708
  721POPC   C1B14179   6.650   7.055   8.754
  721POPC   C2B14180   6.569   6.955   8.358
  721POPC   C3B14181   6.519   7.167   8.001
  721POPC   C4B14182   6.522   7.074   7.580
  722POPC   NC314183  36.325  31.884   9.629
  722POPC   PO414184  36.402  31.237   9.518
  722POPC   GL114185  36.207  31.552   9.233
  722POPC   GL214186  36.372  31.869   9.119
  722POPC   C1A14187  36.193  31.460   8.803
  722POPC   D2A14188  36.041  31.600   8.440
  722POPC   C3A14189  36.099  31.403   8.078
  722POPC   C4A14190  36.045  31.540   7.666
  722POPC   C1B14191  36.680  31.604   8.906
  722POPC   C2B14192  36.680  31.327   8.550
  722POPC   C3B14193  36.548  31.565   8.205
  722POPC   C4B14194  36.486  31.753   7.821
  723POPC   NC314195  14.430  15.535   9.574
  723POPC   PO414196  14.020  16.164   9.550
  723POPC   GL114197  14.395  15.988   9.318
  723POPC   GL214198  14.304  16.264   9.110
  723POPC   C1A14199  14.639  15.958   8.907
  723POPC   D2A14200  14.567  15.786   8.487
  723POPC   C3A14201  14.592  16.007   8.108
  723POPC   C4A14202  14.401  15.845   7.733
  723POPC   C1B14203  14.327  16.350   8.688
  723POPC   C2B14204  14.190  16.227   8.310
  723POPC   C3B14205  14.258  16.336   7.885
  723POPC   C4B14206  14.433  16.274   7.464
  724POPC   NC314207  43.643  27.605   9.596
  724POPC   PO414208  44.246  27.360   9.559
  724POPC   GL114209  43.989  27.578   9.202
  724POPC   GL214210  43.621  27.522   9.104
  724POPC   C1A14211  44.026  27.513   8.748
  724POPC   D2A14212  44.170  27.511   8.331
  724POPC   C3A14213  43.947  27.435   7.920
  724POPC   C4A14214  43.717  27.067   7.730
  724POPC   C1B14215  43.701  27.885   8.831
  724POPC   C2B14216  43.840  28.039   8.406
  724POPC   C3B14217  43.722  28.062   7.946
  724POPC   C4B14218  43.801  27.791   7.600
  725POPC   NC314219  33.131  40.392   9.883
  725POPC   PO414220  32.956  40.733   9.343
  725POPC   GL114221  33.140  40.874   8.965
  725POPC   GL214222  33.361  40.598   9.017
  725POPC   C1A14223  33.335  40.788   8.552
  725POPC   D2A14224  33.033  40.701   8.234
  725POPC   C3A14225  33.067  41.044   7.964
  725POPC   C4A14226  32.982  40.954   7.545
  725POPC   C1B14227  32.946  40.490   8.716
  725POPC   C2B14228  32.668  40.324   8.402
  725POPC   C3B14229  32.570  40.311   7.948
  725POPC   C4B14230  32.773  40.469   7.562
  726POPC   NC314231  38.797  22.200   9.542
  726POPC   PO414232  38.119  22.194   9.543
  726POPC   GL114233  38.421  22.261   9.193
  726POPC   GL214234  38.549  21.898   9.153
  726POPC   C1A14235  38.428  22.176   8.751
  726POPC   D2A14236  38.436  21.929   8.389
  726POPC   C3A14237  38.432  22.184   8.036
  726POPC   C4A14238  38.533  22.123   7.621
  726POPC   C1B14239  38.846  21.885   8.766
  726POPC   C2B14240  38.947  21.964   8.358
  726POPC   C3B14241  38.814  21.845   7.958
  726POPC   C4B14242  39.029  21.940   7.589
  727POPC   NC314243  21.576  10.598   9.650
  727POPC   PO414244  20.962  10.354   9.812
  727POPC   GL114245  21.298  10.366   9.334
  727POPC   GL214246  21.622  10.165   9.309
  727POPC   C1A14247  21.544  10.620   8.995
  727POPC   D2A14248  21.422  10.836   8.626
  727POPC   C3A14249  21.644  10.791   8.245
  727POPC   C4A14250  21.548  10.739   7.817
  727POPC   C1B14251  21.430  10.137   8.887
  727POPC   C2B14252  21.602  10.348   8.535
  727POPC   C3B14253  21.512  10.296   8.103
  727POPC   C4B14254  21.572  10.072   7.736
  728POPC   NC314255  11.186  31.236   9.718
  728POPC   PO414256  11.442  31.814   9.540
  728POPC   GL114257  11.432  31.611   9.153
  728POPC   GL214258  11.106  31.465   9.224
  728POPC   C1A14259  11.276  31.616   8.720
  728POPC   D2A14260  11.188  31.694   8.280
  728POPC   C3A14261  11.477  31.567   7.951
  728POPC   C4A14262  11.442  31.728   7.522
  728POPC   C1B14263  11.244  31.150   8.920
  728POPC   C2B14264  11.254  31.163   8.439
  728POPC   C3B14265  11.056  31.264   8.001
  728POPC   C4B14266  10.746  31.145   7.668
  729POPC   NC314267  42.422  20.141   9.348
  729POPC   PO414268  41.992  19.907   9.750
  729POPC   GL114269  42.198  19.716   9.263
  729POPC   GL214270  42.523  19.785   9.023
  729POPC   C1A14271  42.056  19.889   8.838
  729POPC   D2A14272  42.078  20.068   8.403
  729POPC   C3A14273  42.492  20.136   8.202
  729POPC   C4A14274  42.390  19.935   7.825
  729POPC   C1B14275  42.416  19.536   8.673
  729POPC   C2B14276  42.351  19.641   8.250
  729POPC   C3B14277  42.325  19.425   7.867
  729POPC   C4B14278  42.715  19.283   7.723
  730POPC   NC314279  33.497  38.926   9.516
  730POPC   PO414280  34.232  38.810   9.548
  730POPC   GL114281  33.954  38.976   9.185
  730POPC   GL214282  34.114  39.277   9.052
  730POPC   C1A14283  33.702  39.156   8.784
  730POPC   D2A14284  33.494  39.318   8.379
  730POPC   C3A14285  33.649  39.102   7.966
  730POPC   C4A14286  33.875  38.731   7.773
  730POPC   C1B14287  34.100  39.490   8.691
  730POPC   C2B14288  33.959  39.484   8.283
  730POPC   C3B14289  33.891  39.552   7.879
  730POPC   C4B14290  34.231  39.572   7.610
  731POPC   NC314291  11.791  41.737   9.612
  731POPC   PO414292  12.406  41.278   9.546
  731POPC   GL114293  12.243  41.240   9.152
  731POPC   GL214294  11.961  41.420   9.225
  731POPC   C1A14295  12.275  41.538   8.797
  731POPC   D2A14296  12.290  41.852   8.464
  731POPC   C3A14297  12.261  41.690   8.068
  731POPC   C4A14298  12.074  41.864   7.721
  731POPC   C1B14299  11.811  41.339   8.797
  731POPC   C2B14300  11.989  41.366   8.380
  731POPC   C3B14301  11.840  41.401   7.941
  731POPC   C4B14302  12.096  41.380   7.585
  732POPC   NC314303   9.437  44.301   9.289
  732POPC   PO414304   8.974  44.735   9.583
  732POPC   GL114305   8.972  44.702   9.165
  732POPC   GL214306   8.974  44.359   9.079
  732POPC   C1A14307   8.843  44.730   8.759
  732POPC   D2A14308   8.814  44.964   8.435
  732POPC   C3A14309   8.873  44.721   8.066
  732POPC   C4A14310   8.959  44.880   7.669
  732POPC   C1B14311   9.263  44.437   8.691
  732POPC   C2B14312   9.257  44.429   8.257
  732POPC   C3B14313   9.028  44.212   7.974
  732POPC   C4B14314   8.846  44.394   7.643
  733POPC   NC314315  31.112   7.515   9.418
  733POPC   PO414316  30.492   7.195   9.447
  733POPC   GL114317  30.665   7.442   9.087
  733POPC   GL214318  31.018   7.358   8.948
  733POPC   C1A14319  30.649   7.435   8.626
  733POPC   D2A14320  30.864   7.327   8.293
  733POPC   C3A14321  30.633   7.512   8.026
  733POPC   C4A14322  30.564   7.433   7.630
  733POPC   C1B14323  30.943   7.811   8.772
  733POPC   C2B14324  30.785   7.894   8.398
  733POPC   C3B14325  31.032   7.801   8.093
  733POPC   C4B14326  31.013   7.699   7.698
  734POPC   NC314327   1.745   3.246   9.425
  734POPC   PO414328   2.112   3.724   9.675
  734POPC   GL114329   1.966   3.781   9.253
  734POPC   GL214330   1.613   3.694   9.204
  734POPC   C1A14331   2.073   3.592   8.858
  734POPC   D2A14332   1.967   3.419   8.458
  734POPC   C3A14333   2.287   3.509   8.153
  734POPC   C4A14334   2.225   3.532   7.724
  734POPC   C1B14335   1.659   3.937   8.821
  734POPC   C2B14336   1.919   3.939   8.433
  734POPC   C3B14337   1.868   3.761   8.004
  734POPC   C4B14338   1.938   3.939   7.580
  735POPC   NC314339  28.944  38.994   9.535
  735POPC   PO414340  29.068  38.320   9.624
  735POPC   GL114341  29.220  38.366   9.223
  735POPC   GL214342  29.206  38.740   9.155
  735POPC   C1A14343  29.354  38.299   8.813
  735POPC   D2A14344  29.265  38.509   8.418
  735POPC   C3A14345  29.309  38.286   8.052
  735POPC   C4A14346  29.378  38.396   7.619
  735POPC   C1B14347  29.110  38.910   8.761
  735POPC   C2B14348  28.971  38.922   8.335
  735POPC   C3B14349  29.201  38.801   7.945
  735POPC   C4B14350  29.082  38.788   7.499
  736POPC   NC314351  36.423  24.838   9.603
  736POPC   PO414352  36.994  24.492   9.562
  736POPC   GL114353  37.127  24.400   9.160
  736POPC   GL214354  37.315  24.681   9.134
  736POPC   C1A14355  36.975  24.473   8.754
  736POPC   D2A14356  36.753  24.315   8.407
  736POPC   C3A14357  36.781  24.484   7.992
  736POPC   C4A14358  36.518  24.489   7.618
  736POPC   C1B14359  37.472  24.544   8.727
  736POPC   C2B14360  37.254  24.620   8.332
  736POPC   C3B14361  37.453  24.755   7.940
  736POPC   C4B14362  37.173  24.590   7.646
  737POPC   NC314363  33.969  29.604   9.641
  737POPC   PO414364  34.121  30.233   9.573
  737POPC   GL114365  34.031  29.929   9.212
  737POPC   GL214366  33.687  29.766   9.241
  737POPC   C1A14367  33.840  29.957   8.778
  737POPC   D2A14368  33.643  30.096   8.377
  737POPC   C3A14369  33.904  29.992   8.043
  737POPC   C4A14370  34.234  30.207   7.868
  737POPC   C1B14371  33.545  29.544   8.852
  737POPC   C2B14372  33.690  29.594   8.426
  737POPC   C3B14373  33.532  29.647   8.005
  737POPC   C4B14374  33.386  30.065   7.884
  738POPC   NC314375   6.765   3.035   9.346
  738POPC   PO414376   6.656   2.398   9.580
  738POPC   GL114377   6.612   2.552   9.197
  738POPC   GL214378   6.962   2.573   9.109
  738POPC   C1A14379   6.540   2.637   8.784
  738POPC   D2A14380   6.640   2.537   8.365
  738POPC   C3A14381   6.566   2.808   8.059
  738POPC   C4A14382   6.410   2.766   7.675
  738POPC   C1B14383   6.981   2.877   8.737
  738POPC   C2B14384   7.063   2.865   8.287
  738POPC   C3B14385   7.020   2.621   7.896
  738POPC   C4B14386   6.903   2.578   7.468
  739POPC   NC314387  44.700  31.160   9.244
  739POPC   PO414388  44.209  31.575   9.515
  739POPC   GL114389  44.530  31.736   9.206
  739POPC   GL214390  44.912  31.689   9.296
  739POPC   C1A14391  44.532  31.606   8.755
  739POPC   D2A14392  44.692  31.230   8.514
  739POPC   C3A14393  44.760  31.323   8.074
  739POPC   C4A14394  44.709  31.191   7.649
  739POPC   C1B14395   0.031  31.634   8.848
  739POPC   C2B14396   0.007  31.843   8.434
  739POPC   C3B14397  44.992  31.784   7.996
  739POPC   C4B14398  44.676  31.723   7.700
  740POPC   NC314399   5.109  15.705   9.980
  740POPC   PO414400   5.142  15.105   9.666
  740POPC   GL114401   5.057  15.102   9.243
  740POPC   GL214402   5.048  15.458   9.207
  740POPC   C1A14403   5.261  15.079   8.844
  740POPC   D2A14404   5.153  15.329   8.481
  740POPC   C3A14405   4.887  15.191   8.142
  740POPC   C4A14406   4.944  15.120   7.715
  740POPC   C1B14407   4.958  15.726   8.842
  740POPC   C2B14408   5.015  15.846   8.416
  740POPC   C3B14409   5.153  15.608   8.053
  740POPC   C4B14410   5.383  15.348   7.748
  741POPC   NC314411  36.724   6.818   9.547
  741POPC   PO414412  37.258   6.379   9.474
  741POPC   GL114413  37.050   6.575   9.065
  741POPC   GL214414  36.697   6.468   9.134
  741POPC   C1A14415  37.135   6.720   8.573
  741POPC   D2A14416  37.041   6.415   8.178
  741POPC   C3A14417  36.813   6.520   7.826
  741POPC   C4A14418  36.928   6.857   7.597
  741POPC   C1B14419  36.779   6.371   8.685
  741POPC   C2B14420  36.674   6.690   8.349
  741POPC   C3B14421  36.581   6.919   8.006
  741POPC   C4B14422  36.404   6.838   7.607
  742POPC   NC314423  42.757  32.934   9.453
  742POPC   PO414424  42.070  33.213   9.500
  742POPC   GL114425  42.368  33.201   9.199
  742POPC   GL214426  42.333  32.841   9.162
  742POPC   C1A14427  42.355  33.191   8.755
  742POPC   D2A14428  42.484  32.983   8.385
  742POPC   C3A14429  42.230  33.068   8.038
  742POPC   C4A14430  42.393  33.295   7.711
  742POPC   C1B14431  42.517  32.673   8.791
  742POPC   C2B14432  42.595  32.480   8.402
  742POPC   C3B14433  42.622  32.440   7.976
  742POPC   C4B14434  42.533  32.810   7.713
  743POPC   NC314435  11.544  30.366   9.708
  743POPC   PO414436  11.368  29.823   9.699
  743POPC   GL114437  11.306  29.891   9.260
  743POPC   GL214438  11.415  30.228   9.217
  743POPC   C1A14439  11.304  29.858   8.781
  743POPC   D2A14440  11.146  29.757   8.337
  743POPC   C3A14441  11.313  29.979   7.937
  743POPC   C4A14442  11.442  29.892   7.480
  743POPC   C1B14443  11.544  30.330   8.810
  743POPC   C2B14444  11.427  30.262   8.377
  743POPC   C3B14445  11.507  30.456   7.961
  743POPC   C4B14446  11.324  30.369   7.572
  744POPC   NC314447  27.723  10.737   9.508
  744POPC   PO414448  27.588  11.403   9.568
  744POPC   GL114449  27.709  11.218   9.191
  744POPC   GL214450  27.488  10.932   9.107
  744POPC   C1A14451  27.644  11.400   8.770
  744POPC   D2A14452  27.871  11.515   8.376
  744POPC   C3A14453  27.639  11.440   8.033
  744POPC   C4A14454  27.586  11.170   7.712
  744POPC   C1B14455  27.216  11.026   8.759
  744POPC   C2B14456  27.310  11.200   8.367
  744POPC   C3B14457  27.280  10.925   8.030
  744POPC   C4B14458  27.128  10.981   7.635
  745POPC   NC314459  42.170  31.201   9.405
  745POPC   PO414460  42.036  30.568   9.430
  745POPC   GL114461  42.261  30.777   9.130
  745POPC   GL214462  42.592  30.845   9.252
  745POPC   C1A14463  42.219  30.778   8.694
  745POPC   D2A14464  42.365  30.803   8.264
  745POPC   C3A14465  42.150  30.663   7.908
  745POPC   C4A14466  42.268  30.833   7.511
  745POPC   C1B14467  42.618  30.489   8.918
  745POPC   C2B14468  42.567  30.390   8.489
  745POPC   C3B14469  42.503  30.249   8.080
  745POPC   C4B14470  42.503  30.352   7.655
  746POPC   NC314471   5.462  12.914   9.592
  746POPC   PO414472   4.821  12.706   9.555
  746POPC   GL114473   5.164  12.663   9.227
  746POPC   GL214474   5.147  13.006   9.169
  746POPC   C1A14475   5.295  12.757   8.766
  746POPC   D2A14476   5.085  12.656   8.378
  746POPC   C3A14477   5.141  12.844   7.983
  746POPC   C4A14478   5.521  12.860   7.761
  746POPC   C1B14479   5.025  13.220   8.802
  746POPC   C2B14480   4.994  13.191   8.354
  746POPC   C3B14481   4.994  13.375   7.936
  746POPC   C4B14482   4.660  13.424   7.637
  747POPC   NC314483  32.399  11.342   9.525
  747POPC   PO414484  31.771  11.679   9.518
  747POPC   GL114485  32.017  11.432   9.141
  747POPC   GL214486  32.298  11.180   9.074
  747POPC   C1A14487  32.119  11.330   8.662
  747POPC   D2A14488  32.182  11.068   8.361
  747POPC   C3A14489  32.368  11.223   8.034
  747POPC   C4A14490  32.243  11.114   7.624
  747POPC   C1B14491  32.601  11.401   8.801
  747POPC   C2B14492  32.560  11.592   8.390
  747POPC   C3B14493  32.652  11.643   7.933
  747POPC   C4B14494  32.277  11.607   7.636
  748POPC   NC314495  19.188   8.314  10.005
  748POPC   PO414496  18.799   8.196   9.487
  748POPC   GL114497  18.878   8.001   9.075
  748POPC   GL214498  18.601   7.819   9.000
  748POPC   C1A14499  18.989   8.010   8.659
  748POPC   D2A14500  19.076   8.289   8.336
  748POPC   C3A14501  19.037   8.122   7.960
  748POPC   C4A14502  19.117   8.227   7.568
  748POPC   C1B14503  18.502   8.103   8.650
  748POPC   C2B14504  18.602   8.053   8.253
  748POPC   C3B14505  18.543   8.175   7.850
  748POPC   C4B14506  18.666   7.901   7.505
  749POPC   NC314507  16.180  37.538   9.593
  749POPC   PO414508  15.429  37.667   9.585
  749POPC   GL114509  15.799  37.522   9.252
  749POPC   GL214510  16.157  37.723   9.132
  749POPC   C1A14511  15.937  37.388   8.831
  749POPC   D2A14512  15.712  37.371   8.438
  749POPC   C3A14513  15.908  37.276   8.059
  749POPC   C4A14514  15.981  37.578   7.750
  749POPC   C1B14515  16.002  37.898   8.750
  749POPC   C2B14516  16.037  37.779   8.336
  749POPC   C3B14517  16.127  38.003   7.960
  749POPC   C4B14518  16.448  38.071   7.686
  750POPC   NC314519  17.396  38.234   9.533
  750POPC   PO414520  17.759  38.813   9.492
  750POPC   GL114521  17.675  38.507   9.191
  750POPC   GL214522  17.859  38.202   9.294
  750POPC   C1A14523  17.383  38.437   8.859
  750POPC   D2A14524  17.278  38.598   8.433
  750POPC   C3A14525  17.484  38.448   8.061
  750POPC   C4A14526  17.423  38.430   7.621
  750POPC   C1B14527  17.728  38.051   8.902
  750POPC   C2B14528  17.693  38.238   8.493
  750POPC   C3B14529  17.682  37.998   8.129
  750POPC   C4B14530  17.771  38.096   7.719
  751POPC   NC314531  31.058  29.769   9.341
  751POPC   PO414532  31.285  29.189   9.410
  751POPC   GL114533  31.478  29.254   9.048
  751POPC   GL214534  31.437  29.583   9.052
  751POPC   C1A14535  31.267  29.234   8.655
  751POPC   D2A14536  31.423  29.144   8.271
  751POPC   C3A14537  31.189  29.065   7.923
  751POPC   C4A14538  31.332  29.226   7.532
  751POPC   C1B14539  31.241  29.737   8.680
  751POPC   C2B14540  31.469  29.680   8.308
  751POPC   C3B14541  31.474  29.540   7.903
  751POPC   C4B14542  31.352  29.742   7.527
  752POPC   NC314543   7.322  30.814   9.774
  752POPC   PO414544   7.488  31.072   9.179
  752POPC   GL114545   7.240  30.749   9.000
  752POPC   GL214546   7.458  30.488   9.050
  752POPC   C1A14547   7.228  30.546   8.603
  752POPC   D2A14548   7.461  30.554   8.252
  752POPC   C3A14549   7.404  30.850   7.989
  752POPC   C4A14550   7.254  30.753   7.587
  752POPC   C1B14551   7.686  30.742   8.674
  752POPC   C2B14552   7.933  30.787   8.300
  752POPC   C3B14553   7.888  30.596   7.919
  752POPC   C4B14554   7.725  30.624   7.532
  753POPC   NC314555  41.202  39.735   9.475
  753POPC   PO414556  41.619  40.279   9.601
  753POPC   GL114557  41.526  40.083   9.231
  753POPC   GL214558  41.750  39.812   9.189
  753POPC   C1A14559  41.523  40.211   8.801
  753POPC   D2A14560  41.730  40.150   8.408
  753POPC   C3A14561  41.498  40.276   8.006
  753POPC   C4A14562  41.225  40.502   7.702
  753POPC   C1B14563  41.453  39.698   8.877
  753POPC   C2B14564  41.437  39.713   8.471
  753POPC   C3B14565  41.599  39.772   8.084
  753POPC   C4B14566  41.742  39.667   7.728
  754POPC   NC314567   7.221  11.845   9.636
  754POPC   PO414568   7.452  12.315   9.239
  754POPC   GL114569   7.485  12.048   8.987
  754POPC   GL214570   7.203  11.847   9.103
  754POPC   C1A14571   7.274  12.063   8.601
  754POPC   D2A14572   6.959  12.277   8.365
  754POPC   C3A14573   7.176  12.307   7.969
  754POPC   C4A14574   7.410  12.191   7.569
  754POPC   C1B14575   7.464  11.612   8.777
  754POPC   C2B14576   7.755  11.670   8.447
  754POPC   C3B14577   7.686  11.529   8.030
  754POPC   C4B14578   7.489  11.702   7.685
  755POPC   NC314579   3.695  17.877   9.447
  755POPC   PO414580   3.856  18.518   9.418
  755POPC   GL114581   3.514  18.457   9.130
  755POPC   GL214582   3.490  18.111   9.052
  755POPC   C1A14583   3.363  18.451   8.705
  755POPC   D2A14584   3.200  18.738   8.444
  755POPC   C3A14585   3.366  18.543   8.085
  755POPC   C4A14586   3.655  18.722   7.803
  755POPC   C1B14587   3.762  17.908   8.774
  755POPC   C2B14588   3.751  17.752   8.364
  755POPC   C3B14589   3.887  17.817   7.941
  755POPC   C4B14590   3.713  18.137   7.674
  756POPC   NC314591  33.951  14.322   9.419
  756POPC   PO414592  33.431  13.907   9.517
  756POPC   GL114593  33.494  14.197   9.172
  756POPC   GL214594  33.590  14.576   9.138
  756POPC   C1A14595  33.666  14.179   8.760
  756POPC   D2A14596  33.545  14.432   8.390
  756POPC   C3A14597  33.700  14.228   8.006
  756POPC   C4A14598  33.933  14.157   7.605
  756POPC   C1B14599  33.958  14.576   8.803
  756POPC   C2B14600  34.062  14.376   8.379
  756POPC   C3B14601  34.117  14.524   7.935
  756POPC   C4B14602  34.247  14.546   7.476
  757POPC   NC314603  28.423  10.674   9.551
  757POPC   PO414604  28.679  10.043   9.549
  757POPC   GL114605  28.487  10.309   9.193
  757POPC   GL214606  28.159  10.549   9.158
  757POPC   C1A14607  28.526  10.586   8.826
  757POPC   D2A14608  28.183  10.607   8.537
  757POPC   C3A14609  28.261  10.796   8.144
  757POPC   C4A14610  28.474  10.626   7.785
  757POPC   C1B14611  28.081  10.188   8.890
  757POPC   C2B14612  28.030  10.093   8.483
  757POPC   C3B14613  28.177  10.286   8.123
  757POPC   C4B14614  28.166  10.239   7.720
  758POPC   NC314615  44.706   9.557   9.642
  758POPC   PO414616   0.131   9.252   9.556
  758POPC   GL114617  44.942   9.439   9.165
  758POPC   GL214618  44.827   9.789   9.165
  758POPC   C1A14619  44.775   9.519   8.722
  758POPC   D2A14620  44.829   9.781   8.339
  758POPC   C3A14621  44.555   9.727   7.955
  758POPC   C4A14622  44.256   9.873   7.600
  758POPC   C1B14623  44.676  10.025   8.781
  758POPC   C2B14624  44.522  10.195   8.369
  758POPC   C3B14625  44.563  10.246   7.894
  758POPC   C4B14626  44.460  10.305   7.422
  759POPC   NC314627   4.044  41.518   9.744
  759POPC   PO414628   3.473  41.280   9.444
  759POPC   GL114629   3.575  41.521   9.095
  759POPC   GL214630   3.277  41.423   8.935
  759POPC   C1A14631   3.770  41.402   8.698
  759POPC   D2A14632   3.493  41.216   8.416
  759POPC   C3A14633   3.544  41.392   8.025
  759POPC   C4A14634   3.896  41.556   7.835
  759POPC   C1B14635   3.402  41.724   8.625
  759POPC   C2B14636   3.722  41.778   8.332
  759POPC   C3B14637   3.643  41.972   7.954
  759POPC   C4B14638   3.480  41.838   7.567
  760POPC   NC314639  13.598  41.056   9.447
  760POPC   PO414640  13.801  41.791   9.489
  760POPC   GL114641  13.615  41.715   9.098
  760POPC   GL214642  13.588  41.378   9.039
  760POPC   C1A14643  13.647  41.691   8.629
  760POPC   D2A14644  13.620  41.353   8.328
  760POPC   C3A14645  13.798  41.373   7.933
  760POPC   C4A14646  13.692  41.729   7.706
  760POPC   C1B14647  13.312  41.186   8.734
  760POPC   C2B14648  13.308  40.965   8.325
  760POPC   C3B14649  13.274  41.090   7.909
  760POPC   C4B14650  13.499  41.227   7.553
  761POPC   NC314651   4.988  26.422   9.943
  761POPC   PO414652   5.115  25.885   9.656
  761POPC   GL114653   4.980  25.799   9.232
  761POPC   GL214654   5.252  25.959   9.068
  761POPC   C1A14655   4.906  25.751   8.756
  761POPC   D2A14656   4.838  25.900   8.306
  761POPC   C3A14657   5.084  25.795   7.944
  761POPC   C4A14658   5.399  25.833   7.623
  761POPC   C1B14659   5.265  26.087   8.601
  761POPC   C2B14660   5.439  26.085   8.153
  761POPC   C3B14661   5.569  26.292   7.771
  761POPC   C4B14662   5.484  26.625   7.449
  762POPC   NC314663  36.293  15.144   9.566
  762POPC   PO414664  35.820  14.734   9.463
  762POPC   GL114665  36.105  14.954   9.139
  762POPC   GL214666  36.154  15.349   9.115
  762POPC   C1A14667  36.219  15.003   8.711
  762POPC   D2A14668  36.456  14.898   8.350
  762POPC   C3A14669  36.381  15.199   8.055
  762POPC   C4A14670  36.226  15.203   7.654
  762POPC   C1B14671  35.931  15.433   8.709
  762POPC   C2B14672  35.920  15.271   8.281
  762POPC   C3B14673  35.733  15.354   7.871
  762POPC   C4B14674  35.898  15.514   7.448
  763POPC   NC314675  29.402  22.533   9.512
  763POPC   PO414676  28.848  23.005   9.499
  763POPC   GL114677  28.803  22.843   9.119
  763POPC   GL214678  29.146  22.952   9.081
  763POPC   C1A14679  28.801  23.016   8.720
  763POPC   D2A14680  29.102  23.082   8.426
  763POPC   C3A14681  28.886  23.009   8.057
  763POPC   C4A14682  29.107  22.951   7.703
  763POPC   C1B14683  29.486  22.893   8.809
  763POPC   C2B14684  29.539  22.723   8.432
  763POPC   C3B14685  29.498  22.867   8.024
  763POPC   C4B14686  29.530  22.533   7.746
  764POPC   NC314687  29.156  12.617   9.478
  764POPC   PO414688  29.641  13.011   9.655
  764POPC   GL114689  29.418  13.011   9.212
  764POPC   GL214690  29.035  13.019   9.184
  764POPC   C1A14691  29.299  12.776   8.801
  764POPC   D2A14692  29.438  12.896   8.366
  764POPC   C3A14693  29.148  12.773   7.999
  764POPC   C4A14694  29.039  12.467   7.634
  764POPC   C1B14695  28.792  12.912   8.785
  764POPC   C2B14696  28.762  12.692   8.379
  764POPC   C3B14697  28.643  12.710   7.932
  764POPC   C4B14698  28.842  12.939   7.557
  765POPC   NC314699  17.998  24.307   9.700
  765POPC   PO414700  17.503  24.719   9.559
  765POPC   GL114701  17.563  24.828   9.123
  765POPC   GL214702  17.400  24.534   9.024
  765POPC   C1A14703  17.471  24.928   8.703
  765POPC   D2A14704  17.646  24.738   8.346
  765POPC   C3A14705  17.516  24.785   7.934
  765POPC   C4A14706  17.443  24.469   7.679
  765POPC   C1B14707  17.257  24.458   8.597
  765POPC   C2B14708  17.258  24.360   8.162
  765POPC   C3B14709  17.242  24.006   7.868
  765POPC   C4B14710  17.253  24.083   7.424
  766POPC   NC314711  34.578  30.339   9.500
  766POPC   PO414712  34.968  29.838   9.340
  766POPC   GL114713  34.629  30.009   9.112
  766POPC   GL214714  34.773  30.370   9.045
  766POPC   C1A14715  34.335  29.870   8.793
  766POPC   D2A14716  34.182  29.704   8.402
  766POPC   C3A14717  34.370  29.748   8.004
  766POPC   C4A14718  34.737  29.667   7.752
  766POPC   C1B14719  34.621  30.279   8.681
  766POPC   C2B14720  34.559  30.103   8.313
  766POPC   C3B14721  34.756  30.138   7.939
  766POPC   C4B14722  34.591  30.118   7.534
  767POPC   NC314723  16.174   5.617   9.602
  767POPC   PO414724  15.904   6.178   9.499
  767POPC   GL114725  16.134   6.131   9.134
  767POPC   GL214726  16.088   5.774   9.121
  767POPC   C1A14727  16.086   6.190   8.666
  767POPC   D2A14728  16.002   6.361   8.256
  767POPC   C3A14729  16.081   6.058   7.947
  767POPC   C4A14730  15.952   5.646   7.799
  767POPC   C1B14731  16.036   5.665   8.693
  767POPC   C2B14732  16.280   5.690   8.297
  767POPC   C3B14733  16.355   5.371   7.928
  767POPC   C4B14734  16.241   5.394   7.455
  768POPC   NC314735   4.933  18.420   9.570
  768POPC   PO414736   5.579  18.375   9.487
  768POPC   GL114737   5.334  18.473   9.125
  768POPC   GL214738   4.996  18.319   9.088
  768POPC   C1A14739   5.186  18.564   8.710
  768POPC   D2A14740   5.238  18.375   8.335
  768POPC   C3A14741   5.065  18.595   8.013
  768POPC   C4A14742   5.089  18.433   7.583
  768POPC   C1B14743   4.878  18.068   8.747
  768POPC   C2B14744   4.739  17.952   8.353
  768POPC   C3B14745   4.899  18.109   7.968
  768POPC   C4B14746   5.139  17.913   7.636
  769POPC   NC314747   5.762   1.694   9.518
  769POPC   PO414748   5.882   1.069   9.442
  769POPC   GL114749   5.922   0.920   9.067
  769POPC   GL214750   5.629   0.766   8.986
  769POPC   C1A14751   5.919   1.240   8.738
  769POPC   D2A14752   5.657   1.450   8.433
  769POPC   C3A14753   5.864   1.418   8.025
  769POPC   C4A14754   5.706   1.377   7.627
  769POPC   C1B14755   5.724   0.794   8.605
  769POPC   C2B14756   5.794   0.981   8.267
  769POPC   C3B14757   5.783   0.925   7.855
  769POPC   C4B14758   5.526   0.932   7.495
  770POPC   NC314759  38.469   4.823   9.432
  770POPC   PO414760  38.244   4.226   9.526
  770POPC   GL114761  38.464   4.241   9.136
  770POPC   GL214762  38.470   4.586   8.980
  770POPC   C1A14763  38.479   4.159   8.695
  770POPC   D2A14764  38.580   4.397   8.331
  770POPC   C3A14765  38.622   4.225   7.939
  770POPC   C4A14766  38.256   4.052   7.757
  770POPC   C1B14767  38.643   4.812   8.618
  770POPC   C2B14768  38.447   4.871   8.190
  770POPC   C3B14769  38.225   4.541   7.942
  770POPC   C4B14770  38.210   4.478   7.470
  771POPC   NC314771  19.636  24.124   9.528
  771POPC   PO414772  20.105  23.536   9.589
  771POPC   GL114773  19.929  23.618   9.201
  771POPC   GL214774  19.594  23.629   9.336
  771POPC   C1A14775  19.948  23.907   8.822
  771POPC   D2A14776  19.939  24.120   8.397
  771POPC   C3A14777  19.816  23.919   7.997
  771POPC   C4A14778  20.060  23.681   7.704
  771POPC   C1B14779  19.510  23.642   8.881
  771POPC   C2B14780  19.651  23.678   8.430
  771POPC   C3B14781  19.584  23.472   8.010
  771POPC   C4B14782  19.559  23.175   7.662
  772POPC   NC314783  26.189  32.681   9.357
  772POPC   PO414784  26.145  32.044   9.450
  772POPC   GL114785  25.989  32.277   9.098
  772POPC   GL214786  26.179  32.541   8.880
  772POPC   C1A14787  25.864  32.164   8.696
  772POPC   D2A14788  26.071  32.314   8.360
  772POPC   C3A14789  25.948  32.156   7.997
  772POPC   C4A14790  26.150  32.397   7.692
  772POPC   C1B14791  26.380  32.145   8.772
  772POPC   C2B14792  26.571  32.194   8.388
  772POPC   C3B14793  26.487  32.144   7.996
  772POPC   C4B14794  26.425  31.890   7.671
  773POPC   NC314795  30.984  12.470   9.516
  773POPC   PO414796  30.387  12.783   9.765
  773POPC   GL114797  30.634  12.670   9.211
  773POPC   GL214798  30.614  13.042   9.006
  773POPC   C1A14799  30.792  12.667   8.768
  773POPC   D2A14800  30.816  12.993   8.419
  773POPC   C3A14801  30.759  12.835   7.981
  773POPC   C4A14802  30.620  12.624   7.611
  773POPC   C1B14803  30.339  12.960   8.659
  773POPC   C2B14804  30.333  13.030   8.199
  773POPC   C3B14805  30.356  13.037   7.733
  773POPC   C4B14806  30.158  13.160   7.320
  774POPC   NC314807  10.733  18.446   9.270
  774POPC   PO414808  11.147  18.065   9.652
  774POPC   GL114809  11.209  18.290   9.209
  774POPC   GL214810  11.335  17.982   9.122
  774POPC   C1A14811  11.471  18.400   8.831
  774POPC   D2A14812  11.659  18.322   8.408
  774POPC   C3A14813  11.488  18.438   7.992
  774POPC   C4A14814  11.671  18.373   7.549
  774POPC   C1B14815  11.152  18.040   8.682
  774POPC   C2B14816  11.139  18.203   8.323
  774POPC   C3B14817  11.221  18.005   7.984
  774POPC   C4B14818  11.191  18.235   7.619
  775POPC   NC314819  30.342  34.253   9.250
  775POPC   PO414820  30.804  34.571   9.678
  775POPC   GL114821  30.821  34.370   9.312
  775POPC   GL214822  30.694  34.679   9.182
  775POPC   C1A14823  30.838  34.320   8.849
  775POPC   D2A14824  30.971  34.464   8.461
  775POPC   C3A14825  30.719  34.316   8.169
  775POPC   C4A14826  30.736  34.424   7.784
  775POPC   C1B14827  30.773  34.817   8.774
  775POPC   C2B14828  30.505  34.690   8.458
  775POPC   C3B14829  30.526  34.800   8.052
  775POPC   C4B14830  30.779  34.942   7.707
  776POPC   NC314831  23.926  44.804   9.460
  776POPC   PO414832  23.424  44.354   9.626
  776POPC   GL114833  23.651  44.408   9.272
  776POPC   GL214834  23.475  44.717   9.203
  776POPC   C1A14835  23.873  44.393   8.884
  776POPC   D2A14836  23.811  44.635   8.507
  776POPC   C3A14837  23.743  44.469   8.105
  776POPC   C4A14838  23.951  44.472   7.706
  776POPC   C1B14839  23.390  44.554   8.809
  776POPC   C2B14840  23.324  44.707   8.398
  776POPC   C3B14841  23.568  44.965   8.139
  776POPC   C4B14842  23.611  44.849   7.745
  777POPC   NC314843  31.790   7.303   9.616
  777POPC   PO414844  31.469   7.828   9.504
  777POPC   GL114845  31.588   7.521   9.187
  777POPC   GL214846  31.363   7.737   9.014
  777POPC   C1A14847  31.500   7.314   8.785
  777POPC   D2A14848  31.285   7.548   8.462
  777POPC   C3A14849  31.405   7.450   8.030
  777POPC   C4A14850  31.595   7.059   7.858
  777POPC   C1B14851  31.657   7.786   8.711
  777POPC   C2B14852  31.616   7.951   8.330
  777POPC   C3B14853  31.783   7.801   7.992
  777POPC   C4B14854  31.629   7.763   7.582
  778POPC   NC314855  21.689  41.620   9.674
  778POPC   PO414856  21.066  41.817   9.483
  778POPC   GL114857  21.251  41.713   9.109
  778POPC   GL214858  21.578  41.809   9.192
  778POPC   C1A14859  21.239  41.472   8.690
  778POPC   D2A14860  21.334  41.742   8.308
  778POPC   C3A14861  21.501  41.542   7.901
  778POPC   C4A14862  21.776  41.241   7.675
  778POPC   C1B14863  21.635  41.781   8.757
  778POPC   C2B14864  21.745  42.060   8.457
  778POPC   C3B14865  21.794  41.975   8.053
  778POPC   C4B14866  21.820  41.834   7.648
  779POPC   NC314867  35.232  39.535   9.736
  779POPC   PO414868  35.679  39.328   9.319
  779POPC   GL114869  35.539  39.252   8.988
  779POPC   GL214870  35.215  39.281   9.078
  779POPC   C1A14871  35.543  39.292   8.594
  779POPC   D2A14872  35.420  39.073   8.280
  779POPC   C3A14873  35.476  39.346   7.994
  779POPC   C4A14874  35.681  39.349   7.653
  779POPC   C1B14875  35.086  39.098   8.729
  779POPC   C2B14876  34.937  39.251   8.372
  779POPC   C3B14877  34.994  39.143   7.990
  779POPC   C4B14878  35.082  39.289   7.625
  780POPC   NC314879  14.843  25.815   9.401
  780POPC   PO414880  15.170  25.225   9.639
  780POPC   GL114881  15.057  25.367   9.238
  780POPC   GL214882  15.059  25.049   9.152
  780POPC   C1A14883  15.076  25.382   8.767
  780POPC   D2A14884  15.334  25.505   8.412
  780POPC   C3A14885  15.162  25.332   8.069
  780POPC   C4A14886  15.270  25.354   7.686
  780POPC   C1B14887  15.292  24.854   8.859
  780POPC   C2B14888  15.325  24.995   8.459
  780POPC   C3B14889  15.341  24.848   8.070
  780POPC   C4B14890  15.084  24.897   7.725
  781POPC   NC314891  37.513  43.759   9.691
  781POPC   PO414892  37.868  43.353   9.542
  781POPC   GL114893  37.786  43.669   9.212
  781POPC   GL214894  37.453  43.617   9.099
  781POPC   C1A14895  37.790  43.906   8.791
  781POPC   D2A14896  37.497  44.046   8.445
  781POPC   C3A14897  37.583  43.987   7.989
  781POPC   C4A14898  37.319  43.767   7.671
  781POPC   C1B14899  37.610  43.433   8.693
  781POPC   C2B14900  37.778  43.606   8.313
  781POPC   C3B14901  37.723  43.506   7.880
  781POPC   C4B14902  37.624  43.376   7.450
  782POPC   NC314903  14.228  29.412   9.595
  782POPC   PO414904  14.610  28.766   9.482
  782POPC   GL114905  14.554  29.111   9.205
  782POPC   GL214906  14.839  29.023   8.995
  782POPC   C1A14907  14.424  29.203   8.763
  782POPC   D2A14908  14.427  29.436   8.371
  782POPC   C3A14909  14.082  29.397   8.122
  782POPC   C4A14910  14.195  29.220   7.748
  782POPC   C1B14911  14.795  28.691   8.677
  782POPC   C2B14912  14.732  28.724   8.203
  782POPC   C3B14913  14.665  29.124   7.951
  782POPC   C4B14914  14.774  29.568   7.957
  783POPC   NC314915  30.280  12.421   9.474
  783POPC   PO414916  30.841  12.006   9.460
  783POPC   GL114917  30.752  12.191   9.121
  783POPC   GL214918  30.453  12.132   9.098
  783POPC   C1A14919  30.774  12.173   8.706
  783POPC   D2A14920  30.695  12.044   8.337
  783POPC   C3A14921  30.782  12.306   8.002
  783POPC   C4A14922  30.864  12.173   7.606
  783POPC   C1B14923  30.313  11.911   8.743
  783POPC   C2B14924  30.181  12.046   8.373
  783POPC   C3B14925  30.348  12.017   7.975
  783POPC   C4B14926  30.333  12.189   7.605
  784POPC   NC314927  37.018  37.104   9.402
  784POPC   PO414928  36.861  36.432   9.408
  784POPC   GL114929  37.003  36.694   9.079
  784POPC   GL214930  36.814  37.010   8.959
  784POPC   C1A14931  37.129  36.722   8.668
  784POPC   D2A14932  37.186  37.051   8.390
  784POPC   C3A14933  37.167  36.859   8.000
  784POPC   C4A14934  36.965  36.833   7.643
  784POPC   C1B14935  36.633  37.346   8.732
  784POPC   C2B14936  36.756  37.357   8.312
  784POPC   C3B14937  36.623  37.143   7.925
  784POPC   C4B14938  36.396  37.224   7.516
  785POPC   NC314939   2.450  36.340   9.496
  785POPC   PO414940   1.787  36.101   9.406
  785POPC   GL114941   2.138  36.089   9.132
  785POPC   GL214942   2.338  36.379   9.004
  785POPC   C1A14943   2.050  36.084   8.710
  785POPC   D2A14944   2.178  35.946   8.317
  785POPC   C3A14945   1.991  36.079   7.931
  785POPC   C4A14946   2.037  36.057   7.464
  785POPC   C1B14947   2.371  36.533   8.602
  785POPC   C2B14948   2.339  36.436   8.174
  785POPC   C3B14949   2.515  36.575   7.793
  785POPC   C4B14950   2.382  36.420   7.336
  786POPC   NC314951  22.630   9.677   9.633
  786POPC   PO414952  23.195   9.981   9.629
  786POPC   GL114953  22.847  10.004   9.287
  786POPC   GL214954  22.605   9.721   9.136
  786POPC   C1A14955  22.900   9.981   8.826
  786POPC   D2A14956  23.213  10.008   8.500
  786POPC   C3A14957  23.069  10.042   8.109
  786POPC   C4A14958  22.865   9.807   7.809
  786POPC   C1B14959  22.461   9.685   8.687
  786POPC   C2B14960  22.555   9.408   8.297
  786POPC   C3B14961  22.634   9.268   7.860
  786POPC   C4B14962  22.527   9.375   7.437
  787POPC   NC314963   5.725  33.152   9.604
  787POPC   PO414964   5.462  32.526   9.400
  787POPC   GL114965   5.486  32.915   9.150
  787POPC   GL214966   5.557  33.288   9.137
  787POPC   C1A14967   5.500  32.987   8.704
  787POPC   D2A14968   5.798  33.070   8.371
  787POPC   C3A14969   5.936  32.794   8.047
  787POPC   C4A14970   5.787  32.789   7.632
  787POPC   C1B14971   5.738  33.450   8.728
  787POPC   C2B14972   5.870  33.580   8.342
  787POPC   C3B14973   6.191  33.342   8.143
  787POPC   C4B14974   6.144  33.147   7.722
  788POPC   NC314975  40.587  27.371   9.589
  788POPC   PO414976  41.143  27.733   9.703
  788POPC   GL114977  40.871  27.550   9.227
  788POPC   GL214978  40.660  27.252   9.097
  788POPC   C1A14979  40.702  27.719   8.789
  788POPC   D2A14980  40.631  27.588   8.363
  788POPC   C3A14981  40.638  27.796   7.978
  788POPC   C4A14982  40.736  27.675   7.558
  788POPC   C1B14983  40.397  27.278   8.706
  788POPC   C2B14984  40.236  27.296   8.255
  788POPC   C3B14985  40.521  27.295   7.861
  788POPC   C4B14986  40.687  27.176   7.431
  789POPC   NC314987  13.744  21.734   9.590
  789POPC   PO414988  13.741  21.080   9.543
  789POPC   GL114989  13.529  21.263   9.186
  789POPC   GL214990  13.773  21.503   9.130
  789POPC   C1A14991  13.297  21.248   8.778
  789POPC   D2A14992  13.524  21.198   8.403
  789POPC   C3A14993  13.403  21.150   7.995
  789POPC   C4A14994  13.767  21.295   7.759
  789POPC   C1B14995  13.486  21.727   8.877
  789POPC   C2B14996  13.412  21.702   8.473
  789POPC   C3B14997  13.685  21.663   8.143
  789POPC   C4B14998  13.687  21.824   7.746
  790POPC   NC314999  18.043  37.161   9.554
  790POPC   PO415000  17.672  37.821   9.575
  790POPC   GL115001  17.364  37.698   9.291
  790POPC   GL215002  17.277  37.985   9.110
  790POPC   C1A15003  17.494  37.541   8.894
  790POPC   D2A15004  17.735  37.662   8.518
  790POPC   C3A15005  17.653  37.495   8.090
  790POPC   C4A15006  17.780  37.601   7.684
  790POPC   C1B15007  17.289  37.940   8.664
  790POPC   C2B15008  17.185  38.099   8.299
  790POPC   C3B15009  17.236  37.993   7.875
  790POPC   C4B15010  17.363  37.856   7.485
  791POPC   NC315011   3.105  39.163   9.544
  791POPC   PO415012   2.500  39.055   9.432
  791POPC   GL115013   2.804  39.159   9.133
  791POPC   GL215014   3.087  38.925   9.111
  791POPC   C1A15015   2.714  39.379   8.768
  791POPC   D2A15016   2.423  39.484   8.442
  791POPC   C3A15017   2.645  39.480   8.073
  791POPC   C4A15018   2.862  39.309   7.737
  791POPC   C1B15019   2.905  38.893   8.717
  791POPC   C2B15020   2.851  39.070   8.319
  791POPC   C3B15021   2.921  38.843   7.931
  791POPC   C4B15022   2.763  38.830   7.502
  792POPC   NC315023  26.909  41.362   9.634
  792POPC   PO415024  26.430  41.811   9.478
  792POPC   GL115025  26.684  41.597   9.203
  792POPC   GL215026  26.516  41.333   9.031
  792POPC   C1A15027  26.788  41.670   8.745
  792POPC   D2A15028  26.702  41.458   8.353
  792POPC   C3A15029  26.894  41.616   7.971
  792POPC   C4A15030  27.065  41.804   7.569
  792POPC   C1B15031  26.972  41.249   8.990
  792POPC   C2B15032  27.213  41.352   8.656
  792POPC   C3B15033  27.177  41.275   8.223
  792POPC   C4B15034  27.328  41.408   7.824
  793POPC   NC315035  42.848  42.458   9.479
  793POPC   PO415036  43.402  42.163   9.540
  793POPC   GL115037  43.221  42.321   9.153
  793POPC   GL215038  42.981  42.056   9.127
  793POPC   C1A15039  43.034  42.590   8.826
  793POPC   D2A15040  42.728  42.633   8.501
  793POPC   C3A15041  42.965  42.585   8.117
  793POPC   C4A15042  43.031  42.402   7.721
  793POPC   C1B15043  42.982  42.123   8.658
  793POPC   C2B15044  42.743  42.109   8.256
  793POPC   C3B15045  42.794  41.986   7.812
  793POPC   C4B15046  42.851  41.795   7.395
  794POPC   NC315047  35.078  37.127   9.417
  794POPC   PO415048  35.810  36.884   9.482
  794POPC   GL115049  35.505  36.946   9.144
  794POPC   GL215050  35.307  36.678   9.057
  794POPC   C1A15051  35.289  37.093   8.744
  794POPC   D2A15052  35.004  37.078   8.385
  794POPC   C3A15053  35.104  37.087   7.940
  794POPC   C4A15054  35.495  37.084   7.696
  794POPC   C1B15055  35.414  36.595   8.607
  794POPC   C2B15056  35.450  36.761   8.179
  794POPC   C3B15057  35.389  36.589   7.752
  794POPC   C4B15058  35.283  36.301   7.410
  795POPC   NC315059  42.257  44.231   9.652
  795POPC   PO415060  42.743  43.798   9.700
  795POPC   GL115061  42.546  44.033   9.283
  795POPC   GL215062  42.152  44.135   9.167
  795POPC   C1A15063  42.536  44.108   8.819
  795POPC   D2A15064  42.683  44.212   8.393
  795POPC   C3A15065  42.492  44.082   7.997
  795POPC   C4A15066  42.173  44.099   7.693
  795POPC   C1B15067  42.051  44.402   8.797
  795POPC   C2B15068  42.148  44.282   8.370
  795POPC   C3B15069  42.039  43.883   8.159
  795POPC   C4B15070  42.030  43.597   7.837
  796POPC   NC315071  20.762  13.873   9.801
  796POPC   PO415072  20.558  13.403   9.457
  796POPC   GL115073  20.710  13.764   9.257
  796POPC   GL215074  20.412  13.763   9.074
  796POPC   C1A15075  20.862  13.822   8.830
  796POPC   D2A15076  20.715  13.647   8.442
  796POPC   C3A15077  20.665  13.849   8.037
  796POPC   C4A15078  20.838  13.583   7.673
  796POPC   C1B15079  20.250  13.586   8.722
  796POPC   C2B15080  20.225  13.795   8.359
  796POPC   C3B15081  20.111  13.896   7.968
  796POPC   C4B15082  20.310  13.562   7.805
  797POPC   NC315083  20.158  42.048   9.437
  797POPC   PO415084  20.637  42.474   9.633
  797POPC   GL115085  20.548  42.293   9.201
  797POPC   GL215086  20.837  42.124   9.150
  797POPC   C1A15087  20.451  42.026   8.789
  797POPC   D2A15088  20.410  42.237   8.374
  797POPC   C3A15089  20.458  42.148   7.938
  797POPC   C4A15090  20.264  42.457   7.656
  797POPC   C1B15091  20.843  42.352   8.766
  797POPC   C2B15092  20.820  42.548   8.374
  797POPC   C3B15093  20.540  42.653   8.058
  797POPC   C4B15094  20.583  42.848   7.672
  798POPC   NC315095   6.368   0.923   9.493
  798POPC   PO415096   6.664   1.512   9.712
  798POPC   GL115097   6.645   1.323   9.251
  798POPC   GL215098   6.291   1.298   9.134
  798POPC   C1A15099   6.809   1.229   8.798
  798POPC   D2A15100   6.961   1.073   8.360
  798POPC   C3A15101   6.828   1.205   7.938
  798POPC   C4A15102   7.008   1.110   7.540
  798POPC   C1B15103   6.362   0.947   8.825
  798POPC   C2B15104   6.249   0.793   8.397
  798POPC   C3B15105   6.274   0.990   7.963
  798POPC   C4B15106   6.119   1.012   7.501
  799POPC   NC315107  24.399  43.923   9.452
  799POPC   PO415108  24.842  44.331   9.286
  799POPC   GL115109  24.613  44.027   9.002
  799POPC   GL215110  24.197  44.001   9.002
  799POPC   C1A15111  24.468  43.792   8.638
  799POPC   D2A15112  24.167  43.939   8.312
  799POPC   C3A15113  24.380  43.783   7.957
  799POPC   C4A15114  24.827  43.699   7.940
  799POPC   C1B15115  24.320  44.269   8.664
  799POPC   C2B15116  24.707  44.297   8.401
  799POPC   C3B15117  24.694  44.441   7.970
  799POPC   C4B15118  24.408  44.232   7.682
  800POPC   NC315119   8.480  32.159   9.820
  800POPC   PO415120   8.256  32.539   9.364
  800POPC   GL115121   8.387  32.289   9.083
  800POPC   GL215122   8.563  32.016   9.275
  800POPC   C1A15123   8.182  32.314   8.686
  800POPC   D2A15124   8.324  32.420   8.284
  800POPC   C3A15125   8.195  32.344   7.864
  800POPC   C4A15126   8.322  32.541   7.520
  800POPC   C1B15127   8.508  31.879   8.819
  800POPC   C2B15128   8.297  31.901   8.416
  800POPC   C3B15129   8.437  31.911   7.994
  800POPC   C4B15130   8.293  31.866   7.586
  801POPC   NC315131  18.180  41.264   9.541
  801POPC   PO415132  18.014  41.830   9.548
  801POPC   GL115133  18.265  41.637   9.185
  801POPC   GL215134  18.536  41.371   9.194
  801POPC   C1A15135  18.474  41.608   8.757
  801POPC   D2A15136  18.608  41.860   8.408
  801POPC   C3A15137  18.354  41.783   8.079
  801POPC   C4A15138  18.090  41.775   7.723
  801POPC   C1B15139  18.512  41.075   8.829
  801POPC   C2B15140  18.369  41.110   8.423
  801POPC   C3B15141  18.575  41.284   8.079
  801POPC   C4B15142  18.531  41.499   7.706
  802POPC   NC315143  41.639  42.776   9.341
  802POPC   PO415144  41.268  43.336   9.253
  802POPC   GL115145  41.633  43.196   9.061
  802POPC   GL215146  41.407  42.907   8.919
  802POPC   C1A15147  41.844  43.027   8.693
  802POPC   D2A15148  41.657  42.936   8.287
  802POPC   C3A15149  41.855  43.124   7.920
  802POPC   C4A15150  41.709  43.297   7.496
  802POPC   C1B15151  41.388  43.236   8.617
  802POPC   C2B15152  41.150  43.170   8.289
  802POPC   C3B15153  41.183  42.787   8.106
  802POPC   C4B15154  41.395  42.993   7.783
  803POPC   NC315155  22.308  31.895   9.400
  803POPC   PO415156  22.239  31.234   9.421
  803POPC   GL115157  22.101  31.490   9.091
  803POPC   GL215158  21.728  31.469   9.058
  803POPC   C1A15159  22.247  31.372   8.682
  803POPC   D2A15160  22.575  31.194   8.392
  803POPC   C3A15161  22.425  31.395   8.005
  803POPC   C4A15162  22.089  31.279   7.749
  803POPC   C1B15163  21.650  31.778   8.713
  803POPC   C2B15164  21.861  31.920   8.328
  803POPC   C3B15165  21.945  31.720   7.952
  803POPC   C4B15166  21.931  31.694   7.492
  804POPC   NC315167  26.288  40.720   9.845
  804POPC   PO415168  25.882  40.979   9.407
  804POPC   GL115169  26.145  40.986   9.102
  804POPC   GL215170  26.033  40.703   8.993
  804POPC   C1A15171  26.188  41.124   8.679
  804POPC   D2A15172  26.191  40.871   8.303
  804POPC   C3A15173  26.080  41.024   7.924
  804POPC   C4A15174  26.296  40.939   7.574
  804POPC   C1B15175  25.989  40.536   8.610
  804POPC   C2B15176  26.026  40.361   8.226
  804POPC   C3B15177  26.179  40.522   7.849
  804POPC   C4B15178  25.893  40.445   7.506
  805POPC   NC315179  33.560  34.825   9.864
  805POPC   PO415180  33.821  34.414   9.376
  805POPC   GL115181  33.979  34.447   9.036
  805POPC   GL215182  33.647  34.458   8.891
  805POPC   C1A15183  34.088  34.601   8.701
  805POPC   D2A15184  33.872  34.489   8.366
  805POPC   C3A15185  34.073  34.515   7.939
  805POPC   C4A15186  34.102  34.403   7.483
  805POPC   C1B15187  33.648  34.868   8.695
  805POPC   C2B15188  33.641  35.046   8.355
  805POPC   C3B15189  33.707  34.841   8.041
  805POPC   C4B15190  33.771  34.811   7.635
  806POPC   NC315191  34.142  37.472   9.520
  806POPC   PO415192  33.369  37.458   9.555
  806POPC   GL115193  33.624  37.670   9.228
  806POPC   GL215194  34.003  37.796   9.163
  806POPC   C1A15195  33.725  37.514   8.836
  806POPC   D2A15196  33.689  37.719   8.477
  806POPC   C3A15197  33.756  37.542   8.086
  806POPC   C4A15198  33.825  37.820   7.754
  806POPC   C1B15199  34.227  37.457   8.873
  806POPC   C2B15200  34.084  37.406   8.471
  806POPC   C3B15201  34.245  37.366   8.075
  806POPC   C4B15202  34.069  37.393   7.699
  807POPC   NC315203  40.237  38.324   9.479
  807POPC   PO415204  40.919  38.598   9.570
  807POPC   GL115205  40.753  38.439   9.198
  807POPC   GL215206  40.470  38.653   9.146
  807POPC   C1A15207  40.911  38.565   8.798
  807POPC   D2A15208  41.130  38.879   8.539
  807POPC   C3A15209  41.117  38.724   8.122
  807POPC   C4A15210  40.877  38.728   7.746
  807POPC   C1B15211  40.405  38.426   8.768
  807POPC   C2B15212  40.649  38.434   8.361
  807POPC   C3B15213  40.612  38.320   7.926
  807POPC   C4B15214  40.398  38.386   7.544
  808POPC   NC315215   8.241   8.407   9.571
  808POPC   PO415216   7.685   8.152   9.503
  808POPC   GL115217   7.987   8.178   9.194
  808POPC   GL215218   7.913   8.523   9.137
  808POPC   C1A15219   8.192   8.173   8.798
  808POPC   D2A15220   8.303   7.876   8.446
  808POPC   C3A15221   8.274   8.002   8.020
  808POPC   C4A15222   8.388   8.383   7.826
  808POPC   C1B15223   7.693   8.317   8.802
  808POPC   C2B15224   7.884   8.216   8.400
  808POPC   C3B15225   7.913   8.399   8.043
  808POPC   C4B15226   7.867   8.113   7.728
  809POPC   NC315227  12.134   1.050   9.713
  809POPC   PO415228  11.583   1.447   9.601
  809POPC   GL115229  11.763   1.291   9.199
  809POPC   GL215230  12.106   1.388   9.232
  809POPC   C1A15231  11.917   0.941   8.878
  809POPC   D2A15232  12.149   0.759   8.478
  809POPC   C3A15233  11.967   0.919   8.111
  809POPC   C4A15234  12.049   1.046   7.699
  809POPC   C1B15235  12.079   1.452   8.780
  809POPC   C2B15236  11.990   1.384   8.342
  809POPC   C3B15237  12.107   1.515   7.936
  809POPC   C4B15238  11.894   1.836   7.751
  810POPC   NC315239   1.510   6.808   9.502
  810POPC   PO415240   0.891   6.816   9.643
  810POPC   GL115241   1.100   6.833   9.230
  810POPC   GL215242   1.048   6.538   9.151
  810POPC   C1A15243   1.292   6.810   8.793
  810POPC   D2A15244   1.407   6.477   8.482
  810POPC   C3A15245   1.337   6.595   8.022
  810POPC   C4A15246   1.405   6.635   7.546
  810POPC   C1B15247   0.855   6.505   8.768
  810POPC   C2B15248   0.901   6.612   8.353
  810POPC   C3B15249   0.864   6.402   7.942
  810POPC   C4B15250   1.000   6.310   7.518
  811POPC   NC315251  24.759  33.466   9.457
  811POPC   PO415252  24.816  32.834   9.504
  811POPC   GL115253  24.750  32.810   9.075
  811POPC   GL215254  24.422  32.898   9.051
  811POPC   C1A15255  24.693  32.753   8.611
  811POPC   D2A15256  24.700  32.667   8.163
  811POPC   C3A15257  24.505  33.024   7.929
  811POPC   C4A15258  24.616  33.371   7.627
  811POPC   C1B15259  24.173  32.842   8.670
  811POPC   C2B15260  24.183  32.716   8.243
  811POPC   C3B15261  24.045  32.728   7.791
  811POPC   C4B15262  23.813  33.024   7.494
  812POPC   NC315263  15.489  33.677   9.430
  812POPC   PO415264  14.979  33.991   9.657
  812POPC   GL115265  15.077  33.894   9.219
  812POPC   GL215266  14.745  33.828   9.134
  812POPC   C1A15267  15.393  33.926   8.841
  812POPC   D2A15268  15.308  34.010   8.415
  812POPC   C3A15269  15.418  33.709   8.085
  812POPC   C4A15270  15.435  33.890   7.697
  812POPC   C1B15271  14.879  33.858   8.706
  812POPC   C2B15272  14.953  33.644   8.300
  812POPC   C3B15273  14.961  33.738   7.828
  812POPC   C4B15274  14.818  33.817   7.383
  813POPC   NC315275  36.451  20.303   9.478
  813POPC   PO415276  37.047  20.727   9.438
  813POPC   GL115277  36.728  20.590   9.123
  813POPC   GL215278  36.502  20.813   8.931
  813POPC   C1A15279  36.548  20.275   8.856
  813POPC   D2A15280  36.586  20.091   8.473
  813POPC   C3A15281  36.832  20.297   8.164
  813POPC   C4A15282  36.691  20.514   7.783
  813POPC   C1B15283  36.784  20.635   8.582
  813POPC   C2B15284  37.102  20.763   8.272
  813POPC   C3B15285  37.113  20.815   7.815
  813POPC   C4B15286  37.284  21.012   7.437
  814POPC   NC315287  41.623   2.832   9.776
  814POPC   PO415288  41.744   2.177   9.727
  814POPC   GL115289  41.724   2.445   9.318
  814POPC   GL215290  41.673   2.836   9.239
  814POPC   C1A15291  41.556   2.506   8.857
  814POPC   D2A15292  41.458   2.821   8.514
  814POPC   C3A15293  41.541   2.712   8.102
  814POPC   C4A15294  41.331   2.538   7.779
  814POPC   C1B15295  41.836   2.966   8.803
  814POPC   C2B15296  41.886   3.055   8.309
  814POPC   C3B15297  41.615   3.155   7.905
  814POPC   C4B15298  41.459   2.976   7.528
  815POPC   NC315299   8.830  38.316   9.441
  815POPC   PO415300   9.313  38.802   9.440
  815POPC   GL115301   8.984  38.708   9.126
  815POPC   GL215302   8.607  38.706   9.167
  815POPC   C1A15303   9.076  38.398   8.815
  815POPC   D2A15304   8.897  38.217   8.472
  815POPC   C3A15305   9.058  38.438   8.147
  815POPC   C4A15306   9.112  38.396   7.728
  815POPC   C1B15307   8.560  38.506   8.770
  815POPC   C2B15308   8.577  38.620   8.336
  815POPC   C3B15309   8.653  38.582   7.878
  815POPC   C4B15310   8.797  38.753   7.482
  816POPC   NC315311   9.308  31.705   9.493
  816POPC   PO415312   8.964  31.137   9.605
  816POPC   GL115313   8.935  31.423   9.256
  816POPC   GL215314   9.277  31.339   9.142
  816POPC   C1A15315   8.988  31.694   8.875
  816POPC   D2A15316   9.121  31.772   8.425
  816POPC   C3A15317   8.932  31.741   8.035
  816POPC   C4A15318   9.127  31.502   7.741
  816POPC   C1B15319   9.132  31.231   8.719
  816POPC   C2B15320   8.989  31.285   8.291
  816POPC   C3B15321   8.968  31.038   7.935
  816POPC   C4B15322   8.698  30.736   7.742
  817POPC   NC315323  10.600  38.804   9.514
  817POPC   PO415324  10.698  38.119   9.536
  817POPC   GL115325  10.547  38.338   9.208
  817POPC   GL215326  10.722  38.622   9.071
  817POPC   C1A15327  10.529  38.265   8.752
  817POPC   D2A15328  10.498  38.439   8.352
  817POPC   C3A15329  10.587  38.225   8.004
  817POPC   C4A15330  10.454  38.502   7.711
  817POPC   C1B15331  10.633  38.787   8.698
  817POPC   C2B15332  10.843  38.826   8.302
  817POPC   C3B15333  10.867  38.710   7.881
  817POPC   C4B15334  10.761  38.784   7.417
  818POPC   NC315335  33.311  10.116   9.529
  818POPC   PO415336  33.030  10.729   9.717
  818POPC   GL115337  33.072  10.681   9.243
  818POPC   GL215338  32.941  10.349   9.162
  818POPC   C1A15339  32.853  10.750   8.807
  818POPC   D2A15340  32.706  11.021   8.435
  818POPC   C3A15341  32.623  10.768   8.050
  818POPC   C4A15342  32.882  10.431   7.829
  818POPC   C1B15343  33.121  10.314   8.720
  818POPC   C2B15344  33.098  10.265   8.267
  818POPC   C3B15345  33.312  10.140   7.856
  818POPC   C4B15346  33.280  10.287   7.383
  819POPC   NC315347   0.880   6.350   9.608
  819POPC   PO415348   0.304   6.709   9.518
  819POPC   GL115349   0.349   6.663   9.114
  819POPC   GL215350   0.623   6.837   9.108
  819POPC   C1A15351   0.396   6.732   8.683
  819POPC   D2A15352   0.500   6.960   8.367
  819POPC   C3A15353   0.414   6.666   8.091
  819POPC   C4A15354   0.421   6.617   7.694
  819POPC   C1B15355   0.829   7.042   8.773
  819POPC   C2B15356   0.996   7.107   8.353
  819POPC   C3B15357   0.841   6.926   7.958
  819POPC   C4B15358   0.894   6.797   7.514
  820POPC   NC315359  17.867   0.884   9.843
  820POPC   PO415360  17.471   1.320   9.450
  820POPC   GL115361  17.546   1.380   9.046
  820POPC   GL215362  17.760   1.644   9.040
  820POPC   C1A15363  17.549   1.086   8.707
  820POPC   D2A15364  17.511   0.804   8.368
  820POPC   C3A15365  17.505   1.065   8.056
  820POPC   C4A15366  17.427   1.317   7.730
  820POPC   C1B15367  17.904   1.449   8.665
  820POPC   C2B15368  17.658   1.500   8.321
  820POPC   C3B15369  17.783   1.681   7.935
  820POPC   C4B15370  17.840   1.532   7.508
  821POPC   NC315371  15.968   9.531   9.671
  821POPC   PO415372  15.866   8.742   9.862
  821POPC   GL115373  16.006   8.759   9.332
  821POPC   GL215374  16.159   9.072   9.200
  821POPC   C1A15375  16.185   8.738   8.828
  821POPC   D2A15376  16.207   8.904   8.364
  821POPC   C3A15377  15.879   8.934   8.019
  821POPC   C4A15378  15.897   8.698   7.616
  821POPC   C1B15379  16.189   9.258   8.809
  821POPC   C2B15380  16.386   9.378   8.427
  821POPC   C3B15381  16.135   9.401   8.059
  821POPC   C4B15382  16.071   9.258   7.631
  822POPC   NC315383   2.886  20.318   9.537
  822POPC   PO415384   2.853  20.883   9.207
  822POPC   GL115385   2.752  20.483   9.067
  822POPC   GL215386   3.113  20.339   9.080
  822POPC   C1A15387   2.559  20.539   8.661
  822POPC   D2A15388   2.769  20.736   8.296
  822POPC   C3A15389   2.597  20.800   7.892
  822POPC   C4A15390   2.517  20.622   7.466
  822POPC   C1B15391   3.075  20.521   8.673
  822POPC   C2B15392   3.189  20.451   8.277
  822POPC   C3B15393   2.967  20.444   7.899
  822POPC   C4B15394   3.005  20.259   7.495
  823POPC   NC315395  25.197  32.712   9.720
  823POPC   PO415396  25.306  33.374   9.555
  823POPC   GL115397  25.237  33.095   9.169
  823POPC   GL215398  25.266  32.743   9.227
  823POPC   C1A15399  25.441  33.046   8.729
  823POPC   D2A15400  25.567  33.063   8.267
  823POPC   C3A15401  25.226  33.161   7.989
  823POPC   C4A15402  25.144  33.431   7.644
  823POPC   C1B15403  25.150  32.649   8.838
  823POPC   C2B15404  25.163  32.650   8.401
  823POPC   C3B15405  25.190  32.652   7.970
  823POPC   C4B15406  25.400  32.859   7.611
  824POPC   NC315407  33.154  13.235   9.261
  824POPC   PO415408  33.065  12.576   9.514
  824POPC   GL115409  33.142  12.698   9.108
  824POPC   GL215410  32.841  12.895   9.074
  824POPC   C1A15411  33.183  12.889   8.690
  824POPC   D2A15412  33.399  13.266   8.491
  824POPC   C3A15413  33.409  13.157   8.057
  824POPC   C4A15414  33.325  13.131   7.613
  824POPC   C1B15415  32.594  12.619   8.880
  824POPC   C2B15416  32.754  12.519   8.499
  824POPC   C3B15417  32.680  12.761   8.145
  824POPC   C4B15418  32.917  12.956   7.851
  825POPC   NC315419  34.170  17.913   9.372
  825POPC   PO415420  33.619  18.153   9.616
  825POPC   GL115421  33.821  18.299   9.177
  825POPC   GL215422  34.077  18.604   9.177
  825POPC   C1A15423  33.697  18.250   8.697
  825POPC   D2A15424  33.643  18.017   8.314
  825POPC   C3A15425  33.541  18.249   7.928
  825POPC   C4A15426  33.573  18.028   7.549
  825POPC   C1B15427  34.165  18.422   8.736
  825POPC   C2B15428  34.003  18.396   8.268
  825POPC   C3B15429  33.968  18.551   7.796
  825POPC   C4B15430  34.131  18.695   7.341
  826POPC   NC315431  24.737   0.588   9.465
  826POPC   PO415432  24.274   0.103   9.385
  826POPC   GL115433  24.369   0.395   9.107
  826POPC   GL215434  24.683   0.280   9.054
  826POPC   C1A15435  24.321   0.299   8.673
  826POPC   D2A15436  24.383   0.541   8.313
  826POPC   C3A15437  24.421   0.368   7.903
  826POPC   C4A15438  24.474   0.632   7.555
  826POPC   C1B15439  24.764   0.513   8.679
  826POPC   C2B15440  24.899   0.474   8.269
  826POPC   C3B15441  24.849   0.670   7.914
  826POPC   C4B15442  24.964   0.469   7.578
  827POPC   NC315443  39.740   7.418   9.391
  827POPC   PO415444  40.426   7.221   9.355
  827POPC   GL115445  40.183   7.538   9.118
  827POPC   GL215446  39.860   7.578   8.917
  827POPC   C1A15447  40.325   7.605   8.697
  827POPC   D2A15448  40.544   7.511   8.313
  827POPC   C3A15449  40.248   7.510   7.976
  827POPC   C4A15450  39.863   7.603   7.746
  827POPC   C1B15451  40.016   7.201   8.733
  827POPC   C2B15452  40.120   7.144   8.311
  827POPC   C3B15453  39.889   7.106   7.915
  827POPC   C4B15454  39.866   7.170   7.486
  828POPC   NC315455   3.693  38.776   9.600
  828POPC   PO415456   3.448  39.470   9.542
  828POPC   GL115457   3.438  39.309   9.162
  828POPC   GL215458   3.705  39.087   9.213
  828POPC   C1A15459   3.258  39.312   8.766
  828POPC   D2A15460   3.476  39.440   8.408
  828POPC   C3A15461   3.264  39.296   8.064
  828POPC   C4A15462   3.461  39.238   7.697
  828POPC   C1B15463   3.950  38.824   8.897
  828POPC   C2B15464   3.880  38.886   8.452
  828POPC   C3B15465   4.011  38.791   8.030
  828POPC   C4B15466   3.839  38.866   7.658
  829POPC   NC315467  28.048  21.492   9.951
  829POPC   PO415468  28.610  21.578   9.708
  829POPC   GL115469  28.657  21.585   9.212
  829POPC   GL215470  28.949  21.400   9.087
  829POPC   C1A15471  28.512  21.352   8.790
  829POPC   D2A15472  28.299  21.449   8.373
  829POPC   C3A15473  28.370  21.424   7.914
  829POPC   C4A15474  28.057  21.401   7.531
  829POPC   C1B15475  28.850  21.703   8.721
  829POPC   C2B15476  28.745  21.676   8.239
  829POPC   C3B15477  28.832  21.631   7.814
  829POPC   C4B15478  28.910  21.275   7.487
  830POPC   NC315479  27.503  15.657   9.657
  830POPC   PO415480  27.746  16.184   9.652
  830POPC   GL115481  27.688  15.877   9.230
  830POPC   GL215482  27.329  15.762   9.146
  830POPC   C1A15483  27.628  15.887   8.740
  830POPC   D2A15484  27.807  15.762   8.312
  830POPC   C3A15485  27.703  15.857   7.865
  830POPC   C4A15486  27.712  16.008   7.425
  830POPC   C1B15487  27.154  15.675   8.694
  830POPC   C2B15488  27.304  15.795   8.244
  830POPC   C3B15489  27.200  15.969   7.804
  830POPC   C4B15490  27.186  16.011   7.334
  831POPC   NC315491  35.623  40.966   9.486
  831POPC   PO415492  35.443  40.314   9.415
  831POPC   GL115493  35.383  40.654   9.148
  831POPC   GL215494  35.161  40.946   9.229
  831POPC   C1A15495  35.519  40.623   8.743
  831POPC   D2A15496  35.334  40.558   8.379
  831POPC   C3A15497  35.637  40.565   8.099
  831POPC   C4A15498  35.399  40.556   7.718
  831POPC   C1B15499  35.343  41.073   8.848
  831POPC   C2B15500  35.199  41.035   8.440
  831POPC   C3B15501  35.356  40.975   8.032
  831POPC   C4B15502  35.503  41.266   7.735
  832POPC   NC315503  11.818  19.967   9.536
  832POPC   PO415504  12.473  19.782   9.595
  832POPC   GL115505  12.112  19.658   9.285
  832POPC   GL215506  11.933  19.931   9.062
  832POPC   C1A15507  11.985  19.444   8.905
  832POPC   D2A15508  11.917  19.694   8.569
  832POPC   C3A15509  12.057  19.685   8.160
  832POPC   C4A15510  12.154  19.687   7.733
  832POPC   C1B15511  11.988  20.180   8.713
  832POPC   C2B15512  11.808  20.127   8.308
  832POPC   C3B15513  12.082  20.168   7.990
  832POPC   C4B15514  12.028  20.239   7.592
  833POPC   NC315515  37.924  14.655   9.584
  833POPC   PO415516  37.409  14.320   9.449
  833POPC   GL115517  37.544  14.659   9.245
  833POPC   GL215518  37.795  14.477   9.098
  833POPC   C1A15519  37.498  14.812   8.852
  833POPC   D2A15520  37.586  14.614   8.453
  833POPC   C3A15521  37.820  14.546   8.069
  833POPC   C4A15522  37.579  14.807   7.793
  833POPC   C1B15523  37.872  14.258   8.696
  833POPC   C2B15524  38.072  14.063   8.346
  833POPC   C3B15525  37.851  14.001   7.987
  833POPC   C4B15526  37.983  14.190   7.631
  834POPC   NC315527  37.428  25.953   9.699
  834POPC   PO415528  36.791  26.238   9.524
  834POPC   GL115529  36.997  26.001   9.193
  834POPC   GL215530  36.927  26.279   9.015
  834POPC   C1A15531  37.190  25.941   8.756
  834POPC   D2A15532  37.326  25.887   8.328
  834POPC   C3A15533  36.975  25.878   8.033
  834POPC   C4A15534  36.849  25.836   7.605
  834POPC   C1B15535  36.690  25.981   8.745
  834POPC   C2B15536  36.558  25.973   8.313
  834POPC   C3B15537  36.551  26.128   7.895
  834POPC   C4B15538  36.652  26.307   7.503
  835POPC   NC315539  44.268  30.210   9.603
  835POPC   PO415540  44.630  30.767   9.464
  835POPC   GL115541  44.428  30.586   9.150
  835POPC   GL215542  44.796  30.559   9.015
  835POPC   C1A15543  44.391  30.444   8.735
  835POPC   D2A15544  44.788  30.601   8.512
  835POPC   C3A15545  44.772  30.809   8.159
  835POPC   C4A15546  44.656  30.658   7.766
  835POPC   C1B15547   0.168  30.393   8.778
  835POPC   C2B15548   0.208  30.301   8.337
  835POPC   C3B15549   0.114  30.491   7.944
  835POPC   C4B15550   0.106  30.595   7.518
  836POPC   NC315551  38.859   5.420   9.385
  836POPC   PO415552  38.227   5.213   9.368
  836POPC   GL115553  38.362   5.100   8.979
  836POPC   GL215554  38.679   5.106   9.031
  836POPC   C1A15555  38.387   5.242   8.562
  836POPC   D2A15556  38.188   5.541   8.330
  836POPC   C3A15557  38.286   5.392   7.927
  836POPC   C4A15558  38.235   4.993   7.725
  836POPC   C1B15559  38.878   5.295   8.711
  836POPC   C2B15560  38.840   5.188   8.298
  836POPC   C3B15561  38.789   5.361   7.926
  836POPC   C4B15562  38.628   5.248   7.505
  837POPC   NC315563  10.474  17.018   9.785
  837POPC   PO415564  10.733  16.532   9.410
  837POPC   GL115565  10.432  16.550   9.067
  837POPC   GL215566  10.230  16.855   8.953
  837POPC   C1A15567  10.622  16.684   8.685
  837POPC   D2A15568  10.802  17.003   8.468
  837POPC   C3A15569  10.625  16.953   8.094
  837POPC   C4A15570  10.638  16.619   7.785
  837POPC   C1B15571  10.097  16.530   8.642
  837POPC   C2B15572  10.039  16.407   8.218
  837POPC   C3B15573  10.184  16.721   7.970
  837POPC   C4B15574  10.131  16.931   7.582
  838POPC   NC315575   2.138  30.056   9.436
  838POPC   PO415576   1.804  29.613   9.350
  838POPC   GL115577   1.781  29.999   9.062
  838POPC   GL215578   2.155  30.053   8.937
  838POPC   C1A15579   1.787  30.223   8.657
  838POPC   D2A15580   2.094  30.247   8.355
  838POPC   C3A15581   1.895  30.339   7.989
  838POPC   C4A15582   1.679  30.060   7.707
  838POPC   C1B15583   1.958  29.740   8.648
  838POPC   C2B15584   1.807  29.805   8.224
  838POPC   C3B15585   1.984  29.675   7.818
  838POPC   C4B15586   1.828  29.677   7.382
  839POPC   NC315587  39.742   9.050   9.574
  839POPC   PO415588  40.302   8.692   9.545
  839POPC   GL115589  40.097   8.938   9.238
  839POPC   GL215590  40.261   8.881   8.966
  839POPC   C1A15591  39.796   9.018   8.876
  839POPC   D2A15592  40.051   9.083   8.475
  839POPC   C3A15593  39.881   9.179   8.051
  839POPC   C4A15594  39.960   9.126   7.600
  839POPC   C1B15595  40.464   8.506   8.762
  839POPC   C2B15596  40.485   8.634   8.328
  839POPC   C3B15597  40.148   8.740   8.084
  839POPC   C4B15598  40.013   8.572   7.726
  840POPC   NC315599  22.274  44.530   9.573
  840POPC   PO415600  21.508  44.644   9.635
  840POPC   GL115601  21.841  44.677   9.262
  840POPC   GL215602  22.179  44.845   9.183
  840POPC   C1A15603  22.001  44.427   8.901
  840POPC   D2A15604  22.251  44.424   8.528
  840POPC   C3A15605  22.145  44.465   8.069
  840POPC   C4A15606  22.253  44.226   7.697
  840POPC   C1B15607  22.056  44.903   8.753
  840POPC   C2B15608  22.216  44.910   8.352
  840POPC   C3B15609  22.272  44.992   7.953
  840POPC   C4B15610  22.484  44.935   7.604
  841POPC   NC315611  20.163   0.958   9.487
  841POPC   PO415612  20.712   1.360   9.485
  841POPC   GL115613  20.510   1.435   9.090
  841POPC   GL215614  20.371   1.116   9.068
  841POPC   C1A15615  20.564   1.293   8.641
  841POPC   D2A15616  20.708   0.943   8.407
  841POPC   C3A15617  20.657   1.169   8.038
  841POPC   C4A15618  20.692   1.052   7.656
  841POPC   C1B15619  20.217   0.922   8.683
  841POPC   C2B15620  20.230   1.020   8.260
  841POPC   C3B15621  20.271   0.855   7.852
  841POPC   C4B15622  20.331   0.758   7.417
  842POPC   NC315623  25.566  30.261   9.419
  842POPC   PO415624  25.021  29.906   9.414
  842POPC   GL115625  25.291  30.002   9.040
  842POPC   GL215626  25.220  30.359   9.012
  842POPC   C1A15627  25.325  29.854   8.582
  842POPC   D2A15628  25.163  29.639   8.181
  842POPC   C3A15629  25.325  29.906   7.867
  842POPC   C4A15630  25.605  30.224   8.034
  842POPC   C1B15631  24.930  30.168   8.686
  842POPC   C2B15632  25.031  30.178   8.241
  842POPC   C3B15633  25.158  30.401   7.877
  842POPC   C4B15634  25.180  30.225   7.468
  843POPC   NC315635   2.417   4.707   9.456
  843POPC   PO415636   2.683   5.237   9.632
  843POPC   GL115637   2.628   5.146   9.238
  843POPC   GL215638   2.656   5.481   9.182
  843POPC   C1A15639   2.795   5.037   8.833
  843POPC   D2A15640   2.636   4.790   8.503
  843POPC   C3A15641   2.817   4.907   8.116
  843POPC   C4A15642   2.974   5.143   7.774
  843POPC   C1B15643   2.429   5.417   8.843
  843POPC   C2B15644   2.529   5.288   8.446
  843POPC   C3B15645   2.658   5.453   8.069
  843POPC   C4B15646   2.457   5.607   7.734
  844POPC   NC315647  25.898  40.514   9.468
  844POPC   PO415648  25.857  39.792   9.499
  844POPC   GL115649  25.985  39.904   9.096
  844POPC   GL215650  26.106  40.214   9.111
  844POPC   C1A15651  25.890  40.023   8.682
  844POPC   D2A15652  25.853  39.867   8.317
  844POPC   C3A15653  26.232  39.874   8.165
  844POPC   C4A15654  26.141  40.028   7.777
  844POPC   C1B15655  26.365  40.238   8.725
  844POPC   C2B15656  26.514  40.439   8.325
  844POPC   C3B15657  26.583  40.196   7.971
  844POPC   C4B15658  26.570  40.124   7.537
  845POPC   NC315659  33.718  22.225   9.551
  845POPC   PO415660  34.105  21.660   9.470
  845POPC   GL115661  33.958  21.992   9.160
  845POPC   GL215662  33.610  22.119   9.065
  845POPC   C1A15663  34.065  22.281   8.817
  845POPC   D2A15664  33.832  22.439   8.430
  845POPC   C3A15665  34.003  22.391   7.997
  845POPC   C4A15666  33.926  22.190   7.612
  845POPC   C1B15667  33.774  21.892   8.694
  845POPC   C2B15668  33.793  21.968   8.269
  845POPC   C3B15669  33.545  22.146   7.986
  845POPC   C4B15670  33.244  21.983   7.750
  846POPC   NC315671  17.014   6.151   9.688
  846POPC   PO415672  17.479   5.635   9.478
  846POPC   GL115673  17.467   6.003   9.146
  846POPC   GL215674  17.374   5.755   8.890
  846POPC   C1A15675  17.433   6.215   8.706
  846POPC   D2A15676  17.557   5.996   8.340
  846POPC   C3A15677  17.583   6.164   7.910
  846POPC   C4A15678  17.352   6.039   7.540
  846POPC   C1B15679  17.636   5.508   8.635
  846POPC   C2B15680  17.751   5.528   8.225
  846POPC   C3B15681  17.682   5.663   7.814
  846POPC   C4B15682  17.414   5.507   7.548
  847POPC   NC315683  34.073  38.368   9.612
  847POPC   PO415684  33.449  38.451   9.614
  847POPC   GL115685  33.688  38.524   9.220
  847POPC   GL215686  34.014  38.357   9.113
  847POPC   C1A15687  33.752  38.629   8.769
  847POPC   D2A15688  34.044  38.447   8.470
  847POPC   C3A15689  33.880  38.330   8.068
  847POPC   C4A15690  34.044  38.254   7.659
  847POPC   C1B15691  33.747  38.113   8.851
  847POPC   C2B15692  33.571  38.205   8.467
  847POPC   C3B15693  33.501  38.007   8.102
  847POPC   C4B15694  33.481  38.214   7.736
  848POPC   NC315695  29.062  44.851   9.465
  848POPC   PO415696  28.522  44.432   9.372
  848POPC   GL115697  28.779  44.635   9.115
  848POPC   GL215698  29.101  44.437   9.135
  848POPC   C1A15699  28.996  44.805   8.778
  848POPC   D2A15700  29.100  44.486   8.474
  848POPC   C3A15701  29.008  44.519   8.033
  848POPC   C4A15702  29.005  44.941   7.863
  848POPC   C1B15703  29.456  44.591   8.856
  848POPC   C2B15704  29.497  44.819   8.452
  848POPC   C3B15705  29.477  44.709   8.028
  848POPC   C4B15706  29.361  44.639   7.600
  849POPC   NC315707  10.202  12.781   9.540
  849POPC   PO415708  10.789  12.764   9.423
  849POPC   GL115709  10.530  12.845   9.115
  849POPC   GL215710  10.397  12.498   9.148
  849POPC   C1A15711  10.520  13.136   8.735
  849POPC   D2A15712  10.591  13.346   8.308
  849POPC   C3A15713  10.673  13.004   8.014
  849POPC   C4A15714  10.292  12.904   7.825
  849POPC   C1B15715  10.459  12.576   8.706
  849POPC   C2B15716  10.361  12.780   8.359
  849POPC   C3B15717  10.503  12.521   8.063
  849POPC   C4B15718  10.622  12.449   7.651
  850POPC   NC315719  33.490  34.053   9.426
  850POPC   PO415720  33.814  33.415   9.411
  850POPC   GL115721  34.031  33.662   9.138
  850POPC   GL215722  33.932  33.962   9.140
  850POPC   C1A15723  34.140  33.633   8.744
  850POPC   D2A15724  33.888  33.526   8.440
  850POPC   C3A15725  34.100  33.544   8.068
  850POPC   C4A15726  33.893  33.618   7.700
  850POPC   C1B15727  33.771  33.987   8.718
  850POPC   C2B15728  33.554  33.941   8.333
  850POPC   C3B15729  33.654  34.210   8.003
  850POPC   C4B15730  33.413  34.505   7.802
  851POPC   NC315731  10.093  19.853   9.439
  851POPC   PO415732  10.632  20.255   9.449
  851POPC   GL115733  10.575  19.968   9.131
  851POPC   GL215734  10.240  19.977   8.966
  851POPC   C1A15735  10.616  19.642   8.825
  851POPC   D2A15736  10.374  19.549   8.448
  851POPC   C3A15737  10.418  19.806   8.086
  851POPC   C4A15738  10.822  19.758   7.896
  851POPC   C1B15739   9.986  19.633   8.766
  851POPC   C2B15740   9.885  19.622   8.310
  851POPC   C3B15741  10.010  19.599   7.845
  851POPC   C4B15742  10.334  19.825   7.562
  852POPC   NC315743  29.340  18.307   9.459
  852POPC   PO415744  28.710  17.910   9.465
  852POPC   GL115745  29.007  18.076   9.137
  852POPC   GL215746  29.038  18.447   9.063
  852POPC   C1A15747  29.347  18.084   8.821
  852POPC   D2A15748  29.480  18.235   8.409
  852POPC   C3A15749  29.215  18.256   8.066
  852POPC   C4A15750  29.093  18.142   7.663
  852POPC   C1B15751  29.405  18.590   8.780
  852POPC   C2B15752  29.484  18.743   8.357
  852POPC   C3B15753  29.373  18.714   7.923
  852POPC   C4B15754  29.165  18.632   7.552
  853POPC   NC315755   4.547  38.622   9.655
  853POPC   PO415756   3.851  38.332   9.652
  853POPC   GL115757   3.997  38.443   9.236
  853POPC   GL215758   4.354  38.510   9.201
  853POPC   C1A15759   4.132  38.357   8.783
  853POPC   D2A15760   4.173  38.466   8.370
  853POPC   C3A15761   4.143  38.246   7.965
  853POPC   C4A15762   4.031  38.170   7.493
  853POPC   C1B15763   4.538  38.664   8.791
  853POPC   C2B15764   4.679  38.503   8.400
  853POPC   C3B15765   4.533  38.610   7.994
  853POPC   C4B15766   4.302  38.591   7.620
  854POPC   NC315767  22.866  27.822   9.572
  854POPC   PO415768  23.136  27.168   9.447
  854POPC   GL115769  23.029  27.453   9.158
  854POPC   GL215770  22.774  27.648   9.118
  854POPC   C1A15771  22.878  27.307   8.760
  854POPC   D2A15772  23.218  27.395   8.506
  854POPC   C3A15773  23.170  27.283   8.086
  854POPC   C4A15774  22.860  27.410   7.804
  854POPC   C1B15775  22.868  27.819   8.753
  854POPC   C2B15776  22.789  27.660   8.361
  854POPC   C3B15777  22.835  27.872   8.013
  854POPC   C4B15778  22.598  27.939   7.702
  855POPC   NC315779  19.097  12.381   9.169
  855POPC   PO415780  19.278  13.101   9.154
  855POPC   GL115781  18.905  13.109   8.992
  855POPC   GL215782  18.839  12.818   9.191
  855POPC   C1A15783  18.893  13.112   8.579
  855POPC   D2A15784  18.880  13.221   8.192
  855POPC   C3A15785  19.206  13.020   7.983
  855POPC   C4A15786  19.208  12.571   7.851
  855POPC   C1B15787  18.697  12.685   8.750
  855POPC   C2B15788  18.859  12.701   8.291
  855POPC   C3B15789  18.763  12.825   7.861
  855POPC   C4B15790  18.796  12.527   7.517
  856POPC   NC315791   4.321  35.828   9.527
  856POPC   PO415792   4.085  35.205   9.446
  856POPC   GL115793   4.315  35.274   9.126
  856POPC   GL215794   4.346  35.622   9.087
  856POPC   C1A15795   4.312  35.052   8.735
  856POPC   D2A15796   4.010  34.880   8.445
  856POPC   C3A15797   4.018  35.036   8.017
  856POPC   C4A15798   4.332  35.277   7.786
  856POPC   C1B15799   4.524  35.529   8.742
  856POPC   C2B15800   4.283  35.573   8.436
  856POPC   C3B15801   4.443  35.684   8.106
  856POPC   C4B15802   4.405  35.771   7.716
  857POPC   NC315803  37.346  21.460   9.519
  857POPC   PO415804  37.918  21.216   9.489
  857POPC   GL115805  37.701  21.231   9.123
  857POPC   GL215806  37.665  21.557   9.083
  857POPC   C1A15807  37.844  21.253   8.698
  857POPC   D2A15808  37.639  21.273   8.289
  857POPC   C3A15809  37.862  21.339   7.920
  857POPC   C4A15810  37.730  21.269   7.512
  857POPC   C1B15811  37.393  21.493   8.690
  857POPC   C2B15812  37.123  21.295   8.371
  857POPC   C3B15813  37.232  21.299   7.943
  857POPC   C4B15814  37.390  21.603   7.686
  858POPC   NC315815  23.925  14.376   9.506
  858POPC   PO415816  23.364  14.732   9.375
  858POPC   GL115817  23.574  14.359   9.112
  858POPC   GL215818  23.899  14.084   9.112
  858POPC   C1A15819  23.410  14.243   8.725
  858POPC   D2A15820  23.291  14.462   8.359
  858POPC   C3A15821  23.419  14.318   7.988
  858POPC   C4A15822  23.463  14.526   7.614
  858POPC   C1B15823  23.926  14.312   8.739
  858POPC   C2B15824  23.800  14.370   8.331
  858POPC   C3B15825  23.888  14.514   7.920
  858POPC   C4B15826  24.199  14.327   7.665
  859POPC   NC315827  14.862  26.358   9.718
  859POPC   PO415828  15.298  25.938   9.415
  859POPC   GL115829  15.250  26.232   9.138
  859POPC   GL215830  14.959  26.157   9.024
  859POPC   C1A15831  15.378  26.262   8.739
  859POPC   D2A15832  15.240  26.011   8.378
  859POPC   C3A15833  15.258  26.229   7.995
  859POPC   C4A15834  15.177  26.213   7.571
  859POPC   C1B15835  14.825  25.839   8.699
  859POPC   C2B15836  14.837  25.663   8.291
  859POPC   C3B15837  15.007  25.789   7.885
  859POPC   C4B15838  14.896  25.736   7.450
  860POPC   NC315839  17.954  24.880   9.440
  860POPC   PO415840  18.407  24.377   9.515
  860POPC   GL115841  18.225  24.534   9.180
  860POPC   GL215842  17.879  24.431   9.212
  860POPC   C1A15843  18.367  24.657   8.778
  860POPC   D2A15844  18.246  24.895   8.426
  860POPC   C3A15845  18.275  24.638   8.040
  860POPC   C4A15846  18.417  24.227   8.011
  860POPC   C1B15847  17.867  24.587   8.792
  860POPC   C2B15848  18.040  24.417   8.424
  860POPC   C3B15849  17.824  24.349   8.035
  860POPC   C4B15850  17.789  24.096   7.654
  861POPC   NC315851  42.341  30.217   9.454
  861POPC   PO415852  42.656  29.618   9.415
  861POPC   GL115853  42.550  29.878   9.102
  861POPC   GL215854  42.235  29.784   8.986
  861POPC   C1A15855  42.645  29.922   8.672
  861POPC   D2A15856  42.282  29.890   8.425
  861POPC   C3A15857  42.079  29.670   8.101
  861POPC   C4A15858  42.255  29.734   7.725
  861POPC   C1B15859  42.166  30.224   8.800
  861POPC   C2B15860  42.052  30.392   8.391
  861POPC   C3B15861  41.998  30.173   8.013
  861POPC   C4B15862  42.031  30.167   7.589
  862POPC   NC315863  27.261  39.543   9.420
  862POPC   PO415864  27.689  39.097   9.569
  862POPC   GL115865  27.698  39.269   9.159
  862POPC   GL215866  27.760  39.609   9.242
  862POPC   C1A15867  27.372  39.284   8.814
  862POPC   D2A15868  27.225  39.160   8.407
  862POPC   C3A15869  27.545  38.928   8.214
  862POPC   C4A15870  27.684  38.950   7.825
  862POPC   C1B15871  27.660  39.711   8.811
  862POPC   C2B15872  27.606  39.531   8.409
  862POPC   C3B15873  27.747  39.446   8.002
  862POPC   C4B15874  27.421  39.407   7.738
  863POPC   NC315875   5.103   9.801   9.566
  863POPC   PO415876   5.463  10.257   9.291
  863POPC   GL115877   5.151   9.952   9.090
  863POPC   GL215878   5.090   9.569   9.115
  863POPC   C1A15879   5.063   9.767   8.669
  863POPC   D2A15880   5.150   9.438   8.394
  863POPC   C3A15881   5.213   9.675   8.078
  863POPC   C4A15882   5.042   9.875   7.725
  863POPC   C1B15883   4.837   9.303   8.778
  863POPC   C2B15884   4.704   9.153   8.348
  863POPC   C3B15885   4.836   9.381   7.956
  863POPC   C4B15886   4.652   9.574   7.562
  864POPC   NC315887  19.556  39.808   9.551
  864POPC   PO415888  19.996  40.220   9.640
  864POPC   GL115889  19.741  40.114   9.187
  864POPC   GL215890  19.739  39.764   9.096
  864POPC   C1A15891  19.474  40.195   8.793
  864POPC   D2A15892  19.558  40.389   8.338
  864POPC   C3A15893  19.953  40.247   8.138
  864POPC   C4A15894  20.049  40.179   7.714
  864POPC   C1B15895  19.830  39.847   8.686
  864POPC   C2B15896  19.542  39.894   8.340
  864POPC   C3B15897  19.699  39.856   7.955
  864POPC   C4B15898  19.813  39.647   7.650
  865POPC   NC315899   6.051  27.464   9.569
  865POPC   PO415900   5.591  27.841   9.522
  865POPC   GL115901   5.817  27.676   9.147
  865POPC   GL215902   6.147  27.813   9.158
  865POPC   C1A15903   5.725  27.603   8.690
  865POPC   D2A15904   5.548  27.772   8.276
  865POPC   C3A15905   5.706  27.626   7.872
  865POPC   C4A15906   5.625  27.476   7.467
  865POPC   C1B15907   6.208  27.776   8.690
  865POPC   C2B15908   6.043  27.621   8.279
  865POPC   C3B15909   6.240  27.678   7.859
  865POPC   C4B15910   6.433  27.914   7.510
  866POPC   NC315911  35.107  43.306   9.384
  866POPC   PO415912  35.698  43.087   9.547
  866POPC   GL115913  35.447  43.007   9.123
  866POPC   GL215914  35.183  42.771   9.072
  866POPC   C1A15915  35.257  43.043   8.658
  866POPC   D2A15916  35.221  43.281   8.246
  866POPC   C3A15917  35.537  43.141   7.956
  866POPC   C4A15918  35.869  43.059   7.658
  866POPC   C1B15919  34.842  42.743   8.754
  866POPC   C2B15920  34.857  42.941   8.313
  866POPC   C3B15921  35.064  42.941   7.885
  866POPC   C4B15922  35.212  43.323   7.621
  867POPC   NC315923   9.320  21.437   9.543
  867POPC   PO415924   8.681  21.654   9.455
  867POPC   GL115925   8.867  21.634   9.062
  867POPC   GL215926   9.234  21.629   9.060
  867POPC   C1A15927   8.896  21.479   8.648
  867POPC   D2A15928   9.009  21.593   8.232
  867POPC   C3A15929   8.693  21.384   8.011
  867POPC   C4A15930   8.802  21.072   7.708
  867POPC   C1B15931   9.285  21.222   8.866
  867POPC   C2B15932   9.246  21.156   8.436
  867POPC   C3B15933   9.188  21.186   8.017
  867POPC   C4B15934   9.311  21.061   7.618
  868POPC   NC315935  40.502  34.963   9.672
  868POPC   PO415936  40.546  35.611   9.702
  868POPC   GL115937  40.669  35.448   9.304
  868POPC   GL215938  40.984  35.593   9.227
  868POPC   C1A15939  40.672  35.282   8.872
  868POPC   D2A15940  40.530  35.034   8.512
  868POPC   C3A15941  40.591  35.329   8.173
  868POPC   C4A15942  40.774  35.264   7.778
  868POPC   C1B15943  41.054  35.785   8.851
  868POPC   C2B15944  40.926  35.624   8.497
  868POPC   C3B15945  41.074  35.552   8.095
  868POPC   C4B15946  41.021  35.745   7.731
  869POPC   NC315947   5.690   8.402   9.669
  869POPC   PO415948   6.088   7.903   9.451
  869POPC   GL115949   5.861   8.177   9.171
  869POPC   GL215950   5.619   7.946   9.167
  869POPC   C1A15951   5.787   8.312   8.724
  869POPC   D2A15952   6.004   8.190   8.329
  869POPC   C3A15953   5.867   8.274   7.928
  869POPC   C4A15954   5.697   8.404   7.529
  869POPC   C1B15955   5.742   7.799   8.748
  869POPC   C2B15956   5.565   7.935   8.336
  869POPC   C3B15957   5.465   8.001   7.881
  869POPC   C4B15958   5.537   7.912   7.419
  870POPC   NC315959   4.005  16.715   9.577
  870POPC   PO415960   4.653  16.899   9.556
  870POPC   GL115961   4.355  16.820   9.183
  870POPC   GL215962   4.077  17.086   9.250
  870POPC   C1A15963   4.375  16.636   8.722
  870POPC   D2A15964   4.208  16.450   8.305
  870POPC   C3A15965   4.391  16.539   7.895
  870POPC   C4A15966   4.629  16.956   7.772
  870POPC   C1B15967   4.017  17.006   8.837
  870POPC   C2B15968   4.256  17.119   8.487
  870POPC   C3B15969   4.245  16.953   8.116
  870POPC   C4B15970   4.121  16.954   7.709
  871POPC   NC315971   6.453  42.978   9.654
  871POPC   PO415972   6.942  43.352   9.593
  871POPC   GL115973   6.704  43.192   9.248
  871POPC   GL215974   6.359  43.318   9.250
  871POPC   C1A15975   6.823  43.046   8.852
  871POPC   D2A15976   6.828  43.237   8.473
  871POPC   C3A15977   6.899  43.098   8.074
  871POPC   C4A15978   6.807  43.349   7.717
  871POPC   C1B15979   6.291  43.020   8.926
  871POPC   C2B15980   6.343  43.023   8.499
  871POPC   C3B15981   6.406  42.791   8.121
  871POPC   C4B15982   6.589  42.893   7.718
  872POPC   NC315983   8.323  16.121   9.522
  872POPC   PO415984   7.763  15.806   9.867
  872POPC   GL115985   8.072  15.706   9.424
  872POPC   GL215986   7.982  16.007   9.172
  872POPC   C1A15987   8.159  15.591   8.931
  872POPC   D2A15988   8.063  15.856   8.565
  872POPC   C3A15989   8.268  15.751   8.171
  872POPC   C4A15990   8.320  15.768   7.735
  872POPC   C1B15991   8.030  16.292   8.839
  872POPC   C2B15992   7.987  16.398   8.432
  872POPC   C3B15993   7.970  16.166   8.071
  872POPC   C4B15994   8.043  16.205   7.654
  873POPC   NC315995  19.320  36.232   9.616
  873POPC   PO415996  18.720  35.909   9.441
  873POPC   GL115997  18.998  36.151   9.202
  873POPC   GL215998  18.895  36.484   9.112
  873POPC   C1A15999  18.962  36.152   8.752
  873POPC   D2A16000  18.933  36.408   8.403
  873POPC   C3A16001  19.007  36.075   8.119
  873POPC   C4A16002  19.177  35.911   7.745
  873POPC   C1B16003  19.217  36.585   8.800
  873POPC   C2B16004  19.415  36.508   8.383
  873POPC   C3B16005  19.224  36.565   7.978
  873POPC   C4B16006  19.268  36.393   7.590
  874POPC   NC316007  31.297  13.749   9.443
  874POPC   PO416008  31.851  13.343   9.638
  874POPC   GL116009  31.820  13.264   9.171
  874POPC   GL216010  31.618  13.529   8.928
  874POPC   C1A16011  31.650  13.055   8.788
  874POPC   D2A16012  31.379  13.160   8.434
  874POPC   C3A16013  31.496  13.523   8.160
  874POPC   C4A16014  31.613  13.893   7.884
  874POPC   C1B16015  31.341  13.835   8.666
  874POPC   C2B16016  31.163  13.908   8.241
  874POPC   C3B16017  31.123  13.736   7.840
  874POPC   C4B16018  31.360  13.427   7.673
  875POPC   NC316019  22.083  43.602   9.456
  875POPC   PO416020  21.871  44.271   9.588
  875POPC   GL116021  21.934  44.049   9.228
  875POPC   GL216022  22.275  43.978   9.139
  875POPC   C1A16023  21.821  43.947   8.821
  875POPC   D2A16024  21.870  43.750   8.460
  875POPC   C3A16025  22.112  43.955   8.186
  875POPC   C4A16026  21.851  43.951   7.839
  875POPC   C1B16027  22.289  43.640   8.793
  875POPC   C2B16028  22.577  43.667   8.412
  875POPC   C3B16029  22.535  43.766   7.974
  875POPC   C4B16030  22.198  43.580   7.817
  876POPC   NC316031   3.320  44.792   9.312
  876POPC   PO416032   3.888  44.908   9.563
  876POPC   GL116033   3.891  44.755   9.133
  876POPC   GL216034   3.619  44.528   9.029
  876POPC   C1A16035   3.817  44.842   8.684
  876POPC   D2A16036   3.581  44.790   8.301
  876POPC   C3A16037   3.784  44.672   7.946
  876POPC   C4A16038   3.858  44.535   7.556
  876POPC   C1B16039   3.292  44.580   8.676
  876POPC   C2B16040   3.323  44.353   8.265
  876POPC   C3B16041   3.329  44.468   7.833
  876POPC   C4B16042   3.039  44.409   7.480
  877POPC   NC316043   4.959   5.336   9.588
  877POPC   PO416044   5.432   5.831   9.531
  877POPC   GL116045   5.171   5.635   9.202
  877POPC   GL216046   5.344   5.409   8.965
  877POPC   C1A16047   4.942   5.677   8.796
  877POPC   D2A16048   4.991   5.579   8.346
  877POPC   C3A16049   4.753   5.852   8.058
  877POPC   C4A16050   4.811   5.963   7.622
  877POPC   C1B16051   5.453   5.818   8.806
  877POPC   C2B16052   5.506   5.899   8.381
  877POPC   C3B16053   5.293   5.828   7.997
  877POPC   C4B16054   5.322   6.055   7.624
  878POPC   NC316055   8.789  41.850   9.397
  878POPC   PO416056   9.148  41.335   9.518
  878POPC   GL116057   9.129  41.418   9.098
  878POPC   GL216058   8.968  41.714   8.951
  878POPC   C1A16059   9.281  41.380   8.680
  878POPC   D2A16060   8.933  41.385   8.401
  878POPC   C3A16061   9.050  41.228   8.003
  878POPC   C4A16062   9.133  41.373   7.553
  878POPC   C1B16063   8.589  41.815   8.733
  878POPC   C2B16064   8.683  41.962   8.323
  878POPC   C3B16065   8.890  41.729   8.024
  878POPC   C4B16066   8.683  41.492   7.768
  879POPC   NC316067  38.188  39.674   9.553
  879POPC   PO416068  38.674  40.096   9.709
  879POPC   GL116069  38.489  40.132   9.283
  879POPC   GL216070  38.721  40.199   9.058
  879POPC   C1A16071  38.243  40.007   8.929
  879POPC   D2A16072  38.105  40.082   8.537
  879POPC   C3A16073  38.360  40.170   8.164
  879POPC   C4A16074  38.203  40.172   7.747
  879POPC   C1B16075  38.630  40.201   8.629
  879POPC   C2B16076  38.872  39.931   8.333
  879POPC   C3B16077  38.913  39.968   7.896
  879POPC   C4B16078  38.695  40.293   7.681
  880POPC   NC316079   5.346  24.716   9.688
  880POPC   PO416080   5.684  24.259   9.664
  880POPC   GL116081   5.696  24.328   9.208
  880POPC   GL216082   5.476  24.629   9.184
  880POPC   C1A16083   5.915  24.209   8.789
  880POPC   D2A16084   6.150  24.240   8.379
  880POPC   C3A16085   5.834  24.245   8.031
  880POPC   C4A16086   5.464  24.092   7.798
  880POPC   C1B16087   5.595  24.647   8.737
  880POPC   C2B16088   5.844  24.671   8.345
  880POPC   C3B16089   5.805  24.736   7.893
  880POPC   C4B16090   5.464  24.583   7.594
  881POPC   NC316091  37.750  31.001   9.348
  881POPC   PO416092  37.814  30.470   9.765
  881POPC   GL116093  37.776  30.485   9.276
  881POPC   GL216094  37.428  30.568   9.204
  881POPC   C1A16095  37.830  30.666   8.829
  881POPC   D2A16096  38.061  30.796   8.439
  881POPC   C3A16097  37.920  31.070   8.107
  881POPC   C4A16098  37.750  30.962   7.703
  881POPC   C1B16099  37.343  30.564   8.747
  881POPC   C2B16100  37.531  30.804   8.439
  881POPC   C3B16101  37.502  30.713   8.061
  881POPC   C4B16102  37.236  30.795   7.746
  882POPC   NC316103  18.261   9.539   9.551
  882POPC   PO416104  18.011  10.101   9.386
  882POPC   GL116105  18.258   9.897   9.137
  882POPC   GL216106  18.531  10.098   9.068
  882POPC   C1A16107  18.100   9.882   8.726
  882POPC   D2A16108  18.238  10.020   8.323
  882POPC   C3A16109  18.054   9.829   7.958
  882POPC   C4A16110  18.174   9.641   7.573
  882POPC   C1B16111  18.567   9.708   8.768
  882POPC   C2B16112  18.477   9.493   8.367
  882POPC   C3B16113  18.592   9.533   7.924
  882POPC   C4B16114  18.680   9.526   7.459
  883POPC   NC316115   1.069  21.764   9.477
  883POPC   PO416116   1.095  21.201   9.759
  883POPC   GL116117   1.042  21.262   9.287
  883POPC   GL216118   1.369  21.401   9.168
  883POPC   C1A16119   1.107  21.149   8.802
  883POPC   D2A16120   1.354  21.207   8.401
  883POPC   C3A16121   1.158  21.186   7.975
  883POPC   C4A16122   1.272  21.133   7.540
  883POPC   C1B16123   1.664  21.377   8.790
  883POPC   C2B16124   1.779  21.526   8.383
  883POPC   C3B16125   1.580  21.495   8.021
  883POPC   C4B16126   1.586  21.796   7.702
  884POPC   NC316127  26.877   0.314   9.863
  884POPC   PO416128  27.198   0.667   9.477
  884POPC   GL116129  26.903   0.371   9.209
  884POPC   GL216130  26.546   0.424   9.167
  884POPC   C1A16131  26.822   0.447   8.722
  884POPC   D2A16132  26.974   0.708   8.360
  884POPC   C3A16133  27.212   0.570   7.985
  884POPC   C4A16134  27.199   0.291   7.668
  884POPC   C1B16135  26.509   0.093   8.881
  884POPC   C2B16136  26.625   0.053   8.422
  884POPC   C3B16137  26.721   0.343   8.073
  884POPC   C4B16138  26.754   0.782   7.917
  885POPC   NC316139  38.284  11.104   9.484
  885POPC   PO416140  38.694  11.522   9.403
  885POPC   GL116141  38.456  11.484   9.092
  885POPC   GL216142  38.558  11.159   9.049
  885POPC   C1A16143  38.501  11.485   8.664
  885POPC   D2A16144  38.298  11.366   8.308
  885POPC   C3A16145  38.447  11.465   7.902
  885POPC   C4A16146  38.328  11.463   7.468
  885POPC   C1B16147  38.220  11.077   8.824
  885POPC   C2B16148  38.134  10.895   8.459
  885POPC   C3B16149  37.941  11.060   8.117
  885POPC   C4B16150  38.121  11.071   7.731
  886POPC   NC316151  23.096  25.945   9.784
  886POPC   PO416152  22.457  25.731   9.478
  886POPC   GL116153  22.788  25.966   9.155
  886POPC   GL216154  23.128  25.809   9.168
  886POPC   C1A16155  22.702  26.311   8.808
  886POPC   D2A16156  22.665  26.576   8.464
  886POPC   C3A16157  22.630  26.379   8.062
  886POPC   C4A16158  22.797  25.953   7.949
  886POPC   C1B16159  23.155  26.095   8.782
  886POPC   C2B16160  23.076  26.267   8.350
  886POPC   C3B16161  23.293  26.139   7.950
  886POPC   C4B16162  23.164  25.846   7.590
  887POPC   NC316163  30.513  16.562   9.474
  887POPC   PO416164  30.600  15.896   9.586
  887POPC   GL116165  30.876  15.995   9.213
  887POPC   GL216166  30.948  15.692   9.051
  887POPC   C1A16167  30.745  16.079   8.759
  887POPC   D2A16168  30.462  15.915   8.403
  887POPC   C3A16169  30.647  15.954   8.007
  887POPC   C4A16170  31.033  16.004   7.856
  887POPC   C1B16171  31.070  15.701   8.666
  887POPC   C2B16172  30.921  15.626   8.288
  887POPC   C3B16173  31.004  15.514   7.892
  887POPC   C4B16174  30.701  15.576   7.602
  888POPC   NC316175  37.487  10.720   9.897
  888POPC   PO416176  37.498  10.300   9.350
  888POPC   GL116177  37.547  10.662   9.078
  888POPC   GL216178  37.880  10.661   8.895
  888POPC   C1A16179  37.368  10.751   8.662
  888POPC   D2A16180  37.684  10.686   8.355
  888POPC   C3A16181  37.762  10.630   7.910
  888POPC   C4A16182  37.768  10.767   7.480
  888POPC   C1B16183  37.659  10.298   8.724
  888POPC   C2B16184  37.523  10.203   8.329
  888POPC   C3B16185  37.356  10.361   7.980
  888POPC   C4B16186  37.521  10.320   7.535
  889POPC   NC316187  16.039  17.405   9.486
  889POPC   PO416188  15.778  17.880   9.366
  889POPC   GL116189  15.978  17.625   9.021
  889POPC   GL216190  15.885  17.248   9.004
  889POPC   C1A16191  15.967  17.549   8.569
  889POPC   D2A16192  15.684  17.308   8.301
  889POPC   C3A16193  15.867  17.265   7.884
  889POPC   C4A16194  16.200  17.523   7.687
  889POPC   C1B16195  16.175  17.100   8.670
  889POPC   C2B16196  16.232  17.233   8.231
  889POPC   C3B16197  16.442  17.120   7.845
  889POPC   C4B16198  16.575  17.193   7.403
  890POPC   NC316199  20.699   1.788   9.641
  890POPC   PO416200  20.256   2.250   9.491
  890POPC   GL116201  20.489   1.959   9.158
  890POPC   GL216202  20.844   1.833   9.161
  890POPC   C1A16203  20.351   1.842   8.727
  890POPC   D2A16204  20.142   2.019   8.327
  890POPC   C3A16205  20.330   1.899   7.902
  890POPC   C4A16206  20.434   2.044   7.441
  890POPC   C1B16207  20.851   1.683   8.754
  890POPC   C2B16208  20.699   1.728   8.325
  890POPC   C3B16209  20.843   1.658   7.898
  890POPC   C4B16210  20.575   1.549   7.574
  891POPC   NC316211  26.884   9.454   9.806
  891POPC   PO416212  26.829  10.061   9.807
  891POPC   GL116213  26.892   9.990   9.237
  891POPC   GL216214  27.155   9.992   9.054
  891POPC   C1A16215  26.635   9.808   8.799
  891POPC   D2A16216  26.623   9.736   8.349
  891POPC   C3A16217  26.677   9.624   7.907
  891POPC   C4A16218  26.572   9.947   7.604
  891POPC   C1B16219  27.136   9.727   8.688
  891POPC   C2B16220  27.113   9.663   8.236
  891POPC   C3B16221  27.139   9.857   7.842
  891POPC   C4B16222  27.000   9.794   7.394
  892POPC   NC316223  43.502  35.657   9.482
  892POPC   PO416224  43.769  35.041   9.493
  892POPC   GL116225  43.885  35.282   9.108
  892POPC   GL216226  43.771  35.625   9.033
  892POPC   C1A16227  44.044  35.298   8.709
  892POPC   D2A16228  43.843  35.266   8.330
  892POPC   C3A16229  44.062  35.297   7.961
  892POPC   C4A16230  44.062  35.108   7.580
  892POPC   C1B16231  43.530  35.399   8.744
  892POPC   C2B16232  43.382  35.483   8.321
  892POPC   C3B16233  43.543  35.394   7.898
  892POPC   C4B16234  43.821  35.573   7.591
  893POPC   NC316235   4.274  20.830   9.544
  893POPC   PO416236   4.015  20.184   9.427
  893POPC   GL116237   4.350  20.312   9.127
  893POPC   GL216238   4.443  20.628   9.089
  893POPC   C1A16239   4.582  20.300   8.740
  893POPC   D2A16240   4.343  20.220   8.396
  893POPC   C3A16241   4.438  20.343   7.998
  893POPC   C4A16242   4.537  20.711   7.770
  893POPC   C1B16243   4.497  20.835   8.692
  893POPC   C2B16244   4.526  20.997   8.261
  893POPC   C3B16245   4.640  21.203   7.882
  893POPC   C4B16246   4.620  21.083   7.429
  894POPC   NC316247  28.520  44.013   9.534
  894POPC   PO416248  27.852  44.164   9.637
  894POPC   GL116249  28.079  43.981   9.207
  894POPC   GL216250  28.448  44.053   9.042
  894POPC   C1A16251  28.222  43.659   8.857
  894POPC   D2A16252  28.518  43.809   8.530
  894POPC   C3A16253  28.456  43.582   8.151
  894POPC   C4A16254  28.339  43.739   7.767
  894POPC   C1B16255  28.748  44.227   8.767
  894POPC   C2B16256  28.637  44.295   8.348
  894POPC   C3B16257  28.621  44.182   7.906
  894POPC   C4B16258  28.669  44.138   7.463
  895POPC   NC316259  27.679  38.637   9.498
  895POPC   PO416260  27.043  38.404   9.441
  895POPC   GL116261  27.403  38.309   9.147
  895POPC   GL216262  27.757  38.262   9.179
  895POPC   C1A16263  27.535  38.530   8.761
  895POPC   D2A16264  27.426  38.416   8.335
  895POPC   C3A16265  27.318  38.546   7.917
  895POPC   C4A16266  27.476  38.360   7.551
  895POPC   C1B16267  28.010  38.337   8.803
  895POPC   C2B16268  27.927  38.612   8.417
  895POPC   C3B16269  27.829  38.488   7.979
  895POPC   C4B16270  27.962  38.161   7.677
  896POPC   NC316271   6.675  21.718   9.265
  896POPC   PO416272   6.916  22.355   9.454
  896POPC   GL116273   6.695  22.305   9.085
  896POPC   GL216274   6.417  22.158   9.174
  896POPC   C1A16275   6.673  22.073   8.723
  896POPC   D2A16276   6.739  21.922   8.329
  896POPC   C3A16277   6.702  22.282   8.077
  896POPC   C4A16278   6.545  22.187   7.719
  896POPC   C1B16279   6.174  21.963   8.841
  896POPC   C2B16280   6.245  21.733   8.467
  896POPC   C3B16281   6.314  21.875   8.043
  896POPC   C4B16282   6.231  21.725   7.614
  897POPC   NC316283   1.061  40.227   9.278
  897POPC   PO416284   1.122  40.827   9.651
  897POPC   GL116285   1.196  40.975   9.240
  897POPC   GL216286   0.987  40.729   9.145
  897POPC   C1A16287   1.382  40.846   8.817
  897POPC   D2A16288   1.357  40.702   8.376
  897POPC   C3A16289   1.133  40.905   8.041
  897POPC   C4A16290   1.101  41.141   7.663
  897POPC   C1B16291   0.915  40.685   8.722
  897POPC   C2B16292   0.688  40.716   8.351
  897POPC   C3B16293   0.657  40.504   7.962
  897POPC   C4B16294   0.883  40.674   7.629
  898POPC   NC316295  39.249  26.492   9.459
  898POPC   PO416296  38.777  26.061   9.536
  898POPC   GL116297  39.063  26.046   9.193
  898POPC   GL216298  39.387  25.840   9.228
  898POPC   C1A16299  39.212  26.056   8.774
  898POPC   D2A16300  39.048  26.117   8.372
  898POPC   C3A16301  38.916  25.782   8.087
  898POPC   C4A16302  38.991  26.028   7.697
  898POPC   C1B16303  39.598  25.727   8.811
  898POPC   C2B16304  39.357  25.710   8.407
  898POPC   C3B16305  39.404  25.930   8.002
  898POPC   C4B16306  39.629  25.767   7.630
  899POPC   NC316307  33.348  41.018   9.387
  899POPC   PO416308  33.902  40.560   9.500
  899POPC   GL116309  33.821  40.831   9.158
  899POPC   GL216310  33.623  41.072   8.979
  899POPC   C1A16311  33.949  40.666   8.797
  899POPC   D2A16312  34.037  40.347   8.501
  899POPC   C3A16313  33.899  40.423   8.091
  899POPC   C4A16314  34.015  40.779   7.866
  899POPC   C1B16315  33.822  41.151   8.626
  899POPC   C2B16316  33.808  40.853   8.337
  899POPC   C3B16317  33.517  40.774   8.028
  899POPC   C4B16318  33.248  40.554   7.775
  900POPC   NC316319   3.457  40.752   9.566
  900POPC   PO416320   4.075  41.041   9.689
  900POPC   GL116321   3.807  40.847   9.244
  900POPC   GL216322   3.742  40.516   9.137
  900POPC   C1A16323   3.780  40.890   8.784
  900POPC   D2A16324   3.947  40.766   8.414
  900POPC   C3A16325   3.671  40.859   8.085
  900POPC   C4A16326   3.725  41.014   7.685
  900POPC   C1B16327   3.336  40.662   8.918
  900POPC   C2B16328   3.302  40.726   8.468
  900POPC   C3B16329   3.131  40.811   8.055
  900POPC   C4B16330   3.246  40.745   7.619
  901POPC   NC316331   5.182  40.720   9.334
  901POPC   PO416332   4.635  40.510   9.700
  901POPC   GL116333   4.704  40.650   9.257
  901POPC   GL216334   4.796  41.017   9.172
  901POPC   C1A16335   4.833  40.549   8.806
  901POPC   D2A16336   4.890  40.685   8.359
  901POPC   C3A16337   5.170  40.611   8.023
  901POPC   C4A16338   5.307  40.751   7.628
  901POPC   C1B16339   4.988  41.066   8.734
  901POPC   C2B16340   4.977  41.208   8.270
  901POPC   C3B16341   4.862  41.000   7.863
  901POPC   C4B16342   4.827  40.703   7.484
  902POPC   NC316343  41.403  29.547   9.471
  902POPC   PO416344  42.027  29.871   9.469
  902POPC   GL116345  41.839  30.108   9.174
  902POPC   GL216346  41.476  30.047   9.192
  902POPC   C1A16347  41.767  29.871   8.812
  902POPC   D2A16348  41.781  29.968   8.425
  902POPC   C3A16349  41.534  29.900   8.114
  902POPC   C4A16350  41.714  29.800   7.743
  902POPC   C1B16351  41.263  29.946   8.811
  902POPC   C2B16352  41.123  30.128   8.447
  902POPC   C3B16353  41.093  30.129   8.014
  902POPC   C4B16354  41.222  29.909   7.683
  903POPC   NC316355  44.682  29.052   9.646
  903POPC   PO416356  44.184  29.434   9.399
  903POPC   GL116357  44.556  29.255   9.191
  903POPC   GL216358  44.590  28.875   9.185
  903POPC   C1A16359  44.705  29.206   8.757
  903POPC   D2A16360  44.497  29.209   8.334
  903POPC   C3A16361  44.727  29.319   7.971
  903POPC   C4A16362  44.809  29.164   7.593
  903POPC   C1B16363  44.896  28.750   8.897
  903POPC   C2B16364  44.843  28.807   8.449
  903POPC   C3B16365  44.861  28.825   7.996
  903POPC   C4B16366  44.963  28.688   7.555
  904POPC   NC316367  24.001  33.997   9.836
  904POPC   PO416368  24.376  33.730   9.461
  904POPC   GL116369  24.026  33.732   9.115
  904POPC   GL216370  23.981  34.057   8.946
  904POPC   C1A16371  23.690  33.683   8.756
  904POPC   D2A16372  23.706  33.945   8.370
  904POPC   C3A16373  23.637  33.760   7.947
  904POPC   C4A16374  23.388  33.923   7.590
  904POPC   C1B16375  24.159  33.799   8.593
  904POPC   C2B16376  24.127  33.738   8.127
  904POPC   C3B16377  24.070  33.865   7.673
  904POPC   C4B16378  24.054  33.935   7.213
  905POPC   NC316379  42.025  40.054   9.542
  905POPC   PO416380  42.539  39.706   9.400
  905POPC   GL116381  42.319  39.923   9.083
  905POPC   GL216382  42.096  40.207   9.060
  905POPC   C1A16383  42.332  39.904   8.656
  905POPC   D2A16384  42.134  39.840   8.292
  905POPC   C3A16385  42.438  39.921   7.999
  905POPC   C4A16386  42.592  39.580   7.810
  905POPC   C1B16387  42.419  40.395   8.778
  905POPC   C2B16388  42.249  40.321   8.366
  905POPC   C3B16389  42.027  40.212   7.980
  905POPC   C4B16390  42.293  40.286   7.661
  906POPC   NC316391  41.023   0.058   9.570
  906POPC   PO416392  40.882  44.398   9.467
  906POPC   GL116393  41.176  44.517   9.118
  906POPC   GL216394  41.149  44.870   9.082
  906POPC   C1A16395  41.108  44.568   8.653
  906POPC   D2A16396  40.681  44.629   8.442
  906POPC   C3A16397  40.684  44.510   8.010
  906POPC   C4A16398  41.094  44.550   7.874
  906POPC   C1B16399  40.878   0.017   8.742
  906POPC   C2B16400  40.927   0.126   8.301
  906POPC   C3B16401  40.838   0.074   7.860
  906POPC   C4B16402  40.551   0.244   7.509
  907POPC   NC316403  19.599  40.449   9.528
  907POPC   PO416404  20.070  40.913   9.293
  907POPC   GL116405  19.657  40.896   9.129
  907POPC   GL216406  19.435  41.174   9.168
  907POPC   C1A16407  19.649  40.688   8.741
  907POPC   D2A16408  19.982  40.695   8.383
  907POPC   C3A16409  19.973  40.712   7.909
  907POPC   C4A16410  19.735  40.573   7.531
  907POPC   C1B16411  19.400  41.143   8.724
  907POPC   C2B16412  19.361  40.864   8.366
  907POPC   C3B16413  19.466  40.808   7.926
  907POPC   C4B16414  19.326  40.903   7.493
  908POPC   NC316415  24.663  28.069   9.549
  908POPC   PO416416  24.151  28.489   9.727
  908POPC   GL116417  24.387  28.382   9.273
  908POPC   GL216418  24.390  28.055   9.115
  908POPC   C1A16419  24.438  28.486   8.826
  908POPC   D2A16420  24.186  28.337   8.465
  908POPC   C3A16421  24.098  28.581   8.134
  908POPC   C4A16422  24.359  28.725   7.828
  908POPC   C1B16423  24.726  28.071   8.788
  908POPC   C2B16424  24.693  28.262   8.384
  908POPC   C3B16425  24.500  28.230   7.986
  908POPC   C4B16426  24.730  28.019   7.671
  909POPC   NC316427  14.950  14.711   9.253
  909POPC   PO416428  15.375  14.249   9.629
  909POPC   GL116429  15.305  14.331   9.166
  909POPC   GL216430  15.157  14.091   9.140
  909POPC   C1A16431  15.339  14.591   8.738
  909POPC   D2A16432  15.372  14.785   8.329
  909POPC   C3A16433  15.231  14.597   7.951
  909POPC   C4A16434  15.392  14.591   7.530
  909POPC   C1B16435  15.366  14.083   8.744
  909POPC   C2B16436  15.296  14.223   8.316
  909POPC   C3B16437  15.031  14.107   7.946
  909POPC   C4B16438  14.796  13.892   7.583
  910POPC   NC316439   6.523   5.368   9.313
  910POPC   PO416440   6.326   5.938   9.691
  910POPC   GL116441   6.467   5.881   9.212
  910POPC   GL216442   6.601   6.187   9.041
  910POPC   C1A16443   6.630   5.707   8.774
  910POPC   D2A16444   6.825   5.436   8.440
  910POPC   C3A16445   6.723   5.607   8.011
  910POPC   C4A16446   6.773   6.082   7.897
  910POPC   C1B16447   6.310   6.104   8.686
  910POPC   C2B16448   6.391   5.953   8.231
  910POPC   C3B16449   6.269   6.069   7.760
  910POPC   C4B16450   6.225   5.949   7.273
  911POPC   NC316451  34.786  42.424   9.430
  911POPC   PO416452  34.140  42.310   9.495
  911POPC   GL116453  34.374  42.163   9.101
  911POPC   GL216454  34.503  42.467   9.019
  911POPC   C1A16455  34.692  42.128   8.697
  911POPC   D2A16456  34.596  42.062   8.219
  911POPC   C3A16457  34.757  42.041   7.820
  911POPC   C4A16458  34.737  42.212   7.448
  911POPC   C1B16459  34.294  42.421   8.632
  911POPC   C2B16460  34.589  42.535   8.361
  911POPC   C3B16461  34.749  42.532   7.973
  911POPC   C4B16462  34.382  42.449   7.761
  912POPC   NC316463  18.992  32.293   9.537
  912POPC   PO416464  18.731  31.702   9.355
  912POPC   GL116465  18.786  32.096   9.116
  912POPC   GL216466  19.162  32.166   9.084
  912POPC   C1A16467  18.858  32.352   8.737
  912POPC   D2A16468  19.077  32.227   8.350
  912POPC   C3A16469  18.873  32.256   7.965
  912POPC   C4A16470  18.889  32.615   7.699
  912POPC   C1B16471  19.312  31.978   8.719
  912POPC   C2B16472  19.449  31.854   8.325
  912POPC   C3B16473  19.521  32.145   7.997
  912POPC   C4B16474  19.291  32.256   7.648
  913POPC   NC316475  17.215  33.919   9.431
  913POPC   PO416476  17.615  33.471   9.565
  913POPC   GL116477  17.602  33.658   9.136
  913POPC   GL216478  17.254  33.651   8.996
  913POPC   C1A16479  17.688  33.922   8.764
  913POPC   D2A16480  17.679  33.814   8.340
  913POPC   C3A16481  17.742  34.083   7.994
  913POPC   C4A16482  17.660  33.887   7.580
  913POPC   C1B16483  17.216  34.059   8.804
  913POPC   C2B16484  17.358  34.209   8.449
  913POPC   C3B16485  17.240  34.043   8.084
  913POPC   C4B16486  17.304  34.219   7.692
  914POPC   NC316487   9.994  16.307   9.272
  914POPC   PO416488   9.373  16.384   9.594
  914POPC   GL116489   9.399  16.683   9.130
  914POPC   GL216490   9.747  16.745   9.140
  914POPC   C1A16491   9.349  16.629   8.661
  914POPC   D2A16492   9.597  16.314   8.479
  914POPC   C3A16493   9.522  16.364   8.056
  914POPC   C4A16494   9.771  16.548   7.759
  914POPC   C1B16495   9.770  16.910   8.723
  914POPC   C2B16496   9.752  16.821   8.276
  914POPC   C3B16497   9.746  17.053   7.892
  914POPC   C4B16498   9.740  17.297   7.530
  915POPC   NC316499   4.546  34.221   9.462
  915POPC   PO416500   4.543  33.583   9.747
  915POPC   GL116501   4.357  33.763   9.348
  915POPC   GL216502   4.032  33.776   9.440
  915POPC   C1A16503   4.441  33.906   8.899
  915POPC   D2A16504   4.585  33.803   8.469
  915POPC   C3A16505   4.567  33.950   8.052
  915POPC   C4A16506   4.347  33.764   7.702
  915POPC   C1B16507   3.965  33.772   8.993
  915POPC   C2B16508   4.086  33.696   8.574
  915POPC   C3B16509   4.075  33.798   8.146
  915POPC   C4B16510   3.960  34.092   7.816
  916POPC   NC316511  21.585  24.968   9.594
  916POPC   PO416512  21.471  25.636   9.614
  916POPC   GL116513  21.354  25.441   9.208
  916POPC   GL216514  21.048  25.486   9.066
  916POPC   C1A16515  21.408  25.580   8.744
  916POPC   D2A16516  21.247  25.467   8.331
  916POPC   C3A16517  21.599  25.291   8.095
  916POPC   C4A16518  21.819  25.329   7.695
  916POPC   C1B16519  20.983  25.157   8.795
  916POPC   C2B16520  20.838  25.158   8.392
  916POPC   C3B16521  21.045  25.109   7.998
  916POPC   C4B16522  21.252  25.477   7.792
  917POPC   NC316523  27.186  37.959   9.477
  917POPC   PO416524  27.127  37.371   9.664
  917POPC   GL116525  27.276  37.460   9.253
  917POPC   GL216526  27.047  37.255   9.065
  917POPC   C1A16527  27.215  37.687   8.848
  917POPC   D2A16528  26.892  37.895   8.581
  917POPC   C3A16529  26.964  37.838   8.152
  917POPC   C4A16530  27.195  37.591   7.875
  917POPC   C1B16531  26.847  37.373   8.644
  917POPC   C2B16532  26.580  37.537   8.298
  917POPC   C3B16533  26.643  37.522   7.853
  917POPC   C4B16534  26.700  37.235   7.489
  918POPC   NC316535  23.491  25.061   9.537
  918POPC   PO416536  24.170  25.347   9.513
  918POPC   GL116537  23.886  25.150   9.232
  918POPC   GL216538  23.652  25.457   9.220
  918POPC   C1A16539  23.575  25.112   8.862
  918POPC   D2A16540  23.445  25.459   8.558
  918POPC   C3A16541  23.599  25.427   8.120
  918POPC   C4A16542  23.673  25.028   7.871
  918POPC   C1B16543  23.937  25.478   8.858
  918POPC   C2B16544  23.999  25.666   8.512
  918POPC   C3B16545  24.173  25.501   8.161
  918POPC   C4B16546  23.996  25.455   7.778
  919POPC   NC316547   1.331  28.397   9.721
  919POPC   PO416548   1.147  28.986   9.570
  919POPC   GL116549   1.327  28.693   9.271
  919POPC   GL216550   1.085  28.408   9.222
  919POPC   C1A16551   1.393  28.552   8.841
  919POPC   D2A16552   1.086  28.492   8.520
  919POPC   C3A16553   1.150  28.615   8.100
  919POPC   C4A16554   0.961  28.503   7.714
  919POPC   C1B16555   1.093  28.105   8.852
  919POPC   C2B16556   1.252  28.025   8.402
  919POPC   C3B16557   1.348  28.156   7.949
  919POPC   C4B16558   1.283  28.178   7.468
  920POPC   NC316559  25.965   9.436   9.413
  920POPC   PO416560  26.469   9.924   9.444
  920POPC   GL116561  26.206   9.839   9.128
  920POPC   GL216562  25.878   9.879   9.161
  920POPC   C1A16563  26.107   9.743   8.727
  920POPC   D2A16564  26.123   9.653   8.354
  920POPC   C3A16565  26.228   9.870   8.011
  920POPC   C4A16566  26.190   9.640   7.646
  920POPC   C1B16567  25.653  10.022   8.822
  920POPC   C2B16568  25.794  10.073   8.432
  920POPC   C3B16569  25.705  10.024   8.024
  920POPC   C4B16570  25.940  10.092   7.657
  921POPC   NC316571  18.289   0.094   9.397
  921POPC   PO416572  18.633  44.486   9.421
  921POPC   GL116573  18.281  44.623   9.145
  921POPC   GL216574  17.944  44.449   9.082
  921POPC   C1A16575  18.295  44.659   8.728
  921POPC   D2A16576  18.609  44.616   8.414
  921POPC   C3A16577  18.411  44.747   8.089
  921POPC   C4A16578  18.154  44.689   7.773
  921POPC   C1B16579  17.817  44.291   8.710
  921POPC   C2B16580  18.017  44.451   8.352
  921POPC   C3B16581  18.086  44.275   8.028
  921POPC   C4B16582  17.942  44.138   7.719
  922POPC   NC316583  25.674  29.360   9.393
  922POPC   PO416584  26.378  29.361   9.462
  922POPC   GL116585  26.139  29.171   9.158
  922POPC   GL216586  25.946  28.940   9.342
  922POPC   C1A16587  25.915  29.174   8.786
  922POPC   D2A16588  26.006  29.226   8.367
  922POPC   C3A16589  26.071  28.997   8.003
  922POPC   C4A16590  26.108  29.417   7.875
  922POPC   C1B16591  25.786  28.736   8.976
  922POPC   C2B16592  25.834  28.728   8.533
  922POPC   C3B16593  25.600  28.918   8.217
  922POPC   C4B16594  25.577  28.990   7.784
  923POPC   NC316595   9.460  42.563   9.553
  923POPC   PO416596   9.843  41.988   9.654
  923POPC   GL116597   9.715  42.149   9.230
  923POPC   GL216598   9.475  42.418   9.067
  923POPC   C1A16599   9.817  42.101   8.794
  923POPC   D2A16600   9.828  42.338   8.415
  923POPC   C3A16601   9.611  42.270   8.032
  923POPC   C4A16602   9.710  42.038   7.660
  923POPC   C1B16603   9.855  42.614   8.898
  923POPC   C2B16604  10.008  42.791   8.497
  923POPC   C3B16605   9.984  42.699   8.043
  923POPC   C4B16606   9.886  42.540   7.640
  924POPC   NC316607   1.455  12.246   9.758
  924POPC   PO416608   2.001  12.015   9.680
  924POPC   GL116609   2.103  12.002   9.213
  924POPC   GL216610   1.965  12.320   9.180
  924POPC   C1A16611   2.279  12.048   8.746
  924POPC   D2A16612   2.262  12.378   8.389
  924POPC   C3A16613   2.226  12.282   7.927
  924POPC   C4A16614   2.052  12.033   7.552
  924POPC   C1B16615   1.794  12.198   8.772
  924POPC   C2B16616   1.773  12.229   8.314
  924POPC   C3B16617   1.712  12.215   7.879
  924POPC   C4B16618   1.828  12.510   7.543
  925POPC   NC316619  16.372  35.779   9.396
  925POPC   PO416620  15.758  35.925   9.557
  925POPC   GL116621  15.968  35.999   9.164
  925POPC   GL216622  15.681  36.153   9.103
  925POPC   C1A16623  15.983  36.006   8.701
  925POPC   D2A16624  15.742  35.988   8.315
  925POPC   C3A16625  15.909  36.113   7.923
  925POPC   C4A16626  16.226  36.034   7.594
  925POPC   C1B16627  15.577  36.369   8.768
  925POPC   C2B16628  15.662  36.491   8.407
  925POPC   C3B16629  15.486  36.419   8.035
  925POPC   C4B16630  15.649  36.455   7.640
  926POPC   NC316631  16.138  33.609   9.597
  926POPC   PO416632  15.700  34.102   9.529
  926POPC   GL116633  15.929  33.879   9.209
  926POPC   GL216634  16.276  33.936   9.209
  926POPC   C1A16635  15.936  33.699   8.804
  926POPC   D2A16636  15.788  33.816   8.417
  926POPC   C3A16637  15.964  33.606   8.056
  926POPC   C4A16638  15.829  33.569   7.620
  926POPC   C1B16639  16.357  34.017   8.798
  926POPC   C2B16640  16.294  33.874   8.390
  926POPC   C3B16641  16.129  34.079   8.028
  926POPC   C4B16642  16.027  34.358   7.684
  927POPC   NC316643  35.656  28.901   9.285
  927POPC   PO416644  35.315  29.413   9.726
  927POPC   GL116645  35.342  29.465   9.215
  927POPC   GL216646  35.581  29.351   9.104
  927POPC   C1A16647  35.140  29.427   8.812
  927POPC   D2A16648  35.276  29.455   8.393
  927POPC   C3A16649  35.470  29.080   8.232
  927POPC   C4A16650  35.474  28.896   7.830
  927POPC   C1B16651  35.652  29.305   8.689
  927POPC   C2B16652  35.838  29.410   8.307
  927POPC   C3B16653  35.787  29.299   7.870
  927POPC   C4B16654  35.646  29.474   7.451
  928POPC   NC316655   9.747  35.030   9.419
  928POPC   PO416656   9.673  34.445   9.706
  928POPC   GL116657   9.901  34.499   9.316
  928POPC   GL216658   9.945  34.179   9.162
  928POPC   C1A16659   9.961  34.654   8.889
  928POPC   D2A16660   9.609  34.769   8.581
  928POPC   C3A16661   9.679  34.717   8.111
  928POPC   C4A16662   9.461  34.702   7.718
  928POPC   C1B16663   9.700  34.244   8.821
  928POPC   C2B16664   9.880  34.362   8.425
  928POPC   C3B16665   9.857  34.230   7.997
  928POPC   C4B16666   9.540  34.162   7.705
  929POPC   NC316667  32.730   0.287   9.467
  929POPC   PO416668  32.073   0.321   9.542
  929POPC   GL116669  32.220   0.427   9.164
  929POPC   GL216670  32.417   0.132   9.078
  929POPC   C1A16671  31.947   0.428   8.806
  929POPC   D2A16672  31.808   0.253   8.421
  929POPC   C3A16673  31.876   0.494   8.069
  929POPC   C4A16674  32.066   0.450   7.723
  929POPC   C1B16675  32.248   0.020   8.659
  929POPC   C2B16676  32.301   0.254   8.271
  929POPC   C3B16677  32.492   0.214   7.861
  929POPC   C4B16678  32.616   0.126   7.426
  930POPC   NC316679  21.903  27.482   9.557
  930POPC   PO416680  22.545  27.474   9.539
  930POPC   GL116681  22.312  27.454   9.172
  930POPC   GL216682  22.025  27.665   9.123
  930POPC   C1A16683  22.402  27.548   8.764
  930POPC   D2A16684  22.360  27.386   8.366
  930POPC   C3A16685  22.404  27.572   7.988
  930POPC   C4A16686  22.413  27.395   7.573
  930POPC   C1B16687  21.746  27.779   8.848
  930POPC   C2B16688  21.690  27.839   8.446
  930POPC   C3B16689  21.919  27.646   8.132
  930POPC   C4B16690  21.957  27.588   7.687
  931POPC   NC316691  26.265  39.586   9.405
  931POPC   PO416692  26.258  38.922   9.494
  931POPC   GL116693  26.122  39.166   9.120
  931POPC   GL216694  25.836  39.392   9.172
  931POPC   C1A16695  26.337  39.239   8.707
  931POPC   D2A16696  26.388  38.962   8.319
  931POPC   C3A16697  26.226  39.072   7.897
  931POPC   C4A16698  26.015  39.076   7.479
  931POPC   C1B16699  25.911  39.516   8.733
  931POPC   C2B16700  26.033  39.386   8.294
  931POPC   C3B16701  25.972  39.534   7.858
  931POPC   C4B16702  26.090  39.591   7.434
  932POPC   NC316703  36.231  12.391   9.479
  932POPC   PO416704  36.199  13.096   9.502
  932POPC   GL116705  35.981  12.815   9.251
  932POPC   GL216706  36.310  12.779   9.126
  932POPC   C1A16707  35.932  12.811   8.807
  932POPC   D2A16708  36.087  12.577   8.497
  932POPC   C3A16709  35.901  12.688   8.088
  932POPC   C4A16710  35.922  12.957   7.694
  932POPC   C1B16711  36.336  13.124   8.794
  932POPC   C2B16712  36.287  13.027   8.349
  932POPC   C3B16713  36.375  12.883   7.912
  932POPC   C4B16714  36.382  13.148   7.503
  933POPC   NC316715  44.929  20.458   9.397
  933POPC   PO416716  44.521  20.914   9.335
  933POPC   GL116717  44.649  20.661   9.018
  933POPC   GL216718  44.460  20.391   9.087
  933POPC   C1A16719  44.819  20.391   8.685
  933POPC   D2A16720  44.963  20.371   8.250
  933POPC   C3A16721  44.883  20.660   7.941
  933POPC   C4A16722  44.548  20.697   7.601
  933POPC   C1B16723  44.307  20.482   8.660
  933POPC   C2B16724  44.437  20.346   8.238
  933POPC   C3B16725  44.649  20.222   7.852
  933POPC   C4B16726  44.606  20.213   7.369
  934POPC   NC316727  11.499  34.613   9.574
  934POPC   PO416728  10.849  34.753   9.563
  934POPC   GL116729  11.116  34.677   9.218
  934POPC   GL216730  11.040  34.373   9.159
  934POPC   C1A16731  11.431  34.550   8.851
  934POPC   D2A16732  11.559  34.266   8.490
  934POPC   C3A16733  11.618  34.474   8.098
  934POPC   C4A16734  11.461  34.809   7.857
  934POPC   C1B16735  10.888  34.600   8.783
  934POPC   C2B16736  11.146  34.665   8.407
  934POPC   C3B16737  11.009  34.560   8.005
  934POPC   C4B16738  11.247  34.362   7.720
  935POPC   NC316739  13.115  11.778   9.630
  935POPC   PO416740  12.835  12.367   9.843
  935POPC   GL116741  12.783  12.084   9.386
  935POPC   GL216742  13.091  12.073   9.188
  935POPC   C1A16743  12.651  12.105   8.910
  935POPC   D2A16744  12.625  12.101   8.428
  935POPC   C3A16745  12.929  12.292   8.147
  935POPC   C4A16746  12.957  12.183   7.710
  935POPC   C1B16747  13.108  12.050   8.709
  935POPC   C2B16748  13.133  11.826   8.285
  935POPC   C3B16749  13.120  11.697   7.849
  935POPC   C4B16750  13.198  11.804   7.409
  936POPC   NC316751  42.371  27.951   9.558
  936POPC   PO416752  41.977  27.447   9.632
  936POPC   GL116753  42.070  27.607   9.246
  936POPC   GL216754  41.975  27.932   9.204
  936POPC   C1A16755  42.256  27.451   8.873
  936POPC   D2A16756  42.446  27.695   8.552
  936POPC   C3A16757  42.520  27.490   8.168
  936POPC   C4A16758  42.582  27.584   7.753
  936POPC   C1B16759  42.027  27.900   8.753
  936POPC   C2B16760  41.960  27.626   8.378
  936POPC   C3B16761  42.072  27.659   7.905
  936POPC   C4B16762  42.184  27.386   7.510
  937POPC   NC316763   0.644  34.226   9.398
  937POPC   PO416764   0.081  34.548   9.368
  937POPC   GL116765   0.163  34.683   8.959
  937POPC   GL216766   0.162  34.319   8.893
  937POPC   C1A16767   0.369  34.958   8.640
  937POPC   D2A16768   0.703  34.865   8.338
  937POPC   C3A16769   0.482  34.636   8.015
  937POPC   C4A16770   0.173  34.795   7.715
  937POPC   C1B16771   0.512  34.461   8.617
  937POPC   C2B16772   0.807  34.332   8.293
  937POPC   C3B16773   0.780  34.216   7.854
  937POPC   C4B16774   0.417  34.348   7.582
  938POPC   NC316775  44.029  43.469   9.549
  938POPC   PO416776  43.555  42.975   9.515
  938POPC   GL116777  43.854  43.083   9.232
  938POPC   GL216778  43.953  42.752   9.200
  938POPC   C1A16779  44.103  43.150   8.870
  938POPC   D2A16780  44.301  43.187   8.470
  938POPC   C3A16781  44.073  43.249   8.078
  938POPC   C4A16782  44.309  43.247   7.698
  938POPC   C1B16783  43.992  42.658   8.815
  938POPC   C2B16784  43.874  42.881   8.462
  938POPC   C3B16785  43.916  42.752   8.055
  938POPC   C4B16786  43.792  42.920   7.663
  939POPC   NC316787  16.285   2.559   9.336
  939POPC   PO416788  16.125   3.240   9.498
  939POPC   GL116789  16.007   2.982   9.163
  939POPC   GL216790  16.332   3.039   9.073
  939POPC   C1A16791  15.830   2.769   8.790
  939POPC   D2A16792  15.602   2.724   8.401
  939POPC   C3A16793  15.813   2.651   7.997
  939POPC   C4A16794  15.774   2.863   7.633
  939POPC   C1B16795  16.326   2.783   8.706
  939POPC   C2B16796  16.162   2.837   8.322
  939POPC   C3B16797  16.323   2.709   7.929
  939POPC   C4B16798  16.160   2.526   7.577
  940POPC   NC316799  15.316  16.206   9.429
  940POPC   PO416800  14.872  15.725   9.613
  940POPC   GL116801  15.047  15.779   9.199
  940POPC   GL216802  14.964  15.453   9.144
  940POPC   C1A16803  15.135  16.006   8.777
  940POPC   D2A16804  15.452  15.951   8.447
  940POPC   C3A16805  15.355  15.997   8.021
  940POPC   C4A16806  15.530  15.835   7.659
  940POPC   C1B16807  14.883  15.497   8.759
  940POPC   C2B16808  15.083  15.583   8.379
  940POPC   C3B16809  14.958  15.700   7.964
  940POPC   C4B16810  14.895  16.080   7.692
  941POPC   NC316811  39.573   4.974   9.781
  941POPC   PO416812  38.922   4.957   9.448
  941POPC   GL116813  39.216   5.175   9.122
  941POPC   GL216814  39.575   5.141   9.181
  941POPC   C1A16815  39.379   5.360   8.729
  941POPC   D2A16816  39.338   5.103   8.356
  941POPC   C3A16817  39.281   5.170   7.918
  941POPC   C4A16818  39.071   4.996   7.553
  941POPC   C1B16819  39.510   4.854   8.797
  941POPC   C2B16820  39.560   4.650   8.336
  941POPC   C3B16821  39.415   4.677   7.870
  941POPC   C4B16822  39.523   4.750   7.388
  942POPC   NC316823  22.476  14.447   9.462
  942POPC   PO416824  21.896  14.159   9.305
  942POPC   GL116825  22.170  14.382   9.067
  942POPC   GL216826  22.133  14.728   9.165
  942POPC   C1A16827  22.363  14.516   8.716
  942POPC   D2A16828  22.315  14.635   8.297
  942POPC   C3A16829  22.167  14.291   8.016
  942POPC   C4A16830  22.093  14.174   7.600
  942POPC   C1B16831  21.845  14.631   8.769
  942POPC   C2B16832  21.814  14.477   8.323
  942POPC   C3B16833  21.935  14.755   7.942
  942POPC   C4B16834  22.014  14.695   7.473
  943POPC   NC316835  43.489   7.154   9.577
  943POPC   PO416836  43.965   7.636   9.588
  943POPC   GL116837  43.952   7.379   9.187
  943POPC   GL216838  43.678   7.154   9.095
  943POPC   C1A16839  44.118   7.345   8.754
  943POPC   D2A16840  43.980   7.496   8.363
  943POPC   C3A16841  44.200   7.467   8.006
  943POPC   C4A16842  43.999   7.517   7.567
  943POPC   C1B16843  43.625   7.248   8.665
  943POPC   C2B16844  43.708   7.085   8.272
  943POPC   C3B16845  43.686   7.392   7.948
  943POPC   C4B16846  43.523   7.353   7.536
  944POPC   NC316847  27.644   8.979   9.617
  944POPC   PO416848  27.078   9.134   9.528
  944POPC   GL116849  27.361   9.102   9.166
  944POPC   GL216850  27.729   9.137   9.148
  944POPC   C1A16851  27.439   8.910   8.748
  944POPC   D2A16852  27.511   8.642   8.384
  944POPC   C3A16853  27.357   8.823   7.998
  944POPC   C4A16854  27.397   8.905   7.555
  944POPC   C1B16855  27.975   9.147   8.793
  944POPC   C2B16856  27.902   8.965   8.421
  944POPC   C3B16857  27.899   8.796   8.023
  944POPC   C4B16858  27.767   9.144   7.788
  945POPC   NC316859  21.175  15.297   9.635
  945POPC   PO416860  21.658  14.844   9.379
  945POPC   GL116861  21.439  15.074   9.131
  945POPC   GL216862  21.133  15.027   9.198
  945POPC   C1A16863  21.495  15.054   8.734
  945POPC   D2A16864  21.690  14.946   8.379
  945POPC   C3A16865  21.452  15.075   8.043
  945POPC   C4A16866  21.476  15.490   7.843
  945POPC   C1B16867  21.022  15.208   8.805
  945POPC   C2B16868  21.188  15.348   8.421
  945POPC   C3B16869  21.023  15.377   8.025
  945POPC   C4B16870  21.113  15.157   7.624
  946POPC   NC316871  25.603  23.892   9.583
  946POPC   PO416872  26.263  23.991   9.665
  946POPC   GL116873  26.101  23.919   9.261
  946POPC   GL216874  25.881  23.604   9.229
  946POPC   C1A16875  25.972  24.135   8.882
  946POPC   D2A16876  25.796  23.982   8.505
  946POPC   C3A16877  25.957  23.991   8.103
  946POPC   C4A16878  25.789  24.048   7.724
  946POPC   C1B16879  25.901  23.424   8.800
  946POPC   C2B16880  25.922  23.504   8.364
  946POPC   C3B16881  25.744  23.507   7.969
  946POPC   C4B16882  25.830  23.579   7.526
  947POPC   NC316883   7.041  17.992   9.808
  947POPC   PO416884   7.505  17.525   9.750
  947POPC   GL116885   7.429  17.483   9.292
  947POPC   GL216886   7.767  17.389   9.163
  947POPC   C1A16887   7.337  17.252   8.901
  947POPC   D2A16888   7.503  17.161   8.470
  947POPC   C3A16889   7.253  17.282   8.084
  947POPC   C4A16890   7.260  17.695   7.855
  947POPC   C1B16891   7.707  17.569   8.738
  947POPC   C2B16892   7.913  17.488   8.371
  947POPC   C3B16893   7.736  17.427   8.003
  947POPC   C4B16894   7.799  17.763   7.737
  948POPC   NC316895  40.058   6.475   9.470
  948POPC   PO416896  39.613   6.963   9.396
  948POPC   GL116897  40.008   6.942   9.178
  948POPC   GL216898  39.863   6.645   9.013
  948POPC   C1A16899  40.324   6.788   8.839
  948POPC   D2A16900  40.150   6.635   8.446
  948POPC   C3A16901  40.260   6.747   7.992
  948POPC   C4A16902  40.275   6.876   7.543
  948POPC   C1B16903  40.069   6.260   8.841
  948POPC   C2B16904  40.115   6.089   8.430
  948POPC   C3B16905  39.996   6.320   8.053
  948POPC   C4B16906  40.046   6.424   7.601
  949POPC   NC316907  25.038  28.673   9.466
  949POPC   PO416908  25.534  28.197   9.516
  949POPC   GL116909  25.355  28.385   9.185
  949POPC   GL216910  24.975  28.269   9.176
  949POPC   C1A16911  25.453  28.410   8.772
  949POPC   D2A16912  25.203  28.202   8.514
  949POPC   C3A16913  25.159  28.217   8.063
  949POPC   C4A16914  25.238  28.148   7.624
  949POPC   C1B16915  24.962  28.565   8.828
  949POPC   C2B16916  25.016  28.665   8.397
  949POPC   C3B16917  24.850  28.615   7.992
  949POPC   C4B16918  24.797  28.518   7.579
  950POPC   NC316919   3.110   4.011   9.268
  950POPC   PO416920   2.480   4.251   9.504
  950POPC   GL116921   2.653   4.353   9.121
  950POPC   GL216922   2.844   4.658   9.176
  950POPC   C1A16923   2.711   4.134   8.735
  950POPC   D2A16924   3.006   3.969   8.481
  950POPC   C3A16925   2.935   4.073   8.016
  950POPC   C4A16926   2.716   4.419   7.814
  950POPC   C1B16927   3.025   4.545   8.781
  950POPC   C2B16928   3.007   4.469   8.336
  950POPC   C3B16929   3.198   4.567   7.939
  950POPC   C4B16930   3.120   4.403   7.502
  951POPC   NC316931  13.071  44.960   9.546
  951POPC   PO416932  12.466  44.671   9.560
  951POPC   GL116933  12.672  44.453   9.204
  951POPC   GL216934  13.043  44.363   9.296
  951POPC   C1A16935  12.626  44.634   8.777
  951POPC   D2A16936  12.513  44.879   8.411
  951POPC   C3A16937  12.520  44.630   8.051
  951POPC   C4A16938  12.846  44.558   7.754
  951POPC   C1B16939  13.108  44.632   8.935
  951POPC   C2B16940  13.061  44.647   8.483
  951POPC   C3B16941  13.013  44.906   8.123
  951POPC   C4B16942  13.195  44.919   7.691
  952POPC   NC316943  34.830  13.197   9.457
  952POPC   PO416944  34.421  13.802   9.420
  952POPC   GL116945  34.568  13.509   9.137
  952POPC   GL216946  34.900  13.574   9.031
  952POPC   C1A16947  34.481  13.401   8.720
  952POPC   D2A16948  34.332  13.551   8.353
  952POPC   C3A16949  34.630  13.377   8.087
  952POPC   C4A16950  34.629  13.296   7.679
  952POPC   C1B16951  34.637  13.905   8.787
  952POPC   C2B16952  34.508  14.068   8.367
  952POPC   C3B16953  34.515  13.866   7.949
  952POPC   C4B16954  34.266  13.757   7.598
  953POPC   NC316955   6.643  42.073   9.311
  953POPC   PO416956   6.288  42.611   9.438
  953POPC   GL116957   6.624  42.640   9.096
  953POPC   GL216958   6.946  42.427   9.046
  953POPC   C1A16959   6.693  42.611   8.626
  953POPC   D2A16960   6.601  42.321   8.303
  953POPC   C3A16961   6.758  42.446   7.923
  953POPC   C4A16962   6.370  42.454   7.683
  953POPC   C1B16963   6.851  42.107   8.708
  953POPC   C2B16964   6.809  41.850   8.326
  953POPC   C3B16965   6.641  41.949   7.910
  953POPC   C4B16966   6.704  42.130   7.513
  954POPC   NC316967  33.786  27.902   9.432
  954POPC   PO416968  33.912  28.418   9.565
  954POPC   GL116969  33.806  28.556   9.163
  954POPC   GL216970  33.609  28.276   9.091
  954POPC   C1A16971  33.843  28.629   8.700
  954POPC   D2A16972  33.697  28.484   8.272
  954POPC   C3A16973  33.934  28.375   7.882
  954POPC   C4A16974  33.874  28.164   7.463
  954POPC   C1B16975  33.534  28.176   8.658
  954POPC   C2B16976  33.712  27.976   8.293
  954POPC   C3B16977  33.575  28.001   7.864
  954POPC   C4B16978  33.371  28.263   7.543
  955POPC   NC316979   8.238  40.462   9.660
  955POPC   PO416980   7.812  40.001   9.267
  955POPC   GL116981   8.040  39.840   8.958
  955POPC   GL216982   8.136  40.113   8.782
  955POPC   C1A16983   7.789  39.731   8.644
  955POPC   D2A16984   7.881  40.012   8.368
  955POPC   C3A16985   8.106  39.941   8.022
  955POPC   C4A16986   8.114  40.241   7.711
  955POPC   C1B16987   8.364  39.844   8.538
  955POPC   C2B16988   8.672  39.869   8.244
  955POPC   C3B16989   8.587  40.147   7.910
  955POPC   C4B16990   8.518  40.123   7.452
  956POPC   NC316991  16.486  35.036   9.821
  956POPC   PO416992  16.783  35.513   9.400
  956POPC   GL116993  16.794  35.400   9.002
  956POPC   GL216994  16.444  35.506   8.964
  956POPC   C1A16995  16.778  35.319   8.584
  956POPC   D2A16996  16.771  35.611   8.295
  956POPC   C3A16997  16.882  35.399   7.929
  956POPC   C4A16998  16.984  35.083   7.657
  956POPC   C1B16999  16.278  35.195   8.673
  956POPC   C2B17000  16.375  35.271   8.223
  956POPC   C3B17001  16.459  35.116   7.812
  956POPC   C4B17002  16.537  35.454   7.510
  957POPC   NC317003   7.964   4.396   9.565
  957POPC   PO417004   8.558   4.000   9.460
  957POPC   GL117005   8.187   4.089   9.198
  957POPC   GL217006   8.284   4.419   9.144
  957POPC   C1A17007   7.970   4.270   8.796
  957POPC   D2A17008   8.107   4.428   8.407
  957POPC   C3A17009   8.040   4.200   8.038
  957POPC   C4A17010   7.922   4.393   7.694
  957POPC   C1B17011   8.507   4.340   8.757
  957POPC   C2B17012   8.640   4.445   8.332
  957POPC   C3B17013   8.421   4.531   7.941
  957POPC   C4B17014   8.389   4.432   7.506
  958POPC   NC317015  43.458   3.464   9.543
  958POPC   PO417016  42.798   3.584   9.445
  958POPC   GL117017  42.938   3.478   9.074
  958POPC   GL217018  43.288   3.561   9.077
  958POPC   C1A17019  42.961   3.608   8.647
  958POPC   D2A17020  42.651   3.682   8.317
  958POPC   C3A17021  42.934   3.594   8.036
  958POPC   C4A17022  43.113   3.180   7.905
  958POPC   C1B17023  43.484   3.694   8.707
  958POPC   C2B17024  43.379   3.749   8.287
  958POPC   C3B17025  43.401   3.608   7.880
  958POPC   C4B17026  43.382   3.791   7.523
  959POPC   NC317027  21.072  27.003   9.272
  959POPC   PO417028  21.610  27.125   9.599
  959POPC   GL117029  21.560  26.965   9.141
  959POPC   GL217030  21.633  26.622   9.022
  959POPC   C1A17031  21.504  26.984   8.699
  959POPC   D2A17032  21.215  26.920   8.396
  959POPC   C3A17033  21.402  27.006   8.000
  959POPC   C4A17034  21.342  27.046   7.585
  959POPC   C1B17035  21.268  26.524   8.803
  959POPC   C2B17036  21.113  26.409   8.424
  959POPC   C3B17037  21.220  26.533   8.028
  959POPC   C4B17038  21.546  26.585   7.694
  960POPC   NC317039   3.272   9.386   9.549
  960POPC   PO417040   3.215  10.090   9.625
  960POPC   GL117041   2.914   9.865   9.345
  960POPC   GL217042   3.029   9.590   9.165
  960POPC   C1A17043   2.775   9.890   8.862
  960POPC   D2A17044   2.686   9.996   8.402
  960POPC   C3A17045   3.025  10.027   8.107
  960POPC   C4A17046   3.045   9.825   7.737
  960POPC   C1B17047   3.041   9.420   8.755
  960POPC   C2B17048   2.999   9.570   8.334
  960POPC   C3B17049   2.944   9.350   7.947
  960POPC   C4B17050   2.939   9.359   7.508
  961POPC   NC317051  18.017  33.882   9.509
  961POPC   PO417052  18.496  33.562   9.101
  961POPC   GL117053  18.146  33.754   9.025
  961POPC   GL217054  18.352  34.059   9.163
  961POPC   C1A17055  17.984  33.539   8.663
  961POPC   D2A17056  18.134  33.342   8.299
  961POPC   C3A17057  18.100  33.631   7.970
  961POPC   C4A17058  18.489  33.715   7.747
  961POPC   C1B17059  18.084  34.225   8.861
  961POPC   C2B17060  18.039  34.255   8.420
  961POPC   C3B17061  18.282  34.159   8.042
  961POPC   C4B17062  18.124  34.058   7.650
  962POPC   NC317063  29.373  11.693   9.787
  962POPC   PO417064  29.492  12.306   9.587
  962POPC   GL117065  29.145  12.170   9.228
  962POPC   GL217066  29.191  11.883   8.993
  962POPC   C1A17067  28.847  12.213   8.822
  962POPC   D2A17068  28.977  11.972   8.429
  962POPC   C3A17069  28.878  12.157   8.039
  962POPC   C4A17070  28.859  11.935   7.662
  962POPC   C1B17071  29.340  12.221   8.739
  962POPC   C2B17072  29.220  12.424   8.372
  962POPC   C3B17073  29.373  12.290   7.972
  962POPC   C4B17074  29.363  12.002   7.654
  963POPC   NC317075   0.836   8.264   9.544
  963POPC   PO417076   1.483   8.174   9.414
  963POPC   GL117077   1.376   8.160   8.983
  963POPC   GL217078   1.032   8.189   9.033
  963POPC   C1A17079   1.377   8.460   8.645
  963POPC   D2A17080   1.460   8.438   8.196
  963POPC   C3A17081   1.246   8.142   7.976
  963POPC   C4A17082   0.933   8.239   7.733
  963POPC   C1B17083   1.052   8.052   8.589
  963POPC   C2B17084   0.797   8.066   8.219
  963POPC   C3B17085   0.678   7.820   7.887
  963POPC   C4B17086   0.861   7.770   7.516
  964POPC   NC317087  19.522   4.290   9.512
  964POPC   PO417088  18.892   4.624   9.554
  964POPC   GL117089  19.118   4.429   9.194
  964POPC   GL217090  19.069   4.095   9.027
  964POPC   C1A17091  19.266   4.483   8.765
  964POPC   D2A17092  19.163   4.313   8.319
  964POPC   C3A17093  19.390   4.550   7.990
  964POPC   C4A17094  19.479   4.400   7.536
  964POPC   C1B17095  18.808   4.239   8.715
  964POPC   C2B17096  18.576   4.330   8.385
  964POPC   C3B17097  18.726   4.197   8.033
  964POPC   C4B17098  19.051   4.245   7.788
  965POPC   NC317099  22.453   0.335   9.427
  965POPC   PO417100  21.895   0.232   9.314
  965POPC   GL117101  22.111   0.357   8.978
  965POPC   GL217102  22.435   0.240   8.932
  965POPC   C1A17103  22.014   0.366   8.541
  965POPC   D2A17104  22.223   0.456   8.173
  965POPC   C3A17105  22.031   0.422   7.789
  965POPC   C4A17106  22.064   0.722   7.469
  965POPC   C1B17107  22.426   0.658   8.689
  965POPC   C2B17108  22.514   0.866   8.287
  965POPC   C3B17109  22.494   0.770   7.836
  965POPC   C4B17110  22.504   0.430   7.532
  966POPC   NC317111  35.556  30.486   9.433
  966POPC   PO417112  35.412  31.126   9.434
  966POPC   GL117113  35.303  30.839   9.064
  966POPC   GL217114  35.566  30.579   8.936
  966POPC   C1A17115  35.355  30.899   8.600
  966POPC   D2A17116  35.649  30.585   8.396
  966POPC   C3A17117  35.711  30.749   7.994
  966POPC   C4A17118  35.386  30.924   7.748
  966POPC   C1B17119  35.167  30.455   8.736
  966POPC   C2B17120  35.063  30.186   8.384
  966POPC   C3B17121  35.328  30.229   8.033
  966POPC   C4B17122  35.481  30.423   7.676
  967POPC   NC317123  33.121   7.723   9.409
  967POPC   PO417124  33.112   7.069   9.463
  967POPC   GL117125  32.925   7.240   9.123
  967POPC   GL217126  32.781   6.948   8.975
  967POPC   C1A17127  32.934   7.544   8.776
  967POPC   D2A17128  32.806   7.680   8.357
  967POPC   C3A17129  33.016   7.552   7.956
  967POPC   C4A17130  33.141   7.844   7.599
  967POPC   C1B17131  33.147   7.084   8.677
  967POPC   C2B17132  33.334   7.190   8.247
  967POPC   C3B17133  33.252   7.114   7.834
  967POPC   C4B17134  32.862   7.109   7.610
  968POPC   NC317135  40.035  14.571   9.487
  968POPC   PO417136  39.542  14.206   9.370
  968POPC   GL117137  39.752  14.398   9.058
  968POPC   GL217138  40.112  14.378   9.000
  968POPC   C1A17139  39.761  14.548   8.661
  968POPC   D2A17140  39.478  14.648   8.366
  968POPC   C3A17141  39.682  14.668   7.976
  968POPC   C4A17142  39.910  14.338   7.730
  968POPC   C1B17143  40.087  14.136   8.580
  968POPC   C2B17144  40.124  14.039   8.113
  968POPC   C3B17145  40.320  14.011   7.689
  968POPC   C4B17146  40.471  14.375   7.410
  969POPC   NC317147  22.741  42.051   9.738
  969POPC   PO417148  23.126  42.592   9.612
  969POPC   GL117149  22.914  42.465   9.217
  969POPC   GL217150  23.010  42.118   9.275
  969POPC   C1A17151  22.892  42.302   8.776
  969POPC   D2A17152  22.714  42.179   8.384
  969POPC   C3A17153  22.685  42.299   7.950
  969POPC   C4A17154  22.592  42.301   7.481
  969POPC   C1B17155  23.169  41.896   8.913
  969POPC   C2B17156  23.177  41.916   8.471
  969POPC   C3B17157  23.012  41.910   8.057
  969POPC   C4B17158  23.096  42.141   7.694
  970POPC   NC317159   8.787  22.175   9.518
  970POPC   PO417160   9.354  22.344   9.496
  970POPC   GL117161   9.097  22.124   9.116
  970POPC   GL217162   8.717  22.145   9.033
  970POPC   C1A17163   9.009  21.970   8.664
  970POPC   D2A17164   9.000  22.121   8.240
  970POPC   C3A17165   9.185  21.922   7.886
  970POPC   C4A17166   9.014  21.551   7.652
  970POPC   C1B17167   8.493  22.277   8.662
  970POPC   C2B17168   8.518  22.306   8.236
  970POPC   C3B17169   8.705  22.409   7.888
  970POPC   C4B17170   8.902  22.396   7.492
  971POPC   NC317171  16.380  42.970   9.592
  971POPC   PO417172  16.986  43.312   9.452
  971POPC   GL117173  16.907  43.103   9.094
  971POPC   GL217174  16.583  42.977   9.066
  971POPC   C1A17175  16.794  43.297   8.701
  971POPC   D2A17176  16.915  43.133   8.306
  971POPC   C3A17177  16.731  43.338   7.966
  971POPC   C4A17178  16.957  43.634   7.716
  971POPC   C1B17179  16.803  42.783   8.688
  971POPC   C2B17180  16.790  42.570   8.283
  971POPC   C3B17181  16.777  42.823   7.910
  971POPC   C4B17182  16.404  42.970   7.701
  972POPC   NC317183  15.332  36.089   9.528
  972POPC   PO417184  14.787  35.928   9.198
  972POPC   GL117185  15.201  35.893   9.090
  972POPC   GL217186  15.186  36.245   9.057
  972POPC   C1A17187  15.459  35.844   8.752
  972POPC   D2A17188  15.275  36.111   8.462
  972POPC   C3A17189  15.244  35.948   8.097
  972POPC   C4A17190  15.325  36.054   7.707
  972POPC   C1B17191  14.945  36.424   8.715
  972POPC   C2B17192  15.055  36.538   8.288
  972POPC   C3B17193  14.971  36.376   7.900
  972POPC   C4B17194  15.076  36.505   7.492
  973POPC   NC317195  39.088  24.202   9.919
  973POPC   PO417196  39.385  24.798   9.728
  973POPC   GL117197  39.292  24.525   9.294
  973POPC   GL217198  39.259  24.161   9.232
  973POPC   C1A17199  39.108  24.513   8.847
  973POPC   D2A17200  39.110  24.800   8.462
  973POPC   C3A17201  39.224  24.570   8.063
  973POPC   C4A17202  38.902  24.355   7.813
  973POPC   C1B17203  39.558  24.293   8.905
  973POPC   C2B17204  39.684  24.242   8.487
  973POPC   C3B17205  39.624  23.986   8.154
  973POPC   C4B17206  39.367  24.110   7.798
  974POPC   NC317207   2.553  44.769   9.609
  974POPC   PO417208   3.073  44.398   9.288
  974POPC   GL117209   2.864  44.601   9.041
  974POPC   GL217210   2.525  44.675   9.117
  974POPC   C1A17211   2.700  44.477   8.678
  974POPC   D2A17212   2.695  44.782   8.409
  974POPC   C3A17213   2.951  44.687   8.118
  974POPC   C4A17214   2.771  44.727   7.755
  974POPC   C1B17215   2.295  44.788   8.756
  974POPC   C2B17216   2.244   0.016   8.378
  974POPC   C3B17217   2.339  44.933   7.960
  974POPC   C4B17218   2.404  44.978   7.502
  975POPC   NC317219  24.303  27.286   9.413
  975POPC   PO417220  24.896  27.700   9.412
  975POPC   GL117221  24.664  27.590   9.061
  975POPC   GL217222  24.334  27.566   8.992
  975POPC   C1A17223  24.659  27.269   8.731
  975POPC   D2A17224  24.803  27.338   8.319
  975POPC   C3A17225  24.570  27.624   8.064
  975POPC   C4A17226  24.570  27.537   7.630
  975POPC   C1B17227  24.394  27.735   8.599
  975POPC   C2B17228  24.166  27.864   8.250
  975POPC   C3B17229  24.202  27.859   7.795
  975POPC   C4B17230  24.165  27.758   7.393
  976POPC   NC317231  18.441  26.171   9.511
  976POPC   PO417232  17.985  25.704   9.477
  976POPC   GL117233  18.164  25.943   9.165
  976POPC   GL217234  18.512  25.821   9.162
  976POPC   C1A17235  18.061  26.283   8.843
  976POPC   D2A17236  18.222  26.526   8.515
  976POPC   C3A17237  18.277  26.235   8.170
  976POPC   C4A17238  18.319  26.117   7.756
  976POPC   C1B17239  18.434  25.949   8.751
  976POPC   C2B17240  18.577  25.926   8.416
  976POPC   C3B17241  18.525  25.743   8.031
  976POPC   C4B17242  18.673  25.776   7.612
  977POPC   NC317243  22.051  15.770   9.720
  977POPC   PO417244  21.606  16.067   9.376
  977POPC   GL117245  21.901  15.791   9.206
  977POPC   GL217246  22.235  15.901   9.246
  977POPC   C1A17247  21.989  15.854   8.771
  977POPC   D2A17248  22.135  15.684   8.370
  977POPC   C3A17249  21.924  15.762   7.963
  977POPC   C4A17250  22.276  15.589   7.731
  977POPC   C1B17251  22.344  16.187   8.901
  977POPC   C2B17252  22.254  16.182   8.440
  977POPC   C3B17253  22.352  16.032   8.010
  977POPC   C4B17254  22.418  16.151   7.566
  978POPC   NC317255  15.804  44.107   9.562
  978POPC   PO417256  16.175  43.478   9.602
  978POPC   GL117257  16.148  43.870   9.267
  978POPC   GL217258  15.980  44.253   9.125
  978POPC   C1A17259  16.067  43.851   8.826
  978POPC   D2A17260  15.953  44.029   8.453
  978POPC   C3A17261  15.866  43.776   8.138
  978POPC   C4A17262  16.070  43.835   7.766
  978POPC   C1B17263  15.657  44.272   8.791
  978POPC   C2B17264  15.501  44.270   8.347
  978POPC   C3B17265  15.745  44.228   7.930
  978POPC   C4B17266  15.811  44.144   7.443
  979POPC   NC317267   6.392  37.482   9.767
  979POPC   PO417268   6.780  37.959   9.933
  979POPC   GL117269   6.556  37.913   9.501
  979POPC   GL217270   6.616  37.571   9.313
  979POPC   C1A17271   6.458  37.959   9.042
  979POPC   D2A17272   6.434  37.616   8.714
  979POPC   C3A17273   6.337  37.734   8.278
  979POPC   C4A17274   6.550  37.741   7.880
  979POPC   C1B17275   6.948  37.781   9.029
  979POPC   C2B17276   7.170  37.825   8.615
  979POPC   C3B17277   6.972  37.788   8.188
  979POPC   C4B17278   7.032  37.610   7.769
  980POPC   NC317279  44.963  29.671   9.403
  980POPC   PO417280  44.443  29.835   9.805
  980POPC   GL117281  44.480  29.829   9.329
  980POPC   GL217282  44.598  30.110   9.199
  980POPC   C1A17283  44.518  29.668   8.893
  980POPC   D2A17284  44.742  29.651   8.492
  980POPC   C3A17285  44.462  29.711   8.149
  980POPC   C4A17286  44.568  29.725   7.723
  980POPC   C1B17287  44.765  30.094   8.787
  980POPC   C2B17288  44.643  30.140   8.379
  980POPC   C3B17289  44.838  30.063   8.020
  980POPC   C4B17290  44.810  30.174   7.608
  981POPC   NC317291  22.527  18.957   9.772
  981POPC   PO417292  23.017  18.845   9.574
  981POPC   GL117293  22.884  19.100   9.174
  981POPC   GL217294  23.111  19.338   8.990
  981POPC   C1A17295  22.775  19.083   8.697
  981POPC   D2A17296  22.651  18.800   8.354
  981POPC   C3A17297  22.757  18.838   7.920
  981POPC   C4A17298  22.844  19.184   7.643
  981POPC   C1B17299  23.257  19.209   8.560
  981POPC   C2B17300  23.176  18.893   8.241
  981POPC   C3B17301  23.256  18.899   7.805
  981POPC   C4B17302  23.486  18.875   7.408
  982POPC   NC317303  31.773  15.239   9.366
  982POPC   PO417304  31.148  15.127   9.602
  982POPC   GL117305  31.246  15.230   9.148
  982POPC   GL217306  31.464  15.001   9.037
  982POPC   C1A17307  31.423  15.340   8.689
  982POPC   D2A17308  31.231  15.212   8.276
  982POPC   C3A17309  31.368  15.168   7.840
  982POPC   C4A17310  31.611  15.212   7.464
  982POPC   C1B17311  31.368  14.831   8.628
  982POPC   C2B17312  31.347  14.663   8.225
  982POPC   C3B17313  31.114  14.733   7.867
  982POPC   C4B17314  31.210  14.882   7.401
  983POPC   NC317315  16.977   7.130   9.483
  983POPC   PO417316  16.492   6.791   9.770
  983POPC   GL117317  16.730   6.703   9.347
  983POPC   GL217318  16.719   6.383   9.278
  983POPC   C1A17319  16.820   6.839   8.888
  983POPC   D2A17320  16.689   6.894   8.461
  983POPC   C3A17321  16.865   6.728   8.108
  983POPC   C4A17322  16.807   6.713   7.666
  983POPC   C1B17323  16.503   6.421   8.884
  983POPC   C2B17324  16.483   6.430   8.423
  983POPC   C3B17325  16.565   6.314   7.987
  983POPC   C4B17326  16.380   6.430   7.572
  984POPC   NC317327  30.027  22.916   9.726
  984POPC   PO417328  29.456  22.989   9.485
  984POPC   GL117329  29.760  22.788   9.223
  984POPC   GL217330  30.049  22.974   9.213
  984POPC   C1A17331  29.985  22.607   8.871
  984POPC   D2A17332  30.082  22.698   8.481
  984POPC   C3A17333  29.943  22.609   8.090
  984POPC   C4A17334  29.964  22.819   7.728
  984POPC   C1B17335  29.979  23.108   8.762
  984POPC   C2B17336  30.127  23.161   8.292
  984POPC   C3B17337  30.008  23.306   7.857
  984POPC   C4B17338  29.992  23.226   7.389
  985POPC   NC317339  41.987  34.689   9.366
  985POPC   PO417340  42.537  34.839   9.621
  985POPC   GL117341  42.430  34.502   9.145
  985POPC   GL217342  42.149  34.535   8.923
  985POPC   C1A17343  42.558  34.405   8.684
  985POPC   D2A17344  42.444  34.758   8.425
  985POPC   C3A17345  42.422  34.771   7.991
  985POPC   C4A17346  42.576  34.431   7.779
  985POPC   C1B17347  42.059  34.924   8.722
  985POPC   C2B17348  41.987  34.950   8.297
  985POPC   C3B17349  42.080  35.146   7.941
  985POPC   C4B17350  42.290  34.989   7.545
  986POPC   NC317351  32.707  37.245   9.368
  986POPC   PO417352  33.107  36.796   9.753
  986POPC   GL117353  33.109  36.590   9.305
  986POPC   GL217354  33.142  36.931   9.232
  986POPC   C1A17355  33.243  36.531   8.849
  986POPC   D2A17356  32.989  36.556   8.442
  986POPC   C3A17357  32.905  36.729   8.039
  986POPC   C4A17358  32.916  36.844   7.614
  986POPC   C1B17359  32.964  36.941   8.795
  986POPC   C2B17360  33.070  37.085   8.356
  986POPC   C3B17361  32.882  37.248   7.948
  986POPC   C4B17362  33.042  37.330   7.520
  987POPC   NC317363  15.986  30.355   9.341
  987POPC   PO417364  15.681  30.944   9.517
  987POPC   GL117365  16.035  30.850   9.239
  987POPC   GL217366  15.826  30.888   8.994
  987POPC   C1A17367  16.259  30.659   8.836
  987POPC   D2A17368  16.152  30.785   8.428
  987POPC   C3A17369  16.262  30.603   8.082
  987POPC   C4A17370  15.926  30.820   7.899
  987POPC   C1B17371  15.768  30.552   8.715
  987POPC   C2B17372  15.933  30.296   8.407
  987POPC   C3B17373  15.849  30.290   7.992
  987POPC   C4B17374  15.658  30.438   7.657
  988POPC   NC317375  13.756  34.123   9.298
  988POPC   PO417376  13.753  34.811   9.488
  988POPC   GL117377  13.720  34.839   9.052
  988POPC   GL217378  13.734  34.493   8.976
  988POPC   C1A17379  13.452  34.774   8.681
  988POPC   D2A17380  13.520  34.458   8.379
  988POPC   C3A17381  13.388  34.588   7.980
  988POPC   C4A17382  13.661  34.803   7.688
  988POPC   C1B17383  14.020  34.214   8.737
  988POPC   C2B17384  13.937  34.134   8.343
  988POPC   C3B17385  13.880  34.399   8.001
  988POPC   C4B17386  14.065  34.268   7.637
  989POPC   NC317387  10.098  23.211   9.269
  989POPC   PO417388  10.744  23.546   9.409
  989POPC   GL117389  10.459  23.588   9.100
  989POPC   GL217390  10.470  23.934   9.063
  989POPC   C1A17391  10.375  23.606   8.665
  989POPC   D2A17392  10.360  23.408   8.265
  989POPC   C3A17393  10.529  23.682   7.963
  989POPC   C4A17394  10.901  23.752   7.803
  989POPC   C1B17395  10.739  23.969   8.691
  989POPC   C2B17396  10.827  24.064   8.249
  989POPC   C3B17397  10.654  24.185   7.829
  989POPC   C4B17398  10.576  23.929   7.442
  990POPC   NC317399  39.738  41.899   9.555
  990POPC   PO417400  40.195  42.373   9.342
  990POPC   GL117401  39.846  42.239   9.143
  990POPC   GL217402  39.868  41.854   9.075
  990POPC   C1A17403  39.813  42.513   8.773
  990POPC   D2A17404  40.218  42.523   8.525
  990POPC   C3A17405  40.137  42.594   8.087
  990POPC   C4A17406  39.817  42.428   7.828
  990POPC   C1B17407  40.035  42.059   8.716
  990POPC   C2B17408  39.873  42.200   8.344
  990POPC   C3B17409  39.974  41.974   8.028
  990POPC   C4B17410  39.828  41.967   7.619
  991POPC   NC317411   5.029  31.704   9.598
  991POPC   PO417412   5.444  31.332   9.304
  991POPC   GL117413   5.337  31.676   9.103
  991POPC   GL217414   4.959  31.669   9.086
  991POPC   C1A17415   5.369  31.613   8.668
  991POPC   D2A17416   5.287  31.355   8.328
  991POPC   C3A17417   5.198  31.594   7.978
  991POPC   C4A17418   5.071  31.722   7.548
  991POPC   C1B17419   4.857  31.539   8.645
  991POPC   C2B17420   4.744  31.379   8.237
  991POPC   C3B17421   4.784  31.366   7.806
  991POPC   C4B17422   4.636  31.473   7.457
  992POPC   NC317423  22.489  26.225   9.439
  992POPC   PO417424  21.880  26.162   9.614
  992POPC   GL117425  22.003  26.280   9.216
  992POPC   GL217426  22.148  25.971   9.156
  992POPC   C1A17427  22.013  26.268   8.768
  992POPC   D2A17428  22.175  26.386   8.367
  992POPC   C3A17429  21.992  26.248   7.992
  992POPC   C4A17430  22.315  26.180   7.708
  992POPC   C1B17431  22.393  25.927   8.816
  992POPC   C2B17432  22.560  25.993   8.418
  992POPC   C3B17433  22.323  25.839   8.091
  992POPC   C4B17434  22.252  25.679   7.682
  993POPC   NC317435  29.154   1.458   9.361
  993POPC   PO417436  29.232   2.059   9.599
  993POPC   GL117437  29.082   2.007   9.141
  993POPC   GL217438  29.202   1.745   8.934
  993POPC   C1A17439  28.930   2.150   8.725
  993POPC   D2A17440  29.187   1.981   8.400
  993POPC   C3A17441  29.011   2.016   8.007
  993POPC   C4A17442  29.038   2.321   7.713
  993POPC   C1B17443  28.849   1.622   8.648
  993POPC   C2B17444  28.942   1.528   8.198
  993POPC   C3B17445  29.369   1.655   8.013
  993POPC   C4B17446  29.449   1.959   7.672
  994POPC   NC317447  32.444  32.935   9.588
  994POPC   PO417448  31.948  33.330   9.217
  994POPC   GL117449  32.276  33.077   9.111
  994POPC   GL217450  32.177  32.724   9.191
  994POPC   C1A17451  32.155  32.883   8.720
  994POPC   D2A17452  31.973  32.772   8.377
  994POPC   C3A17453  32.051  33.108   8.100
  994POPC   C4A17454  32.195  33.002   7.723
  994POPC   C1B17455  32.415  32.475   8.876
  994POPC   C2B17456  32.477  32.568   8.453
  994POPC   C3B17457  32.392  32.680   8.065
  994POPC   C4B17458  32.335  32.455   7.714
  995POPC   NC317459  29.822  12.586   9.748
  995POPC   PO417460  30.238  12.906   9.321
  995POPC   GL117461  29.882  12.746   9.204
  995POPC   GL217462  30.102  12.527   9.030
  995POPC   C1A17463  29.802  12.823   8.758
  995POPC   D2A17464  30.006  12.684   8.397
  995POPC   C3A17465  29.795  12.709   8.057
  995POPC   C4A17466  29.559  12.681   7.720
  995POPC   C1B17467  30.337  12.433   8.711
  995POPC   C2B17468  30.514  12.547   8.355
  995POPC   C3B17469  30.303  12.546   7.992
  995POPC   C4B17470  30.072  12.624   7.632
  996POPC   NC317471   5.626   5.428   9.385
  996POPC   PO417472   6.161   4.982   9.610
  996POPC   GL117473   6.008   5.042   9.156
  996POPC   GL217474   5.642   5.000   9.081
  996POPC   C1A17475   5.879   5.246   8.734
  996POPC   D2A17476   5.900   5.020   8.341
  996POPC   C3A17477   5.766   5.168   7.956
  996POPC   C4A17478   5.961   5.140   7.580
  996POPC   C1B17479   5.559   4.809   8.691
  996POPC   C2B17480   5.710   4.531   8.378
  996POPC   C3B17481   5.683   4.647   7.941
  996POPC   C4B17482   5.514   4.903   7.575
  997POPC   NC317483  38.246  16.969   9.463
  997POPC   PO417484  38.859  16.601   9.563
  997POPC   GL117485  38.659  16.823   9.216
  997POPC   GL217486  38.432  16.547   9.172
  997POPC   C1A17487  38.374  16.885   8.829
  997POPC   D2A17488  38.230  16.717   8.456
  997POPC   C3A17489  38.447  16.849   8.094
  997POPC   C4A17490  38.293  17.049   7.756
  997POPC   C1B17491  38.760  16.516   8.828
  997POPC   C2B17492  38.815  16.627   8.402
  997POPC   C3B17493  38.775  16.480   7.967
  997POPC   C4B17494  38.696  16.767   7.615
  998POPC   NC317495  32.044   8.685   9.523
  998POPC   PO417496  32.696   8.878   9.482
  998POPC   GL117497  32.382   8.878   9.180
  998POPC   GL217498  32.173   9.150   9.264
  998POPC   C1A17499  32.444   8.913   8.767
  998POPC   D2A17500  32.408   9.118   8.420
  998POPC   C3A17501  32.381   8.918   8.069
  998POPC   C4A17502  32.183   8.613   7.821
  998POPC   C1B17503  32.121   9.322   8.841
  998POPC   C2B17504  32.029   9.460   8.383
  998POPC   C3B17505  32.087   9.348   7.906
  998POPC   C4B17506  31.957   9.347   7.441
  999POPC   NC317507  14.927  14.333   9.659
  999POPC   PO417508  14.304  14.497   9.461
  999POPC   GL117509  14.339  14.368   9.084
  999POPC   GL217510  14.689  14.290   9.117
  999POPC   C1A17511  14.441  14.540   8.698
  999POPC   D2A17512  14.289  14.382   8.312
  999POPC   C3A17513  14.244  14.611   7.938
  999POPC   C4A17514  14.362  14.457   7.546
  999POPC   C1B17515  14.902  14.311   8.716
  999POPC   C2B17516  14.867  14.565   8.348
  999POPC   C3B17517  14.733  14.537   7.932
  999POPC   C4B17518  14.866  14.407   7.539
 1000POPC   NC317519  18.621  36.351   9.522
 1000POPC   PO417520  18.155  35.762   9.491
 1000POPC   GL117521  18.348  35.824   9.091
 1000POPC   GL217522  18.486  36.170   9.048
 1000POPC   C1A17523  18.122  35.809   8.704
 1000POPC   D2A17524  17.959  35.629   8.313
 1000POPC   C3A17525  18.236  35.780   8.012
 1000POPC   C4A17526  18.215  36.157   7.806
 1000POPC   C1B17527  18.466  36.405   8.664
 1000POPC   C2B17528  18.491  36.413   8.195
 1000POPC   C3B17529  18.753  36.374   7.820
 1000POPC   C4B17530  18.652  35.932   7.687
 1001POPC   NC317531  33.707  19.313   9.937
 1001POPC   PO417532  34.277  19.314   9.543
 1001POPC   GL117533  34.029  19.162   9.239
 1001POPC   GL217534  33.724  19.281   9.264
 1001POPC   C1A17535  34.005  18.997   8.834
 1001POPC   D2A17536  34.176  18.856   8.467
 1001POPC   C3A17537  33.855  18.892   8.173
 1001POPC   C4A17538  33.947  19.072   7.801
 1001POPC   C1B17539  33.534  19.234   8.864
 1001POPC   C2B17540  33.507  19.214   8.419
 1001POPC   C3B17541  33.452  19.151   7.958
 1001POPC   C4B17542  33.468  18.759   7.765
 1002POPC   NC317543  39.454  37.131   9.494
 1002POPC   PO417544  38.968  37.614   9.724
 1002POPC   GL117545  39.354  37.568   9.290
 1002POPC   GL217546  39.285  37.291   9.027
 1002POPC   C1A17547  39.364  37.762   8.852
 1002POPC   D2A17548  39.368  37.518   8.469
 1002POPC   C3A17549  39.252  37.772   8.111
 1002POPC   C4A17550  39.130  37.903   7.693
 1002POPC   C1B17551  39.581  37.077   8.759
 1002POPC   C2B17552  39.926  37.184   8.492
 1002POPC   C3B17553  39.766  37.442   8.148
 1002POPC   C4B17554  39.588  37.618   7.751
 1003POPC   NC317555  26.568  32.026   9.702
 1003POPC   PO417556  27.035  32.365   9.476
 1003POPC   GL117557  26.675  32.323   9.196
 1003POPC   GL217558  26.604  31.943   9.188
 1003POPC   C1A17559  26.759  32.490   8.766
 1003POPC   D2A17560  27.049  32.347   8.423
 1003POPC   C3A17561  26.959  32.427   7.999
 1003POPC   C4A17562  26.666  32.508   7.668
 1003POPC   C1B17563  26.934  32.005   8.866
 1003POPC   C2B17564  27.222  31.884   8.509
 1003POPC   C3B17565  27.133  31.944   8.054
 1003POPC   C4B17566  26.912  32.064   7.660
 1004POPC   NC317567  28.737  19.103   9.499
 1004POPC   PO417568  29.274  18.760   9.543
 1004POPC   GL117569  29.325  18.938   9.130
 1004POPC   GL217570  28.986  18.955   8.986
 1004POPC   C1A17571  29.444  19.123   8.699
 1004POPC   D2A17572  29.505  19.257   8.229
 1004POPC   C3A17573  29.186  19.191   7.896
 1004POPC   C4A17574  29.110  19.126   7.463
 1004POPC   C1B17575  28.929  18.681   8.596
 1004POPC   C2B17576  28.847  18.637   8.138
 1004POPC   C3B17577  28.755  18.858   7.755
 1004POPC   C4B17578  28.690  18.867   7.296
 1005POPC   NC317579  41.325  44.203   9.512
 1005POPC   PO417580  41.433  44.878   9.525
 1005POPC   GL117581  41.647  44.774   9.157
 1005POPC   GL217582  41.697  44.437   9.181
 1005POPC   C1A17583  41.612  44.819   8.734
 1005POPC   D2A17584  41.404  44.949   8.352
 1005POPC   C3A17585  41.544  44.822   7.954
 1005POPC   C4A17586  41.886  44.831   7.658
 1005POPC   C1B17587  41.539  44.317   8.781
 1005POPC   C2B17588  41.670  44.473   8.357
 1005POPC   C3B17589  41.768  44.353   7.922
 1005POPC   C4B17590  41.524  44.473   7.542
 1006POPC   NC317591  27.117   4.591   9.563
 1006POPC   PO417592  27.732   4.909   9.608
 1006POPC   GL117593  27.580   4.911   9.195
 1006POPC   GL217594  27.249   4.898   9.159
 1006POPC   C1A17595  27.667   4.976   8.757
 1006POPC   D2A17596  27.604   4.861   8.311
 1006POPC   C3A17597  27.871   5.031   7.973
 1006POPC   C4A17598  27.824   5.217   7.572
 1006POPC   C1B17599  27.291   5.291   8.888
 1006POPC   C2B17600  27.496   5.396   8.506
 1006POPC   C3B17601  27.586   5.441   8.089
 1006POPC   C4B17602  27.354   5.303   7.744
 1007POPC   NC317603  37.683  19.383   9.655
 1007POPC   PO417604  37.512  19.999   9.453
 1007POPC   GL117605  37.719  19.810   9.158
 1007POPC   GL217606  37.649  19.468   9.156
 1007POPC   C1A17607  37.641  19.856   8.745
 1007POPC   D2A17608  37.917  19.874   8.423
 1007POPC   C3A17609  37.681  19.935   8.080
 1007POPC   C4A17610  37.539  20.004   7.670
 1007POPC   C1B17611  37.960  19.439   8.823
 1007POPC   C2B17612  38.142  19.337   8.420
 1007POPC   C3B17613  38.083  19.560   8.037
 1007POPC   C4B17614  37.751  19.545   7.748
 1008POPC   NC317615  39.168  18.780   9.566
 1008POPC   PO417616  38.982  18.166   9.518
 1008POPC   GL117617  39.221  18.259   9.127
 1008POPC   GL217618  39.616  18.152   9.054
 1008POPC   C1A17619  39.074  18.277   8.690
 1008POPC   D2A17620  38.825  18.061   8.367
 1008POPC   C3A17621  38.801  18.209   7.924
 1008POPC   C4A17622  39.019  18.383   7.562
 1008POPC   C1B17623  39.514  18.543   8.840
 1008POPC   C2B17624  39.360  18.601   8.427
 1008POPC   C3B17625  39.265  18.425   8.041
 1008POPC   C4B17626  39.473  18.570   7.702
 1009POPC   NC317627  39.824  36.605   9.553
 1009POPC   PO417628  39.130  36.770   9.444
 1009POPC   GL117629  39.319  36.749   9.084
 1009POPC   GL217630  39.484  36.430   9.147
 1009POPC   C1A17631  39.101  36.846   8.708
 1009POPC   D2A17632  39.221  37.027   8.360
 1009POPC   C3A17633  38.995  36.950   7.975
 1009POPC   C4A17634  39.304  37.186   7.767
 1009POPC   C1B17635  39.247  36.361   8.734
 1009POPC   C2B17636  39.220  36.514   8.294
 1009POPC   C3B17637  39.468  36.748   8.019
 1009POPC   C4B17638  39.670  36.752   7.653
 1010POPC   NC317639  35.379  15.406   9.525
 1010POPC   PO417640  35.345  16.064   9.628
 1010POPC   GL117641  35.260  15.847   9.250
 1010POPC   GL217642  35.516  16.047   9.123
 1010POPC   C1A17643  35.099  15.873   8.828
 1010POPC   D2A17644  35.239  16.062   8.444
 1010POPC   C3A17645  35.190  15.830   8.069
 1010POPC   C4A17646  35.048  15.934   7.662
 1010POPC   C1B17647  35.629  15.886   8.738
 1010POPC   C2B17648  35.643  15.718   8.344
 1010POPC   C3B17649  35.685  15.867   7.948
 1010POPC   C4B17650  35.521  15.829   7.553
 1011POPC   NC317651  11.117  13.150   9.373
 1011POPC   PO417652  11.528  12.740   9.707
 1011POPC   GL117653  11.490  12.757   9.252
 1011POPC   GL217654  11.198  12.704   9.151
 1011POPC   C1A17655  11.489  12.871   8.782
 1011POPC   D2A17656  11.558  13.109   8.391
 1011POPC   C3A17657  11.409  12.897   8.051
 1011POPC   C4A17658  11.545  12.672   7.695
 1011POPC   C1B17659  10.957  12.828   8.784
 1011POPC   C2B17660  10.880  12.679   8.393
 1011POPC   C3B17661  11.010  12.553   8.003
 1011POPC   C4B17662  11.052  12.827   7.686
 1012POPC   NC317663  31.090   8.454   9.331
 1012POPC   PO417664  30.799   7.858   9.389
 1012POPC   GL117665  30.708   8.179   9.103
 1012POPC   GL217666  30.411   8.333   9.200
 1012POPC   C1A17667  30.834   8.338   8.705
 1012POPC   D2A17668  30.608   8.369   8.330
 1012POPC   C3A17669  30.771   8.226   7.950
 1012POPC   C4A17670  30.535   7.937   7.753
 1012POPC   C1B17671  30.327   8.495   8.768
 1012POPC   C2B17672  30.206   8.667   8.351
 1012POPC   C3B17673  30.334   8.512   7.919
 1012POPC   C4B17674  30.468   8.370   7.463
 1013POPC   NC317675  14.854  29.968   9.514
 1013POPC   PO417676  15.572  30.094   9.434
 1013POPC   GL117677  15.264  30.030   9.137
 1013POPC   GL217678  15.025  30.276   9.166
 1013POPC   C1A17679  15.205  29.841   8.741
 1013POPC   D2A17680  15.177  30.010   8.340
 1013POPC   C3A17681  15.260  29.756   8.009
 1013POPC   C4A17682  15.149  29.700   7.583
 1013POPC   C1B17683  14.744  30.053   8.873
 1013POPC   C2B17684  14.728  29.847   8.473
 1013POPC   C3B17685  14.717  30.066   8.070
 1013POPC   C4B17686  14.732  30.004   7.632
 1014POPC   NC317687   8.389  35.025   9.843
 1014POPC   PO417688   8.013  34.502   9.561
 1014POPC   GL117689   8.141  34.293   9.215
 1014POPC   GL217690   7.797  34.164   9.135
 1014POPC   C1A17691   8.403  34.437   8.858
 1014POPC   D2A17692   8.271  34.666   8.523
 1014POPC   C3A17693   8.418  34.554   8.139
 1014POPC   C4A17694   8.575  34.520   7.711
 1014POPC   C1B17695   7.877  34.405   8.778
 1014POPC   C2B17696   7.850  34.415   8.331
 1014POPC   C3B17697   7.942  34.785   8.121
 1014POPC   C4B17698   8.089  34.623   7.754
 1015POPC   NC317699  32.512  42.458   9.661
 1015POPC   PO417700  31.994  42.097   9.467
 1015POPC   GL117701  32.112  42.365   9.125
 1015POPC   GL217702  32.452  42.317   9.174
 1015POPC   C1A17703  32.001  42.389   8.659
 1015POPC   D2A17704  32.129  42.085   8.307
 1015POPC   C3A17705  32.060  42.146   7.874
 1015POPC   C4A17706  31.882  42.551   7.877
 1015POPC   C1B17707  32.467  42.530   8.782
 1015POPC   C2B17708  32.538  42.395   8.356
 1015POPC   C3B17709  32.416  42.494   7.924
 1015POPC   C4B17710  32.507  42.214   7.556
 1016POPC   NC317711  28.816   9.597   9.480
 1016POPC   PO417712  28.071   9.295   9.499
 1016POPC   GL117713  28.138   9.516   9.133
 1016POPC   GL217714  28.387   9.782   9.181
 1016POPC   C1A17715  27.953   9.679   8.786
 1016POPC   D2A17716  27.894   9.519   8.390
 1016POPC   C3A17717  28.026   9.788   8.077
 1016POPC   C4A17718  28.346   9.777   7.800
 1016POPC   C1B17719  28.442   9.815   8.726
 1016POPC   C2B17720  28.522   9.929   8.279
 1016POPC   C3B17721  28.657  10.163   7.889
 1016POPC   C4B17722  28.610  10.257   7.404
 1017POPC   NC317723  21.699   1.773   9.646
 1017POPC   PO417724  21.125   1.851   9.782
 1017POPC   GL117725  21.294   1.687   9.347
 1017POPC   GL217726  21.365   1.997   9.167
 1017POPC   C1A17727  21.348   1.617   8.845
 1017POPC   D2A17728  21.240   1.820   8.440
 1017POPC   C3A17729  21.388   1.658   8.043
 1017POPC   C4A17730  21.332   1.732   7.605
 1017POPC   C1B17731  21.602   2.054   8.746
 1017POPC   C2B17732  21.722   2.003   8.285
 1017POPC   C3B17733  21.665   2.058   7.818
 1017POPC   C4B17734  21.607   2.126   7.354
 1018POPC   NC317735   6.239  38.806   9.504
 1018POPC   PO417736   5.867  39.465   9.531
 1018POPC   GL117737   5.630  39.392   9.180
 1018POPC   GL217738   5.632  39.027   9.111
 1018POPC   C1A17739   5.772  39.387   8.761
 1018POPC   D2A17740   5.935  39.184   8.419
 1018POPC   C3A17741   5.781  39.476   8.157
 1018POPC   C4A17742   5.682  39.458   7.742
 1018POPC   C1B17743   6.034  38.944   8.876
 1018POPC   C2B17744   6.122  38.699   8.500
 1018POPC   C3B17745   6.106  38.825   8.082
 1018POPC   C4B17746   5.740  39.003   7.944
 1019POPC   NC317747  23.850  11.158   9.441
 1019POPC   PO417748  23.706  11.757   9.344
 1019POPC   GL117749  23.508  11.418   9.127
 1019POPC   GL217750  23.858  11.369   8.984
 1019POPC   C1A17751  23.452  11.248   8.707
 1019POPC   D2A17752  23.783  11.403   8.437
 1019POPC   C3A17753  23.646  11.418   8.031
 1019POPC   C4A17754  23.398  11.121   7.860
 1019POPC   C1B17755  23.885  10.978   8.732
 1019POPC   C2B17756  23.627  10.903   8.347
 1019POPC   C3B17757  23.856  10.892   7.965
 1019POPC   C4B17758  23.965  11.199   7.680
 1020POPC   NC317759  44.700  41.288   9.709
 1020POPC   PO417760  44.326  40.830   9.619
 1020POPC   GL117761  44.573  40.902   9.255
 1020POPC   GL217762  44.516  41.257   9.224
 1020POPC   C1A17763  44.718  40.719   8.842
 1020POPC   D2A17764  44.788  40.488   8.459
 1020POPC   C3A17765  44.574  40.612   8.120
 1020POPC   C4A17766  44.588  40.593   7.712
 1020POPC   C1B17767  44.458  41.187   8.791
 1020POPC   C2B17768  44.554  41.062   8.362
 1020POPC   C3B17769  44.364  41.047   7.936
 1020POPC   C4B17770  44.533  41.061   7.507
 1021POPC   NC317771  39.755   3.374   9.475
 1021POPC   PO417772  39.993   3.856   9.581
 1021POPC   GL117773  40.072   3.909   9.153
 1021POPC   GL217774  39.910   3.618   9.030
 1021POPC   C1A17775  40.108   3.998   8.687
 1021POPC   D2A17776  40.040   3.938   8.210
 1021POPC   C3A17777  40.209   3.587   7.919
 1021POPC   C4A17778  40.335   3.632   7.474
 1021POPC   C1B17779  39.748   3.639   8.600
 1021POPC   C2B17780  39.752   3.502   8.163
 1021POPC   C3B17781  39.735   3.347   7.739
 1021POPC   C4B17782  39.872   3.393   7.306
 1022POPC   NC317783  41.398  35.339   9.437
 1022POPC   PO417784  41.950  35.490   9.572
 1022POPC   GL117785  41.803  35.419   9.146
 1022POPC   GL217786  41.510  35.637   9.033
 1022POPC   C1A17787  41.691  35.277   8.728
 1022POPC   D2A17788  41.443  35.515   8.441
 1022POPC   C3A17789  41.572  35.403   8.023
 1022POPC   C4A17790  41.778  35.303   7.584
 1022POPC   C1B17791  41.193  35.298   8.836
 1022POPC   C2B17792  41.036  35.145   8.450
 1022POPC   C3B17793  41.142  35.049   8.054
 1022POPC   C4B17794  41.270  35.249   7.674
 1023POPC   NC317795  39.223  16.303   9.487
 1023POPC   PO417796  39.115  15.684   9.543
 1023POPC   GL117797  39.418  15.861   9.213
 1023POPC   GL217798  39.638  16.154   9.166
 1023POPC   C1A17799  39.305  15.997   8.788
 1023POPC   D2A17800  39.190  16.268   8.434
 1023POPC   C3A17801  39.117  16.037   8.030
 1023POPC   C4A17802  39.284  15.677   7.766
 1023POPC   C1B17803  39.659  16.420   8.794
 1023POPC   C2B17804  39.649  16.601   8.384
 1023POPC   C3B17805  39.565  16.277   8.068
 1023POPC   C4B17806  39.440  16.155   7.652
 1024POPC   NC317807  29.663   8.200   9.390
 1024POPC   PO417808  29.086   8.098   9.598
 1024POPC   GL117809  29.123   8.198   9.187
 1024POPC   GL217810  28.904   7.935   9.131
 1024POPC   C1A17811  29.326   8.005   8.828
 1024POPC   D2A17812  29.455   8.101   8.425
 1024POPC   C3A17813  29.237   8.200   8.066
 1024POPC   C4A17814  29.318   8.050   7.659
 1024POPC   C1B17815  28.850   8.203   8.760
 1024POPC   C2B17816  28.943   7.954   8.415
 1024POPC   C3B17817  28.723   8.024   8.063
 1024POPC   C4B17818  28.847   8.289   7.757
 1025POPC   NC317819  11.955  42.784   9.521
 1025POPC   PO417820  12.261  43.450   9.499
 1025POPC   GL117821  12.350  43.371   9.105
 1025POPC   GL217822  12.211  43.040   9.115
 1025POPC   C1A17823  12.159  43.408   8.718
 1025POPC   D2A17824  11.976  43.257   8.346
 1025POPC   C3A17825  12.235  43.040   8.054
 1025POPC   C4A17826  12.031  43.228   7.709
 1025POPC   C1B17827  11.863  42.928   8.827
 1025POPC   C2B17828  11.805  42.752   8.412
 1025POPC   C3B17829  11.738  42.910   7.999
 1025POPC   C4B17830  11.986  42.728   7.679
 1026POPC   NC317831   8.410  42.198   9.805
 1026POPC   PO417832   9.010  42.288   9.472
 1026POPC   GL117833   8.970  42.267   9.060
 1026POPC   GL217834   8.631  42.198   9.094
 1026POPC   C1A17835   9.036  42.593   8.732
 1026POPC   D2A17836   9.007  42.781   8.304
 1026POPC   C3A17837   9.101  42.419   8.041
 1026POPC   C4A17838   9.217  42.039   7.816
 1026POPC   C1B17839   8.601  42.321   8.713
 1026POPC   C2B17840   8.575  42.518   8.361
 1026POPC   C3B17841   8.594  42.356   7.974
 1026POPC   C4B17842   8.480  41.961   7.823
 1027POPC   NC317843  35.808  43.518   9.660
 1027POPC   PO417844  35.248  43.728   9.480
 1027POPC   GL117845  35.410  43.646   9.094
 1027POPC   GL217846  35.457  44.002   9.012
 1027POPC   C1A17847  35.260  43.553   8.690
 1027POPC   D2A17848  35.089  43.812   8.368
 1027POPC   C3A17849  35.166  43.712   7.936
 1027POPC   C4A17850  35.311  43.814   7.508
 1027POPC   C1B17851  35.569  43.945   8.582
 1027POPC   C2B17852  35.576  43.640   8.250
 1027POPC   C3B17853  35.687  43.628   7.825
 1027POPC   C4B17854  36.109  43.656   7.650
 1028POPC   NC317855  44.068  16.902   9.542
 1028POPC   PO417856  43.630  16.430   9.362
 1028POPC   GL117857  43.984  16.589   9.135
 1028POPC   GL217858  43.829  16.880   9.037
 1028POPC   C1A17859  44.161  16.682   8.714
 1028POPC   D2A17860  44.126  16.858   8.281
 1028POPC   C3A17861  44.147  16.549   7.952
 1028POPC   C4A17862  43.944  16.470   7.543
 1028POPC   C1B17863  43.660  16.542   8.710
 1028POPC   C2B17864  43.684  16.368   8.248
 1028POPC   C3B17865  43.518  16.369   7.805
 1028POPC   C4B17866  43.458  16.484   7.337
 1029POPC   NC317867  35.302  19.643   9.537
 1029POPC   PO417868  35.265  20.246   9.332
 1029POPC   GL117869  35.433  19.912   9.107
 1029POPC   GL217870  35.253  19.613   9.027
 1029POPC   C1A17871  35.511  19.969   8.699
 1029POPC   D2A17872  35.313  19.826   8.345
 1029POPC   C3A17873  35.291  20.098   8.060
 1029POPC   C4A17874  35.352  20.059   7.655
 1029POPC   C1B17875  34.969  19.515   8.702
 1029POPC   C2B17876  34.858  19.595   8.291
 1029POPC   C3B17877  35.078  19.610   7.936
 1029POPC   C4B17878  35.172  19.227   7.748
 1030POPC   NC317879  13.439  24.780   9.337
 1030POPC   PO417880  13.755  25.186   9.781
 1030POPC   GL117881  13.669  25.230   9.295
 1030POPC   GL217882  14.003  25.155   9.152
 1030POPC   C1A17883  13.586  25.171   8.798
 1030POPC   D2A17884  13.779  25.132   8.336
 1030POPC   C3A17885  13.554  25.195   7.895
 1030POPC   C4A17886  13.358  24.968   7.558
 1030POPC   C1B17887  14.076  25.356   8.757
 1030POPC   C2B17888  14.108  25.547   8.338
 1030POPC   C3B17889  13.992  25.479   7.903
 1030POPC   C4B17890  13.947  25.437   7.430
 1031POPC   NC317891  42.158   5.143   9.554
 1031POPC   PO417892  42.760   5.258   9.627
 1031POPC   GL117893  42.543   5.129   9.213
 1031POPC   GL217894  42.286   4.829   9.182
 1031POPC   C1A17895  42.375   5.362   8.823
 1031POPC   D2A17896  42.179   5.386   8.385
 1031POPC   C3A17897  42.472   5.410   8.067
 1031POPC   C4A17898  42.443   5.255   7.680
 1031POPC   C1B17899  42.468   4.853   8.775
 1031POPC   C2B17900  42.410   4.909   8.335
 1031POPC   C3B17901  42.611   4.860   7.948
 1031POPC   C4B17902  42.520   4.526   7.657
 1032POPC   NC317903   0.426  43.490   9.465
 1032POPC   PO417904   0.760  44.067   9.405
 1032POPC   GL117905   0.586  43.849   9.095
 1032POPC   GL217906   0.223  43.861   9.171
 1032POPC   C1A17907   0.422  44.067   8.745
 1032POPC   D2A17908   0.238  43.943   8.405
 1032POPC   C3A17909   0.284  44.172   8.045
 1032POPC   C4A17910   0.479  44.005   7.744
 1032POPC   C1B17911   0.182  43.597   8.815
 1032POPC   C2B17912  44.994  43.500   8.426
 1032POPC   C3B17913   0.127  43.610   8.031
 1032POPC   C4B17914   0.077  43.726   7.622
 1033POPC   NC317915   5.903  18.388   9.808
 1033POPC   PO417916   5.784  17.882   9.414
 1033POPC   GL117917   5.913  18.221   9.126
 1033POPC   GL217918   5.852  18.613   9.121
 1033POPC   C1A17919   5.985  18.228   8.686
 1033POPC   D2A17920   5.709  18.110   8.347
 1033POPC   C3A17921   5.947  18.163   7.967
 1033POPC   C4A17922   6.013  18.584   7.781
 1033POPC   C1B17923   5.687  18.647   8.678
 1033POPC   C2B17924   5.705  18.603   8.211
 1033POPC   C3B17925   5.505  18.366   7.873
 1033POPC   C4B17926   5.582  18.456   7.443
 1034POPC   NC317927  17.378   3.464   9.535
 1034POPC   PO417928  17.948   3.183   9.240
 1034POPC   GL117929  17.627   3.347   9.082
 1034POPC   GL217930  17.665   3.665   9.160
 1034POPC   C1A17931  17.564   3.391   8.654
 1034POPC   D2A17932  17.498   3.624   8.301
 1034POPC   C3A17933  17.531   3.334   7.972
 1034POPC   C4A17934  17.595   3.412   7.507
 1034POPC   C1B17935  17.481   3.873   8.791
 1034POPC   C2B17936  17.577   4.128   8.450
 1034POPC   C3B17937  17.785   4.016   8.074
 1034POPC   C4B17938  17.499   3.805   7.788
 1035POPC   NC317939  18.876  37.213   9.959
 1035POPC   PO417940  19.050  36.645   9.566
 1035POPC   GL117941  19.219  36.927   9.184
 1035POPC   GL217942  18.918  36.964   8.987
 1035POPC   C1A17943  19.317  37.066   8.724
 1035POPC   D2A17944  19.148  36.922   8.351
 1035POPC   C3A17945  19.340  37.075   7.965
 1035POPC   C4A17946  19.385  36.895   7.572
 1035POPC   C1B17947  18.703  36.866   8.663
 1035POPC   C2B17948  18.683  37.108   8.318
 1035POPC   C3B17949  18.836  36.925   7.931
 1035POPC   C4B17950  18.583  37.033   7.626
 1036POPC   NC317951  12.595  20.201   9.434
 1036POPC   PO417952  12.764  20.929   9.490
 1036POPC   GL117953  12.920  20.617   9.215
 1036POPC   GL217954  12.578  20.591   9.094
 1036POPC   C1A17955  13.158  20.612   8.819
 1036POPC   D2A17956  13.112  20.863   8.435
 1036POPC   C3A17957  13.232  20.655   8.048
 1036POPC   C4A17958  13.100  20.763   7.624
 1036POPC   C1B17959  12.671  20.265   8.796
 1036POPC   C2B17960  12.915  20.238   8.440
 1036POPC   C3B17961  12.815  20.330   8.023
 1036POPC   C4B17962  12.658  20.543   7.669
 1037POPC   NC317963  20.854  28.751   9.314
 1037POPC   PO417964  20.434  29.208   9.666
 1037POPC   GL117965  20.423  28.994   9.228
 1037POPC   GL217966  20.155  29.108   9.063
 1037POPC   C1A17967  20.631  29.015   8.776
 1037POPC   D2A17968  20.885  29.222   8.444
 1037POPC   C3A17969  20.829  29.052   8.035
 1037POPC   C4A17970  20.859  29.150   7.580
 1037POPC   C1B17971  20.251  29.330   8.680
 1037POPC   C2B17972  20.405  29.327   8.251
 1037POPC   C3B17973  20.611  29.490   7.883
 1037POPC   C4B17974  20.489  29.456   7.409
 1038POPC   NC317975  13.129  17.201   9.794
 1038POPC   PO417976  12.773  17.711   9.644
 1038POPC   GL117977  12.757  17.756   9.188
 1038POPC   GL217978  12.667  17.417   9.185
 1038POPC   C1A17979  12.871  17.864   8.747
 1038POPC   D2A17980  13.019  17.644   8.371
 1038POPC   C3A17981  12.849  17.795   8.036
 1038POPC   C4A17982  12.756  17.812   7.645
 1038POPC   C1B17983  12.736  17.370   8.770
 1038POPC   C2B17984  13.069  17.177   8.567
 1038POPC   C3B17985  13.067  17.122   8.148
 1038POPC   C4B17986  13.033  17.364   7.760
 1039POPC   NC317987   7.575  13.963   9.246
 1039POPC   PO417988   7.756  13.285   9.459
 1039POPC   GL117989   7.607  13.469   9.095
 1039POPC   GL217990   7.248  13.567   9.153
 1039POPC   C1A17991   7.631  13.652   8.683
 1039POPC   D2A17992   7.469  13.822   8.312
 1039POPC   C3A17993   7.586  13.530   8.028
 1039POPC   C4A17994   7.704  13.441   7.626
 1039POPC   C1B17995   7.150  13.761   8.749
 1039POPC   C2B17996   7.001  14.078   8.481
 1039POPC   C3B17997   6.988  13.932   8.063
 1039POPC   C4B17998   7.189  13.663   7.734
 1040POPC   NC317999  34.736  14.192   9.434
 1040POPC   PO418000  34.217  14.696   9.478
 1040POPC   GL118001  34.450  14.697   9.086
 1040POPC   GL218002  34.829  14.654   9.111
 1040POPC   C1A18003  34.497  14.499   8.680
 1040POPC   D2A18004  34.722  14.610   8.296
 1040POPC   C3A18005  34.629  14.545   7.844
 1040POPC   C4A18006  34.571  14.187   7.548
 1040POPC   C1B18007  34.979  14.311   8.817
 1040POPC   C2B18008  35.020  14.024   8.463
 1040POPC   C3B18009  34.919  14.178   8.068
 1040POPC   C4B18010  35.056  14.137   7.679
 1041POPC   NC318011  16.977  35.928   9.478
 1041POPC   PO418012  16.391  36.294   9.378
 1041POPC   GL118013  16.497  36.065   8.993
 1041POPC   GL218014  16.842  35.919   8.975
 1041POPC   C1A18015  16.486  35.982   8.557
 1041POPC   D2A18016  16.274  35.842   8.184
 1041POPC   C3A18017  16.565  35.817   7.890
 1041POPC   C4A18018  16.764  36.213   7.889
 1041POPC   C1B18019  16.961  36.360   8.798
 1041POPC   C2B18020  17.066  36.579   8.373
 1041POPC   C3B18021  17.121  36.595   7.908
 1041POPC   C4B18022  17.030  36.373   7.499
 1042POPC   NC318023  29.509  40.335   9.289
 1042POPC   PO418024  28.993  40.051   9.647
 1042POPC   GL118025  28.861  39.962   9.210
 1042POPC   GL218026  28.916  40.267   9.016
 1042POPC   C1A18027  28.737  39.844   8.792
 1042POPC   D2A18028  28.858  40.115   8.472
 1042POPC   C3A18029  29.033  40.079   8.093
 1042POPC   C4A18030  28.897  40.017   7.686
 1042POPC   C1B18031  29.273  40.067   8.756
 1042POPC   C2B18032  29.623  40.308   8.532
 1042POPC   C3B18033  29.634  40.393   8.092
 1042POPC   C4B18034  29.362  40.222   7.730
 1043POPC   NC318035  20.965  29.721   9.414
 1043POPC   PO418036  21.558  29.795   9.567
 1043POPC   GL118037  21.410  29.703   9.142
 1043POPC   GL218038  21.172  29.992   9.047
 1043POPC   C1A18039  21.279  29.567   8.721
 1043POPC   D2A18040  21.317  29.810   8.331
 1043POPC   C3A18041  21.434  29.676   7.915
 1043POPC   C4A18042  21.274  29.840   7.548
 1043POPC   C1B18043  21.522  30.037   8.750
 1043POPC   C2B18044  21.479  30.311   8.378
 1043POPC   C3B18045  21.375  30.189   7.954
 1043POPC   C4B18046  21.746  30.088   7.692
 1044POPC   NC318047  29.817   3.883   9.525
 1044POPC   PO418048  30.147   3.185   9.499
 1044POPC   GL118049  29.976   3.427   9.170
 1044POPC   GL218050  30.111   3.777   9.090
 1044POPC   C1A18051  29.921   3.267   8.750
 1044POPC   D2A18052  29.784   3.448   8.373
 1044POPC   C3A18053  29.664   3.248   8.003
 1044POPC   C4A18054  29.927   3.384   7.713
 1044POPC   C1B18055  29.757   3.770   8.792
 1044POPC   C2B18056  29.671   3.954   8.366
 1044POPC   C3B18057  29.842   3.855   7.941
 1044POPC   C4B18058  29.858   3.826   7.459
 1045POPC   NC318059  14.015  25.936   9.435
 1045POPC   PO418060  14.564  26.011   9.748
 1045POPC   GL118061  14.538  26.240   9.308
 1045POPC   GL218062  14.209  26.358   9.194
 1045POPC   C1A18063  14.529  26.239   8.803
 1045POPC   D2A18064  14.320  26.019   8.427
 1045POPC   C3A18065  14.449  25.879   8.023
 1045POPC   C4A18066  14.654  26.138   7.712
 1045POPC   C1B18067  14.035  26.257   8.770
 1045POPC   C2B18068  13.954  26.396   8.346
 1045POPC   C3B18069  14.149  26.291   7.920
 1045POPC   C4B18070  13.981  26.483   7.569
 1046POPC   NC318071  22.935  32.389   9.407
 1046POPC   PO418072  22.404  32.147   9.794
 1046POPC   GL118073  22.793  31.920   9.456
 1046POPC   GL218074  23.165  31.941   9.318
 1046POPC   C1A18075  22.848  31.880   8.938
 1046POPC   D2A18076  23.036  31.949   8.498
 1046POPC   C3A18077  22.834  32.179   8.142
 1046POPC   C4A18078  22.880  32.104   7.682
 1046POPC   C1B18079  23.269  32.191   8.878
 1046POPC   C2B18080  23.438  32.264   8.422
 1046POPC   C3B18081  23.306  32.306   7.971
 1046POPC   C4B18082  23.250  32.416   7.515
 1047POPC   NC318083  24.871  23.804   9.745
 1047POPC   PO418084  25.427  23.444   9.626
 1047POPC   GL118085  25.355  23.592   9.237
 1047POPC   GL218086  25.165  23.786   9.293
 1047POPC   C1A18087  25.522  23.772   8.876
 1047POPC   D2A18088  25.443  23.636   8.452
 1047POPC   C3A18089  25.441  23.940   8.116
 1047POPC   C4A18090  25.338  23.740   7.746
 1047POPC   C1B18091  25.022  23.817   8.878
 1047POPC   C2B18092  25.065  23.957   8.479
 1047POPC   C3B18093  24.951  23.780   8.086
 1047POPC   C4B18094  24.779  23.742   7.700
 1048POPC   NC318095  28.512  27.482   9.607
 1048POPC   PO418096  27.962  27.729   9.650
 1048POPC   GL118097  28.122  27.593   9.222
 1048POPC   GL218098  28.385  27.833   9.153
 1048POPC   C1A18099  28.233  27.554   8.747
 1048POPC   D2A18100  28.372  27.696   8.308
 1048POPC   C3A18101  28.393  27.409   7.927
 1048POPC   C4A18102  28.236  27.133   7.562
 1048POPC   C1B18103  28.479  28.051   8.756
 1048POPC   C2B18104  28.542  28.205   8.344
 1048POPC   C3B18105  28.573  28.048   7.933
 1048POPC   C4B18106  28.283  27.852   7.696
 1049POPC   NC318107  29.467  38.613   9.588
 1049POPC   PO418108  29.995  38.263   9.339
 1049POPC   GL118109  30.018  38.507   9.008
 1049POPC   GL218110  29.691  38.620   9.113
 1049POPC   C1A18111  29.844  38.268   8.685
 1049POPC   D2A18112  29.970  38.024   8.388
 1049POPC   C3A18113  29.821  38.170   8.027
 1049POPC   C4A18114  29.738  38.011   7.650
 1049POPC   C1B18115  29.610  38.719   8.712
 1049POPC   C2B18116  29.786  38.632   8.275
 1049POPC   C3B18117  29.803  38.620   7.790
 1049POPC   C4B18118  29.822  38.883   7.382
 1050POPC   NC318119  15.305  12.490   9.954
 1050POPC   PO418120  14.947  12.773   9.476
 1050POPC   GL118121  15.210  12.759   9.131
 1050POPC   GL218122  15.477  12.974   9.233
 1050POPC   C1A18123  15.098  12.683   8.701
 1050POPC   D2A18124  14.890  12.617   8.311
 1050POPC   C3A18125  15.150  12.648   7.962
 1050POPC   C4A18126  15.347  12.705   7.585
 1050POPC   C1B18127  15.508  12.988   8.770
 1050POPC   C2B18128  15.329  12.997   8.347
 1050POPC   C3B18129  15.523  13.014   7.961
 1050POPC   C4B18130  15.437  13.233   7.569
 1051POPC   NC318131  11.126  39.883   9.561
 1051POPC   PO418132  11.768  39.807   9.264
 1051POPC   GL118133  11.506  40.028   9.028
 1051POPC   GL218134  11.192  40.197   9.102
 1051POPC   C1A18135  11.275  39.887   8.683
 1051POPC   D2A18136  11.151  39.767   8.271
 1051POPC   C3A18137  11.449  39.929   8.033
 1051POPC   C4A18138  11.687  40.019   7.705
 1051POPC   C1B18139  10.946  40.332   8.769
 1051POPC   C2B18140  10.991  40.223   8.364
 1051POPC   C3B18141  10.924  40.281   7.943
 1051POPC   C4B18142  11.227  40.213   7.655
 1052POPC   NC318143  36.457  39.637   9.518
 1052POPC   PO418144  37.097  39.963   9.466
 1052POPC   GL118145  36.967  39.834   9.076
 1052POPC   GL218146  36.595  39.822   9.071
 1052POPC   C1A18147  37.239  39.820   8.729
 1052POPC   D2A18148  37.202  39.682   8.304
 1052POPC   C3A18149  37.250  39.978   7.989
 1052POPC   C4A18150  37.005  39.856   7.645
 1052POPC   C1B18151  36.658  40.163   8.792
 1052POPC   C2B18152  36.889  40.113   8.438
 1052POPC   C3B18153  36.756  39.917   8.082
 1052POPC   C4B18154  36.596  40.159   7.751
 1053POPC   NC318155  10.927  41.361   9.949
 1053POPC   PO418156  10.739  41.897   9.559
 1053POPC   GL118157  10.570  41.772   9.169
 1053POPC   GL218158  10.470  41.444   9.159
 1053POPC   C1A18159  10.705  41.584   8.722
 1053POPC   D2A18160  10.831  41.430   8.272
 1053POPC   C3A18161  10.816  41.645   7.834
 1053POPC   C4A18162  10.806  41.393   7.410
 1053POPC   C1B18163  10.321  41.230   8.804
 1053POPC   C2B18164  10.281  41.443   8.434
 1053POPC   C3B18165  10.372  41.581   8.056
 1053POPC   C4B18166  10.478  41.248   7.797
 1054POPC   NC318167  19.717  14.635   9.521
 1054POPC   PO418168  19.772  13.994   9.277
 1054POPC   GL118169  19.882  14.396   9.060
 1054POPC   GL218170  19.954  14.765   9.088
 1054POPC   C1A18171  19.964  14.521   8.635
 1054POPC   D2A18172  19.872  14.190   8.379
 1054POPC   C3A18173  19.863  14.377   7.991
 1054POPC   C4A18174  19.766  14.156   7.658
 1054POPC   C1B18175  19.722  14.948   8.768
 1054POPC   C2B18176  19.797  15.002   8.342
 1054POPC   C3B18177  19.666  14.915   7.927
 1054POPC   C4B18178  19.755  14.728   7.537
 1055POPC   NC318179  10.325  37.844   9.529
 1055POPC   PO418180  10.611  37.251   9.368
 1055POPC   GL118181  10.366  37.554   9.095
 1055POPC   GL218182  10.342  37.901   9.049
 1055POPC   C1A18183  10.311  37.530   8.661
 1055POPC   D2A18184  10.566  37.483   8.309
 1055POPC   C3A18185  10.493  37.665   7.894
 1055POPC   C4A18186  10.781  37.825   7.560
 1055POPC   C1B18187  10.087  37.986   8.728
 1055POPC   C2B18188  10.288  37.954   8.347
 1055POPC   C3B18189  10.104  38.011   7.967
 1055POPC   C4B18190  10.314  38.050   7.603
 1056POPC   NC318191  37.860  11.683   9.569
 1056POPC   PO418192  37.734  11.036   9.649
 1056POPC   GL118193  37.840  11.074   9.202
 1056POPC   GL218194  37.958  11.395   9.157
 1056POPC   C1A18195  37.724  11.115   8.738
 1056POPC   D2A18196  37.449  11.168   8.387
 1056POPC   C3A18197  37.447  11.017   7.994
 1056POPC   C4A18198  37.605  11.240   7.646
 1056POPC   C1B18199  37.992  11.555   8.748
 1056POPC   C2B18200  37.784  11.543   8.347
 1056POPC   C3B18201  37.942  11.539   7.934
 1056POPC   C4B18202  37.904  11.683   7.536
 1057POPC   NC318203  20.316   9.810   9.439
 1057POPC   PO418204  19.730   9.542   9.495
 1057POPC   GL118205  19.810   9.934   9.225
 1057POPC   GL218206  20.101   9.903   8.987
 1057POPC   C1A18207  19.652  10.104   8.802
 1057POPC   D2A18208  19.392   9.942   8.400
 1057POPC   C3A18209  19.602   9.882   7.959
 1057POPC   C4A18210  19.636   9.750   7.497
 1057POPC   C1B18211  20.079   9.464   8.895
 1057POPC   C2B18212  20.005   9.275   8.491
 1057POPC   C3B18213  19.743   9.357   8.103
 1057POPC   C4B18214  19.965   9.480   7.748
 1058POPC   NC318215  38.601  31.354   9.509
 1058POPC   PO418216  38.075  31.756   9.631
 1058POPC   GL118217  38.351  31.638   9.183
 1058POPC   GL218218  38.740  31.654   9.136
 1058POPC   C1A18219  38.418  31.451   8.776
 1058POPC   D2A18220  38.394  31.197   8.433
 1058POPC   C3A18221  38.387  31.363   8.028
 1058POPC   C4A18222  38.133  31.312   7.648
 1058POPC   C1B18223  38.825  31.745   8.718
 1058POPC   C2B18224  38.818  31.584   8.304
 1058POPC   C3B18225  38.909  31.691   7.879
 1058POPC   C4B18226  38.579  31.584   7.616
 1059POPC   NC318227   9.099   3.880   9.459
 1059POPC   PO418228   9.074   3.298   9.700
 1059POPC   GL118229   8.976   3.455   9.243
 1059POPC   GL218230   8.703   3.640   9.120
 1059POPC   C1A18231   9.110   3.517   8.813
 1059POPC   D2A18232   9.086   3.286   8.438
 1059POPC   C3A18233   9.203   3.480   8.091
 1059POPC   C4A18234   9.022   3.749   7.813
 1059POPC   C1B18235   8.617   3.454   8.719
 1059POPC   C2B18236   8.696   3.558   8.299
 1059POPC   C3B18237   8.696   3.348   7.913
 1059POPC   C4B18238   8.609   3.589   7.555
 1060POPC   NC318239  11.718  37.491   9.604
 1060POPC   PO418240  12.303  37.211   9.588
 1060POPC   GL118241  12.273  37.460   9.231
 1060POPC   GL218242  12.031  37.725   9.250
 1060POPC   C1A18243  12.142  37.462   8.810
 1060POPC   D2A18244  12.242  37.314   8.397
 1060POPC   C3A18245  12.188  37.541   7.985
 1060POPC   C4A18246  12.259  37.267   7.594
 1060POPC   C1B18247  11.830  37.876   8.856
 1060POPC   C2B18248  11.995  38.117   8.525
 1060POPC   C3B18249  11.890  38.109   8.118
 1060POPC   C4B18250  11.825  37.896   7.776
 1061POPC   NC318251  27.497  36.167   9.497
 1061POPC   PO418252  27.759  35.664   9.284
 1061POPC   GL118253  27.661  36.058   9.012
 1061POPC   GL218254  27.840  36.399   9.058
 1061POPC   C1A18255  27.721  36.218   8.563
 1061POPC   D2A18256  27.452  36.384   8.216
 1061POPC   C3A18257  27.423  36.153   7.808
 1061POPC   C4A18258  27.195  36.053   7.414
 1061POPC   C1B18259  28.196  36.383   8.729
 1061POPC   C2B18260  28.245  36.389   8.280
 1061POPC   C3B18261  27.906  36.375   7.946
 1061POPC   C4B18262  27.820  36.181   7.491
 1062POPC   NC318263  42.131  41.910   9.431
 1062POPC   PO418264  42.541  41.314   9.396
 1062POPC   GL118265  42.361  41.538   9.125
 1062POPC   GL218266  42.031  41.431   9.227
 1062POPC   C1A18267  42.416  41.419   8.712
 1062POPC   D2A18268  42.200  41.320   8.354
 1062POPC   C3A18269  42.445  41.203   8.022
 1062POPC   C4A18270  42.651  41.515   7.799
 1062POPC   C1B18271  41.953  41.638   8.837
 1062POPC   C2B18272  41.754  41.571   8.488
 1062POPC   C3B18273  41.890  41.643   8.097
 1062POPC   C4B18274  42.082  41.491   7.737
 1063POPC   NC318275   2.446  43.226   9.412
 1063POPC   PO418276   2.964  42.807   9.418
 1063POPC   GL118277   2.837  43.054   9.077
 1063POPC   GL218278   3.054  43.338   9.008
 1063POPC   C1A18279   2.584  42.940   8.699
 1063POPC   D2A18280   2.549  42.852   8.245
 1063POPC   C3A18281   2.483  43.232   7.971
 1063POPC   C4A18282   2.619  43.282   7.549
 1063POPC   C1B18283   3.029  43.189   8.595
 1063POPC   C2B18284   2.957  43.191   8.163
 1063POPC   C3B18285   3.097  43.196   7.754
 1063POPC   C4B18286   3.007  42.942   7.381
 1064POPC   NC318287   3.519   7.869   9.503
 1064POPC   PO418288   3.496   7.196   9.533
 1064POPC   GL118289   3.513   7.333   9.113
 1064POPC   GL218290   3.475   7.678   9.046
 1064POPC   C1A18291   3.392   7.356   8.668
 1064POPC   D2A18292   3.576   7.183   8.291
 1064POPC   C3A18293   3.245   7.035   8.011
 1064POPC   C4A18294   3.239   7.102   7.591
 1064POPC   C1B18295   3.511   7.898   8.664
 1064POPC   C2B18296   3.465   7.704   8.283
 1064POPC   C3B18297   3.483   7.499   7.895
 1064POPC   C4B18298   3.397   7.572   7.459
 1065POPC   NC318299   8.837  39.028   9.512
 1065POPC   PO418300   9.189  39.585   9.413
 1065POPC   GL118301   9.106  39.237   9.119
 1065POPC   GL218302   8.747  39.205   9.058
 1065POPC   C1A18303   9.168  38.989   8.752
 1065POPC   D2A18304   9.003  38.904   8.339
 1065POPC   C3A18305   9.141  39.069   7.951
 1065POPC   C4A18306   9.046  39.218   7.534
 1065POPC   C1B18307   8.647  39.028   8.683
 1065POPC   C2B18308   8.608  39.259   8.280
 1065POPC   C3B18309   8.641  39.121   7.870
 1065POPC   C4B18310   8.524  39.260   7.479
 1066POPC   NC318311  30.315   7.839   9.379
 1066POPC   PO418312  30.013   8.464   9.514
 1066POPC   GL118313  29.936   8.506   9.084
 1066POPC   GL218314  29.989   8.135   9.002
 1066POPC   C1A18315  29.797   8.476   8.663
 1066POPC   D2A18316  29.935   8.222   8.329
 1066POPC   C3A18317  29.730   8.328   7.955
 1066POPC   C4A18318  30.045   8.171   7.712
 1066POPC   C1B18319  29.823   7.847   8.701
 1066POPC   C2B18320  29.745   7.696   8.288
 1066POPC   C3B18321  29.739   7.798   7.845
 1066POPC   C4B18322  29.679   7.810   7.367
 1067POPC   NC318323  34.408  36.788   9.512
 1067POPC   PO418324  35.046  36.603   9.501
 1067POPC   GL118325  34.797  36.771   9.183
 1067POPC   GL218326  34.700  36.463   9.089
 1067POPC   C1A18327  34.503  36.932   8.857
 1067POPC   D2A18328  34.521  37.161   8.488
 1067POPC   C3A18329  34.591  36.965   8.084
 1067POPC   C4A18330  34.308  36.949   7.733
 1067POPC   C1B18331  34.909  36.655   8.709
 1067POPC   C2B18332  34.976  36.582   8.282
 1067POPC   C3B18333  34.902  36.612   7.861
 1067POPC   C4B18334  34.814  36.468   7.453
 1068POPC   NC318335  17.699   6.753   9.569
 1068POPC   PO418336  17.380   7.310   9.632
 1068POPC   GL118337  17.453   7.347   9.227
 1068POPC   GL218338  17.379   7.017   9.135
 1068POPC   C1A18339  17.712   7.515   8.911
 1068POPC   D2A18340  17.811   7.414   8.499
 1068POPC   C3A18341  17.541   7.555   8.173
 1068POPC   C4A18342  17.574   7.713   7.756
 1068POPC   C1B18343  17.227   7.140   8.708
 1068POPC   C2B18344  17.093   7.181   8.268
 1068POPC   C3B18345  17.278   6.999   7.898
 1068POPC   C4B18346  17.608   7.158   7.629
 1069POPC   NC318347  20.593  38.922   9.633
 1069POPC   PO418348  20.641  39.518   9.685
 1069POPC   GL118349  20.657  39.477   9.248
 1069POPC   GL218350  20.548  39.166   9.120
 1069POPC   C1A18351  20.906  39.583   8.878
 1069POPC   D2A18352  20.829  39.531   8.423
 1069POPC   C3A18353  20.629  39.203   8.195
 1069POPC   C4A18354  20.632  39.346   7.790
 1069POPC   C1B18355  20.801  39.107   8.710
 1069POPC   C2B18356  21.116  39.121   8.330
 1069POPC   C3B18357  21.030  39.043   7.869
 1069POPC   C4B18358  20.990  39.252   7.430
 1070POPC   NC318359  29.797  17.539   9.497
 1070POPC   PO418360  30.366  17.872   9.341
 1070POPC   GL118361  30.173  17.495   9.096
 1070POPC   GL218362  29.830  17.470   9.003
 1070POPC   C1A18363  30.183  17.266   8.681
 1070POPC   D2A18364  29.944  17.421   8.315
 1070POPC   C3A18365  29.949  17.210   7.929
 1070POPC   C4A18366  30.054  17.319   7.497
 1070POPC   C1B18367  29.569  17.633   8.687
 1070POPC   C2B18368  29.410  17.448   8.335
 1070POPC   C3B18369  29.479  17.394   7.919
 1070POPC   C4B18370  29.562  17.295   7.509
 1071POPC   NC318371  43.333   6.352   9.422
 1071POPC   PO418372  43.013   7.000   9.634
 1071POPC   GL118373  42.895   6.719   9.266
 1071POPC   GL218374  43.173   6.831   9.100
 1071POPC   C1A18375  42.977   6.456   8.849
 1071POPC   D2A18376  42.966   6.581   8.412
 1071POPC   C3A18377  43.286   6.585   8.108
 1071POPC   C4A18378  43.072   6.525   7.733
 1071POPC   C1B18379  43.354   6.805   8.688
 1071POPC   C2B18380  43.205   7.059   8.342
 1071POPC   C3B18381  43.349   7.025   7.895
 1071POPC   C4B18382  43.369   6.856   7.502
 1072POPC   NC318383  27.629   0.819   9.440
 1072POPC   PO418384  27.791   1.467   9.566
 1072POPC   GL118385  27.441   1.372   9.252
 1072POPC   GL218386  27.305   1.060   9.149
 1072POPC   C1A18387  27.575   1.369   8.835
 1072POPC   D2A18388  27.848   1.170   8.513
 1072POPC   C3A18389  27.606   1.271   8.173
 1072POPC   C4A18390  27.459   1.400   7.787
 1072POPC   C1B18391  27.529   0.859   8.774
 1072POPC   C2B18392  27.517   0.768   8.337
 1072POPC   C3B18393  27.649   0.853   7.901
 1072POPC   C4B18394  27.803   1.083   7.536
 1073POPC   NC318395  29.184  33.460   9.330
 1073POPC   PO418396  29.270  34.130   9.554
 1073POPC   GL118397  29.129  33.939   9.192
 1073POPC   GL218398  29.472  33.835   9.184
 1073POPC   C1A18399  28.996  33.784   8.786
 1073POPC   D2A18400  28.942  33.564   8.396
 1073POPC   C3A18401  29.057  33.751   8.037
 1073POPC   C4A18402  28.936  33.867   7.593
 1073POPC   C1B18403  29.572  33.701   8.802
 1073POPC   C2B18404  29.485  33.528   8.448
 1073POPC   C3B18405  29.483  33.429   8.041
 1073POPC   C4B18406  29.383  33.638   7.678
 1074POPC   NC318407   6.425  15.024   9.730
 1074POPC   PO418408   6.571  14.465   9.461
 1074POPC   GL118409   6.693  14.279   9.090
 1074POPC   GL218410   6.823  14.550   8.988
 1074POPC   C1A18411   6.471  14.202   8.730
 1074POPC   D2A18412   6.469  14.492   8.418
 1074POPC   C3A18413   6.711  14.375   8.110
 1074POPC   C4A18414   6.620  14.183   7.765
 1074POPC   C1B18415   6.920  14.870   8.750
 1074POPC   C2B18416   6.994  14.716   8.384
 1074POPC   C3B18417   7.041  14.750   7.969
 1074POPC   C4B18418   7.062  14.407   7.706
 1075POPC   NC318419   3.708  17.374   9.941
 1075POPC   PO418420   3.261  17.729   9.572
 1075POPC   GL118421   3.385  17.608   9.151
 1075POPC   GL218422   3.669  17.402   9.234
 1075POPC   C1A18423   3.346  17.620   8.728
 1075POPC   D2A18424   3.235  17.754   8.349
 1075POPC   C3A18425   3.385  17.482   8.034
 1075POPC   C4A18426   3.365  17.648   7.625
 1075POPC   C1B18427   3.551  17.193   8.866
 1075POPC   C2B18428   3.643  17.258   8.469
 1075POPC   C3B18429   3.887  17.302   8.137
 1075POPC   C4B18430   3.805  17.349   7.742
 1076POPC   NC318431   2.103  31.034   9.641
 1076POPC   PO418432   2.419  30.410   9.454
 1076POPC   GL118433   2.132  30.723   9.207
 1076POPC   GL218434   1.815  30.550   9.064
 1076POPC   C1A18435   2.019  30.942   8.795
 1076POPC   D2A18436   1.985  30.758   8.373
 1076POPC   C3A18437   2.253  30.771   8.016
 1076POPC   C4A18438   2.350  30.486   7.713
 1076POPC   C1B18439   1.561  30.687   8.666
 1076POPC   C2B18440   1.518  30.760   8.191
 1076POPC   C3B18441   1.755  30.828   7.811
 1076POPC   C4B18442   1.857  30.500   7.512
 1077POPC   NC318443   6.828  16.531   9.368
 1077POPC   PO418444   6.324  16.928   9.463
 1077POPC   GL118445   6.528  16.882   9.104
 1077POPC   GL218446   6.368  16.543   9.075
 1077POPC   C1A18447   6.693  16.744   8.704
 1077POPC   D2A18448   6.653  16.527   8.304
 1077POPC   C3A18449   6.705  16.768   7.965
 1077POPC   C4A18450   6.708  17.128   7.710
 1077POPC   C1B18451   6.173  16.438   8.693
 1077POPC   C2B18452   6.159  16.428   8.270
 1077POPC   C3B18453   6.347  16.360   7.906
 1077POPC   C4B18454   6.442  16.612   7.564
 1078POPC   NC318455  42.448  21.839   9.484
 1078POPC   PO418456  42.170  21.247   9.412
 1078POPC   GL118457  42.247  21.259   9.029
 1078POPC   GL218458  42.533  21.488   9.108
 1078POPC   C1A18459  42.052  21.447   8.688
 1078POPC   D2A18460  41.889  21.690   8.345
 1078POPC   C3A18461  42.036  21.568   7.948
 1078POPC   C4A18462  42.171  21.274   7.575
 1078POPC   C1B18463  42.604  21.371   8.699
 1078POPC   C2B18464  42.402  21.493   8.330
 1078POPC   C3B18465  42.506  21.379   7.946
 1078POPC   C4B18466  42.858  21.398   7.769
 1079POPC   NC318467   4.919   2.435   9.464
 1079POPC   PO418468   5.281   1.855   9.530
 1079POPC   GL118469   5.070   2.042   9.177
 1079POPC   GL218470   4.698   2.098   9.173
 1079POPC   C1A18471   5.170   2.135   8.762
 1079POPC   D2A18472   5.411   1.903   8.489
 1079POPC   C3A18473   5.297   1.949   8.074
 1079POPC   C4A18474   5.397   1.772   7.693
 1079POPC   C1B18475   4.757   1.819   8.820
 1079POPC   C2B18476   4.816   1.930   8.419
 1079POPC   C3B18477   4.673   2.093   8.076
 1079POPC   C4B18478   4.912   2.071   7.736
 1080POPC   NC318479  42.934   0.913   9.470
 1080POPC   PO418480  42.953   0.269   9.573
 1080POPC   GL118481  43.142   0.498   9.214
 1080POPC   GL218482  43.439   0.717   9.214
 1080POPC   C1A18483  43.148   0.672   8.800
 1080POPC   D2A18484  43.188   0.444   8.431
 1080POPC   C3A18485  42.958   0.560   8.103
 1080POPC   C4A18486  42.935   0.398   7.705
 1080POPC   C1B18487  43.582   0.941   8.814
 1080POPC   C2B18488  43.435   0.913   8.397
 1080POPC   C3B18489  43.452   0.648   8.043
 1080POPC   C4B18490  43.286   0.769   7.667
 1081POPC   NC318491   7.951  20.818   9.710
 1081POPC   PO418492   8.431  20.365   9.521
 1081POPC   GL118493   8.415  20.736   9.238
 1081POPC   GL218494   8.071  20.763   9.219
 1081POPC   C1A18495   8.503  20.754   8.781
 1081POPC   D2A18496   8.364  20.441   8.430
 1081POPC   C3A18497   8.305  20.550   7.993
 1081POPC   C4A18498   8.427  20.775   7.620
 1081POPC   C1B18499   8.052  20.518   8.842
 1081POPC   C2B18500   7.858  20.569   8.441
 1081POPC   C3B18501   7.825  20.776   8.040
 1081POPC   C4B18502   7.945  20.696   7.650
 1082POPC   NC318503  15.688  28.700   9.398
 1082POPC   PO418504  15.996  28.119   9.434
 1082POPC   GL118505  16.066  28.134   9.007
 1082POPC   GL218506  16.391  28.057   8.968
 1082POPC   C1A18507  15.870  28.278   8.619
 1082POPC   D2A18508  16.035  28.244   8.184
 1082POPC   C3A18509  15.887  28.467   7.838
 1082POPC   C4A18510  15.600  28.844   7.823
 1082POPC   C1B18511  16.374  28.159   8.579
 1082POPC   C2B18512  16.535  28.176   8.208
 1082POPC   C3B18513  16.380  28.134   7.801
 1082POPC   C4B18514  16.132  28.263   7.426
 1083POPC   NC318515  39.115  20.290   9.311
 1083POPC   PO418516  38.794  20.862   9.453
 1083POPC   GL118517  38.931  20.711   9.083
 1083POPC   GL218518  39.273  20.757   9.132
 1083POPC   C1A18519  39.062  20.762   8.666
 1083POPC   D2A18520  39.261  20.548   8.353
 1083POPC   C3A18521  39.123  20.719   8.003
 1083POPC   C4A18522  39.118  20.458   7.680
 1083POPC   C1B18523  39.542  20.600   8.777
 1083POPC   C2B18524  39.721  20.299   8.467
 1083POPC   C3B18525  39.619  20.338   8.027
 1083POPC   C4B18526  39.591  20.692   7.760
 1084POPC   NC318527  19.945  31.884   9.498
 1084POPC   PO418528  19.463  32.326   9.479
 1084POPC   GL118529  19.683  32.288   9.119
 1084POPC   GL218530  19.636  31.939   9.097
 1084POPC   C1A18531  19.876  32.518   8.775
 1084POPC   D2A18532  19.757  32.449   8.353
 1084POPC   C3A18533  19.976  32.450   7.965
 1084POPC   C4A18534  19.761  32.438   7.547
 1084POPC   C1B18535  19.825  32.013   8.665
 1084POPC   C2B18536  19.952  31.942   8.217
 1084POPC   C3B18537  19.867  31.818   7.802
 1084POPC   C4B18538  19.656  31.944   7.419
 1085POPC   NC318539  20.533  23.695   9.536
 1085POPC   PO418540  20.758  24.290   9.516
 1085POPC   GL118541  20.789  24.006   9.168
 1085POPC   GL218542  20.433  23.950   9.060
 1085POPC   C1A18543  20.906  23.832   8.751
 1085POPC   D2A18544  20.990  23.803   8.287
 1085POPC   C3A18545  20.800  23.468   8.044
 1085POPC   C4A18546  20.482  23.311   7.754
 1085POPC   C1B18547  20.413  23.935   8.585
 1085POPC   C2B18548  20.324  23.806   8.148
 1085POPC   C3B18549  20.550  23.830   7.747
 1085POPC   C4B18550  20.720  23.962   7.344
 1086POPC   NC318551  13.085  23.854   9.469
 1086POPC   PO418552  12.410  23.932   9.453
 1086POPC   GL118553  12.668  23.771   9.151
 1086POPC   GL218554  12.789  23.441   9.235
 1086POPC   C1A18555  12.837  23.899   8.768
 1086POPC   D2A18556  12.629  23.838   8.372
 1086POPC   C3A18557  12.793  23.890   7.962
 1086POPC   C4A18558  12.607  23.549   7.716
 1086POPC   C1B18559  12.738  23.413   8.775
 1086POPC   C2B18560  13.031  23.534   8.450
 1086POPC   C3B18561  12.999  23.437   8.037
 1086POPC   C4B18562  13.102  23.591   7.628
 1087POPC   NC318563  38.306  24.712   9.334
 1087POPC   PO418564  38.845  24.329   9.489
 1087POPC   GL118565  38.666  24.420   9.103
 1087POPC   GL218566  38.718  24.770   9.032
 1087POPC   C1A18567  38.393  24.407   8.725
 1087POPC   D2A18568  38.273  24.154   8.365
 1087POPC   C3A18569  38.084  24.309   7.983
 1087POPC   C4A18570  38.326  24.443   7.664
 1087POPC   C1B18571  38.455  24.918   8.652
 1087POPC   C2B18572  38.457  24.835   8.176
 1087POPC   C3B18573  38.669  24.817   7.755
 1087POPC   C4B18574  38.666  25.003   7.303
 1088POPC   NC318575  18.416   7.906   9.466
 1088POPC   PO418576  18.173   8.486   9.383
 1088POPC   GL118577  18.239   8.204   9.087
 1088POPC   GL218578  18.545   8.363   9.073
 1088POPC   C1A18579  18.115   7.841   8.848
 1088POPC   D2A18580  18.194   7.753   8.421
 1088POPC   C3A18581  17.968   7.901   8.065
 1088POPC   C4A18582  18.156   7.880   7.664
 1088POPC   C1B18583  18.351   8.589   8.754
 1088POPC   C2B18584  18.044   8.487   8.473
 1088POPC   C3B18585  18.096   8.409   8.046
 1088POPC   C4B18586  18.063   8.361   7.609
 1089POPC   NC318587  32.497  38.936   9.505
 1089POPC   PO418588  32.036  38.460   9.626
 1089POPC   GL118589  32.218  38.425   9.182
 1089POPC   GL218590  32.526  38.622   9.114
 1089POPC   C1A18591  32.257  38.441   8.710
 1089POPC   D2A18592  32.175  38.395   8.271
 1089POPC   C3A18593  32.295  38.713   7.958
 1089POPC   C4A18594  32.096  38.416   7.672
 1089POPC   C1B18595  32.756  38.503   8.732
 1089POPC   C2B18596  32.657  38.242   8.359
 1089POPC   C3B18597  32.547  38.261   7.907
 1089POPC   C4B18598  32.593  38.471   7.503
 1090POPC   NC318599   5.858   7.069   9.411
 1090POPC   PO418600   5.896   6.456   9.473
 1090POPC   GL118601   5.796   6.636   9.098
 1090POPC   GL218602   6.091   6.496   8.976
 1090POPC   C1A18603   5.697   6.746   8.668
 1090POPC   D2A18604   6.008   6.631   8.361
 1090POPC   C3A18605   5.867   6.517   7.908
 1090POPC   C4A18606   5.812   6.715   7.463
 1090POPC   C1B18607   6.146   6.945   8.802
 1090POPC   C2B18608   6.098   7.151   8.396
 1090POPC   C3B18609   6.069   6.975   7.995
 1090POPC   C4B18610   6.011   7.147   7.635
 1091POPC   NC318611  13.553  18.084   9.589
 1091POPC   PO418612  13.770  18.675   9.458
 1091POPC   GL118613  13.555  18.398   9.153
 1091POPC   GL218614  13.735  18.070   9.124
 1091POPC   C1A18615  13.471  18.250   8.714
 1091POPC   D2A18616  13.532  18.465   8.314
 1091POPC   C3A18617  13.453  18.300   7.893
 1091POPC   C4A18618  13.589  18.041   7.536
 1091POPC   C1B18619  13.960  18.303   8.794
 1091POPC   C2B18620  13.972  18.200   8.341
 1091POPC   C3B18621  13.965  18.181   7.877
 1091POPC   C4B18622  13.932  18.426   7.494
 1092POPC   NC318623   8.715  10.900   9.612
 1092POPC   PO418624   9.203  11.299   9.526
 1092POPC   GL118625   8.993  11.340   9.126
 1092POPC   GL218626   8.636  11.323   9.122
 1092POPC   C1A18627   8.867  11.557   8.723
 1092POPC   D2A18628   8.708  11.427   8.309
 1092POPC   C3A18629   9.023  11.459   8.003
 1092POPC   C4A18630   9.329  11.212   7.836
 1092POPC   C1B18631   8.608  11.118   8.723
 1092POPC   C2B18632   8.774  10.866   8.384
 1092POPC   C3B18633   8.846  10.975   7.971
 1092POPC   C4B18634   8.529  11.246   7.846
 1093POPC   NC318635  36.964  24.006   9.475
 1093POPC   PO418636  36.791  23.311   9.550
 1093POPC   GL118637  36.827  23.557   9.217
 1093POPC   GL218638  37.136  23.563   9.154
 1093POPC   C1A18639  36.792  23.620   8.776
 1093POPC   D2A18640  37.021  23.597   8.396
 1093POPC   C3A18641  36.791  23.541   8.008
 1093POPC   C4A18642  36.819  23.648   7.585
 1093POPC   C1B18643  37.201  23.949   8.857
 1093POPC   C2B18644  37.212  24.097   8.450
 1093POPC   C3B18645  36.998  24.008   8.041
 1093POPC   C4B18646  36.926  24.156   7.613
 1094POPC   NC318647   7.044  38.230   9.648
 1094POPC   PO418648   6.339  38.346   9.678
 1094POPC   GL118649   6.581  38.421   9.265
 1094POPC   GL218650   6.949  38.526   9.225
 1094POPC   C1A18651   6.724  38.352   8.808
 1094POPC   D2A18652   6.602  38.498   8.393
 1094POPC   C3A18653   6.610  38.217   8.078
 1094POPC   C4A18654   6.608  38.498   7.758
 1094POPC   C1B18655   7.053  38.797   8.853
 1094POPC   C2B18656   6.939  38.880   8.441
 1094POPC   C3B18657   7.012  38.684   8.077
 1094POPC   C4B18658   7.007  38.802   7.669
 1095POPC   NC318659  43.684  34.587   9.568
 1095POPC   PO418660  44.191  34.197   9.543
 1095POPC   GL118661  43.965  34.385   9.200
 1095POPC   GL218662  44.082  34.743   9.202
 1095POPC   C1A18663  43.986  34.349   8.759
 1095POPC   D2A18664  44.195  34.309   8.377
 1095POPC   C3A18665  43.904  34.353   8.036
 1095POPC   C4A18666  43.966  34.380   7.617
 1095POPC   C1B18667  43.822  34.838   8.827
 1095POPC   C2B18668  43.867  34.743   8.390
 1095POPC   C3B18669  43.726  34.906   7.989
 1095POPC   C4B18670  43.634  34.756   7.612
 1096POPC   NC318671  13.662  30.931   9.433
 1096POPC   PO418672  13.459  30.326   9.692
 1096POPC   GL118673  13.507  30.418   9.220
 1096POPC   GL218674  13.299  30.667   9.172
 1096POPC   C1A18675  13.644  30.608   8.777
 1096POPC   D2A18676  13.850  30.780   8.395
 1096POPC   C3A18677  13.787  30.509   8.032
 1096POPC   C4A18678  13.880  30.578   7.623
 1096POPC   C1B18679  13.190  30.876   8.798
 1096POPC   C2B18680  13.283  31.092   8.440
 1096POPC   C3B18681  13.411  30.852   8.117
 1096POPC   C4B18682  13.391  30.830   7.702
 1097POPC   NC318683   9.415  44.710   9.748
 1097POPC   PO418684   9.884  44.413   9.320
 1097POPC   GL118685   9.733  44.690   9.083
 1097POPC   GL218686   9.469  44.848   9.252
 1097POPC   C1A18687   9.760  44.684   8.665
 1097POPC   D2A18688   9.876  44.876   8.318
 1097POPC   C3A18689   9.742  44.559   8.051
 1097POPC   C4A18690   9.850  44.466   7.635
 1097POPC   C1B18691   9.331  44.915   8.827
 1097POPC   C2B18692   9.361  44.920   8.373
 1097POPC   C3B18693   9.416  44.940   7.928
 1097POPC   C4B18694   9.349  44.541   7.716
 1098POPC   NC318695   6.851  44.424   9.428
 1098POPC   PO418696   6.464  44.836   9.694
 1098POPC   GL118697   6.436  44.880   9.247
 1098POPC   GL218698   6.254  44.598   9.204
 1098POPC   C1A18699   6.544  44.706   8.797
 1098POPC   D2A18700   6.775  44.581   8.394
 1098POPC   C3A18701   6.737  44.896   8.052
 1098POPC   C4A18702   6.758  44.833   7.605
 1098POPC   C1B18703   6.170  44.336   8.828
 1098POPC   C2B18704   6.282  44.429   8.416
 1098POPC   C3B18705   6.322  44.608   8.018
 1098POPC   C4B18706   6.325  44.424   7.600
 1099POPC   NC318707   8.410  14.582   9.517
 1099POPC   PO418708   7.959  14.145   9.418
 1099POPC   GL118709   8.283  14.290   9.109
 1099POPC   GL218710   8.357  14.654   9.020
 1099POPC   C1A18711   8.478  14.294   8.703
 1099POPC   D2A18712   8.406  14.493   8.296
 1099POPC   C3A18713   8.375  14.204   7.949
 1099POPC   C4A18714   8.093  14.200   7.570
 1099POPC   C1B18715   7.986  14.561   8.755
 1099POPC   C2B18716   7.903  14.656   8.320
 1099POPC   C3B18717   8.055  14.609   7.897
 1099POPC   C4B18718   7.982  14.804   7.505
 1100POPC   NC318719  24.886  30.997   9.308
 1100POPC   PO418720  25.382  30.747   9.605
 1100POPC   GL118721  25.528  30.805   9.162
 1100POPC   GL218722  25.232  30.875   8.964
 1100POPC   C1A18723  25.618  30.665   8.728
 1100POPC   D2A18724  25.360  30.572   8.363
 1100POPC   C3A18725  25.512  30.766   7.984
 1100POPC   C4A18726  25.366  30.722   7.518
 1100POPC   C1B18727  24.924  30.691   8.666
 1100POPC   C2B18728  24.857  30.708   8.213
 1100POPC   C3B18729  25.055  30.954   7.881
 1100POPC   C4B18730  25.347  31.212   7.652
 1101POPC   NC318731  18.015   5.446   9.485
 1101POPC   PO418732  18.309   5.977   9.195
 1101POPC   GL118733  18.208   5.629   9.029
 1101POPC   GL218734  17.853   5.664   9.073
 1101POPC   C1A18735  18.485   5.641   8.687
 1101POPC   D2A18736  18.605   6.073   8.576
 1101POPC   C3A18737  18.472   6.117   8.186
 1101POPC   C4A18738  18.414   5.812   7.886
 1101POPC   C1B18739  17.857   5.946   8.756
 1101POPC   C2B18740  18.097   5.881   8.457
 1101POPC   C3B18741  17.996   5.954   8.078
 1101POPC   C4B18742  18.030   6.080   7.645
 1102POPC   NC318743  26.331  22.823   9.536
 1102POPC   PO418744  25.755  22.628   9.708
 1102POPC   GL118745  25.908  22.773   9.263
 1102POPC   GL218746  26.086  23.109   9.172
 1102POPC   C1A18747  26.085  22.735   8.835
 1102POPC   D2A18748  26.012  22.981   8.474
 1102POPC   C3A18749  26.120  22.850   8.063
 1102POPC   C4A18750  25.928  22.994   7.682
 1102POPC   C1B18751  26.388  23.171   8.790
 1102POPC   C2B18752  26.370  23.305   8.332
 1102POPC   C3B18753  26.240  23.315   7.902
 1102POPC   C4B18754  26.210  23.290   7.377
 1103POPC   NC318755  12.993  36.361   9.611
 1103POPC   PO418756  13.108  37.053   9.638
 1103POPC   GL118757  12.845  36.840   9.305
 1103POPC   GL218758  12.578  37.043   9.193
 1103POPC   C1A18759  12.865  36.875   8.817
 1103POPC   D2A18760  12.998  36.601   8.449
 1103POPC   C3A18761  12.905  36.774   8.005
 1103POPC   C4A18762  12.912  36.692   7.529
 1103POPC   C1B18763  12.637  37.342   8.869
 1103POPC   C2B18764  12.745  37.251   8.443
 1103POPC   C3B18765  12.585  37.186   8.016
 1103POPC   C4B18766  12.764  37.158   7.604
 1104POPC   NC318767  10.460  32.630   9.853
 1104POPC   PO418768  10.586  32.157   9.363
 1104POPC   GL118769  10.570  32.095   8.986
 1104POPC   GL218770  10.723  31.773   9.025
 1104POPC   C1A18771  10.481  32.293   8.605
 1104POPC   D2A18772  10.688  32.568   8.348
 1104POPC   C3A18773  10.534  32.419   7.986
 1104POPC   C4A18774  10.457  32.030   7.741
 1104POPC   C1B18775  10.845  31.895   8.612
 1104POPC   C2B18776  10.738  31.941   8.178
 1104POPC   C3B18777  10.954  31.754   7.805
 1104POPC   C4B18778  11.012  31.975   7.403
 1105POPC   NC318779  34.258  34.251   9.437
 1105POPC   PO418780  34.544  33.550   9.553
 1105POPC   GL118781  34.584  33.614   9.128
 1105POPC   GL218782  34.465  33.932   9.066
 1105POPC   C1A18783  34.632  33.579   8.694
 1105POPC   D2A18784  34.548  33.868   8.374
 1105POPC   C3A18785  34.599  33.789   7.968
 1105POPC   C4A18786  34.399  33.553   7.636
 1105POPC   C1B18787  34.247  34.116   8.718
 1105POPC   C2B18788  34.068  34.021   8.287
 1105POPC   C3B18789  34.158  34.022   7.839
 1105POPC   C4B18790  34.538  34.100   7.567
 1106POPC   NC318791  31.870   6.741   9.448
 1106POPC   PO418792  32.437   6.365   9.562
 1106POPC   GL118793  32.315   6.635   9.234
 1106POPC   GL218794  32.145   6.374   9.141
 1106POPC   C1A18795  32.277   6.826   8.848
 1106POPC   D2A18796  32.563   6.917   8.501
 1106POPC   C3A18797  32.622   6.685   8.104
 1106POPC   C4A18798  32.535   6.751   7.686
 1106POPC   C1B18799  31.950   6.442   8.791
 1106POPC   C2B18800  32.111   6.605   8.411
 1106POPC   C3B18801  32.119   6.781   8.022
 1106POPC   C4B18802  32.216   6.392   7.822
 1107POPC   NC318803   4.073  31.441   9.556
 1107POPC   PO418804   4.792  31.302   9.513
 1107POPC   GL118805   4.486  31.413   9.159
 1107POPC   GL218806   4.211  31.171   9.098
 1107POPC   C1A18807   4.315  31.499   8.721
 1107POPC   D2A18808   4.412  31.758   8.358
 1107POPC   C3A18809   4.333  31.619   7.955
 1107POPC   C4A18810   3.934  31.440   7.907
 1107POPC   C1B18811   4.334  30.971   8.677
 1107POPC   C2B18812   4.263  31.164   8.244
 1107POPC   C3B18813   4.318  31.146   7.771
 1107POPC   C4B18814   4.299  31.134   7.292
 1108POPC   NC318815  18.708   0.660   9.264
 1108POPC   PO418816  18.080   0.636   9.483
 1108POPC   GL118817  18.248   0.530   9.047
 1108POPC   GL218818  18.496   0.259   8.947
 1108POPC   C1A18819  18.398   0.626   8.607
 1108POPC   D2A18820  18.311   0.530   8.185
 1108POPC   C3A18821  18.279   0.687   7.776
 1108POPC   C4A18822  18.477   0.907   7.465
 1108POPC   C1B18823  18.152   0.144   8.698
 1108POPC   C2B18824  18.050   0.053   8.252
 1108POPC   C3B18825  18.213   0.177   7.826
 1108POPC   C4B18826  18.016   0.040   7.413
 1109POPC   NC318827  40.963   4.268   9.967
 1109POPC   PO418828  40.612   4.455   9.358
 1109POPC   GL118829  40.878   4.361   9.062
 1109POPC   GL218830  41.109   4.594   8.936
 1109POPC   C1A18831  40.906   4.202   8.675
 1109POPC   D2A18832  40.976   4.444   8.361
 1109POPC   C3A18833  40.944   4.232   7.993
 1109POPC   C4A18834  40.857   4.207   7.565
 1109POPC   C1B18835  40.769   4.763   8.707
 1109POPC   C2B18836  40.581   4.749   8.280
 1109POPC   C3B18837  40.537   4.560   7.840
 1109POPC   C4B18838  40.565   4.557   7.372
 1110POPC   NC318839  28.937  43.319   9.481
 1110POPC   PO418840  28.241  43.235   9.514
 1110POPC   GL118841  28.403  43.218   9.145
 1110POPC   GL218842  28.594  43.554   9.166
 1110POPC   C1A18843  28.227  42.970   8.766
 1110POPC   D2A18844  28.011  42.934   8.360
 1110POPC   C3A18845  28.166  43.152   7.979
 1110POPC   C4A18846  28.211  43.001   7.547
 1110POPC   C1B18847  28.604  43.346   8.717
 1110POPC   C2B18848  28.522  43.101   8.384
 1110POPC   C3B18849  28.679  43.059   8.041
 1110POPC   C4B18850  28.588  43.293   7.707
 1111POPC   NC318851   4.203  33.295   9.630
 1111POPC   PO418852   4.464  32.637   9.433
 1111POPC   GL118853   4.344  33.033   9.217
 1111POPC   GL218854   4.579  33.317   9.282
 1111POPC   C1A18855   4.194  33.268   8.856
 1111POPC   D2A18856   4.124  33.035   8.469
 1111POPC   C3A18857   4.045  32.975   8.037
 1111POPC   C4A18858   4.395  32.809   7.840
 1111POPC   C1B18859   4.686  33.445   8.864
 1111POPC   C2B18860   4.561  33.303   8.445
 1111POPC   C3B18861   4.395  33.365   8.031
 1111POPC   C4B18862   4.540  33.263   7.607
 1112POPC   NC318863  26.989  14.936   9.474
 1112POPC   PO418864  26.406  15.242   9.680
 1112POPC   GL118865  26.626  15.157   9.203
 1112POPC   GL218866  26.939  15.307   9.061
 1112POPC   C1A18867  26.622  15.057   8.750
 1112POPC   D2A18868  26.823  14.767   8.458
 1112POPC   C3A18869  26.831  15.023   8.089
 1112POPC   C4A18870  26.535  15.211   7.795
 1112POPC   C1B18871  27.124  15.131   8.678
 1112POPC   C2B18872  27.222  15.296   8.303
 1112POPC   C3B18873  27.085  15.453   7.916
 1112POPC   C4B18874  27.061  15.177   7.594
 1113POPC   NC318875  31.132  36.967   9.321
 1113POPC   PO418876  30.439  37.038   9.484
 1113POPC   GL118877  30.652  37.161   9.150
 1113POPC   GL218878  30.716  36.822   9.053
 1113POPC   C1A18879  30.915  37.272   8.795
 1113POPC   D2A18880  31.050  37.051   8.434
 1113POPC   C3A18881  30.763  37.026   8.069
 1113POPC   C4A18882  30.625  36.657   7.874
 1113POPC   C1B18883  30.554  36.945   8.668
 1113POPC   C2B18884  30.309  37.083   8.361
 1113POPC   C3B18885  30.195  36.966   7.964
 1113POPC   C4B18886  30.367  36.946   7.528
 1114POPC   NC318887   9.196  36.395   9.834
 1114POPC   PO418888   8.904  35.870   9.373
 1114POPC   GL118889   8.926  35.979   9.013
 1114POPC   GL218890   8.599  36.116   9.009
 1114POPC   C1A18891   9.109  36.147   8.656
 1114POPC   D2A18892   9.395  36.016   8.367
 1114POPC   C3A18893   9.322  36.311   8.108
 1114POPC   C4A18894   9.165  36.457   7.738
 1114POPC   C1B18895   8.629  35.940   8.614
 1114POPC   C2B18896   8.768  36.103   8.228
 1114POPC   C3B18897   8.805  36.048   7.795
 1114POPC   C4B18898   8.904  35.619   7.684
 1115POPC   NC318899  24.577  14.752   9.421
 1115POPC   PO418900  24.317  14.096   9.515
 1115POPC   GL118901  24.546  14.265   9.205
 1115POPC   GL218902  24.274  14.449   9.096
 1115POPC   C1A18903  24.670  14.190   8.778
 1115POPC   D2A18904  24.826  14.326   8.366
 1115POPC   C3A18905  24.583  14.475   8.011
 1115POPC   C4A18906  24.687  14.395   7.585
 1115POPC   C1B18907  24.356  14.580   8.675
 1115POPC   C2B18908  24.188  14.706   8.284
 1115POPC   C3B18909  24.249  14.873   7.863
 1115POPC   C4B18910  24.312  14.759   7.434
 1116POPC   NC318911  17.393  34.651   9.653
 1116POPC   PO418912  17.629  34.115   9.379
 1116POPC   GL118913  17.329  34.382   9.206
 1116POPC   GL218914  17.593  34.620   9.179
 1116POPC   C1A18915  17.191  34.569   8.831
 1116POPC   D2A18916  17.210  34.787   8.463
 1116POPC   C3A18917  17.318  34.577   8.094
 1116POPC   C4A18918  17.359  34.726   7.668
 1116POPC   C1B18919  17.659  34.460   8.762
 1116POPC   C2B18920  17.739  34.689   8.399
 1116POPC   C3B18921  17.789  34.665   7.945
 1116POPC   C4B18922  17.761  34.398   7.558
 1117POPC   NC318923  43.279  30.157   9.468
 1117POPC   PO418924  43.400  29.556   9.354
 1117POPC   GL118925  43.082  29.776   9.106
 1117POPC   GL218926  42.989  30.146   9.060
 1117POPC   C1A18927  43.158  29.857   8.668
 1117POPC   D2A18928  43.021  29.608   8.326
 1117POPC   C3A18929  42.695  29.757   8.080
 1117POPC   C4A18930  42.773  29.872   7.666
 1117POPC   C1B18931  43.059  30.375   8.662
 1117POPC   C2B18932  43.008  30.195   8.231
 1117POPC   C3B18933  43.004  30.338   7.783
 1117POPC   C4B18934  43.220  30.515   7.393
 1118POPC   NC318935  35.723  34.872   9.669
 1118POPC   PO418936  36.118  34.366   9.550
 1118POPC   GL118937  36.279  34.294   9.146
 1118POPC   GL218938  36.131  34.588   9.084
 1118POPC   C1A18939  36.397  34.385   8.685
 1118POPC   D2A18940  36.277  34.651   8.310
 1118POPC   C3A18941  36.259  34.554   7.873
 1118POPC   C4A18942  35.915  34.276   7.826
 1118POPC   C1B18943  35.941  34.657   8.727
 1118POPC   C2B18944  35.766  34.774   8.368
 1118POPC   C3B18945  35.944  34.944   8.039
 1118POPC   C4B18946  35.897  35.290   7.822
 1119POPC   NC318947  30.370  19.336   9.499
 1119POPC   PO418948  31.082  19.211   9.518
 1119POPC   GL118949  30.739  19.063   9.196
 1119POPC   GL218950  30.586  18.730   9.072
 1119POPC   C1A18951  30.785  19.066   8.744
 1119POPC   D2A18952  30.890  19.433   8.464
 1119POPC   C3A18953  30.812  19.259   8.041
 1119POPC   C4A18954  30.593  18.935   7.821
 1119POPC   C1B18955  30.355  18.669   8.670
 1119POPC   C2B18956  30.318  18.779   8.222
 1119POPC   C3B18957  30.215  18.587   7.816
 1119POPC   C4B18958  30.333  18.593   7.374
 1120POPC   NC318959  17.010  40.505   9.182
 1120POPC   PO418960  16.703  40.942   9.513
 1120POPC   GL118961  16.723  40.937   9.063
 1120POPC   GL218962  17.076  41.042   9.056
 1120POPC   C1A18963  16.570  40.668   8.692
 1120POPC   D2A18964  16.649  40.477   8.269
 1120POPC   C3A18965  16.509  40.735   7.921
 1120POPC   C4A18966  16.677  41.114   7.733
 1120POPC   C1B18967  17.088  40.894   8.616
 1120POPC   C2B18968  17.201  40.848   8.170
 1120POPC   C3B18969  17.020  40.728   7.776
 1120POPC   C4B18970  16.733  40.661   7.436
 1121POPC   NC318971  38.998  41.822   9.375
 1121POPC   PO418972  39.235  42.395   9.621
 1121POPC   GL118973  39.057  42.322   9.234
 1121POPC   GL218974  39.351  42.124   9.170
 1121POPC   C1A18975  38.978  42.143   8.800
 1121POPC   D2A18976  38.854  42.312   8.406
 1121POPC   C3A18977  38.905  42.098   8.009
 1121POPC   C4A18978  39.018  42.315   7.642
 1121POPC   C1B18979  39.504  42.100   8.770
 1121POPC   C2B18980  39.365  42.255   8.397
 1121POPC   C3B18981  39.424  42.162   7.980
 1121POPC   C4B18982  39.292  41.902   7.680
 1122POPC   NC318983  29.509  43.817   9.590
 1122POPC   PO418984  28.906  43.780   9.560
 1122POPC   GL118985  28.981  43.911   9.136
 1122POPC   GL218986  29.269  43.726   9.155
 1122POPC   C1A18987  29.277  44.089   8.792
 1122POPC   D2A18988  29.398  44.113   8.341
 1122POPC   C3A18989  29.009  43.969   8.163
 1122POPC   C4A18990  28.853  43.738   7.792
 1122POPC   C1B18991  29.473  43.546   8.786
 1122POPC   C2B18992  29.427  43.615   8.342
 1122POPC   C3B18993  29.389  43.747   7.913
 1122POPC   C4B18994  29.413  43.550   7.532
 1123POPC   NC318995  25.560  11.184   9.518
 1123POPC   PO418996  24.909  11.478   9.557
 1123POPC   GL118997  25.008  11.451   9.121
 1123POPC   GL218998  25.229  11.204   9.134
 1123POPC   C1A18999  25.195  11.502   8.706
 1123POPC   D2A19000  25.166  11.250   8.356
 1123POPC   C3A19001  25.103  11.408   7.969
 1123POPC   C4A19002  25.270  11.263   7.583
 1123POPC   C1B19003  25.528  11.140   8.802
 1123POPC   C2B19004  25.617  10.973   8.425
 1123POPC   C3B19005  25.546  11.109   8.015
 1123POPC   C4B19006  25.711  11.019   7.620
 1124POPC   NC319007  16.553  43.479   9.353
 1124POPC   PO419008  16.973  44.062   9.451
 1124POPC   GL119009  16.652  43.975   9.157
 1124POPC   GL219010  16.477  44.266   9.149
 1124POPC   C1A19011  16.573  43.776   8.755
 1124POPC   D2A19012  16.790  43.699   8.347
 1124POPC   C3A19013  16.550  43.818   7.968
 1124POPC   C4A19014  16.729  44.113   7.673
 1124POPC   C1B19015  16.327  44.287   8.752
 1124POPC   C2B19016  16.453  44.123   8.388
 1124POPC   C3B19017  16.424  44.312   8.024
 1124POPC   C4B19018  16.208  44.334   7.700
 1125POPC   NC319019  41.378   0.943   9.872
 1125POPC   PO419020  40.970   1.328   9.527
 1125POPC   GL119021  40.909   1.362   9.075
 1125POPC   GL219022  41.067   1.686   9.011
 1125POPC   C1A19023  40.716   1.304   8.644
 1125POPC   D2A19024  40.607   1.023   8.284
 1125POPC   C3A19025  40.636   1.212   7.883
 1125POPC   C4A19026  40.725   1.236   7.452
 1125POPC   C1B19027  41.194   1.554   8.573
 1125POPC   C2B19028  40.959   1.476   8.194
 1125POPC   C3B19029  40.982   1.576   7.746
 1125POPC   C4B19030  41.178   1.419   7.397
 1126POPC   NC319031   7.193  15.605   9.461
 1126POPC   PO419032   7.410  15.004   9.386
 1126POPC   GL119033   7.145  15.212   9.077
 1126POPC   GL219034   7.224  15.568   8.956
 1126POPC   C1A19035   7.304  15.206   8.637
 1126POPC   D2A19036   7.398  15.394   8.250
 1126POPC   C3A19037   7.314  15.171   7.875
 1126POPC   C4A19038   7.596  15.111   7.575
 1126POPC   C1B19039   7.554  15.711   8.621
 1126POPC   C2B19040   7.748  15.734   8.192
 1126POPC   C3B19041   7.673  15.542   7.824
 1126POPC   C4B19042   7.436  15.570   7.435
 1127POPC   NC319043  40.887  26.279   9.990
 1127POPC   PO419044  40.736  26.831   9.558
 1127POPC   GL119045  40.763  26.698   9.132
 1127POPC   GL219046  41.077  26.900   9.084
 1127POPC   C1A19047  40.712  26.855   8.725
 1127POPC   D2A19048  40.704  27.065   8.336
 1127POPC   C3A19049  40.496  26.816   8.057
 1127POPC   C4A19050  40.672  26.730   7.665
 1127POPC   C1B19051  41.176  26.548   8.814
 1127POPC   C2B19052  41.158  26.427   8.409
 1127POPC   C3B19053  41.080  26.752   8.082
 1127POPC   C4B19054  41.163  26.674   7.649
 1128POPC   NC319055  32.688  19.154   9.593
 1128POPC   PO419056  33.393  19.112   9.655
 1128POPC   GL119057  33.177  19.112   9.230
 1128POPC   GL219058  33.048  19.408   9.133
 1128POPC   C1A19059  33.043  19.006   8.748
 1128POPC   D2A19060  33.163  18.858   8.291
 1128POPC   C3A19061  32.975  18.929   7.883
 1128POPC   C4A19062  32.807  18.667   7.525
 1128POPC   C1B19063  33.131  19.486   8.687
 1128POPC   C2B19064  33.043  19.356   8.254
 1128POPC   C3B19065  33.036  19.449   7.809
 1128POPC   C4B19066  32.861  19.181   7.448
 1129POPC   NC319067   3.670  34.987   9.405
 1129POPC   PO419068   3.132  35.347   9.711
 1129POPC   GL119069   3.415  35.422   9.268
 1129POPC   GL219070   3.776  35.578   9.249
 1129POPC   C1A19071   3.422  35.291   8.774
 1129POPC   D2A19072   3.284  35.417   8.314
 1129POPC   C3A19073   3.529  35.314   7.907
 1129POPC   C4A19074   3.513  35.473   7.450
 1129POPC   C1B19075   3.929  35.432   8.811
 1129POPC   C2B19076   3.808  35.400   8.353
 1129POPC   C3B19077   3.967  35.569   7.937
 1129POPC   C4B19078   4.029  35.511   7.454
 1130POPC   NC319079   5.700  18.905   9.537
 1130POPC   PO419080   5.369  19.495   9.534
 1130POPC   GL119081   5.647  19.393   9.174
 1130POPC   GL219082   6.016  19.389   9.133
 1130POPC   C1A19083   5.696  19.143   8.807
 1130POPC   D2A19084   5.924  19.069   8.421
 1130POPC   C3A19085   5.716  19.109   8.053
 1130POPC   C4A19086   5.561  18.859   7.741
 1130POPC   C1B19087   6.038  19.503   8.694
 1130POPC   C2B19088   5.966  19.579   8.258
 1130POPC   C3B19089   6.171  19.337   7.946
 1130POPC   C4B19090   6.038  19.073   7.633
 1131POPC   NC319091  30.687  11.642   9.222
 1131POPC   PO419092  30.435  11.040   9.400
 1131POPC   GL119093  30.723  11.141   9.099
 1131POPC   GL219094  31.011  10.945   9.203
 1131POPC   C1A19095  30.766  11.339   8.667
 1131POPC   D2A19096  30.498  11.580   8.356
 1131POPC   C3A19097  30.466  11.538   7.903
 1131POPC   C4A19098  30.586  11.744   7.498
 1131POPC   C1B19099  30.926  10.811   8.799
 1131POPC   C2B19100  30.873  10.931   8.390
 1131POPC   C3B19101  30.852  11.229   8.070
 1131POPC   C4B19102  30.683  11.160   7.656
 1132POPC   NC319103  19.814  44.396   9.641
 1132POPC   PO419104  19.469   0.026   9.519
 1132POPC   GL119105  19.766  44.733   9.238
 1132POPC   GL219106  20.037  44.450   9.211
 1132POPC   C1A19107  19.673  44.497   8.852
 1132POPC   D2A19108  19.649  44.564   8.413
 1132POPC   C3A19109  19.960  44.757   8.178
 1132POPC   C4A19110  19.941  44.768   7.747
 1132POPC   C1B19111  20.167  44.310   8.826
 1132POPC   C2B19112  20.364  44.434   8.466
 1132POPC   C3B19113  20.132  44.283   8.151
 1132POPC   C4B19114  20.036  44.275   7.755
 1133POPC   NC319115  14.019  10.462   9.625
 1133POPC   PO419116  13.596  10.828   9.698
 1133POPC   GL119117  13.628  10.622   9.260
 1133POPC   GL219118  13.392  10.373   9.132
 1133POPC   C1A19119  13.670  10.624   8.768
 1133POPC   D2A19120  13.454  10.480   8.350
 1133POPC   C3A19121  13.629  10.476   7.904
 1133POPC   C4A19122  13.969  10.743   7.742
 1133POPC   C1B19123  13.158  10.609   8.781
 1133POPC   C2B19124  13.038  10.774   8.355
 1133POPC   C3B19125  13.109  10.663   7.919
 1133POPC   C4B19126  13.180  10.506   7.486
 1134POPC   NC319127  32.677   6.852   9.515
 1134POPC   PO419128  33.243   6.372   9.544
 1134POPC   GL119129  33.104   6.608   9.250
 1134POPC   GL219130  32.802   6.468   9.195
 1134POPC   C1A19131  33.158   6.598   8.841
 1134POPC   D2A19132  32.970   6.567   8.469
 1134POPC   C3A19133  33.160   6.700   8.120
 1134POPC   C4A19134  33.079   6.574   7.720
 1134POPC   C1B19135  32.617   6.454   8.817
 1134POPC   C2B19136  32.514   6.286   8.412
 1134POPC   C3B19137  32.652   6.171   8.019
 1134POPC   C4B19138  32.679   6.260   7.611
 1135POPC   NC319139  11.913  32.870   9.396
 1135POPC   PO419140  11.797  33.483   9.697
 1135POPC   GL119141  12.075  33.510   9.246
 1135POPC   GL219142  12.159  33.174   9.055
 1135POPC   C1A19143  12.133  33.542   8.741
 1135POPC   D2A19144  12.191  33.187   8.396
 1135POPC   C3A19145  12.022  33.113   7.953
 1135POPC   C4A19146  11.936  32.980   7.486
 1135POPC   C1B19147  12.157  32.791   8.763
 1135POPC   C2B19148  12.371  32.684   8.407
 1135POPC   C3B19149  12.452  32.840   8.052
 1135POPC   C4B19150  12.209  32.669   7.745
 1136POPC   NC319151   1.033   0.256   9.457
 1136POPC   PO419152   1.537   0.685   9.466
 1136POPC   GL119153   1.406   0.432   9.131
 1136POPC   GL219154   1.132   0.621   9.093
 1136POPC   C1A19155   1.450   0.412   8.687
 1136POPC   D2A19156   1.225   0.649   8.364
 1136POPC   C3A19157   1.169   0.399   7.997
 1136POPC   C4A19158   1.461   0.175   7.762
 1136POPC   C1B19159   0.903   0.698   8.761
 1136POPC   C2B19160   0.743   0.444   8.454
 1136POPC   C3B19161   0.687   0.536   8.033
 1136POPC   C4B19162   0.834   0.540   7.611
 1137POPC   NC319163  31.783  42.921   9.297
 1137POPC   PO419164  32.487  42.895   9.522
 1137POPC   GL119165  32.293  42.859   9.163
 1137POPC   GL219166  32.265  43.217   9.161
 1137POPC   C1A19167  32.165  42.944   8.738
 1137POPC   D2A19168  32.184  42.763   8.350
 1137POPC   C3A19169  32.082  43.021   8.050
 1137POPC   C4A19170  32.243  42.928   7.684
 1137POPC   C1B19171  32.415  43.439   8.801
 1137POPC   C2B19172  32.392  43.272   8.387
 1137POPC   C3B19173  32.360  43.449   7.974
 1137POPC   C4B19174  32.020  43.410   7.666
 1138POPC   NC319175  15.893  36.403   9.500
 1138POPC   PO419176  16.096  37.057   9.467
 1138POPC   GL119177  15.761  37.000   9.155
 1138POPC   GL219178  15.778  36.668   9.103
 1138POPC   C1A19179  15.767  36.928   8.691
 1138POPC   D2A19180  16.055  36.864   8.384
 1138POPC   C3A19181  15.892  36.741   8.010
 1138POPC   C4A19182  15.703  36.976   7.687
 1138POPC   C1B19183  16.080  36.507   8.778
 1138POPC   C2B19184  16.155  36.343   8.337
 1138POPC   C3B19185  16.303  36.441   7.909
 1138POPC   C4B19186  16.130  36.680   7.561
 1139POPC   NC319187   9.192  34.507   9.559
 1139POPC   PO419188   8.634  34.960   9.457
 1139POPC   GL119189   8.983  34.768   9.171
 1139POPC   GL219190   9.391  34.739   9.143
 1139POPC   C1A19191   9.081  34.856   8.741
 1139POPC   D2A19192   8.766  34.912   8.422
 1139POPC   C3A19193   8.906  34.715   8.065
 1139POPC   C4A19194   8.943  34.871   7.687
 1139POPC   C1B19195   9.207  34.380   8.894
 1139POPC   C2B19196   9.329  34.310   8.483
 1139POPC   C3B19197   9.264  34.338   8.079
 1139POPC   C4B19198   9.067  34.379   7.684
 1140POPC   NC319199  30.923   4.412   9.564
 1140POPC   PO419200  30.312   4.043   9.495
 1140POPC   GL119201  30.599   4.146   9.165
 1140POPC   GL219202  30.610   4.496   9.161
 1140POPC   C1A19203  30.796   4.289   8.752
 1140POPC   D2A19204  30.820   4.589   8.418
 1140POPC   C3A19205  30.826   4.393   8.011
 1140POPC   C4A19206  30.673   4.019   7.818
 1140POPC   C1B19207  30.418   4.650   8.785
 1140POPC   C2B19208  30.319   4.806   8.379
 1140POPC   C3B19209  30.403   4.703   7.949
 1140POPC   C4B19210  30.542   4.462   7.591
 1141POPC   NC319211  43.452  40.212   9.461
 1141POPC   PO419212  43.460  39.669   9.013
 1141POPC   GL119213  43.847  39.854   8.942
 1141POPC   GL219214  43.861  40.066   9.185
 1141POPC   C1A19215  44.132  39.863   8.606
 1141POPC   D2A19216  44.192  39.765   8.151
 1141POPC   C3A19217  43.849  39.836   7.853
 1141POPC   C4A19218  43.447  39.933   7.647
 1141POPC   C1B19219  43.851  40.367   8.864
 1141POPC   C2B19220  43.919  40.357   8.430
 1141POPC   C3B19221  43.691  40.273   8.063
 1141POPC   C4B19222  43.822  40.285   7.635
 1142POPC   NC319223  15.607  35.468   9.616
 1142POPC   PO419224  16.268  35.327   9.538
 1142POPC   GL119225  16.013  35.268   9.174
 1142POPC   GL219226  15.673  35.081   9.085
 1142POPC   C1A19227  15.871  35.531   8.869
 1142POPC   D2A19228  15.973  35.543   8.438
 1142POPC   C3A19229  15.893  35.260   8.078
 1142POPC   C4A19230  16.124  35.536   7.787
 1142POPC   C1B19231  15.699  35.148   8.585
 1142POPC   C2B19232  15.483  35.512   8.321
 1142POPC   C3B19233  15.635  35.671   7.912
 1142POPC   C4B19234  15.704  35.429   7.527
 1143POPC   NC319235  12.103  14.049   9.559
 1143POPC   PO419236  12.153  14.764   9.509
 1143POPC   GL119237  12.233  14.481   9.150
 1143POPC   GL219238  12.190  14.107   9.070
 1143POPC   C1A19239  12.309  14.445   8.714
 1143POPC   D2A19240  12.095  14.478   8.340
 1143POPC   C3A19241  12.284  14.195   8.079
 1143POPC   C4A19242  12.197  14.053   7.690
 1143POPC   C1B19243  11.837  14.233   8.778
 1143POPC   C2B19244  11.728  14.110   8.358
 1143POPC   C3B19245  11.730  14.316   7.975
 1143POPC   C4B19246  11.682  14.068   7.641
 1144POPC   NC319247   6.730  18.931   9.659
 1144POPC   PO419248   6.122  18.774   9.682
 1144POPC   GL119249   6.259  18.948   9.279
 1144POPC   GL219250   6.515  19.223   9.246
 1144POPC   C1A19251   6.245  19.053   8.829
 1144POPC   D2A19252   6.421  19.285   8.460
 1144POPC   C3A19253   6.588  19.039   8.183
 1144POPC   C4A19254   6.462  18.871   7.809
 1144POPC   C1B19255   6.760  19.118   8.841
 1144POPC   C2B19256   7.107  19.002   8.579
 1144POPC   C3B19257   7.094  18.911   8.150
 1144POPC   C4B19258   6.909  19.163   7.814
 1145POPC   NC319259  24.916  11.922   9.718
 1145POPC   PO419260  25.479  12.299   9.547
 1145POPC   GL119261  25.228  11.973   9.295
 1145POPC   GL219262  25.444  11.677   9.247
 1145POPC   C1A19263  25.108  11.965   8.844
 1145POPC   D2A19264  25.393  12.015   8.465
 1145POPC   C3A19265  25.228  12.139   8.056
 1145POPC   C4A19266  25.463  12.298   7.680
 1145POPC   C1B19267  25.646  11.708   8.834
 1145POPC   C2B19268  25.616  11.522   8.406
 1145POPC   C3B19269  25.583  11.628   7.989
 1145POPC   C4B19270  25.330  11.795   7.701
 1146POPC   NC319271  18.760  40.334   9.495
 1146POPC   PO419272  19.268  40.796   9.497
 1146POPC   GL119273  19.136  40.782   9.094
 1146POPC   GL219274  18.797  40.736   9.141
 1146POPC   C1A19275  18.966  40.819   8.685
 1146POPC   D2A19276  18.733  40.762   8.354
 1146POPC   C3A19277  18.993  40.994   8.046
 1146POPC   C4A19278  18.964  41.217   7.682
 1146POPC   C1B19279  18.971  40.357   8.899
 1146POPC   C2B19280  19.064  40.296   8.490
 1146POPC   C3B19281  19.094  40.495   8.132
 1146POPC   C4B19282  19.025  40.573   7.729
 1147POPC   NC319283   7.327  16.156   9.603
 1147POPC   PO419284   7.610  15.680   9.261
 1147POPC   GL119285   7.451  16.053   9.107
 1147POPC   GL219286   7.131  16.219   9.079
 1147POPC   C1A19287   7.521  16.284   8.758
 1147POPC   D2A19288   7.531  16.167   8.360
 1147POPC   C3A19289   7.314  16.013   8.051
 1147POPC   C4A19290   7.579  16.021   7.720
 1147POPC   C1B19291   7.110  15.969   8.687
 1147POPC   C2B19292   6.985  15.725   8.344
 1147POPC   C3B19293   7.049  15.601   7.925
 1147POPC   C4B19294   7.001  15.795   7.561
 1148POPC   NC319295  11.949  39.576   9.611
 1148POPC   PO419296  12.047  38.890   9.548
 1148POPC   GL119297  12.274  39.262   9.307
 1148POPC   GL219298  12.080  39.430   9.100
 1148POPC   C1A19299  12.472  39.205   8.883
 1148POPC   D2A19300  12.285  39.028   8.493
 1148POPC   C3A19301  12.120  39.326   8.217
 1148POPC   C4A19302  12.102  39.273   7.771
 1148POPC   C1B19303  11.965  39.034   8.901
 1148POPC   C2B19304  11.770  38.983   8.492
 1148POPC   C3B19305  11.792  38.943   8.073
 1148POPC   C4B19306  11.660  39.035   7.687
 1149POPC   NC319307  24.020  23.992   9.464
 1149POPC   PO419308  24.456  23.587   9.817
 1149POPC   GL119309  24.476  23.698   9.354
 1149POPC   GL219310  24.750  23.514   9.183
 1149POPC   C1A19311  24.467  23.888   8.892
 1149POPC   D2A19312  24.586  24.120   8.475
 1149POPC   C3A19313  24.450  24.042   8.023
 1149POPC   C4A19314  24.151  23.791   7.772
 1149POPC   C1B19315  24.687  23.477   8.701
 1149POPC   C2B19316  24.520  23.568   8.254
 1149POPC   C3B19317  24.464  23.361   7.823
 1149POPC   C4B19318  24.722  23.187   7.472
 1150POPC   NC319319  29.994   0.072   9.709
 1150POPC   PO419320  29.545  44.548   9.513
 1150POPC   GL119321  29.765  44.861   9.257
 1150POPC   GL219322  30.128  44.807   9.181
 1150POPC   C1A19323  29.811  44.992   8.817
 1150POPC   D2A19324  30.182  44.916   8.532
 1150POPC   C3A19325  30.090  44.990   8.107
 1150POPC   C4A19326  29.796   0.010   7.782
 1150POPC   C1B19327  30.307  44.505   8.840
 1150POPC   C2B19328  30.370  44.423   8.377
 1150POPC   C3B19329  30.302  44.549   7.941
 1150POPC   C4B19330  30.332  44.345   7.553
 1151POPC   NC319331  13.177   2.613   9.452
 1151POPC   PO419332  12.574   2.923   9.456
 1151POPC   GL119333  12.854   2.837   9.109
 1151POPC   GL219334  12.926   2.473   9.052
 1151POPC   C1A19335  13.125   2.828   8.744
 1151POPC   D2A19336  13.168   2.918   8.319
 1151POPC   C3A19337  12.918   2.733   8.000
 1151POPC   C4A19338  12.622   2.922   7.703
 1151POPC   C1B19339  13.255   2.322   8.770
 1151POPC   C2B19340  13.148   2.395   8.362
 1151POPC   C3B19341  13.212   2.299   7.953
 1151POPC   C4B19342  13.079   2.481   7.550
 1152POPC   NC319343  14.216  31.759   9.513
 1152POPC   PO419344  14.752  31.312   9.486
 1152POPC   GL119345  14.464  31.441   9.166
 1152POPC   GL219346  14.178  31.214   9.128
 1152POPC   C1A19347  14.491  31.330   8.731
 1152POPC   D2A19348  14.730  31.476   8.394
 1152POPC   C3A19349  14.577  31.533   7.985
 1152POPC   C4A19350  14.531  31.203   7.676
 1152POPC   C1B19351  14.044  31.578   8.851
 1152POPC   C2B19352  14.204  31.598   8.402
 1152POPC   C3B19353  14.075  31.527   7.973
 1152POPC   C4B19354  14.112  31.468   7.523
 1153POPC   NC319355   3.166   5.222   9.432
 1153POPC   PO419356   3.774   5.621   9.590
 1153POPC   GL119357   3.652   5.281   9.263
 1153POPC   GL219358   3.820   4.963   9.307
 1153POPC   C1A19359   3.434   5.138   8.838
 1153POPC   D2A19360   3.260   4.898   8.477
 1153POPC   C3A19361   3.378   5.046   8.062
 1153POPC   C4A19362   3.447   5.310   7.663
 1153POPC   C1B19363   3.922   4.989   8.866
 1153POPC   C2B19364   3.979   4.664   8.518
 1153POPC   C3B19365   3.722   4.593   8.118
 1153POPC   C4B19366   3.795   4.903   7.790
 1154POPC   NC319367   2.780  16.383   9.458
 1154POPC   PO419368   2.569  15.774   9.526
 1154POPC   GL119369   2.761  15.872   9.121
 1154POPC   GL219370   2.488  15.717   9.009
 1154POPC   C1A19371   3.054  15.999   8.776
 1154POPC   D2A19372   3.230  16.057   8.365
 1154POPC   C3A19373   2.893  16.201   8.092
 1154POPC   C4A19374   2.737  16.259   7.684
 1154POPC   C1B19375   2.643  15.655   8.610
 1154POPC   C2B19376   2.861  15.719   8.234
 1154POPC   C3B19377   2.820  15.736   7.786
 1154POPC   C4B19378   2.679  15.621   7.357
 1155POPC   NC319379  44.402  17.741   9.556
 1155POPC   PO419380  43.803  17.336   9.541
 1155POPC   GL119381  43.752  17.386   9.125
 1155POPC   GL219382  43.415  17.455   9.034
 1155POPC   C1A19383  43.839  17.687   8.821
 1155POPC   D2A19384  43.915  17.615   8.408
 1155POPC   C3A19385  43.706  17.752   8.048
 1155POPC   C4A19386  43.967  17.852   7.690
 1155POPC   C1B19387  43.430  17.493   8.582
 1155POPC   C2B19388  43.541  17.268   8.264
 1155POPC   C3B19389  43.484  17.272   7.875
 1155POPC   C4B19390  43.785  17.372   7.631
 1156POPC   NC319391  40.922  18.635   9.763
 1156POPC   PO419392  41.001  19.113   9.318
 1156POPC   GL119393  40.750  19.118   8.987
 1156POPC   GL219394  40.880  18.793   8.940
 1156POPC   C1A19395  40.652  19.113   8.564
 1156POPC   D2A19396  40.693  19.342   8.189
 1156POPC   C3A19397  40.435  19.177   7.858
 1156POPC   C4A19398  40.562  19.079   7.410
 1156POPC   C1B19399  41.164  19.055   8.685
 1156POPC   C2B19400  41.081  19.018   8.277
 1156POPC   C3B19401  40.860  18.906   7.915
 1156POPC   C4B19402  41.018  18.886   7.481
 1157POPC   NC319403   0.038  38.732   9.517
 1157POPC   PO419404  44.822  38.166   9.377
 1157POPC   GL119405  44.557  38.285   9.121
 1157POPC   GL219406  44.596  38.633   9.211
 1157POPC   C1A19407  44.677  38.290   8.726
 1157POPC   D2A19408  44.485  38.337   8.384
 1157POPC   C3A19409  44.793  38.190   8.159
 1157POPC   C4A19410  44.751  38.229   7.752
 1157POPC   C1B19411  44.810  38.772   8.849
 1157POPC   C2B19412  44.944  38.647   8.440
 1157POPC   C3B19413  44.753  38.681   8.073
 1157POPC   C4B19414  44.760  38.748   7.660
 1158POPC   NC319415  13.934  14.208   9.429
 1158POPC   PO419416  13.306  14.439   9.517
 1158POPC   GL119417  13.545  14.455   9.151
 1158POPC   GL219418  13.848  14.658   9.222
 1158POPC   C1A19419  13.460  14.289   8.748
 1158POPC   D2A19420  13.427  14.457   8.348
 1158POPC   C3A19421  13.312  14.302   7.950
 1158POPC   C4A19422  13.392  14.389   7.518
 1158POPC   C1B19423  13.952  14.721   8.792
 1158POPC   C2B19424  13.885  14.717   8.334
 1158POPC   C3B19425  13.828  14.353   8.037
 1158POPC   C4B19426  13.896  14.308   7.601
 1159POPC   NC319427  29.130  42.141   9.468
 1159POPC   PO419428  28.965  42.853   9.372
 1159POPC   GL119429  29.029  42.502   9.106
 1159POPC   GL219430  29.334  42.530   8.899
 1159POPC   C1A19431  28.831  42.276   8.807
 1159POPC   D2A19432  28.837  42.088   8.424
 1159POPC   C3A19433  28.806  42.360   8.052
 1159POPC   C4A19434  29.008  42.422   7.648
 1159POPC   C1B19435  29.317  42.149   8.737
 1159POPC   C2B19436  29.341  41.972   8.324
 1159POPC   C3B19437  29.228  42.002   7.908
 1159POPC   C4B19438  29.514  41.932   7.555
 1160POPC   NC319439  17.326  13.532   9.382
 1160POPC   PO419440  17.777  13.997   9.293
 1160POPC   GL119441  17.661  13.689   8.997
 1160POPC   GL219442  17.579  13.314   8.991
 1160POPC   C1A19443  17.519  13.739   8.608
 1160POPC   D2A19444  17.704  13.634   8.248
 1160POPC   C3A19445  17.623  13.933   7.899
 1160POPC   C4A19446  17.493  13.827   7.515
 1160POPC   C1B19447  17.226  13.333   8.709
 1160POPC   C2B19448  17.120  13.531   8.313
 1160POPC   C3B19449  17.319  13.537   7.916
 1160POPC   C4B19450  17.750  13.435   7.764
 1161POPC   NC319451  20.815  39.926   9.552
 1161POPC   PO419452  20.228  39.986   9.245
 1161POPC   GL119453  20.561  39.926   9.035
 1161POPC   GL219454  20.834  40.144   9.079
 1161POPC   C1A19455  20.677  39.966   8.624
 1161POPC   D2A19456  20.848  40.021   8.246
 1161POPC   C3A19457  20.483  40.064   7.997
 1161POPC   C4A19458  20.303  39.744   7.766
 1161POPC   C1B19459  20.842  40.443   8.674
 1161POPC   C2B19460  20.946  40.543   8.218
 1161POPC   C3B19461  20.913  40.282   7.820
 1161POPC   C4B19462  20.870  39.810   7.736
 1162POPC   NC319463  20.731  28.878   9.838
 1162POPC   PO419464  20.726  28.274   9.456
 1162POPC   GL119465  20.453  28.432   9.148
 1162POPC   GL219466  20.446  28.102   9.014
 1162POPC   C1A19467  20.404  28.554   8.706
 1162POPC   D2A19468  20.483  28.814   8.341
 1162POPC   C3A19469  20.678  28.551   8.064
 1162POPC   C4A19470  20.798  28.650   7.684
 1162POPC   C1B19471  20.830  28.259   8.819
 1162POPC   C2B19472  20.805  28.181   8.428
 1162POPC   C3B19473  20.692  27.910   8.109
 1162POPC   C4B19474  20.669  28.133   7.752
 1163POPC   NC319475  36.501  17.365   9.314
 1163POPC   PO419476  37.124  17.651   9.483
 1163POPC   GL119477  37.015  17.421   9.112
 1163POPC   GL219478  36.950  17.060   9.159
 1163POPC   C1A19479  36.842  17.533   8.706
 1163POPC   D2A19480  36.793  17.826   8.385
 1163POPC   C3A19481  37.014  17.803   7.999
 1163POPC   C4A19482  36.996  17.536   7.657
 1163POPC   C1B19483  36.710  17.044   8.777
 1163POPC   C2B19484  36.473  17.283   8.460
 1163POPC   C3B19485  36.637  17.426   8.074
 1163POPC   C4B19486  36.550  17.196   7.699
 1164POPC   NC319487   2.107  38.825   9.322
 1164POPC   PO419488   1.788  39.372   9.587
 1164POPC   GL119489   1.910  39.508   9.168
 1164POPC   GL219490   2.069  39.203   8.990
 1164POPC   C1A19491   1.947  39.597   8.715
 1164POPC   D2A19492   1.949  39.270   8.406
 1164POPC   C3A19493   2.088  39.399   8.012
 1164POPC   C4A19494   2.029  39.287   7.584
 1164POPC   C1B19495   1.785  38.901   8.740
 1164POPC   C2B19496   1.759  38.756   8.328
 1164POPC   C3B19497   1.899  38.917   7.941
 1164POPC   C4B19498   1.602  39.002   7.613
 1165POPC   NC319499   5.501   8.742   9.275
 1165POPC   PO419500   5.219   9.326   9.561
 1165POPC   GL119501   5.154   9.065   9.126
 1165POPC   GL219502   5.034   8.713   9.092
 1165POPC   C1A19503   5.334   9.084   8.718
 1165POPC   D2A19504   5.551   9.064   8.326
 1165POPC   C3A19505   5.310   9.139   7.999
 1165POPC   C4A19506   5.330   8.825   7.681
 1165POPC   C1B19507   4.889   8.796   8.712
 1165POPC   C2B19508   5.089   8.811   8.339
 1165POPC   C3B19509   4.891   8.865   7.965
 1165POPC   C4B19510   4.821   8.625   7.649
 1166POPC   NC319511  25.531  13.236   9.387
 1166POPC   PO419512  25.178  13.832   9.459
 1166POPC   GL119513  25.115  13.478   9.209
 1166POPC   GL219514  24.777  13.365   9.168
 1166POPC   C1A19515  25.288  13.418   8.790
 1166POPC   D2A19516  25.290  13.715   8.454
 1166POPC   C3A19517  25.457  13.540   8.107
 1166POPC   C4A19518  25.263  13.603   7.751
 1166POPC   C1B19519  24.863  13.709   8.841
 1166POPC   C2B19520  24.754  13.815   8.422
 1166POPC   C3B19521  24.846  13.604   8.064
 1166POPC   C4B19522  24.773  13.564   7.651
 1167POPC   NC319523  31.901  40.504   9.532
 1167POPC   PO419524  31.331  40.918   9.502
 1167POPC   GL119525  31.590  40.929   9.144
 1167POPC   GL219526  31.688  40.593   9.079
 1167POPC   C1A19527  31.502  40.931   8.703
 1167POPC   D2A19528  31.622  40.871   8.256
 1167POPC   C3A19529  31.349  40.962   7.910
 1167POPC   C4A19530  31.091  40.727   7.571
 1167POPC   C1B19531  31.296  40.477   8.929
 1167POPC   C2B19532  31.368  40.480   8.505
 1167POPC   C3B19533  31.263  40.454   8.094
 1167POPC   C4B19534  31.502  40.495   7.770
 1168POPC   NC319535  31.922  31.283   9.363
 1168POPC   PO419536  31.480  31.743   9.585
 1168POPC   GL119537  31.524  31.656   9.197
 1168POPC   GL219538  31.866  31.774   9.220
 1168POPC   C1A19539  31.367  31.496   8.804
 1168POPC   D2A19540  31.587  31.410   8.430
 1168POPC   C3A19541  31.429  31.283   8.079
 1168POPC   C4A19542  31.238  31.538   7.809
 1168POPC   C1B19543  31.852  31.649   8.809
 1168POPC   C2B19544  31.838  31.859   8.435
 1168POPC   C3B19545  31.657  31.773   8.073
 1168POPC   C4B19546  31.748  31.586   7.714
 1169POPC   NC319547   1.657  16.844   9.791
 1169POPC   PO419548   2.313  16.589   9.521
 1169POPC   GL119549   2.110  16.667   9.092
 1169POPC   GL219550   1.790  16.513   8.950
 1169POPC   C1A19551   2.037  16.865   8.662
 1169POPC   D2A19552   1.926  17.129   8.278
 1169POPC   C3A19553   2.038  16.957   7.877
 1169POPC   C4A19554   1.709  16.765   7.645
 1169POPC   C1B19555   2.068  16.330   8.690
 1169POPC   C2B19556   2.307  16.503   8.377
 1169POPC   C3B19557   2.020  16.476   8.052
 1169POPC   C4B19558   1.977  16.300   7.667
 1170POPC   NC319559  17.637  26.765   9.519
 1170POPC   PO419560  16.995  26.807   9.215
 1170POPC   GL119561  17.429  26.812   9.036
 1170POPC   GL219562  17.759  26.651   9.046
 1170POPC   C1A19563  17.657  26.967   8.664
 1170POPC   D2A19564  17.410  26.922   8.289
 1170POPC   C3A19565  17.427  27.176   7.897
 1170POPC   C4A19566  17.867  27.142   7.704
 1170POPC   C1B19567  17.566  26.415   8.716
 1170POPC   C2B19568  17.785  26.282   8.365
 1170POPC   C3B19569  17.929  26.590   8.070
 1170POPC   C4B19570  17.576  26.693   7.858
 1171POPC   NC319571   6.120  14.353   9.308
 1171POPC   PO419572   5.623  14.738   9.367
 1171POPC   GL119573   5.700  14.469   9.021
 1171POPC   GL219574   5.617  14.116   9.121
 1171POPC   C1A19575   6.012  14.529   8.697
 1171POPC   D2A19576   6.049  14.787   8.386
 1171POPC   C3A19577   5.843  14.530   8.129
 1171POPC   C4A19578   5.835  14.547   7.728
 1171POPC   C1B19579   5.893  14.045   8.758
 1171POPC   C2B19580   6.109  14.122   8.360
 1171POPC   C3B19581   6.120  14.133   7.905
 1171POPC   C4B19582   5.694  14.076   7.781
 1172POPC   NC319583  12.183  34.906   9.507
 1172POPC   PO419584  11.816  34.281   9.628
 1172POPC   GL119585  11.980  34.497   9.288
 1172POPC   GL219586  11.784  34.739   9.157
 1172POPC   C1A19587  12.045  34.407   8.868
 1172POPC   D2A19588  12.004  34.516   8.463
 1172POPC   C3A19589  12.145  34.254   8.145
 1172POPC   C4A19590  12.298  34.349   7.747
 1172POPC   C1B19591  11.929  34.907   8.802
 1172POPC   C2B19592  12.135  35.026   8.438
 1172POPC   C3B19593  12.014  34.839   8.066
 1172POPC   C4B19594  11.932  34.718   7.682
 1173POPC   NC319595  21.383  11.470   9.552
 1173POPC   PO419596  21.174  10.839   9.610
 1173POPC   GL119597  21.375  11.041   9.249
 1173POPC   GL219598  21.110  11.267   9.142
 1173POPC   C1A19599  21.571  11.286   8.891
 1173POPC   D2A19600  21.619  11.264   8.450
 1173POPC   C3A19601  21.769  11.500   8.118
 1173POPC   C4A19602  21.628  11.241   7.762
 1173POPC   C1B19603  21.120  11.288   8.693
 1173POPC   C2B19604  21.250  11.610   8.380
 1173POPC   C3B19605  21.265  11.537   7.972
 1173POPC   C4B19606  21.085  11.186   7.818
 1174POPC   NC319607  34.833  20.362   9.456
 1174POPC   PO419608  35.108  20.893   9.700
 1174POPC   GL119609  35.161  20.739   9.200
 1174POPC   GL219610  35.010  20.496   8.989
 1174POPC   C1A19611  35.442  20.622   8.767
 1174POPC   D2A19612  35.668  20.674   8.347
 1174POPC   C3A19613  35.625  20.487   7.926
 1174POPC   C4A19614  35.426  20.541   7.504
 1174POPC   C1B19615  34.961  20.783   8.679
 1174POPC   C2B19616  35.054  20.544   8.323
 1174POPC   C3B19617  35.114  20.546   7.899
 1174POPC   C4B19618  35.006  20.885   7.643
 1175POPC   NC319619  38.275  41.396   9.589
 1175POPC   PO419620  38.965  41.432   9.605
 1175POPC   GL119621  38.702  41.458   9.198
 1175POPC   GL219622  38.527  41.203   9.170
 1175POPC   C1A19623  38.563  41.740   8.824
 1175POPC   D2A19624  38.756  41.808   8.418
 1175POPC   C3A19625  38.578  41.614   8.048
 1175POPC   C4A19626  38.523  41.889   7.702
 1175POPC   C1B19627  38.635  41.237   8.747
 1175POPC   C2B19628  38.369  41.270   8.409
 1175POPC   C3B19629  37.997  41.402   8.137
 1175POPC   C4B19630  38.166  41.463   7.723
 1176POPC   NC319631  37.132  14.703   9.547
 1176POPC   PO419632  36.613  14.354   9.714
 1176POPC   GL119633  36.773  14.436   9.255
 1176POPC   GL219634  37.093  14.481   9.081
 1176POPC   C1A19635  36.696  14.663   8.837
 1176POPC   D2A19636  36.739  14.477   8.422
 1176POPC   C3A19637  36.858  14.581   7.986
 1176POPC   C4A19638  36.751  14.523   7.548
 1176POPC   C1B19639  37.356  14.262   8.765
 1176POPC   C2B19640  37.463  14.138   8.308
 1176POPC   C3B19641  37.393  14.311   7.856
 1176POPC   C4B19642  37.181  14.277   7.426
 1177POPC   NC319643   2.629   8.014   9.527
 1177POPC   PO419644   3.237   8.269   9.648
 1177POPC   GL119645   2.907   8.318   9.264
 1177POPC   GL219646   2.846   8.007   9.057
 1177POPC   C1A19647   2.745   8.459   8.891
 1177POPC   D2A19648   2.702   8.160   8.551
 1177POPC   C3A19649   2.778   8.259   8.132
 1177POPC   C4A19650   2.600   8.406   7.774
 1177POPC   C1B19651   2.527   7.784   8.847
 1177POPC   C2B19652   2.465   7.691   8.383
 1177POPC   C3B19653   2.551   7.856   7.913
 1177POPC   C4B19654   2.533   8.016   7.456
 1178POPC   NC319655   5.424  16.073   9.327
 1178POPC   PO419656   6.040  15.970   9.430
 1178POPC   GL119657   6.083  16.049   9.017
 1178POPC   GL219658   5.823  16.310   9.071
 1178POPC   C1A19659   5.919  15.742   8.722
 1178POPC   D2A19660   5.532  15.680   8.465
 1178POPC   C3A19661   5.684  15.627   8.035
 1178POPC   C4A19662   5.744  15.662   7.570
 1178POPC   C1B19663   5.692  16.219   8.655
 1178POPC   C2B19664   5.868  16.036   8.316
 1178POPC   C3B19665   5.858  16.098   7.916
 1178POPC   C4B19666   6.141  15.969   7.639
 1179POPC   NC319667  26.361  43.735   9.571
 1179POPC   PO419668  25.741  43.940   9.484
 1179POPC   GL119669  25.943  44.097   9.154
 1179POPC   GL219670  26.074  43.785   9.092
 1179POPC   C1A19671  25.766  44.093   8.755
 1179POPC   D2A19672  25.928  44.154   8.375
 1179POPC   C3A19673  25.797  43.881   8.085
 1179POPC   C4A19674  25.924  44.071   7.706
 1179POPC   C1B19675  26.263  43.906   8.688
 1179POPC   C2B19676  26.277  43.764   8.256
 1179POPC   C3B19677  26.383  43.816   7.801
 1179POPC   C4B19678  26.279  43.928   7.360
 1180POPC   NC319679  35.130  35.488   9.587
 1180POPC   PO419680  35.775  35.304   9.499
 1180POPC   GL119681  35.451  35.417   9.166
 1180POPC   GL219682  35.390  35.763   9.005
 1180POPC   C1A19683  35.269  35.334   8.757
 1180POPC   D2A19684  35.511  35.248   8.388
 1180POPC   C3A19685  35.430  35.085   8.003
 1180POPC   C4A19686  35.070  35.128   7.745
 1180POPC   C1B19687  35.654  35.695   8.641
 1180POPC   C2B19688  35.592  35.753   8.199
 1180POPC   C3B19689  35.455  35.565   7.817
 1180POPC   C4B19690  35.752  35.620   7.468
 1181POPC   NC319691  13.406  42.024   9.558
 1181POPC   PO419692  13.290  42.729   9.471
 1181POPC   GL119693  13.475  42.638   9.105
 1181POPC   GL219694  13.756  42.438   9.235
 1181POPC   C1A19695  13.801  42.629   8.760
 1181POPC   D2A19696  13.846  42.353   8.393
 1181POPC   C3A19697  13.493  42.460   8.120
 1181POPC   C4A19698  13.328  42.653   7.758
 1181POPC   C1B19699  13.524  42.177   8.905
 1181POPC   C2B19700  13.367  42.111   8.499
 1181POPC   C3B19701  13.521  41.939   8.132
 1181POPC   C4B19702  13.314  42.124   7.752
 1182POPC   NC319703  23.306  10.451   9.572
 1182POPC   PO419704  22.730  10.862   9.543
 1182POPC   GL119705  22.789  10.579   9.171
 1182POPC   GL219706  22.518  10.329   9.070
 1182POPC   C1A19707  22.959  10.481   8.766
 1182POPC   D2A19708  23.232  10.529   8.415
 1182POPC   C3A19709  23.066  10.536   8.015
 1182POPC   C4A19710  23.120  10.275   7.655
 1182POPC   C1B19711  22.473  10.214   8.641
 1182POPC   C2B19712  22.536  10.026   8.228
 1182POPC   C3B19713  22.631  10.274   7.859
 1182POPC   C4B19714  22.759  10.644   7.605
 1183POPC   NC319715  15.848  39.356   9.607
 1183POPC   PO419716  16.041  38.709   9.514
 1183POPC   GL119717  16.027  39.107   9.203
 1183POPC   GL219718  15.759  39.427   9.110
 1183POPC   C1A19719  16.109  39.234   8.782
 1183POPC   D2A19720  15.876  39.289   8.409
 1183POPC   C3A19721  16.084  39.188   8.032
 1183POPC   C4A19722  16.010  39.372   7.638
 1183POPC   C1B19723  15.561  39.668   8.744
 1183POPC   C2B19724  15.589  39.691   8.276
 1183POPC   C3B19725  15.585  39.369   7.941
 1183POPC   C4B19726  15.529  38.921   7.779
 1184POPC   NC319727   5.189   7.773   9.400
 1184POPC   PO419728   5.275   8.396   9.462
 1184POPC   GL119729   5.206   8.228   9.089
 1184POPC   GL219730   4.883   8.191   9.103
 1184POPC   C1A19731   5.237   8.405   8.691
 1184POPC   D2A19732   5.478   8.451   8.315
 1184POPC   C3A19733   5.200   8.433   7.987
 1184POPC   C4A19734   5.203   8.307   7.569
 1184POPC   C1B19735   4.904   7.910   8.767
 1184POPC   C2B19736   5.057   8.044   8.371
 1184POPC   C3B19737   4.905   7.998   7.989
 1184POPC   C4B19738   4.735   8.098   7.620
 1185POPC   NC319739  20.029   1.873   9.350
 1185POPC   PO419740  19.563   2.309   9.480
 1185POPC   GL119741  19.849   2.307   9.162
 1185POPC   GL219742  19.640   2.046   9.017
 1185POPC   C1A19743  19.996   2.302   8.757
 1185POPC   D2A19744  19.652   2.239   8.487
 1185POPC   C3A19745  19.734   2.215   8.079
 1185POPC   C4A19746  19.462   2.142   7.752
 1185POPC   C1B19747  19.814   1.812   8.683
 1185POPC   C2B19748  19.676   1.744   8.283
 1185POPC   C3B19749  19.813   1.733   7.876
 1185POPC   C4B19750  20.058   1.712   7.493
 1186POPC   NC319751  18.964  41.140   9.451
 1186POPC   PO419752  19.414  41.593   9.467
 1186POPC   GL119753  19.092  41.567   9.137
 1186POPC   GL219754  18.968  41.265   8.956
 1186POPC   C1A19755  18.996  41.762   8.749
 1186POPC   D2A19756  19.123  41.860   8.320
 1186POPC   C3A19757  18.954  41.651   7.962
 1186POPC   C4A19758  18.973  41.693   7.487
 1186POPC   C1B19759  18.897  41.306   8.508
 1186POPC   C2B19760  19.264  41.364   8.259
 1186POPC   C3B19761  19.443  41.341   7.866
 1186POPC   C4B19762  19.389  41.408   7.423
 1187POPC   NC319763  15.743  32.800   9.183
 1187POPC   PO419764  16.021  32.414   9.726
 1187POPC   GL119765  16.093  32.353   9.209
 1187POPC   GL219766  16.411  32.168   9.059
 1187POPC   C1A19767  15.997  32.120   8.775
 1187POPC   D2A19768  16.080  31.885   8.362
 1187POPC   C3A19769  16.072  32.172   8.008
 1187POPC   C4A19770  15.700  32.344   7.824
 1187POPC   C1B19771  16.306  32.526   8.729
 1187POPC   C2B19772  16.356  32.720   8.306
 1187POPC   C3B19773  16.405  32.613   7.897
 1187POPC   C4B19774  16.177  32.567   7.522
 1188POPC   NC319775  30.330  11.438   9.647
 1188POPC   PO419776  29.610  11.350   9.590
 1188POPC   GL119777  29.613  11.224   9.166
 1188POPC   GL219778  29.929  11.022   9.204
 1188POPC   C1A19779  29.642  11.276   8.722
 1188POPC   D2A19780  29.856  11.074   8.366
 1188POPC   C3A19781  29.691  11.169   7.944
 1188POPC   C4A19782  29.593  11.521   7.645
 1188POPC   C1B19783  30.149  11.258   8.846
 1188POPC   C2B19784  30.361  11.094   8.471
 1188POPC   C3B19785  30.269  11.068   8.034
 1188POPC   C4B19786  30.114  11.236   7.655
 1189POPC   NC319787  40.878  33.172   9.426
 1189POPC   PO419788  40.396  32.645   9.440
 1189POPC   GL119789  40.605  32.664   9.076
 1189POPC   GL219790  40.572  33.016   9.032
 1189POPC   C1A19791  41.005  32.759   8.857
 1189POPC   D2A19792  41.068  33.003   8.493
 1189POPC   C3A19793  40.927  32.932   8.057
 1189POPC   C4A19794  41.037  33.215   7.710
 1189POPC   C1B19795  40.557  32.911   8.580
 1189POPC   C2B19796  40.463  33.186   8.206
 1189POPC   C3B19797  40.507  33.308   7.738
 1189POPC   C4B19798  40.482  33.370   7.260
 1190POPC   NC319799  29.278  19.859   9.680
 1190POPC   PO419800  29.698  20.343   9.453
 1190POPC   GL119801  29.369  20.608   9.211
 1190POPC   GL219802  29.067  20.862   9.249
 1190POPC   C1A19803  29.305  20.719   8.768
 1190POPC   D2A19804  29.375  20.904   8.349
 1190POPC   C3A19805  29.454  20.580   8.065
 1190POPC   C4A19806  29.238  20.467   7.698
 1190POPC   C1B19807  28.845  20.927   8.837
 1190POPC   C2B19808  28.878  20.746   8.395
 1190POPC   C3B19809  28.814  20.612   7.956
 1190POPC   C4B19810  28.823  20.736   7.522
 1191POPC   NC319811  23.053  11.218   9.489
 1191POPC   PO419812  22.501  11.576   9.328
 1191POPC   GL119813  22.787  11.457   9.135
 1191POPC   GL219814  22.713  11.111   9.112
 1191POPC   C1A19815  23.047  11.524   8.840
 1191POPC   D2A19816  22.918  11.528   8.432
 1191POPC   C3A19817  23.136  11.486   8.107
 1191POPC   C4A19818  22.919  11.468   7.766
 1191POPC   C1B19819  22.981  11.009   8.766
 1191POPC   C2B19820  23.119  11.025   8.339
 1191POPC   C3B19821  22.920  11.003   7.937
 1191POPC   C4B19822  23.042  11.051   7.469
 1192POPC   NC319823  11.290  13.959   9.467
 1192POPC   PO419824  11.556  13.313   9.302
 1192POPC   GL119825  11.524  13.692   9.109
 1192POPC   GL219826  11.182  13.660   9.059
 1192POPC   C1A19827  11.457  13.830   8.694
 1192POPC   D2A19828  11.232  13.638   8.339
 1192POPC   C3A19829  11.471  13.590   7.983
 1192POPC   C4A19830  11.328  13.693   7.593
 1192POPC   C1B19831  11.228  13.319   8.741
 1192POPC   C2B19832  11.055  13.154   8.354
 1192POPC   C3B19833  11.075  13.296   7.915
 1192POPC   C4B19834  11.044  13.281   7.455
 1193POPC   NC319835  10.149  14.382   9.657
 1193POPC   PO419836   9.557  14.530   9.494
 1193POPC   GL119837   9.858  14.506   9.209
 1193POPC   GL219838   9.754  14.167   9.104
 1193POPC   C1A19839   9.755  14.572   8.784
 1193POPC   D2A19840   9.823  14.301   8.418
 1193POPC   C3A19841   9.739  14.481   8.023
 1193POPC   C4A19842  10.089  14.489   7.749
 1193POPC   C1B19843   9.448  14.143   8.720
 1193POPC   C2B19844   9.339  14.128   8.267
 1193POPC   C3B19845   9.389  14.173   7.832
 1193POPC   C4B19846   9.405  13.895   7.534
 1194POPC   NC319847   3.812  32.098   9.782
 1194POPC   PO419848   3.502  32.442   9.269
 1194POPC   GL119849   3.567  32.005   9.143
 1194POPC   GL219850   3.905  31.924   9.259
 1194POPC   C1A19851   3.495  31.967   8.682
 1194POPC   D2A19852   3.391  32.281   8.358
 1194POPC   C3A19853   3.365  32.168   7.928
 1194POPC   C4A19854   3.154  32.270   7.565
 1194POPC   C1B19855   4.055  31.955   8.835
 1194POPC   C2B19856   3.938  32.127   8.452
 1194POPC   C3B19857   4.002  31.995   8.060
 1194POPC   C4B19858   3.788  31.928   7.703
 1195POPC   NC319859  11.729  22.997   9.444
 1195POPC   PO419860  11.116  22.713   9.608
 1195POPC   GL119861  11.066  22.818   9.179
 1195POPC   GL219862  11.370  22.906   9.112
 1195POPC   C1A19863  11.020  22.989   8.764
 1195POPC   D2A19864  11.238  23.178   8.467
 1195POPC   C3A19865  11.275  22.897   8.149
 1195POPC   C4A19866  11.012  22.865   7.809
 1195POPC   C1B19867  11.602  22.609   8.917
 1195POPC   C2B19868  11.580  22.461   8.513
 1195POPC   C3B19869  11.763  22.528   8.130
 1195POPC   C4B19870  11.539  22.670   7.793
 1196POPC   NC319871  38.526  37.380   9.772
 1196POPC   PO419872  38.877  37.588   9.228
 1196POPC   GL119873  38.414  37.566   9.150
 1196POPC   GL219874  38.545  37.389   8.905
 1196POPC   C1A19875  38.205  37.757   8.756
 1196POPC   D2A19876  38.373  37.849   8.318
 1196POPC   C3A19877  38.189  37.717   7.920
 1196POPC   C4A19878  38.221  37.868   7.464
 1196POPC   C1B19879  38.897  37.331   8.636
 1196POPC   C2B19880  38.909  37.402   8.221
 1196POPC   C3B19881  38.739  37.674   7.953
 1196POPC   C4B19882  38.620  37.592   7.547
 1197POPC   NC319883   4.983  19.319   9.334
 1197POPC   PO419884   5.243  18.776   9.601
 1197POPC   GL119885   5.308  18.970   9.186
 1197POPC   GL219886   4.960  18.834   9.162
 1197POPC   C1A19887   5.196  19.093   8.750
 1197POPC   D2A19888   5.341  18.913   8.374
 1197POPC   C3A19889   5.193  19.087   8.029
 1197POPC   C4A19890   5.250  19.243   7.622
 1197POPC   C1B19891   4.765  18.821   8.783
 1197POPC   C2B19892   4.819  18.953   8.400
 1197POPC   C3B19893   4.688  19.015   8.023
 1197POPC   C4B19894   4.871  18.890   7.653
 1198POPC   NC319895  43.810  31.822   9.591
 1198POPC   PO419896  43.533  31.221   9.572
 1198POPC   GL119897  43.670  31.365   9.191
 1198POPC   GL219898  43.750  31.713   9.097
 1198POPC   C1A19899  43.487  31.384   8.779
 1198POPC   D2A19900  43.410  31.246   8.365
 1198POPC   C3A19901  43.754  31.383   8.152
 1198POPC   C4A19902  43.891  31.149   7.820
 1198POPC   C1B19903  44.033  31.438   8.857
 1198POPC   C2B19904  44.170  31.334   8.457
 1198POPC   C3B19905  44.254  31.513   8.062
 1198POPC   C4B19906  44.267  31.418   7.640
 1199POPC   NC319907  16.285   6.416   9.593
 1199POPC   PO419908  15.703   6.822   9.643
 1199POPC   GL119909  15.913   6.648   9.277
 1199POPC   GL219910  16.246   6.755   9.201
 1199POPC   C1A19911  15.892   6.630   8.815
 1199POPC   D2A19912  15.615   6.652   8.426
 1199POPC   C3A19913  15.783   6.816   8.042
 1199POPC   C4A19914  15.922   6.532   7.774
 1199POPC   C1B19915  16.296   6.962   8.795
 1199POPC   C2B19916  16.153   6.842   8.406
 1199POPC   C3B19917  16.318   6.771   8.013
 1199POPC   C4B19918  16.132   7.049   7.727
 1200POPC   NC319919  41.040  31.320   9.339
 1200POPC   PO419920  40.907  31.920   9.641
 1200POPC   GL119921  40.649  31.712   9.151
 1200POPC   GL219922  40.767  31.376   8.948
 1200POPC   C1A19923  40.773  31.779   8.656
 1200POPC   D2A19924  41.052  31.548   8.353
 1200POPC   C3A19925  40.900  31.595   7.937
 1200POPC   C4A19926  40.498  31.604   7.727
 1200POPC   C1B19927  41.100  31.159   8.703
 1200POPC   C2B19928  41.132  31.032   8.281
 1200POPC   C3B19929  40.823  31.050   7.984
 1200POPC   C4B19930  40.957  31.182   7.611
 1201POPC   NC319931   4.297   0.969   9.753
 1201POPC   PO419932   3.865   1.438   9.560
 1201POPC   GL119933   3.967   1.037   9.286
 1201POPC   GL219934   4.345   0.968   9.240
 1201POPC   C1A19935   4.057   0.998   8.818
 1201POPC   D2A19936   4.042   1.277   8.469
 1201POPC   C3A19937   4.170   1.118   8.090
 1201POPC   C4A19938   4.097   1.279   7.715
 1201POPC   C1B19939   4.551   0.851   8.839
 1201POPC   C2B19940   4.553   0.957   8.404
 1201POPC   C3B19941   4.502   0.735   8.005
 1201POPC   C4B19942   4.608   0.862   7.602
 1202POPC   NC319943  36.213  19.560   9.497
 1202POPC   PO419944  35.991  20.192   9.504
 1202POPC   GL119945  36.203  19.975   9.155
 1202POPC   GL219946  35.924  19.769   9.145
 1202POPC   C1A19947  36.440  19.751   8.831
 1202POPC   D2A19948  36.372  19.621   8.406
 1202POPC   C3A19949  36.307  19.943   8.077
 1202POPC   C4A19950  36.270  20.017   7.656
 1202POPC   C1B19951  35.953  19.703   8.724
 1202POPC   C2B19952  35.839  19.847   8.319
 1202POPC   C3B19953  35.810  20.006   7.900
 1202POPC   C4B19954  35.789  19.872   7.465
 1203POPC   NC319955  16.406  32.198   9.589
 1203POPC   PO419956  17.016  32.042   9.719
 1203POPC   GL119957  16.946  32.063   9.244
 1203POPC   GL219958  16.833  32.393   9.244
 1203POPC   C1A19959  16.848  31.922   8.835
 1203POPC   D2A19960  16.526  32.085   8.536
 1203POPC   C3A19961  16.610  32.164   8.101
 1203POPC   C4A19962  16.463  32.136   7.678
 1203POPC   C1B19963  16.807  32.427   8.797
 1203POPC   C2B19964  16.855  32.577   8.365
 1203POPC   C3B19965  16.960  32.595   7.912
 1203POPC   C4B19966  16.724  32.529   7.502
 1204POPC   NC319967  31.646  11.234   9.436
 1204POPC   PO419968  31.055  11.414   9.388
 1204POPC   GL119969  31.284  11.358   9.076
 1204POPC   GL219970  31.473  11.635   9.114
 1204POPC   C1A19971  31.276  11.185   8.682
 1204POPC   D2A19972  31.177  11.520   8.408
 1204POPC   C3A19973  31.355  11.547   8.012
 1204POPC   C4A19974  31.025  11.626   7.725
 1204POPC   C1B19975  31.668  11.514   8.777
 1204POPC   C2B19976  31.681  11.356   8.391
 1204POPC   C3B19977  31.910  11.428   8.069
 1204POPC   C4B19978  31.785  11.504   7.699
 1205POPC   NC319979   8.271  19.286   9.555
 1205POPC   PO419980   7.716  19.066   9.409
 1205POPC   GL119981   8.101  19.027   9.141
 1205POPC   GL219982   8.488  18.949   9.205
 1205POPC   C1A19983   8.017  19.084   8.727
 1205POPC   D2A19984   8.252  18.998   8.387
 1205POPC   C3A19985   8.102  19.152   8.052
 1205POPC   C4A19986   7.871  19.432   7.878
 1205POPC   C1B19987   8.564  19.139   8.791
 1205POPC   C2B19988   8.575  19.370   8.371
 1205POPC   C3B19989   8.573  19.233   7.913
 1205POPC   C4B19990   8.637  19.226   7.402
 1206POPC   NC319991  27.077  32.797   9.320
 1206POPC   PO419992  26.970  33.341   9.682
 1206POPC   GL119993  26.764  33.167   9.189
 1206POPC   GL219994  26.600  32.844   9.103
 1206POPC   C1A19995  26.940  32.981   8.710
 1206POPC   D2A19996  26.786  32.770   8.320
 1206POPC   C3A19997  26.913  32.931   7.895
 1206POPC   C4A19998  26.794  33.357   7.886
 1206POPC   C1B19999  26.444  32.992   8.703
 1206POPC   C2B20000  26.452  33.146   8.271
 1206POPC   C3B20001  26.410  32.910   7.865
 1206POPC   C4B20002  26.580  33.093   7.511
 1207POPC   NC320003   6.993  41.609   9.477
 1207POPC   PO420004   7.687  41.731   9.615
 1207POPC   GL120005   7.727  41.634   9.154
 1207POPC   GL220006   7.376  41.652   9.138
 1207POPC   C1A20007   7.601  41.442   8.740
 1207POPC   D2A20008   7.678  41.218   8.365
 1207POPC   C3A20009   7.553  41.442   8.001
 1207POPC   C4A20010   7.453  41.490   7.586
 1207POPC   C1B20011   7.305  41.868   8.743
 1207POPC   C2B20012   7.313  41.742   8.325
 1207POPC   C3B20013   7.115  41.717   7.907
 1207POPC   C4B20014   7.042  41.763   7.450
 1208POPC   NC320015  44.901   6.550   9.661
 1208POPC   PO420016  44.325   6.871   9.646
 1208POPC   GL120017  44.539   6.631   9.294
 1208POPC   GL220018  44.848   6.813   9.207
 1208POPC   C1A20019  44.402   6.490   8.882
 1208POPC   D2A20020  44.605   6.598   8.484
 1208POPC   C3A20021  44.464   6.579   8.064
 1208POPC   C4A20022  44.447   6.755   7.623
 1208POPC   C1B20023  44.923   6.491   8.896
 1208POPC   C2B20024   0.070   6.402   8.491
 1208POPC   C3B20025  44.972   6.369   8.094
 1208POPC   C4B20026  44.894   6.622   7.782
 1209POPC   NC320027  38.102  40.511   9.343
 1209POPC   PO420028  37.420  40.657   9.377
 1209POPC   GL120029  37.735  40.822   9.099
 1209POPC   GL220030  38.026  41.024   9.272
 1209POPC   C1A20031  37.545  40.746   8.687
 1209POPC   D2A20032  37.304  40.430   8.463
 1209POPC   C3A20033  37.375  40.519   8.027
 1209POPC   C4A20034  37.636  40.589   7.638
 1209POPC   C1B20035  38.141  41.048   8.837
 1209POPC   C2B20036  37.929  40.983   8.432
 1209POPC   C3B20037  37.680  40.959   8.049
 1209POPC   C4B20038  37.890  41.017   7.661
 1210POPC   NC320039  30.039  32.678   9.434
 1210POPC   PO420040  29.609  33.261   9.330
 1210POPC   GL120041  29.728  32.907   9.118
 1210POPC   GL220042  30.076  33.067   9.113
 1210POPC   C1A20043  29.960  32.707   8.760
 1210POPC   D2A20044  29.802  32.587   8.365
 1210POPC   C3A20045  29.980  32.776   8.027
 1210POPC   C4A20046  29.918  32.966   7.645
 1210POPC   C1B20047  29.848  33.210   8.734
 1210POPC   C2B20048  29.761  33.105   8.354
 1210POPC   C3B20049  30.004  33.282   8.052
 1210POPC   C4B20050  29.877  33.465   7.719
 1211POPC   NC320051  38.846  29.745   9.579
 1211POPC   PO420052  39.524  29.728   9.699
 1211POPC   GL120053  39.297  29.770   9.283
 1211POPC   GL220054  38.951  29.884   9.113
 1211POPC   C1A20055  39.344  29.703   8.852
 1211POPC   D2A20056  39.516  29.704   8.481
 1211POPC   C3A20057  39.239  29.704   8.149
 1211POPC   C4A20058  39.337  29.853   7.755
 1211POPC   C1B20059  39.172  30.205   8.871
 1211POPC   C2B20060  39.290  30.164   8.457
 1211POPC   C3B20061  39.178  30.231   8.037
 1211POPC   C4B20062  39.022  30.282   7.620
 1212POPC   NC320063  34.115  21.343   9.807
 1212POPC   PO420064  33.686  20.960   9.360
 1212POPC   GL120065  33.669  21.315   9.066
 1212POPC   GL220066  33.461  21.606   9.114
 1212POPC   C1A20067  33.970  21.420   8.717
 1212POPC   D2A20068  34.115  21.181   8.365
 1212POPC   C3A20069  34.168  21.368   7.925
 1212POPC   C4A20070  33.911  21.532   7.562
 1212POPC   C1B20071  33.463  21.502   8.665
 1212POPC   C2B20072  33.678  21.469   8.292
 1212POPC   C3B20073  33.571  21.630   7.922
 1212POPC   C4B20074  33.347  21.502   7.564
 1213POPC   NC320075  28.683  35.855   9.444
 1213POPC   PO420076  28.135  36.103   9.758
 1213POPC   GL120077  28.138  36.022   9.231
 1213POPC   GL220078  28.457  36.000   9.015
 1213POPC   C1A20079  28.062  35.873   8.764
 1213POPC   D2A20080  28.317  35.894   8.424
 1213POPC   C3A20081  28.094  35.924   8.085
 1213POPC   C4A20082  28.230  36.060   7.731
 1213POPC   C1B20083  28.766  35.977   8.696
 1213POPC   C2B20084  28.834  36.102   8.333
 1213POPC   C3B20085  28.616  36.125   8.040
 1213POPC   C4B20086  28.705  35.990   7.674
 1214POPC   NC320087  24.655   9.738   9.477
 1214POPC   PO420088  24.036   9.496   9.628
 1214POPC   GL120089  24.284   9.620   9.159
 1214POPC   GL220090  24.455  10.005   9.080
 1214POPC   C1A20091  24.395   9.651   8.687
 1214POPC   D2A20092  24.270   9.584   8.253
 1214POPC   C3A20093  24.390   9.686   7.816
 1214POPC   C4A20094  24.209   9.377   7.498
 1214POPC   C1B20095  24.721  10.036   8.654
 1214POPC   C2B20096  24.775   9.840   8.214
 1214POPC   C3B20097  24.851   9.938   7.738
 1214POPC   C4B20098  24.773  10.112   7.305
 1215POPC   NC320099  31.642  41.259   9.540
 1215POPC   PO420100  31.276  41.795   9.582
 1215POPC   GL120101  31.554  41.675   9.240
 1215POPC   GL220102  31.334  41.413   9.161
 1215POPC   C1A20103  31.743  41.430   8.856
 1215POPC   D2A20104  31.580  41.358   8.438
 1215POPC   C3A20105  31.810  41.332   8.053
 1215POPC   C4A20106  31.893  41.676   7.762
 1215POPC   C1B20107  31.331  41.717   8.774
 1215POPC   C2B20108  31.217  41.701   8.314
 1215POPC   C3B20109  31.361  41.532   7.886
 1215POPC   C4B20110  31.176  41.232   7.524
 1216POPC   NC320111  21.932  42.627   9.622
 1216POPC   PO420112  22.361  43.235   9.569
 1216POPC   GL120113  22.304  43.129   9.158
 1216POPC   GL220114  22.572  42.898   9.089
 1216POPC   C1A20115  22.215  43.099   8.715
 1216POPC   D2A20116  22.171  43.356   8.347
 1216POPC   C3A20117  22.050  43.131   7.989
 1216POPC   C4A20118  21.958  42.878   7.631
 1216POPC   C1B20119  22.687  43.245   8.837
 1216POPC   C2B20120  22.781  43.166   8.441
 1216POPC   C3B20121  22.602  43.269   8.094
 1216POPC   C4B20122  22.490  43.166   7.736
 1217POPC   NC320123   3.149  18.816   9.465
 1217POPC   PO420124   2.591  19.245   9.522
 1217POPC   GL120125   2.851  19.205   9.183
 1217POPC   GL220126   2.742  18.904   9.143
 1217POPC   C1A20127   2.864  19.377   8.783
 1217POPC   D2A20128   2.924  19.220   8.380
 1217POPC   C3A20129   2.933  19.431   7.969
 1217POPC   C4A20130   2.707  19.177   7.667
 1217POPC   C1B20131   2.807  18.873   8.750
 1217POPC   C2B20132   2.623  18.812   8.389
 1217POPC   C3B20133   2.620  18.793   7.976
 1217POPC   C4B20134   2.428  18.785   7.559
 1218POPC   NC320135  39.659  29.365   9.459
 1218POPC   PO420136  40.189  29.004   9.518
 1218POPC   GL120137  40.010  28.990   9.092
 1218POPC   GL220138  39.653  29.013   9.060
 1218POPC   C1A20139  40.169  29.075   8.648
 1218POPC   D2A20140  40.348  29.176   8.208
 1218POPC   C3A20141  40.026  29.200   7.852
 1218POPC   C4A20142  39.693  29.110   7.503
 1218POPC   C1B20143  39.787  29.386   8.811
 1218POPC   C2B20144  39.953  29.465   8.392
 1218POPC   C3B20145  39.735  29.575   8.038
 1218POPC   C4B20146  39.761  29.597   7.636
 1219POPC   NC320147   4.808   0.491   9.476
 1219POPC   PO420148   5.450   0.256   9.484
 1219POPC   GL120149   5.243   0.489   9.192
 1219POPC   GL220150   5.100   0.237   9.011
 1219POPC   C1A20151   5.092   0.750   8.845
 1219POPC   D2A20152   4.931   0.631   8.479
 1219POPC   C3A20153   4.991   0.811   8.092
 1219POPC   C4A20154   4.936   0.529   7.740
 1219POPC   C1B20155   5.395   0.396   8.692
 1219POPC   C2B20156   5.408   0.550   8.291
 1219POPC   C3B20157   5.402   0.616   7.865
 1219POPC   C4B20158   5.410   0.412   7.433
 1220POPC   NC320159  32.148  16.443   9.567
 1220POPC   PO420160  32.462  17.003   9.660
 1220POPC   GL120161  32.137  16.916   9.313
 1220POPC   GL220162  32.079  16.601   9.105
 1220POPC   C1A20163  32.058  17.042   8.882
 1220POPC   D2A20164  32.180  16.929   8.453
 1220POPC   C3A20165  32.080  17.001   8.023
 1220POPC   C4A20166  32.262  16.804   7.660
 1220POPC   C1B20167  32.383  16.615   8.809
 1220POPC   C2B20168  32.380  16.432   8.405
 1220POPC   C3B20169  32.239  16.382   7.983
 1220POPC   C4B20170  32.550  16.347   7.691
 1221POPC   NC320171  43.918  41.077   9.646
 1221POPC   PO420172  43.863  40.431   9.521
 1221POPC   GL120173  43.776  40.761   9.206
 1221POPC   GL220174  44.074  40.966   9.166
 1221POPC   C1A20175  43.576  40.808   8.786
 1221POPC   D2A20176  43.407  40.600   8.408
 1221POPC   C3A20177  43.596  40.778   8.049
 1221POPC   C4A20178  43.853  41.072   7.844
 1221POPC   C1B20179  44.110  40.807   8.759
 1221POPC   C2B20180  44.050  40.848   8.327
 1221POPC   C3B20181  44.077  40.610   7.973
 1221POPC   C4B20182  44.122  40.705   7.563
 1222POPC   NC320183  37.274  42.232   9.422
 1222POPC   PO420184  36.732  42.571   9.390
 1222POPC   GL120185  36.879  42.301   9.061
 1222POPC   GL220186  36.618  42.091   8.918
 1222POPC   C1A20187  37.027  42.461   8.656
 1222POPC   D2A20188  36.950  42.550   8.221
 1222POPC   C3A20189  36.811  42.278   7.898
 1222POPC   C4A20190  36.583  42.471   7.523
 1222POPC   C1B20191  37.001  41.965   8.666
 1222POPC   C2B20192  37.074  41.905   8.217
 1222POPC   C3B20193  37.276  42.025   7.832
 1222POPC   C4B20194  37.033  42.035   7.443
 1223POPC   NC320195  39.679  39.415   9.601
 1223POPC   PO420196  40.089  38.813   9.515
 1223POPC   GL120197  39.997  39.154   9.223
 1223POPC   GL220198  40.358  39.226   9.168
 1223POPC   C1A20199  40.035  39.407   8.815
 1223POPC   D2A20200  40.026  39.207   8.404
 1223POPC   C3A20201  40.194  39.326   8.006
 1223POPC   C4A20202  39.876  39.300   7.699
 1223POPC   C1B20203  40.229  38.931   8.807
 1223POPC   C2B20204  40.255  38.750   8.371
 1223POPC   C3B20205  40.384  38.792   7.920
 1223POPC   C4B20206  40.316  39.063   7.551
 1224POPC   NC320207  31.517  28.808   9.372
 1224POPC   PO420208  30.936  28.586   9.602
 1224POPC   GL120209  31.079  28.589   9.167
 1224POPC   GL220210  31.153  28.876   9.011
 1224POPC   C1A20211  31.029  28.516   8.686
 1224POPC   D2A20212  31.189  28.640   8.245
 1224POPC   C3A20213  31.386  28.388   7.906
 1224POPC   C4A20214  31.260  28.172   7.492
 1224POPC   C1B20215  31.482  28.774   8.659
 1224POPC   C2B20216  31.686  28.711   8.208
 1224POPC   C3B20217  31.657  28.894   7.767
 1224POPC   C4B20218  31.643  28.940   7.267
 1225POPC   NC320219   4.745  40.064   9.701
 1225POPC   PO420220   5.350  40.298   9.445
 1225POPC   GL120221   4.986  40.214   9.165
 1225POPC   GL220222   4.739  39.938   9.175
 1225POPC   C1A20223   5.033  40.060   8.724
 1225POPC   D2A20224   5.219  40.176   8.329
 1225POPC   C3A20225   4.986  40.126   7.930
 1225POPC   C4A20226   5.085  40.266   7.513
 1225POPC   C1B20227   4.731  39.646   8.799
 1225POPC   C2B20228   4.882  39.659   8.359
 1225POPC   C3B20229   4.690  39.696   7.947
 1225POPC   C4B20230   4.782  39.840   7.535
 1226POPC   NC320231  37.438  20.465   9.477
 1226POPC   PO420232  38.049  20.513   9.629
 1226POPC   GL120233  37.873  20.381   9.185
 1226POPC   GL220234  37.661  20.704   9.078
 1226POPC   C1A20235  37.777  20.378   8.708
 1226POPC   D2A20236  37.612  20.784   8.486
 1226POPC   C3A20237  37.622  20.767   8.030
 1226POPC   C4A20238  37.828  20.375   7.867
 1226POPC   C1B20239  37.293  20.546   8.804
 1226POPC   C2B20240  37.367  20.326   8.387
 1226POPC   C3B20241  37.311  20.356   7.958
 1226POPC   C4B20242  37.420  20.497   7.528
 1227POPC   NC320243  18.598  28.879   9.416
 1227POPC   PO420244  19.343  29.055   9.379
 1227POPC   GL120245  18.963  29.159   9.158
 1227POPC   GL220246  18.872  29.491   9.094
 1227POPC   C1A20247  18.797  29.092   8.754
 1227POPC   D2A20248  18.767  28.850   8.371
 1227POPC   C3A20249  19.089  28.882   8.080
 1227POPC   C4A20250  19.179  28.935   7.657
 1227POPC   C1B20251  19.017  29.537   8.651
 1227POPC   C2B20252  19.111  29.359   8.254
 1227POPC   C3B20253  18.898  29.337   7.842
 1227POPC   C4B20254  18.998  29.340   7.390
 1228POPC   NC320255   4.259  22.226   9.297
 1228POPC   PO420256   4.515  21.615   9.291
 1228POPC   GL120257   4.258  21.781   8.973
 1228POPC   GL220258   4.427  22.076   8.840
 1228POPC   C1A20259   3.998  21.883   8.621
 1228POPC   D2A20260   4.212  22.187   8.366
 1228POPC   C3A20261   4.363  22.064   7.966
 1228POPC   C4A20262   4.200  22.000   7.538
 1228POPC   C1B20263   4.556  22.481   8.678
 1228POPC   C2B20264   4.737  22.642   8.293
 1228POPC   C3B20265   4.562  22.553   7.888
 1228POPC   C4B20266   4.611  22.282   7.554
 1229POPC   NC320267   8.391   3.469   9.493
 1229POPC   PO420268   7.731   3.533   9.359
 1229POPC   GL120269   7.920   3.319   9.062
 1229POPC   GL220270   8.199   3.519   9.023
 1229POPC   C1A20271   7.890   3.352   8.631
 1229POPC   D2A20272   8.185   3.506   8.382
 1229POPC   C3A20273   8.150   3.311   7.974
 1229POPC   C4A20274   8.071   3.425   7.516
 1229POPC   C1B20275   8.303   3.863   8.763
 1229POPC   C2B20276   8.391   3.987   8.364
 1229POPC   C3B20277   8.358   3.779   7.986
 1229POPC   C4B20278   8.232   3.926   7.617
 1230POPC   NC320279  21.261  32.044   9.579
 1230POPC   PO420280  21.612  32.617   9.612
 1230POPC   GL120281  21.405  32.391   9.231
 1230POPC   GL220282  21.017  32.360   9.168
 1230POPC   C1A20283  21.366  32.213   8.818
 1230POPC   D2A20284  21.343  32.427   8.423
 1230POPC   C3A20285  21.442  32.113   8.074
 1230POPC   C4A20286  21.625  32.033   7.672
 1230POPC   C1B20287  20.873  32.090   8.784
 1230POPC   C2B20288  20.965  32.117   8.314
 1230POPC   C3B20289  21.060  32.446   7.981
 1230POPC   C4B20290  21.302  32.425   7.607
 1231POPC   NC320291  17.301  32.341   9.482
 1231POPC   PO420292  17.893  32.517   9.678
 1231POPC   GL120293  17.727  32.310   9.202
 1231POPC   GL220294  17.805  32.017   9.051
 1231POPC   C1A20295  17.804  32.345   8.676
 1231POPC   D2A20296  17.707  32.447   8.235
 1231POPC   C3A20297  17.460  32.210   7.939
 1231POPC   C4A20298  17.627  32.219   7.524
 1231POPC   C1B20299  17.359  32.168   8.836
 1231POPC   C2B20300  17.111  32.133   8.455
 1231POPC   C3B20301  17.054  31.888   8.094
 1231POPC   C4B20302  16.977  32.120   7.710
 1232POPC   NC320303  24.012  25.782   9.419
 1232POPC   PO420304  23.642  26.335   9.552
 1232POPC   GL120305  23.713  26.122   9.175
 1232POPC   GL220306  24.032  26.248   9.060
 1232POPC   C1A20307  23.603  25.862   8.840
 1232POPC   D2A20308  23.523  25.967   8.404
 1232POPC   C3A20309  23.833  25.899   8.093
 1232POPC   C4A20310  23.648  25.813   7.750
 1232POPC   C1B20311  23.941  26.172   8.600
 1232POPC   C2B20312  23.868  26.389   8.194
 1232POPC   C3B20313  23.813  26.338   7.733
 1232POPC   C4B20314  23.903  26.394   7.258
 1233POPC   NC320315  40.804  22.596   9.633
 1233POPC   PO420316  41.059  23.182   9.783
 1233POPC   GL120317  40.884  23.103   9.333
 1233POPC   GL220318  40.993  22.784   9.163
 1233POPC   C1A20319  40.722  23.206   8.898
 1233POPC   D2A20320  40.854  23.216   8.466
 1233POPC   C3A20321  40.560  23.227   8.123
 1233POPC   C4A20322  40.702  23.150   7.719
 1233POPC   C1B20323  40.789  22.725   8.729
 1233POPC   C2B20324  40.623  22.739   8.293
 1233POPC   C3B20325  40.616  22.663   7.845
 1233POPC   C4B20326  40.599  22.768   7.394
 1234POPC   NC320327  42.925   1.608   9.746
 1234POPC   PO420328  43.341   1.185   9.468
 1234POPC   GL120329  43.183   1.122   9.082
 1234POPC   GL220330  42.945   1.315   9.152
 1234POPC   C1A20331  43.220   1.291   8.684
 1234POPC   D2A20332  42.989   1.370   8.330
 1234POPC   C3A20333  43.186   1.201   7.959
 1234POPC   C4A20334  43.467   1.463   7.726
 1234POPC   C1B20335  42.780   1.048   8.783
 1234POPC   C2B20336  42.539   1.145   8.410
 1234POPC   C3B20337  42.599   1.247   7.977
 1234POPC   C4B20338  42.796   0.900   7.761
 1235POPC   NC320339   6.500   1.951   9.665
 1235POPC   PO420340   7.025   1.783   9.302
 1235POPC   GL120341   6.713   2.037   9.179
 1235POPC   GL220342   6.411   1.822   9.175
 1235POPC   C1A20343   6.804   2.203   8.795
 1235POPC   D2A20344   6.595   2.045   8.450
 1235POPC   C3A20345   6.886   2.125   8.136
 1235POPC   C4A20346   6.886   1.848   7.821
 1235POPC   C1B20347   6.302   2.158   8.873
 1235POPC   C2B20348   6.113   2.257   8.464
 1235POPC   C3B20349   6.260   2.151   8.046
 1235POPC   C4B20350   6.573   2.300   7.770
 1236POPC   NC320351   0.349  44.326   9.380
 1236POPC   PO420352   0.718  44.889   9.453
 1236POPC   GL120353   0.531  44.744   9.110
 1236POPC   GL220354   0.177  44.788   9.172
 1236POPC   C1A20355   0.373  44.637   8.723
 1236POPC   D2A20356   0.543  44.538   8.355
 1236POPC   C3A20357   0.325  44.719   8.030
 1236POPC   C4A20358   0.441  44.512   7.655
 1236POPC   C1B20359  44.984   0.008   8.821
 1236POPC   C2B20360  44.916  44.890   8.384
 1236POPC   C3B20361  44.862   0.018   7.957
 1236POPC   C4B20362   0.158   0.014   7.593
 1237POPC   NC320363  15.223  15.388   9.580
 1237POPC   PO420364  15.384  14.756   9.382
 1237POPC   GL120365  15.348  15.098   9.124
 1237POPC   GL220366  15.484  15.433   9.160
 1237POPC   C1A20367  15.242  15.127   8.704
 1237POPC   D2A20368  14.897  15.085   8.420
 1237POPC   C3A20369  15.076  15.117   8.031
 1237POPC   C4A20370  15.051  14.944   7.639
 1237POPC   C1B20371  15.431  15.589   8.799
 1237POPC   C2B20372  15.627  15.470   8.409
 1237POPC   C3B20373  15.443  15.482   8.022
 1237POPC   C4B20374  15.220  15.428   7.635
 1238POPC   NC320375  15.069  28.957   9.443
 1238POPC   PO420376  15.028  29.593   9.322
 1238POPC   GL120377  15.289  29.288   9.065
 1238POPC   GL220378  15.394  28.946   9.042
 1238POPC   C1A20379  15.535  29.352   8.707
 1238POPC   D2A20380  15.213  29.451   8.409
 1238POPC   C3A20381  15.189  29.256   8.029
 1238POPC   C4A20382  15.420  29.290   7.674
 1238POPC   C1B20383  15.225  28.955   8.626
 1238POPC   C2B20384  15.253  28.769   8.208
 1238POPC   C3B20385  15.065  28.837   7.793
 1238POPC   C4B20386  14.907  28.744   7.379
 1239POPC   NC320387  41.584  43.510   9.523
 1239POPC   PO420388  41.806  44.120   9.564
 1239POPC   GL120389  41.600  43.911   9.199
 1239POPC   GL220390  41.844  43.674   9.096
 1239POPC   C1A20391  41.426  43.812   8.792
 1239POPC   D2A20392  41.603  43.955   8.408
 1239POPC   C3A20393  41.340  44.156   8.124
 1239POPC   C4A20394  41.241  44.092   7.722
 1239POPC   C1B20395  41.844  43.535   8.656
 1239POPC   C2B20396  41.655  43.467   8.248
 1239POPC   C3B20397  41.547  43.725   7.917
 1239POPC   C4B20398  41.708  43.981   7.562
 1240POPC   NC320399  32.624  14.730   9.490
 1240POPC   PO420400  32.259  15.288   9.312
 1240POPC   GL120401  32.110  14.936   9.073
 1240POPC   GL220402  32.454  14.857   9.036
 1240POPC   C1A20403  31.872  14.895   8.671
 1240POPC   D2A20404  31.707  15.019   8.233
 1240POPC   C3A20405  31.956  15.086   7.845
 1240POPC   C4A20406  32.228  15.440   7.714
 1240POPC   C1B20407  32.717  15.112   8.766
 1240POPC   C2B20408  32.783  15.181   8.349
 1240POPC   C3B20409  32.464  15.096   8.040
 1240POPC   C4B20410  32.428  14.952   7.620
 1241POPC   NC320411  39.197   6.849   9.530
 1241POPC   PO420412  39.188   7.473   9.639
 1241POPC   GL120413  39.258   7.533   9.237
 1241POPC   GL220414  39.234   7.217   9.173
 1241POPC   C1A20415  39.191   7.642   8.826
 1241POPC   D2A20416  39.216   7.849   8.447
 1241POPC   C3A20417  38.894   7.731   8.182
 1241POPC   C4A20418  38.968   7.640   7.767
 1241POPC   C1B20419  39.491   7.214   8.797
 1241POPC   C2B20420  39.602   7.496   8.450
 1241POPC   C3B20421  39.424   7.607   8.034
 1241POPC   C4B20422  39.375   7.322   7.663
 1242POPC   NC320423  44.417   0.652   9.510
 1242POPC   PO420424  44.877   0.035   9.520
 1242POPC   GL120425  44.691   0.332   9.194
 1242POPC   GL220426  44.319   0.290   9.142
 1242POPC   C1A20427  44.851   0.589   8.819
 1242POPC   D2A20428  44.898   0.389   8.433
 1242POPC   C3A20429  44.880   0.569   8.032
 1242POPC   C4A20430  44.822   0.387   7.602
 1242POPC   C1B20431  44.406   0.369   8.712
 1242POPC   C2B20432  44.430   0.608   8.315
 1242POPC   C3B20433  44.412   0.509   7.859
 1242POPC   C4B20434  44.251   0.268   7.498
 1243POPC   NC320435  21.968  13.712   9.385
 1243POPC   PO420436  22.401  13.240   9.341
 1243POPC   GL120437  22.311  13.551   9.050
 1243POPC   GL220438  22.371  13.915   9.154
 1243POPC   C1A20439  22.025  13.530   8.731
 1243POPC   D2A20440  21.755  13.512   8.393
 1243POPC   C3A20441  21.985  13.408   8.036
 1243POPC   C4A20442  22.032  13.594   7.643
 1243POPC   C1B20443  22.304  13.974   8.719
 1243POPC   C2B20444  22.185  13.834   8.290
 1243POPC   C3B20445  22.417  13.850   7.887
 1243POPC   C4B20446  22.469  13.868   7.426
 1244POPC   NC320447   4.193   7.725   9.478
 1244POPC   PO420448   4.496   7.197   9.525
 1244POPC   GL120449   4.382   7.426   9.126
 1244POPC   GL220450   4.022   7.417   9.095
 1244POPC   C1A20451   4.604   7.451   8.732
 1244POPC   D2A20452   4.696   7.205   8.384
 1244POPC   C3A20453   4.703   7.455   8.001
 1244POPC   C4A20454   4.396   7.326   7.665
 1244POPC   C1B20455   3.889   7.555   8.679
 1244POPC   C2B20456   3.997   7.748   8.290
 1244POPC   C3B20457   4.006   7.427   7.975
 1244POPC   C4B20458   3.826   7.323   7.557
 1245POPC   NC320459  26.369   0.156   9.539
 1245POPC   PO420460  25.786   0.460   9.829
 1245POPC   GL120461  26.037   0.515   9.381
 1245POPC   GL220462  26.248   0.834   9.312
 1245POPC   C1A20463  26.080   0.424   8.899
 1245POPC   D2A20464  25.897   0.504   8.471
 1245POPC   C3A20465  25.806   0.443   7.977
 1245POPC   C4A20466  25.949   0.637   7.540
 1245POPC   C1B20467  26.421   0.801   8.868
 1245POPC   C2B20468  26.407   0.573   8.469
 1245POPC   C3B20469  26.276   0.637   8.058
 1245POPC   C4B20470  26.254   0.304   7.770
 1246POPC   NC320471  11.179  23.824   9.325
 1246POPC   PO420472  11.699  23.444   9.359
 1246POPC   GL120473  11.397  23.434   9.055
 1246POPC   GL220474  11.096  23.335   9.130
 1246POPC   C1A20475  11.390  23.607   8.671
 1246POPC   D2A20476  11.734  23.475   8.387
 1246POPC   C3A20477  11.576  23.491   7.979
 1246POPC   C4A20478  11.388  23.772   7.694
 1246POPC   C1B20479  10.883  23.485   8.771
 1246POPC   C2B20480  10.872  23.544   8.336
 1246POPC   C3B20481  11.086  23.339   7.992
 1246POPC   C4B20482  11.187  23.268   7.555
 1247POPC   NC320483  15.052  31.981   9.401
 1247POPC   PO420484  15.331  32.651   9.381
 1247POPC   GL120485  15.041  32.515   9.028
 1247POPC   GL220486  14.825  32.197   8.991
 1247POPC   C1A20487  15.187  32.293   8.624
 1247POPC   D2A20488  15.453  32.194   8.253
 1247POPC   C3A20489  15.155  32.354   7.962
 1247POPC   C4A20490  14.708  32.398   8.067
 1247POPC   C1B20491  14.992  31.812   8.745
 1247POPC   C2B20492  15.114  31.806   8.309
 1247POPC   C3B20493  14.916  31.914   7.953
 1247POPC   C4B20494  14.967  31.970   7.489
 1248POPC   NC320495  42.932   7.587   9.786
 1248POPC   PO420496  43.040   8.225   9.598
 1248POPC   GL120497  43.065   7.988   9.209
 1248POPC   GL220498  43.376   8.089   9.040
 1248POPC   C1A20499  42.851   8.085   8.797
 1248POPC   D2A20500  43.000   8.131   8.372
 1248POPC   C3A20501  42.921   7.937   7.981
 1248POPC   C4A20502  42.754   8.284   7.766
 1248POPC   C1B20503  43.452   8.148   8.603
 1248POPC   C2B20504  43.411   7.813   8.258
 1248POPC   C3B20505  43.440   7.846   7.814
 1248POPC   C4B20506  43.514   8.237   7.574
 1249POPC   NC320507  39.870  35.675   9.373
 1249POPC   PO420508  40.177  35.011   9.336
 1249POPC   GL120509  40.189  35.376   9.088
 1249POPC   GL220510  39.851  35.321   9.039
 1249POPC   C1A20511  40.211  35.401   8.642
 1249POPC   D2A20512  40.086  35.236   8.233
 1249POPC   C3A20513  40.094  35.514   7.922
 1249POPC   C4A20514  40.267  35.265   7.613
 1249POPC   C1B20515  39.794  35.661   8.739
 1249POPC   C2B20516  39.712  35.582   8.329
 1249POPC   C3B20517  39.619  35.351   7.949
 1249POPC   C4B20518  39.756  35.400   7.514
 1250POPC   NC320519  29.602  14.183   9.554
 1250POPC   PO420520  30.264  14.450   9.660
 1250POPC   GL120521  29.979  14.454   9.302
 1250POPC   GL220522  30.033  14.118   9.217
 1250POPC   C1A20523  30.076  14.621   8.885
 1250POPC   D2A20524  29.975  14.452   8.480
 1250POPC   C3A20525  30.108  14.577   8.063
 1250POPC   C4A20526  29.959  14.472   7.641
 1250POPC   C1B20527  29.718  14.215   8.888
 1250POPC   C2B20528  29.607  14.097   8.444
 1250POPC   C3B20529  29.773  14.202   8.043
 1250POPC   C4B20530  30.042  13.980   7.738
 1251POPC   NC320531  37.965  39.012   9.474
 1251POPC   PO420532  37.643  39.579   9.567
 1251POPC   GL120533  37.651  39.352   9.190
 1251POPC   GL220534  37.979  39.446   9.153
 1251POPC   C1A20535  37.459  39.317   8.771
 1251POPC   D2A20536  37.598  38.972   8.516
 1251POPC   C3A20537  37.649  38.998   8.089
 1251POPC   C4A20538  37.703  39.074   7.655
 1251POPC   C1B20539  37.963  39.154   8.813
 1251POPC   C2B20540  38.086  39.120   8.362
 1251POPC   C3B20541  38.072  39.306   7.935
 1251POPC   C4B20542  38.144  39.312   7.480
 1252POPC   NC320543  41.816   0.129   9.493
 1252POPC   PO420544  41.326   0.605   9.559
 1252POPC   GL120545  41.424   0.293   9.202
 1252POPC   GL220546  41.768   0.272   9.009
 1252POPC   C1A20547  41.325   0.255   8.761
 1252POPC   D2A20548  41.338   0.506   8.377
 1252POPC   C3A20549  41.284   0.320   7.970
 1252POPC   C4A20550  41.533   0.220   7.630
 1252POPC   C1B20551  41.796   0.259   8.538
 1252POPC   C2B20552  41.776   0.394   8.102
 1252POPC   C3B20553  41.729   0.679   7.741
 1252POPC   C4B20554  41.962   0.779   7.332
 1253POPC   NC320555  19.320   9.791   9.521
 1253POPC   PO420556  18.615   9.850   9.547
 1253POPC   GL120557  18.915   9.786   9.183
 1253POPC   GL220558  19.111  10.114   9.160
 1253POPC   C1A20559  19.061   9.571   8.770
 1253POPC   D2A20560  18.981   9.338   8.364
 1253POPC   C3A20561  19.224   9.521   8.023
 1253POPC   C4A20562  19.149   9.624   7.595
 1253POPC   C1B20563  18.922  10.072   8.749
 1253POPC   C2B20564  18.844   9.883   8.343
 1253POPC   C3B20565  18.990   9.975   7.930
 1253POPC   C4B20566  19.310  10.112   7.603
 1254POPC   NC320567  35.588  23.149   9.497
 1254POPC   PO420568  36.192  22.957   9.666
 1254POPC   GL120569  36.242  22.928   9.208
 1254POPC   GL220570  36.515  23.150   9.150
 1254POPC   C1A20571  36.003  22.861   8.792
 1254POPC   D2A20572  36.011  22.605   8.383
 1254POPC   C3A20573  35.998  22.894   7.967
 1254POPC   C4A20574  36.235  23.034   7.582
 1254POPC   C1B20575  36.493  22.972   8.755
 1254POPC   C2B20576  36.304  23.012   8.361
 1254POPC   C3B20577  36.531  23.008   7.987
 1254POPC   C4B20578  36.715  22.732   7.681
 1255POPC   NC320579   5.160  44.181   9.511
 1255POPC   PO420580   4.698  43.686   9.429
 1255POPC   GL120581   4.869  43.902   9.086
 1255POPC   GL220582   5.205  43.937   9.068
 1255POPC   C1A20583   4.874  43.683   8.680
 1255POPC   D2A20584   5.017  43.467   8.297
 1255POPC   C3A20585   5.034  43.802   7.991
 1255POPC   C4A20586   4.678  44.127   7.896
 1255POPC   C1B20587   5.312  44.016   8.642
 1255POPC   C2B20588   5.587  44.030   8.269
 1255POPC   C3B20589   5.567  44.187   7.891
 1255POPC   C4B20590   5.229  44.164   7.709
 1256POPC   NC320591  19.807  16.464   9.513
 1256POPC   PO420592  20.105  15.774   9.558
 1256POPC   GL120593  19.955  15.996   9.217
 1256POPC   GL220594  19.756  16.272   9.062
 1256POPC   C1A20595  19.834  15.803   8.862
 1256POPC   D2A20596  20.075  15.866   8.507
 1256POPC   C3A20597  20.011  15.607   8.214
 1256POPC   C4A20598  20.072  15.654   7.808
 1256POPC   C1B20599  19.742  16.239   8.645
 1256POPC   C2B20600  19.660  16.059   8.273
 1256POPC   C3B20601  19.817  16.105   7.876
 1256POPC   C4B20602  19.535  16.107   7.554
 1257POPC   NC320603  33.620  16.669   9.576
 1257POPC   PO420604  34.179  17.054   9.423
 1257POPC   GL120605  33.975  16.964   9.081
 1257POPC   GL220606  33.646  16.913   9.145
 1257POPC   C1A20607  33.836  16.688   8.720
 1257POPC   D2A20608  33.945  16.397   8.382
 1257POPC   C3A20609  33.898  16.668   8.032
 1257POPC   C4A20610  33.636  17.053   7.953
 1257POPC   C1B20611  33.442  17.047   8.822
 1257POPC   C2B20612  33.362  16.869   8.437
 1257POPC   C3B20613  33.109  16.923   8.088
 1257POPC   C4B20614  33.276  16.822   7.700
 1258POPC   NC320615   1.741  44.553   9.519
 1258POPC   PO420616   2.204  44.988   9.388
 1258POPC   GL120617   1.920  44.796   9.125
 1258POPC   GL220618   2.046  44.464   9.122
 1258POPC   C1A20619   1.775  44.595   8.730
 1258POPC   D2A20620   2.051  44.534   8.380
 1258POPC   C3A20621   1.872  44.615   8.025
 1258POPC   C4A20622   1.907  44.860   7.634
 1258POPC   C1B20623   2.242  44.268   8.791
 1258POPC   C2B20624   2.359  44.119   8.387
 1258POPC   C3B20625   2.477  44.411   8.090
 1258POPC   C4B20626   2.265  44.491   7.730
 1259POPC   NC320627  24.457  40.983   9.280
 1259POPC   PO420628  24.489  40.482   9.777
 1259POPC   GL120629  24.787  40.549   9.323
 1259POPC   GL220630  24.920  40.876   9.110
 1259POPC   C1A20631  24.722  40.503   8.811
 1259POPC   D2A20632  24.480  40.611   8.430
 1259POPC   C3A20633  24.665  40.771   8.068
 1259POPC   C4A20634  24.805  40.538   7.711
 1259POPC   C1B20635  24.703  40.986   8.689
 1259POPC   C2B20636  24.329  41.104   8.409
 1259POPC   C3B20637  24.176  41.108   7.978
 1259POPC   C4B20638  24.338  40.810   7.660
 1260POPC   NC320639  41.800  16.279   9.632
 1260POPC   PO420640  41.310  15.827   9.694
 1260POPC   GL120641  41.503  15.999   9.270
 1260POPC   GL220642  41.861  15.883   9.309
 1260POPC   C1A20643  41.343  15.988   8.789
 1260POPC   D2A20644  41.319  16.196   8.373
 1260POPC   C3A20645  41.395  15.988   7.978
 1260POPC   C4A20646  41.337  16.079   7.535
 1260POPC   C1B20647  41.823  15.855   8.859
 1260POPC   C2B20648  41.720  15.816   8.415
 1260POPC   C3B20649  41.747  15.602   8.009
 1260POPC   C4B20650  41.430  15.563   7.665
 1261POPC   NC320651  28.916  17.421   9.485
 1261POPC   PO420652  29.435  17.834   9.507
 1261POPC   GL120653  29.291  17.640   9.156
 1261POPC   GL220654  29.384  17.342   9.239
 1261POPC   C1A20655  29.033  17.679   8.777
 1261POPC   D2A20656  29.126  17.871   8.391
 1261POPC   C3A20657  29.096  17.739   7.969
 1261POPC   C4A20658  29.240  17.669   7.550
 1261POPC   C1B20659  29.248  17.225   8.824
 1261POPC   C2B20660  29.035  17.124   8.446
 1261POPC   C3B20661  29.000  17.244   8.035
 1261POPC   C4B20662  29.097  17.150   7.643
 1262POPC   NC320663  42.677  28.423   9.470
 1262POPC   PO420664  42.018  28.277   9.577
 1262POPC   GL120665  42.287  28.349   9.160
 1262POPC   GL220666  42.509  28.657   9.041
 1262POPC   C1A20667  42.359  28.287   8.695
 1262POPC   D2A20668  42.219  28.084   8.310
 1262POPC   C3A20669  42.508  28.061   7.986
 1262POPC   C4A20670  42.364  28.006   7.568
 1262POPC   C1B20671  42.454  28.787   8.600
 1262POPC   C2B20672  42.404  28.590   8.206
 1262POPC   C3B20673  42.307  28.744   7.795
 1262POPC   C4B20674  42.557  28.936   7.466
 1263POPC   NC320675  34.638   8.098   9.519
 1263POPC   PO420676  34.885   8.737   9.519
 1263POPC   GL120677  34.723   8.468   9.186
 1263POPC   GL220678  34.345   8.458   9.180
 1263POPC   C1A20679  34.825   8.128   8.878
 1263POPC   D2A20680  34.964   8.288   8.498
 1263POPC   C3A20681  34.780   8.101   8.102
 1263POPC   C4A20682  34.658   8.137   7.682
 1263POPC   C1B20683  34.326   8.130   8.817
 1263POPC   C2B20684  34.389   7.941   8.413
 1263POPC   C3B20685  34.267   8.158   8.032
 1263POPC   C4B20686  34.036   8.306   7.709
 1264POPC   NC320687   1.121   5.612   9.433
 1264POPC   PO420688   1.362   6.272   9.478
 1264POPC   GL120689   1.107   6.051   9.216
 1264POPC   GL220690   1.409   5.906   9.126
 1264POPC   C1A20691   0.941   5.993   8.822
 1264POPC   D2A20692   1.044   6.119   8.392
 1264POPC   C3A20693   1.022   5.871   8.005
 1264POPC   C4A20694   1.366   6.001   7.741
 1264POPC   C1B20695   1.441   5.896   8.708
 1264POPC   C2B20696   1.319   5.658   8.374
 1264POPC   C3B20697   1.328   5.388   8.030
 1264POPC   C4B20698   1.283   5.472   7.637
 1265POPC   NC320699   8.124  13.073   9.640
 1265POPC   PO420700   8.028  12.498   9.483
 1265POPC   GL120701   8.274  12.721   9.195
 1265POPC   GL220702   8.500  12.980   9.282
 1265POPC   C1A20703   8.087  12.942   8.862
 1265POPC   D2A20704   7.894  13.079   8.460
 1265POPC   C3A20705   8.079  12.819   8.123
 1265POPC   C4A20706   8.152  12.858   7.680
 1265POPC   C1B20707   8.560  13.147   8.867
 1265POPC   C2B20708   8.407  13.227   8.434
 1265POPC   C3B20709   8.518  13.105   7.994
 1265POPC   C4B20710   8.717  13.377   7.695
 1266POPC   NC320711  34.536  17.052   9.698
 1266POPC   PO420712  34.818  16.478   9.682
 1266POPC   GL120713  34.776  16.752   9.317
 1266POPC   GL220714  34.467  16.723   9.116
 1266POPC   C1A20715  34.954  16.791   8.904
 1266POPC   D2A20716  34.791  16.699   8.533
 1266POPC   C3A20717  34.943  16.709   8.114
 1266POPC   C4A20718  34.668  16.737   7.757
 1266POPC   C1B20719  34.334  16.896   8.697
 1266POPC   C2B20720  34.350  16.734   8.282
 1266POPC   C3B20721  34.357  16.391   8.053
 1266POPC   C4B20722  34.159  16.390   7.656
 1267POPC   NC320723   0.285  38.044   9.455
 1267POPC   PO420724   0.553  38.683   9.523
 1267POPC   GL120725   0.477  38.443   9.174
 1267POPC   GL220726   0.126  38.442   9.068
 1267POPC   C1A20727   0.563  38.218   8.783
 1267POPC   D2A20728   0.338  38.262   8.386
 1267POPC   C3A20729   0.634  38.200   8.037
 1267POPC   C4A20730   0.924  38.145   7.694
 1267POPC   C1B20731   0.358  38.687   8.739
 1267POPC   C2B20732   0.410  38.967   8.366
 1267POPC   C3B20733   0.447  38.820   7.970
 1267POPC   C4B20734   0.184  38.453   7.923
 1268POPC   NC320735  37.314  10.957   9.422
 1268POPC   PO420736  36.833  11.392   9.399
 1268POPC   GL120737  37.088  11.322   9.074
 1268POPC   GL220738  37.435  11.403   9.187
 1268POPC   C1A20739  36.820  11.481   8.740
 1268POPC   D2A20740  36.567  11.442   8.339
 1268POPC   C3A20741  36.666  11.142   8.025
 1268POPC   C4A20742  36.825  11.208   7.649
 1268POPC   C1B20743  37.429  11.543   8.756
 1268POPC   C2B20744  37.142  11.573   8.388
 1268POPC   C3B20745  37.117  11.408   8.009
 1268POPC   C4B20746  37.182  11.581   7.606
 1269POPC   NC320747  39.898  20.081   9.440
 1269POPC   PO420748  40.124  19.439   9.505
 1269POPC   GL120749  39.986  19.676   9.152
 1269POPC   GL220750  40.241  19.959   9.094
 1269POPC   C1A20751  39.928  19.808   8.737
 1269POPC   D2A20752  40.185  20.007   8.482
 1269POPC   C3A20753  39.900  19.889   8.192
 1269POPC   C4A20754  39.837  19.938   7.798
 1269POPC   C1B20755  40.389  19.591   8.831
 1269POPC   C2B20756  40.252  19.482   8.425
 1269POPC   C3B20757  40.315  19.664   8.001
 1269POPC   C4B20758  40.473  19.590   7.573
 1270POPC   NC320759  40.635  42.335   9.485
 1270POPC   PO420760  41.237  42.520   9.287
 1270POPC   GL120761  40.980  42.169   9.128
 1270POPC   GL220762  40.609  42.050   9.070
 1270POPC   C1A20763  41.060  42.089   8.726
 1270POPC   D2A20764  40.864  41.989   8.371
 1270POPC   C3A20765  41.039  42.245   8.061
 1270POPC   C4A20766  40.773  42.388   7.736
 1270POPC   C1B20767  40.662  42.450   8.822
 1270POPC   C2B20768  40.711  42.499   8.376
 1270POPC   C3B20769  40.469  42.205   8.119
 1270POPC   C4B20770  40.283  42.234   7.718
 1271POPC   NC320771  38.084   7.259   9.508
 1271POPC   PO420772  37.471   7.053   9.366
 1271POPC   GL120773  37.755   7.361   9.134
 1271POPC   GL220774  38.080   7.183   9.010
 1271POPC   C1A20775  37.704   7.586   8.746
 1271POPC   D2A20776  37.433   7.504   8.367
 1271POPC   C3A20777  37.656   7.351   8.004
 1271POPC   C4A20778  37.939   7.602   7.752
 1271POPC   C1B20779  37.767   7.028   8.741
 1271POPC   C2B20780  37.581   6.914   8.377
 1271POPC   C3B20781  37.263   6.874   8.074
 1271POPC   C4B20782  37.373   7.059   7.693
 1272POPC   NC320783  36.616  37.772   9.507
 1272POPC   PO420784  37.188  37.468   9.628
 1272POPC   GL120785  37.071  37.581   9.199
 1272POPC   GL220786  36.965  37.932   9.160
 1272POPC   C1A20787  37.151  37.488   8.755
 1272POPC   D2A20788  37.367  37.544   8.345
 1272POPC   C3A20789  37.128  37.369   7.974
 1272POPC   C4A20790  36.826  37.492   7.607
 1272POPC   C1B20791  36.609  37.908   8.853
 1272POPC   C2B20792  36.479  37.796   8.429
 1272POPC   C3B20793  36.732  37.802   8.042
 1272POPC   C4B20794  36.764  38.017   7.671
 1273POPC   NC320795  17.384  39.945   9.999
 1273POPC   PO420796  17.549  40.408   9.524
 1273POPC   GL120797  17.394  40.199   9.117
 1273POPC   GL220798  17.370  39.827   9.098
 1273POPC   C1A20799  17.453  40.114   8.677
 1273POPC   D2A20800  17.260  39.890   8.334
 1273POPC   C3A20801  17.503  40.005   8.005
 1273POPC   C4A20802  17.705  39.902   7.651
 1273POPC   C1B20803  17.788  39.776   8.842
 1273POPC   C2B20804  17.758  39.737   8.415
 1273POPC   C3B20805  17.858  39.573   8.027
 1273POPC   C4B20806  18.132  39.618   7.691
 1274POPC   NC320807  43.518  37.904   9.570
 1274POPC   PO420808  44.102  37.616   9.549
 1274POPC   GL120809  43.877  37.731   9.187
 1274POPC   GL220810  44.080  37.993   9.135
 1274POPC   C1A20811  43.808  37.720   8.730
 1274POPC   D2A20812  43.965  37.540   8.356
 1274POPC   C3A20813  43.930  37.670   7.945
 1274POPC   C4A20814  43.733  37.720   7.542
 1274POPC   C1B20815  44.189  38.086   8.750
 1274POPC   C2B20816  44.023  38.036   8.340
 1274POPC   C3B20817  44.315  38.023   7.986
 1274POPC   C4B20818  44.319  38.066   7.524
 1275POPC   NC320819   7.910  11.126   9.539
 1275POPC   PO420820   8.527  11.319   9.742
 1275POPC   GL120821   8.213  11.486   9.350
 1275POPC   GL220822   8.140  11.195   9.078
 1275POPC   C1A20823   7.985  11.626   8.924
 1275POPC   D2A20824   8.237  11.464   8.580
 1275POPC   C3A20825   8.193  11.554   8.143
 1275POPC   C4A20826   8.080  11.593   7.714
 1275POPC   C1B20827   8.141  10.961   8.693
 1275POPC   C2B20828   8.295  11.060   8.276
 1275POPC   C3B20829   8.053  11.087   7.916
 1275POPC   C4B20830   8.114  11.097   7.496
 1276POPC   NC320831   5.484  25.685   9.483
 1276POPC   PO420832   5.184  25.134   9.607
 1276POPC   GL120833   5.099  25.305   9.186
 1276POPC   GL220834   5.364  25.132   9.037
 1276POPC   C1A20835   4.977  25.251   8.707
 1276POPC   D2A20836   5.169  25.148   8.278
 1276POPC   C3A20837   4.984  25.295   7.871
 1276POPC   C4A20838   4.731  25.317   7.457
 1276POPC   C1B20839   5.379  25.540   8.810
 1276POPC   C2B20840   5.296  25.633   8.378
 1276POPC   C3B20841   5.469  25.475   7.982
 1276POPC   C4B20842   5.428  25.067   7.815
 1277POPC   NC320843  37.085  30.292   9.527
 1277POPC   PO420844  36.736  29.658   9.469
 1277POPC   GL120845  36.804  29.912   9.130
 1277POPC   GL220846  37.128  29.891   9.110
 1277POPC   C1A20847  36.729  29.751   8.697
 1277POPC   D2A20848  36.946  29.804   8.314
 1277POPC   C3A20849  36.814  29.696   7.907
 1277POPC   C4A20850  36.920  29.915   7.496
 1277POPC   C1B20851  37.353  30.014   8.734
 1277POPC   C2B20852  37.451  29.832   8.316
 1277POPC   C3B20853  37.287  29.935   7.889
 1277POPC   C4B20854  37.447  29.859   7.470
 1278POPC   NC320855  17.065  30.615   9.635
 1278POPC   PO420856  16.440  30.381   9.416
 1278POPC   GL120857  16.758  30.638   9.186
 1278POPC   GL220858  17.033  30.399   9.173
 1278POPC   C1A20859  16.703  30.898   8.803
 1278POPC   D2A20860  16.622  31.034   8.386
 1278POPC   C3A20861  16.716  30.835   7.965
 1278POPC   C4A20862  16.384  30.808   7.634
 1278POPC   C1B20863  16.770  30.273   8.819
 1278POPC   C2B20864  16.732  30.488   8.430
 1278POPC   C3B20865  16.818  30.285   8.058
 1278POPC   C4B20866  16.629  30.375   7.705
 1279POPC   NC320867   9.072   8.195  10.086
 1279POPC   PO420868   8.635   8.317   9.767
 1279POPC   GL120869   8.680   8.252   9.267
 1279POPC   GL220870   9.038   8.155   9.136
 1279POPC   C1A20871   8.695   8.205   8.768
 1279POPC   D2A20872   8.800   7.914   8.419
 1279POPC   C3A20873   8.784   8.048   7.976
 1279POPC   C4A20874   8.792   8.226   7.548
 1279POPC   C1B20875   9.204   8.142   8.668
 1279POPC   C2B20876   9.259   7.989   8.218
 1279POPC   C3B20877   9.277   8.192   7.811
 1279POPC   C4B20878   9.443   8.046   7.409
 1280POPC   NC320879   5.977   3.752   9.353
 1280POPC   PO420880   6.129   3.240   9.694
 1280POPC   GL120881   5.860   3.311   9.204
 1280POPC   GL220882   5.482   3.259   9.177
 1280POPC   C1A20883   5.867   3.611   8.764
 1280POPC   D2A20884   5.977   3.783   8.355
 1280POPC   C3A20885   5.717   3.728   8.012
 1280POPC   C4A20886   5.846   3.566   7.639
 1280POPC   C1B20887   5.429   3.388   8.769
 1280POPC   C2B20888   5.613   3.373   8.354
 1280POPC   C3B20889   5.564   3.225   7.910
 1280POPC   C4B20890   5.695   3.124   7.450
 1281POPC   NC320891  40.531  44.105   9.534
 1281POPC   PO420892  41.172  43.756   9.615
 1281POPC   GL120893  41.068  43.815   9.186
 1281POPC   GL220894  40.728  43.742   9.202
 1281POPC   C1A20895  40.893  44.025   8.803
 1281POPC   D2A20896  40.896  44.167   8.365
 1281POPC   C3A20897  40.789  43.964   7.963
 1281POPC   C4A20898  40.871  43.855   7.505
 1281POPC   C1B20899  40.547  43.607   8.836
 1281POPC   C2B20900  40.609  43.714   8.416
 1281POPC   C3B20901  40.410  43.602   8.057
 1281POPC   C4B20902  40.397  43.764   7.653
 1282POPC   NC320903   5.560  39.148   9.643
 1282POPC   PO420904   4.920  38.947   9.592
 1282POPC   GL120905   5.160  39.150   9.273
 1282POPC   GL220906   4.995  39.472   9.226
 1282POPC   C1A20907   5.264  39.317   8.827
 1282POPC   D2A20908   5.420  39.128   8.447
 1282POPC   C3A20909   5.285  39.280   8.053
 1282POPC   C4A20910   5.331  39.080   7.645
 1282POPC   C1B20911   4.789  39.153   8.930
 1282POPC   C2B20912   4.875  39.110   8.514
 1282POPC   C3B20913   4.831  39.019   8.106
 1282POPC   C4B20914   4.819  39.239   7.723
 1283POPC   NC320915  18.570  29.814   9.611
 1283POPC   PO420916  18.137  30.253   9.713
 1283POPC   GL120917  18.177  30.029   9.281
 1283POPC   GL220918  18.444  29.791   9.121
 1283POPC   C1A20919  18.012  29.871   8.876
 1283POPC   D2A20920  18.179  29.817   8.440
 1283POPC   C3A20921  18.158  30.011   8.022
 1283POPC   C4A20922  18.523  30.017   7.727
 1283POPC   C1B20923  18.501  29.542   8.732
 1283POPC   C2B20924  18.604  29.386   8.317
 1283POPC   C3B20925  18.391  29.548   7.933
 1283POPC   C4B20926  17.955  29.613   7.752
 1284POPC   NC320927  20.658  17.886   9.978
 1284POPC   PO420928  20.565  17.314   9.703
 1284POPC   GL120929  20.535  17.105   9.261
 1284POPC   GL220930  20.248  17.245   9.098
 1284POPC   C1A20931  20.696  17.177   8.826
 1284POPC   D2A20932  20.801  17.306   8.386
 1284POPC   C3A20933  20.530  17.242   8.024
 1284POPC   C4A20934  20.150  17.469   7.915
 1284POPC   C1B20935  20.278  17.391   8.625
 1284POPC   C2B20936  20.445  17.690   8.283
 1284POPC   C3B20937  20.385  17.916   7.864
 1284POPC   C4B20938  20.178  17.744   7.476
 1285POPC   NC320939   7.304  40.694   9.391
 1285POPC   PO420940   6.894  41.226   9.255
 1285POPC   GL120941   7.264  41.139   9.053
 1285POPC   GL220942   7.623  41.114   9.169
 1285POPC   C1A20943   7.310  40.980   8.664
 1285POPC   D2A20944   7.521  40.741   8.382
 1285POPC   C3A20945   7.464  40.875   7.986
 1285POPC   C4A20946   7.317  40.530   7.802
 1285POPC   C1B20947   7.737  40.773   8.850
 1285POPC   C2B20948   7.941  40.509   8.514
 1285POPC   C3B20949   7.788  40.425   8.070
 1285POPC   C4B20950   7.805  40.646   7.655
 1286POPC   NC320951   1.819   6.068   9.418
 1286POPC   PO420952   2.240   5.806   9.775
 1286POPC   GL120953   2.161   5.682   9.205
 1286POPC   GL220954   1.853   5.646   9.078
 1286POPC   C1A20955   2.146   5.850   8.716
 1286POPC   D2A20956   2.195   5.680   8.288
 1286POPC   C3A20957   2.168   5.972   7.925
 1286POPC   C4A20958   2.181   5.969   7.465
 1286POPC   C1B20959   1.932   5.387   8.731
 1286POPC   C2B20960   1.770   5.392   8.336
 1286POPC   C3B20961   1.724   5.711   8.033
 1286POPC   C4B20962   1.781   5.727   7.619
 1287POPC   NC320963  20.240  26.196   9.448
 1287POPC   PO420964  19.704  25.861   9.487
 1287POPC   GL120965  19.844  25.929   9.100
 1287POPC   GL220966  20.136  25.800   9.130
 1287POPC   C1A20967  19.789  25.925   8.659
 1287POPC   D2A20968  19.600  26.098   8.337
 1287POPC   C3A20969  19.820  26.061   7.969
 1287POPC   C4A20970  19.746  26.331   7.635
 1287POPC   C1B20971  20.286  25.872   8.754
 1287POPC   C2B20972  20.229  26.030   8.362
 1287POPC   C3B20973  20.400  25.953   7.968
 1287POPC   C4B20974  20.192  26.093   7.600
 1288POPC   NC320975  30.214  43.451   9.360
 1288POPC   PO420976  30.850  43.268   9.583
 1288POPC   GL120977  30.723  43.271   9.140
 1288POPC   GL220978  30.583  43.598   9.064
 1288POPC   C1A20979  30.700  42.988   8.747
 1288POPC   D2A20980  30.958  42.771   8.399
 1288POPC   C3A20981  30.922  42.960   7.988
 1288POPC   C4A20982  30.554  42.893   7.725
 1288POPC   C1B20983  30.709  43.500   8.680
 1288POPC   C2B20984  30.658  43.273   8.305
 1288POPC   C3B20985  30.542  43.381   7.891
 1288POPC   C4B20986  30.690  43.308   7.462
 1289POPC   NC320987  28.761   0.707   9.340
 1289POPC   PO420988  29.325   1.064   9.612
 1289POPC   GL120989  29.103   0.940   9.071
 1289POPC   GL220990  28.816   0.971   8.916
 1289POPC   C1A20991  29.271   0.817   8.628
 1289POPC   D2A20992  29.585   0.824   8.262
 1289POPC   C3A20993  29.348   0.802   7.853
 1289POPC   C4A20994  29.075   0.979   7.510
 1289POPC   C1B20995  28.836   1.103   8.518
 1289POPC   C2B20996  28.906   0.882   8.141
 1289POPC   C3B20997  28.669   0.958   7.811
 1289POPC   C4B20998  28.678   1.314   7.530
 1290POPC   NC320999  34.953  40.368   9.564
 1290POPC   PO421000  34.456  39.779   9.448
 1290POPC   GL121001  34.588  40.092   9.203
 1290POPC   GL221002  34.328  40.359   9.234
 1290POPC   C1A21003  34.751  40.008   8.792
 1290POPC   D2A21004  34.751  39.732   8.434
 1290POPC   C3A21005  34.652  39.948   8.042
 1290POPC   C4A21006  34.716  39.759   7.628
 1290POPC   C1B21007  34.449  40.430   8.827
 1290POPC   C2B21008  34.562  40.311   8.438
 1290POPC   C3B21009  34.408  40.435   8.082
 1290POPC   C4B21010  34.533  40.325   7.694
 1291POPC   NC321011   3.862  39.686   9.491
 1291POPC   PO421012   3.577  40.293   9.556
 1291POPC   GL121013   3.476  39.951   9.263
 1291POPC   GL221014   3.287  40.168   9.095
 1291POPC   C1A21015   3.571  39.737   8.865
 1291POPC   D2A21016   3.811  39.849   8.489
 1291POPC   C3A21017   3.601  39.895   8.118
 1291POPC   C4A21018   3.691  39.736   7.726
 1291POPC   C1B21019   3.542  40.230   8.747
 1291POPC   C2B21020   3.647  40.363   8.341
 1291POPC   C3B21021   3.473  40.408   7.957
 1291POPC   C4B21022   3.325  40.106   7.716
 1292POPC   NC321023  24.220  41.674   9.486
 1292POPC   PO421024  24.753  41.335   9.329
 1292POPC   GL121025  24.411  41.502   9.051
 1292POPC   GL221026  24.306  41.244   8.895
 1292POPC   C1A21027  24.174  41.613   8.615
 1292POPC   D2A21028  24.318  41.564   8.194
 1292POPC   C3A21029  24.665  41.732   8.070
 1292POPC   C4A21030  24.774  41.734   7.685
 1292POPC   C1B21031  24.655  41.466   8.605
 1292POPC   C2B21032  24.812  41.270   8.242
 1292POPC   C3B21033  24.658  41.230   7.828
 1292POPC   C4B21034  24.395  41.296   7.496
 1293POPC   NC321035  11.858   1.795   9.486
 1293POPC   PO421036  11.999   2.343   9.759
 1293POPC   GL121037  12.156   2.201   9.263
 1293POPC   GL221038  12.017   1.893   9.036
 1293POPC   C1A21039  12.002   2.322   8.792
 1293POPC   D2A21040  11.893   2.005   8.436
 1293POPC   C3A21041  11.625   2.151   8.085
 1293POPC   C4A21042  11.579   2.206   7.644
 1293POPC   C1B21043  12.320   1.952   8.740
 1293POPC   C2B21044  12.359   2.194   8.362
 1293POPC   C3B21045  12.319   2.015   7.951
 1293POPC   C4B21046  12.386   1.778   7.561
 1294POPC   NC321047  29.802  39.390   9.450
 1294POPC   PO421048  30.449  39.137   9.515
 1294POPC   GL121049  30.232  39.277   9.175
 1294POPC   GL221050  29.995  39.027   9.136
 1294POPC   C1A21051  30.032  39.469   8.830
 1294POPC   D2A21052  29.891  39.365   8.392
 1294POPC   C3A21053  29.893  39.447   7.943
 1294POPC   C4A21054  29.615  39.113   7.758
 1294POPC   C1B21055  30.032  38.974   8.704
 1294POPC   C2B21056  30.216  38.943   8.314
 1294POPC   C3B21057  30.127  38.986   7.880
 1294POPC   C4B21058  30.108  39.290   7.513
 1295POPC   NC321059  32.616  20.151   9.557
 1295POPC   PO421060  33.310  20.421   9.626
 1295POPC   GL121061  32.993  20.574   9.242
 1295POPC   GL221062  32.728  20.409   9.151
 1295POPC   C1A21063  32.885  20.714   8.760
 1295POPC   D2A21064  33.296  20.688   8.507
 1295POPC   C3A21065  33.209  20.688   8.064
 1295POPC   C4A21066  32.839  20.859   7.877
 1295POPC   C1B21067  33.044  20.257   8.827
 1295POPC   C2B21068  32.955  20.345   8.391
 1295POPC   C3B21069  32.782  20.363   7.967
 1295POPC   C4B21070  33.027  20.471   7.609
 1296POPC   NC321071  22.338  11.179   9.495
 1296POPC   PO421072  21.822  11.637   9.477
 1296POPC   GL121073  21.916  11.220   9.228
 1296POPC   GL221074  22.216  11.303   9.020
 1296POPC   C1A21075  21.938  10.963   8.801
 1296POPC   D2A21076  22.118  11.187   8.438
 1296POPC   C3A21077  22.038  11.058   8.011
 1296POPC   C4A21078  22.106  11.353   7.658
 1296POPC   C1B21079  22.536  11.318   8.709
 1296POPC   C2B21080  22.617  11.123   8.356
 1296POPC   C3B21081  22.496  11.293   7.990
 1296POPC   C4B21082  22.569  11.155   7.579
 1297POPC   NC321083  27.704  14.988   9.462
 1297POPC   PO421084  27.172  15.380   9.497
 1297POPC   GL121085  27.457  15.281   9.141
 1297POPC   GL221086  27.469  14.949   9.014
 1297POPC   C1A21087  27.552  15.379   8.718
 1297POPC   D2A21088  27.723  15.224   8.350
 1297POPC   C3A21089  27.607  15.351   7.946
 1297POPC   C4A21090  27.874  15.428   7.604
 1297POPC   C1B21091  27.879  14.998   8.800
 1297POPC   C2B21092  28.141  14.947   8.414
 1297POPC   C3B21093  28.060  15.072   7.970
 1297POPC   C4B21094  28.020  14.946   7.529
 1298POPC   NC321095  23.646   2.803   9.903
 1298POPC   PO421096  23.352   2.874   9.542
 1298POPC   GL121097  23.555   2.855   9.111
 1298POPC   GL221098  23.923   2.772   9.149
 1298POPC   C1A21099  23.434   2.907   8.647
 1298POPC   D2A21100  23.706   3.089   8.341
 1298POPC   C3A21101  23.713   3.032   7.891
 1298POPC   C4A21102  23.922   2.802   7.559
 1298POPC   C1B21103  23.905   2.696   8.698
 1298POPC   C2B21104  23.668   2.561   8.326
 1298POPC   C3B21105  23.599   2.513   7.881
 1298POPC   C4B21106  23.662   2.379   7.436
 1299POPC   NC321107  32.485  18.185   9.463
 1299POPC   PO421108  31.813  18.415   9.315
 1299POPC   GL121109  32.137  18.316   9.103
 1299POPC   GL221110  32.420  18.534   9.102
 1299POPC   C1A21111  32.143  18.409   8.675
 1299POPC   D2A21112  32.152  18.573   8.280
 1299POPC   C3A21113  32.146  18.229   7.990
 1299POPC   C4A21114  31.993  18.206   7.605
 1299POPC   C1B21115  32.612  18.260   8.795
 1299POPC   C2B21116  32.731  18.403   8.382
 1299POPC   C3B21117  32.570  18.512   7.976
 1299POPC   C4B21118  32.595  18.203   7.681
 1300POPC   NC321119  41.853  20.937   9.553
 1300POPC   PO421120  41.222  20.605   9.549
 1300POPC   GL121121  41.524  20.540   9.201
 1300POPC   GL221122  41.792  20.774   9.084
 1300POPC   C1A21123  41.560  20.444   8.769
 1300POPC   D2A21124  41.602  20.708   8.408
 1300POPC   C3A21125  41.458  20.492   8.072
 1300POPC   C4A21126  41.538  20.629   7.673
 1300POPC   C1B21127  41.941  20.962   8.697
 1300POPC   C2B21128  42.003  21.134   8.240
 1300POPC   C3B21129  41.816  21.025   7.836
 1300POPC   C4B21130  41.742  20.991   7.337
 1301POPC   NC321131  37.213  39.511   9.409
 1301POPC   PO421132  36.655  39.181   9.476
 1301POPC   GL121133  36.888  39.277   9.093
 1301POPC   GL221134  37.188  39.073   9.118
 1301POPC   C1A21135  36.922  39.425   8.678
 1301POPC   D2A21136  36.653  39.338   8.298
 1301POPC   C3A21137  36.783  39.443   7.878
 1301POPC   C4A21138  36.689  39.479   7.439
 1301POPC   C1B21139  37.122  38.929   8.708
 1301POPC   C2B21140  37.178  39.177   8.320
 1301POPC   C3B21141  37.230  39.194   7.891
 1301POPC   C4B21142  37.252  39.414   7.521
 1302POPC   NC321143   8.319   5.237   9.974
 1302POPC   PO421144   8.328   4.715   9.616
 1302POPC   GL121145   8.014   4.825   9.270
 1302POPC   GL221146   8.011   5.180   9.221
 1302POPC   C1A21147   8.058   4.793   8.805
 1302POPC   D2A21148   7.863   4.890   8.388
 1302POPC   C3A21149   8.106   4.948   7.998
 1302POPC   C4A21150   8.256   4.927   7.571
 1302POPC   C1B21151   8.158   5.386   8.830
 1302POPC   C2B21152   8.120   5.340   8.373
 1302POPC   C3B21153   8.050   5.512   7.956
 1302POPC   C4B21154   8.178   5.435   7.530
 1303POPC   NC321155   8.526  37.790   9.393
 1303POPC   PO421156   7.931  37.572   9.396
 1303POPC   GL121157   8.092  37.774   9.027
 1303POPC   GL221158   8.409  37.569   8.945
 1303POPC   C1A21159   8.107  37.761   8.575
 1303POPC   D2A21160   8.389  37.430   8.439
 1303POPC   C3A21161   8.278  37.485   8.034
 1303POPC   C4A21162   7.961  37.811   8.018
 1303POPC   C1B21163   8.524  37.983   8.759
 1303POPC   C2B21164   8.386  38.149   8.353
 1303POPC   C3B21165   8.437  37.992   7.954
 1303POPC   C4B21166   8.535  37.703   7.644
 1304POPC   NC321167  29.372  10.931   9.512
 1304POPC   PO421168  29.166  11.553   9.393
 1304POPC   GL121169  29.021  11.400   9.017
 1304POPC   GL221170  29.081  11.080   9.112
 1304POPC   C1A21171  29.135  11.352   8.583
 1304POPC   D2A21172  29.469  11.503   8.287
 1304POPC   C3A21173  29.199  11.644   7.965
 1304POPC   C4A21174  28.782  11.500   7.907
 1304POPC   C1B21175  29.289  10.894   8.794
 1304POPC   C2B21176  29.375  10.935   8.360
 1304POPC   C3B21177  29.187  11.132   8.056
 1304POPC   C4B21178  29.170  11.195   7.640
 1305POPC   NC321179   4.482  30.548   9.746
 1305POPC   PO421180   4.023  30.937   9.517
 1305POPC   GL121181   4.161  30.647   9.183
 1305POPC   GL221182   4.405  30.383   9.260
 1305POPC   C1A21183   4.040  30.429   8.797
 1305POPC   D2A21184   3.923  30.467   8.347
 1305POPC   C3A21185   4.256  30.667   8.075
 1305POPC   C4A21186   4.232  30.685   7.602
 1305POPC   C1B21187   4.543  30.511   8.845
 1305POPC   C2B21188   4.631  30.596   8.437
 1305POPC   C3B21189   4.715  30.400   8.062
 1305POPC   C4B21190   4.527  30.273   7.664
 1306POPC   NC321191  38.669  14.669   9.539
 1306POPC   PO421192  38.153  14.244   9.533
 1306POPC   GL121193  38.293  14.551   9.219
 1306POPC   GL221194  38.256  14.266   9.014
 1306POPC   C1A21195  38.460  14.659   8.801
 1306POPC   D2A21196  38.225  14.536   8.410
 1306POPC   C3A21197  38.341  14.656   7.986
 1306POPC   C4A21198  38.580  14.650   7.593
 1306POPC   C1B21199  38.549  14.157   8.680
 1306POPC   C2B21200  38.599  14.051   8.261
 1306POPC   C3B21201  38.431  14.163   7.879
 1306POPC   C4B21202  38.692  14.179   7.524
 1307POPC   NC321203  24.719  13.809   9.501
 1307POPC   PO421204  24.282  13.280   9.445
 1307POPC   GL121205  24.261  13.485   9.083
 1307POPC   GL221206  24.412  13.781   9.102
 1307POPC   C1A21207  24.456  13.469   8.685
 1307POPC   D2A21208  24.268  13.647   8.305
 1307POPC   C3A21209  24.337  13.483   7.908
 1307POPC   C4A21210  24.255  13.486   7.489
 1307POPC   C1B21211  24.233  13.922   8.737
 1307POPC   C2B21212  24.311  14.158   8.345
 1307POPC   C3B21213  24.480  13.978   7.939
 1307POPC   C4B21214  24.515  13.948   7.471
 1308POPC   NC321215  26.596  23.704   9.479
 1308POPC   PO421216  27.250  23.837   9.629
 1308POPC   GL121217  27.045  23.766   9.174
 1308POPC   GL221218  26.758  23.495   9.035
 1308POPC   C1A21219  26.901  23.880   8.726
 1308POPC   D2A21220  26.667  23.674   8.450
 1308POPC   C3A21221  26.771  23.504   8.045
 1308POPC   C4A21222  26.881  23.794   7.741
 1308POPC   C1B21223  26.348  23.712   8.843
 1308POPC   C2B21224  26.307  24.034   8.486
 1308POPC   C3B21225  26.447  23.899   8.044
 1308POPC   C4B21226  26.293  23.730   7.668
 1309POPC   NC321227  14.023  24.205   9.436
 1309POPC   PO421228  14.489  24.728   9.448
 1309POPC   GL121229  14.242  24.679   9.130
 1309POPC   GL221230  13.908  24.657   9.201
 1309POPC   C1A21231  14.352  24.686   8.734
 1309POPC   D2A21232  14.565  24.593   8.365
 1309POPC   C3A21233  14.395  24.422   7.984
 1309POPC   C4A21234  14.279  24.604   7.573
 1309POPC   C1B21235  13.844  24.724   8.754
 1309POPC   C2B21236  14.026  24.645   8.343
 1309POPC   C3B21237  14.115  24.896   7.987
 1309POPC   C4B21238  13.888  24.931   7.611
 1310POPC   NC321239  37.265  32.510   9.594
 1310POPC   PO421240  36.632  32.224   9.647
 1310POPC   GL121241  36.727  32.237   9.197
 1310POPC   GL221242  37.073  32.310   9.158
 1310POPC   C1A21243  36.731  32.277   8.731
 1310POPC   D2A21244  36.661  32.062   8.301
 1310POPC   C3A21245  36.678  32.220   7.857
 1310POPC   C4A21246  36.621  32.059   7.398
 1310POPC   C1B21247  37.240  32.384   8.748
 1310POPC   C2B21248  37.165  32.171   8.368
 1310POPC   C3B21249  37.182  32.299   7.961
 1310POPC   C4B21250  37.090  32.149   7.557
 1311POPC   NC321251  35.381  29.829   9.535
 1311POPC   PO421252  35.080  30.488   9.442
 1311POPC   GL121253  35.315  30.148   9.132
 1311POPC   GL221254  35.095  29.998   8.886
 1311POPC   C1A21255  35.524  29.784   8.856
 1311POPC   D2A21256  35.505  29.916   8.434
 1311POPC   C3A21257  35.627  29.768   8.038
 1311POPC   C4A21258  35.474  29.895   7.657
 1311POPC   C1B21259  34.820  29.800   8.659
 1311POPC   C2B21260  34.790  29.648   8.280
 1311POPC   C3B21261  35.122  29.765   8.032
 1311POPC   C4B21262  35.284  29.403   7.838
 1312POPC   NC321263  32.441   9.638   9.410
 1312POPC   PO421264  32.181  10.186   9.659
 1312POPC   GL121265  32.057   9.950   9.231
 1312POPC   GL221266  32.358   9.862   8.975
 1312POPC   C1A21267  31.906   9.802   8.791
 1312POPC   D2A21268  32.202   9.968   8.459
 1312POPC   C3A21269  32.135   9.842   8.036
 1312POPC   C4A21270  32.076   9.814   7.586
 1312POPC   C1B21271  32.504   9.569   8.639
 1312POPC   C2B21272  32.520   9.541   8.175
 1312POPC   C3B21273  32.532   9.606   7.744
 1312POPC   C4B21274  32.455   9.457   7.368
 1313POPC   NC321275  27.500  29.184   9.630
 1313POPC   PO421276  28.057  29.322   9.307
 1313POPC   GL121277  27.678  29.191   9.141
 1313POPC   GL221278  27.410  28.955   9.190
 1313POPC   C1A21279  27.430  29.342   8.839
 1313POPC   D2A21280  27.412  29.224   8.426
 1313POPC   C3A21281  27.702  29.339   8.095
 1313POPC   C4A21282  27.515  29.202   7.710
 1313POPC   C1B21283  27.542  28.848   8.782
 1313POPC   C2B21284  27.370  28.707   8.423
 1313POPC   C3B21285  27.434  28.776   8.021
 1313POPC   C4B21286  27.339  28.727   7.597
 1314POPC   NC321287  27.035  21.996   9.796
 1314POPC   PO421288  26.565  22.476   9.724
 1314POPC   GL121289  26.789  22.327   9.352
 1314POPC   GL221290  27.046  22.502   9.169
 1314POPC   C1A21291  26.753  22.144   8.904
 1314POPC   D2A21292  26.871  22.010   8.469
 1314POPC   C3A21293  26.643  22.066   8.086
 1314POPC   C4A21294  26.785  22.099   7.634
 1314POPC   C1B21295  27.079  22.522   8.726
 1314POPC   C2B21296  26.937  22.607   8.307
 1314POPC   C3B21297  26.667  22.528   7.912
 1314POPC   C4B21298  26.248  22.466   7.732
 1315POPC   NC321299   1.421   4.763   9.383
 1315POPC   PO421300   1.491   4.101   9.508
 1315POPC   GL121301   1.238   4.085   9.160
 1315POPC   GL221302   0.888   4.006   9.284
 1315POPC   C1A21303   1.266   4.311   8.765
 1315POPC   D2A21304   1.505   4.249   8.400
 1315POPC   C3A21305   1.502   4.462   8.026
 1315POPC   C4A21306   1.499   4.208   7.689
 1315POPC   C1B21307   0.828   4.040   8.858
 1315POPC   C2B21308   0.820   4.269   8.487
 1315POPC   C3B21309   1.033   4.245   8.123
 1315POPC   C4B21310   1.043   4.476   7.759
 1316POPC   NC321311   5.102  42.534   9.415
 1316POPC   PO421312   5.323  41.966   9.237
 1316POPC   GL121313   5.088  42.279   8.987
 1316POPC   GL221314   5.135  42.681   8.941
 1316POPC   C1A21315   5.025  42.192   8.597
 1316POPC   D2A21316   5.299  41.960   8.418
 1316POPC   C3A21317   5.165  42.047   8.038
 1316POPC   C4A21318   5.257  41.889   7.677
 1316POPC   C1B21319   4.769  42.623   8.726
 1316POPC   C2B21320   4.749  42.530   8.319
 1316POPC   C3B21321   4.966  42.523   7.938
 1316POPC   C4B21322   4.754  42.611   7.583
 1317POPC   NC321323   0.082  17.397   9.914
 1317POPC   PO421324   0.625  17.780   9.810
 1317POPC   GL121325   0.542  17.588   9.305
 1317POPC   GL221326   0.182  17.459   9.245
 1317POPC   C1A21327   0.647  17.668   8.841
 1317POPC   D2A21328   0.801  17.888   8.429
 1317POPC   C3A21329   0.637  17.733   7.998
 1317POPC   C4A21330   0.500  17.302   7.784
 1317POPC   C1B21331   0.137  17.797   8.920
 1317POPC   C2B21332   0.290  17.769   8.478
 1317POPC   C3B21333   0.177  17.557   8.093
 1317POPC   C4B21334   0.019  17.775   7.747
 1318POPC   NC321335  40.554  29.811   9.480
 1318POPC   PO421336  41.146  30.264   9.535
 1318POPC   GL121337  40.926  30.021   9.206
 1318POPC   GL221338  40.594  30.190   9.159
 1318POPC   C1A21339  40.767  29.821   8.798
 1318POPC   D2A21340  40.964  29.646   8.405
 1318POPC   C3A21341  40.762  29.598   7.993
 1318POPC   C4A21342  40.917  29.523   7.548
 1318POPC   C1B21343  40.371  30.148   8.796
 1318POPC   C2B21344  40.609  30.221   8.467
 1318POPC   C3B21345  40.590  30.116   8.074
 1318POPC   C4B21346  40.692  29.974   7.666
 1319POPC   NC321347  36.443  16.696   9.746
 1319POPC   PO421348  37.023  16.656   9.481
 1319POPC   GL121349  36.897  16.502   9.090
 1319POPC   GL221350  37.166  16.267   9.103
 1319POPC   C1A21351  36.934  16.574   8.656
 1319POPC   D2A21352  37.077  16.905   8.383
 1319POPC   C3A21353  36.880  16.959   7.989
 1319POPC   C4A21354  36.699  16.723   7.621
 1319POPC   C1B21355  37.218  16.164   8.707
 1319POPC   C2B21356  36.974  16.114   8.349
 1319POPC   C3B21357  36.889  16.447   8.065
 1319POPC   C4B21358  37.177  16.622   7.728
 1320POPC   NC321359   2.595  42.497   9.403
 1320POPC   PO421360   3.021  42.042   9.470
 1320POPC   GL121361   2.800  42.109   9.132
 1320POPC   GL221362   2.998  42.422   9.079
 1320POPC   C1A21363   2.703  42.217   8.730
 1320POPC   D2A21364   2.864  42.469   8.388
 1320POPC   C3A21365   2.720  42.361   7.984
 1320POPC   C4A21366   2.676  42.059   7.679
 1320POPC   C1B21367   3.132  42.706   8.756
 1320POPC   C2B21368   3.263  42.779   8.308
 1320POPC   C3B21369   3.074  42.716   7.914
 1320POPC   C4B21370   2.653  42.805   7.730
 1321POPC   NC321371  44.662   5.510   9.534
 1321POPC   PO421372  44.724   6.156   9.509
 1321POPC   GL121373  44.556   6.066   9.136
 1321POPC   GL221374  44.703   5.739   9.061
 1321POPC   C1A21375  44.375   5.995   8.728
 1321POPC   D2A21376  44.630   6.088   8.338
 1321POPC   C3A21377  44.574   6.065   7.887
 1321POPC   C4A21378  44.243   6.303   7.694
 1321POPC   C1B21379  44.928   5.968   8.729
 1321POPC   C2B21380   0.154   5.923   8.347
 1321POPC   C3B21381   0.041   5.799   7.930
 1321POPC   C4B21382  44.750   5.491   7.778
 1322POPC   NC321383  42.318   9.389   9.389
 1322POPC   PO421384  42.630   8.870   9.162
 1322POPC   GL121385  42.216   8.803   8.978
 1322POPC   GL221386  42.166   9.139   8.954
 1322POPC   C1A21387  42.000   8.702   8.562
 1322POPC   D2A21388  41.849   8.781   8.136
 1322POPC   C3A21389  42.127   8.733   7.821
 1322POPC   C4A21390  42.603   8.770   7.873
 1322POPC   C1B21391  42.373   9.076   8.558
 1322POPC   C2B21392  42.270   9.124   8.138
 1322POPC   C3B21393  42.497   9.297   7.812
 1322POPC   C4B21394  42.765   9.291   7.461
 1323POPC   NC321395  30.602   1.793   9.660
 1323POPC   PO421396  30.912   2.341   9.714
 1323POPC   GL121397  30.782   1.997   9.233
 1323POPC   GL221398  31.047   1.757   9.125
 1323POPC   C1A21399  30.980   2.040   8.738
 1323POPC   D2A21400  31.092   2.278   8.381
 1323POPC   C3A21401  30.845   2.104   8.087
 1323POPC   C4A21402  30.837   1.996   7.672
 1323POPC   C1B21403  30.853   1.537   8.768
 1323POPC   C2B21404  30.657   1.714   8.419
 1323POPC   C3B21405  30.620   1.649   7.979
 1323POPC   C4B21406  30.872   1.473   7.623
 1324POPC   NC321407  24.097  30.809   9.427
 1324POPC   PO421408  23.413  30.877   9.446
 1324POPC   GL121409  23.502  30.685   9.016
 1324POPC   GL221410  23.869  30.638   9.001
 1324POPC   C1A21411  23.485  30.392   8.635
 1324POPC   D2A21412  23.420  30.320   8.161
 1324POPC   C3A21413  23.642  30.575   7.872
 1324POPC   C4A21414  23.538  30.614   7.440
 1324POPC   C1B21415  23.816  30.764   8.573
 1324POPC   C2B21416  23.925  30.413   8.309
 1324POPC   C3B21417  24.153  30.496   7.947
 1324POPC   C4B21418  24.067  30.894   7.709
 1325POPC   NC321419   7.533   7.703   9.527
 1325POPC   PO421420   7.963   7.194   9.444
 1325POPC   GL121421   7.917   7.523   9.116
 1325POPC   GL221422   7.654   7.818   9.054
 1325POPC   C1A21423   8.040   7.318   8.711
 1325POPC   D2A21424   7.975   7.265   8.282
 1325POPC   C3A21425   8.280   7.460   7.987
 1325POPC   C4A21426   8.311   7.341   7.549
 1325POPC   C1B21427   7.869   7.783   8.673
 1325POPC   C2B21428   7.865   7.753   8.200
 1325POPC   C3B21429   7.848   7.613   7.781
 1325POPC   C4B21430   8.049   7.764   7.397
 1326POPC   NC321431  40.569  19.303   9.434
 1326POPC   PO421432  41.040  19.836   9.452
 1326POPC   GL121433  40.900  19.605   9.118
 1326POPC   GL221434  40.738  19.905   9.041
 1326POPC   C1A21435  40.889  19.560   8.675
 1326POPC   D2A21436  40.674  19.827   8.372
 1326POPC   C3A21437  40.823  19.771   7.933
 1326POPC   C4A21438  40.927  19.372   7.715
 1326POPC   C1B21439  40.564  20.230   8.776
 1326POPC   C2B21440  40.647  20.339   8.362
 1326POPC   C3B21441  40.663  20.275   7.932
 1326POPC   C4B21442  40.342  20.082   7.702
 1327POPC   NC321443  14.758   4.583   9.607
 1327POPC   PO421444  15.390   4.411   9.597
 1327POPC   GL121445  15.303   4.427   9.169
 1327POPC   GL221446  15.027   4.633   9.172
 1327POPC   C1A21447  15.283   4.210   8.773
 1327POPC   D2A21448  15.307   4.051   8.348
 1327POPC   C3A21449  15.278   4.223   7.928
 1327POPC   C4A21450  15.039   4.057   7.573
 1327POPC   C1B21451  15.107   4.693   8.735
 1327POPC   C2B21452  15.226   4.570   8.325
 1327POPC   C3B21453  15.041   4.701   7.932
 1327POPC   C4B21454  14.889   4.837   7.515
 1328POPC   NC321455  26.826  12.571   9.780
 1328POPC   PO421456  26.814  13.147   9.443
 1328POPC   GL121457  26.785  12.913   9.095
 1328POPC   GL221458  26.818  12.591   9.248
 1328POPC   C1A21459  26.900  12.988   8.663
 1328POPC   D2A21460  26.719  13.117   8.258
 1328POPC   C3A21461  26.801  12.976   7.828
 1328POPC   C4A21462  26.707  13.163   7.406
 1328POPC   C1B21463  26.963  12.516   8.815
 1328POPC   C2B21464  26.939  12.591   8.335
 1328POPC   C3B21465  27.054  12.520   7.885
 1328POPC   C4B21466  26.860  12.391   7.480
 1329POPC   NC321467  11.525   3.283   9.490
 1329POPC   PO421468  11.175   3.840   9.613
 1329POPC   GL121469  11.095   3.546   9.253
 1329POPC   GL221470  10.898   3.214   9.236
 1329POPC   C1A21471  11.146   3.682   8.811
 1329POPC   D2A21472  11.104   3.453   8.411
 1329POPC   C3A21473  11.243   3.643   8.012
 1329POPC   C4A21474  11.630   3.577   7.740
 1329POPC   C1B21475  11.179   3.187   8.865
 1329POPC   C2B21476  11.442   3.042   8.499
 1329POPC   C3B21477  11.478   3.183   8.059
 1329POPC   C4B21478  11.228   3.263   7.665
 1330POPC   NC321479  28.426  29.589   9.423
 1330POPC   PO421480  28.551  30.244   9.253
 1330POPC   GL121481  28.343  29.964   9.066
 1330POPC   GL221482  28.023  30.129   9.100
 1330POPC   C1A21483  28.250  29.942   8.641
 1330POPC   D2A21484  28.081  29.648   8.345
 1330POPC   C3A21485  28.372  29.592   7.986
 1330POPC   C4A21486  28.250  29.638   7.590
 1330POPC   C1B21487  28.097  30.468   8.779
 1330POPC   C2B21488  28.173  30.430   8.358
 1330POPC   C3B21489  28.239  30.078   8.106
 1330POPC   C4B21490  28.529  30.059   7.763
 1331POPC   NC321491  14.920  11.567   9.965
 1331POPC   PO421492  14.291  11.547   9.709
 1331POPC   GL121493  14.242  11.365   9.279
 1331POPC   GL221494  14.561  11.326   9.104
 1331POPC   C1A21495  14.201  11.495   8.798
 1331POPC   D2A21496  14.443  11.504   8.387
 1331POPC   C3A21497  14.207  11.485   8.011
 1331POPC   C4A21498  14.273  11.269   7.619
 1331POPC   C1B21499  14.802  11.133   8.731
 1331POPC   C2B21500  14.754  11.087   8.256
 1331POPC   C3B21501  14.722  11.354   7.900
 1331POPC   C4B21502  14.750  11.374   7.453
 1332POPC   NC321503  28.720  34.916   9.466
 1332POPC   PO421504  28.306  34.394   9.544
 1332POPC   GL121505  28.593  34.492   9.205
 1332POPC   GL221506  28.673  34.202   9.084
 1332POPC   C1A21507  28.561  34.677   8.792
 1332POPC   D2A21508  28.268  34.724   8.426
 1332POPC   C3A21509  28.440  34.597   8.038
 1332POPC   C4A21510  28.473  34.764   7.648
 1332POPC   C1B21511  28.859  34.273   8.732
 1332POPC   C2B21512  28.796  34.065   8.390
 1332POPC   C3B21513  28.706  34.133   7.985
 1332POPC   C4B21514  28.617  34.292   7.608
 1333POPC   NC321515   4.931  37.701   9.582
 1333POPC   PO421516   5.571  37.857   9.420
 1333POPC   GL121517   5.276  37.531   9.173
 1333POPC   GL221518   4.880  37.453   9.155
 1333POPC   C1A21519   5.138  37.606   8.727
 1333POPC   D2A21520   5.278  37.541   8.276
 1333POPC   C3A21521   5.176  37.819   7.878
 1333POPC   C4A21522   5.013  37.893   7.401
 1333POPC   C1B21523   4.619  37.608   8.810
 1333POPC   C2B21524   4.753  37.568   8.395
 1333POPC   C3B21525   4.874  37.361   8.014
 1333POPC   C4B21526   4.716  37.646   7.725
 1334POPC   NC321527  29.483  27.704   9.694
 1334POPC   PO421528  28.948  27.561   9.663
 1334POPC   GL121529  28.830  27.555   9.195
 1334POPC   GL221530  28.574  27.322   9.105
 1334POPC   C1A21531  28.752  27.631   8.710
 1334POPC   D2A21532  28.873  27.794   8.282
 1334POPC   C3A21533  28.874  27.599   7.856
 1334POPC   C4A21534  29.221  27.348   7.611
 1334POPC   C1B21535  28.957  27.194   8.846
 1334POPC   C2B21536  29.134  27.334   8.433
 1334POPC   C3B21537  29.030  27.143   8.030
 1334POPC   C4B21538  28.752  27.110   7.663
 1335POPC   NC321539  31.982  31.184   9.878
 1335POPC   PO421540  32.572  30.833   9.605
 1335POPC   GL121541  32.479  30.822   9.172
 1335POPC   GL221542  32.136  30.874   9.123
 1335POPC   C1A21543  32.383  30.752   8.720
 1335POPC   D2A21544  32.251  30.915   8.379
 1335POPC   C3A21545  32.132  30.658   8.122
 1335POPC   C4A21546  32.136  30.775   7.730
 1335POPC   C1B21547  31.909  30.600   8.806
 1335POPC   C2B21548  31.750  30.415   8.386
 1335POPC   C3B21549  31.789  30.344   7.911
 1335POPC   C4B21550  31.814  30.478   7.484
 1336POPC   NC321551  28.257   0.201   9.528
 1336POPC   PO421552  28.460   0.847   9.656
 1336POPC   GL121553  28.407   0.470   9.140
 1336POPC   GL221554  28.630   0.188   9.167
 1336POPC   C1A21555  28.137   0.341   8.792
 1336POPC   D2A21556  27.993   0.581   8.434
 1336POPC   C3A21557  28.259   0.550   8.065
 1336POPC   C4A21558  28.447   0.548   7.633
 1336POPC   C1B21559  28.609   0.174   8.725
 1336POPC   C2B21560  28.307   0.111   8.347
 1336POPC   C3B21561  28.329   0.097   7.868
 1336POPC   C4B21562  28.661   0.103   7.538
 1337POPC   NC321563   2.406   8.982   9.409
 1337POPC   PO421564   1.820   9.110   9.510
 1337POPC   GL121565   1.895   8.906   9.119
 1337POPC   GL221566   2.159   8.653   9.083
 1337POPC   C1A21567   1.949   8.894   8.667
 1337POPC   D2A21568   1.918   8.600   8.312
 1337POPC   C3A21569   1.745   8.861   7.983
 1337POPC   C4A21570   2.026   9.178   7.761
 1337POPC   C1B21571   2.331   8.562   8.645
 1337POPC   C2B21572   2.435   8.645   8.216
 1337POPC   C3B21573   2.202   8.706   7.819
 1337POPC   C4B21574   2.257   8.870   7.358
 1338POPC   NC321575  24.005  26.612   9.517
 1338POPC   PO421576  24.592  26.874   9.399
 1338POPC   GL121577  24.385  26.645   9.110
 1338POPC   GL221578  24.133  26.867   9.094
 1338POPC   C1A21579  24.462  26.735   8.690
 1338POPC   D2A21580  24.327  26.572   8.302
 1338POPC   C3A21581  24.530  26.622   7.908
 1338POPC   C4A21582  24.308  26.553   7.530
 1338POPC   C1B21583  24.149  27.132   8.755
 1338POPC   C2B21584  24.261  27.302   8.350
 1338POPC   C3B21585  24.469  27.132   7.978
 1338POPC   C4B21586  24.574  27.026   7.556
 1339POPC   NC321587   1.621   1.895   9.616
 1339POPC   PO421588   1.079   2.295   9.447
 1339POPC   GL121589   1.142   1.930   9.187
 1339POPC   GL221590   1.512   1.923   9.129
 1339POPC   C1A21591   1.042   1.801   8.746
 1339POPC   D2A21592   1.146   1.633   8.311
 1339POPC   C3A21593   1.290   1.843   7.955
 1339POPC   C4A21594   1.213   2.155   7.647
 1339POPC   C1B21595   1.385   2.199   8.822
 1339POPC   C2B21596   1.373   2.087   8.408
 1339POPC   C3B21597   1.469   2.332   8.057
 1339POPC   C4B21598   1.676   2.347   7.643
 1340POPC   NC321599  30.048  41.095   9.682
 1340POPC   PO421600  29.803  40.474   9.619
 1340POPC   GL121601  29.859  40.665   9.173
 1340POPC   GL221602  30.158  40.576   8.981
 1340POPC   C1A21603  29.744  40.759   8.728
 1340POPC   D2A21604  29.956  40.749   8.342
 1340POPC   C3A21605  29.816  40.871   7.928
 1340POPC   C4A21606  29.460  40.715   7.730
 1340POPC   C1B21607  30.422  40.662   8.657
 1340POPC   C2B21608  30.423  40.596   8.242
 1340POPC   C3B21609  30.198  40.555   7.927
 1340POPC   C4B21610  30.193  40.762   7.552
 1341POPC   NC321611  19.467  30.506   9.623
 1341POPC   PO421612  20.081  30.747   9.711
 1341POPC   GL121613  20.097  30.793   9.234
 1341POPC   GL221614  19.758  30.694   9.111
 1341POPC   C1A21615  20.149  30.695   8.776
 1341POPC   D2A21616  19.821  30.582   8.476
 1341POPC   C3A21617  19.638  30.862   8.168
 1341POPC   C4A21618  19.861  30.799   7.818
 1341POPC   C1B21619  19.467  30.449   8.851
 1341POPC   C2B21620  19.405  30.301   8.424
 1341POPC   C3B21621  19.608  30.372   8.028
 1341POPC   C4B21622  19.504  30.570   7.583
 1342POPC   NC321623  19.424  27.258   9.398
 1342POPC   PO421624  20.058  27.537   9.558
 1342POPC   GL121625  19.908  27.775   9.216
 1342POPC   GL221626  19.570  27.714   9.146
 1342POPC   C1A21627  19.964  27.780   8.772
 1342POPC   D2A21628  19.860  27.387   8.559
 1342POPC   C3A21629  19.810  27.333   8.119
 1342POPC   C4A21630  19.970  27.092   7.766
 1342POPC   C1B21631  19.462  27.846   8.731
 1342POPC   C2B21632  19.575  27.860   8.314
 1342POPC   C3B21633  19.722  27.820   7.913
 1342POPC   C4B21634  19.628  27.481   7.666
 1343POPC   NC321635  34.009  28.865   9.582
 1343POPC   PO421636  33.593  29.363   9.639
 1343POPC   GL121637  33.893  29.296   9.235
 1343POPC   GL221638  34.094  29.000   9.104
 1343POPC   C1A21639  34.031  29.407   8.811
 1343POPC   D2A21640  33.896  29.143   8.459
 1343POPC   C3A21641  33.957  29.352   8.072
 1343POPC   C4A21642  33.967  29.572   7.727
 1343POPC   C1B21643  34.296  28.933   8.698
 1343POPC   C2B21644  34.153  28.742   8.290
 1343POPC   C3B21645  33.853  28.873   7.975
 1343POPC   C4B21646  34.020  29.038   7.607
 1344POPC   NC321647  18.767   4.181   9.497
 1344POPC   PO421648  18.122   3.988   9.502
 1344POPC   GL121649  18.344   4.216   9.222
 1344POPC   GL221650  18.572   3.983   9.078
 1344POPC   C1A21651  18.307   4.364   8.840
 1344POPC   D2A21652  18.068   4.266   8.477
 1344POPC   C3A21653  18.168   4.534   8.148
 1344POPC   C4A21654  18.432   4.542   7.774
 1344POPC   C1B21655  18.418   3.892   8.672
 1344POPC   C2B21656  18.274   3.849   8.245
 1344POPC   C3B21657  18.276   4.076   7.877
 1344POPC   C4B21658  18.629   4.081   7.551
 1345POPC   NC321659  34.756  41.313   9.824
 1345POPC   PO421660  35.343  41.380   9.470
 1345POPC   GL121661  35.341  41.516   9.064
 1345POPC   GL221662  35.348  41.830   9.051
 1345POPC   C1A21663  35.320  41.525   8.606
 1345POPC   D2A21664  35.259  41.460   8.181
 1345POPC   C3A21665  35.213  41.792   7.954
 1345POPC   C4A21666  35.422  41.804   7.623
 1345POPC   C1B21667  35.591  41.993   8.729
 1345POPC   C2B21668  35.497  41.957   8.340
 1345POPC   C3B21669  35.634  42.129   7.968
 1345POPC   C4B21670  35.904  41.973   7.675
 1346POPC   NC321671   1.779  43.888   9.694
 1346POPC   PO421672   2.270  44.342   9.556
 1346POPC   GL121673   2.192  43.965   9.211
 1346POPC   GL221674   1.815  43.890   9.164
 1346POPC   C1A21675   2.100  43.788   8.739
 1346POPC   D2A21676   1.844  44.062   8.431
 1346POPC   C3A21677   1.976  44.104   7.978
 1346POPC   C4A21678   1.767  44.317   7.625
 1346POPC   C1B21679   1.588  43.731   8.772
 1346POPC   C2B21680   1.730  43.587   8.318
 1346POPC   C3B21681   2.109  43.621   8.120
 1346POPC   C4B21682   2.265  43.631   7.709
 1347POPC   NC321683  15.847  41.899   9.562
 1347POPC   PO421684  16.192  41.362   9.484
 1347POPC   GL121685  15.941  41.529   9.171
 1347POPC   GL221686  16.184  41.784   9.139
 1347POPC   C1A21687  15.729  41.326   8.790
 1347POPC   D2A21688  15.901  41.345   8.373
 1347POPC   C3A21689  15.709  41.272   7.977
 1347POPC   C4A21690  15.753  41.401   7.530
 1347POPC   C1B21691  16.163  41.621   8.717
 1347POPC   C2B21692  16.165  41.784   8.298
 1347POPC   C3B21693  16.065  41.726   7.863
 1347POPC   C4B21694  16.275  42.067   7.621
 1348POPC   NC321695  28.220  30.509   9.426
 1348POPC   PO421696  27.890  31.071   9.289
 1348POPC   GL121697  28.260  30.893   9.094
 1348POPC   GL221698  28.622  30.851   9.219
 1348POPC   C1A21699  28.245  30.985   8.669
 1348POPC   D2A21700  27.944  30.901   8.363
 1348POPC   C3A21701  28.239  30.904   8.043
 1348POPC   C4A21702  28.215  30.504   7.844
 1348POPC   C1B21703  28.613  30.659   8.781
 1348POPC   C2B21704  28.595  30.722   8.352
 1348POPC   C3B21705  28.702  30.589   7.923
 1348POPC   C4B21706  28.808  30.699   7.492
 1349POPC   NC321707  12.946  27.368   9.703
 1349POPC   PO421708  13.081  26.730   9.678
 1349POPC   GL121709  13.045  26.601   9.244
 1349POPC   GL221710  12.701  26.602   9.139
 1349POPC   C1A21711  13.226  26.667   8.833
 1349POPC   D2A21712  13.080  26.938   8.474
 1349POPC   C3A21713  13.068  26.874   8.012
 1349POPC   C4A21714  12.797  26.932   7.632
 1349POPC   C1B21715  12.778  26.525   8.663
 1349POPC   C2B21716  13.082  26.438   8.293
 1349POPC   C3B21717  13.006  26.401   7.810
 1349POPC   C4B21718  12.605  26.404   7.552
 1350POPC   NC321719  15.449  13.849   9.849
 1350POPC   PO421720  15.976  13.538   9.522
 1350POPC   GL121721  15.807  13.621   9.134
 1350POPC   GL221722  15.786  13.325   9.018
 1350POPC   C1A21723  15.734  13.724   8.697
 1350POPC   D2A21724  15.694  13.361   8.403
 1350POPC   C3A21725  15.672  13.523   7.983
 1350POPC   C4A21726  15.680  13.986   7.883
 1350POPC   C1B21727  16.175  13.502   8.803
 1350POPC   C2B21728  16.239  13.826   8.496
 1350POPC   C3B21729  16.267  13.914   8.062
 1350POPC   C4B21730  16.086  13.662   7.731
 1351POPC   NC321731   0.996  44.478   9.499
 1351POPC   PO421732   1.476  44.938   9.439
 1351POPC   GL121733   1.219  44.949   9.083
 1351POPC   GL221734   1.059  44.644   9.033
 1351POPC   C1A21735   1.291  44.875   8.650
 1351POPC   D2A21736   1.075  44.571   8.381
 1351POPC   C3A21737   1.366  44.391   8.103
 1351POPC   C4A21738   1.439  44.672   7.758
 1351POPC   C1B21739   0.826  44.373   8.791
 1351POPC   C2B21740   0.831  44.102   8.422
 1351POPC   C3B21741   0.861  44.241   7.993
 1351POPC   C4B21742   0.922  44.643   7.790
 1352POPC   NC321743  33.870  17.374   9.520
 1352POPC   PO421744  33.601  17.822   9.149
 1352POPC   GL121745  33.710  17.427   9.032
 1352POPC   GL221746  34.044  17.512   9.043
 1352POPC   C1A21747  33.907  17.210   8.657
 1352POPC   D2A21748  34.066  17.164   8.242
 1352POPC   C3A21749  33.876  17.517   8.023
 1352POPC   C4A21750  33.515  17.543   7.719
 1352POPC   C1B21751  34.097  17.883   8.725
 1352POPC   C2B21752  34.158  17.902   8.287
 1352POPC   C3B21753  33.982  18.012   7.905
 1352POPC   C4B21754  33.985  17.742   7.569
 1353POPC   NC321755  34.573  31.834   9.827
 1353POPC   PO421756  34.780  31.441   9.395
 1353POPC   GL121757  34.584  31.675   9.078
 1353POPC   GL221758  34.220  31.684   9.009
 1353POPC   C1A21759  34.633  31.524   8.678
 1353POPC   D2A21760  34.832  31.677   8.309
 1353POPC   C3A21761  34.729  31.465   7.940
 1353POPC   C4A21762  34.528  31.338   7.594
 1353POPC   C1B21763  34.217  31.782   8.583
 1353POPC   C2B21764  34.056  31.841   8.208
 1353POPC   C3B21765  34.249  31.681   7.877
 1353POPC   C4B21766  34.285  31.766   7.472
 1354POPC   NC321767  27.746  26.665   9.405
 1354POPC   PO421768  27.275  27.114   9.617
 1354POPC   GL121769  27.582  27.139   9.269
 1354POPC   GL221770  27.503  26.895   9.029
 1354POPC   C1A21771  27.786  27.295   8.878
 1354POPC   D2A21772  27.742  27.325   8.409
 1354POPC   C3A21773  27.456  27.059   8.133
 1354POPC   C4A21774  27.672  27.159   7.762
 1354POPC   C1B21775  27.605  26.580   8.726
 1354POPC   C2B21776  27.653  26.551   8.277
 1354POPC   C3B21777  27.600  26.532   7.847
 1354POPC   C4B21778  27.524  26.355   7.433
 1355POPC   NC321779  41.938  39.059   9.502
 1355POPC   PO421780  42.631  38.995   9.561
 1355POPC   GL121781  42.414  39.243   9.222
 1355POPC   GL221782  42.131  39.458   9.217
 1355POPC   C1A21783  42.475  39.430   8.822
 1355POPC   D2A21784  42.388  39.416   8.417
 1355POPC   C3A21785  42.588  39.154   8.118
 1355POPC   C4A21786  42.516  39.103   7.666
 1355POPC   C1B21787  41.963  39.577   8.784
 1355POPC   C2B21788  41.870  39.428   8.367
 1355POPC   C3B21789  42.118  39.423   7.977
 1355POPC   C4B21790  42.076  39.319   7.536
 1356POPC   NC321791  23.825  29.846   9.431
 1356POPC   PO421792  24.271  30.367   9.390
 1356POPC   GL121793  24.051  30.148   9.062
 1356POPC   GL221794  23.643  30.126   9.034
 1356POPC   C1A21795  23.953  29.845   8.760
 1356POPC   D2A21796  23.658  29.950   8.407
 1356POPC   C3A21797  23.825  30.038   7.977
 1356POPC   C4A21798  23.884  29.816   7.602
 1356POPC   C1B21799  23.496  29.668   8.828
 1356POPC   C2B21800  23.327  29.556   8.384
 1356POPC   C3B21801  23.362  29.760   7.972
 1356POPC   C4B21802  23.403  29.667   7.508
 1357POPC   NC321803  11.235  17.617   9.535
 1357POPC   PO421804  10.803  17.989   9.185
 1357POPC   GL121805  11.024  17.558   9.080
 1357POPC   GL221806  11.370  17.449   9.088
 1357POPC   C1A21807  11.090  17.355   8.685
 1357POPC   D2A21808  11.073  17.636   8.343
 1357POPC   C3A21809  11.183  17.473   7.941
 1357POPC   C4A21810  11.133  17.719   7.590
 1357POPC   C1B21811  11.476  17.669   8.758
 1357POPC   C2B21812  11.556  17.830   8.367
 1357POPC   C3B21813  11.666  17.677   7.978
 1357POPC   C4B21814  11.618  17.874   7.613
 1358POPC   NC321815  35.262  18.871   9.348
 1358POPC   PO421816  35.699  19.368   9.536
 1358POPC   GL121817  35.546  19.223   9.156
 1358POPC   GL221818  35.740  19.330   8.976
 1358POPC   C1A21819  35.366  19.003   8.745
 1358POPC   D2A21820  35.306  18.675   8.421
 1358POPC   C3A21821  35.295  18.776   7.966
 1358POPC   C4A21822  35.562  18.922   7.608
 1358POPC   C1B21823  35.518  19.455   8.611
 1358POPC   C2B21824  35.495  19.374   8.164
 1358POPC   C3B21825  35.559  19.551   7.766
 1358POPC   C4B21826  35.679  19.389   7.349
 1359POPC   NC321827  43.981   3.213   9.907
 1359POPC   PO421828  43.793   3.779   9.517
 1359POPC   GL121829  43.816   3.624   9.111
 1359POPC   GL221830  44.011   3.340   9.146
 1359POPC   C1A21831  44.045   3.638   8.709
 1359POPC   D2A21832  44.156   3.746   8.276
 1359POPC   C3A21833  43.857   3.789   7.962
 1359POPC   C4A21834  43.821   3.556   7.570
 1359POPC   C1B21835  44.198   3.122   8.776
 1359POPC   C2B21836  44.300   3.245   8.337
 1359POPC   C3B21837  44.136   3.351   7.928
 1359POPC   C4B21838  44.205   3.231   7.497
 1360POPC   NC321839  29.582  34.456   9.464
 1360POPC   PO421840  30.226  34.700   9.426
 1360POPC   GL121841  29.961  34.784   9.077
 1360POPC   GL221842  29.611  34.916   9.186
 1360POPC   C1A21843  30.023  34.608   8.641
 1360POPC   D2A21844  30.241  34.240   8.394
 1360POPC   C3A21845  30.219  34.372   7.977
 1360POPC   C4A21846  29.949  34.731   7.865
 1360POPC   C1B21847  29.532  34.680   8.807
 1360POPC   C2B21848  29.514  34.807   8.366
 1360POPC   C3B21849  29.433  34.695   7.934
 1360POPC   C4B21850  29.601  34.355   7.725
 1361POPC   NC321851  30.595  29.978   9.835
 1361POPC   PO421852  31.127  30.202   9.486
 1361POPC   GL121853  30.700  30.140   9.247
 1361POPC   GL221854  30.484  30.460   9.205
 1361POPC   C1A21855  30.620  29.935   8.816
 1361POPC   D2A21856  30.606  29.866   8.339
 1361POPC   C3A21857  30.918  30.003   8.026
 1361POPC   C4A21858  31.146  30.168   7.671
 1361POPC   C1B21859  30.451  30.414   8.736
 1361POPC   C2B21860  30.394  30.344   8.270
 1361POPC   C3B21861  30.399  30.074   7.876
 1361POPC   C4B21862  30.353  30.191   7.379
 1362POPC   NC321863  18.068  16.279   9.412
 1362POPC   PO421864  18.303  15.681   9.513
 1362POPC   GL121865  18.488  15.940   9.136
 1362POPC   GL221866  18.393  16.310   9.028
 1362POPC   C1A21867  18.307  15.946   8.708
 1362POPC   D2A21868  18.061  15.870   8.371
 1362POPC   C3A21869  18.250  15.870   7.983
 1362POPC   C4A21870  18.111  15.885   7.556
 1362POPC   C1B21871  18.703  16.271   8.733
 1362POPC   C2B21872  18.573  16.183   8.353
 1362POPC   C3B21873  18.442  16.365   8.019
 1362POPC   C4B21874  18.522  16.192   7.656
 1363POPC   NC321875  18.998  44.795   9.456
 1363POPC   PO421876  19.323  44.206   9.562
 1363POPC   GL121877  19.241  44.437   9.149
 1363POPC   GL221878  19.305  44.821   9.058
 1363POPC   C1A21879  18.982  44.548   8.779
 1363POPC   D2A21880  19.146  44.633   8.360
 1363POPC   C3A21881  18.927  44.840   8.049
 1363POPC   C4A21882  18.718  44.657   7.709
 1363POPC   C1B21883  19.254   0.045   8.680
 1363POPC   C2B21884  19.463   0.119   8.290
 1363POPC   C3B21885  19.457  44.826   7.972
 1363POPC   C4B21886  19.208  44.775   7.600
 1364POPC   NC321887   0.093  14.578   9.720
 1364POPC   PO421888   0.541  14.627   9.554
 1364POPC   GL121889   0.366  14.416   9.176
 1364POPC   GL221890   0.008  14.430   9.180
 1364POPC   C1A21891   0.409  14.182   8.763
 1364POPC   D2A21892   0.600  14.031   8.357
 1364POPC   C3A21893   0.570  14.280   7.954
 1364POPC   C4A21894   0.447  14.700   7.813
 1364POPC   C1B21895   0.020  14.523   8.717
 1364POPC   C2B21896   0.204  14.392   8.304
 1364POPC   C3B21897   0.055  14.351   7.854
 1364POPC   C4B21898  44.873  14.204   7.427
 1365POPC   NC321899  26.069  10.056   9.598
 1365POPC   PO421900  26.241  10.682   9.455
 1365POPC   GL121901  26.020  10.387   9.192
 1365POPC   GL221902  25.646  10.343   9.229
 1365POPC   C1A21903  26.151  10.249   8.801
 1365POPC   D2A21904  26.331  10.163   8.417
 1365POPC   C3A21905  26.305  10.484   8.082
 1365POPC   C4A21906  26.366  10.385   7.707
 1365POPC   C1B21907  25.713  10.519   8.783
 1365POPC   C2B21908  25.917  10.558   8.393
 1365POPC   C3B21909  25.774  10.538   7.946
 1365POPC   C4B21910  25.664  10.500   7.507
 1366POPC   NC321911   6.045  44.985   9.619
 1366POPC   PO421912   5.554  44.481   9.480
 1366POPC   GL121913   5.754  44.516   9.120
 1366POPC   GL221914   5.807  44.828   9.206
 1366POPC   C1A21915   5.656  44.395   8.740
 1366POPC   D2A21916   5.444  44.495   8.403
 1366POPC   C3A21917   5.790  44.545   8.170
 1366POPC   C4A21918   5.876  44.574   7.769
 1366POPC   C1B21919   6.086  44.968   8.880
 1366POPC   C2B21920   6.046  44.868   8.457
 1366POPC   C3B21921   5.995   0.011   8.019
 1366POPC   C4B21922   6.261  44.982   7.640
 1367POPC   NC321923  37.567  28.784   9.629
 1367POPC   PO421924  37.706  29.424   9.537
 1367POPC   GL121925  37.705  29.257   9.105
 1367POPC   GL221926  37.833  28.951   9.109
 1367POPC   C1A21927  37.550  29.120   8.679
 1367POPC   D2A21928  37.725  29.315   8.296
 1367POPC   C3A21929  37.713  29.116   7.918
 1367POPC   C4A21930  37.619  29.315   7.514
 1367POPC   C1B21931  37.985  28.824   8.718
 1367POPC   C2B21932  37.777  28.757   8.319
 1367POPC   C3B21933  37.873  28.618   7.899
 1367POPC   C4B21934  37.985  28.868   7.535
 1368POPC   NC321935  31.764  18.856   9.429
 1368POPC   PO421936  32.222  19.297   9.648
 1368POPC   GL121937  32.303  19.017   9.255
 1368POPC   GL221938  32.662  18.994   9.107
 1368POPC   C1A21939  32.134  18.904   8.822
 1368POPC   D2A21940  31.741  18.972   8.526
 1368POPC   C3A21941  31.799  19.042   8.068
 1368POPC   C4A21942  32.019  18.734   7.803
 1368POPC   C1B21943  32.650  19.344   8.798
 1368POPC   C2B21944  32.573  19.527   8.391
 1368POPC   C3B21945  32.590  19.334   7.998
 1368POPC   C4B21946  32.478  18.963   7.760
 1369POPC   NC321947  20.111  19.955   9.481
 1369POPC   PO421948  19.760  19.581   9.777
 1369POPC   GL121949  19.827  19.571   9.280
 1369POPC   GL221950  20.168  19.605   9.113
 1369POPC   C1A21951  19.701  19.519   8.809
 1369POPC   D2A21952  19.812  19.506   8.321
 1369POPC   C3A21953  19.649  19.826   8.023
 1369POPC   C4A21954  19.887  20.128   7.803
 1369POPC   C1B21955  20.113  19.782   8.694
 1369POPC   C2B21956  20.059  19.973   8.288
 1369POPC   C3B21957  20.150  19.719   7.930
 1369POPC   C4B21958  20.270  19.802   7.510
 1370POPC   NC321959  13.559  19.947   9.508
 1370POPC   PO421960  13.327  19.282   9.563
 1370POPC   GL121961  13.337  19.606   9.187
 1370POPC   GL221962  13.662  19.751   9.059
 1370POPC   C1A21963  13.271  19.766   8.737
 1370POPC   D2A21964  13.396  20.027   8.356
 1370POPC   C3A21965  13.407  19.828   7.958
 1370POPC   C4A21966  13.507  19.928   7.554
 1370POPC   C1B21967  13.785  19.819   8.626
 1370POPC   C2B21968  13.875  19.808   8.176
 1370POPC   C3B21969  13.963  19.800   7.747
 1370POPC   C4B21970  14.186  19.581   7.418
 1371POPC   NC321971   7.780  44.761   9.580
 1371POPC   PO421972   7.223   0.125   9.424
 1371POPC   GL121973   7.402  44.714   9.209
 1371POPC   GL221974   7.540  44.344   9.285
 1371POPC   C1A21975   7.349  44.549   8.792
 1371POPC   D2A21976   7.472  44.679   8.380
 1371POPC   C3A21977   7.195  44.622   8.054
 1371POPC   C4A21978   7.256  44.668   7.635
 1371POPC   C1B21979   7.706  44.207   8.879
 1371POPC   C2B21980   7.750  44.271   8.452
 1371POPC   C3B21981   7.622  44.288   8.039
 1371POPC   C4B21982   7.662  44.084   7.613
 1372POPC   NC321983  33.220  41.763   9.538
 1372POPC   PO421984  32.715  41.426   9.293
 1372POPC   GL121985  32.993  41.635   9.094
 1372POPC   GL221986  33.279  41.452   9.099
 1372POPC   C1A21987  33.044  41.761   8.699
 1372POPC   D2A21988  33.091  41.599   8.299
 1372POPC   C3A21989  32.800  41.538   7.982
 1372POPC   C4A21990  32.857  41.835   7.622
 1372POPC   C1B21991  33.256  41.282   8.687
 1372POPC   C2B21992  33.445  41.238   8.285
 1372POPC   C3B21993  33.466  41.550   7.950
 1372POPC   C4B21994  33.193  41.425   7.645
 1373POPC   NC321995  39.001  21.227   9.642
 1373POPC   PO421996  39.034  21.829   9.370
 1373POPC   GL121997  39.057  21.442   9.134
 1373POPC   GL221998  39.371  21.278   9.203
 1373POPC   C1A21999  39.027  21.299   8.687
 1373POPC   D2A22000  38.835  21.452   8.308
 1373POPC   C3A22001  39.083  21.395   7.941
 1373POPC   C4A22002  39.361  21.545   7.621
 1373POPC   C1B22003  39.475  21.117   8.793
 1373POPC   C2B22004  39.341  21.069   8.353
 1373POPC   C3B22005  39.523  21.148   7.962
 1373POPC   C4B22006  39.248  21.027   7.601
 1374POPC   NC322007  30.474  37.501   9.546
 1374POPC   PO422008  31.127  37.491   9.386
 1374POPC   GL122009  30.759  37.671   9.139
 1374POPC   GL222010  30.624  38.015   9.182
 1374POPC   C1A22011  30.759  37.750   8.698
 1374POPC   D2A22012  30.743  37.468   8.346
 1374POPC   C3A22013  30.765  37.689   7.974
 1374POPC   C4A22014  30.803  37.685   7.527
 1374POPC   C1B22015  30.340  38.032   8.802
 1374POPC   C2B22016  30.487  38.041   8.370
 1374POPC   C3B22017  30.288  37.956   7.992
 1374POPC   C4B22018  30.198  37.823   7.592
 1375POPC   NC322019  13.035   0.787   9.981
 1375POPC   PO422020  12.774   0.377   9.433
 1375POPC   GL122021  13.021   0.252   9.077
 1375POPC   GL222022  13.014   0.583   8.896
 1375POPC   C1A22023  12.984   0.140   8.626
 1375POPC   D2A22024  13.133   0.435   8.290
 1375POPC   C3A22025  12.950   0.360   7.874
 1375POPC   C4A22026  12.640   0.051   7.793
 1375POPC   C1B22027  12.654   0.548   8.608
 1375POPC   C2B22028  12.663   0.709   8.191
 1375POPC   C3B22029  12.700   0.813   7.742
 1375POPC   C4B22030  12.382   0.824   7.371
 1376POPC   NC322031  29.780  21.740   9.588
 1376POPC   PO422032  29.902  22.475   9.595
 1376POPC   GL122033  29.731  22.265   9.241
 1376POPC   GL222034  29.845  21.963   9.112
 1376POPC   C1A22035  29.556  22.373   8.857
 1376POPC   D2A22036  29.806  22.257   8.512
 1376POPC   C3A22037  29.719  22.159   8.061
 1376POPC   C4A22038  29.926  22.245   7.627
 1376POPC   C1B22039  30.082  21.771   8.775
 1376POPC   C2B22040  29.995  21.797   8.360
 1376POPC   C3B22041  30.142  21.893   7.953
 1376POPC   C4B22042  30.349  21.967   7.560
 1377POPC   NC322043  10.263  42.951   9.593
 1377POPC   PO422044  10.710  43.412   9.667
 1377POPC   GL122045  10.601  43.187   9.265
 1377POPC   GL222046  10.715  42.869   9.221
 1377POPC   C1A22047  10.326  42.966   8.914
 1377POPC   D2A22048  10.445  43.042   8.489
 1377POPC   C3A22049  10.540  42.856   8.114
 1377POPC   C4A22050  10.691  43.051   7.743
 1377POPC   C1B22051  10.850  42.978   8.829
 1377POPC   C2B22052  10.957  43.039   8.407
 1377POPC   C3B22053  10.809  43.348   8.141
 1377POPC   C4B22054  11.002  43.511   7.761
 1378POPC   NC322055   7.049  31.101   9.334
 1378POPC   PO422056   6.935  30.520   9.712
 1378POPC   GL122057   6.811  30.652   9.271
 1378POPC   GL222058   6.594  30.391   9.216
 1378POPC   C1A22059   6.728  30.877   8.839
 1378POPC   D2A22060   6.498  31.046   8.501
 1378POPC   C3A22061   6.457  30.763   8.176
 1378POPC   C4A22062   6.525  30.686   7.760
 1378POPC   C1B22063   6.822  30.386   8.838
 1378POPC   C2B22064   6.792  30.370   8.374
 1378POPC   C3B22065   6.970  30.501   7.957
 1378POPC   C4B22066   6.870  30.442   7.486
 1379POPC   NC322067   4.674  19.338   9.786
 1379POPC   PO422068   4.522  18.741   9.532
 1379POPC   GL122069   4.456  18.965   9.145
 1379POPC   GL222070   4.509  19.305   9.176
 1379POPC   C1A22071   4.249  18.920   8.734
 1379POPC   D2A22072   4.288  18.751   8.314
 1379POPC   C3A22073   4.198  18.975   7.891
 1379POPC   C4A22074   4.054  19.401   7.673
 1379POPC   C1B22075   4.621  19.304   8.758
 1379POPC   C2B22076   4.408  19.302   8.380
 1379POPC   C3B22077   4.419  19.514   8.012
 1379POPC   C4B22078   4.554  19.318   7.634
 1380POPC   NC322079  13.721  38.147   9.491
 1380POPC   PO422080  13.287  38.636   9.424
 1380POPC   GL122081  13.482  38.420   9.127
 1380POPC   GL222082  13.830  38.522   9.153
 1380POPC   C1A22083  13.530  38.316   8.732
 1380POPC   D2A22084  13.367  38.426   8.329
 1380POPC   C3A22085  13.407  38.174   7.966
 1380POPC   C4A22086  13.312  38.347   7.571
 1380POPC   C1B22087  13.937  38.666   8.739
 1380POPC   C2B22088  14.106  38.424   8.384
 1380POPC   C3B22089  13.866  38.410   7.995
 1380POPC   C4B22090  13.850  38.138   7.626
 1381POPC   NC322091  35.472  32.248   9.796
 1381POPC   PO422092  35.524  32.892   9.554
 1381POPC   GL122093  35.624  32.497   9.330
 1381POPC   GL222094  35.352  32.251   9.290
 1381POPC   C1A22095  35.662  32.351   8.895
 1381POPC   D2A22096  35.453  32.134   8.556
 1381POPC   C3A22097  35.526  32.391   8.180
 1381POPC   C4A22098  35.422  32.389   7.746
 1381POPC   C1B22099  35.100  32.298   8.885
 1381POPC   C2B22100  34.984  32.303   8.426
 1381POPC   C3B22101  35.089  32.127   8.024
 1381POPC   C4B22102  34.939  32.288   7.590
 1382POPC   NC322103  15.740  40.035   9.502
 1382POPC   PO422104  16.214  39.628   9.540
 1382POPC   GL122105  16.111  39.830   9.135
 1382POPC   GL222106  15.814  40.042   9.012
 1382POPC   C1A22107  16.081  39.749   8.703
 1382POPC   D2A22108  15.989  39.989   8.370
 1382POPC   C3A22109  16.097  39.710   8.087
 1382POPC   C4A22110  15.838  39.814   7.793
 1382POPC   C1B22111  16.108  40.305   8.794
 1382POPC   C2B22112  16.158  40.494   8.396
 1382POPC   C3B22113  16.170  40.337   8.002
 1382POPC   C4B22114  15.823  40.325   7.770
 1383POPC   NC322115  24.593  12.930   9.460
 1383POPC   PO422116  24.048  12.632   9.432
 1383POPC   GL122117  24.336  12.669   9.057
 1383POPC   GL222118  24.441  13.011   8.993
 1383POPC   C1A22119  24.655  12.582   8.716
 1383POPC   D2A22120  24.743  12.745   8.316
 1383POPC   C3A22121  24.381  12.776   8.069
 1383POPC   C4A22122  24.475  12.730   7.621
 1383POPC   C1B22123  24.362  12.982   8.591
 1383POPC   C2B22124  24.568  13.214   8.264
 1383POPC   C3B22125  24.729  13.107   7.859
 1383POPC   C4B22126  24.621  13.164   7.389
 1384POPC   NC322127  23.157  12.010   9.483
 1384POPC   PO422128  23.660  12.307   9.769
 1384POPC   GL122129  23.543  12.249   9.222
 1384POPC   GL222130  23.354  11.952   9.030
 1384POPC   C1A22131  23.798  12.115   8.779
 1384POPC   D2A22132  23.973  12.147   8.320
 1384POPC   C3A22133  23.763  12.178   7.963
 1384POPC   C4A22134  23.676  12.292   7.550
 1384POPC   C1B22135  23.447  11.766   8.646
 1384POPC   C2B22136  23.450  11.869   8.246
 1384POPC   C3B22137  23.393  11.843   7.825
 1384POPC   C4B22138  23.787  11.762   7.659
 1385POPC   NC322139  35.563  17.414   9.658
 1385POPC   PO422140  34.936  17.703   9.498
 1385POPC   GL122141  35.255  17.609   9.187
 1385POPC   GL222142  35.493  17.331   9.165
 1385POPC   C1A22143  35.229  17.439   8.758
 1385POPC   D2A22144  35.481  17.419   8.388
 1385POPC   C3A22145  35.282  17.701   8.092
 1385POPC   C4A22146  35.173  17.487   7.722
 1385POPC   C1B22147  35.708  17.608   8.833
 1385POPC   C2B22148  35.639  17.887   8.464
 1385POPC   C3B22149  35.733  17.930   8.009
 1385POPC   C4B22150  35.823  17.671   7.629
 1386POPC   NC322151  17.977  42.287   9.515
 1386POPC   PO422152  18.418  42.804   9.419
 1386POPC   GL122153  18.319  42.449   9.130
 1386POPC   GL222154  17.962  42.432   9.037
 1386POPC   C1A22155  18.392  42.337   8.693
 1386POPC   D2A22156  18.401  42.626   8.345
 1386POPC   C3A22157  18.483  42.432   7.977
 1386POPC   C4A22158  18.686  42.065   7.813
 1386POPC   C1B22159  18.035  41.991   8.874
 1386POPC   C2B22160  18.063  42.023   8.435
 1386POPC   C3B22161  18.036  42.187   8.018
 1386POPC   C4B22162  18.005  42.502   7.704
 1387POPC   NC322163  13.426  26.473   9.557
 1387POPC   PO422164  14.063  26.586   9.802
 1387POPC   GL122165  13.864  26.706   9.337
 1387POPC   GL222166  13.532  26.863   9.211
 1387POPC   C1A22167  13.823  26.701   8.832
 1387POPC   D2A22168  13.537  26.683   8.420
 1387POPC   C3A22169  13.688  26.729   7.987
 1387POPC   C4A22170  13.791  26.934   7.583
 1387POPC   C1B22171  13.511  27.083   8.763
 1387POPC   C2B22172  13.492  27.186   8.295
 1387POPC   C3B22173  13.437  27.164   7.848
 1387POPC   C4B22174  13.287  27.031   7.448
 1388POPC   NC322175  33.998  40.081   9.494
 1388POPC   PO422176  33.723  39.394   9.423
 1388POPC   GL122177  33.720  39.777   9.118
 1388POPC   GL222178  33.792  40.176   9.040
 1388POPC   C1A22179  33.675  39.784   8.668
 1388POPC   D2A22180  33.779  39.967   8.277
 1388POPC   C3A22181  33.560  40.054   7.919
 1388POPC   C4A22182  33.381  39.689   7.782
 1388POPC   C1B22183  34.174  39.983   8.833
 1388POPC   C2B22184  34.268  39.888   8.376
 1388POPC   C3B22185  34.157  39.999   7.912
 1388POPC   C4B22186  34.012  40.323   7.605
 1389POPC   NC322187  22.853   1.080   9.685
 1389POPC   PO422188  22.737   1.620   9.620
 1389POPC   GL122189  22.753   1.270   9.217
 1389POPC   GL222190  22.975   0.935   9.161
 1389POPC   C1A22191  22.711   1.115   8.747
 1389POPC   D2A22192  22.893   1.208   8.318
 1389POPC   C3A22193  22.601   1.271   7.948
 1389POPC   C4A22194  22.594   1.303   7.486
 1389POPC   C1B22195  23.136   0.822   8.709
 1389POPC   C2B22196  23.003   0.697   8.257
 1389POPC   C3B22197  23.013   0.985   7.858
 1389POPC   C4B22198  23.203   1.055   7.427
 1390POPC   NC322199  42.979  19.278   9.465
 1390POPC   PO422200  43.448  18.827   9.576
 1390POPC   GL122201  43.270  18.970   9.174
 1390POPC   GL222202  43.353  19.276   9.087
 1390POPC   C1A22203  43.294  18.999   8.680
 1390POPC   D2A22204  43.041  19.146   8.353
 1390POPC   C3A22205  42.917  18.882   8.005
 1390POPC   C4A22206  43.032  18.910   7.578
 1390POPC   C1B22207  43.467  19.482   8.707
 1390POPC   C2B22208  43.294  19.566   8.283
 1390POPC   C3B22209  43.232  19.300   7.888
 1390POPC   C4B22210  43.399  19.216   7.445
 1391POPC   NC322211  18.975  30.554   9.288
 1391POPC   PO422212  19.470  30.942   9.459
 1391POPC   GL122213  19.331  31.011   9.018
 1391POPC   GL222214  18.990  30.859   8.908
 1391POPC   C1A22215  19.347  30.863   8.579
 1391POPC   D2A22216  19.059  30.644   8.345
 1391POPC   C3A22217  19.194  30.651   7.972
 1391POPC   C4A22218  19.330  31.040   7.790
 1391POPC   C1B22219  18.718  30.574   8.702
 1391POPC   C2B22220  18.558  30.765   8.360
 1391POPC   C3B22221  18.761  30.902   8.019
 1391POPC   C4B22222  18.897  30.838   7.603
 1392POPC   NC322223   4.210  40.560   9.507
 1392POPC   PO422224   4.394  39.795   9.539
 1392POPC   GL122225   4.222  39.851   9.145
 1392POPC   GL222226   3.939  40.047   9.066
 1392POPC   C1A22227   4.207  39.683   8.768
 1392POPC   D2A22228   4.374  39.755   8.381
 1392POPC   C3A22229   4.120  39.755   8.031
 1392POPC   C4A22230   4.275  39.853   7.634
 1392POPC   C1B22231   4.044  40.264   8.661
 1392POPC   C2B22232   4.137  40.269   8.198
 1392POPC   C3B22233   3.926  40.202   7.769
 1392POPC   C4B22234   4.087  40.232   7.301
 1393POPC   NC322235  16.907  31.649   9.517
 1393POPC   PO422236  17.157  31.068   9.541
 1393POPC   GL122237  16.965  31.208   9.117
 1393POPC   GL222238  16.737  31.498   9.076
 1393POPC   C1A22239  16.930  31.337   8.653
 1393POPC   D2A22240  17.146  31.387   8.271
 1393POPC   C3A22241  16.839  31.351   7.969
 1393POPC   C4A22242  16.750  31.676   7.705
 1393POPC   C1B22243  16.476  31.584   8.696
 1393POPC   C2B22244  16.530  31.626   8.264
 1393POPC   C3B22245  16.284  31.705   7.910
 1393POPC   C4B22246  16.302  31.729   7.435
 1394POPC   NC322247  18.803  24.837   9.967
 1394POPC   PO422248  19.217  25.118   9.446
 1394POPC   GL122249  19.105  25.283   9.079
 1394POPC   GL222250  18.789  25.385   9.189
 1394POPC   C1A22251  19.185  25.249   8.640
 1394POPC   D2A22252  19.273  25.260   8.197
 1394POPC   C3A22253  18.987  25.118   7.933
 1394POPC   C4A22254  18.858  24.970   7.535
 1394POPC   C1B22255  18.778  25.564   8.776
 1394POPC   C2B22256  18.879  25.543   8.351
 1394POPC   C3B22257  19.027  25.682   7.973
 1394POPC   C4B22258  19.082  25.485   7.565
 1395POPC   NC322259  19.629  13.147   9.443
 1395POPC   PO422260  19.274  12.541   9.572
 1395POPC   GL122261  19.527  12.643   9.130
 1395POPC   GL222262  19.811  12.829   9.068
 1395POPC   C1A22263  19.533  12.792   8.650
 1395POPC   D2A22264  19.619  13.055   8.289
 1395POPC   C3A22265  19.666  12.811   7.906
 1395POPC   C4A22266  19.855  12.844   7.500
 1395POPC   C1B22267  20.039  12.681   8.714
 1395POPC   C2B22268  19.997  12.680   8.285
 1395POPC   C3B22269  20.194  12.800   7.915
 1395POPC   C4B22270  20.281  13.102   7.623
 1396POPC   NC322271  25.230  10.195   9.537
 1396POPC   PO422272  25.258  10.837   9.535
 1396POPC   GL122273  25.128  10.583   9.191
 1396POPC   GL222274  25.356  10.730   9.035
 1396POPC   C1A22275  25.216  10.318   8.789
 1396POPC   D2A22276  25.394  10.470   8.368
 1396POPC   C3A22277  25.227  10.268   7.983
 1396POPC   C4A22278  25.380  10.070   7.615
 1396POPC   C1B22279  25.122  10.849   8.679
 1396POPC   C2B22280  24.794  10.884   8.356
 1396POPC   C3B22281  24.942  10.912   7.959
 1396POPC   C4B22282  25.298  10.733   7.760
 1397POPC   NC322283  22.996  43.777   9.678
 1397POPC   PO422284  22.620  44.198   9.494
 1397POPC   GL122285  22.899  43.998   9.191
 1397POPC   GL222286  22.722  43.686   9.111
 1397POPC   C1A22287  23.117  43.800   8.809
 1397POPC   D2A22288  23.089  43.586   8.407
 1397POPC   C3A22289  23.011  43.875   8.113
 1397POPC   C4A22290  23.161  43.955   7.702
 1397POPC   C1B22291  22.626  44.023   8.760
 1397POPC   C2B22292  22.641  44.188   8.311
 1397POPC   C3B22293  22.736  44.235   7.870
 1397POPC   C4B22294  22.670  43.970   7.497
 1398POPC   NC322295  24.846  44.503   9.712
 1398POPC   PO422296  24.972   0.146   9.465
 1398POPC   GL122297  25.202  44.751   9.269
 1398POPC   GL222298  25.547  44.772   9.214
 1398POPC   C1A22299  25.207  44.814   8.809
 1398POPC   D2A22300  25.106  44.959   8.388
 1398POPC   C3A22301  25.266  44.723   8.056
 1398POPC   C4A22302  25.091  44.598   7.668
 1398POPC   C1B22303  25.695  44.616   8.799
 1398POPC   C2B22304  25.756  44.630   8.346
 1398POPC   C3B22305  25.613  44.359   7.993
 1398POPC   C4B22306  25.468  44.291   7.560
 1399POPC   NC322307  36.624  10.100   9.665
 1399POPC   PO422308  37.094  10.626   9.663
 1399POPC   GL122309  37.009  10.696   9.132
 1399POPC   GL222310  37.151  10.382   8.906
 1399POPC   C1A22311  36.798  10.957   8.834
 1399POPC   D2A22312  36.959  11.076   8.439
 1399POPC   C3A22313  37.001  10.749   8.122
 1399POPC   C4A22314  36.744  10.681   7.763
 1399POPC   C1B22315  36.872  10.525   8.579
 1399POPC   C2B22316  36.580  10.337   8.284
 1399POPC   C3B22317  36.723  10.188   7.904
 1399POPC   C4B22318  37.019  10.261   7.634
 1400POPC   NC322319  15.297   1.285   9.454
 1400POPC   PO422320  15.008   0.701   9.495
 1400POPC   GL122321  15.133   0.929   9.129
 1400POPC   GL222322  15.490   0.916   9.137
 1400POPC   C1A22323  15.175   1.174   8.747
 1400POPC   D2A22324  15.037   1.487   8.414
 1400POPC   C3A22325  15.167   1.327   7.983
 1400POPC   C4A22326  14.931   0.966   7.768
 1400POPC   C1B22327  15.434   0.709   8.745
 1400POPC   C2B22328  15.377   0.914   8.329
 1400POPC   C3B22329  15.394   0.801   7.895
 1400POPC   C4B22330  15.470   0.886   7.465
 1401POPC   NC322331  26.556  42.278   9.450
 1401POPC   PO422332  27.193  42.521   9.446
 1401POPC   GL122333  26.931  42.358   9.066
 1401POPC   GL222334  26.658  42.072   9.021
 1401POPC   C1A22335  26.893  42.245   8.620
 1401POPC   D2A22336  26.694  41.986   8.323
 1401POPC   C3A22337  26.851  42.123   7.952
 1401POPC   C4A22338  26.740  42.213   7.558
 1401POPC   C1B22339  26.378  42.169   8.689
 1401POPC   C2B22340  26.387  42.502   8.406
 1401POPC   C3B22341  26.564  42.547   8.018
 1401POPC   C4B22342  26.433  42.630   7.603
 1402POPC   NC322343  17.494   0.023   9.510
 1402POPC   PO422344  17.473   0.701   9.652
 1402POPC   GL122345  17.389   0.660   9.203
 1402POPC   GL222346  17.339   0.318   9.126
 1402POPC   C1A22347  17.642   0.583   8.816
 1402POPC   D2A22348  17.885   0.486   8.454
 1402POPC   C3A22349  17.833   0.630   8.013
 1402POPC   C4A22350  17.549   0.737   7.674
 1402POPC   C1B22351  17.366   0.123   8.721
 1402POPC   C2B22352  17.524   0.120   8.313
 1402POPC   C3B22353  17.381   0.392   8.023
 1402POPC   C4B22354  17.176   0.403   7.645
 1403POPC   NC322355  35.766  25.508   9.482
 1403POPC   PO422356  36.458  25.295   9.542
 1403POPC   GL122357  36.376  25.437   9.112
 1403POPC   GL222358  36.015  25.441   9.026
 1403POPC   C1A22359  36.364  25.586   8.649
 1403POPC   D2A22360  36.026  25.510   8.368
 1403POPC   C3A22361  36.106  25.307   7.991
 1403POPC   C4A22362  36.323  25.422   7.633
 1403POPC   C1B22363  36.166  25.123   8.748
 1403POPC   C2B22364  36.411  25.110   8.381
 1403POPC   C3B22365  36.484  24.969   7.957
 1403POPC   C4B22366  36.180  24.914   7.626
 1404POPC   NC322367  10.464  13.834   9.660
 1404POPC   PO422368  11.015  13.580   9.528
 1404POPC   GL122369  10.707  13.551   9.191
 1404POPC   GL222370  10.694  13.904   9.160
 1404POPC   C1A22371  10.801  13.593   8.724
 1404POPC   D2A22372  10.730  13.889   8.387
 1404POPC   C3A22373  10.763  13.733   7.962
 1404POPC   C4A22374  10.611  13.393   7.690
 1404POPC   C1B22375  10.368  13.830   8.820
 1404POPC   C2B22376  10.196  13.721   8.389
 1404POPC   C3B22377  10.211  13.633   7.917
 1404POPC   C4B22378  10.297  13.740   7.453
 1405POPC   NC322379  20.821  41.299   9.460
 1405POPC   PO422380  20.160  41.614   9.606
 1405POPC   GL122381  20.332  41.621   9.172
 1405POPC   GL222382  20.703  41.645   9.114
 1405POPC   C1A22383  20.404  41.437   8.762
 1405POPC   D2A22384  20.686  41.508   8.411
 1405POPC   C3A22385  20.475  41.383   8.055
 1405POPC   C4A22386  20.403  41.011   7.803
 1405POPC   C1B22387  20.909  41.830   8.754
 1405POPC   C2B22388  20.853  42.013   8.382
 1405POPC   C3B22389  20.980  41.972   8.004
 1405POPC   C4B22390  20.999  41.527   7.958
 1406POPC   NC322391  36.820  18.778   9.641
 1406POPC   PO422392  37.322  19.177   9.467
 1406POPC   GL122393  37.003  19.214   9.154
 1406POPC   GL222394  36.644  19.357   9.193
 1406POPC   C1A22395  37.022  19.072   8.730
 1406POPC   D2A22396  37.108  18.928   8.302
 1406POPC   C3A22397  36.874  19.175   7.989
 1406POPC   C4A22398  36.927  19.220   7.568
 1406POPC   C1B22399  36.612  18.919   8.983
 1406POPC   C2B22400  36.726  18.682   8.579
 1406POPC   C3B22401  36.652  18.716   8.119
 1406POPC   C4B22402  36.897  18.710   7.747
 1407POPC   NC322403  14.682  11.660   9.473
 1407POPC   PO422404  14.378  12.231   9.288
 1407POPC   GL122405  14.372  11.859   9.110
 1407POPC   GL222406  14.006  11.802   9.186
 1407POPC   C1A22407  14.521  11.901   8.687
 1407POPC   D2A22408  14.550  12.134   8.307
 1407POPC   C3A22409  14.656  11.860   8.028
 1407POPC   C4A22410  14.483  11.759   7.669
 1407POPC   C1B22411  14.024  11.992   8.767
 1407POPC   C2B22412  14.065  11.872   8.361
 1407POPC   C3B22413  14.126  11.998   7.962
 1407POPC   C4B22414  14.407  12.295   7.821
 1408POPC   NC322415  17.138  15.915   9.460
 1408POPC   PO422416  16.477  16.056   9.478
 1408POPC   GL122417  16.577  15.866   9.068
 1408POPC   GL222418  16.910  15.713   9.045
 1408POPC   C1A22419  16.445  15.917   8.619
 1408POPC   D2A22420  16.310  15.678   8.221
 1408POPC   C3A22421  16.425  15.865   7.841
 1408POPC   C4A22422  16.659  16.249   7.765
 1408POPC   C1B22423  16.992  15.823   8.627
 1408POPC   C2B22424  16.806  15.796   8.225
 1408POPC   C3B22425  16.970  15.811   7.823
 1408POPC   C4B22426  17.082  15.560   7.461
 1409POPC   NC322427  14.888  27.336   9.512
 1409POPC   PO422428  14.222  27.284   9.477
 1409POPC   GL122429  14.423  27.494   9.150
 1409POPC   GL222430  14.286  27.803   9.156
 1409POPC   C1A22431  14.496  27.607   8.703
 1409POPC   D2A22432  14.347  27.348   8.361
 1409POPC   C3A22433  14.363  27.494   7.938
 1409POPC   C4A22434  14.596  27.476   7.508
 1409POPC   C1B22435  14.042  27.805   8.802
 1409POPC   C2B22436  14.182  27.900   8.403
 1409POPC   C3B22437  14.058  27.914   7.989
 1409POPC   C4B22438  14.221  27.807   7.571
 1410POPC   NC322439   7.277  22.662   9.524
 1410POPC   PO422440   7.748  23.040   9.344
 1410POPC   GL122441   7.361  22.929   9.099
 1410POPC   GL222442   7.168  22.557   9.052
 1410POPC   C1A22443   7.202  22.900   8.687
 1410POPC   D2A22444   6.921  23.068   8.383
 1410POPC   C3A22445   7.145  23.020   7.951
 1410POPC   C4A22446   7.550  23.134   7.743
 1410POPC   C1B22447   7.584  22.508   8.867
 1410POPC   C2B22448   7.674  22.756   8.523
 1410POPC   C3B22449   7.631  22.741   8.074
 1410POPC   C4B22450   7.305  22.503   7.813
 1411POPC   NC322451  32.246  19.526   9.252
 1411POPC   PO422452  31.886  20.008   9.461
 1411POPC   GL122453  32.034  19.951   9.063
 1411POPC   GL222454  32.386  20.006   9.113
 1411POPC   C1A22455  32.239  19.817   8.666
 1411POPC   D2A22456  32.071  19.910   8.278
 1411POPC   C3A22457  32.131  19.740   7.895
 1411POPC   C4A22458  32.175  19.354   7.724
 1411POPC   C1B22459  32.508  20.269   8.738
 1411POPC   C2B22460  32.513  20.131   8.347
 1411POPC   C3B22461  32.601  19.878   8.024
 1411POPC   C4B22462  32.463  20.063   7.641
 1412POPC   NC322463  16.522  34.286   9.511
 1412POPC   PO422464  16.574  33.614   9.456
 1412POPC   GL122465  16.762  33.810   9.075
 1412POPC   GL222466  16.849  34.143   9.147
 1412POPC   C1A22467  16.813  33.815   8.612
 1412POPC   D2A22468  16.671  33.550   8.308
 1412POPC   C3A22469  16.689  33.615   7.908
 1412POPC   C4A22470  16.993  33.810   7.701
 1412POPC   C1B22471  16.777  34.308   8.743
 1412POPC   C2B22472  16.891  34.388   8.359
 1412POPC   C3B22473  16.721  34.080   8.113
 1412POPC   C4B22474  16.517  34.091   7.730
 1413POPC   NC322475  28.358  36.692   9.290
 1413POPC   PO422476  27.972  37.080   9.673
 1413POPC   GL122477  28.231  37.209   9.296
 1413POPC   GL222478  28.563  37.141   9.135
 1413POPC   C1A22479  28.185  37.317   8.845
 1413POPC   D2A22480  28.392  37.315   8.430
 1413POPC   C3A22481  28.334  36.946   8.162
 1413POPC   C4A22482  28.296  37.033   7.705
 1413POPC   C1B22483  28.488  36.910   8.720
 1413POPC   C2B22484  28.694  36.586   8.508
 1413POPC   C3B22485  28.750  36.617   8.074
 1413POPC   C4B22486  28.388  36.541   7.812
 1414POPC   NC322487  42.118   1.474   9.304
 1414POPC   PO422488  42.606   1.167   9.705
 1414POPC   GL122489  42.484   1.097   9.218
 1414POPC   GL222490  42.490   1.409   8.979
 1414POPC   C1A22491  42.286   0.899   8.812
 1414POPC   D2A22492  41.987   0.749   8.470
 1414POPC   C3A22493  42.104   0.811   8.071
 1414POPC   C4A22494  42.244   0.977   7.715
 1414POPC   C1B22495  42.200   1.411   8.671
 1414POPC   C2B22496  42.067   1.291   8.281
 1414POPC   C3B22497  42.103   1.460   7.859
 1414POPC   C4B22498  42.392   1.639   7.522
 1415POPC   NC322499  31.914  10.488   9.421
 1415POPC   PO422500  31.224  10.438   9.523
 1415POPC   GL122501  31.348  10.578   9.089
 1415POPC   GL222502  31.521  10.890   9.083
 1415POPC   C1A22503  31.362  10.651   8.624
 1415POPC   D2A22504  31.313  10.472   8.217
 1415POPC   C3A22505  31.682  10.433   8.002
 1415POPC   C4A22506  32.016  10.279   7.828
 1415POPC   C1B22507  31.781  10.954   8.724
 1415POPC   C2B22508  31.714  10.863   8.279
 1415POPC   C3B22509  31.633  11.016   7.854
 1415POPC   C4B22510  31.216  11.153   7.680
 1416POPC   NC322511  26.601   6.888   9.521
 1416POPC   PO422512  27.244   6.774   9.591
 1416POPC   GL122513  27.050   6.874   9.207
 1416POPC   GL222514  26.923   6.547   9.136
 1416POPC   C1A22515  27.119   6.863   8.745
 1416POPC   D2A22516  26.842   6.928   8.366
 1416POPC   C3A22517  27.015   6.828   7.951
 1416POPC   C4A22518  27.103   6.588   7.605
 1416POPC   C1B22519  26.672   6.603   8.740
 1416POPC   C2B22520  26.547   6.501   8.302
 1416POPC   C3B22521  26.689   6.408   7.877
 1416POPC   C4B22522  26.679   6.275   7.435
 1417POPC   NC322523  33.557   6.030   9.470
 1417POPC   PO422524  34.039   5.577   9.434
 1417POPC   GL122525  33.814   5.736   9.099
 1417POPC   GL222526  33.893   6.059   9.108
 1417POPC   C1A22527  33.843   5.877   8.636
 1417POPC   D2A22528  33.888   5.645   8.249
 1417POPC   C3A22529  33.548   5.661   7.941
 1417POPC   C4A22530  33.624   5.353   7.635
 1417POPC   C1B22531  34.058   6.333   8.792
 1417POPC   C2B22532  33.929   6.354   8.378
 1417POPC   C3B22533  33.902   6.104   8.013
 1417POPC   C4B22534  34.004   5.767   7.740
 1418POPC   NC322535  17.119  24.777   9.847
 1418POPC   PO422536  17.482  25.322   9.603
 1418POPC   GL122537  17.502  25.321   9.200
 1418POPC   GL222538  17.836  25.310   9.181
 1418POPC   C1A22539  17.516  25.438   8.787
 1418POPC   D2A22540  17.340  25.340   8.420
 1418POPC   C3A22541  17.516  25.402   8.003
 1418POPC   C4A22542  17.317  25.169   7.655
 1418POPC   C1B22543  17.933  25.102   8.809
 1418POPC   C2B22544  17.842  25.213   8.412
 1418POPC   C3B22545  17.946  25.013   8.031
 1418POPC   C4B22546  17.855  25.157   7.672
 1419POPC   NC322547   2.962  10.469   9.582
 1419POPC   PO422548   2.372  10.607   9.474
 1419POPC   GL122549   2.671  10.328   9.180
 1419POPC   GL222550   3.065  10.268   9.088
 1419POPC   C1A22551   2.667  10.393   8.732
 1419POPC   D2A22552   2.462  10.466   8.324
 1419POPC   C3A22553   2.607  10.276   7.937
 1419POPC   C4A22554   2.595  10.443   7.542
 1419POPC   C1B22555   3.112  10.189   8.615
 1419POPC   C2B22556   2.975  10.482   8.300
 1419POPC   C3B22557   3.085  10.504   7.879
 1419POPC   C4B22558   3.094  10.806   7.562
 1420POPC   NC322559  18.184  12.242   9.471
 1420POPC   PO422560  18.632  11.782   9.639
 1420POPC   GL122561  18.431  11.893   9.208
 1420POPC   GL222562  18.079  11.815   9.231
 1420POPC   C1A22563  18.249  12.221   8.838
 1420POPC   D2A22564  18.007  12.219   8.447
 1420POPC   C3A22565  18.235  12.122   8.098
 1420POPC   C4A22566  18.342  12.123   7.680
 1420POPC   C1B22567  18.186  11.725   8.791
 1420POPC   C2B22568  18.036  11.685   8.390
 1420POPC   C3B22569  18.149  11.637   7.971
 1420POPC   C4B22570  17.968  11.570   7.577
 1421POPC   NC322571  19.925   2.568   9.591
 1421POPC   PO422572  19.575   3.084   9.730
 1421POPC   GL122573  19.666   2.839   9.272
 1421POPC   GL222574  19.965   2.822   9.086
 1421POPC   C1A22575  19.572   2.598   8.861
 1421POPC   D2A22576  19.792   2.716   8.481
 1421POPC   C3A22577  19.664   2.718   8.051
 1421POPC   C4A22578  20.036   2.726   7.786
 1421POPC   C1B22579  19.646   3.094   8.809
 1421POPC   C2B22580  19.539   3.142   8.340
 1421POPC   C3B22581  19.828   3.193   7.951
 1421POPC   C4B22582  20.198   3.281   7.681
 1422POPC   NC322583  16.480  29.986   9.650
 1422POPC   PO422584  17.152  30.080   9.694
 1422POPC   GL122585  17.091  29.911   9.256
 1422POPC   GL222586  16.747  29.934   9.224
 1422POPC   C1A22587  17.104  29.812   8.791
 1422POPC   D2A22588  17.218  29.950   8.339
 1422POPC   C3A22589  16.986  29.791   7.995
 1422POPC   C4A22590  16.691  29.883   7.700
 1422POPC   C1B22591  16.603  29.731   8.865
 1422POPC   C2B22592  16.696  29.837   8.428
 1422POPC   C3B22593  16.484  29.626   8.086
 1422POPC   C4B22594  16.395  29.424   7.738
 1423POPC   NC322595  35.497  36.540   9.587
 1423POPC   PO422596  35.285  35.906   9.488
 1423POPC   GL122597  35.284  36.211   9.235
 1423POPC   GL222598  35.597  36.244   9.198
 1423POPC   C1A22599  35.141  36.220   8.847
 1423POPC   D2A22600  35.299  36.074   8.470
 1423POPC   C3A22601  35.216  36.188   8.054
 1423POPC   C4A22602  35.089  35.918   7.735
 1423POPC   C1B22603  35.688  36.198   8.805
 1423POPC   C2B22604  35.786  36.235   8.401
 1423POPC   C3B22605  35.704  36.307   8.029
 1423POPC   C4B22606  35.587  36.037   7.707
 1424POPC   NC322607  22.751  42.867   9.546
 1424POPC   PO422608  23.201  43.380   9.587
 1424POPC   GL122609  23.039  43.227   9.212
 1424POPC   GL222610  23.197  42.916   9.215
 1424POPC   C1A22611  23.193  43.253   8.779
 1424POPC   D2A22612  23.279  43.000   8.404
 1424POPC   C3A22613  23.132  43.169   8.015
 1424POPC   C4A22614  22.923  43.495   7.763
 1424POPC   C1B22615  22.994  42.795   8.813
 1424POPC   C2B22616  22.896  42.662   8.386
 1424POPC   C3B22617  22.775  42.798   8.001
 1424POPC   C4B22618  22.393  42.673   7.765
 1425POPC   NC322619  31.023  14.711   9.425
 1425POPC   PO422620  31.738  14.762   9.395
 1425POPC   GL122621  31.598  14.523   9.052
 1425POPC   GL222622  31.259  14.522   9.005
 1425POPC   C1A22623  31.683  14.402   8.673
 1425POPC   D2A22624  31.569  14.193   8.325
 1425POPC   C3A22625  31.714  14.406   7.978
 1425POPC   C4A22626  31.590  14.728   7.714
 1425POPC   C1B22627  31.051  14.363   8.623
 1425POPC   C2B22628  30.941  14.359   8.190
 1425POPC   C3B22629  31.177  14.239   7.817
 1425POPC   C4B22630  30.921  14.074   7.484
 1426POPC   NC322631   4.829  30.000   9.616
 1426POPC   PO422632   5.495  29.775   9.524
 1426POPC   GL122633   5.190  29.994   9.237
 1426POPC   GL222634   4.876  29.814   9.161
 1426POPC   C1A22635   5.055  30.099   8.795
 1426POPC   D2A22636   4.833  30.003   8.428
 1426POPC   C3A22637   5.080  29.998   8.044
 1426POPC   C4A22638   5.031  30.263   7.688
 1426POPC   C1B22639   4.875  29.612   8.784
 1426POPC   C2B22640   5.115  29.591   8.410
 1426POPC   C3B22641   5.031  29.464   8.004
 1426POPC   C4B22642   5.280  29.544   7.661
 1427POPC   NC322643  36.848  16.188   9.490
 1427POPC   PO422644  36.547  15.527   9.546
 1427POPC   GL122645  36.729  15.596   9.130
 1427POPC   GL222646  36.805  15.910   9.095
 1427POPC   C1A22647  36.965  15.703   8.701
 1427POPC   D2A22648  37.203  15.577   8.362
 1427POPC   C3A22649  37.074  15.751   7.990
 1427POPC   C4A22650  37.257  16.141   7.865
 1427POPC   C1B22651  36.615  16.182   8.788
 1427POPC   C2B22652  36.453  16.217   8.361
 1427POPC   C3B22653  36.583  15.974   7.972
 1427POPC   C4B22654  36.636  15.546   7.751
 1428POPC   NC322655   2.850  33.489   9.484
 1428POPC   PO422656   3.172  34.031   9.442
 1428POPC   GL122657   2.923  34.076   9.099
 1428POPC   GL222658   2.694  33.785   9.037
 1428POPC   C1A22659   2.997  34.007   8.680
 1428POPC   D2A22660   2.909  33.726   8.374
 1428POPC   C3A22661   2.999  33.918   7.984
 1428POPC   C4A22662   2.863  33.956   7.547
 1428POPC   C1B22663   2.445  33.773   8.607
 1428POPC   C2B22664   2.474  33.725   8.118
 1428POPC   C3B22665   2.755  33.504   7.821
 1428POPC   C4B22666   2.770  33.481   7.356
 1429POPC   NC322667  37.914  17.798   9.258
 1429POPC   PO422668  37.826  17.137   9.330
 1429POPC   GL122669  37.594  17.421   9.079
 1429POPC   GL222670  37.883  17.494   8.849
 1429POPC   C1A22671  37.353  17.502   8.703
 1429POPC   D2A22672  37.154  17.416   8.285
 1429POPC   C3A22673  37.473  17.561   7.976
 1429POPC   C4A22674  37.840  17.297   7.865
 1429POPC   C1B22675  37.878  17.883   8.591
 1429POPC   C2B22676  37.890  18.000   8.172
 1429POPC   C3B22677  37.886  17.797   7.759
 1429POPC   C4B22678  37.857  17.703   7.304
 1430POPC   NC322679  22.171  24.576   9.589
 1430POPC   PO422680  21.626  24.164   9.358
 1430POPC   GL122681  22.019  24.407   9.133
 1430POPC   GL222682  22.249  24.737   9.137
 1430POPC   C1A22683  21.943  24.589   8.744
 1430POPC   D2A22684  22.129  24.557   8.351
 1430POPC   C3A22685  21.952  24.430   7.997
 1430POPC   C4A22686  22.097  24.105   7.741
 1430POPC   C1B22687  22.456  24.954   8.842
 1430POPC   C2B22688  22.369  24.998   8.423
 1430POPC   C3B22689  22.456  24.813   8.024
 1430POPC   C4B22690  22.303  24.618   7.699
 1431POPC   NC322691  19.277   3.321   9.475
 1431POPC   PO422692  19.181   3.973   9.496
 1431POPC   GL122693  18.922   3.631   9.215
 1431POPC   GL222694  18.900   3.246   9.100
 1431POPC   C1A22695  18.846   3.608   8.746
 1431POPC   D2A22696  18.791   3.807   8.335
 1431POPC   C3A22697  18.943   3.733   7.894
 1431POPC   C4A22698  19.329   3.852   7.661
 1431POPC   C1B22699  19.097   3.151   8.682
 1431POPC   C2B22700  19.037   3.321   8.256
 1431POPC   C3B22701  19.357   3.407   7.929
 1431POPC   C4B22702  19.434   3.058   7.657
 1432POPC   NC322703  27.446  42.843   9.677
 1432POPC   PO422704  27.990  42.630   9.365
 1432POPC   GL122705  27.836  42.366   9.037
 1432POPC   GL222706  27.460  42.341   8.936
 1432POPC   C1A22707  27.888  42.050   8.732
 1432POPC   D2A22708  27.611  42.073   8.384
 1432POPC   C3A22709  27.778  42.236   7.983
 1432POPC   C4A22710  27.709  42.341   7.515
 1432POPC   C1B22711  27.186  42.663   8.722
 1432POPC   C2B22712  27.055  42.609   8.291
 1432POPC   C3B22713  27.292  42.419   7.998
 1432POPC   C4B22714  27.225  42.279   7.611
 1433POPC   NC322715  17.690  35.594   9.536
 1433POPC   PO422716  17.613  35.000   9.845
 1433POPC   GL122717  17.386  35.059   9.354
 1433POPC   GL222718  17.346  35.394   9.183
 1433POPC   C1A22719  17.487  34.998   8.862
 1433POPC   D2A22720  17.527  35.203   8.456
 1433POPC   C3A22721  17.323  35.106   8.075
 1433POPC   C4A22722  17.498  35.237   7.710
 1433POPC   C1B22723  17.231  35.528   8.741
 1433POPC   C2B22724  17.290  35.630   8.273
 1433POPC   C3B22725  17.594  35.716   7.940
 1433POPC   C4B22726  17.890  35.829   7.614
 1434POPC   NC322727  38.099  33.989   9.442
 1434POPC   PO422728  37.439  33.789   9.335
 1434POPC   GL122729  37.813  33.672   9.139
 1434POPC   GL222730  37.569  33.516   8.897
 1434POPC   C1A22731  38.032  33.683   8.783
 1434POPC   D2A22732  37.821  33.645   8.402
 1434POPC   C3A22733  37.877  33.772   7.995
 1434POPC   C4A22734  37.721  33.679   7.593
 1434POPC   C1B22735  37.593  33.969   8.724
 1434POPC   C2B22736  37.634  34.134   8.290
 1434POPC   C3B22737  37.458  34.042   7.853
 1434POPC   C4B22738  37.317  33.932   7.390
 1435POPC   NC322739  33.809   4.794   9.507
 1435POPC   PO422740  33.567   4.171   9.650
 1435POPC   GL122741  33.630   4.302   9.158
 1435POPC   GL222742  33.917   4.535   9.082
 1435POPC   C1A22743  33.655   4.445   8.654
 1435POPC   D2A22744  33.587   4.609   8.203
 1435POPC   C3A22745  33.632   4.384   7.775
 1435POPC   C4A22746  33.560   4.573   7.338
 1435POPC   C1B22747  34.194   4.501   8.722
 1435POPC   C2B22748  34.404   4.516   8.287
 1435POPC   C3B22749  34.282   4.417   7.845
 1435POPC   C4B22750  34.311   4.112   7.467
 1436POPC   NC322751   8.878   1.008   9.505
 1436POPC   PO422752   9.230   1.655   9.472
 1436POPC   GL122753   9.022   1.368   9.176
 1436POPC   GL222754   9.190   1.007   9.096
 1436POPC   C1A22755   8.851   1.265   8.793
 1436POPC   D2A22756   9.125   1.252   8.462
 1436POPC   C3A22757   8.940   1.329   8.054
 1436POPC   C4A22758   8.639   1.389   7.738
 1436POPC   C1B22759   9.416   0.770   8.738
 1436POPC   C2B22760   9.316   0.791   8.285
 1436POPC   C3B22761   9.328   1.008   7.902
 1436POPC   C4B22762   9.077   1.155   7.580
 1437POPC   NC322763  34.426  42.885   9.961
 1437POPC   PO422764  34.989  42.836   9.526
 1437POPC   GL122765  34.689  42.941   9.200
 1437POPC   GL222766  34.335  42.846   9.320
 1437POPC   C1A22767  34.703  43.222   8.799
 1437POPC   D2A22768  34.482  43.289   8.389
 1437POPC   C3A22769  34.756  43.367   8.016
 1437POPC   C4A22770  34.722  43.190   7.614
 1437POPC   C1B22771  34.295  42.893   8.829
 1437POPC   C2B22772  34.185  42.864   8.355
 1437POPC   C3B22773  34.452  42.941   7.952
 1437POPC   C4B22774  34.299  42.948   7.446
 1438POPC   NC322775  26.311  29.898   9.437
 1438POPC   PO422776  25.640  29.806   9.384
 1438POPC   GL122777  25.958  29.678   9.103
 1438POPC   GL222778  25.925  30.020   9.013
 1438POPC   C1A22779  25.942  29.658   8.662
 1438POPC   D2A22780  25.902  29.995   8.413
 1438POPC   C3A22781  26.008  29.885   8.049
 1438POPC   C4A22782  25.809  29.864   7.694
 1438POPC   C1B22783  26.310  29.992   8.755
 1438POPC   C2B22784  26.428  30.161   8.319
 1438POPC   C3B22785  26.343  30.193   7.842
 1438POPC   C4B22786  26.156  30.118   7.434
 1439POPC   NC322787  38.939   9.456   9.324
 1439POPC   PO422788  39.116  10.080   9.535
 1439POPC   GL122789  39.150   9.878   9.141
 1439POPC   GL222790  39.400   9.615   9.041
 1439POPC   C1A22791  39.060   9.789   8.722
 1439POPC   D2A22792  39.345   9.680   8.430
 1439POPC   C3A22793  39.147   9.732   8.063
 1439POPC   C4A22794  39.228   9.486   7.710
 1439POPC   C1B22795  39.575   9.944   8.835
 1439POPC   C2B22796  39.693  10.055   8.424
 1439POPC   C3B22797  39.501  10.152   8.055
 1439POPC   C4B22798  39.340  10.009   7.694
 1440POPC   NC322799   3.679  28.909   9.431
 1440POPC   PO422800   3.107  29.159   9.637
 1440POPC   GL122801   3.225  29.059   9.215
 1440POPC   GL222802   3.499  29.253   9.086
 1440POPC   C1A22803   3.243  29.003   8.741
 1440POPC   D2A22804   3.532  29.171   8.435
 1440POPC   C3A22805   3.470  29.040   7.990
 1440POPC   C4A22806   3.766  28.939   7.648
 1440POPC   C1B22807   3.840  29.386   8.845
 1440POPC   C2B22808   3.965  29.458   8.468
 1440POPC   C3B22809   3.911  29.272   8.081
 1440POPC   C4B22810   3.974  29.397   7.701
 1441POPC   NC322811   9.213  36.284   9.328
 1441POPC   PO422812   8.862  36.868   9.550
 1441POPC   GL122813   8.815  36.786   9.102
 1441POPC   GL222814   8.490  36.612   9.065
 1441POPC   C1A22815   8.841  36.996   8.675
 1441POPC   D2A22816   8.954  37.246   8.298
 1441POPC   C3A22817   8.976  36.984   7.914
 1441POPC   C4A22818   9.004  36.848   7.452
 1441POPC   C1B22819   8.718  36.492   8.670
 1441POPC   C2B22820   8.878  36.596   8.243
 1441POPC   C3B22821   8.672  36.566   7.827
 1441POPC   C4B22822   8.763  36.417   7.393
 1442POPC   NC322823  36.004  18.215   9.490
 1442POPC   PO422824  36.550  17.805   9.432
 1442POPC   GL122825  36.392  18.143   9.181
 1442POPC   GL222826  36.305  18.521   9.197
 1442POPC   C1A22827  36.080  18.157   8.856
 1442POPC   D2A22828  36.102  18.073   8.447
 1442POPC   C3A22829  36.130  18.264   8.054
 1442POPC   C4A22830  36.093  18.105   7.659
 1442POPC   C1B22831  36.241  18.641   8.757
 1442POPC   C2B22832  36.169  18.704   8.313
 1442POPC   C3B22833  36.181  18.731   7.841
 1442POPC   C4B22834  35.977  18.571   7.449
 1443POPC   NC322835  10.400  21.510   9.759
 1443POPC   PO422836   9.771  21.445   9.507
 1443POPC   GL122837   9.692  21.379   9.154
 1443POPC   GL222838   9.858  21.121   9.068
 1443POPC   C1A22839   9.700  21.537   8.783
 1443POPC   D2A22840   9.394  21.634   8.552
 1443POPC   C3A22841   9.523  21.583   8.171
 1443POPC   C4A22842   9.507  21.507   7.775
 1443POPC   C1B22843   9.728  20.989   8.740
 1443POPC   C2B22844   9.759  21.197   8.405
 1443POPC   C3B22845   9.682  21.086   8.037
 1443POPC   C4B22846   9.812  21.108   7.681
 1444POPC   NC322847  41.204  18.621   9.320
 1444POPC   PO422848  40.745  18.214   9.674
 1444POPC   GL122849  40.676  18.418   9.255
 1444POPC   GL222850  40.936  18.276   9.046
 1444POPC   C1A22851  40.525  18.474   8.806
 1444POPC   D2A22852  40.829  18.587   8.455
 1444POPC   C3A22853  40.763  18.340   8.078
 1444POPC   C4A22854  40.729  18.490   7.648
 1444POPC   C1B22855  40.824  18.092   8.643
 1444POPC   C2B22856  41.160  18.163   8.370
 1444POPC   C3B22857  41.244  18.033   7.992
 1444POPC   C4B22858  40.987  18.046   7.701
 1445POPC   NC322859  31.226  30.661   9.467
 1445POPC   PO422860  31.879  30.857   9.562
 1445POPC   GL122861  31.632  30.819   9.192
 1445POPC   GL222862  31.469  31.125   9.150
 1445POPC   C1A22863  31.405  30.732   8.789
 1445POPC   D2A22864  31.239  30.782   8.364
 1445POPC   C3A22865  31.322  30.453   8.092
 1445POPC   C4A22866  31.374  30.606   7.691
 1445POPC   C1B22867  31.778  31.105   8.783
 1445POPC   C2B22868  31.746  30.921   8.408
 1445POPC   C3B22869  31.675  30.838   8.008
 1445POPC   C4B22870  31.664  31.088   7.647
 1446POPC   NC322871   4.290  44.514   9.519
 1446POPC   PO422872   4.737   0.029   9.315
 1446POPC   GL122873   4.471  44.703   9.073
 1446POPC   GL222874   4.283  44.971   8.879
 1446POPC   C1A22875   4.225  44.475   8.739
 1446POPC   D2A22876   4.177  44.625   8.291
 1446POPC   C3A22877   4.203  44.360   7.890
 1446POPC   C4A22878   4.421  44.275   7.473
 1446POPC   C1B22879   4.604  44.824   8.608
 1446POPC   C2B22880   4.746  44.816   8.211
 1446POPC   C3B22881   4.568  44.700   7.852
 1446POPC   C4B22882   4.193  44.908   7.718
 1447POPC   NC322883  28.606  38.228   9.501
 1447POPC   PO422884  28.137  38.664   9.504
 1447POPC   GL122885  28.378  38.565   9.149
 1447POPC   GL222886  28.710  38.655   9.213
 1447POPC   C1A22887  28.436  38.596   8.707
 1447POPC   D2A22888  28.348  38.321   8.383
 1447POPC   C3A22889  28.319  38.578   8.052
 1447POPC   C4A22890  28.360  38.537   7.645
 1447POPC   C1B22891  28.870  38.413   8.874
 1447POPC   C2B22892  28.856  38.203   8.485
 1447POPC   C3B22893  28.815  38.449   8.144
 1447POPC   C4B22894  28.864  38.391   7.737
 1448POPC   NC322895  33.123  38.082   9.487
 1448POPC   PO422896  32.940  38.769   9.529
 1448POPC   GL122897  33.018  38.472   9.191
 1448POPC   GL222898  32.761  38.165   9.125
 1448POPC   C1A22899  33.238  38.337   8.824
 1448POPC   D2A22900  33.156  38.515   8.395
 1448POPC   C3A22901  33.396  38.627   8.009
 1448POPC   C4A22902  33.190  38.628   7.573
 1448POPC   C1B22903  32.822  37.923   8.747
 1448POPC   C2B22904  33.091  37.976   8.394
 1448POPC   C3B22905  33.047  38.211   7.994
 1448POPC   C4B22906  32.975  38.152   7.550
 1449POPC   NC322907  38.665  27.207   9.317
 1449POPC   PO422908  38.243  26.724   9.448
 1449POPC   GL122909  38.448  26.588   9.129
 1449POPC   GL222910  38.754  26.506   9.283
 1449POPC   C1A22911  38.434  26.798   8.745
 1449POPC   D2A22912  38.084  26.930   8.482
 1449POPC   C3A22913  38.267  27.112   8.121
 1449POPC   C4A22914  38.311  26.970   7.712
 1449POPC   C1B22915  38.824  26.402   8.843
 1449POPC   C2B22916  38.855  26.591   8.433
 1449POPC   C3B22917  38.695  26.792   8.063
 1449POPC   C4B22918  38.626  26.568   7.698
 1450POPC   NC322919  12.272   0.094   9.465
 1450POPC   PO422920  11.890   0.648   9.709
 1450POPC   GL122921  11.968   0.536   9.281
 1450POPC   GL222922  11.650   0.492   9.136
 1450POPC   C1A22923  12.106   0.421   8.856
 1450POPC   D2A22924  12.036   0.228   8.450
 1450POPC   C3A22925  12.338   0.297   8.144
 1450POPC   C4A22926  12.269   0.604   7.846
 1450POPC   C1B22927  11.623   0.232   8.776
 1450POPC   C2B22928  11.620  44.933   8.453
 1450POPC   C3B22929  11.575   0.042   8.048
 1450POPC   C4B22930  11.922   0.230   7.831
 1451POPC   NC322931  38.886  32.344   9.423
 1451POPC   PO422932  39.503  32.273   9.692
 1451POPC   GL122933  39.439  32.160   9.305
 1451POPC   GL222934  39.345  32.476   9.221
 1451POPC   C1A22935  39.327  31.894   8.947
 1451POPC   D2A22936  39.164  32.078   8.568
 1451POPC   C3A22937  39.276  31.925   8.190
 1451POPC   C4A22938  39.226  32.126   7.819
 1451POPC   C1B22939  39.499  32.383   8.844
 1451POPC   C2B22940  39.512  32.429   8.422
 1451POPC   C3B22941  39.596  32.713   8.116
 1451POPC   C4B22942  39.499  32.559   7.732
 1452POPC   NC322943  17.879  10.862   9.394
 1452POPC   PO422944  17.724  11.506   9.664
 1452POPC   GL122945  17.450  11.435   9.269
 1452POPC   GL222946  17.218  11.174   9.219
 1452POPC   C1A22947  17.478  11.304   8.807
 1452POPC   D2A22948  17.629  11.313   8.375
 1452POPC   C3A22949  17.635  11.589   8.041
 1452POPC   C4A22950  17.471  11.479   7.675
 1452POPC   C1B22951  17.072  10.949   8.832
 1452POPC   C2B22952  16.976  11.118   8.419
 1452POPC   C3B22953  17.194  11.255   8.064
 1452POPC   C4B22954  17.033  11.231   7.657
 1453POPC   NC322955  36.118  27.368   9.723
 1453POPC   PO422956  36.404  27.940   9.555
 1453POPC   GL122957  36.302  27.905   9.138
 1453POPC   GL222958  36.264  27.543   9.008
 1453POPC   C1A22959  36.505  27.913   8.748
 1453POPC   D2A22960  36.644  27.848   8.325
 1453POPC   C3A22961  36.357  27.897   7.961
 1453POPC   C4A22962  36.119  27.643   7.610
 1453POPC   C1B22963  36.334  27.478   8.530
 1453POPC   C2B22964  36.171  27.416   8.078
 1453POPC   C3B22965  35.915  27.148   7.771
 1453POPC   C4B22966  36.021  26.782   7.485
 1454POPC   NC322967  18.151  15.244   9.420
 1454POPC   PO422968  18.606  14.822   9.433
 1454POPC   GL122969  18.540  15.097   9.121
 1454POPC   GL222970  18.661  15.443   9.243
 1454POPC   C1A22971  18.285  15.013   8.743
 1454POPC   D2A22972  18.395  14.914   8.313
 1454POPC   C3A22973  18.117  14.969   7.957
 1454POPC   C4A22974  18.056  14.900   7.514
 1454POPC   C1B22975  18.425  15.497   8.856
 1454POPC   C2B22976  18.299  15.427   8.447
 1454POPC   C3B22977  18.481  15.409   8.069
 1454POPC   C4B22978  18.227  15.412   7.723
 1455POPC   NC322979  19.594  33.730   9.538
 1455POPC   PO422980  20.283  33.670   9.600
 1455POPC   GL122981  20.105  33.466   9.186
 1455POPC   GL222982  19.756  33.602   9.072
 1455POPC   C1A22983  20.266  33.530   8.738
 1455POPC   D2A22984  20.233  33.509   8.268
 1455POPC   C3A22985  20.052  33.873   8.010
 1455POPC   C4A22986  19.685  34.131   7.837
 1455POPC   C1B22987  19.781  33.411   8.674
 1455POPC   C2B22988  19.696  33.554   8.253
 1455POPC   C3B22989  19.679  33.605   7.791
 1455POPC   C4B22990  19.664  33.424   7.366
 1456POPC   NC322991  23.491  27.469   9.471
 1456POPC   PO422992  24.126  27.756   9.471
 1456POPC   GL122993  23.873  27.569   9.169
 1456POPC   GL222994  23.667  27.841   9.150
 1456POPC   C1A22995  23.859  27.531   8.724
 1456POPC   D2A22996  23.665  27.561   8.343
 1456POPC   C3A22997  23.901  27.499   8.008
 1456POPC   C4A22998  23.734  27.600   7.620
 1456POPC   C1B22999  23.439  27.827   8.765
 1456POPC   C2B23000  23.239  27.900   8.378
 1456POPC   C3B23001  23.338  27.760   7.966
 1456POPC   C4B23002  23.180  27.937   7.598
 1457POPC   NC323003   6.820  12.124   9.370
 1457POPC   PO423004   6.139  11.850   9.599
 1457POPC   GL123005   6.336  11.922   9.141
 1457POPC   GL223006   6.675  11.721   9.073
 1457POPC   C1A23007   6.587  12.103   8.735
 1457POPC   D2A23008   6.512  11.983   8.328
 1457POPC   C3A23009   6.661  12.163   7.945
 1457POPC   C4A23010   6.549  12.013   7.512
 1457POPC   C1B23011   6.922  11.707   8.667
 1457POPC   C2B23012   7.031  11.789   8.204
 1457POPC   C3B23013   7.003  11.845   7.746
 1457POPC   C4B23014   7.032  11.938   7.299
 1458POPC   NC323015  10.680  11.574   9.556
 1458POPC   PO423016  10.768  10.947   9.478
 1458POPC   GL123017  10.661  11.249   9.137
 1458POPC   GL223018  10.878  11.570   9.096
 1458POPC   C1A23019  10.506  11.103   8.725
 1458POPC   D2A23020  10.251  11.242   8.383
 1458POPC   C3A23021  10.344  11.150   7.950
 1458POPC   C4A23022  10.303  10.961   7.529
 1458POPC   C1B23023  10.878  11.434   8.675
 1458POPC   C2B23024  10.738  11.321   8.253
 1458POPC   C3B23025  10.637  11.565   7.891
 1458POPC   C4B23026  10.926  11.664   7.536
 1459POPC   NC323027  32.867  31.252   9.688
 1459POPC   PO423028  32.193  31.549   9.655
 1459POPC   GL123029  32.361  31.635   9.264
 1459POPC   GL223030  32.435  31.325   9.185
 1459POPC   C1A23031  32.342  31.736   8.833
 1459POPC   D2A23032  32.503  31.684   8.398
 1459POPC   C3A23033  32.183  31.730   8.047
 1459POPC   C4A23034  32.194  31.775   7.588
 1459POPC   C1B23035  32.434  31.252   8.735
 1459POPC   C2B23036  32.096  31.384   8.456
 1459POPC   C3B23037  31.958  31.261   8.066
 1459POPC   C4B23038  32.214  31.277   7.715
 1460POPC   NC323039  18.801  34.385   9.872
 1460POPC   PO423040  18.557  34.963   9.518
 1460POPC   GL123041  18.836  34.761   9.183
 1460POPC   GL223042  18.692  34.895   8.910
 1460POPC   C1A23043  19.027  34.550   8.771
 1460POPC   D2A23044  19.195  34.665   8.344
 1460POPC   C3A23045  19.216  34.385   7.985
 1460POPC   C4A23046  19.065  34.216   7.600
 1460POPC   C1B23047  18.810  35.004   8.506
 1460POPC   C2B23048  18.875  34.962   8.069
 1460POPC   C3B23049  19.071  34.783   7.697
 1460POPC   C4B23050  19.245  34.926   7.335
 1461POPC   NC323051  34.779   9.980   9.614
 1461POPC   PO423052  34.466   9.387   9.550
 1461POPC   GL123053  34.569   9.630   9.152
 1461POPC   GL223054  34.753   9.980   9.102
 1461POPC   C1A23055  34.820   9.622   8.756
 1461POPC   D2A23056  34.625   9.659   8.379
 1461POPC   C3A23057  34.672   9.405   8.067
 1461POPC   C4A23058  34.633   9.564   7.671
 1461POPC   C1B23059  34.595  10.086   8.660
 1461POPC   C2B23060  34.602  10.123   8.161
 1461POPC   C3B23061  34.406  10.101   7.700
 1461POPC   C4B23062  34.127  10.096   7.281
 1462POPC   NC323063  40.879  20.277   9.455
 1462POPC   PO423064  40.239  20.433   9.489
 1462POPC   GL123065  40.535  20.623   9.126
 1462POPC   GL223066  40.842  20.813   9.250
 1462POPC   C1A23067  40.654  20.774   8.665
 1462POPC   D2A23068  40.492  20.937   8.241
 1462POPC   C3A23069  40.499  20.772   7.784
 1462POPC   C4A23070  40.350  20.802   7.305
 1462POPC   C1B23071  41.060  20.574   8.911
 1462POPC   C2B23072  41.114  20.527   8.488
 1462POPC   C3B23073  40.932  20.681   8.128
 1462POPC   C4B23074  41.041  20.651   7.737
 1463POPC   NC323075  17.213  37.288   9.653
 1463POPC   PO423076  16.664  37.592   9.514
 1463POPC   GL123077  16.648  37.528   9.091
 1463POPC   GL223078  16.820  37.829   8.970
 1463POPC   C1A23079  16.452  37.645   8.688
 1463POPC   D2A23080  16.688  37.915   8.402
 1463POPC   C3A23081  16.744  37.755   7.989
 1463POPC   C4A23082  16.817  37.769   7.558
 1463POPC   C1B23083  16.993  37.522   8.678
 1463POPC   C2B23084  17.157  37.579   8.252
 1463POPC   C3B23085  17.171  37.483   7.807
 1463POPC   C4B23086  17.105  37.428   7.346
 1464POPC   NC323087   9.105  18.201   9.369
 1464POPC   PO423088   8.566  18.560   9.555
 1464POPC   GL123089   8.738  18.489   9.120
 1464POPC   GL223090   8.912  18.224   8.906
 1464POPC   C1A23091   8.788  18.658   8.698
 1464POPC   D2A23092   9.007  18.420   8.392
 1464POPC   C3A23093   8.810  18.407   7.992
 1464POPC   C4A23094   9.070  18.549   7.634
 1464POPC   C1B23095   9.158  17.943   8.616
 1464POPC   C2B23096   9.192  17.846   8.197
 1464POPC   C3B23097   9.206  18.099   7.880
 1464POPC   C4B23098   9.494  18.377   7.845
 1465POPC   NC323099  10.960  43.000   9.687
 1465POPC   PO423100  11.579  43.079   9.539
 1465POPC   GL123101  11.232  43.050   9.250
 1465POPC   GL223102  11.191  42.689   9.293
 1465POPC   C1A23103  11.269  43.254   8.850
 1465POPC   D2A23104  11.470  43.118   8.486
 1465POPC   C3A23105  11.330  43.279   8.111
 1465POPC   C4A23106  11.548  43.391   7.773
 1465POPC   C1B23107  11.357  42.723   8.849
 1465POPC   C2B23108  11.277  42.635   8.412
 1465POPC   C3B23109  11.255  42.783   7.991
 1465POPC   C4B23110  11.452  42.662   7.574
 1466POPC   NC323111  37.639  31.585   9.658
 1466POPC   PO423112  38.153  31.201   9.321
 1466POPC   GL123113  37.951  31.316   8.989
 1466POPC   GL223114  37.826  31.609   9.148
 1466POPC   C1A23115  37.791  31.295   8.573
 1466POPC   D2A23116  37.504  31.557   8.342
 1466POPC   C3A23117  37.441  31.336   7.961
 1466POPC   C4A23118  37.635  31.466   7.616
 1466POPC   C1B23119  38.004  31.753   8.735
 1466POPC   C2B23120  38.130  31.647   8.370
 1466POPC   C3B23121  37.912  31.601   8.023
 1466POPC   C4B23122  37.964  31.912   7.728
 1467POPC   NC323123  26.576  21.171   9.467
 1467POPC   PO423124  27.003  21.586   9.596
 1467POPC   GL123125  26.886  21.514   9.216
 1467POPC   GL223126  26.627  21.724   9.163
 1467POPC   C1A23127  27.010  21.618   8.821
 1467POPC   D2A23128  27.044  21.491   8.405
 1467POPC   C3A23129  27.050  21.755   8.040
 1467POPC   C4A23130  27.105  21.653   7.611
 1467POPC   C1B23131  26.520  21.688   8.703
 1467POPC   C2B23132  26.566  21.584   8.250
 1467POPC   C3B23133  26.609  21.631   7.787
 1467POPC   C4B23134  26.468  21.766   7.361
 1468POPC   NC323135  38.182  32.185   9.827
 1468POPC   PO423136  38.531  32.124   9.248
 1468POPC   GL123137  38.411  32.044   8.876
 1468POPC   GL223138  38.303  32.371   8.862
 1468POPC   C1A23139  38.468  32.034   8.478
 1468POPC   D2A23140  38.777  32.080   8.194
 1468POPC   C3A23141  38.486  32.038   7.872
 1468POPC   C4A23142  38.223  32.355   7.677
 1468POPC   C1B23143  38.774  32.413   8.699
 1468POPC   C2B23144  39.007  32.546   8.306
 1468POPC   C3B23145  38.846  32.478   7.872
 1468POPC   C4B23146  38.676  32.666   7.512
 1469POPC   NC323147  29.067  30.206   9.512
 1469POPC   PO423148  29.250  30.851   9.630
 1469POPC   GL123149  29.174  30.748   9.182
 1469POPC   GL223150  28.989  30.472   9.093
 1469POPC   C1A23151  29.102  30.802   8.714
 1469POPC   D2A23152  29.094  30.610   8.290
 1469POPC   C3A23153  29.232  30.931   8.018
 1469POPC   C4A23154  29.194  31.031   7.593
 1469POPC   C1B23155  28.973  30.286   8.688
 1469POPC   C2B23156  28.708  30.226   8.308
 1469POPC   C3B23157  28.989  30.182   7.949
 1469POPC   C4B23158  29.212  30.501   7.732
 1470POPC   NC323159  41.203   4.515   9.441
 1470POPC   PO423160  41.818   4.852   9.449
 1470POPC   GL123161  41.890   5.146   9.121
 1470POPC   GL223162  41.592   5.216   8.979
 1470POPC   C1A23163  41.973   5.079   8.710
 1470POPC   D2A23164  41.635   5.135   8.425
 1470POPC   C3A23165  41.817   5.198   8.034
 1470POPC   C4A23166  41.839   5.166   7.581
 1470POPC   C1B23167  41.547   4.802   8.815
 1470POPC   C2B23168  41.459   4.605   8.445
 1470POPC   C3B23169  41.505   4.791   8.056
 1470POPC   C4B23170  41.387   4.969   7.671
 1471POPC   NC323171  12.706  41.625   9.503
 1471POPC   PO423172  13.142  41.129   9.488
 1471POPC   GL123173  13.085  41.399   9.166
 1471POPC   GL223174  13.120  41.744   9.234
 1471POPC   C1A23175  12.825  41.390   8.803
 1471POPC   D2A23176  12.652  41.497   8.436
 1471POPC   C3A23177  12.834  41.337   8.090
 1471POPC   C4A23178  12.668  41.577   7.781
 1471POPC   C1B23179  13.182  41.755   8.818
 1471POPC   C2B23180  13.161  41.609   8.424
 1471POPC   C3B23181  13.036  41.808   8.059
 1471POPC   C4B23182  13.205  41.574   7.775
 1472POPC   NC323183  34.637   9.050   9.277
 1472POPC   PO423184  35.126   9.212   9.742
 1472POPC   GL123185  35.224   9.129   9.283
 1472POPC   GL223186  35.026   9.398   9.188
 1472POPC   C1A23187  35.510   9.075   8.897
 1472POPC   D2A23188  35.579   8.955   8.450
 1472POPC   C3A23189  35.539   9.187   8.057
 1472POPC   C4A23190  35.595   9.005   7.653
 1472POPC   C1B23191  35.032   9.167   8.781
 1472POPC   C2B23192  35.098   9.214   8.346
 1472POPC   C3B23193  35.053   9.015   7.954
 1472POPC   C4B23194  35.109   9.017   7.509
 1473POPC   NC323195  33.567   8.119   9.350
 1473POPC   PO423196  34.190   8.019   9.486
 1473POPC   GL123197  33.965   7.916   9.104
 1473POPC   GL223198  33.890   8.285   9.008
 1473POPC   C1A23199  33.709   7.907   8.735
 1473POPC   D2A23200  33.923   8.164   8.459
 1473POPC   C3A23201  33.744   8.155   8.089
 1473POPC   C4A23202  33.599   8.062   7.688
 1473POPC   C1B23203  33.544   8.414   8.720
 1473POPC   C2B23204  33.487   8.552   8.260
 1473POPC   C3B23205  33.580   8.585   7.772
 1473POPC   C4B23206  33.531   8.689   7.282
 1474POPC   NC323207  33.018  14.116   9.714
 1474POPC   PO423208  33.092  14.741   9.564
 1474POPC   GL123209  33.043  14.449   9.223
 1474POPC   GL223210  32.718  14.367   9.097
 1474POPC   C1A23211  33.202  14.379   8.786
 1474POPC   D2A23212  33.008  14.348   8.350
 1474POPC   C3A23213  33.250  14.473   7.958
 1474POPC   C4A23214  33.272  14.493   7.491
 1474POPC   C1B23215  32.744  14.585   8.728
 1474POPC   C2B23216  32.602  14.682   8.336
 1474POPC   C3B23217  32.744  14.649   7.917
 1474POPC   C4B23218  32.511  14.423   7.576
 1475POPC   NC323219  10.770  16.076   9.529
 1475POPC   PO423220  10.092  15.881   9.512
 1475POPC   GL123221  10.386  15.943   9.153
 1475POPC   GL223222  10.699  15.707   9.180
 1475POPC   C1A23223  10.346  16.087   8.702
 1475POPC   D2A23224  10.529  16.335   8.334
 1475POPC   C3A23225  10.421  16.163   7.941
 1475POPC   C4A23226  10.294  15.746   7.780
 1475POPC   C1B23227  10.811  15.922   8.799
 1475POPC   C2B23228  10.720  15.860   8.352
 1475POPC   C3B23229  10.902  15.942   7.941
 1475POPC   C4B23230  10.973  15.730   7.512
 1476POPC   NC323231  32.085   6.047   9.556
 1476POPC   PO423232  32.562   5.640   9.511
 1476POPC   GL123233  32.423   5.921   9.206
 1476POPC   GL223234  32.071   5.771   9.124
 1476POPC   C1A23235  32.314   6.050   8.809
 1476POPC   D2A23236  32.018   6.035   8.500
 1476POPC   C3A23237  32.176   5.979   8.143
 1476POPC   C4A23238  32.260   5.873   7.765
 1476POPC   C1B23239  32.087   5.544   8.719
 1476POPC   C2B23240  32.158   5.468   8.270
 1476POPC   C3B23241  32.016   5.415   7.856
 1476POPC   C4B23242  31.937   5.630   7.431
 1477POPC   NC323243   6.036   9.518   9.419
 1477POPC   PO423244   5.580   9.788   9.838
 1477POPC   GL123245   5.592   9.772   9.344
 1477POPC   GL223246   5.914   9.939   9.193
 1477POPC   C1A23247   5.561   9.788   8.852
 1477POPC   D2A23248   5.665   9.490   8.550
 1477POPC   C3A23249   5.699   9.536   8.105
 1477POPC   C4A23250   5.596   9.852   7.807
 1477POPC   C1B23251   6.058   9.743   8.775
 1477POPC   C2B23252   5.978   9.896   8.379
 1477POPC   C3B23253   6.086   9.888   7.966
 1477POPC   C4B23254   6.039   9.567   7.692
 1478POPC   NC323255   7.094   2.199   9.470
 1478POPC   PO423256   7.615   1.670   9.448
 1478POPC   GL123257   7.467   1.846   9.058
 1478POPC   GL223258   7.319   2.186   9.025
 1478POPC   C1A23259   7.299   1.899   8.636
 1478POPC   D2A23260   7.569   1.945   8.324
 1478POPC   C3A23261   7.386   1.883   7.970
 1478POPC   C4A23262   7.247   1.495   7.788
 1478POPC   C1B23263   7.715   2.201   8.769
 1478POPC   C2B23264   7.887   2.331   8.383
 1478POPC   C3B23265   7.705   2.351   7.962
 1478POPC   C4B23266   7.760   2.165   7.541
 1479POPC   NC323267  44.354   7.366   9.625
 1479POPC   PO423268  44.960   7.569   9.505
 1479POPC   GL123269  44.736   7.324   9.184
 1479POPC   GL223270  44.423   7.138   9.186
 1479POPC   C1A23271  44.618   7.472   8.795
 1479POPC   D2A23272  44.450   7.666   8.431
 1479POPC   C3A23273  44.721   7.578   8.083
 1479POPC   C4A23274  44.854   7.491   7.676
 1479POPC   C1B23275  44.475   6.980   8.800
 1479POPC   C2B23276  44.566   7.150   8.391
 1479POPC   C3B23277  44.627   7.086   7.966
 1479POPC   C4B23278  44.419   7.248   7.610
 1480POPC   NC323279  32.263  13.496   9.503
 1480POPC   PO423280  31.739  13.820   9.309
 1480POPC   GL123281  32.106  13.691   9.071
 1480POPC   GL223282  32.417  13.909   9.147
 1480POPC   C1A23283  32.084  13.389   8.730
 1480POPC   D2A23284  31.917  13.260   8.326
 1480POPC   C3A23285  32.000  13.549   7.923
 1480POPC   C4A23286  31.986  13.766   7.466
 1480POPC   C1B23287  32.497  13.681   8.728
 1480POPC   C2B23288  32.378  13.664   8.276
 1480POPC   C3B23289  32.571  13.738   7.848
 1480POPC   C4B23290  32.533  13.900   7.426
 1481POPC   NC323291   0.976  35.660   9.529
 1481POPC   PO423292   1.504  35.241   9.397
 1481POPC   GL123293   1.234  35.138   9.093
 1481POPC   GL223294   1.115  35.467   9.078
 1481POPC   C1A23295   1.273  35.115   8.667
 1481POPC   D2A23296   1.389  35.325   8.284
 1481POPC   C3A23297   1.177  35.166   7.932
 1481POPC   C4A23298   1.440  35.193   7.593
 1481POPC   C1B23299   1.239  35.639   8.692
 1481POPC   C2B23300   1.168  35.802   8.271
 1481POPC   C3B23301   1.269  35.663   7.850
 1481POPC   C4B23302   0.991  35.489   7.534
 1482POPC   NC323303  12.621  13.510   9.609
 1482POPC   PO423304  11.986  13.628   9.761
 1482POPC   GL123305  12.017  13.600   9.284
 1482POPC   GL223306  12.361  13.629   9.183
 1482POPC   C1A23307  11.945  13.717   8.824
 1482POPC   D2A23308  11.784  13.574   8.403
 1482POPC   C3A23309  11.940  13.760   8.012
 1482POPC   C4A23310  11.840  13.602   7.581
 1482POPC   C1B23311  12.345  13.413   8.782
 1482POPC   C2B23312  12.296  13.589   8.361
 1482POPC   C3B23313  12.310  13.408   7.933
 1482POPC   C4B23314  12.339  13.583   7.506
 1483POPC   NC323315  33.953  15.760   9.675
 1483POPC   PO423316  33.627  16.222   9.437
 1483POPC   GL123317  33.961  15.938   9.179
 1483POPC   GL223318  34.063  15.554   9.185
 1483POPC   C1A23319  34.055  15.903   8.728
 1483POPC   D2A23320  34.285  15.937   8.336
 1483POPC   C3A23321  33.990  16.017   8.003
 1483POPC   C4A23322  34.064  15.880   7.593
 1483POPC   C1B23323  33.799  15.462   8.822
 1483POPC   C2B23324  33.658  15.685   8.441
 1483POPC   C3B23325  33.670  15.593   7.987
 1483POPC   C4B23326  33.563  15.895   7.687
 1484POPC   NC323327  27.452  35.348   9.449
 1484POPC   PO423328  28.131  35.183   9.624
 1484POPC   GL123329  27.887  35.177   9.197
 1484POPC   GL223330  27.595  35.041   9.027
 1484POPC   C1A23331  27.868  35.363   8.742
 1484POPC   D2A23332  27.810  35.616   8.384
 1484POPC   C3A23333  27.931  35.443   7.979
 1484POPC   C4A23334  27.904  35.692   7.644
 1484POPC   C1B23335  27.651  34.911   8.558
 1484POPC   C2B23336  27.559  35.094   8.114
 1484POPC   C3B23337  27.257  35.116   7.728
 1484POPC   C4B23338  27.303  34.979   7.270
 1485POPC   NC323339  30.165  14.880   9.514
 1485POPC   PO423340  29.758  15.445   9.540
 1485POPC   GL123341  29.979  15.259   9.226
 1485POPC   GL223342  29.784  14.943   9.158
 1485POPC   C1A23343  30.172  15.169   8.847
 1485POPC   D2A23344  29.935  14.987   8.539
 1485POPC   C3A23345  30.048  15.133   8.159
 1485POPC   C4A23346  29.917  14.963   7.794
 1485POPC   C1B23347  29.571  15.222   8.876
 1485POPC   C2B23348  29.614  15.387   8.473
 1485POPC   C3B23349  29.544  15.306   8.064
 1485POPC   C4B23350  29.494  15.210   7.665
 1486POPC   NC323351   6.273  15.815   9.791
 1486POPC   PO423352   6.873  16.077   9.499
 1486POPC   GL123353   6.622  16.084   9.141
 1486POPC   GL223354   6.760  15.784   9.010
 1486POPC   C1A23355   6.640  16.205   8.707
 1486POPC   D2A23356   6.559  16.033   8.274
 1486POPC   C3A23357   6.806  16.138   7.909
 1486POPC   C4A23358   6.592  16.114   7.502
 1486POPC   C1B23359   6.461  15.715   8.657
 1486POPC   C2B23360   6.502  15.506   8.258
 1486POPC   C3B23361   6.547  15.685   7.843
 1486POPC   C4B23362   6.561  15.589   7.404
 1487POPC   NC323363  27.243  33.620   9.427
 1487POPC   PO423364  27.906  33.618   9.544
 1487POPC   GL123365  27.664  33.768   9.155
 1487POPC   GL223366  27.351  33.645   8.948
 1487POPC   C1A23367  27.792  33.959   8.770
 1487POPC   D2A23368  28.014  33.747   8.464
 1487POPC   C3A23369  27.858  33.848   8.082
 1487POPC   C4A23370  27.766  33.603   7.745
 1487POPC   C1B23371  27.281  33.980   8.669
 1487POPC   C2B23372  27.441  34.096   8.272
 1487POPC   C3B23373  27.210  34.169   7.910
 1487POPC   C4B23374  27.266  34.144   7.471
 1488POPC   NC323375  42.577  43.390   9.505
 1488POPC   PO423376  41.946  43.131   9.513
 1488POPC   GL123377  42.168  43.067   9.125
 1488POPC   GL223378  42.479  42.850   9.094
 1488POPC   C1A23379  42.326  43.195   8.707
 1488POPC   D2A23380  42.161  43.318   8.287
 1488POPC   C3A23381  42.485  43.361   7.961
 1488POPC   C4A23382  42.514  43.665   7.631
 1488POPC   C1B23383  42.220  42.687   8.782
 1488POPC   C2B23384  42.155  42.807   8.337
 1488POPC   C3B23385  42.297  42.867   7.888
 1488POPC   C4B23386  42.399  42.730   7.431
 1489POPC   NC323387  25.429  14.229   9.443
 1489POPC   PO423388  25.028  14.723   9.441
 1489POPC   GL123389  25.012  14.457   9.076
 1489POPC   GL223390  25.116  14.106   9.037
 1489POPC   C1A23391  25.225  14.449   8.673
 1489POPC   D2A23392  25.356  14.451   8.246
 1489POPC   C3A23393  25.257  14.536   7.802
 1489POPC   C4A23394  25.479  14.723   7.425
 1489POPC   C1B23395  25.533  14.031   8.791
 1489POPC   C2B23396  25.691  14.084   8.347
 1489POPC   C3B23397  25.455  14.038   7.961
 1489POPC   C4B23398  24.991  14.088   7.915
 1490POPC   NC323399   1.362  19.281   9.453
 1490POPC   PO423400   1.017  18.639   9.480
 1490POPC   GL123401   1.214  18.672   9.058
 1490POPC   GL223402   1.517  18.914   9.117
 1490POPC   C1A23403   1.312  18.832   8.654
 1490POPC   D2A23404   1.075  19.088   8.412
 1490POPC   C3A23405   1.133  18.943   8.030
 1490POPC   C4A23406   0.905  18.831   7.690
 1490POPC   C1B23407   1.493  19.302   8.816
 1490POPC   C2B23408   1.567  19.259   8.385
 1490POPC   C3B23409   1.430  19.366   7.986
 1490POPC   C4B23410   1.387  19.097   7.622
 1491POPC   NC323411   5.516  17.616   9.685
 1491POPC   PO423412   6.230  17.783   9.758
 1491POPC   GL123413   6.021  17.514   9.253
 1491POPC   GL223414   5.921  17.206   9.307
 1491POPC   C1A23415   5.932  17.739   8.825
 1491POPC   D2A23416   6.074  17.753   8.422
 1491POPC   C3A23417   5.790  17.661   8.109
 1491POPC   C4A23418   5.871  17.464   7.761
 1491POPC   C1B23419   5.802  17.262   8.871
 1491POPC   C2B23420   5.876  17.278   8.472
 1491POPC   C3B23421   5.733  17.116   8.101
 1491POPC   C4B23422   5.693  16.986   7.699
 1492POPC   NC323423   1.984  37.173   9.457
 1492POPC   PO423424   2.240  36.678   9.723
 1492POPC   GL123425   2.111  36.737   9.258
 1492POPC   GL223426   1.855  36.538   9.108
 1492POPC   C1A23427   2.225  36.972   8.847
 1492POPC   D2A23428   2.319  37.000   8.378
 1492POPC   C3A23429   2.011  36.829   8.060
 1492POPC   C4A23430   2.084  36.753   7.598
 1492POPC   C1B23431   1.857  36.663   8.675
 1492POPC   C2B23432   1.692  37.031   8.453
 1492POPC   C3B23433   1.589  37.134   8.024
 1492POPC   C4B23434   1.866  37.281   7.686
 1493POPC   NC323435   8.525  19.835   9.580
 1493POPC   PO423436   9.052  20.063   9.843
 1493POPC   GL123437   8.971  19.984   9.352
 1493POPC   GL223438   9.256  20.114   9.168
 1493POPC   C1A23439   8.860  19.781   8.907
 1493POPC   D2A23440   8.991  19.656   8.443
 1493POPC   C3A23441   8.790  19.722   8.049
 1493POPC   C4A23442   8.924  19.529   7.688
 1493POPC   C1B23443   9.101  20.215   8.764
 1493POPC   C2B23444   9.181  20.347   8.358
 1493POPC   C3B23445   9.317  20.221   7.971
 1493POPC   C4B23446   9.041  20.022   7.688
 1494POPC   NC323447   0.503  31.709   9.479
 1494POPC   PO423448   0.152  31.129   9.302
 1494POPC   GL123449   0.541  31.333   9.124
 1494POPC   GL223450   0.767  31.652   9.038
 1494POPC   C1A23451   0.457  31.329   8.726
 1494POPC   D2A23452   0.187  31.368   8.416
 1494POPC   C3A23453   0.419  31.537   8.130
 1494POPC   C4A23454   0.311  31.460   7.729
 1494POPC   C1B23455   0.882  31.545   8.587
 1494POPC   C2B23456   0.751  31.152   8.345
 1494POPC   C3B23457   0.744  31.211   7.924
 1494POPC   C4B23458   0.810  31.627   7.719
 1495POPC   NC323459  30.439   6.060   9.463
 1495POPC   PO423460  30.977   5.543   9.444
 1495POPC   GL123461  30.743   5.822   9.124
 1495POPC   GL223462  30.392   5.782   9.054
 1495POPC   C1A23463  30.901   6.077   8.757
 1495POPC   D2A23464  30.793   6.159   8.327
 1495POPC   C3A23465  30.722   5.771   8.083
 1495POPC   C4A23466  30.734   5.757   7.655
 1495POPC   C1B23467  30.409   6.070   8.758
 1495POPC   C2B23468  30.299   6.011   8.378
 1495POPC   C3B23469  30.363   6.110   7.979
 1495POPC   C4B23470  30.283   6.021   7.531
 1496POPC   NC323471  16.743   7.789   9.285
 1496POPC   PO423472  16.528   7.184   9.359
 1496POPC   GL123473  16.719   7.341   9.013
 1496POPC   GL223474  17.027   7.489   8.993
 1496POPC   C1A23475  16.746   7.391   8.583
 1496POPC   D2A23476  16.406   7.297   8.325
 1496POPC   C3A23477  16.605   7.194   7.958
 1496POPC   C4A23478  16.805   7.220   7.582
 1496POPC   C1B23479  17.138   7.759   8.611
 1496POPC   C2B23480  16.839   7.984   8.308
 1496POPC   C3B23481  16.773   7.777   7.930
 1496POPC   C4B23482  17.116   7.500   7.858
 1497POPC   NC323483  26.719   1.235   9.567
 1497POPC   PO423484  26.532   0.580   9.683
 1497POPC   GL123485  26.772   0.868   9.241
 1497POPC   GL223486  26.842   1.270   9.096
 1497POPC   C1A23487  26.985   0.899   8.818
 1497POPC   D2A23488  27.205   1.158   8.518
 1497POPC   C3A23489  27.075   1.157   8.109
 1497POPC   C4A23490  26.938   1.414   7.792
 1497POPC   C1B23491  26.607   1.242   8.725
 1497POPC   C2B23492  26.565   1.049   8.332
 1497POPC   C3B23493  26.499   1.207   7.921
 1497POPC   C4B23494  26.475   1.499   7.570
 1498POPC   NC323495   4.342  34.836   9.518
 1498POPC   PO423496   4.060  34.298   9.387
 1498POPC   GL123497   4.256  34.376   9.025
 1498POPC   GL223498   4.500  34.598   9.110
 1498POPC   C1A23499   4.300  34.290   8.582
 1498POPC   D2A23500   4.105  34.426   8.207
 1498POPC   C3A23501   4.366  34.385   7.863
 1498POPC   C4A23502   4.266  34.348   7.443
 1498POPC   C1B23503   4.659  34.637   8.754
 1498POPC   C2B23504   4.520  34.713   8.364
 1498POPC   C3B23505   4.522  34.855   7.980
 1498POPC   C4B23506   4.318  34.838   7.559
 1499POPC   NC323507  28.424  23.222   9.501
 1499POPC   PO423508  28.279  22.517   9.612
 1499POPC   GL123509  28.305  22.790   9.264
 1499POPC   GL223510  28.063  22.625   9.085
 1499POPC   C1A23511  28.284  23.079   8.865
 1499POPC   D2A23512  28.406  22.975   8.408
 1499POPC   C3A23513  28.371  23.128   7.973
 1499POPC   C4A23514  28.308  23.018   7.524
 1499POPC   C1B23515  28.439  22.616   8.810
 1499POPC   C2B23516  28.447  22.450   8.422
 1499POPC   C3B23517  28.487  22.613   8.029
 1499POPC   C4B23518  28.268  22.379   7.740
 1500POPC   NC323519  25.558  25.682   9.657
 1500POPC   PO423520  25.096  26.122   9.421
 1500POPC   GL123521  25.329  25.993   9.111
 1500POPC   GL223522  25.634  25.885   9.195
 1500POPC   C1A23523  25.273  25.900   8.702
 1500POPC   D2A23524  25.261  26.089   8.317
 1500POPC   C3A23525  25.291  25.912   7.941
 1500POPC   C4A23526  25.057  25.860   7.613
 1500POPC   C1B23527  25.769  26.067   8.816
 1500POPC   C2B23528  25.761  26.245   8.400
 1500POPC   C3B23529  25.765  26.035   8.016
 1500POPC   C4B23530  25.705  26.140   7.594
 1501POPC   NC323531  35.268   7.740   9.453
 1501POPC   PO423532  35.622   7.184   9.476
 1501POPC   GL123533  35.382   7.354   9.088
 1501POPC   GL223534  35.006   7.270   8.997
 1501POPC   C1A23535  35.533   7.401   8.673
 1501POPC   D2A23536  35.352   7.435   8.305
 1501POPC   C3A23537  35.502   7.690   8.010
 1501POPC   C4A23538  35.594   7.337   7.793
 1501POPC   C1B23539  35.100   7.659   8.796
 1501POPC   C2B23540  34.992   7.792   8.418
 1501POPC   C3B23541  34.987   7.638   7.995
 1501POPC   C4B23542  35.005   7.250   7.764
 1502POPC   NC323543  16.398  44.957   9.522
 1502POPC   PO423544  15.903   0.411   9.434
 1502POPC   GL123545  16.167   0.298   9.103
 1502POPC   GL223546  16.395   0.568   9.002
 1502POPC   C1A23547  16.051   0.434   8.663
 1502POPC   D2A23548  16.292   0.559   8.299
 1502POPC   C3A23549  16.201   0.342   7.926
 1502POPC   C4A23550  15.898   0.139   7.671
 1502POPC   C1B23551  16.333   0.930   8.687
 1502POPC   C2B23552  16.342   1.065   8.222
 1502POPC   C3B23553  16.259   0.824   7.823
 1502POPC   C4B23554  15.855   0.646   7.704
 1503POPC   NC323555  31.268  34.415   9.594
 1503POPC   PO423556  31.890  34.326   9.289
 1503POPC   GL123557  31.598  34.539   9.063
 1503POPC   GL223558  31.225  34.618   9.114
 1503POPC   C1A23559  31.696  34.496   8.617
 1503POPC   D2A23560  31.454  34.519   8.264
 1503POPC   C3A23561  31.626  34.388   7.858
 1503POPC   C4A23562  31.583  34.492   7.423
 1503POPC   C1B23563  31.288  34.790   8.718
 1503POPC   C2B23564  31.130  34.918   8.293
 1503POPC   C3B23565  31.192  34.708   7.870
 1503POPC   C4B23566  31.197  34.827   7.420
 1504POPC   NC323567  31.611   8.267   9.577
 1504POPC   PO423568  31.734   8.809   9.216
 1504POPC   GL123569  31.559   8.393   9.082
 1504POPC   GL223570  31.758   8.062   9.120
 1504POPC   C1A23571  31.337   8.187   8.720
 1504POPC   D2A23572  31.175   8.248   8.284
 1504POPC   C3A23573  31.376   8.095   7.883
 1504POPC   C4A23574  31.410   8.236   7.440
 1504POPC   C1B23575  31.858   8.258   8.684
 1504POPC   C2B23576  31.644   8.493   8.317
 1504POPC   C3B23577  31.676   8.509   7.850
 1504POPC   C4B23578  31.889   8.198   7.632
 1505POPC   NC323579  44.708  43.709   9.715
 1505POPC   PO423580  44.114  43.894   9.730
 1505POPC   GL123581  44.423  43.881   9.329
 1505POPC   GL223582  44.747  43.652   9.226
 1505POPC   C1A23583  44.625  44.041   8.924
 1505POPC   D2A23584  44.544  44.189   8.499
 1505POPC   C3A23585  44.785  43.993   8.156
 1505POPC   C4A23586  44.785  44.122   7.730
 1505POPC   C1B23587  44.422  43.559   8.937
 1505POPC   C2B23588  44.500  43.663   8.529
 1505POPC   C3B23589  44.370  43.696   8.128
 1505POPC   C4B23590  44.549  43.691   7.726
 1506POPC   NC323591  37.503   8.354   9.480
 1506POPC   PO423592  38.153   8.548   9.481
 1506POPC   GL123593  37.886   8.406   9.151
 1506POPC   GL223594  37.799   8.027   9.223
 1506POPC   C1A23595  37.763   8.523   8.734
 1506POPC   D2A23596  38.016   8.520   8.382
 1506POPC   C3A23597  37.791   8.348   8.096
 1506POPC   C4A23598  37.411   8.337   7.912
 1506POPC   C1B23599  37.530   8.071   8.853
 1506POPC   C2B23600  37.488   8.110   8.422
 1506POPC   C3B23601  37.582   7.874   8.026
 1506POPC   C4B23602  37.587   7.939   7.579
 1507POPC   NC323603  14.163  34.774   9.717
 1507POPC   PO423604  14.101  34.081   9.630
 1507POPC   GL123605  14.181  34.449   9.313
 1507POPC   GL223606  14.550  34.556   9.294
 1507POPC   C1A23607  14.208  34.678   8.914
 1507POPC   D2A23608  13.970  34.686   8.527
 1507POPC   C3A23609  14.215  34.753   8.151
 1507POPC   C4A23610  14.178  34.769   7.712
 1507POPC   C1B23611  14.737  34.720   8.884
 1507POPC   C2B23612  14.814  34.837   8.454
 1507POPC   C3B23613  14.737  34.631   8.080
 1507POPC   C4B23614  14.684  34.644   7.656
 1508POPC   NC323615   9.933  19.005   9.490
 1508POPC   PO423616   9.340  18.591   9.475
 1508POPC   GL123617   9.579  18.739   9.181
 1508POPC   GL223618   9.492  19.094   9.233
 1508POPC   C1A23619   9.856  18.838   8.843
 1508POPC   D2A23620   9.882  19.123   8.501
 1508POPC   C3A23621   9.921  18.925   8.152
 1508POPC   C4A23622  10.170  19.044   7.858
 1508POPC   C1B23623   9.585  19.310   8.862
 1508POPC   C2B23624   9.441  19.363   8.436
 1508POPC   C3B23625   9.612  19.308   8.027
 1508POPC   C4B23626   9.411  19.357   7.647
 1509POPC   NC323627  14.999  37.839   9.447
 1509POPC   PO423628  15.050  38.584   9.460
 1509POPC   GL123629  15.325  38.528   9.142
 1509POPC   GL223630  15.260  38.182   9.168
 1509POPC   C1A23631  15.254  38.558   8.705
 1509POPC   D2A23632  15.127  38.333   8.349
 1509POPC   C3A23633  15.237  38.501   7.966
 1509POPC   C4A23634  15.050  38.681   7.602
 1509POPC   C1B23635  15.094  38.032   8.788
 1509POPC   C2B23636  14.862  37.909   8.442
 1509POPC   C3B23637  15.110  37.875   8.104
 1509POPC   C4B23638  15.302  37.990   7.739
 1510POPC   NC323639  27.547  12.467   9.431
 1510POPC   PO423640  27.784  13.088   9.562
 1510POPC   GL123641  27.657  12.901   9.181
 1510POPC   GL223642  27.291  12.828   9.138
 1510POPC   C1A23643  27.856  12.873   8.794
 1510POPC   D2A23644  27.827  12.655   8.403
 1510POPC   C3A23645  27.523  12.915   8.161
 1510POPC   C4A23646  27.628  13.189   7.807
 1510POPC   C1B23647  27.470  12.537   8.808
 1510POPC   C2B23648  27.410  12.340   8.439
 1510POPC   C3B23649  27.543  12.421   8.043
 1510POPC   C4B23650  27.500  12.712   7.684
 1511POPC   NC323651  13.449  37.357   9.540
 1511POPC   PO423652  13.741  37.837   9.820
 1511POPC   GL123653  13.751  37.708   9.275
 1511POPC   GL223654  13.512  37.527   9.068
 1511POPC   C1A23655  13.851  37.836   8.812
 1511POPC   D2A23656  13.747  38.036   8.380
 1511POPC   C3A23657  14.018  37.925   8.062
 1511POPC   C4A23658  14.005  37.647   7.712
 1511POPC   C1B23659  13.595  37.365   8.671
 1511POPC   C2B23660  13.790  37.532   8.326
 1511POPC   C3B23661  13.575  37.671   7.985
 1511POPC   C4B23662  13.556  37.398   7.656
 1512POPC   NC323663  19.843  23.154   9.576
 1512POPC   PO423664  19.414  22.865   9.350
 1512POPC   GL123665  19.671  23.169   9.095
 1512POPC   GL223666  20.005  23.038   9.108
 1512POPC   C1A23667  19.915  23.358   8.740
 1512POPC   D2A23668  19.823  23.187   8.344
 1512POPC   C3A23669  20.024  23.203   7.935
 1512POPC   C4A23670  20.035  23.231   7.471
 1512POPC   C1B23671  19.915  22.810   8.697
 1512POPC   C2B23672  19.966  22.722   8.211
 1512POPC   C3B23673  19.847  22.755   7.749
 1512POPC   C4B23674  19.886  22.501   7.369
 1513POPC   NC323675  44.651  34.305   9.487
 1513POPC   PO423676  44.594  34.998   9.382
 1513POPC   GL123677  44.664  34.651   9.089
 1513POPC   GL223678  44.440  34.375   9.013
 1513POPC   C1A23679  44.775  34.528   8.650
 1513POPC   D2A23680   0.009  34.738   8.317
 1513POPC   C3A23681  44.742  34.702   7.955
 1513POPC   C4A23682  44.864  34.384   7.655
 1513POPC   C1B23683  44.323  34.780   8.750
 1513POPC   C2B23684  44.321  35.016   8.369
 1513POPC   C3B23685  44.230  34.810   7.981
 1513POPC   C4B23686  44.359  34.691   7.577
 1514POPC   NC323687  40.686  11.715   9.427
 1514POPC   PO423688  40.947  12.284   9.680
 1514POPC   GL123689  40.934  12.120   9.224
 1514POPC   GL223690  40.589  12.130   9.115
 1514POPC   C1A23691  40.901  11.987   8.743
 1514POPC   D2A23692  40.731  11.898   8.301
 1514POPC   C3A23693  40.979  12.052   7.927
 1514POPC   C4A23694  41.082  12.274   7.525
 1514POPC   C1B23695  40.313  12.102   8.745
 1514POPC   C2B23696  40.188  11.847   8.363
 1514POPC   C3B23697  40.367  11.832   7.947
 1514POPC   C4B23698  40.500  12.233   7.898
 1515POPC   NC323699  26.982  26.733   9.614
 1515POPC   PO423700  26.527  27.099   9.280
 1515POPC   GL123701  26.723  26.894   9.077
 1515POPC   GL223702  27.033  27.020   9.163
 1515POPC   C1A23703  26.556  26.759   8.703
 1515POPC   D2A23704  26.747  26.633   8.359
 1515POPC   C3A23705  26.638  26.538   7.966
 1515POPC   C4A23706  26.844  26.896   7.780
 1515POPC   C1B23707  27.100  26.791   8.751
 1515POPC   C2B23708  27.186  26.426   8.475
 1515POPC   C3B23709  27.141  26.511   8.039
 1515POPC   C4B23710  27.037  26.408   7.604
 1516POPC   NC323711  18.836  42.862   9.660
 1516POPC   PO423712  19.339  42.441   9.458
 1516POPC   GL123713  19.193  42.294   9.069
 1516POPC   GL223714  18.819  42.273   9.055
 1516POPC   C1A23715  19.150  42.257   8.663
 1516POPC   D2A23716  18.856  42.334   8.365
 1516POPC   C3A23717  19.158  42.310   8.065
 1516POPC   C4A23718  19.189  42.078   7.737
 1516POPC   C1B23719  18.797  42.646   8.783
 1516POPC   C2B23720  18.822  42.903   8.439
 1516POPC   C3B23721  18.901  42.748   8.063
 1516POPC   C4B23722  18.892  42.533   7.684
 1517POPC   NC323723   4.996  33.562   9.731
 1517POPC   PO423724   5.004  34.176   9.470
 1517POPC   GL123725   4.871  33.821   9.253
 1517POPC   GL223726   5.195  33.661   9.237
 1517POPC   C1A23727   4.941  33.909   8.818
 1517POPC   D2A23728   5.119  33.842   8.407
 1517POPC   C3A23729   4.914  33.553   8.131
 1517POPC   C4A23730   4.865  33.650   7.704
 1517POPC   C1B23731   5.242  33.503   8.792
 1517POPC   C2B23732   5.365  33.381   8.350
 1517POPC   C3B23733   5.443  33.680   7.992
 1517POPC   C4B23734   5.401  33.725   7.523
 1518POPC   NC323735   4.587  39.334   9.508
 1518POPC   PO423736   4.160  38.857   9.549
 1518POPC   GL123737   4.311  39.040   9.185
 1518POPC   GL223738   4.133  39.353   9.183
 1518POPC   C1A23739   4.322  39.152   8.745
 1518POPC   D2A23740   4.386  38.966   8.376
 1518POPC   C3A23741   4.394  39.280   8.079
 1518POPC   C4A23742   4.336  39.077   7.727
 1518POPC   C1B23743   3.843  39.319   8.796
 1518POPC   C2B23744   3.995  39.379   8.390
 1518POPC   C3B23745   3.872  39.289   7.989
 1518POPC   C4B23746   3.955  39.347   7.548
 1519POPC   NC323747  30.926  15.528   9.524
 1519POPC   PO423748  30.596  14.920   9.369
 1519POPC   GL123749  30.722  15.234   9.134
 1519POPC   GL223750  30.481  15.501   9.249
 1519POPC   C1A23751  30.932  15.167   8.739
 1519POPC   D2A23752  30.907  14.852   8.406
 1519POPC   C3A23753  30.776  15.101   8.081
 1519POPC   C4A23754  30.827  15.077   7.667
 1519POPC   C1B23755  30.520  15.581   8.812
 1519POPC   C2B23756  30.520  15.350   8.455
 1519POPC   C3B23757  30.441  15.488   8.054
 1519POPC   C4B23758  30.358  15.224   7.741
 1520POPC   NC323759  13.121   4.114   9.519
 1520POPC   PO423760  12.640   3.778   9.220
 1520POPC   GL123761  12.907   4.115   9.025
 1520POPC   GL223762  13.253   4.202   9.036
 1520POPC   C1A23763  12.996   4.426   8.664
 1520POPC   D2A23764  13.181   4.439   8.231
 1520POPC   C3A23765  12.900   4.235   7.941
 1520POPC   C4A23766  12.474   4.128   7.809
 1520POPC   C1B23767  13.408   4.131   8.587
 1520POPC   C2B23768  13.279   3.936   8.171
 1520POPC   C3B23769  13.286   3.988   7.725
 1520POPC   C4B23770  13.251   4.387   7.559
 1521POPC   NC323771   4.839  21.456   9.563
 1521POPC   PO423772   5.400  21.204   9.508
 1521POPC   GL123773   5.119  21.190   9.185
 1521POPC   GL223774   5.093  21.555   9.128
 1521POPC   C1A23775   5.267  21.089   8.766
 1521POPC   D2A23776   5.405  21.105   8.351
 1521POPC   C3A23777   5.162  21.124   7.969
 1521POPC   C4A23778   5.020  21.366   7.598
 1521POPC   C1B23779   4.870  21.392   8.783
 1521POPC   C2B23780   4.897  21.328   8.367
 1521POPC   C3B23781   4.879  21.631   8.059
 1521POPC   C4B23782   4.651  21.734   7.682
 1522POPC   NC323783   6.973   6.172   9.702
 1522POPC   PO423784   6.903   5.624   9.414
 1522POPC   GL123785   7.181   5.813   9.170
 1522POPC   GL223786   7.097   6.184   9.191
 1522POPC   C1A23787   7.385   5.624   8.813
 1522POPC   D2A23788   7.259   5.716   8.406
 1522POPC   C3A23789   7.524   5.717   8.046
 1522POPC   C4A23790   7.179   5.775   7.803
 1522POPC   C1B23791   7.021   6.082   8.740
 1522POPC   C2B23792   7.154   6.218   8.317
 1522POPC   C3B23793   7.242   6.325   7.904
 1522POPC   C4B23794   7.522   6.135   7.605
 1523POPC   NC323795   2.813   6.151   9.339
 1523POPC   PO423796   2.614   6.879   9.492
 1523POPC   GL123797   2.840   6.676   9.197
 1523POPC   GL223798   2.581   6.486   9.052
 1523POPC   C1A23799   2.861   6.790   8.760
 1523POPC   D2A23800   2.590   6.680   8.423
 1523POPC   C3A23801   2.719   6.853   8.048
 1523POPC   C4A23802   2.915   6.641   7.720
 1523POPC   C1B23803   2.322   6.353   8.724
 1523POPC   C2B23804   2.259   6.274   8.327
 1523POPC   C3B23805   2.501   6.397   7.997
 1523POPC   C4B23806   2.580   6.236   7.647
 1524POPC   NC323807  42.963  34.903   9.416
 1524POPC   PO423808  43.031  35.629   9.573
 1524POPC   GL123809  43.092  35.368   9.208
 1524POPC   GL223810  43.383  35.223   9.212
 1524POPC   C1A23811  43.033  35.426   8.760
 1524POPC   D2A23812  42.907  35.284   8.355
 1524POPC   C3A23813  43.021  35.514   7.954
 1524POPC   C4A23814  42.806  35.542   7.563
 1524POPC   C1B23815  43.328  34.938   8.870
 1524POPC   C2B23816  43.409  34.979   8.432
 1524POPC   C3B23817  43.214  35.023   8.046
 1524POPC   C4B23818  43.250  35.072   7.629
 1525POPC   NC323819  26.203  31.598   9.340
 1525POPC   PO423820  26.352  30.978   9.522
 1525POPC   GL123821  26.331  31.165   9.079
 1525POPC   GL223822  25.981  31.188   9.077
 1525POPC   C1A23823  26.161  31.403   8.661
 1525POPC   D2A23824  26.172  31.799   8.397
 1525POPC   C3A23825  26.101  31.658   7.977
 1525POPC   C4A23826  26.366  31.376   7.703
 1525POPC   C1B23827  25.643  31.184   8.794
 1525POPC   C2B23828  25.610  31.406   8.424
 1525POPC   C3B23829  25.712  31.312   7.984
 1525POPC   C4B23830  25.874  31.449   7.561
 1526POPC   NC323831  13.168  13.869   9.492
 1526POPC   PO423832  12.977  13.230   9.693
 1526POPC   GL123833  12.844  13.372   9.181
 1526POPC   GL223834  12.866  13.722   9.130
 1526POPC   C1A23835  12.813  13.533   8.686
 1526POPC   D2A23836  12.766  13.739   8.291
 1526POPC   C3A23837  12.634  13.794   7.857
 1526POPC   C4A23838  12.835  13.588   7.480
 1526POPC   C1B23839  13.171  13.867   8.797
 1526POPC   C2B23840  13.146  14.043   8.379
 1526POPC   C3B23841  13.133  13.819   7.949
 1526POPC   C4B23842  13.056  14.029   7.573
 1527POPC   NC323843   4.055  12.393   9.577
 1527POPC   PO423844   4.585  11.992   9.378
 1527POPC   GL123845   4.293  11.930   9.090
 1527POPC   GL223846   4.272  12.298   9.111
 1527POPC   C1A23847   4.098  11.778   8.742
 1527POPC   D2A23848   4.308  11.837   8.383
 1527POPC   C3A23849   4.155  11.920   8.002
 1527POPC   C4A23850   4.526  11.933   7.757
 1527POPC   C1B23851   4.362  12.240   8.683
 1527POPC   C2B23852   4.224  12.410   8.276
 1527POPC   C3B23853   4.366  12.422   7.855
 1527POPC   C4B23854   4.304  12.610   7.455
 1528POPC   NC323855  38.762  25.620   9.424
 1528POPC   PO423856  38.531  25.057   9.532
 1528POPC   GL123857  38.461  25.190   9.133
 1528POPC   GL223858  38.124  25.150   9.137
 1528POPC   C1A23859  38.593  25.415   8.786
 1528POPC   D2A23860  38.459  25.535   8.365
 1528POPC   C3A23861  38.620  25.302   8.054
 1528POPC   C4A23862  38.783  25.297   7.677
 1528POPC   C1B23863  38.103  25.312   8.749
 1528POPC   C2B23864  38.087  25.175   8.370
 1528POPC   C3B23865  38.110  25.361   7.983
 1528POPC   C4B23866  38.273  25.124   7.654
 1529POPC   NC323867  18.805  37.037   9.451
 1529POPC   PO423868  18.238  36.610   9.423
 1529POPC   GL123869  18.438  36.724   9.102
 1529POPC   GL223870  18.417  37.061   9.147
 1529POPC   C1A23871  18.149  36.833   8.785
 1529POPC   D2A23872  18.239  36.815   8.412
 1529POPC   C3A23873  18.337  36.874   8.043
 1529POPC   C4A23874  18.322  36.628   7.763
 1529POPC   C1B23875  18.394  37.284   8.769
 1529POPC   C2B23876  18.183  37.328   8.379
 1529POPC   C3B23877  18.325  37.369   7.952
 1529POPC   C4B23878  18.184  37.341   7.522
 1530POPC   NC323879  18.858  27.918   9.513
 1530POPC   PO423880  18.273  27.680   9.467
 1530POPC   GL123881  18.286  27.470   9.104
 1530POPC   GL223882  18.604  27.658   9.060
 1530POPC   C1A23883  18.137  27.197   8.772
 1530POPC   D2A23884  18.110  27.504   8.428
 1530POPC   C3A23885  18.223  27.423   8.020
 1530POPC   C4A23886  18.213  27.526   7.623
 1530POPC   C1B23887  18.568  27.428   8.666
 1530POPC   C2B23888  18.702  27.460   8.247
 1530POPC   C3B23889  18.711  27.599   7.811
 1530POPC   C4B23890  18.673  27.498   7.365
 1531POPC   NC323891   1.233   3.721   9.553
 1531POPC   PO423892   0.606   3.532   9.545
 1531POPC   GL123893   0.915   3.502   9.228
 1531POPC   GL223894   0.905   3.219   9.122
 1531POPC   C1A23895   1.211   3.648   8.886
 1531POPC   D2A23896   1.157   3.868   8.492
 1531POPC   C3A23897   1.382   3.872   8.076
 1531POPC   C4A23898   1.477   3.696   7.643
 1531POPC   C1B23899   1.080   3.168   8.756
 1531POPC   C2B23900   1.305   3.349   8.442
 1531POPC   C3B23901   1.292   3.377   8.024
 1531POPC   C4B23902   1.413   3.187   7.690
 1532POPC   NC323903   3.042   7.106   9.464
 1532POPC   PO423904   3.034   7.786   9.453
 1532POPC   GL123905   2.757   7.513   9.219
 1532POPC   GL223906   3.023   7.439   9.041
 1532POPC   C1A23907   2.639   7.298   8.779
 1532POPC   D2A23908   2.821   7.286   8.373
 1532POPC   C3A23909   2.560   7.339   8.010
 1532POPC   C4A23910   2.737   7.155   7.624
 1532POPC   C1B23911   3.014   7.722   8.674
 1532POPC   C2B23912   2.958   7.783   8.238
 1532POPC   C3B23913   2.986   7.569   7.835
 1532POPC   C4B23914   2.897   7.640   7.400
 1533POPC   NC323915   6.619  21.127   9.632
 1533POPC   PO423916   6.258  21.718   9.471
 1533POPC   GL123917   6.396  21.337   9.152
 1533POPC   GL223918   6.751  21.221   9.165
 1533POPC   C1A23919   6.563  21.360   8.716
 1533POPC   D2A23920   6.393  21.123   8.414
 1533POPC   C3A23921   6.249  21.373   8.093
 1533POPC   C4A23922   6.466  21.191   7.784
 1533POPC   C1B23923   7.066  21.201   8.850
 1533POPC   C2B23924   7.157  21.285   8.420
 1533POPC   C3B23925   6.825  21.349   8.132
 1533POPC   C4B23926   6.720  21.669   7.830
 1534POPC   NC323927  27.857  18.837   9.407
 1534POPC   PO423928  27.840  18.184   9.540
 1534POPC   GL123929  27.949  18.358   9.153
 1534POPC   GL223930  27.589  18.323   9.063
 1534POPC   C1A23931  27.959  18.245   8.706
 1534POPC   D2A23932  27.596  18.222   8.407
 1534POPC   C3A23933  27.716  18.044   8.004
 1534POPC   C4A23934  28.113  18.085   7.800
 1534POPC   C1B23935  27.682  18.661   8.761
 1534POPC   C2B23936  27.694  18.712   8.299
 1534POPC   C3B23937  27.810  18.543   7.904
 1534POPC   C4B23938  27.751  18.730   7.485
 1535POPC   NC323939  20.820   0.208   9.562
 1535POPC   PO423940  20.227   0.487   9.429
 1535POPC   GL123941  20.370   0.595   9.069
 1535POPC   GL223942  20.691   0.478   9.137
 1535POPC   C1A23943  20.410   0.437   8.666
 1535POPC   D2A23944  20.360   0.534   8.263
 1535POPC   C3A23945  20.702   0.605   7.985
 1535POPC   C4A23946  20.426   0.371   7.732
 1535POPC   C1B23947  20.924   0.478   8.757
 1535POPC   C2B23948  20.848   0.272   8.395
 1535POPC   C3B23949  20.943  44.982   8.104
 1535POPC   C4B23950  21.005   0.226   7.742
 1536POPC   NC323951  20.652  11.852   9.550
 1536POPC   PO423952  20.339  12.443   9.629
 1536POPC   GL123953  20.664  12.309   9.317
 1536POPC   GL223954  20.389  12.141   9.176
 1536POPC   C1A23955  20.784  12.203   8.869
 1536POPC   D2A23956  20.544  12.326   8.511
 1536POPC   C3A23957  20.543  12.167   8.080
 1536POPC   C4A23958  20.384  12.372   7.722
 1536POPC   C1B23959  20.388  11.849   8.844
 1536POPC   C2B23960  20.382  11.793   8.427
 1536POPC   C3B23961  20.237  11.681   8.035
 1536POPC   C4B23962  20.398  11.868   7.649
 1537POPC   NC323963  32.623  33.610   9.660
 1537POPC   PO423964  33.035  34.037   9.350
 1537POPC   GL123965  33.116  33.729   9.053
 1537POPC   GL223966  33.479  33.718   9.021
 1537POPC   C1A23967  33.166  33.622   8.597
 1537POPC   D2A23968  32.929  33.406   8.266
 1537POPC   C3A23969  32.968  33.526   7.831
 1537POPC   C4A23970  32.845  33.914   7.669
 1537POPC   C1B23971  33.294  34.110   8.769
 1537POPC   C2B23972  33.024  34.203   8.442
 1537POPC   C3B23973  33.145  34.115   8.028
 1537POPC   C4B23974  33.399  33.811   7.803
 1538POPC   NC323975  11.573  36.420   9.400
 1538POPC   PO423976  11.360  35.870   9.728
 1538POPC   GL123977  11.309  35.929   9.225
 1538POPC   GL223978  11.485  36.114   9.010
 1538POPC   C1A23979  11.030  36.109   8.848
 1538POPC   D2A23980  10.910  35.964   8.445
 1538POPC   C3A23981  11.052  36.162   8.054
 1538POPC   C4A23982  11.169  35.979   7.666
 1538POPC   C1B23983  11.683  35.997   8.680
 1538POPC   C2B23984  11.502  36.108   8.312
 1538POPC   C3B23985  11.594  35.953   7.953
 1538POPC   C4B23986  11.719  36.050   7.571
 1539POPC   NC323987  16.244  27.222   9.462
 1539POPC   PO423988  15.568  27.398   9.441
 1539POPC   GL123989  15.827  27.671   9.134
 1539POPC   GL223990  16.181  27.623   9.131
 1539POPC   C1A23991  15.907  27.734   8.704
 1539POPC   D2A23992  15.948  27.362   8.429
 1539POPC   C3A23993  15.862  27.531   8.038
 1539POPC   C4A23994  15.931  27.901   7.792
 1539POPC   C1B23995  16.378  27.609   8.699
 1539POPC   C2B23996  16.246  27.758   8.280
 1539POPC   C3B23997  16.386  27.629   7.875
 1539POPC   C4B23998  16.488  27.333   7.509
 1540POPC   NC323999  17.461  11.111   9.684
 1540POPC   PO424000  16.829  11.251   9.526
 1540POPC   GL124001  16.739  11.283   9.082
 1540POPC   GL224002  16.911  11.597   9.107
 1540POPC   C1A24003  16.557  11.037   8.722
 1540POPC   D2A24004  16.522  10.776   8.339
 1540POPC   C3A24005  16.546  11.007   7.974
 1540POPC   C4A24006  16.342  11.079   7.601
 1540POPC   C1B24007  16.642  11.685   8.747
 1540POPC   C2B24008  16.546  11.441   8.368
 1540POPC   C3B24009  16.717  11.489   7.967
 1540POPC   C4B24010  16.778  11.689   7.577
 1541POPC   NC324011  27.422  17.979   9.593
 1541POPC   PO424012  26.864  17.972   9.602
 1541POPC   GL124013  27.041  18.102   9.162
 1541POPC   GL224014  27.092  18.463   9.081
 1541POPC   C1A24015  26.879  18.180   8.703
 1541POPC   D2A24016  26.723  18.500   8.372
 1541POPC   C3A24017  26.616  18.371   7.936
 1541POPC   C4A24018  26.605  18.601   7.552
 1541POPC   C1B24019  27.201  18.568   8.629
 1541POPC   C2B24020  27.214  18.500   8.182
 1541POPC   C3B24021  27.258  18.216   7.848
 1541POPC   C4B24022  27.320  17.914   7.516
 1542POPC   NC324023  14.062  22.459   9.560
 1542POPC   PO424024  13.537  22.122   9.736
 1542POPC   GL124025  13.555  22.088   9.268
 1542POPC   GL224026  13.839  22.013   9.109
 1542POPC   C1A24027  13.442  22.269   8.873
 1542POPC   D2A24028  13.619  22.191   8.483
 1542POPC   C3A24029  13.374  22.091   8.127
 1542POPC   C4A24030  13.358  22.264   7.729
 1542POPC   C1B24031  13.959  21.834   8.684
 1542POPC   C2B24032  14.044  22.020   8.273
 1542POPC   C3B24033  13.824  22.256   7.968
 1542POPC   C4B24034  13.855  22.247   7.510
 1543POPC   NC324035  29.320  32.603   9.477
 1543POPC   PO424036  29.179  33.180   9.691
 1543POPC   GL124037  29.182  32.990   9.181
 1543POPC   GL224038  29.352  33.226   8.896
 1543POPC   C1A24039  28.985  32.910   8.757
 1543POPC   D2A24040  29.181  33.125   8.380
 1543POPC   C3A24041  29.025  33.191   7.956
 1543POPC   C4A24042  29.091  32.875   7.629
 1543POPC   C1B24043  29.465  32.818   8.689
 1543POPC   C2B24044  29.311  32.651   8.273
 1543POPC   C3B24045  29.488  32.922   7.938
 1543POPC   C4B24046  29.485  33.165   7.516
 1544POPC   NC324047  32.214  30.516   9.512
 1544POPC   PO424048  32.199  29.918   9.452
 1544POPC   GL124049  32.075  30.198   9.114
 1544POPC   GL224050  32.385  30.349   9.032
 1544POPC   C1A24051  32.120  30.163   8.650
 1544POPC   D2A24052  32.156  30.127   8.214
 1544POPC   C3A24053  31.927  29.852   7.876
 1544POPC   C4A24054  31.839  29.629   7.456
 1544POPC   C1B24055  32.610  30.331   8.596
 1544POPC   C2B24056  32.582  30.438   8.145
 1544POPC   C3B24057  32.303  30.296   7.773
 1544POPC   C4B24058  32.213  30.000   7.447
 1545POPC   NC324059  21.373  24.194   9.750
 1545POPC   PO424060  21.384  23.597   9.553
 1545POPC   GL124061  21.433  23.751   9.080
 1545POPC   GL224062  21.288  24.079   8.990
 1545POPC   C1A24063  21.405  23.721   8.608
 1545POPC   D2A24064  21.499  23.688   8.168
 1545POPC   C3A24065  21.250  23.751   7.834
 1545POPC   C4A24066  21.381  23.677   7.395
 1545POPC   C1B24067  21.630  24.152   8.696
 1545POPC   C2B24068  21.590  24.201   8.256
 1545POPC   C3B24069  21.591  24.129   7.791
 1545POPC   C4B24070  21.670  24.071   7.333
 1546POPC   NC324071  16.693   2.135   9.687
 1546POPC   PO424072  16.552   1.509   9.500
 1546POPC   GL124073  16.755   1.821   9.249
 1546POPC   GL224074  16.574   2.136   9.174
 1546POPC   C1A24075  16.890   1.887   8.819
 1546POPC   D2A24076  16.725   1.959   8.407
 1546POPC   C3A24077  16.909   1.975   8.001
 1546POPC   C4A24078  16.970   2.099   7.596
 1546POPC   C1B24079  16.628   2.360   8.771
 1546POPC   C2B24080  16.477   2.408   8.337
 1546POPC   C3B24081  16.485   2.213   7.920
 1546POPC   C4B24082  16.511   1.901   7.590
 1547POPC   NC324083  16.943  26.421   9.453
 1547POPC   PO424084  16.475  26.857   9.687
 1547POPC   GL124085  16.477  26.865   9.215
 1547POPC   GL224086  16.562  26.570   9.104
 1547POPC   C1A24087  16.550  26.975   8.773
 1547POPC   D2A24088  16.954  26.886   8.545
 1547POPC   C3A24089  16.952  26.908   8.082
 1547POPC   C4A24090  16.609  26.869   7.789
 1547POPC   C1B24091  16.435  26.490   8.677
 1547POPC   C2B24092  16.594  26.598   8.275
 1547POPC   C3B24093  16.457  26.385   7.896
 1547POPC   C4B24094  16.342  26.518   7.461
 1548POPC   NC324095  39.535  13.738   9.302
 1548POPC   PO424096  38.906  13.578   9.643
 1548POPC   GL124097  38.982  13.789   9.225
 1548POPC   GL224098  39.153  13.570   9.042
 1548POPC   C1A24099  39.028  13.918   8.729
 1548POPC   D2A24100  39.306  13.742   8.374
 1548POPC   C3A24101  39.156  13.846   8.002
 1548POPC   C4A24102  38.774  13.780   7.820
 1548POPC   C1B24103  39.389  13.395   8.727
 1548POPC   C2B24104  39.579  13.232   8.368
 1548POPC   C3B24105  39.594  13.373   7.934
 1548POPC   C4B24106  39.451  13.156   7.563
 1549POPC   NC324107  27.721  41.326   9.438
 1549POPC   PO424108  27.329  40.685   9.424
 1549POPC   GL124109  27.719  40.861   9.193
 1549POPC   GL224110  27.992  40.610   9.077
 1549POPC   C1A24111  27.817  41.069   8.795
 1549POPC   D2A24112  27.806  40.883   8.385
 1549POPC   C3A24113  27.571  41.014   8.036
 1549POPC   C4A24114  27.631  41.044   7.585
 1549POPC   C1B24115  27.635  40.570   8.775
 1549POPC   C2B24116  27.522  40.429   8.340
 1549POPC   C3B24117  27.504  40.511   7.893
 1549POPC   C4B24118  27.500  40.589   7.442
 1550POPC   NC324119  29.389  26.190   9.962
 1550POPC   PO424120  28.899  25.951   9.801
 1550POPC   GL124121  28.876  25.975   9.310
 1550POPC   GL224122  29.171  25.865   9.129
 1550POPC   C1A24123  28.822  26.109   8.822
 1550POPC   D2A24124  28.955  26.034   8.343
 1550POPC   C3A24125  28.877  26.251   7.918
 1550POPC   C4A24126  28.929  26.590   7.579
 1550POPC   C1B24127  29.081  25.667   8.710
 1550POPC   C2B24128  29.143  25.558   8.250
 1550POPC   C3B24129  29.072  25.769   7.859
 1550POPC   C4B24130  28.717  25.833   7.608
 1551POPC   NC324131  44.067  32.552   9.507
 1551POPC   PO424132  43.521  32.221   9.595
 1551POPC   GL124133  43.774  32.221   9.222
 1551POPC   GL224134  44.119  32.084   9.274
 1551POPC   C1A24135  43.799  32.342   8.791
 1551POPC   D2A24136  43.685  32.356   8.336
 1551POPC   C3A24137  43.948  32.595   8.096
 1551POPC   C4A24138  44.109  32.413   7.725
 1551POPC   C1B24139  44.125  31.945   8.844
 1551POPC   C2B24140  43.816  31.804   8.513
 1551POPC   C3B24141  43.828  31.889   8.047
 1551POPC   C4B24142  44.196  31.922   7.745
 1552POPC   NC324143  39.726  23.479   9.632
 1552POPC   PO424144  39.208  23.816   9.649
 1552POPC   GL124145  39.290  23.632   9.203
 1552POPC   GL224146  39.565  23.391   9.139
 1552POPC   C1A24147  39.387  23.807   8.765
 1552POPC   D2A24148  39.190  24.092   8.428
 1552POPC   C3A24149  38.973  23.895   8.052
 1552POPC   C4A24150  39.071  23.737   7.603
 1552POPC   C1B24151  39.249  23.304   8.786
 1552POPC   C2B24152  39.112  23.433   8.322
 1552POPC   C3B24153  39.378  23.586   7.978
 1552POPC   C4B24154  39.588  23.648   7.585
 1553POPC   NC324155   8.513  31.218   9.663
 1553POPC   PO424156   8.209  31.793   9.613
 1553POPC   GL124157   8.213  31.623   9.184
 1553POPC   GL224158   8.418  31.320   9.148
 1553POPC   C1A24159   8.125  31.505   8.738
 1553POPC   D2A24160   8.058  31.285   8.326
 1553POPC   C3A24161   8.086  31.520   7.954
 1553POPC   C4A24162   8.199  31.381   7.540
 1553POPC   C1B24163   8.620  31.366   8.719
 1553POPC   C2B24164   8.530  31.483   8.287
 1553POPC   C3B24165   8.597  31.384   7.858
 1553POPC   C4B24166   8.691  31.164   7.451
 1554POPC   NC324167   0.560   7.119   9.523
 1554POPC   PO424168   0.841   7.782   9.392
 1554POPC   GL124169   0.476   7.536   9.139
 1554POPC   GL224170   0.238   7.195   9.136
 1554POPC   C1A24171   0.408   7.381   8.700
 1554POPC   D2A24172   0.163   7.351   8.335
 1554POPC   C3A24173   0.491   7.365   8.037
 1554POPC   C4A24174   0.362   7.408   7.633
 1554POPC   C1B24175  44.988   7.037   8.749
 1554POPC   C2B24176  44.992   6.874   8.299
 1554POPC   C3B24177   0.128   7.045   7.893
 1554POPC   C4B24178  44.913   7.035   7.487
 1555POPC   NC324179   9.481  37.864   9.457
 1555POPC   PO424180   9.785  37.253   9.557
 1555POPC   GL124181   9.798  37.509   9.172
 1555POPC   GL224182   9.452  37.563   9.069
 1555POPC   C1A24183   9.797  37.523   8.706
 1555POPC   D2A24184   9.788  37.791   8.342
 1555POPC   C3A24185   9.843  37.571   7.956
 1555POPC   C4A24186  10.072  37.605   7.557
 1555POPC   C1B24187   9.463  37.923   8.776
 1555POPC   C2B24188   9.392  38.110   8.368
 1555POPC   C3B24189   9.487  38.016   7.924
 1555POPC   C4B24190   9.580  37.745   7.561
 1556POPC   NC324191   2.446  40.821   9.542
 1556POPC   PO424192   3.027  40.608   9.561
 1556POPC   GL124193   2.781  40.715   9.171
 1556POPC   GL224194   2.565  41.049   9.112
 1556POPC   C1A24195   2.827  40.800   8.746
 1556POPC   D2A24196   2.819  40.557   8.414
 1556POPC   C3A24197   2.523  40.596   8.150
 1556POPC   C4A24198   2.689  40.721   7.774
 1556POPC   C1B24199   2.583  41.271   8.708
 1556POPC   C2B24200   2.687  41.073   8.300
 1556POPC   C3B24201   2.820  41.209   7.895
 1556POPC   C4B24202   2.614  41.415   7.553
 1557POPC   NC324203   0.040  16.877   9.476
 1557POPC   PO424204  44.440  16.651   9.641
 1557POPC   GL124205  44.508  16.740   9.190
 1557POPC   GL224206  44.317  17.019   9.105
 1557POPC   C1A24207  44.665  16.539   8.776
 1557POPC   D2A24208  44.450  16.426   8.376
 1557POPC   C3A24209  44.703  16.481   8.017
 1557POPC   C4A24210  44.968  16.802   7.899
 1557POPC   C1B24211  44.544  17.021   8.729
 1557POPC   C2B24212  44.663  16.912   8.313
 1557POPC   C3B24213  44.487  16.996   7.908
 1557POPC   C4B24214  44.108  16.985   7.697
 1558POPC   NC324215  35.333   8.804   9.655
 1558POPC   PO424216  35.392   8.139   9.662
 1558POPC   GL124217  35.278   8.310   9.277
 1558POPC   GL224218  35.477   8.618   9.201
 1558POPC   C1A24219  35.341   8.109   8.877
 1558POPC   D2A24220  35.486   7.914   8.504
 1558POPC   C3A24221  35.294   8.136   8.156
 1558POPC   C4A24222  35.159   8.092   7.739
 1558POPC   C1B24223  35.601   8.533   8.776
 1558POPC   C2B24224  35.843   8.511   8.390
 1558POPC   C3B24225  35.689   8.651   8.003
 1558POPC   C4B24226  35.307   8.589   7.763
 1559POPC   NC324227  43.818  44.239   9.644
 1559POPC   PO424228  43.598  43.653   9.430
 1559POPC   GL124229  43.909  43.877   9.233
 1559POPC   GL224230  43.933  43.585   9.050
 1559POPC   C1A24231  44.099  44.028   8.839
 1559POPC   D2A24232  43.859  44.183   8.469
 1559POPC   C3A24233  44.056  44.134   8.063
 1559POPC   C4A24234  44.055  43.824   7.748
 1559POPC   C1B24235  43.989  43.576   8.620
 1559POPC   C2B24236  43.882  43.704   8.250
 1559POPC   C3B24237  43.656  43.587   7.913
 1559POPC   C4B24238  43.829  43.412   7.515
 1560POPC   NC324239  40.951  13.023   9.434
 1560POPC   PO424240  41.494  13.080   9.422
 1560POPC   GL124241  41.267  12.853   9.082
 1560POPC   GL224242  41.291  12.490   9.075
 1560POPC   C1A24243  41.096  12.767   8.694
 1560POPC   D2A24244  41.227  12.503   8.335
 1560POPC   C3A24245  41.355  12.725   7.963
 1560POPC   C4A24246  41.497  13.054   7.675
 1560POPC   C1B24247  41.581  12.632   8.708
 1560POPC   C2B24248  41.746  12.521   8.284
 1560POPC   C3B24249  41.826  12.542   7.833
 1560POPC   C4B24250  41.940  12.821   7.485
 1561POPC   NC324251  41.751  22.551   9.571
 1561POPC   PO424252  41.266  22.132   9.496
 1561POPC   GL124253  41.594  22.227   9.171
 1561POPC   GL224254  41.562  22.581   9.112
 1561POPC   C1A24255  41.672  21.976   8.777
 1561POPC   D2A24256  41.397  21.789   8.441
 1561POPC   C3A24257  41.545  21.946   8.024
 1561POPC   C4A24258  41.562  21.961   7.576
 1561POPC   C1B24259  41.419  22.481   8.736
 1561POPC   C2B24260  41.543  22.308   8.386
 1561POPC   C3B24261  41.602  22.481   8.012
 1561POPC   C4B24262  41.478  22.458   7.629
 1562POPC   NC324263  40.736  28.886   9.814
 1562POPC   PO424264  40.934  29.469   9.434
 1562POPC   GL124265  40.598  29.380   9.120
 1562POPC   GL224266  40.513  29.012   9.058
 1562POPC   C1A24267  40.644  29.319   8.666
 1562POPC   D2A24268  41.015  29.115   8.507
 1562POPC   C3A24269  41.112  29.235   8.100
 1562POPC   C4A24270  40.820  29.094   7.811
 1562POPC   C1B24271  40.599  28.804   8.649
 1562POPC   C2B24272  40.693  28.782   8.202
 1562POPC   C3B24273  40.383  28.778   7.834
 1562POPC   C4B24274  40.192  28.976   7.427
 1563POPC   NC324275  10.849  12.326   9.548
 1563POPC   PO424276  10.239  12.040   9.791
 1563POPC   GL124277  10.479  12.024   9.335
 1563POPC   GL224278  10.406  11.750   9.165
 1563POPC   C1A24279  10.503  12.085   8.824
 1563POPC   D2A24280  10.720  12.208   8.428
 1563POPC   C3A24281  10.705  12.056   7.986
 1563POPC   C4A24282  10.507  11.947   7.550
 1563POPC   C1B24283  10.393  11.587   8.787
 1563POPC   C2B24284  10.476  11.725   8.405
 1563POPC   C3B24285  10.144  11.686   8.127
 1563POPC   C4B24286  10.089  11.538   7.744
 1564POPC   NC324287   2.194  16.044   9.569
 1564POPC   PO424288   1.620  16.368   9.414
 1564POPC   GL124289   1.958  16.077   9.141
 1564POPC   GL224290   2.343  16.209   9.115
 1564POPC   C1A24291   2.057  15.821   8.768
 1564POPC   D2A24292   1.810  15.759   8.411
 1564POPC   C3A24293   1.873  15.920   8.014
 1564POPC   C4A24294   1.874  15.824   7.563
 1564POPC   C1B24295   2.544  16.148   8.697
 1564POPC   C2B24296   2.373  15.987   8.276
 1564POPC   C3B24297   2.325  15.784   7.836
 1564POPC   C4B24298   2.358  16.021   7.428
 1565POPC   NC324299  33.224   1.182   9.754
 1565POPC   PO424300  32.727   0.754   9.531
 1565POPC   GL124301  32.638   0.975   9.161
 1565POPC   GL224302  32.573   1.288   9.363
 1565POPC   C1A24303  32.814   1.039   8.686
 1565POPC   D2A24304  33.149   1.261   8.364
 1565POPC   C3A24305  33.175   1.206   7.859
 1565POPC   C4A24306  33.342   1.248   7.397
 1565POPC   C1B24307  32.554   1.407   8.917
 1565POPC   C2B24308  32.708   1.509   8.500
 1565POPC   C3B24309  32.863   1.567   8.075
 1565POPC   C4B24310  32.599   1.319   7.808
 1566POPC   NC324311  38.338  20.892   9.555
 1566POPC   PO424312  38.659  20.257   9.260
 1566POPC   GL124313  38.347  20.588   9.148
 1566POPC   GL224314  38.475  20.946   9.054
 1566POPC   C1A24315  38.086  20.779   8.781
 1566POPC   D2A24316  38.067  20.965   8.348
 1566POPC   C3A24317  38.143  20.733   8.023
 1566POPC   C4A24318  38.339  20.511   7.721
 1566POPC   C1B24319  38.570  20.636   8.711
 1566POPC   C2B24320  38.569  20.704   8.308
 1566POPC   C3B24321  38.640  20.931   7.979
 1566POPC   C4B24322  38.763  20.890   7.581
 1567POPC   NC324323  21.151  24.451   9.321
 1567POPC   PO424324  21.693  24.531   9.738
 1567POPC   GL124325  21.589  24.644   9.215
 1567POPC   GL224326  21.766  24.883   9.133
 1567POPC   C1A24327  21.389  24.582   8.754
 1567POPC   D2A24328  21.140  24.247   8.510
 1567POPC   C3A24329  21.119  24.261   8.031
 1567POPC   C4A24330  21.082  24.618   7.722
 1567POPC   C1B24331  21.480  25.073   8.853
 1567POPC   C2B24332  21.330  24.971   8.430
 1567POPC   C3B24333  21.464  24.789   8.023
 1567POPC   C4B24334  21.386  25.014   7.607
 1568POPC   NC324335  14.518  16.416   9.548
 1568POPC   PO424336  14.456  17.061   9.618
 1568POPC   GL124337  14.307  16.829   9.248
 1568POPC   GL224338  14.602  16.691   9.080
 1568POPC   C1A24339  14.195  16.832   8.799
 1568POPC   D2A24340  14.058  16.711   8.359
 1568POPC   C3A24341  14.271  16.844   7.956
 1568POPC   C4A24342  14.357  16.774   7.483
 1568POPC   C1B24343  14.808  16.473   8.720
 1568POPC   C2B24344  14.634  16.500   8.266
 1568POPC   C3B24345  14.703  16.574   7.810
 1568POPC   C4B24346  14.876  16.500   7.381
 1569POPC   NC324347  20.453  29.502   9.299
 1569POPC   PO424348  20.748  30.148   9.452
 1569POPC   GL124349  20.609  29.957   9.094
 1569POPC   GL224350  20.235  29.956   9.144
 1569POPC   C1A24351  20.807  29.884   8.687
 1569POPC   D2A24352  20.893  30.162   8.321
 1569POPC   C3A24353  20.949  29.894   7.970
 1569POPC   C4A24354  20.771  29.852   7.579
 1569POPC   C1B24355  20.278  29.854   8.693
 1569POPC   C2B24356  20.458  29.844   8.281
 1569POPC   C3B24357  20.481  30.102   7.920
 1569POPC   C4B24358  20.266  29.930   7.562
 1570POPC   NC324359  15.614  30.485   9.687
 1570POPC   PO424360  14.944  30.682   9.557
 1570POPC   GL124361  15.246  30.733   9.173
 1570POPC   GL224362  15.503  30.511   9.151
 1570POPC   C1A24363  15.313  30.845   8.740
 1570POPC   D2A24364  15.019  30.840   8.403
 1570POPC   C3A24365  15.188  30.745   8.004
 1570POPC   C4A24366  15.232  30.671   7.572
 1570POPC   C1B24367  15.302  30.348   8.737
 1570POPC   C2B24368  15.435  30.429   8.296
 1570POPC   C3B24369  15.233  30.245   7.868
 1570POPC   C4B24370  15.314  30.141   7.393
 1571POPC   NC324371   9.383  19.828   9.630
 1571POPC   PO424372   9.848  19.452   9.458
 1571POPC   GL124373   9.654  19.743   9.172
 1571POPC   GL224374   9.304  19.598   9.182
 1571POPC   C1A24375   9.741  20.082   8.824
 1571POPC   D2A24376   9.757  20.285   8.410
 1571POPC   C3A24377   9.820  20.058   8.025
 1571POPC   C4A24378   9.931  20.139   7.570
 1571POPC   C1B24379   9.355  19.762   8.778
 1571POPC   C2B24380   9.439  19.891   8.389
 1571POPC   C3B24381   9.318  19.718   8.018
 1571POPC   C4B24382   9.523  19.854   7.658
 1572POPC   NC324383  25.356   9.215   9.690
 1572POPC   PO424384  25.620   9.906   9.590
 1572POPC   GL124385  25.368   9.816   9.222
 1572POPC   GL224386  25.488   9.521   9.281
 1572POPC   C1A24387  25.204   9.747   8.793
 1572POPC   D2A24388  25.279   9.964   8.396
 1572POPC   C3A24389  25.272   9.724   8.007
 1572POPC   C4A24390  24.924   9.453   7.905
 1572POPC   C1B24391  25.667   9.528   8.870
 1572POPC   C2B24392  25.623   9.588   8.426
 1572POPC   C3B24393  25.790   9.516   8.013
 1572POPC   C4B24394  25.666   9.652   7.618
 1573POPC   NC324395   6.936   7.457   9.976
 1573POPC   PO424396   7.319   7.225   9.578
 1573POPC   GL124397   7.451   7.328   9.213
 1573POPC   GL224398   7.211   7.576   9.150
 1573POPC   C1A24399   7.543   7.379   8.798
 1573POPC   D2A24400   7.493   7.486   8.399
 1573POPC   C3A24401   7.494   7.209   8.095
 1573POPC   C4A24402   7.456   7.308   7.684
 1573POPC   C1B24403   7.079   7.574   8.723
 1573POPC   C2B24404   7.052   7.741   8.339
 1573POPC   C3B24405   7.211   7.662   7.950
 1573POPC   C4B24406   6.944   7.761   7.595
 1574POPC   NC324407   4.791   9.233   9.416
 1574POPC   PO424408   4.348   8.771   9.483
 1574POPC   GL124409   4.546   8.881   9.129
 1574POPC   GL224410   4.544   8.561   9.029
 1574POPC   C1A24411   4.383   8.950   8.718
 1574POPC   D2A24412   4.148   8.754   8.392
 1574POPC   C3A24413   4.139   9.040   8.055
 1574POPC   C4A24414   4.468   9.111   7.737
 1574POPC   C1B24415   4.651   8.337   8.653
 1574POPC   C2B24416   4.720   8.431   8.226
 1574POPC   C3B24417   4.429   8.640   7.960
 1574POPC   C4B24418   4.122   8.759   7.620
 1575POPC   NC324419   9.253  12.469   9.505
 1575POPC   PO424420   9.798  12.956   9.458
 1575POPC   GL124421   9.508  12.870   9.152
 1575POPC   GL224422   9.617  12.537   9.164
 1575POPC   C1A24423   9.527  12.778   8.712
 1575POPC   D2A24424   9.728  12.967   8.395
 1575POPC   C3A24425   9.543  12.874   8.032
 1575POPC   C4A24426   9.787  12.973   7.710
 1575POPC   C1B24427   9.966  12.604   8.894
 1575POPC   C2B24428   9.938  12.507   8.482
 1575POPC   C3B24429   9.971  12.571   8.064
 1575POPC   C4B24430   9.699  12.452   7.771
 1576POPC   NC324431   0.108  37.377   9.618
 1576POPC   PO424432   0.706  37.768   9.453
 1576POPC   GL124433   0.508  37.495   9.244
 1576POPC   GL224434   0.270  37.682   9.096
 1576POPC   C1A24435   0.615  37.431   8.805
 1576POPC   D2A24436   0.583  37.719   8.429
 1576POPC   C3A24437   0.464  37.433   8.107
 1576POPC   C4A24438   0.315  37.499   7.685
 1576POPC   C1B24439   0.123  37.979   8.800
 1576POPC   C2B24440   0.042  37.819   8.423
 1576POPC   C3B24441   0.214  37.887   8.030
 1576POPC   C4B24442   0.339  38.023   7.629
 1577POPC   NC324443  17.865  31.097   9.993
 1577POPC   PO424444  17.486  30.605   9.826
 1577POPC   GL124445  17.630  30.777   9.371
 1577POPC   GL224446  17.336  30.816   9.153
 1577POPC   C1A24447  17.760  30.858   8.890
 1577POPC   D2A24448  17.583  30.653   8.487
 1577POPC   C3A24449  17.724  30.663   8.049
 1577POPC   C4A24450  17.555  30.727   7.639
 1577POPC   C1B24451  17.156  30.693   8.766
 1577POPC   C2B24452  17.119  30.870   8.353
 1577POPC   C3B24453  17.197  30.635   7.989
 1577POPC   C4B24454  17.063  30.610   7.544
 1578POPC   NC324455  26.202  34.338   9.980
 1578POPC   PO424456  26.091  33.818   9.694
 1578POPC   GL124457  26.102  33.572   9.232
 1578POPC   GL224458  25.768  33.481   9.086
 1578POPC   C1A24459  26.233  33.585   8.754
 1578POPC   D2A24460  26.326  33.926   8.412
 1578POPC   C3A24461  26.275  33.794   7.982
 1578POPC   C4A24462  26.295  33.397   7.827
 1578POPC   C1B24463  25.755  33.443   8.643
 1578POPC   C2B24464  25.988  33.383   8.262
 1578POPC   C3B24465  25.801  33.551   7.889
 1578POPC   C4B24466  25.578  33.813   7.571
 1579POPC   NC324467   1.000  42.701   9.854
 1579POPC   PO424468   0.838  43.255   9.474
 1579POPC   GL124469   1.056  43.128   9.166
 1579POPC   GL224470   1.198  42.837   9.265
 1579POPC   C1A24471   1.385  43.143   8.892
 1579POPC   D2A24472   1.354  43.341   8.542
 1579POPC   C3A24473   1.454  43.169   8.143
 1579POPC   C4A24474   1.272  43.428   7.838
 1579POPC   C1B24475   1.071  42.719   8.848
 1579POPC   C2B24476   1.175  42.834   8.464
 1579POPC   C3B24477   1.073  42.810   8.056
 1579POPC   C4B24478   1.234  42.939   7.693
 1580POPC   NC324479  31.163   9.116   9.634
 1580POPC   PO424480  30.703   8.703   9.349
 1580POPC   GL124481  30.643   8.952   9.055
 1580POPC   GL224482  30.785   9.229   9.241
 1580POPC   C1A24483  30.686   8.837   8.639
 1580POPC   D2A24484  30.971   8.703   8.348
 1580POPC   C3A24485  30.760   8.776   8.008
 1580POPC   C4A24486  30.621   8.830   7.612
 1580POPC   C1B24487  30.866   9.311   8.777
 1580POPC   C2B24488  30.906   9.200   8.349
 1580POPC   C3B24489  30.821   9.271   7.931
 1580POPC   C4B24490  30.616   9.338   7.521
 1581POPC   NC324491  36.050  39.057   9.406
 1581POPC   PO424492  36.010  39.619   9.635
 1581POPC   GL124493  36.115  39.488   9.140
 1581POPC   GL224494  36.373  39.248   9.076
 1581POPC   C1A24495  36.022  39.184   8.723
 1581POPC   D2A24496  35.942  39.268   8.261
 1581POPC   C3A24497  35.914  38.981   7.897
 1581POPC   C4A24498  35.820  38.911   7.427
 1581POPC   C1B24499  36.429  39.483   8.746
 1581POPC   C2B24500  36.457  39.790   8.495
 1581POPC   C3B24501  36.278  39.705   8.107
 1581POPC   C4B24502  36.256  39.359   7.841
 1582POPC   NC324503  12.506  38.849   9.463
 1582POPC   PO424504  12.947  39.310   9.694
 1582POPC   GL124505  12.899  39.320   9.239
 1582POPC   GL224506  12.680  39.617   9.194
 1582POPC   C1A24507  12.990  39.221   8.793
 1582POPC   D2A24508  12.721  39.256   8.420
 1582POPC   C3A24509  12.822  39.104   8.045
 1582POPC   C4A24510  13.189  39.180   7.851
 1582POPC   C1B24511  12.692  39.658   8.733
 1582POPC   C2B24512  12.470  39.703   8.315
 1582POPC   C3B24513  12.522  39.526   7.901
 1582POPC   C4B24514  12.844  39.430   7.574
 1583POPC   NC324515  10.709  30.852   9.492
 1583POPC   PO424516  11.412  30.821   9.652
 1583POPC   GL124517  11.460  30.750   9.222
 1583POPC   GL224518  11.123  30.670   9.160
 1583POPC   C1A24519  11.682  30.850   8.829
 1583POPC   D2A24520  11.664  30.727   8.396
 1583POPC   C3A24521  11.500  30.973   8.020
 1583POPC   C4A24522  11.173  30.832   7.736
 1583POPC   C1B24523  11.208  30.690   8.695
 1583POPC   C2B24524  11.138  30.673   8.249
 1583POPC   C3B24525  10.962  30.400   7.920
 1583POPC   C4B24526  10.843  30.518   7.467
 1584POPC   NC324527  31.197   2.201   9.380
 1584POPC   PO424528  31.806   2.122   9.453
 1584POPC   GL124529  31.606   2.158   9.077
 1584POPC   GL224530  31.566   1.778   9.046
 1584POPC   C1A24531  31.501   2.129   8.646
 1584POPC   D2A24532  31.472   1.956   8.230
 1584POPC   C3A24533  31.329   2.216   7.922
 1584POPC   C4A24534  31.718   2.394   7.861
 1584POPC   C1B24535  31.341   1.629   8.656
 1584POPC   C2B24536  31.119   1.615   8.232
 1584POPC   C3B24537  31.264   1.719   7.807
 1584POPC   C4B24538  31.265   1.700   7.346
 1585POPC   NC324539  40.809  35.959   9.564
 1585POPC   PO424540  40.892  36.671   9.500
 1585POPC   GL124541  40.841  36.383   9.173
 1585POPC   GL224542  40.531  36.202   9.202
 1585POPC   C1A24543  40.805  36.214   8.756
 1585POPC   D2A24544  41.059  36.109   8.402
 1585POPC   C3A24545  40.866  36.296   8.071
 1585POPC   C4A24546  40.881  36.219   7.682
 1585POPC   C1B24547  40.551  35.803   8.941
 1585POPC   C2B24548  40.460  35.810   8.507
 1585POPC   C3B24549  40.656  35.841   8.113
 1585POPC   C4B24550  40.518  35.699   7.729
 1586POPC   NC324551  39.385  14.672   9.339
 1586POPC   PO424552  38.943  14.206   9.581
 1586POPC   GL124553  39.064  14.301   9.152
 1586POPC   GL224554  38.919  14.631   9.080
 1586POPC   C1A24555  39.298  14.344   8.751
 1586POPC   D2A24556  39.144  14.249   8.327
 1586POPC   C3A24557  39.360  14.291   7.889
 1586POPC   C4A24558  39.178  14.157   7.469
 1586POPC   C1B24559  38.945  14.684   8.642
 1586POPC   C2B24560  38.729  14.550   8.309
 1586POPC   C3B24561  38.874  14.426   7.928
 1586POPC   C4B24562  39.139  14.652   7.622
 1587POPC   NC324563  36.645  29.022   9.367
 1587POPC   PO424564  37.322  28.995   9.300
 1587POPC   GL124565  37.036  29.120   8.995
 1587POPC   GL224566  36.876  29.416   9.060
 1587POPC   C1A24567  36.688  29.173   8.684
 1587POPC   D2A24568  36.674  29.349   8.294
 1587POPC   C3A24569  36.854  29.148   7.961
 1587POPC   C4A24570  36.673  29.205   7.568
 1587POPC   C1B24571  37.185  29.525   8.735
 1587POPC   C2B24572  37.206  29.354   8.351
 1587POPC   C3B24573  37.323  29.440   7.962
 1587POPC   C4B24574  37.129  29.461   7.594
 1588POPC   NC324575  18.102  43.159   9.418
 1588POPC   PO424576  18.568  43.198   9.829
 1588POPC   GL124577  18.605  43.242   9.271
 1588POPC   GL224578  18.342  43.471   9.096
 1588POPC   C1A24579  18.522  43.092   8.819
 1588POPC   D2A24580  18.367  43.190   8.405
 1588POPC   C3A24581  18.509  43.039   8.019
 1588POPC   C4A24582  18.444  42.820   7.640
 1588POPC   C1B24583  18.020  43.305   8.784
 1588POPC   C2B24584  17.881  43.357   8.339
 1588POPC   C3B24585  18.117  43.333   7.934
 1588POPC   C4B24586  18.042  43.103   7.544
 1589POPC   NC324587   1.486  15.911   9.476
 1589POPC   PO424588   0.892  15.814   9.498
 1589POPC   GL124589   1.107  16.029   9.102
 1589POPC   GL224590   1.460  16.117   9.009
 1589POPC   C1A24591   1.150  16.033   8.623
 1589POPC   D2A24592   1.127  16.295   8.265
 1589POPC   C3A24593   0.997  16.096   7.892
 1589POPC   C4A24594   0.793  15.845   7.548
 1589POPC   C1B24595   1.525  15.722   8.845
 1589POPC   C2B24596   1.353  15.558   8.465
 1589POPC   C3B24597   1.371  15.820   8.096
 1589POPC   C4B24598   1.359  15.865   7.616
 1590POPC   NC324599  22.098  28.461   9.609
 1590POPC   PO424600  22.711  28.284   9.583
 1590POPC   GL124601  22.393  28.295   9.241
 1590POPC   GL224602  22.406  27.968   9.243
 1590POPC   C1A24603  22.199  28.543   8.863
 1590POPC   D2A24604  22.273  28.423   8.442
 1590POPC   C3A24605  22.155  28.607   8.062
 1590POPC   C4A24606  21.930  28.523   7.699
 1590POPC   C1B24607  22.218  28.029   8.824
 1590POPC   C2B24608  22.287  27.903   8.412
 1590POPC   C3B24609  22.225  28.075   8.043
 1590POPC   C4B24610  22.097  28.060   7.664
 1591POPC   NC324611  41.382  42.102   9.444
 1591POPC   PO424612  41.951  42.437   9.426
 1591POPC   GL124613  41.729  42.356   9.089
 1591POPC   GL224614  41.752  42.036   9.101
 1591POPC   C1A24615  41.724  42.523   8.680
 1591POPC   D2A24616  41.453  42.438   8.359
 1591POPC   C3A24617  41.627  42.545   7.955
 1591POPC   C4A24618  41.313  42.487   7.666
 1591POPC   C1B24619  41.597  42.017   8.723
 1591POPC   C2B24620  41.808  42.076   8.363
 1591POPC   C3B24621  41.557  42.047   8.013
 1591POPC   C4B24622  41.658  42.072   7.647
 1592POPC   NC324623  30.766  10.752   9.605
 1592POPC   PO424624  30.253  10.211   9.547
 1592POPC   GL124625  30.593  10.198   9.225
 1592POPC   GL224626  30.809  10.467   9.188
 1592POPC   C1A24627  30.498  10.118   8.827
 1592POPC   D2A24628  30.423  10.069   8.424
 1592POPC   C3A24629  30.661  10.134   8.070
 1592POPC   C4A24630  30.644  10.223   7.636
 1592POPC   C1B24631  30.987  10.305   8.829
 1592POPC   C2B24632  30.851  10.425   8.436
 1592POPC   C3B24633  30.859  10.611   7.988
 1592POPC   C4B24634  30.815  10.694   7.520
 1593POPC   NC324635   5.961  36.497   9.338
 1593POPC   PO424636   5.582  35.985   9.447
 1593POPC   GL124637   5.922  36.045   9.101
 1593POPC   GL224638   6.243  35.838   9.100
 1593POPC   C1A24639   5.949  36.303   8.702
 1593POPC   D2A24640   5.628  36.425   8.388
 1593POPC   C3A24641   5.795  36.415   7.961
 1593POPC   C4A24642   6.128  36.464   7.644
 1593POPC   C1B24643   6.048  35.789   8.678
 1593POPC   C2B24644   5.938  35.982   8.290
 1593POPC   C3B24645   5.844  35.903   7.880
 1593POPC   C4B24646   5.454  35.872   7.690
 1594POPC   NC324647  39.123  17.053   9.603
 1594POPC   PO424648  39.635  16.537   9.492
 1594POPC   GL124649  39.309  16.653   9.144
 1594POPC   GL224650  39.137  16.969   9.116
 1594POPC   C1A24651  39.259  16.732   8.704
 1594POPC   D2A24652  39.274  16.989   8.368
 1594POPC   C3A24653  39.231  16.663   8.096
 1594POPC   C4A24654  39.193  16.599   7.694
 1594POPC   C1B24655  38.855  17.046   8.759
 1594POPC   C2B24656  38.775  17.146   8.338
 1594POPC   C3B24657  38.965  17.063   7.917
 1594POPC   C4B24658  39.137  17.033   7.456
 1595POPC   NC324659  27.775  24.965   9.458
 1595POPC   PO424660  27.662  25.579   9.526
 1595POPC   GL124661  27.459  25.295   9.196
 1595POPC   GL224662  27.147  25.159   9.095
 1595POPC   C1A24663  27.556  25.098   8.775
 1595POPC   D2A24664  27.851  25.212   8.462
 1595POPC   C3A24665  27.796  25.224   8.021
 1595POPC   C4A24666  27.997  25.126   7.627
 1595POPC   C1B24667  27.071  25.275   8.659
 1595POPC   C2B24668  27.275  25.075   8.310
 1595POPC   C3B24669  27.333  25.124   7.865
 1595POPC   C4B24670  27.515  25.368   7.518
 1596POPC   NC324671  36.675  21.048   9.419
 1596POPC   PO424672  36.975  21.724   9.441
 1596POPC   GL124673  37.152  21.681   9.092
 1596POPC   GL224674  37.170  21.300   9.088
 1596POPC   C1A24675  36.886  21.611   8.743
 1596POPC   D2A24676  36.574  21.712   8.457
 1596POPC   C3A24677  36.792  21.607   8.115
 1596POPC   C4A24678  36.649  21.694   7.729
 1596POPC   C1B24679  36.948  21.073   8.803
 1596POPC   C2B24680  36.621  21.144   8.509
 1596POPC   C3B24681  36.624  20.946   8.120
 1596POPC   C4B24682  36.749  21.197   7.804
 1597POPC   NC324683   5.689  39.911   9.441
 1597POPC   PO424684   6.319  40.049   9.426
 1597POPC   GL124685   6.079  40.211   9.046
 1597POPC   GL224686   5.708  40.256   9.067
 1597POPC   C1A24687   5.892  40.269   8.607
 1597POPC   D2A24688   5.761  40.051   8.249
 1597POPC   C3A24689   5.977  40.175   7.859
 1597POPC   C4A24690   6.131  39.899   7.530
 1597POPC   C1B24691   5.550  39.885   8.799
 1597POPC   C2B24692   5.394  39.661   8.440
 1597POPC   C3B24693   5.388  39.806   8.012
 1597POPC   C4B24694   5.478  40.247   7.855
 1598POPC   NC324695  13.980   0.510   9.563
 1598POPC   PO424696  13.329   0.715   9.606
 1598POPC   GL124697  13.441   0.551   9.188
 1598POPC   GL224698  13.784   0.572   9.100
 1598POPC   C1A24699  13.442   0.347   8.754
 1598POPC   D2A24700  13.440   0.019   8.409
 1598POPC   C3A24701  13.505   0.216   7.993
 1598POPC   C4A24702  13.380   0.635   7.839
 1598POPC   C1B24703  13.898   0.588   8.703
 1598POPC   C2B24704  13.671   0.579   8.343
 1598POPC   C3B24705  13.855   0.697   7.994
 1598POPC   C4B24706  13.821   0.522   7.586
 1599POPC   NC324707  36.890  11.862   9.409
 1599POPC   PO424708  36.655  12.453   9.675
 1599POPC   GL124709  36.689  12.441   9.180
 1599POPC   GL224710  36.967  12.251   9.099
 1599POPC   C1A24711  36.645  12.195   8.716
 1599POPC   D2A24712  36.894  12.083   8.311
 1599POPC   C3A24713  36.728  11.777   7.977
 1599POPC   C4A24714  36.730  11.783   7.503
 1599POPC   C1B24715  37.148  11.978   8.776
 1599POPC   C2B24716  37.459  11.953   8.446
 1599POPC   C3B24717  37.321  11.890   8.036
 1599POPC   C4B24718  37.063  12.100   7.773
 1600POPC   NC324719  19.660  15.634   9.500
 1600POPC   PO424720  20.084  14.992   9.516
 1600POPC   GL124721  19.951  15.290   9.187
 1600POPC   GL224722  19.616  15.156   9.235
 1600POPC   C1A24723  20.006  15.362   8.713
 1600POPC   D2A24724  20.258  15.185   8.388
 1600POPC   C3A24725  20.116  15.167   7.956
 1600POPC   C4A24726  19.917  15.226   7.553
 1600POPC   C1B24727  19.473  15.407   8.878
 1600POPC   C2B24728  19.552  15.517   8.458
 1600POPC   C3B24729  19.570  15.400   8.038
 1600POPC   C4B24730  19.588  15.622   7.692
 1601POPC   NC324731  10.157  32.897   9.500
 1601POPC   PO424732  10.745  33.112   9.612
 1601POPC   GL124733  10.550  33.030   9.218
 1601POPC   GL224734  10.468  32.662   9.173
 1601POPC   C1A24735  10.531  33.259   8.836
 1601POPC   D2A24736  10.714  33.085   8.469
 1601POPC   C3A24737  10.524  32.978   8.085
 1601POPC   C4A24738  10.718  33.092   7.732
 1601POPC   C1B24739  10.344  32.789   8.757
 1601POPC   C2B24740  10.121  32.888   8.387
 1601POPC   C3B24741  10.056  32.678   8.027
 1601POPC   C4B24742  10.302  32.740   7.678
 1602POPC   NC324743  43.168   2.513   9.651
 1602POPC   PO424744  43.629   3.051   9.662
 1602POPC   GL124745  43.291   3.035   9.304
 1602POPC   GL224746  43.192   2.697   9.164
 1602POPC   C1A24747  43.208   3.118   8.848
 1602POPC   D2A24748  43.280   3.229   8.412
 1602POPC   C3A24749  43.330   2.813   8.200
 1602POPC   C4A24750  43.310   2.726   7.767
 1602POPC   C1B24751  42.885   2.711   8.797
 1602POPC   C2B24752  42.886   2.522   8.372
 1602POPC   C3B24753  42.824   2.717   7.964
 1602POPC   C4B24754  42.875   2.519   7.558
 1603POPC   NC324755  40.535   7.666   9.501
 1603POPC   PO424756  40.885   7.202   9.794
 1603POPC   GL124757  40.913   7.409   9.281
 1603POPC   GL224758  40.689   7.576   9.043
 1603POPC   C1A24759  41.110   7.411   8.862
 1603POPC   D2A24760  41.043   7.691   8.478
 1603POPC   C3A24761  41.017   7.452   8.078
 1603POPC   C4A24762  40.763   7.532   7.706
 1603POPC   C1B24763  40.643   7.202   8.741
 1603POPC   C2B24764  40.594   6.955   8.355
 1603POPC   C3B24765  40.581   7.119   7.917
 1603POPC   C4B24766  40.739   7.061   7.471
 1604POPC   NC324767  32.677  12.852   9.538
 1604POPC   PO424768  32.068  12.634   9.552
 1604POPC   GL124769  32.199  12.811   9.181
 1604POPC   GL224770  32.341  13.130   9.164
 1604POPC   C1A24771  32.132  12.874   8.757
 1604POPC   D2A24772  32.240  12.654   8.418
 1604POPC   C3A24773  32.157  12.841   8.016
 1604POPC   C4A24774  32.426  12.607   7.725
 1604POPC   C1B24775  32.556  13.170   8.779
 1604POPC   C2B24776  32.406  13.147   8.377
 1604POPC   C3B24777  32.482  13.234   7.951
 1604POPC   C4B24778  32.293  13.346   7.563
 1605POPC   NC324779  38.382   3.811   9.446
 1605POPC   PO424780  38.502   3.276   9.350
 1605POPC   GL124781  38.485   3.565   8.996
 1605POPC   GL224782  38.201   3.804   8.959
 1605POPC   C1A24783  38.580   3.668   8.580
 1605POPC   D2A24784  38.409   3.887   8.248
 1605POPC   C3A24785  38.579   3.683   7.882
 1605POPC   C4A24786  38.572   3.719   7.434
 1605POPC   C1B24787  38.109   3.493   8.623
 1605POPC   C2B24788  38.229   3.413   8.192
 1605POPC   C3B24789  38.089   3.569   7.769
 1605POPC   C4B24790  37.887   3.432   7.369
 1606POPC   NC324791  37.757  13.985   9.409
 1606POPC   PO424792  37.216  13.574   9.542
 1606POPC   GL124793  37.500  13.553   9.189
 1606POPC   GL224794  37.679  13.221   9.185
 1606POPC   C1A24795  37.593  13.791   8.809
 1606POPC   D2A24796  37.746  13.690   8.424
 1606POPC   C3A24797  37.447  13.667   8.078
 1606POPC   C4A24798  37.422  13.840   7.666
 1606POPC   C1B24799  37.850  13.332   8.805
 1606POPC   C2B24800  37.955  13.180   8.445
 1606POPC   C3B24801  37.881  13.357   8.084
 1606POPC   C4B24802  37.625  13.284   7.781
 1607POPC   NC324803   1.628   5.154   9.777
 1607POPC   PO424804   0.980   4.975   9.515
 1607POPC   GL124805   1.196   5.170   9.167
 1607POPC   GL224806   1.373   5.430   8.961
 1607POPC   C1A24807   1.218   4.968   8.799
 1607POPC   D2A24808   1.299   5.136   8.463
 1607POPC   C3A24809   1.157   4.880   8.126
 1607POPC   C4A24810   1.355   4.890   7.751
 1607POPC   C1B24811   0.995   5.473   8.725
 1607POPC   C2B24812   0.886   5.346   8.269
 1607POPC   C3B24813   0.892   5.193   7.816
 1607POPC   C4B24814   0.857   5.343   7.349
 1608POPC   NC324815  37.533  18.725   9.432
 1608POPC   PO424816  38.051  19.157   9.481
 1608POPC   GL124817  37.834  18.987   9.094
 1608POPC   GL224818  37.457  19.003   9.009
 1608POPC   C1A24819  37.787  18.979   8.637
 1608POPC   D2A24820  37.961  18.808   8.290
 1608POPC   C3A24821  37.860  19.085   7.975
 1608POPC   C4A24822  37.805  19.064   7.545
 1608POPC   C1B24823  37.439  19.372   8.703
 1608POPC   C2B24824  37.572  19.423   8.263
 1608POPC   C3B24825  37.375  19.236   7.878
 1608POPC   C4B24826  37.410  19.351   7.413
 1609POPC   NC324827   7.276   0.607   9.405
 1609POPC   PO424828   7.802   0.863   9.073
 1609POPC   GL124829   7.585   0.469   9.035
 1609POPC   GL224830   7.713   0.147   9.215
 1609POPC   C1A24831   7.224   0.407   8.750
 1609POPC   D2A24832   7.214   0.610   8.343
 1609POPC   C3A24833   7.524   0.569   8.013
 1609POPC   C4A24834   7.304   0.362   7.695
 1609POPC   C1B24835   7.567   0.041   8.781
 1609POPC   C2B24836   7.524   0.178   8.332
 1609POPC   C3B24837   7.571  44.991   7.895
 1609POPC   C4B24838   7.613  44.977   7.396
 1610POPC   NC324839  15.465  26.598   9.395
 1610POPC   PO424840  14.957  26.931   9.755
 1610POPC   GL124841  15.185  27.037   9.242
 1610POPC   GL224842  15.213  26.743   8.955
 1610POPC   C1A24843  15.055  27.204   8.838
 1610POPC   D2A24844  15.210  27.004   8.483
 1610POPC   C3A24845  15.176  27.111   8.070
 1610POPC   C4A24846  15.261  26.871   7.715
 1610POPC   C1B24847  14.934  26.520   8.655
 1610POPC   C2B24848  14.812  26.285   8.267
 1610POPC   C3B24849  14.849  26.573   7.888
 1610POPC   C4B24850  14.923  26.641   7.423
 1611POPC   NC324851  17.172  15.078   9.530
 1611POPC   PO424852  17.779  15.332   9.670
 1611POPC   GL124853  17.601  15.224   9.260
 1611POPC   GL224854  17.304  15.415   9.179
 1611POPC   C1A24855  17.645  15.062   8.834
 1611POPC   D2A24856  17.818  15.235   8.457
 1611POPC   C3A24857  17.620  15.082   8.101
 1611POPC   C4A24858  17.689  15.185   7.683
 1611POPC   C1B24859  17.210  15.365   8.748
 1611POPC   C2B24860  17.131  15.406   8.312
 1611POPC   C3B24861  17.283  15.408   7.900
 1611POPC   C4B24862  17.206  15.079   7.571
 1612POPC   NC324863  19.429   1.166   9.554
 1612POPC   PO424864  20.021   1.421   9.440
 1612POPC   GL124865  19.798   1.145   9.176
 1612POPC   GL224866  19.692   1.463   9.032
 1612POPC   C1A24867  19.682   1.021   8.760
 1612POPC   D2A24868  19.804   1.253   8.374
 1612POPC   C3A24869  19.819   1.048   7.935
 1612POPC   C4A24870  19.750   1.038   7.469
 1612POPC   C1B24871  20.078   1.403   8.772
 1612POPC   C2B24872  20.224   1.524   8.332
 1612POPC   C3B24873  20.207   1.392   7.899
 1612POPC   C4B24874  20.205   1.232   7.472
 1613POPC   NC324875  16.003   8.079   9.636
 1613POPC   PO424876  16.571   8.196   9.410
 1613POPC   GL124877  16.326   8.110   9.093
 1613POPC   GL224878  16.061   8.291   9.168
 1613POPC   C1A24879  16.060   8.031   8.733
 1613POPC   D2A24880  15.741   8.060   8.445
 1613POPC   C3A24881  15.887   7.922   8.060
 1613POPC   C4A24882  15.969   8.155   7.685
 1613POPC   C1B24883  15.775   8.449   8.856
 1613POPC   C2B24884  15.801   8.591   8.438
 1613POPC   C3B24885  15.745   8.433   8.036
 1613POPC   C4B24886  15.486   8.321   7.667
 1614POPC   NC324887  26.534  15.593   9.418
 1614POPC   PO424888  25.897  15.241   9.474
 1614POPC   GL124889  26.139  15.196   9.082
 1614POPC   GL224890  26.262  14.834   9.006
 1614POPC   C1A24891  26.123  15.158   8.617
 1614POPC   D2A24892  25.886  15.214   8.229
 1614POPC   C3A24893  26.044  15.411   7.864
 1614POPC   C4A24894  26.183  15.361   7.427
 1614POPC   C1B24895  26.351  14.630   8.636
 1614POPC   C2B24896  26.353  14.850   8.244
 1614POPC   C3B24897  26.116  14.893   7.883
 1614POPC   C4B24898  25.851  15.018   7.582
 1615POPC   NC324899  35.768  39.977   9.448
 1615POPC   PO424900  36.431  40.155   9.448
 1615POPC   GL124901  36.248  40.284   9.079
 1615POPC   GL224902  36.091  39.971   8.985
 1615POPC   C1A24903  36.194  40.321   8.618
 1615POPC   D2A24904  36.386  40.217   8.241
 1615POPC   C3A24905  36.114  40.165   7.957
 1615POPC   C4A24906  35.850  40.339   7.695
 1615POPC   C1B24907  35.943  39.692   8.623
 1615POPC   C2B24908  35.750  39.740   8.191
 1615POPC   C3B24909  35.851  39.800   7.747
 1615POPC   C4B24910  36.287  39.807   7.582
 1616POPC   NC324911  15.609   3.276   9.510
 1616POPC   PO424912  15.771   3.900   9.477
 1616POPC   GL124913  15.861   3.839   9.087
 1616POPC   GL224914  15.962   3.488   9.083
 1616POPC   C1A24915  15.746   3.689   8.687
 1616POPC   D2A24916  16.079   3.771   8.471
 1616POPC   C3A24917  15.932   3.660   8.118
 1616POPC   C4A24918  16.068   3.704   7.741
 1616POPC   C1B24919  16.105   3.283   8.700
 1616POPC   C2B24920  16.290   3.333   8.290
 1616POPC   C3B24921  16.089   3.183   7.913
 1616POPC   C4B24922  16.261   3.030   7.524
 1617POPC   NC324923  31.362  44.430   9.535
 1617POPC   PO424924  31.126   0.015   9.634
 1617POPC   GL124925  31.238  44.837   9.226
 1617POPC   GL224926  31.603  44.766   9.225
 1617POPC   C1A24927  31.283  44.736   8.792
 1617POPC   D2A24928  31.298  44.416   8.482
 1617POPC   C3A24929  31.108  44.620   8.161
 1617POPC   C4A24930  31.181  44.794   7.779
 1617POPC   C1B24931  31.753  44.946   8.862
 1617POPC   C2B24932  31.709  44.755   8.486
 1617POPC   C3B24933  31.612  44.661   8.085
 1617POPC   C4B24934  31.668  44.700   7.653
 1618POPC   NC324935  18.771  38.618   9.712
 1618POPC   PO424936  19.354  38.386   9.478
 1618POPC   GL124937  18.992  38.551   9.238
 1618POPC   GL224938  18.848  38.264   9.100
 1618POPC   C1A24939  18.878  38.688   8.790
 1618POPC   D2A24940  18.767  38.558   8.367
 1618POPC   C3A24941  18.800  38.804   7.987
 1618POPC   C4A24942  19.128  38.703   7.675
 1618POPC   C1B24943  18.966  38.064   8.681
 1618POPC   C2B24944  19.037  37.925   8.259
 1618POPC   C3B24945  19.098  38.216   7.916
 1618POPC   C4B24946  19.198  38.164   7.492
 1619POPC   NC324947  18.994  14.935   9.642
 1619POPC   PO424948  19.206  15.542   9.545
 1619POPC   GL124949  19.114  15.221   9.208
 1619POPC   GL224950  19.007  14.898   9.132
 1619POPC   C1A24951  18.904  15.303   8.819
 1619POPC   D2A24952  18.813  15.190   8.421
 1619POPC   C3A24953  19.058  15.457   8.173
 1619POPC   C4A24954  19.094  15.445   7.775
 1619POPC   C1B24955  19.223  14.931   8.736
 1619POPC   C2B24956  19.307  15.045   8.329
 1619POPC   C3B24957  19.101  14.957   7.949
 1619POPC   C4B24958  18.688  15.066   7.757
 1620POPC   NC324959  40.112  30.966   9.458
 1620POPC   PO424960  39.553  30.646   9.538
 1620POPC   GL124961  39.811  30.703   9.153
 1620POPC   GL224962  40.160  30.532   9.153
 1620POPC   C1A24963  40.020  30.969   8.799
 1620POPC   D2A24964  40.023  31.167   8.382
 1620POPC   C3A24965  39.943  30.848   8.103
 1620POPC   C4A24966  40.016  30.748   7.686
 1620POPC   C1B24967  39.941  30.422   8.768
 1620POPC   C2B24968  40.155  30.483   8.417
 1620POPC   C3B24969  40.095  30.332   8.052
 1620POPC   C4B24970  40.298  30.303   7.715
 1621POPC   NC324971   1.701  42.867   9.433
 1621POPC   PO424972   1.814  43.470   9.513
 1621POPC   GL124973   1.872  43.286   9.120
 1621POPC   GL224974   2.131  43.028   9.059
 1621POPC   C1A24975   1.867  43.267   8.686
 1621POPC   D2A24976   2.160  43.163   8.366
 1621POPC   C3A24977   1.970  43.088   7.971
 1621POPC   C4A24978   1.770  43.444   7.774
 1621POPC   C1B24979   2.074  42.781   8.689
 1621POPC   C2B24980   1.956  42.633   8.284
 1621POPC   C3B24981   2.216  42.596   7.929
 1621POPC   C4B24982   2.172  42.704   7.517
 1622POPC   NC324983  37.803  26.645   9.422
 1622POPC   PO424984  37.307  27.077   9.430
 1622POPC   GL124985  37.589  26.979   9.089
 1622POPC   GL224986  37.983  26.942   9.033
 1622POPC   C1A24987  37.614  27.051   8.679
 1622POPC   D2A24988  37.534  26.835   8.338
 1622POPC   C3A24989  37.838  26.861   8.010
 1622POPC   C4A24990  37.796  27.130   7.630
 1622POPC   C1B24991  37.837  26.580   8.782
 1622POPC   C2B24992  37.701  26.361   8.442
 1622POPC   C3B24993  37.401  26.386   8.163
 1622POPC   C4B24994  37.433  26.644   7.811
 1623POPC   NC324995  26.185  41.395   9.426
 1623POPC   PO424996  25.664  41.740   9.251
 1623POPC   GL124997  25.952  41.510   8.988
 1623POPC   GL224998  26.224  41.763   9.005
 1623POPC   C1A24999  25.758  41.375   8.612
 1623POPC   D2A25000  25.507  41.636   8.438
 1623POPC   C3A25001  25.791  41.794   8.144
 1623POPC   C4A25002  26.082  41.680   7.829
 1623POPC   C1B25003  26.179  41.709   8.551
 1623POPC   C2B25004  26.193  41.398   8.239
 1623POPC   C3B25005  26.466  41.357   7.859
 1623POPC   C4B25006  26.548  41.738   7.638
 1624POPC   NC325007  35.530  31.547   9.566
 1624POPC   PO425008  35.058  32.021   9.708
 1624POPC   GL125009  35.124  31.793   9.266
 1624POPC   GL225010  35.470  31.773   9.102
 1624POPC   C1A25011  35.076  31.769   8.788
 1624POPC   D2A25012  35.337  31.650   8.413
 1624POPC   C3A25013  35.191  31.330   8.112
 1624POPC   C4A25014  35.188  31.436   7.666
 1624POPC   C1B25015  35.643  31.453   8.783
 1624POPC   C2B25016  35.668  31.245   8.349
 1624POPC   C3B25017  35.646  31.327   7.894
 1624POPC   C4B25018  35.824  31.107   7.532
 1625POPC   NC325019  23.867  44.262   9.750
 1625POPC   PO425020  24.065  43.599   9.536
 1625POPC   GL125021  23.806  43.685   9.155
 1625POPC   GL225022  23.453  43.555   9.122
 1625POPC   C1A25023  23.791  43.826   8.694
 1625POPC   D2A25024  23.557  43.974   8.300
 1625POPC   C3A25025  23.743  44.005   7.858
 1625POPC   C4A25026  23.972  44.021   7.447
 1625POPC   C1B25027  23.688  43.324   8.799
 1625POPC   C2B25028  23.572  43.400   8.371
 1625POPC   C3B25029  23.411  43.600   7.984
 1625POPC   C4B25030  23.549  43.616   7.560
 1626POPC   NC325031  28.434  22.003   9.642
 1626POPC   PO425032  27.817  21.795   9.691
 1626POPC   GL125033  28.058  22.138   9.319
 1626POPC   GL225034  28.476  22.276   9.220
 1626POPC   C1A25035  28.180  22.165   8.854
 1626POPC   D2A25036  28.383  21.920   8.546
 1626POPC   C3A25037  28.281  22.009   8.132
 1626POPC   C4A25038  28.199  21.863   7.717
 1626POPC   C1B25039  28.695  22.198   8.827
 1626POPC   C2B25040  28.833  22.128   8.405
 1626POPC   C3B25041  28.742  22.155   7.990
 1626POPC   C4B25042  28.645  22.063   7.587
 1627POPC   NC325043  40.825  21.894   9.519
 1627POPC   PO425044  40.486  22.361   9.895
 1627POPC   GL125045  40.458  22.216   9.398
 1627POPC   GL225046  40.782  22.306   9.202
 1627POPC   C1A25047  40.426  22.081   8.925
 1627POPC   D2A25048  40.570  22.303   8.580
 1627POPC   C3A25049  40.589  22.239   8.146
 1627POPC   C4A25050  40.586  22.126   7.728
 1627POPC   C1B25051  41.008  22.173   8.823
 1627POPC   C2B25052  41.053  22.185   8.366
 1627POPC   C3B25053  41.102  22.215   7.916
 1627POPC   C4B25054  40.953  22.421   7.548
 1628POPC   NC325055  40.810  30.467   9.809
 1628POPC   PO425056  40.563  31.043   9.494
 1628POPC   GL125057  40.771  30.657   9.289
 1628POPC   GL225058  41.014  30.855   9.109
 1628POPC   C1A25059  40.937  30.412   8.886
 1628POPC   D2A25060  41.072  30.620   8.558
 1628POPC   C3A25061  40.878  30.558   8.181
 1628POPC   C4A25062  40.818  30.467   7.727
 1628POPC   C1B25063  40.644  30.867   8.819
 1628POPC   C2B25064  40.483  30.882   8.400
 1628POPC   C3B25065  40.434  30.707   8.001
 1628POPC   C4B25066  40.523  30.862   7.595
 1629POPC   NC325067  35.636   5.212   9.548
 1629POPC   PO425068  35.072   4.997   9.745
 1629POPC   GL125069  35.139   5.248   9.318
 1629POPC   GL225070  35.457   5.356   9.095
 1629POPC   C1A25071  35.009   5.239   8.860
 1629POPC   D2A25072  35.210   5.076   8.473
 1629POPC   C3A25073  35.172   5.109   8.017
 1629POPC   C4A25074  35.346   5.422   7.737
 1629POPC   C1B25075  35.528   4.958   8.878
 1629POPC   C2B25076  35.607   4.746   8.465
 1629POPC   C3B25077  35.667   4.815   8.012
 1629POPC   C4B25078  35.581   4.988   7.602
 1630POPC   NC325079  26.523  27.976   9.835
 1630POPC   PO425080  26.562  28.424   9.345
 1630POPC   GL125081  26.760  28.447   9.026
 1630POPC   GL225082  26.924  28.759   9.172
 1630POPC   C1A25083  26.651  28.199   8.689
 1630POPC   D2A25084  26.785  28.276   8.285
 1630POPC   C3A25085  26.620  28.196   7.897
 1630POPC   C4A25086  26.762  28.399   7.544
 1630POPC   C1B25087  27.009  28.802   8.764
 1630POPC   C2B25088  26.871  28.778   8.343
 1630POPC   C3B25089  26.507  28.679   8.101
 1630POPC   C4B25090  26.401  28.752   7.689
 1631POPC   NC325091  30.369  34.348   9.749
 1631POPC   PO425092  30.694  33.817   9.460
 1631POPC   GL125093  30.782  33.873   9.063
 1631POPC   GL225094  30.454  33.817   8.997
 1631POPC   C1A25095  31.107  33.747   8.751
 1631POPC   D2A25096  31.096  33.585   8.340
 1631POPC   C3A25097  30.822  33.816   8.124
 1631POPC   C4A25098  30.780  33.913   7.702
 1631POPC   C1B25099  30.617  33.657   8.613
 1631POPC   C2B25100  30.427  33.480   8.262
 1631POPC   C3B25101  30.582  33.461   7.847
 1631POPC   C4B25102  30.693  33.479   7.384
 1632POPC   NC325103  37.763  22.493   9.587
 1632POPC   PO425104  37.594  21.849   9.517
 1632POPC   GL125105  37.644  22.061   9.135
 1632POPC   GL225106  37.992  21.991   9.100
 1632POPC   C1A25107  37.704  21.896   8.705
 1632POPC   D2A25108  37.703  22.117   8.366
 1632POPC   C3A25109  37.668  21.894   8.009
 1632POPC   C4A25110  37.529  22.118   7.712
 1632POPC   C1B25111  37.948  22.335   8.796
 1632POPC   C2B25112  38.123  22.416   8.388
 1632POPC   C3B25113  37.939  22.370   7.969
 1632POPC   C4B25114  37.959  22.272   7.527
 1633POPC   NC325115  13.086  33.185   9.543
 1633POPC   PO425116  13.676  32.798   9.396
 1633POPC   GL125117  13.568  32.963   9.029
 1633POPC   GL225118  13.366  33.239   9.102
 1633POPC   C1A25119  13.626  32.851   8.620
 1633POPC   D2A25120  13.403  32.676   8.297
 1633POPC   C3A25121  13.542  32.662   7.913
 1633POPC   C4A25122  13.472  33.064   7.753
 1633POPC   C1B25123  13.526  33.355   8.687
 1633POPC   C2B25124  13.660  33.247   8.266
 1633POPC   C3B25125  13.670  33.488   7.906
 1633POPC   C4B25126  13.229  33.567   7.871
 1634POPC   NC325127  35.363   6.066   9.422
 1634POPC   PO425128  34.835   5.651   9.496
 1634POPC   GL125129  35.112   5.722   9.092
 1634POPC   GL225130  35.447   5.883   8.963
 1634POPC   C1A25131  35.166   5.655   8.601
 1634POPC   D2A25132  35.069   5.615   8.138
 1634POPC   C3A25133  35.294   5.921   7.839
 1634POPC   C4A25134  35.121   6.160   7.443
 1634POPC   C1B25135  35.556   6.233   8.656
 1634POPC   C2B25136  35.880   6.255   8.312
 1634POPC   C3B25137  35.920   6.141   7.866
 1634POPC   C4B25138  35.760   5.723   7.745
 1635POPC   NC325139  31.732  35.521   9.445
 1635POPC   PO425140  31.423  34.864   9.512
 1635POPC   GL125141  31.528  35.084   9.141
 1635POPC   GL225142  31.301  35.372   9.152
 1635POPC   C1A25143  31.685  35.368   8.797
 1635POPC   D2A25144  31.594  35.556   8.396
 1635POPC   C3A25145  31.709  35.345   8.022
 1635POPC   C4A25146  31.537  35.063   7.699
 1635POPC   C1B25147  31.095  35.259   8.772
 1635POPC   C2B25148  31.082  35.422   8.363
 1635POPC   C3B25149  31.195  35.335   7.968
 1635POPC   C4B25150  31.128  35.345   7.544
 1636POPC   NC325151  39.603  38.664   9.501
 1636POPC   PO425152  39.798  38.016   9.591
 1636POPC   GL125153  39.796  38.275   9.193
 1636POPC   GL225154  39.957  38.571   9.103
 1636POPC   C1A25155  39.906  38.168   8.752
 1636POPC   D2A25156  40.192  38.162   8.374
 1636POPC   C3A25157  40.085  38.351   7.974
 1636POPC   C4A25158  39.901  38.226   7.570
 1636POPC   C1B25159  39.809  38.663   8.719
 1636POPC   C2B25160  39.774  38.552   8.320
 1636POPC   C3B25161  39.884  38.857   8.017
 1636POPC   C4B25162  39.967  38.720   7.625
 1637POPC   NC325163  33.371  11.108   9.498
 1637POPC   PO425164  32.671  11.005   9.359
 1637POPC   GL125165  32.992  11.191   9.121
 1637POPC   GL225166  32.854  11.520   9.238
 1637POPC   C1A25167  33.216  11.102   8.711
 1637POPC   D2A25168  33.426  11.093   8.279
 1637POPC   C3A25169  33.092  10.964   7.976
 1637POPC   C4A25170  32.754  11.150   7.721
 1637POPC   C1B25171  33.086  11.605   8.818
 1637POPC   C2B25172  33.083  11.485   8.373
 1637POPC   C3B25173  33.147  11.476   7.926
 1637POPC   C4B25174  33.141  11.727   7.562
 1638POPC   NC325175   5.253  11.186   9.670
 1638POPC   PO425176   4.821  11.023   9.268
 1638POPC   GL125177   5.124  11.181   9.048
 1638POPC   GL225178   5.475  11.130   9.127
 1638POPC   C1A25179   5.016  11.269   8.646
 1638POPC   D2A25180   5.106  11.129   8.270
 1638POPC   C3A25181   4.903  11.371   8.008
 1638POPC   C4A25182   4.989  11.261   7.646
 1638POPC   C1B25183   5.454  11.463   8.771
 1638POPC   C2B25184   5.319  11.591   8.299
 1638POPC   C3B25185   5.425  11.421   7.847
 1638POPC   C4B25186   5.400  11.347   7.327
 1639POPC   NC325187  13.518  15.298   9.911
 1639POPC   PO425188  13.990  15.387   9.368
 1639POPC   GL125189  13.747  15.142   9.093
 1639POPC   GL225190  13.418  14.961   9.219
 1639POPC   C1A25191  13.778  15.186   8.659
 1639POPC   D2A25192  13.602  15.413   8.340
 1639POPC   C3A25193  13.750  15.196   8.032
 1639POPC   C4A25194  13.643  15.300   7.671
 1639POPC   C1B25195  13.416  14.819   8.777
 1639POPC   C2B25196  13.421  14.946   8.337
 1639POPC   C3B25197  13.539  14.753   7.906
 1639POPC   C4B25198  13.436  14.888   7.475
 1640POPC   NC325199  32.761  34.378   9.462
 1640POPC   PO425200  33.384  34.463   9.653
 1640POPC   GL125201  33.170  34.457   9.147
 1640POPC   GL225202  32.852  34.305   8.952
 1640POPC   C1A25203  33.188  34.638   8.734
 1640POPC   D2A25204  33.366  34.579   8.338
 1640POPC   C3A25205  33.012  34.632   8.097
 1640POPC   C4A25206  32.871  34.444   7.729
 1640POPC   C1B25207  32.670  34.587   8.596
 1640POPC   C2B25208  32.558  34.857   8.213
 1640POPC   C3B25209  32.622  34.941   7.750
 1640POPC   C4B25210  32.674  34.722   7.355
 1641POPC   NC325211  25.738  33.543   9.590
 1641POPC   PO425212  26.290  33.122   9.407
 1641POPC   GL125213  26.067  33.068   9.041
 1641POPC   GL225214  25.751  32.965   9.169
 1641POPC   C1A25215  25.950  32.980   8.631
 1641POPC   D2A25216  26.058  32.831   8.222
 1641POPC   C3A25217  25.912  33.053   7.838
 1641POPC   C4A25218  26.100  33.152   7.414
 1641POPC   C1B25219  25.664  32.616   8.897
 1641POPC   C2B25220  25.669  32.610   8.453
 1641POPC   C3B25221  25.701  32.600   7.942
 1641POPC   C4B25222  25.849  32.713   7.455
 1642POPC   NC325223  21.485  26.049   9.801
 1642POPC   PO425224  21.262  26.599   9.441
 1642POPC   GL125225  21.473  26.200   9.225
 1642POPC   GL225226  21.638  25.876   9.181
 1642POPC   C1A25227  21.534  26.106   8.745
 1642POPC   D2A25228  21.349  25.964   8.347
 1642POPC   C3A25229  21.446  26.087   7.907
 1642POPC   C4A25230  21.344  25.866   7.505
 1642POPC   C1B25231  21.898  25.749   8.787
 1642POPC   C2B25232  21.888  25.919   8.386
 1642POPC   C3B25233  21.824  25.756   7.973
 1642POPC   C4B25234  21.841  25.983   7.567
 1643POPC   NC325235   3.736   6.807   9.495
 1643POPC   PO425236   3.155   6.396   9.531
 1643POPC   GL125237   3.419   6.436   9.174
 1643POPC   GL225238   3.156   6.318   8.973
 1643POPC   C1A25239   3.721   6.304   8.840
 1643POPC   D2A25240   3.810   6.247   8.382
 1643POPC   C3A25241   3.797   6.644   8.140
 1643POPC   C4A25242   3.707   6.850   7.732
 1643POPC   C1B25243   2.845   6.263   8.629
 1643POPC   C2B25244   2.971   6.356   8.195
 1643POPC   C3B25245   3.331   6.512   7.953
 1643POPC   C4B25246   3.355   6.564   7.492
 1644POPC   NC325247   5.704  41.736   9.376
 1644POPC   PO425248   5.914  41.124   9.419
 1644POPC   GL125249   5.941  41.188   9.009
 1644POPC   GL225250   5.660  41.415   8.980
 1644POPC   C1A25251   6.023  41.410   8.620
 1644POPC   D2A25252   5.872  41.422   8.212
 1644POPC   C3A25253   6.033  41.131   7.904
 1644POPC   C4A25254   6.141  41.355   7.518
 1644POPC   C1B25255   5.707  41.814   8.721
 1644POPC   C2B25256   5.783  42.116   8.412
 1644POPC   C3B25257   5.680  41.969   8.020
 1644POPC   C4B25258   5.753  41.617   7.766
 1645POPC   NC325259  40.282  18.332   9.580
 1645POPC   PO425260  39.626  18.593   9.532
 1645POPC   GL125261  39.964  18.509   9.209
 1645POPC   GL225262  40.192  18.198   9.109
 1645POPC   C1A25263  40.010  18.488   8.760
 1645POPC   D2A25264  39.785  18.232   8.523
 1645POPC   C3A25265  39.772  18.347   8.107
 1645POPC   C4A25266  39.817  18.206   7.703
 1645POPC   C1B25267  40.234  17.977   8.737
 1645POPC   C2B25268  40.367  18.054   8.316
 1645POPC   C3B25269  40.307  18.169   7.885
 1645POPC   C4B25270  40.212  18.551   7.670
 1646POPC   NC325271   1.052  30.959   9.517
 1646POPC   PO425272   1.687  31.067   9.425
 1646POPC   GL125273   1.370  30.865   9.113
 1646POPC   GL225274   1.302  30.486   9.181
 1646POPC   C1A25275   1.037  30.677   8.801
 1646POPC   D2A25276   1.098  30.533   8.367
 1646POPC   C3A25277   1.015  30.776   7.984
 1646POPC   C4A25278   0.997  30.717   7.490
 1646POPC   C1B25279   1.293  30.238   8.751
 1646POPC   C2B25280   1.456  30.199   8.264
 1646POPC   C3B25281   1.373  30.431   7.830
 1646POPC   C4B25282   1.385  30.293   7.380
 1647POPC   NC325283  23.967  12.151   9.462
 1647POPC   PO425284  24.649  12.089   9.388
 1647POPC   GL125285  24.326  12.128   9.085
 1647POPC   GL225286  24.209  11.808   8.963
 1647POPC   C1A25287  24.334  12.204   8.655
 1647POPC   D2A25288  24.676  12.217   8.324
 1647POPC   C3A25289  24.543  12.283   7.891
 1647POPC   C4A25290  24.197  12.103   7.660
 1647POPC   C1B25291  24.645  11.784   8.680
 1647POPC   C2B25292  24.949  11.773   8.320
 1647POPC   C3B25293  24.767  11.793   7.882
 1647POPC   C4B25294  24.629  11.834   7.414
 1648POPC   NC325295  41.752   3.785   9.584
 1648POPC   PO425296  41.916   3.141   9.607
 1648POPC   GL125297  41.642   3.362   9.277
 1648POPC   GL225298  41.751   3.679   9.092
 1648POPC   C1A25299  41.473   3.325   8.835
 1648POPC   D2A25300  41.500   3.363   8.370
 1648POPC   C3A25301  41.263   3.610   8.057
 1648POPC   C4A25302  41.304   3.947   7.751
 1648POPC   C1B25303  41.632   3.784   8.644
 1648POPC   C2B25304  41.716   3.823   8.183
 1648POPC   C3B25305  41.768   3.615   7.827
 1648POPC   C4B25306  42.108   3.274   7.808
 1649POPC   NC325307  18.993  39.434   9.485
 1649POPC   PO425308  19.210  40.113   9.514
 1649POPC   GL125309  18.938  39.924   9.207
 1649POPC   GL225310  19.219  39.734   9.137
 1649POPC   C1A25311  18.808  39.899   8.743
 1649POPC   D2A25312  18.971  39.821   8.315
 1649POPC   C3A25313  19.026  40.049   7.913
 1649POPC   C4A25314  19.435  40.269   7.810
 1649POPC   C1B25315  19.298  39.672   8.740
 1649POPC   C2B25316  19.312  39.435   8.380
 1649POPC   C3B25317  19.272  39.593   7.975
 1649POPC   C4B25318  19.327  39.791   7.582
 1650POPC   NC325319  30.239   4.517   9.555
 1650POPC   PO425320  29.616   4.403   9.620
 1650POPC   GL125321  29.793   4.290   9.206
 1650POPC   GL225322  30.120   4.350   9.101
 1650POPC   C1A25323  29.766   4.283   8.759
 1650POPC   D2A25324  29.926   4.407   8.375
 1650POPC   C3A25325  29.631   4.376   8.018
 1650POPC   C4A25326  29.528   4.164   7.637
 1650POPC   C1B25327  30.282   4.150   8.725
 1650POPC   C2B25328  30.408   4.290   8.292
 1650POPC   C3B25329  30.189   4.230   7.872
 1650POPC   C4B25330  30.302   4.045   7.435
 1651POPC   NC325331  22.256   7.958   9.507
 1651POPC   PO425332  21.926   8.470   9.435
 1651POPC   GL125333  22.116   8.269   9.079
 1651POPC   GL225334  22.083   7.912   9.032
 1651POPC   C1A25335  22.038   8.285   8.633
 1651POPC   D2A25336  22.029   8.594   8.283
 1651POPC   C3A25337  22.293   8.452   7.988
 1651POPC   C4A25338  22.169   8.496   7.600
 1651POPC   C1B25339  22.310   7.835   8.656
 1651POPC   C2B25340  22.330   7.994   8.224
 1651POPC   C3B25341  22.255   7.977   7.757
 1651POPC   C4B25342  22.440   7.854   7.341
 1652POPC   NC325343   6.089  32.829   9.272
 1652POPC   PO425344   6.825  32.982   9.430
 1652POPC   GL125345   6.610  32.778   9.130
 1652POPC   GL225346   6.458  33.075   9.034
 1652POPC   C1A25347   6.726  32.670   8.704
 1652POPC   D2A25348   6.916  32.701   8.257
 1652POPC   C3A25349   6.680  32.534   7.872
 1652POPC   C4A25350   6.297  32.665   7.670
 1652POPC   C1B25351   6.775  33.207   8.791
 1652POPC   C2B25352   6.620  33.098   8.397
 1652POPC   C3B25353   6.554  33.006   8.002
 1652POPC   C4B25354   6.657  33.106   7.616
 1653POPC   NC325355   5.036  17.124   9.682
 1653POPC   PO425356   5.428  16.529   9.399
 1653POPC   GL125357   5.116  16.659   9.054
 1653POPC   GL225358   5.012  17.002   9.159
 1653POPC   C1A25359   4.898  16.666   8.679
 1653POPC   D2A25360   4.680  16.764   8.305
 1653POPC   C3A25361   4.901  16.585   7.985
 1653POPC   C4A25362   5.287  16.457   7.833
 1653POPC   C1B25363   5.208  17.101   8.736
 1653POPC   C2B25364   5.279  16.899   8.305
 1653POPC   C3B25365   5.205  16.986   7.863
 1653POPC   C4B25366   5.287  17.109   7.422
 1654POPC   NC325367  15.337  37.225   9.378
 1654POPC   PO425368  15.428  36.545   9.468
 1654POPC   GL125369  15.255  36.756   9.113
 1654POPC   GL225370  14.900  36.659   9.186
 1654POPC   C1A25371  15.285  36.806   8.656
 1654POPC   D2A25372  15.466  36.927   8.241
 1654POPC   C3A25373  15.231  36.868   7.851
 1654POPC   C4A25374  15.226  37.165   7.473
 1654POPC   C1B25375  14.823  36.941   8.834
 1654POPC   C2B25376  14.876  37.014   8.382
 1654POPC   C3B25377  14.719  36.837   7.983
 1654POPC   C4B25378  14.793  36.929   7.547
 1655POPC   NC325379   0.733  33.722  10.200
 1655POPC   PO425380   0.664  33.747   9.500
 1655POPC   GL125381   0.521  33.827   9.087
 1655POPC   GL225382   0.176  33.833   9.101
 1655POPC   C1A25383   0.452  33.961   8.674
 1655POPC   D2A25384   0.116  34.102   8.407
 1655POPC   C3A25385   0.289  34.061   7.990
 1655POPC   C4A25386   0.578  33.738   7.791
 1655POPC   C1B25387   0.079  33.593   8.714
 1655POPC   C2B25388  44.945  33.602   8.286
 1655POPC   C3B25389   0.076  33.617   7.871
 1655POPC   C4B25390   0.268  33.335   7.554
 1656POPC   NC325391  11.585  33.675   9.339
 1656POPC   PO425392  10.925  33.883   9.415
 1656POPC   GL125393  11.184  33.845   9.092
 1656POPC   GL225394  11.457  34.100   9.077
 1656POPC   C1A25395  11.398  33.737   8.708
 1656POPC   D2A25396  11.308  33.842   8.323
 1656POPC   C3A25397  11.391  33.484   8.119
 1656POPC   C4A25398  11.640  33.472   7.819
 1656POPC   C1B25399  11.122  34.158   8.718
 1656POPC   C2B25400  10.871  34.206   8.383
 1656POPC   C3B25401  10.955  34.016   8.001
 1656POPC   C4B25402  11.302  33.867   7.772
 1657POPC   NC325403   0.439  19.599   9.441
 1657POPC   PO425404   0.275  20.201   9.243
 1657POPC   GL125405   0.363  19.878   9.013
 1657POPC   GL225406   0.720  19.898   9.099
 1657POPC   C1A25407   0.204  19.861   8.606
 1657POPC   D2A25408   0.359  20.078   8.258
 1657POPC   C3A25409   0.366  20.010   7.831
 1657POPC   C4A25410   0.360  19.620   7.643
 1657POPC   C1B25411   0.685  20.118   8.681
 1657POPC   C2B25412   0.841  19.972   8.294
 1657POPC   C3B25413   0.793  19.733   7.930
 1657POPC   C4B25414   0.773  19.879   7.490
 1658POPC   NC325415  22.533  41.940   9.244
 1658POPC   PO425416  23.026  41.602   9.514
 1658POPC   GL125417  23.101  41.445   9.120
 1658POPC   GL225418  22.748  41.462   9.024
 1658POPC   C1A25419  23.151  41.429   8.685
 1658POPC   D2A25420  22.915  41.469   8.303
 1658POPC   C3A25421  23.087  41.447   7.852
 1658POPC   C4A25422  23.097  41.656   7.429
 1658POPC   C1B25423  22.705  41.755   8.669
 1658POPC   C2B25424  22.478  41.745   8.280
 1658POPC   C3B25425  22.592  41.580   7.931
 1658POPC   C4B25426  22.698  41.839   7.637
 1659POPC   NC325427  31.382   9.994   9.599
 1659POPC   PO425428  31.961   9.554   9.549
 1659POPC   GL125429  31.583   9.733   9.206
 1659POPC   GL225430  31.336  10.065   9.120
 1659POPC   C1A25431  31.381   9.707   8.796
 1659POPC   D2A25432  31.272   9.525   8.445
 1659POPC   C3A25433  31.568   9.456   8.135
 1659POPC   C4A25434  31.309   9.457   7.785
 1659POPC   C1B25435  31.550  10.184   8.729
 1659POPC   C2B25436  31.672   9.959   8.326
 1659POPC   C3B25437  31.623   9.906   7.866
 1659POPC   C4B25438  31.570   9.728   7.435
 1660POPC   NC325439   9.793  22.316   9.597
 1660POPC   PO425440  10.318  21.981   9.760
 1660POPC   GL125441  10.016  21.916   9.360
 1660POPC   GL225442   9.631  21.905   9.270
 1660POPC   C1A25443  10.007  21.926   8.887
 1660POPC   D2A25444   9.982  21.883   8.406
 1660POPC   C3A25445  10.035  22.319   8.196
 1660POPC   C4A25446  10.101  22.710   7.908
 1660POPC   C1B25447   9.509  22.047   8.824
 1660POPC   C2B25448   9.511  22.090   8.339
 1660POPC   C3B25449   9.728  21.984   7.931
 1660POPC   C4B25450   9.546  21.943   7.534
 1661POPC   NC325451   7.942  38.760   9.569
 1661POPC   PO425452   8.383  38.226   9.437
 1661POPC   GL125453   8.194  38.292   9.094
 1661POPC   GL225454   8.099  38.621   9.118
 1661POPC   C1A25455   8.059  38.315   8.708
 1661POPC   D2A25456   7.937  38.559   8.390
 1661POPC   C3A25457   7.996  38.343   8.030
 1661POPC   C4A25458   8.225  38.364   7.709
 1661POPC   C1B25459   8.168  38.840   8.773
 1661POPC   C2B25460   8.205  38.990   8.395
 1661POPC   C3B25461   8.235  38.822   8.022
 1661POPC   C4B25462   8.273  38.854   7.586
 1662POPC   NC325463  44.855  21.235   9.468
 1662POPC   PO425464  44.322  21.123   9.798
 1662POPC   GL125465  44.459  21.375   9.197
 1662POPC   GL225466  44.730  21.199   8.996
 1662POPC   C1A25467  44.567  21.566   8.737
 1662POPC   D2A25468  44.525  21.386   8.365
 1662POPC   C3A25469  44.586  21.540   7.955
 1662POPC   C4A25470  44.331  21.291   7.643
 1662POPC   C1B25471  44.467  21.010   8.706
 1662POPC   C2B25472  44.621  20.808   8.379
 1662POPC   C3B25473  44.562  21.024   8.021
 1662POPC   C4B25474  44.832  21.132   7.739
 1663POPC   NC325475   0.641  21.153   9.645
 1663POPC   PO425476   0.613  21.835   9.530
 1663POPC   GL125477   0.551  21.476   9.225
 1663POPC   GL225478   0.217  21.344   9.120
 1663POPC   C1A25479   0.594  21.294   8.791
 1663POPC   D2A25480   0.499  21.114   8.380
 1663POPC   C3A25481   0.654  21.362   8.059
 1663POPC   C4A25482   0.731  21.284   7.638
 1663POPC   C1B25483   0.074  21.249   8.654
 1663POPC   C2B25484   0.034  21.298   8.190
 1663POPC   C3B25485   0.234  21.417   7.773
 1663POPC   C4B25486   0.113  21.420   7.356
 1664POPC   NC325487  40.188  33.101   9.461
 1664POPC   PO425488  39.514  32.811   9.563
 1664POPC   GL125489  39.709  32.835   9.118
 1664POPC   GL225490  40.071  32.877   9.041
 1664POPC   C1A25491  39.781  32.823   8.642
 1664POPC   D2A25492  39.855  33.150   8.301
 1664POPC   C3A25493  40.037  33.018   7.916
 1664POPC   C4A25494  40.430  32.806   7.863
 1664POPC   C1B25495  40.176  33.235   8.749
 1664POPC   C2B25496  40.150  33.561   8.427
 1664POPC   C3B25497  40.113  33.515   7.988
 1664POPC   C4B25498  40.014  33.437   7.541
 1665POPC   NC325499   1.680  16.855   9.290
 1665POPC   PO425500   1.204  16.732   9.745
 1665POPC   GL125501   1.136  16.870   9.268
 1665POPC   GL225502   1.196  16.552   9.126
 1665POPC   C1A25503   1.004  16.873   8.760
 1665POPC   D2A25504   1.092  16.801   8.268
 1665POPC   C3A25505   0.895  16.961   7.871
 1665POPC   C4A25506   0.888  16.761   7.426
 1665POPC   C1B25507   1.357  16.504   8.687
 1665POPC   C2B25508   1.622  16.243   8.387
 1665POPC   C3B25509   1.526  16.290   7.935
 1665POPC   C4B25510   1.221  16.575   7.774
 1666POPC   NC325511   8.717  21.192   9.347
 1666POPC   PO425512   8.010  21.271   9.526
 1666POPC   GL125513   8.060  21.268   9.119
 1666POPC   GL225514   8.351  21.441   9.101
 1666POPC   C1A25515   7.976  21.024   8.765
 1666POPC   D2A25516   8.217  20.921   8.379
 1666POPC   C3A25517   8.247  21.100   7.978
 1666POPC   C4A25518   8.062  21.213   7.617
 1666POPC   C1B25519   8.413  21.284   8.702
 1666POPC   C2B25520   8.201  21.442   8.354
 1666POPC   C3B25521   8.237  21.640   7.966
 1666POPC   C4B25522   8.411  21.581   7.590
 1667POPC   NC325523   8.037  39.618   9.399
 1667POPC   PO425524   8.374  39.015   9.514
 1667POPC   GL125525   8.234  39.191   9.137
 1667POPC   GL225526   7.890  39.109   9.115
 1667POPC   C1A25527   8.283  39.384   8.727
 1667POPC   D2A25528   8.072  39.478   8.310
 1667POPC   C3A25529   8.171  39.343   7.913
 1667POPC   C4A25530   8.482  39.644   7.816
 1667POPC   C1B25531   7.810  39.211   8.666
 1667POPC   C2B25532   7.717  38.996   8.246
 1667POPC   C3B25533   7.801  38.900   7.811
 1667POPC   C4B25534   7.928  39.219   7.456
 1668POPC   NC325535  37.094  38.758   9.491
 1668POPC   PO425536  36.716  38.234   9.511
 1668POPC   GL125537  36.870  38.462   9.143
 1668POPC   GL225538  36.669  38.789   9.127
 1668POPC   C1A25539  36.766  38.481   8.719
 1668POPC   D2A25540  36.470  38.390   8.401
 1668POPC   C3A25541  36.690  38.354   8.044
 1668POPC   C4A25542  37.127  38.261   7.914
 1668POPC   C1B25543  36.623  38.992   8.707
 1668POPC   C2B25544  36.801  38.820   8.316
 1668POPC   C3B25545  37.216  38.700   8.155
 1668POPC   C4B25546  37.292  38.716   7.697
 1669POPC   NC325547   2.168  14.105   9.397
 1669POPC   PO425548   2.046  14.701   9.472
 1669POPC   GL125549   2.016  14.592   9.072
 1669POPC   GL225550   1.780  14.327   9.082
 1669POPC   C1A25551   2.066  14.849   8.715
 1669POPC   D2A25552   2.251  14.987   8.344
 1669POPC   C3A25553   2.176  14.743   7.967
 1669POPC   C4A25554   1.946  14.440   7.709
 1669POPC   C1B25555   1.786  14.416   8.627
 1669POPC   C2B25556   1.775  14.752   8.302
 1669POPC   C3B25557   1.692  14.873   7.864
 1669POPC   C4B25558   1.449  14.589   7.553
 1670POPC   NC325559  35.202   7.001   9.387
 1670POPC   PO425560  35.652   6.433   9.518
 1670POPC   GL125561  35.547   6.691   9.179
 1670POPC   GL225562  35.278   6.469   9.062
 1670POPC   C1A25563  35.382   6.910   8.783
 1670POPC   D2A25564  35.229   6.897   8.352
 1670POPC   C3A25565  35.291   6.466   8.193
 1670POPC   C4A25566  35.445   6.402   7.779
 1670POPC   C1B25567  35.047   6.518   8.662
 1670POPC   C2B25568  34.776   6.577   8.271
 1670POPC   C3B25569  34.964   6.735   7.907
 1670POPC   C4B25570  35.369   6.894   7.824
 1671POPC   NC325571   6.466   8.902   9.652
 1671POPC   PO425572   6.467   9.528   9.595
 1671POPC   GL125573   6.710   9.257   9.225
 1671POPC   GL225574   6.745   8.872   9.228
 1671POPC   C1A25575   6.829   9.090   8.794
 1671POPC   D2A25576   6.590   8.955   8.414
 1671POPC   C3A25577   6.687   9.125   7.992
 1671POPC   C4A25578   6.392   9.187   7.663
 1671POPC   C1B25579   6.470   8.699   8.899
 1671POPC   C2B25580   6.388   8.489   8.500
 1671POPC   C3B25581   6.292   8.537   8.055
 1671POPC   C4B25582   6.525   8.704   7.725
 1672POPC   NC325583  34.676  22.773   9.336
 1672POPC   PO425584  35.326  22.753   9.461
 1672POPC   GL125585  35.349  22.535   9.100
 1672POPC   GL225586  35.025  22.595   9.006
 1672POPC   C1A25587  35.553  22.623   8.728
 1672POPC   D2A25588  35.626  22.928   8.383
 1672POPC   C3A25589  35.463  22.841   7.957
 1672POPC   C4A25590  35.292  22.875   7.534
 1672POPC   C1B25591  35.163  22.947   8.727
 1672POPC   C2B25592  35.153  23.130   8.285
 1672POPC   C3B25593  34.971  23.116   7.855
 1672POPC   C4B25594  34.794  23.002   7.439
 1673POPC   NC325595  29.786  10.037   9.510
 1673POPC   PO425596  30.177   9.447   9.421
 1673POPC   GL125597  30.054   9.766   9.157
 1673POPC   GL225598  29.719   9.627   9.163
 1673POPC   C1A25599  30.005   9.851   8.718
 1673POPC   D2A25600  30.078   9.716   8.301
 1673POPC   C3A25601  29.903   9.351   8.107
 1673POPC   C4A25602  29.778   9.589   7.767
 1673POPC   C1B25603  29.515   9.909   8.879
 1673POPC   C2B25604  29.504  10.080   8.490
 1673POPC   C3B25605  29.651   9.992   8.076
 1673POPC   C4B25606  29.758  10.274   7.755
 1674POPC   NC325607  42.640  22.579   9.263
 1674POPC   PO425608  42.073  22.204   9.554
 1674POPC   GL125609  42.281  22.142   9.125
 1674POPC   GL225610  42.099  21.806   9.087
 1674POPC   C1A25611  42.475  22.331   8.716
 1674POPC   D2A25612  42.636  22.363   8.314
 1674POPC   C3A25613  42.420  22.370   7.941
 1674POPC   C4A25614  41.996  22.163   7.863
 1674POPC   C1B25615  42.213  21.919   8.660
 1674POPC   C2B25616  42.310  21.965   8.218
 1674POPC   C3B25617  42.584  21.884   7.852
 1674POPC   C4B25618  42.592  21.721   7.429
 1675POPC   NC325619  39.198  19.738   9.585
 1675POPC   PO425620  39.512  20.100   9.167
 1675POPC   GL125621  39.450  19.784   8.946
 1675POPC   GL225622  39.102  19.861   9.000
 1675POPC   C1A25623  39.453  19.866   8.503
 1675POPC   D2A25624  39.182  20.054   8.163
 1675POPC   C3A25625  39.305  19.967   7.733
 1675POPC   C4A25626  39.526  19.757   7.349
 1675POPC   C1B25627  39.058  20.167   8.673
 1675POPC   C2B25628  38.738  20.236   8.411
 1675POPC   C3B25629  38.729  20.330   7.990
 1675POPC   C4B25630  38.756  20.086   7.609
 1676POPC   NC325631   6.471  30.675   9.641
 1676POPC   PO425632   5.809  30.722   9.467
 1676POPC   GL125633   6.183  30.837   9.215
 1676POPC   GL225634   6.143  30.550   9.062
 1676POPC   C1A25635   6.081  30.959   8.770
 1676POPC   D2A25636   5.981  30.698   8.382
 1676POPC   C3A25637   5.684  30.783   8.036
 1676POPC   C4A25638   5.567  30.484   7.712
 1676POPC   C1B25639   6.368  30.521   8.677
 1676POPC   C2B25640   6.289  30.290   8.306
 1676POPC   C3B25641   6.121  30.444   7.931
 1676POPC   C4B25642   6.020  30.739   7.654
 1677POPC   NC325643  30.477   9.800   9.500
 1677POPC   PO425644  31.165   9.574   9.518
 1677POPC   GL125645  30.916   9.730   9.136
 1677POPC   GL225646  30.557   9.641   9.043
 1677POPC   C1A25647  30.889   9.820   8.688
 1677POPC   D2A25648  31.161  10.025   8.427
 1677POPC   C3A25649  31.123   9.852   8.054
 1677POPC   C4A25650  30.795   9.750   7.771
 1677POPC   C1B25651  30.436   9.562   8.651
 1677POPC   C2B25652  30.619   9.617   8.265
 1677POPC   C3B25653  30.367   9.514   7.930
 1677POPC   C4B25654  30.261   9.838   7.703
 1678POPC   NC325655  40.214  28.556   9.413
 1678POPC   PO425656  39.684  28.140   9.432
 1678POPC   GL125657  39.818  28.417   9.131
 1678POPC   GL225658  40.087  28.150   9.100
 1678POPC   C1A25659  40.058  28.572   8.772
 1678POPC   D2A25660  40.243  28.584   8.369
 1678POPC   C3A25661  39.955  28.775   8.129
 1678POPC   C4A25662  39.867  28.696   7.706
 1678POPC   C1B25663  39.791  28.100   8.745
 1678POPC   C2B25664  39.898  28.210   8.352
 1678POPC   C3B25665  40.035  28.276   7.938
 1678POPC   C4B25666  39.839  28.227   7.525
 1679POPC   NC325667  30.907  38.924   9.490
 1679POPC   PO425668  31.221  39.504   9.327
 1679POPC   GL125669  31.047  39.265   9.014
 1679POPC   GL225670  30.736  39.200   9.094
 1679POPC   C1A25671  30.922  38.945   8.697
 1679POPC   D2A25672  30.716  39.046   8.313
 1679POPC   C3A25673  30.939  39.352   8.083
 1679POPC   C4A25674  30.953  39.587   7.715
 1679POPC   C1B25675  30.497  39.269   8.737
 1679POPC   C2B25676  30.354  39.583   8.458
 1679POPC   C3B25677  30.375  39.370   8.087
 1679POPC   C4B25678  30.608  39.161   7.752
 1680POPC   NC325679  42.643  15.747   9.311
 1680POPC   PO425680  42.333  16.187   9.742
 1680POPC   GL125681  42.302  16.164   9.273
 1680POPC   GL225682  42.291  15.872   9.000
 1680POPC   C1A25683  42.340  16.333   8.848
 1680POPC   D2A25684  42.153  16.080   8.506
 1680POPC   C3A25685  42.208  16.080   8.038
 1680POPC   C4A25686  42.309  15.809   7.693
 1680POPC   C1B25687  42.614  15.951   8.659
 1680POPC   C2B25688  42.619  16.236   8.295
 1680POPC   C3B25689  42.680  16.158   7.856
 1680POPC   C4B25690  42.804  15.765   7.646
 1681POPC   NC325691  21.883  15.246   9.361
 1681POPC   PO425692  22.430  15.540   9.559
 1681POPC   GL125693  22.359  15.232   9.181
 1681POPC   GL225694  22.221  15.453   8.975
 1681POPC   C1A25695  22.217  15.003   8.759
 1681POPC   D2A25696  22.160  15.140   8.324
 1681POPC   C3A25697  22.389  14.994   7.940
 1681POPC   C4A25698  22.294  15.114   7.518
 1681POPC   C1B25699  21.870  15.374   8.697
 1681POPC   C2B25700  21.711  15.428   8.291
 1681POPC   C3B25701  21.918  15.259   7.892
 1681POPC   C4B25702  21.869  15.395   7.451
 1682POPC   NC325703  14.344  25.142   9.570
 1682POPC   PO425704  14.402  25.739   9.257
 1682POPC   GL125705  14.610  25.460   9.026
 1682POPC   GL225706  14.553  25.101   9.081
 1682POPC   C1A25707  14.573  25.359   8.622
 1682POPC   D2A25708  14.352  25.086   8.398
 1682POPC   C3A25709  14.463  25.315   8.043
 1682POPC   C4A25710  14.342  25.207   7.647
 1682POPC   C1B25711  14.806  24.922   8.720
 1682POPC   C2B25712  14.843  24.998   8.269
 1682POPC   C3B25713  14.620  24.860   7.887
 1682POPC   C4B25714  14.682  24.886   7.410
 1683POPC   NC325715  18.942  12.186   9.636
 1683POPC   PO425716  19.479  12.125   9.231
 1683POPC   GL125717  19.279  11.821   9.036
 1683POPC   GL225718  18.943  11.823   9.175
 1683POPC   C1A25719  19.212  11.901   8.612
 1683POPC   D2A25720  18.904  11.888   8.303
 1683POPC   C3A25721  19.167  12.073   8.029
 1683POPC   C4A25722  19.432  11.873   7.800
 1683POPC   C1B25723  18.704  11.963   8.784
 1683POPC   C2B25724  18.583  12.283   8.443
 1683POPC   C3B25725  18.710  12.298   7.991
 1683POPC   C4B25726  18.762  11.863   7.795
 1684POPC   NC325727  33.006  36.356   9.768
 1684POPC   PO425728  32.874  35.805   9.476
 1684POPC   GL125729  32.919  35.934   9.084
 1684POPC   GL225730  33.164  36.104   9.129
 1684POPC   C1A25731  32.916  36.080   8.644
 1684POPC   D2A25732  33.118  35.824   8.329
 1684POPC   C3A25733  32.959  35.879   7.913
 1684POPC   C4A25734  32.710  35.865   7.479
 1684POPC   C1B25735  33.407  36.028   8.773
 1684POPC   C2B25736  33.405  36.269   8.411
 1684POPC   C3B25737  33.227  36.323   8.000
 1684POPC   C4B25738  32.872  36.318   7.710
 1685POPC   NC325739  34.447  15.182   9.304
 1685POPC   PO425740  33.903  15.298   9.702
 1685POPC   GL125741  33.758  15.143   9.256
 1685POPC   GL225742  34.005  14.989   9.134
 1685POPC   C1A25743  33.604  14.980   8.826
 1685POPC   D2A25744  33.651  15.117   8.407
 1685POPC   C3A25745  33.676  14.835   8.051
 1685POPC   C4A25746  33.810  15.129   7.717
 1685POPC   C1B25747  34.103  15.047   8.736
 1685POPC   C2B25748  34.214  14.853   8.419
 1685POPC   C3B25749  34.153  15.016   8.088
 1685POPC   C4B25750  34.305  14.973   7.744
 1686POPC   NC325751  38.971  24.852   9.508
 1686POPC   PO425752  39.476  25.371   9.622
 1686POPC   GL125753  39.224  25.343   9.270
 1686POPC   GL225754  39.358  25.030   9.214
 1686POPC   C1A25755  39.125  25.520   8.846
 1686POPC   D2A25756  38.960  25.356   8.443
 1686POPC   C3A25757  39.162  25.320   8.051
 1686POPC   C4A25758  39.184  25.573   7.680
 1686POPC   C1B25759  39.683  25.250   8.955
 1686POPC   C2B25760  39.658  25.290   8.500
 1686POPC   C3B25761  39.652  25.462   8.077
 1686POPC   C4B25762  39.549  25.234   7.698
 1687POPC   NC325763   6.590  37.030   9.370
 1687POPC   PO425764   6.105  36.816   9.643
 1687POPC   GL125765   6.281  36.779   9.097
 1687POPC   GL225766   6.669  36.676   9.027
 1687POPC   C1A25767   6.365  36.924   8.702
 1687POPC   D2A25768   6.596  36.901   8.313
 1687POPC   C3A25769   6.400  36.824   7.917
 1687POPC   C4A25770   6.185  36.999   7.554
 1687POPC   C1B25771   6.929  36.547   8.682
 1687POPC   C2B25772   6.898  36.488   8.233
 1687POPC   C3B25773   6.915  36.759   7.877
 1687POPC   C4B25774   6.886  36.556   7.495
 1688POPC   NC325775  11.059  21.572   9.496
 1688POPC   PO425776  11.608  21.159   9.631
 1688POPC   GL125777  11.453  21.432   9.219
 1688POPC   GL225778  11.679  21.696   9.126
 1688POPC   C1A25779  11.267  21.638   8.813
 1688POPC   D2A25780  11.306  21.589   8.337
 1688POPC   C3A25781  11.070  21.283   8.110
 1688POPC   C4A25782  10.917  21.081   7.711
 1688POPC   C1B25783  11.751  21.501   8.750
 1688POPC   C2B25784  11.884  21.573   8.351
 1688POPC   C3B25785  11.680  21.487   7.989
 1688POPC   C4B25786  11.375  21.385   7.698
 1689POPC   NC325787   9.032  17.859   9.789
 1689POPC   PO425788   9.345  17.311   9.593
 1689POPC   GL125789   8.902  17.470   9.378
 1689POPC   GL225790   8.908  17.768   9.184
 1689POPC   C1A25791   8.772  17.324   8.908
 1689POPC   D2A25792   8.975  17.469   8.488
 1689POPC   C3A25793   8.973  17.409   8.016
 1689POPC   C4A25794   9.247  17.257   7.684
 1689POPC   C1B25795   8.698  17.794   8.778
 1689POPC   C2B25796   8.699  17.995   8.367
 1689POPC   C3B25797   8.737  17.889   7.936
 1689POPC   C4B25798   9.012  17.722   7.581
 1690POPC   NC325799  29.729  37.887   9.350
 1690POPC   PO425800  30.343  37.929   9.642
 1690POPC   GL125801  30.194  37.741   9.199
 1690POPC   GL225802  30.117  37.371   9.190
 1690POPC   C1A25803  29.948  37.697   8.789
 1690POPC   D2A25804  29.743  37.537   8.430
 1690POPC   C3A25805  29.841  37.648   8.032
 1690POPC   C4A25806  29.525  37.533   7.756
 1690POPC   C1B25807  30.369  37.416   8.803
 1690POPC   C2B25808  30.260  37.589   8.388
 1690POPC   C3B25809  30.319  37.450   7.958
 1690POPC   C4B25810  30.005  37.333   7.658
 1691POPC   NC325811  34.414   5.830   9.460
 1691POPC   PO425812  33.973   6.368   9.545
 1691POPC   GL125813  34.333   6.256   9.205
 1691POPC   GL225814  34.701   6.235   9.200
 1691POPC   C1A25815  34.370   5.926   8.827
 1691POPC   D2A25816  34.617   5.689   8.487
 1691POPC   C3A25817  34.593   5.820   8.035
 1691POPC   C4A25818  34.866   5.758   7.639
 1691POPC   C1B25819  34.887   6.051   8.807
 1691POPC   C2B25820  34.953   6.084   8.355
 1691POPC   C3B25821  34.895   6.218   7.924
 1691POPC   C4B25822  34.714   6.399   7.575
 1692POPC   NC325823  15.508  44.706   9.415
 1692POPC   PO425824  16.195  44.530   9.529
 1692POPC   GL125825  16.001  44.780   9.216
 1692POPC   GL225826  16.295  44.739   9.051
 1692POPC   C1A25827  15.840  44.764   8.781
 1692POPC   D2A25828  15.967  44.541   8.397
 1692POPC   C3A25829  15.807  44.729   8.008
 1692POPC   C4A25830  15.821  44.631   7.582
 1692POPC   C1B25831  16.297  44.997   8.712
 1692POPC   C2B25832  16.115   0.027   8.301
 1692POPC   C3B25833  16.263  44.836   7.861
 1692POPC   C4B25834  16.205  44.901   7.377
 1693POPC   NC325835  29.287  29.441   9.504
 1693POPC   PO425836  28.767  29.871   9.612
 1693POPC   GL125837  28.910  29.927   9.138
 1693POPC   GL225838  29.244  30.013   9.074
 1693POPC   C1A25839  28.748  29.827   8.743
 1693POPC   D2A25840  28.998  29.837   8.404
 1693POPC   C3A25841  28.880  29.693   8.011
 1693POPC   C4A25842  29.181  29.775   7.656
 1693POPC   C1B25843  29.423  29.986   8.692
 1693POPC   C2B25844  29.375  30.161   8.297
 1693POPC   C3B25845  29.490  30.092   7.879
 1693POPC   C4B25846  29.444  30.160   7.407
 1694POPC   NC325847  44.001   2.901   9.397
 1694POPC   PO425848  43.529   2.351   9.407
 1694POPC   GL125849  43.802   2.528   9.117
 1694POPC   GL225850  43.674   2.861   9.003
 1694POPC   C1A25851  44.002   2.579   8.728
 1694POPC   D2A25852  43.878   2.887   8.404
 1694POPC   C3A25853  44.090   2.842   8.020
 1694POPC   C4A25854  44.353   2.591   7.762
 1694POPC   C1B25855  43.699   3.240   8.758
 1694POPC   C2B25856  43.769   3.404   8.345
 1694POPC   C3B25857  43.642   3.184   8.007
 1694POPC   C4B25858  43.778   3.026   7.668
 1695POPC   NC325859  28.108  35.661   9.585
 1695POPC   PO425860  28.750  35.382   9.439
 1695POPC   GL125861  28.419  35.232   9.186
 1695POPC   GL225862  28.245  35.526   9.117
 1695POPC   C1A25863  28.280  35.092   8.788
 1695POPC   D2A25864  28.245  35.324   8.380
 1695POPC   C3A25865  28.331  35.118   7.995
 1695POPC   C4A25866  28.117  35.112   7.598
 1695POPC   C1B25867  28.476  35.558   8.767
 1695POPC   C2B25868  28.711  35.559   8.386
 1695POPC   C3B25869  28.500  35.628   7.993
 1695POPC   C4B25870  28.378  35.549   7.579
 1696POPC   NC325871  42.940   4.827   9.568
 1696POPC   PO425872  43.492   5.195   9.626
 1696POPC   GL125873  43.177   5.185   9.259
 1696POPC   GL225874  42.949   5.469   9.198
 1696POPC   C1A25875  42.918   5.106   8.856
 1696POPC   D2A25876  42.737   5.245   8.480
 1696POPC   C3A25877  42.951   5.213   8.109
 1696POPC   C4A25878  43.166   5.130   7.755
 1696POPC   C1B25879  42.876   5.621   8.780
 1696POPC   C2B25880  42.883   5.720   8.318
 1696POPC   C3B25881  42.892   5.671   7.855
 1696POPC   C4B25882  42.864   5.432   7.457
 1697POPC   NC325883  29.703   2.141   9.925
 1697POPC   PO425884  30.172   1.638   9.725
 1697POPC   GL125885  30.017   1.780   9.278
 1697POPC   GL225886  29.695   1.683   9.102
 1697POPC   C1A25887  29.903   2.126   8.937
 1697POPC   D2A25888  29.772   2.058   8.468
 1697POPC   C3A25889  29.948   2.316   8.093
 1697POPC   C4A25890  29.917   2.224   7.618
 1697POPC   C1B25891  29.973   1.655   8.732
 1697POPC   C2B25892  30.150   1.761   8.321
 1697POPC   C3B25893  29.874   1.826   7.979
 1697POPC   C4B25894  29.882   1.674   7.591
 1698POPC   NC325895   4.493   6.772   9.383
 1698POPC   PO425896   3.968   6.350   9.466
 1698POPC   GL125897   4.086   6.609   9.083
 1698POPC   GL225898   4.288   6.923   8.951
 1698POPC   C1A25899   4.207   6.466   8.657
 1698POPC   D2A25900   4.315   6.684   8.248
 1698POPC   C3A25901   4.180   6.566   7.800
 1698POPC   C4A25902   4.335   6.396   7.395
 1698POPC   C1B25903   4.647   6.756   8.682
 1698POPC   C2B25904   4.865   6.738   8.275
 1698POPC   C3B25905   4.636   6.936   7.947
 1698POPC   C4B25906   4.589   6.816   7.560
 1699POPC   NC325907  33.250  42.494   9.400
 1699POPC   PO425908  32.787  42.078   9.576
 1699POPC   GL125909  32.937  42.147   9.171
 1699POPC   GL225910  33.262  42.073   9.048
 1699POPC   C1A25911  32.855  42.227   8.744
 1699POPC   D2A25912  33.012  42.126   8.328
 1699POPC   C3A25913  32.900  42.359   7.970
 1699POPC   C4A25914  33.021  42.310   7.566
 1699POPC   C1B25915  33.356  42.352   8.691
 1699POPC   C2B25916  33.215  42.616   8.295
 1699POPC   C3B25917  33.261  42.699   7.826
 1699POPC   C4B25918  33.502  42.425   7.520
 1700POPC   NC325919  10.189  15.378   9.577
 1700POPC   PO425920  10.825  15.330   9.524
 1700POPC   GL125921  10.509  15.224   9.210
 1700POPC   GL225922  10.257  15.452   9.041
 1700POPC   C1A25923  10.441  14.935   8.899
 1700POPC   D2A25924  10.347  14.769   8.499
 1700POPC   C3A25925  10.411  15.080   8.166
 1700POPC   C4A25926  10.467  14.967   7.740
 1700POPC   C1B25927  10.627  15.429   8.735
 1700POPC   C2B25928  10.827  15.365   8.315
 1700POPC   C3B25929  10.711  15.464   7.900
 1700POPC   C4B25930  10.570  15.406   7.478
 1701POPC   NC325931  37.069  15.421   9.492
 1701POPC   PO425932  36.679  14.902   9.471
 1701POPC   GL125933  36.804  15.086   9.119
 1701POPC   GL225934  37.144  15.023   9.160
 1701POPC   C1A25935  36.650  15.289   8.727
 1701POPC   D2A25936  36.656  15.550   8.330
 1701POPC   C3A25937  36.896  15.260   8.094
 1701POPC   C4A25938  36.762  15.033   7.738
 1701POPC   C1B25939  37.224  15.275   8.823
 1701POPC   C2B25940  37.414  15.119   8.454
 1701POPC   C3B25941  37.471  15.243   8.065
 1701POPC   C4B25942  37.225  15.315   7.709
 1702POPC   NC325943  12.951   0.808   9.357
 1702POPC   PO425944  12.528   1.340   9.541
 1702POPC   GL125945  12.803   1.299   9.167
 1702POPC   GL225946  13.027   1.619   9.075
 1702POPC   C1A25947  12.736   1.049   8.769
 1702POPC   D2A25948  12.431   1.172   8.476
 1702POPC   C3A25949  12.433   1.142   8.054
 1702POPC   C4A25950  12.498   1.272   7.648
 1702POPC   C1B25951  13.112   1.381   8.746
 1702POPC   C2B25952  12.909   1.373   8.368
 1702POPC   C3B25953  12.949   1.174   8.008
 1702POPC   C4B25954  13.181   1.063   7.677
 1703POPC   NC325955   7.026   9.465   9.554
 1703POPC   PO425956   7.640   9.831   9.596
 1703POPC   GL125957   7.515   9.935   9.183
 1703POPC   GL225958   7.207   9.798   9.186
 1703POPC   C1A25959   7.407   9.868   8.741
 1703POPC   D2A25960   7.111   9.879   8.427
 1703POPC   C3A25961   7.407   9.849   8.079
 1703POPC   C4A25962   7.445   9.460   7.819
 1703POPC   C1B25963   6.998  10.149   8.909
 1703POPC   C2B25964   6.877  10.343   8.495
 1703POPC   C3B25965   7.018  10.238   8.072
 1703POPC   C4B25966   7.112   9.979   7.701
 1704POPC   NC325967  42.426  31.853   9.320
 1704POPC   PO425968  42.707  32.443   9.510
 1704POPC   GL125969  42.486  32.323   9.144
 1704POPC   GL225970  42.115  32.365   9.142
 1704POPC   C1A25971  42.342  32.150   8.738
 1704POPC   D2A25972  42.146  32.265   8.392
 1704POPC   C3A25973  42.319  32.048   8.093
 1704POPC   C4A25974  42.218  32.055   7.683
 1704POPC   C1B25975  42.008  32.636   8.775
 1704POPC   C2B25976  41.958  32.733   8.313
 1704POPC   C3B25977  42.115  32.524   7.898
 1704POPC   C4B25978  42.050  32.442   7.407
 1705POPC   NC325979  10.865  23.116   9.545
 1705POPC   PO425980  10.267  22.749   9.484
 1705POPC   GL125981  10.574  22.789   9.240
 1705POPC   GL225982  10.615  23.106   9.108
 1705POPC   C1A25983  10.644  22.656   8.811
 1705POPC   D2A25984  10.401  22.668   8.416
 1705POPC   C3A25985  10.596  22.608   8.021
 1705POPC   C4A25986  10.681  22.566   7.579
 1705POPC   C1B25987  10.535  23.124   8.667
 1705POPC   C2B25988  10.761  23.039   8.283
 1705POPC   C3B25989  10.604  23.152   7.884
 1705POPC   C4B25990  10.208  23.351   7.743
 1706POPC   NC325991  22.226  39.818  10.059
 1706POPC   PO425992  22.258  39.908   9.371
 1706POPC   GL125993  22.022  39.705   8.998
 1706POPC   GL225994  21.811  39.406   9.069
 1706POPC   C1A25995  22.146  39.469   8.592
 1706POPC   D2A25996  22.199  39.242   8.183
 1706POPC   C3A25997  22.327  39.413   7.779
 1706POPC   C4A25998  22.102  39.401   7.388
 1706POPC   C1B25999  21.671  39.277   8.648
 1706POPC   C2B26000  21.731  39.479   8.236
 1706POPC   C3B26001  21.808  39.348   7.815
 1706POPC   C4B26002  22.064  38.974   7.662
 1707POPC   NC326003  21.392  44.218   9.816
 1707POPC   PO426004  21.614  43.675   9.409
 1707POPC   GL126005  21.366  43.826   9.073
 1707POPC   GL226006  21.160  44.137   8.992
 1707POPC   C1A26007  21.378  43.723   8.651
 1707POPC   D2A26008  21.182  43.916   8.321
 1707POPC   C3A26009  21.390  43.804   8.037
 1707POPC   C4A26010  21.220  43.607   7.704
 1707POPC   C1B26011  21.405  44.235   8.664
 1707POPC   C2B26012  21.700  44.251   8.330
 1707POPC   C3B26013  21.601  44.378   7.901
 1707POPC   C4B26014  21.401  44.074   7.622
 1708POPC   NC326015  31.669   9.247   9.339
 1708POPC   PO426016  31.382   8.696   9.612
 1708POPC   GL126017  31.224   8.921   9.180
 1708POPC   GL226018  31.265   9.294   9.065
 1708POPC   C1A26019  31.206   8.894   8.748
 1708POPC   D2A26020  31.402   9.017   8.358
 1708POPC   C3A26021  31.310   8.833   8.008
 1708POPC   C4A26022  31.143   8.526   7.778
 1708POPC   C1B26023  31.627   9.276   8.721
 1708POPC   C2B26024  31.901   8.968   8.526
 1708POPC   C3B26025  31.864   8.919   8.098
 1708POPC   C4B26026  31.647   9.089   7.752
 1709POPC   NC326027  24.227  42.413   9.448
 1709POPC   PO426028  24.896  42.353   9.423
 1709POPC   GL126029  24.610  42.349   9.105
 1709POPC   GL226030  24.464  42.028   9.216
 1709POPC   C1A26031  24.596  42.536   8.696
 1709POPC   D2A26032  24.748  42.795   8.344
 1709POPC   C3A26033  24.457  42.708   7.996
 1709POPC   C4A26034  24.577  42.408   7.701
 1709POPC   C1B26035  24.638  41.909   8.851
 1709POPC   C2B26036  24.488  42.012   8.487
 1709POPC   C3B26037  24.440  42.188   8.129
 1709POPC   C4B26038  24.301  41.996   7.772
 1710POPC   NC326039  29.259  41.191   9.501
 1710POPC   PO426040  28.895  41.737   9.373
 1710POPC   GL126041  29.169  41.707   9.085
 1710POPC   GL226042  29.134  41.352   9.037
 1710POPC   C1A26043  29.083  41.695   8.674
 1710POPC   D2A26044  29.262  41.458   8.388
 1710POPC   C3A26045  29.066  41.492   8.042
 1710POPC   C4A26046  29.214  41.541   7.654
 1710POPC   C1B26047  29.057  41.089   8.686
 1710POPC   C2B26048  28.704  41.067   8.397
 1710POPC   C3B26049  28.628  41.205   7.985
 1710POPC   C4B26050  28.884  41.120   7.653
 1711POPC   NC326051  32.608  10.610   9.579
 1711POPC   PO426052  32.015  10.947   9.443
 1711POPC   GL126053  32.311  10.685   9.162
 1711POPC   GL226054  32.401  10.331   9.216
 1711POPC   C1A26055  32.327  10.754   8.730
 1711POPC   D2A26056  32.120  10.540   8.364
 1711POPC   C3A26057  32.105  10.755   7.957
 1711POPC   C4A26058  31.929  10.714   7.517
 1711POPC   C1B26059  32.561  10.297   8.817
 1711POPC   C2B26060  32.642  10.449   8.440
 1711POPC   C3B26061  32.462  10.272   8.090
 1711POPC   C4B26062  32.473  10.136   7.694
 1712POPC   NC326063  10.955  35.208   9.518
 1712POPC   PO426064  11.673  35.044   9.528
 1712POPC   GL126065  11.384  35.094   9.206
 1712POPC   GL226066  11.286  35.413   9.145
 1712POPC   C1A26067  11.231  35.010   8.795
 1712POPC   D2A26068  11.170  35.226   8.439
 1712POPC   C3A26069  11.049  35.075   8.054
 1712POPC   C4A26070  11.171  35.167   7.658
 1712POPC   C1B26071  11.275  35.658   8.764
 1712POPC   C2B26072  11.468  35.618   8.355
 1712POPC   C3B26073  11.294  35.543   7.980
 1712POPC   C4B26074  11.485  35.569   7.582
 1713POPC   NC326075  41.091  26.541   9.472
 1713POPC   PO426076  41.730  26.572   9.642
 1713POPC   GL126077  41.573  26.682   9.247
 1713POPC   GL226078  41.498  26.375   9.171
 1713POPC   C1A26079  41.588  26.878   8.834
 1713POPC   D2A26080  41.696  27.132   8.461
 1713POPC   C3A26081  41.563  26.986   8.040
 1713POPC   C4A26082  41.805  27.044   7.669
 1713POPC   C1B26083  41.747  26.375   8.797
 1713POPC   C2B26084  41.640  26.581   8.413
 1713POPC   C3B26085  41.513  26.456   8.022
 1713POPC   C4B26086  41.648  26.555   7.638
 1714POPC   NC326087   1.328  20.033   9.587
 1714POPC   PO426088   0.939  19.526   9.437
 1714POPC   GL126089   1.213  19.715   9.145
 1714POPC   GL226090   1.347  20.056   9.092
 1714POPC   C1A26091   1.084  19.792   8.733
 1714POPC   D2A26092   1.171  19.591   8.371
 1714POPC   C3A26093   1.290  19.855   8.055
 1714POPC   C4A26094   1.166  20.072   7.753
 1714POPC   C1B26095   1.584  19.847   8.783
 1714POPC   C2B26096   1.676  19.796   8.384
 1714POPC   C3B26097   1.784  19.927   7.978
 1714POPC   C4B26098   1.602  19.807   7.604
 1715POPC   NC326099  38.954  35.239   9.623
 1715POPC   PO426100  39.589  35.502   9.687
 1715POPC   GL126101  39.399  35.393   9.252
 1715POPC   GL226102  39.044  35.405   9.156
 1715POPC   C1A26103  39.371  35.387   8.765
 1715POPC   D2A26104  39.209  35.524   8.329
 1715POPC   C3A26105  39.135  35.194   8.072
 1715POPC   C4A26106  39.312  34.866   7.881
 1715POPC   C1B26107  38.884  35.518   8.743
 1715POPC   C2B26108  38.702  35.625   8.348
 1715POPC   C3B26109  38.874  35.685   7.943
 1715POPC   C4B26110  39.245  35.608   7.745
 1716POPC   NC326111  30.767  43.734   9.536
 1716POPC   PO426112  30.184  43.929   9.289
 1716POPC   GL126113  30.528  44.123   9.112
 1716POPC   GL226114  30.867  44.008   9.117
 1716POPC   C1A26115  30.527  44.000   8.694
 1716POPC   D2A26116  30.557  43.786   8.293
 1716POPC   C3A26117  30.535  44.035   7.974
 1716POPC   C4A26118  30.379  43.847   7.651
 1716POPC   C1B26119  31.046  43.948   8.753
 1716POPC   C2B26120  31.055  43.736   8.376
 1716POPC   C3B26121  30.961  43.636   7.960
 1716POPC   C4B26122  30.875  43.785   7.554
 1717POPC   NC326123  39.011  12.926   9.560
 1717POPC   PO426124  39.528  13.288   9.348
 1717POPC   GL126125  39.222  13.076   9.124
 1717POPC   GL226126  38.842  13.207   9.178
 1717POPC   C1A26127  39.372  12.885   8.759
 1717POPC   D2A26128  39.411  12.713   8.383
 1717POPC   C3A26129  39.377  12.897   8.007
 1717POPC   C4A26130  39.188  12.689   7.664
 1717POPC   C1B26131  38.866  13.015   8.777
 1717POPC   C2B26132  39.076  13.163   8.396
 1717POPC   C3B26133  39.102  13.335   7.974
 1717POPC   C4B26134  38.959  13.157   7.580
 1718POPC   NC326135  35.393  12.890   9.321
 1718POPC   PO426136  35.707  12.299   9.397
 1718POPC   GL126137  35.559  12.527   9.000
 1718POPC   GL226138  35.210  12.691   8.891
 1718POPC   C1A26139  35.544  12.576   8.518
 1718POPC   D2A26140  35.314  12.826   8.233
 1718POPC   C3A26141  35.467  12.769   7.831
 1718POPC   C4A26142  35.664  12.611   7.415
 1718POPC   C1B26143  35.022  13.095   8.658
 1718POPC   C2B26144  35.129  13.315   8.260
 1718POPC   C3B26145  35.118  13.162   7.832
 1718POPC   C4B26146  35.048  13.305   7.407
 1719POPC   NC326147   7.868  38.041   9.422
 1719POPC   PO426148   7.496  38.586   9.625
 1719POPC   GL126149   7.576  38.681   9.202
 1719POPC   GL226150   7.652  38.359   9.087
 1719POPC   C1A26151   7.642  38.753   8.779
 1719POPC   D2A26152   7.391  38.669   8.452
 1719POPC   C3A26153   7.509  38.494   8.079
 1719POPC   C4A26154   7.468  38.514   7.652
 1719POPC   C1B26155   7.271  38.315   8.813
 1719POPC   C2B26156   7.075  38.273   8.379
 1719POPC   C3B26157   7.097  38.221   7.916
 1719POPC   C4B26158   7.300  38.022   7.590
 1720POPC   NC326159  16.891  10.764   9.516
 1720POPC   PO426160  17.103  10.084   9.542
 1720POPC   GL126161  16.894  10.333   9.247
 1720POPC   GL226162  17.168  10.430   9.084
 1720POPC   C1A26163  16.698  10.505   8.856
 1720POPC   D2A26164  16.472  10.293   8.515
 1720POPC   C3A26165  16.699  10.259   8.153
 1720POPC   C4A26166  16.645  10.514   7.824
 1720POPC   C1B26167  17.274  10.472   8.685
 1720POPC   C2B26168  16.984  10.609   8.413
 1720POPC   C3B26169  17.035  10.751   8.006
 1720POPC   C4B26170  17.209  10.327   7.936
 1721POPC   NC326171  15.694  11.920   9.750
 1721POPC   PO426172  16.231  11.940   9.451
 1721POPC   GL126173  16.127  12.133   9.081
 1721POPC   GL226174  15.785  12.128   9.019
 1721POPC   C1A26175  16.112  12.128   8.634
 1721POPC   D2A26176  15.787  12.116   8.368
 1721POPC   C3A26177  15.879  11.927   8.018
 1721POPC   C4A26178  15.942  12.129   7.669
 1721POPC   C1B26179  15.661  11.776   8.746
 1721POPC   C2B26180  15.507  11.606   8.374
 1721POPC   C3B26181  15.619  11.501   7.949
 1721POPC   C4B26182  15.715  11.645   7.527
 1722POPC   NC326183  17.525  25.772   9.471
 1722POPC   PO426184  17.365  26.403   9.635
 1722POPC   GL126185  17.375  26.303   9.189
 1722POPC   GL226186  17.686  26.142   9.154
 1722POPC   C1A26187  17.308  25.983   8.834
 1722POPC   D2A26188  17.490  25.842   8.429
 1722POPC   C3A26189  17.339  26.029   8.045
 1722POPC   C4A26190  17.438  25.844   7.665
 1722POPC   C1B26191  17.823  25.833   8.826
 1722POPC   C2B26192  18.030  25.824   8.436
 1722POPC   C3B26193  17.865  25.908   8.023
 1722POPC   C4B26194  17.783  26.223   7.736
 1723POPC   NC326195  22.663  31.044   9.389
 1723POPC   PO426196  22.933  31.535   9.748
 1723POPC   GL126197  22.957  31.470   9.274
 1723POPC   GL226198  23.118  31.205   9.205
 1723POPC   C1A26199  22.778  31.395   8.833
 1723POPC   D2A26200  22.615  31.682   8.499
 1723POPC   C3A26201  22.858  31.671   8.102
 1723POPC   C4A26202  22.786  31.610   7.677
 1723POPC   C1B26203  23.253  31.188   8.829
 1723POPC   C2B26204  23.125  31.362   8.428
 1723POPC   C3B26205  23.329  31.454   8.030
 1723POPC   C4B26206  23.219  31.377   7.614
 1724POPC   NC326207  31.918  34.741   9.471
 1724POPC   PO426208  32.394  34.141   9.597
 1724POPC   GL126209  32.368  34.304   9.144
 1724POPC   GL226210  32.275  34.683   9.112
 1724POPC   C1A26211  32.196  34.381   8.725
 1724POPC   D2A26212  32.129  34.671   8.416
 1724POPC   C3A26213  32.139  34.428   8.046
 1724POPC   C4A26214  32.365  34.397   7.637
 1724POPC   C1B26215  31.911  34.898   8.842
 1724POPC   C2B26216  31.671  34.989   8.445
 1724POPC   C3B26217  31.801  34.838   8.061
 1724POPC   C4B26218  31.974  34.735   7.669
 1725POPC   NC326219  20.793  10.774   9.866
 1725POPC   PO426220  20.863  11.385   9.576
 1725POPC   GL126221  20.640  11.486   9.186
 1725POPC   GL226222  20.855  11.756   9.115
 1725POPC   C1A26223  20.591  11.268   8.790
 1725POPC   D2A26224  20.432  11.060   8.411
 1725POPC   C3A26225  20.611  11.156   8.013
 1725POPC   C4A26226  20.443  11.374   7.669
 1725POPC   C1B26227  20.863  11.711   8.724
 1725POPC   C2B26228  20.770  11.487   8.357
 1725POPC   C3B26229  20.756  11.678   7.977
 1725POPC   C4B26230  20.877  11.618   7.570
 1726POPC   NC326231  13.920  33.217   9.341
 1726POPC   PO426232  14.538  33.115   9.463
 1726POPC   GL126233  14.547  32.910   9.063
 1726POPC   GL226234  14.287  33.147   9.002
 1726POPC   C1A26235  14.510  32.950   8.600
 1726POPC   D2A26236  14.507  33.304   8.317
 1726POPC   C3A26237  14.593  33.100   7.919
 1726POPC   C4A26238  14.916  32.819   7.861
 1726POPC   C1B26239  14.034  33.178   8.651
 1726POPC   C2B26240  14.097  33.010   8.243
 1726POPC   C3B26241  14.137  33.315   7.928
 1726POPC   C4B26242  14.261  33.220   7.521
 1727POPC   NC326243   6.862  34.917   9.480
 1727POPC   PO426244   6.447  35.484   9.437
 1727POPC   GL126245   6.671  35.237   9.087
 1727POPC   GL226246   7.001  35.115   9.044
 1727POPC   C1A26247   6.731  35.215   8.621
 1727POPC   D2A26248   6.528  35.456   8.319
 1727POPC   C3A26249   6.494  35.353   7.914
 1727POPC   C4A26250   6.356  35.314   7.497
 1727POPC   C1B26251   7.044  35.535   8.858
 1727POPC   C2B26252   6.990  35.646   8.416
 1727POPC   C3B26253   6.996  35.395   8.037
 1727POPC   C4B26254   6.870  35.255   7.604
 1728POPC   NC326255  12.096  30.892   9.486
 1728POPC   PO426256  12.464  30.365   9.596
 1728POPC   GL126257  12.304  30.554   9.173
 1728POPC   GL226258  11.929  30.522   9.148
 1728POPC   C1A26259  12.216  30.845   8.810
 1728POPC   D2A26260  12.233  30.700   8.368
 1728POPC   C3A26261  12.004  30.914   8.063
 1728POPC   C4A26262  11.905  30.944   7.638
 1728POPC   C1B26263  12.042  30.375   8.721
 1728POPC   C2B26264  11.933  30.303   8.272
 1728POPC   C3B26265  12.006  30.452   7.838
 1728POPC   C4B26266  11.814  30.314   7.448
 1729POPC   NC326267  26.329  24.389   9.428
 1729POPC   PO426268  25.732  24.687   9.484
 1729POPC   GL126269  25.922  24.620   9.143
 1729POPC   GL226270  26.224  24.791   9.080
 1729POPC   C1A26271  25.829  24.686   8.756
 1729POPC   D2A26272  25.930  24.460   8.417
 1729POPC   C3A26273  25.913  24.730   8.117
 1729POPC   C4A26274  25.899  24.554   7.732
 1729POPC   C1B26275  26.313  24.529   8.748
 1729POPC   C2B26276  26.450  24.602   8.338
 1729POPC   C3B26277  26.303  24.393   8.031
 1729POPC   C4B26278  26.306  24.222   7.665
 1730POPC   NC326279   6.336  18.060   9.408
 1730POPC   PO426280   7.011  18.369   9.540
 1730POPC   GL126281   6.868  18.251   9.086
 1730POPC   GL226282   6.900  17.885   8.937
 1730POPC   C1A26283   6.853  18.289   8.618
 1730POPC   D2A26284   6.859  18.007   8.241
 1730POPC   C3A26285   6.881  18.197   7.812
 1730POPC   C4A26286   6.904  18.634   7.744
 1730POPC   C1B26287   6.499  17.914   8.680
 1730POPC   C2B26288   6.363  18.143   8.293
 1730POPC   C3B26289   6.414  18.003   7.851
 1730POPC   C4B26290   6.575  18.054   7.421
 1731POPC   NC326291  41.207  15.395   9.773
 1731POPC   PO426292  40.703  15.368   9.427
 1731POPC   GL126293  40.466  15.228   9.057
 1731POPC   GL226294  40.772  15.042   8.983
 1731POPC   C1A26295  40.481  15.104   8.584
 1731POPC   D2A26296  40.792  15.144   8.211
 1731POPC   C3A26297  40.716  15.138   7.761
 1731POPC   C4A26298  40.531  14.910   7.420
 1731POPC   C1B26299  40.994  14.876   8.599
 1731POPC   C2B26300  41.187  14.826   8.155
 1731POPC   C3B26301  41.235  15.061   7.754
 1731POPC   C4B26302  41.511  15.128   7.386
 1732POPC   NC326303  32.547  41.001   9.346
 1732POPC   PO426304  32.366  40.344   9.467
 1732POPC   GL126305  32.448  40.545   9.077
 1732POPC   GL226306  32.167  40.736   9.140
 1732POPC   C1A26307  32.457  40.773   8.653
 1732POPC   D2A26308  32.593  41.062   8.283
 1732POPC   C3A26309  32.610  40.831   7.895
 1732POPC   C4A26310  32.288  40.637   7.655
 1732POPC   C1B26311  32.005  40.991   8.837
 1732POPC   C2B26312  32.078  41.090   8.434
 1732POPC   C3B26313  32.128  40.812   8.119
 1732POPC   C4B26314  31.856  40.870   7.779
 1733POPC   NC326315  24.758  32.399   9.399
 1733POPC   PO426316  24.295  32.006   9.591
 1733POPC   GL126317  24.324  32.216   9.213
 1733POPC   GL226318  24.587  31.989   9.146
 1733POPC   C1A26319  24.388  32.397   8.809
 1733POPC   D2A26320  24.444  32.204   8.392
 1733POPC   C3A26321  24.370  32.328   7.982
 1733POPC   C4A26322  24.531  32.595   7.663
 1733POPC   C1B26323  24.790  31.785   8.823
 1733POPC   C2B26324  24.582  31.690   8.453
 1733POPC   C3B26325  24.553  31.837   8.048
 1733POPC   C4B26326  24.586  31.909   7.623
 1734POPC   NC326327   5.568  19.880   9.356
 1734POPC   PO426328   4.863  19.700   9.563
 1734POPC   GL126329   5.050  19.892   9.219
 1734POPC   GL226330   5.222  19.669   9.062
 1734POPC   C1A26331   5.067  20.094   8.778
 1734POPC   D2A26332   5.254  19.922   8.363
 1734POPC   C3A26333   5.156  19.965   7.927
 1734POPC   C4A26334   5.349  20.091   7.550
 1734POPC   C1B26335   5.046  19.585   8.701
 1734POPC   C2B26336   4.926  19.441   8.326
 1734POPC   C3B26337   4.922  19.505   7.917
 1734POPC   C4B26338   4.968  19.638   7.493
 1735POPC   NC326339  26.354   8.795   9.600
 1735POPC   PO426340  26.385   9.356   9.255
 1735POPC   GL126341  26.049   9.191   8.990
 1735POPC   GL226342  25.995   8.834   8.973
 1735POPC   C1A26343  25.956   9.201   8.576
 1735POPC   D2A26344  26.073   8.879   8.312
 1735POPC   C3A26345  25.864   8.911   7.924
 1735POPC   C4A26346  25.948   9.208   7.631
 1735POPC   C1B26347  26.321   8.542   8.747
 1735POPC   C2B26348  26.529   8.624   8.341
 1735POPC   C3B26349  26.406   8.752   7.914
 1735POPC   C4B26350  26.452   8.717   7.449
 1736POPC   NC326351  34.929  29.384   9.467
 1736POPC   PO426352  34.270  29.245   9.580
 1736POPC   GL126353  34.461  29.372   9.149
 1736POPC   GL226354  34.748  29.127   9.061
 1736POPC   C1A26355  34.527  29.394   8.670
 1736POPC   D2A26356  34.409  29.210   8.260
 1736POPC   C3A26357  34.397  29.303   7.795
 1736POPC   C4A26358  34.229  29.396   7.331
 1736POPC   C1B26359  34.875  29.004   8.638
 1736POPC   C2B26360  34.925  29.139   8.206
 1736POPC   C3B26361  34.978  28.959   7.810
 1736POPC   C4B26362  34.916  28.759   7.382
 1737POPC   NC326363  22.067  32.498   9.732
 1737POPC   PO426364  22.494  32.294   9.268
 1737POPC   GL126365  22.056  32.278   9.101
 1737POPC   GL226366  21.857  31.974   9.137
 1737POPC   C1A26367  21.848  32.302   8.672
 1737POPC   D2A26368  21.800  32.451   8.217
 1737POPC   C3A26369  22.040  32.227   7.933
 1737POPC   C4A26370  22.437  32.348   7.777
 1737POPC   C1B26371  22.158  31.893   8.771
 1737POPC   C2B26372  22.330  32.130   8.448
 1737POPC   C3B26373  22.404  31.915   8.098
 1737POPC   C4B26374  22.362  31.848   7.712
 1738POPC   NC326375  40.440  36.753   9.645
 1738POPC   PO426376  40.829  37.335   9.584
 1738POPC   GL126377  40.913  37.153   9.189
 1738POPC   GL226378  40.631  36.962   9.184
 1738POPC   C1A26379  40.967  36.878   8.812
 1738POPC   D2A26380  40.771  36.636   8.475
 1738POPC   C3A26381  40.921  36.789   8.128
 1738POPC   C4A26382  40.844  37.122   7.870
 1738POPC   C1B26383  40.473  36.688   8.891
 1738POPC   C2B26384  40.257  36.751   8.489
 1738POPC   C3B26385  40.404  36.704   8.056
 1738POPC   C4B26386  40.657  36.666   7.725
 1739POPC   NC326387  14.469   3.431   9.611
 1739POPC   PO426388  14.541   4.107   9.529
 1739POPC   GL126389  14.536   3.855   9.117
 1739POPC   GL226390  14.354   3.521   9.095
 1739POPC   C1A26391  14.752   3.778   8.685
 1739POPC   D2A26392  14.804   3.422   8.344
 1739POPC   C3A26393  14.537   3.476   7.997
 1739POPC   C4A26394  14.505   3.921   7.894
 1739POPC   C1B26395  14.351   3.449   8.625
 1739POPC   C2B26396  14.051   3.410   8.264
 1739POPC   C3B26397  14.048   3.401   7.806
 1739POPC   C4B26398  14.378   3.326   7.516
 1740POPC   NC326399  42.882   2.215   9.294
 1740POPC   PO426400  43.292   1.894   9.719
 1740POPC   GL126401  43.173   1.764   9.269
 1740POPC   GL226402  43.416   1.563   9.067
 1740POPC   C1A26403  42.903   1.714   8.853
 1740POPC   D2A26404  42.748   1.942   8.472
 1740POPC   C3A26405  42.971   1.835   8.097
 1740POPC   C4A26406  43.094   2.038   7.728
 1740POPC   C1B26407  43.362   1.786   8.638
 1740POPC   C2B26408  43.272   2.156   8.366
 1740POPC   C3B26409  43.461   2.271   7.984
 1740POPC   C4B26410  43.643   2.027   7.627
 1741POPC   NC326411  37.504  40.011   9.680
 1741POPC   PO426412  38.140  40.153   9.642
 1741POPC   GL126413  37.857  40.034   9.255
 1741POPC   GL226414  37.535  39.854   9.157
 1741POPC   C1A26415  37.678  40.203   8.825
 1741POPC   D2A26416  37.590  40.006   8.412
 1741POPC   C3A26417  37.873  39.949   8.112
 1741POPC   C4A26418  37.699  40.148   7.833
 1741POPC   C1B26419  37.789  39.700   8.765
 1741POPC   C2B26420  37.694  39.482   8.341
 1741POPC   C3B26421  37.612  39.564   7.889
 1741POPC   C4B26422  37.950  39.753   7.628
 1742POPC   NC326423  25.918  42.839   9.520
 1742POPC   PO426424  26.462  42.620   9.142
 1742POPC   GL126425  26.098  42.940   9.060
 1742POPC   GL226426  26.117  43.272   9.212
 1742POPC   C1A26427  25.775  43.123   8.760
 1742POPC   D2A26428  25.790  43.389   8.376
 1742POPC   C3A26429  25.710  43.139   8.006
 1742POPC   C4A26430  25.846  43.063   7.557
 1742POPC   C1B26431  26.204  43.387   8.762
 1742POPC   C2B26432  26.322  43.239   8.345
 1742POPC   C3B26433  26.177  43.356   7.943
 1742POPC   C4B26434  25.860  43.553   7.692
 1743POPC   NC326435  27.013  43.613   9.357
 1743POPC   PO426436  26.701  44.012   9.712
 1743POPC   GL126437  26.645  43.963   9.208
 1743POPC   GL226438  26.554  43.666   9.018
 1743POPC   C1A26439  26.804  43.991   8.757
 1743POPC   D2A26440  27.028  43.908   8.342
 1743POPC   C3A26441  26.872  43.965   7.920
 1743POPC   C4A26442  26.771  44.023   7.456
 1743POPC   C1B26443  26.687  43.510   8.605
 1743POPC   C2B26444  26.728  43.526   8.153
 1743POPC   C3B26445  26.894  43.483   7.739
 1743POPC   C4B26446  26.617  43.540   7.395
 1744POPC   NC326447  12.759  31.359   9.394
 1744POPC   PO426448  13.062  32.015   9.500
 1744POPC   GL126449  13.088  31.704   9.154
 1744POPC   GL226450  12.713  31.747   9.068
 1744POPC   C1A26451  12.988  31.443   8.755
 1744POPC   D2A26452  12.827  31.306   8.345
 1744POPC   C3A26453  13.132  31.411   8.037
 1744POPC   C4A26454  13.252  31.313   7.621
 1744POPC   C1B26455  12.522  31.822   8.660
 1744POPC   C2B26456  12.469  31.665   8.241
 1744POPC   C3B26457  12.672  31.551   7.867
 1744POPC   C4B26458  12.675  31.853   7.519
 1745POPC   NC326459  33.311  39.611   9.469
 1745POPC   PO426460  33.187  39.117   9.849
 1745POPC   GL126461  33.075  39.202   9.341
 1745POPC   GL226462  32.738  39.293   9.225
 1745POPC   C1A26463  33.140  39.306   8.881
 1745POPC   D2A26464  32.939  39.338   8.459
 1745POPC   C3A26465  33.121  39.062   8.129
 1745POPC   C4A26466  33.217  39.207   7.723
 1745POPC   C1B26467  32.681  39.036   8.838
 1745POPC   C2B26468  32.476  39.080   8.415
 1745POPC   C3B26469  32.656  39.219   8.001
 1745POPC   C4B26470  32.755  38.947   7.643
 1746POPC   NC326471  10.745  14.864   9.508
 1746POPC   PO426472  10.595  14.264   9.690
 1746POPC   GL126473  10.480  14.410   9.279
 1746POPC   GL226474  10.259  14.152   9.218
 1746POPC   C1A26475  10.639  14.459   8.874
 1746POPC   D2A26476  10.883  14.495   8.537
 1746POPC   C3A26477  10.793  14.338   8.117
 1746POPC   C4A26478  10.821  14.567   7.732
 1746POPC   C1B26479  10.166  14.296   8.835
 1746POPC   C2B26480  10.363  14.247   8.473
 1746POPC   C3B26481  10.237  14.137   8.094
 1746POPC   C4B26482  10.466  14.132   7.745
 1747POPC   NC326483   5.868  42.613   9.641
 1747POPC   PO426484   5.544  42.004   9.717
 1747POPC   GL126485   5.749  42.243   9.310
 1747POPC   GL226486   5.567  42.529   9.185
 1747POPC   C1A26487   5.974  42.343   8.889
 1747POPC   D2A26488   5.994  42.608   8.483
 1747POPC   C3A26489   6.019  42.389   8.048
 1747POPC   C4A26490   6.123  42.011   7.759
 1747POPC   C1B26491   5.503  42.418   8.722
 1747POPC   C2B26492   5.369  42.475   8.292
 1747POPC   C3B26493   5.505  42.426   7.865
 1747POPC   C4B26494   5.659  42.161   7.528
 1748POPC   NC326495   6.746  35.881   9.405
 1748POPC   PO426496   6.374  36.323   9.270
 1748POPC   GL126497   6.504  36.222   8.883
 1748POPC   GL226498   6.833  36.065   8.938
 1748POPC   C1A26499   6.439  36.443   8.524
 1748POPC   D2A26500   6.293  36.360   8.124
 1748POPC   C3A26501   6.609  36.282   7.809
 1748POPC   C4A26502   6.539  36.186   7.356
 1748POPC   C1B26503   6.590  35.742   8.744
 1748POPC   C2B26504   6.447  35.944   8.388
 1748POPC   C3B26505   6.368  35.856   7.965
 1748POPC   C4B26506   6.654  35.755   7.636
 1749POPC   NC326507   0.774  16.592   9.622
 1749POPC   PO426508   0.369  17.159   9.640
 1749POPC   GL126509   0.596  17.041   9.271
 1749POPC   GL226510   0.664  16.702   9.141
 1749POPC   C1A26511   0.571  17.134   8.828
 1749POPC   D2A26512   0.725  17.153   8.387
 1749POPC   C3A26513   0.431  16.924   8.119
 1749POPC   C4A26514   0.430  16.782   7.701
 1749POPC   C1B26515   0.796  16.423   8.811
 1749POPC   C2B26516   0.662  16.592   8.438
 1749POPC   C3B26517   0.727  16.505   8.019
 1749POPC   C4B26518   0.591  16.302   7.661
 1750POPC   NC326519   4.947   3.334   9.551
 1750POPC   PO426520   5.564   3.620   9.530
 1750POPC   GL126521   5.284   3.774   9.165
 1750POPC   GL226522   5.042   3.487   9.089
 1750POPC   C1A26523   5.099   3.800   8.716
 1750POPC   D2A26524   5.101   3.450   8.393
 1750POPC   C3A26525   5.188   3.616   8.001
 1750POPC   C4A26526   4.904   3.910   7.836
 1750POPC   C1B26527   5.007   3.114   8.802
 1750POPC   C2B26528   5.110   2.918   8.383
 1750POPC   C3B26529   5.061   3.109   7.971
 1750POPC   C4B26530   4.882   3.349   7.628
 1751POPC   NC326531  37.829  25.590   9.286
 1751POPC   PO426532  37.789  26.213   9.575
 1751POPC   GL126533  37.696  26.155   9.151
 1751POPC   GL226534  38.042  26.217   9.094
 1751POPC   C1A26535  37.699  25.935   8.729
 1751POPC   D2A26536  37.794  25.609   8.395
 1751POPC   C3A26537  37.658  25.743   7.960
 1751POPC   C4A26538  37.345  26.071   7.763
 1751POPC   C1B26539  38.291  26.309   8.726
 1751POPC   C2B26540  38.347  26.503   8.323
 1751POPC   C3B26541  38.176  26.462   7.937
 1751POPC   C4B26542  37.795  26.269   7.883
 1752POPC   NC326543  19.354   0.491   9.521
 1752POPC   PO426544  18.765   0.206   9.361
 1752POPC   GL126545  19.065   0.335   9.064
 1752POPC   GL226546  19.230   0.667   9.057
 1752POPC   C1A26547  18.889   0.413   8.649
 1752POPC   D2A26548  18.598   0.160   8.375
 1752POPC   C3A26549  18.712   0.297   7.944
 1752POPC   C4A26550  19.144   0.253   7.792
 1752POPC   C1B26551  19.396   0.550   8.636
 1752POPC   C2B26552  19.160   0.553   8.226
 1752POPC   C3B26553  19.123   0.762   7.804
 1752POPC   C4B26554  18.870   0.581   7.469
 1753POPC   NC326555   4.734  23.012   9.417
 1753POPC   PO426556   5.298  22.854   9.610
 1753POPC   GL126557   5.121  22.723   9.188
 1753POPC   GL226558   5.395  22.491   9.104
 1753POPC   C1A26559   4.913  22.874   8.758
 1753POPC   D2A26560   5.034  23.247   8.465
 1753POPC   C3A26561   5.145  23.211   8.008
 1753POPC   C4A26562   4.869  22.961   7.784
 1753POPC   C1B26563   5.410  22.850   8.791
 1753POPC   C2B26564   5.367  22.868   8.357
 1753POPC   C3B26565   5.292  22.714   7.948
 1753POPC   C4B26566   5.398  22.902   7.567
 1754POPC   NC326567  10.107  44.045   9.467
 1754POPC   PO426568   9.432  43.852   9.478
 1754POPC   GL126569   9.735  43.873   9.161
 1754POPC   GL226570   9.807  43.532   9.171
 1754POPC   C1A26571   9.994  43.802   8.783
 1754POPC   D2A26572  10.035  43.964   8.364
 1754POPC   C3A26573   9.616  44.073   8.207
 1754POPC   C4A26574   9.438  44.005   7.802
 1754POPC   C1B26575   9.504  43.574   8.808
 1754POPC   C2B26576   9.657  43.613   8.414
 1754POPC   C3B26577   9.538  43.557   8.012
 1754POPC   C4B26578   9.685  43.582   7.611
 1755POPC   NC326579  24.056  40.784   9.583
 1755POPC   PO426580  23.510  41.141   9.503
 1755POPC   GL126581  23.540  41.154   9.082
 1755POPC   GL226582  23.876  40.984   9.070
 1755POPC   C1A26583  23.382  40.964   8.702
 1755POPC   D2A26584  23.254  40.613   8.429
 1755POPC   C3A26585  23.436  40.640   8.008
 1755POPC   C4A26586  23.873  40.703   7.881
 1755POPC   C1B26587  23.856  41.185   8.662
 1755POPC   C2B26588  23.685  41.049   8.269
 1755POPC   C3B26589  23.584  41.157   7.855
 1755POPC   C4B26590  23.890  41.084   7.529
 1756POPC   NC326591  16.376   4.871   9.461
 1756POPC   PO426592  16.881   5.364   9.489
 1756POPC   GL126593  16.691   5.174   9.169
 1756POPC   GL226594  16.432   5.397   9.192
 1756POPC   C1A26595  16.743   4.968   8.780
 1756POPC   D2A26596  16.875   5.179   8.408
 1756POPC   C3A26597  16.885   4.886   8.107
 1756POPC   C4A26598  16.725   4.915   7.720
 1756POPC   C1B26599  16.464   5.390   8.738
 1756POPC   C2B26600  16.386   5.111   8.393
 1756POPC   C3B26601  16.363   4.886   8.055
 1756POPC   C4B26602  16.220   4.917   7.618
 1757POPC   NC326603  10.200  40.908   9.431
 1757POPC   PO426604   9.589  40.464   9.437
 1757POPC   GL126605   9.587  40.680   9.049
 1757POPC   GL226606   9.930  40.705   9.057
 1757POPC   C1A26607   9.399  40.846   8.643
 1757POPC   D2A26608   9.472  41.046   8.231
 1757POPC   C3A26609   9.717  40.802   7.925
 1757POPC   C4A26610   9.719  40.701   7.452
 1757POPC   C1B26611   9.842  41.059   8.788
 1757POPC   C2B26612   9.958  41.059   8.392
 1757POPC   C3B26613  10.009  41.223   8.018
 1757POPC   C4B26614   9.960  41.114   7.597
 1758POPC   NC326615  30.795  39.445   9.549
 1758POPC   PO426616  30.737  40.118   9.587
 1758POPC   GL126617  30.532  40.136   9.192
 1758POPC   GL226618  30.348  39.801   9.195
 1758POPC   C1A26619  30.720  40.261   8.819
 1758POPC   D2A26620  30.559  40.138   8.438
 1758POPC   C3A26621  30.751  40.268   8.066
 1758POPC   C4A26622  30.769  40.065   7.702
 1758POPC   C1B26623  30.702  39.717   8.917
 1758POPC   C2B26624  30.861  39.621   8.510
 1758POPC   C3B26625  30.670  39.770   8.103
 1758POPC   C4B26626  30.449  39.653   7.685
 1759POPC   NC326627  31.971  33.924   9.501
 1759POPC   PO426628  32.251  33.344   9.712
 1759POPC   GL126629  32.324  33.638   9.271
 1759POPC   GL226630  32.606  33.843   9.206
 1759POPC   C1A26631  32.241  33.865   8.862
 1759POPC   D2A26632  32.226  33.974   8.413
 1759POPC   C3A26633  32.024  33.692   8.103
 1759POPC   C4A26634  31.975  34.000   7.786
 1759POPC   C1B26635  32.659  33.484   8.919
 1759POPC   C2B26636  32.506  33.562   8.511
 1759POPC   C3B26637  32.542  33.699   8.077
 1759POPC   C4B26638  32.364  33.490   7.745
 1760POPC   NC326639  31.794  32.125   9.596
 1760POPC   PO426640  31.411  32.608   9.417
 1760POPC   GL126641  31.365  32.169   9.249
 1760POPC   GL226642  31.001  32.119   9.223
 1760POPC   C1A26643  31.504  32.045   8.831
 1760POPC   D2A26644  31.711  32.347   8.532
 1760POPC   C3A26645  31.579  32.294   8.113
 1760POPC   C4A26646  31.411  32.045   7.728
 1760POPC   C1B26647  30.963  32.378   8.850
 1760POPC   C2B26648  31.188  32.315   8.479
 1760POPC   C3B26649  31.092  32.288   8.048
 1760POPC   C4B26650  31.264  32.542   7.734
 1761POPC   NC326651   8.557  12.350   9.478
 1761POPC   PO426652   8.958  12.867   9.471
 1761POPC   GL126653   8.994  12.803   9.098
 1761POPC   GL226654   8.746  12.597   8.990
 1761POPC   C1A26655   9.060  12.989   8.733
 1761POPC   D2A26656   9.137  12.830   8.346
 1761POPC   C3A26657   9.051  13.058   7.975
 1761POPC   C4A26658   8.838  12.866   7.644
 1761POPC   C1B26659   9.145  12.459   8.741
 1761POPC   C2B26660   9.376  12.394   8.299
 1761POPC   C3B26661   9.176  12.550   7.882
 1761POPC   C4B26662   9.144  12.513   7.385
 1762POPC   NC326663  23.085  28.547   9.476
 1762POPC   PO426664  23.352  27.913   9.554
 1762POPC   GL126665  23.171  27.996   9.157
 1762POPC   GL226666  22.885  28.153   9.150
 1762POPC   C1A26667  23.152  28.257   8.753
 1762POPC   D2A26668  23.158  28.497   8.388
 1762POPC   C3A26669  23.145  28.271   8.035
 1762POPC   C4A26670  22.977  28.408   7.659
 1762POPC   C1B26671  22.656  28.315   8.810
 1762POPC   C2B26672  22.736  28.187   8.411
 1762POPC   C3B26673  22.643  28.366   8.052
 1762POPC   C4B26674  22.454  28.425   7.678
 1763POPC   NC326675  38.065  21.690   9.524
 1763POPC   PO426676  38.582  21.343   9.790
 1763POPC   GL126677  38.542  21.394   9.324
 1763POPC   GL226678  38.198  21.403   9.126
 1763POPC   C1A26679  38.604  21.448   8.872
 1763POPC   D2A26680  38.487  21.159   8.551
 1763POPC   C3A26681  38.360  21.335   8.129
 1763POPC   C4A26682  38.615  21.406   7.753
 1763POPC   C1B26683  38.158  21.664   8.754
 1763POPC   C2B26684  38.001  21.664   8.325
 1763POPC   C3B26685  38.164  21.768   7.884
 1763POPC   C4B26686  38.187  21.530   7.496
 1764POPC   NC326687  41.233  38.281   9.393
 1764POPC   PO426688  41.689  38.673   9.648
 1764POPC   GL126689  41.691  38.477   9.170
 1764POPC   GL226690  41.390  38.411   8.932
 1764POPC   C1A26691  41.717  38.681   8.696
 1764POPC   D2A26692  41.531  38.467   8.328
 1764POPC   C3A26693  41.586  38.665   7.916
 1764POPC   C4A26694  41.777  38.513   7.567
 1764POPC   C1B26695  41.799  38.183   8.739
 1764POPC   C2B26696  41.819  37.962   8.340
 1764POPC   C3B26697  41.687  38.122   7.917
 1764POPC   C4B26698  41.251  38.290   7.820
 1765POPC   NC326699  34.859  11.529   9.405
 1765POPC   PO426700  34.238  11.406   9.584
 1765POPC   GL126701  34.452  11.260   9.221
 1765POPC   GL226702  34.167  11.217   9.081
 1765POPC   C1A26703  34.604  11.415   8.801
 1765POPC   D2A26704  34.432  11.657   8.463
 1765POPC   C3A26705  34.680  11.691   8.064
 1765POPC   C4A26706  34.609  11.487   7.647
 1765POPC   C1B26707  34.088  11.341   8.741
 1765POPC   C2B26708  34.160  11.181   8.410
 1765POPC   C3B26709  34.338  11.312   8.076
 1765POPC   C4B26710  34.277  11.002   7.811
 1766POPC   NC326711  10.436   1.725   9.575
 1766POPC   PO426712  10.677   2.373   9.523
 1766POPC   GL126713  10.469   2.124   9.213
 1766POPC   GL226714  10.747   2.096   9.003
 1766POPC   C1A26715  10.372   1.885   8.792
 1766POPC   D2A26716  10.169   1.821   8.428
 1766POPC   C3A26717  10.252   1.905   8.020
 1766POPC   C4A26718  10.403   1.757   7.646
 1766POPC   C1B26719  10.932   1.802   8.682
 1766POPC   C2B26720  10.682   1.758   8.316
 1766POPC   C3B26721  10.737   2.013   7.957
 1766POPC   C4B26722  11.009   1.923   7.608
 1767POPC   NC326723  10.612  17.032   9.278
 1767POPC   PO426724  10.461  17.481   9.822
 1767POPC   GL126725  10.574  17.542   9.335
 1767POPC   GL226726  10.291  17.440   9.196
 1767POPC   C1A26727  10.612  17.497   8.799
 1767POPC   D2A26728  10.578  17.439   8.327
 1767POPC   C3A26729  10.721  17.672   7.946
 1767POPC   C4A26730  10.673  17.579   7.462
 1767POPC   C1B26731  10.125  17.345   8.787
 1767POPC   C2B26732  10.220  17.047   8.471
 1767POPC   C3B26733  10.171  17.216   8.097
 1767POPC   C4B26734  10.426  17.297   7.789
 1768POPC   NC326735  32.442  41.785   9.406
 1768POPC   PO426736  32.080  41.124   9.485
 1768POPC   GL126737  32.173  41.407   9.168
 1768POPC   GL226738  32.041  41.769   9.083
 1768POPC   C1A26739  32.293  41.445   8.765
 1768POPC   D2A26740  32.077  41.601   8.466
 1768POPC   C3A26741  32.287  41.526   8.135
 1768POPC   C4A26742  32.280  41.207   7.831
 1768POPC   C1B26743  32.316  41.986   8.788
 1768POPC   C2B26744  32.580  41.865   8.453
 1768POPC   C3B26745  32.554  41.981   8.028
 1768POPC   C4B26746  32.382  41.743   7.694
 1769POPC   NC326747  20.211  39.617   9.514
 1769POPC   PO426748  20.170  38.926   9.461
 1769POPC   GL126749  19.928  39.265   9.211
 1769POPC   GL226750  20.158  39.494   9.035
 1769POPC   C1A26751  19.712  39.351   8.784
 1769POPC   D2A26752  19.835  39.474   8.332
 1769POPC   C3A26753  19.663  39.277   7.959
 1769POPC   C4A26754  19.632  38.888   7.724
 1769POPC   C1B26755  20.406  39.525   8.702
 1769POPC   C2B26756  20.335  39.616   8.264
 1769POPC   C3B26757  20.161  39.305   7.954
 1769POPC   C4B26758  20.171  39.304   7.503
 1770POPC   NC326759  38.361  28.244   9.841
 1770POPC   PO426760  38.258  28.622   9.307
 1770POPC   GL126761  38.571  28.488   9.075
 1770POPC   GL226762  38.730  28.150   9.088
 1770POPC   C1A26763  38.427  28.323   8.685
 1770POPC   D2A26764  38.251  28.556   8.361
 1770POPC   C3A26765  38.358  28.441   7.963
 1770POPC   C4A26766  38.261  28.409   7.549
 1770POPC   C1B26767  38.929  28.411   8.741
 1770POPC   C2B26768  38.767  28.504   8.309
 1770POPC   C3B26769  38.864  28.456   7.848
 1770POPC   C4B26770  38.884  28.670   7.450
 1771POPC   NC326771  15.384   4.976   9.413
 1771POPC   PO426772  16.039   5.171   9.605
 1771POPC   GL126773  15.971   5.196   9.166
 1771POPC   GL226774  15.707   5.415   9.089
 1771POPC   C1A26775  16.003   5.159   8.704
 1771POPC   D2A26776  15.921   5.343   8.292
 1771POPC   C3A26777  15.879   5.117   7.927
 1771POPC   C4A26778  15.777   5.221   7.494
 1771POPC   C1B26779  15.550   5.374   8.660
 1771POPC   C2B26780  15.570   4.965   8.394
 1771POPC   C3B26781  15.554   4.731   7.979
 1771POPC   C4B26782  15.366   5.004   7.651
 1772POPC   NC326783   7.442  42.373   9.832
 1772POPC   PO426784   7.101  42.051   9.376
 1772POPC   GL126785   7.431  42.183   9.126
 1772POPC   GL226786   7.593  42.474   9.250
 1772POPC   C1A26787   7.365  42.387   8.740
 1772POPC   D2A26788   7.130  42.351   8.371
 1772POPC   C3A26789   7.314  42.455   8.009
 1772POPC   C4A26790   7.188  42.200   7.669
 1772POPC   C1B26791   7.774  42.658   8.874
 1772POPC   C2B26792   7.693  42.637   8.421
 1772POPC   C3B26793   7.835  42.698   8.012
 1772POPC   C4B26794   7.581  42.768   7.650
 1773POPC   NC326795  13.924  12.295   9.349
 1773POPC   PO426796  13.570  11.782   9.499
 1773POPC   GL126797  13.511  11.834   9.045
 1773POPC   GL226798  13.580  12.112   9.024
 1773POPC   C1A26799  13.568  11.905   8.572
 1773POPC   D2A26800  13.416  12.264   8.334
 1773POPC   C3A26801  13.430  12.104   7.923
 1773POPC   C4A26802  13.634  11.751   7.742
 1773POPC   C1B26803  13.716  12.400   8.743
 1773POPC   C2B26804  13.941  12.440   8.409
 1773POPC   C3B26805  13.771  12.486   8.040
 1773POPC   C4B26806  13.858  12.319   7.679
 1774POPC   NC326807  36.283   4.587   9.607
 1774POPC   PO426808  36.451   4.062   9.551
 1774POPC   GL126809  36.159   4.291   9.201
 1774POPC   GL226810  36.167   4.677   9.119
 1774POPC   C1A26811  35.954   4.363   8.772
 1774POPC   D2A26812  36.053   4.510   8.335
 1774POPC   C3A26813  35.837   4.303   7.982
 1774POPC   C4A26814  35.765   4.119   7.535
 1774POPC   C1B26815  36.029   4.872   8.734
 1774POPC   C2B26816  36.016   5.027   8.331
 1774POPC   C3B26817  36.192   4.832   7.959
 1774POPC   C4B26818  36.341   4.417   7.873
 1775POPC   NC326819  40.725  23.503   9.643
 1775POPC   PO426820  41.207  23.491   9.226
 1775POPC   GL126821  40.873  23.681   9.036
 1775POPC   GL226822  40.531  23.603   9.179
 1775POPC   C1A26823  40.976  23.741   8.607
 1775POPC   D2A26824  41.198  23.591   8.233
 1775POPC   C3A26825  40.953  23.574   7.853
 1775POPC   C4A26826  40.629  23.601   7.478
 1775POPC   C1B26827  40.443  23.787   8.792
 1775POPC   C2B26828  40.536  23.670   8.373
 1775POPC   C3B26829  40.487  23.746   7.949
 1775POPC   C4B26830  40.780  24.031   7.712
 1776POPC   NC326831  26.293  26.009   9.643
 1776POPC   PO426832  25.659  26.125   9.644
 1776POPC   GL126833  26.025  26.180   9.254
 1776POPC   GL226834  26.171  25.833   9.180
 1776POPC   C1A26835  26.273  26.212   8.819
 1776POPC   D2A26836  26.234  26.487   8.419
 1776POPC   C3A26837  26.173  26.324   8.014
 1776POPC   C4A26838  26.201  26.070   7.664
 1776POPC   C1B26839  26.124  25.707   8.768
 1776POPC   C2B26840  26.167  25.916   8.378
 1776POPC   C3B26841  26.142  25.699   7.999
 1776POPC   C4B26842  25.889  25.655   7.650
 1777POPC   NC326843  42.256  36.875   9.544
 1777POPC   PO426844  42.569  37.317   9.247
 1777POPC   GL126845  42.252  36.987   9.046
 1777POPC   GL226846  42.071  36.662   9.099
 1777POPC   C1A26847  42.194  36.838   8.633
 1777POPC   D2A26848  42.538  36.952   8.439
 1777POPC   C3A26849  42.385  36.877   8.076
 1777POPC   C4A26850  42.435  36.940   7.665
 1777POPC   C1B26851  42.458  36.503   8.896
 1777POPC   C2B26852  42.592  36.435   8.445
 1777POPC   C3B26853  42.466  36.355   8.009
 1777POPC   C4B26854  42.108  36.559   7.790
 1778POPC   NC326855  11.658  44.452   9.677
 1778POPC   PO426856  11.840   0.029   9.336
 1778POPC   GL126857  12.080  44.737   9.156
 1778POPC   GL226858  12.052  44.446   9.321
 1778POPC   C1A26859  12.119  44.779   8.747
 1778POPC   D2A26860  12.027  44.569   8.421
 1778POPC   C3A26861  12.057  44.832   8.120
 1778POPC   C4A26862  12.051  44.756   7.716
 1778POPC   C1B26863  12.260  44.304   8.922
 1778POPC   C2B26864  12.417  44.254   8.484
 1778POPC   C3B26865  12.191  44.218   8.070
 1778POPC   C4B26866  12.311  44.340   7.662
 1779POPC   NC326867  38.350  36.397   9.722
 1779POPC   PO426868  38.697  35.908   9.487
 1779POPC   GL126869  38.460  36.142   9.172
 1779POPC   GL226870  38.433  36.500   9.214
 1779POPC   C1A26871  38.342  36.296   8.740
 1779POPC   D2A26872  38.430  36.097   8.316
 1779POPC   C3A26873  38.252  36.154   7.872
 1779POPC   C4A26874  38.292  35.948   7.392
 1779POPC   C1B26875  38.779  36.494   8.928
 1779POPC   C2B26876  38.760  36.472   8.490
 1779POPC   C3B26877  38.711  36.434   8.039
 1779POPC   C4B26878  38.713  36.132   7.703
 1780POPC   NC326879  16.177   0.799   9.400
 1780POPC   PO426880  15.757   1.278   9.436
 1780POPC   GL126881  15.831   1.293   9.044
 1780POPC   GL226882  15.976   1.563   8.933
 1780POPC   C1A26883  15.715   1.122   8.695
 1780POPC   D2A26884  15.883   0.854   8.412
 1780POPC   C3A26885  15.842   1.033   8.037
 1780POPC   C4A26886  15.660   1.298   7.765
 1780POPC   C1B26887  16.121   1.406   8.581
 1780POPC   C2B26888  16.021   1.486   8.202
 1780POPC   C3B26889  16.092   1.659   7.829
 1780POPC   C4B26890  16.214   1.306   7.740
 1781POPC   NC326891  35.515  11.145   9.523
 1781POPC   PO426892  34.918  11.009   9.336
 1781POPC   GL126893  35.218  11.287   9.086
 1781POPC   GL226894  35.611  11.418   9.109
 1781POPC   C1A26895  35.094  11.365   8.647
 1781POPC   D2A26896  35.146  11.608   8.279
 1781POPC   C3A26897  35.180  11.355   7.918
 1781POPC   C4A26898  35.027  11.221   7.492
 1781POPC   C1B26899  35.591  11.162   8.758
 1781POPC   C2B26900  35.518  11.251   8.346
 1781POPC   C3B26901  35.692  11.354   7.963
 1781POPC   C4B26902  35.900  11.292   7.595
 1782POPC   NC326903  27.991  37.549   9.652
 1782POPC   PO426904  28.599  37.792   9.642
 1782POPC   GL126905  28.314  37.727   9.246
 1782POPC   GL226906  28.215  38.062   9.220
 1782POPC   C1A26907  28.071  37.799   8.819
 1782POPC   D2A26908  27.989  37.625   8.409
 1782POPC   C3A26909  28.149  37.806   8.024
 1782POPC   C4A26910  28.316  37.559   7.684
 1782POPC   C1B26911  28.492  38.065   8.843
 1782POPC   C2B26912  28.482  37.840   8.433
 1782POPC   C3B26913  28.649  37.968   8.010
 1782POPC   C4B26914  28.489  38.048   7.578
 1783POPC   NC326915   7.194  33.398   9.445
 1783POPC   PO426916   7.493  34.074   9.558
 1783POPC   GL126917   7.477  33.774   9.244
 1783POPC   GL226918   7.671  33.451   9.210
 1783POPC   C1A26919   7.321  33.829   8.844
 1783POPC   D2A26920   7.351  33.650   8.464
 1783POPC   C3A26921   7.125  33.714   8.118
 1783POPC   C4A26922   7.327  33.864   7.760
 1783POPC   C1B26923   7.805  33.656   8.852
 1783POPC   C2B26924   7.744  33.963   8.550
 1783POPC   C3B26925   7.722  33.813   8.137
 1783POPC   C4B26926   7.778  33.652   7.732
 1784POPC   NC326927  36.219   5.553   9.357
 1784POPC   PO426928  36.049   4.977   9.535
 1784POPC   GL126929  35.953   5.180   9.132
 1784POPC   GL226930  36.293   5.196   9.014
 1784POPC   C1A26931  35.815   5.349   8.709
 1784POPC   D2A26932  35.607   5.330   8.255
 1784POPC   C3A26933  35.913   5.267   7.895
 1784POPC   C4A26934  36.079   5.064   7.516
 1784POPC   C1B26935  36.385   5.268   8.592
 1784POPC   C2B26936  36.432   5.236   8.140
 1784POPC   C3B26937  36.566   5.139   7.726
 1784POPC   C4B26938  36.550   5.247   7.273
 1785POPC   NC326939  43.485  38.621   9.384
 1785POPC   PO426940  43.101  38.112   9.543
 1785POPC   GL126941  42.967  38.214   9.110
 1785POPC   GL226942  43.261  38.376   8.979
 1785POPC   C1A26943  42.765  38.465   8.741
 1785POPC   D2A26944  42.984  38.777   8.467
 1785POPC   C3A26945  43.086  38.538   8.118
 1785POPC   C4A26946  43.129  38.530   7.702
 1785POPC   C1B26947  43.451  38.637   8.656
 1785POPC   C2B26948  43.575  38.467   8.259
 1785POPC   C3B26949  43.622  38.584   7.846
 1785POPC   C4B26950  43.517  38.713   7.428
 1786POPC   NC326951   0.452  15.837   9.558
 1786POPC   PO426952   0.337  16.492   9.500
 1786POPC   GL126953   0.627  16.203   9.250
 1786POPC   GL226954   0.363  16.249   9.035
 1786POPC   C1A26955   0.679  15.928   8.827
 1786POPC   D2A26956   0.675  16.089   8.376
 1786POPC   C3A26957   0.518  15.914   7.988
 1786POPC   C4A26958   0.124  15.916   7.777
 1786POPC   C1B26959   0.279  16.627   8.801
 1786POPC   C2B26960   0.106  16.611   8.384
 1786POPC   C3B26961   0.229  16.376   8.024
 1786POPC   C4B26962   0.079  16.399   7.594
 1787POPC   NC326963   7.612  17.111   9.591
 1787POPC   PO426964   7.264  16.589   9.493
 1787POPC   GL126965   7.464  16.770   9.182
 1787POPC   GL226966   7.717  16.507   9.181
 1787POPC   C1A26967   7.242  16.755   8.792
 1787POPC   D2A26968   7.093  16.437   8.524
 1787POPC   C3A26969   7.138  16.497   8.090
 1787POPC   C4A26970   7.212  16.832   7.797
 1787POPC   C1B26971   7.758  16.744   8.776
 1787POPC   C2B26972   7.551  16.665   8.390
 1787POPC   C3B26973   7.645  16.559   8.001
 1787POPC   C4B26974   7.740  16.936   7.799
 1788POPC   NC326975   1.500   2.585   9.372
 1788POPC   PO426976   1.287   3.252   9.488
 1788POPC   GL126977   1.362   2.995   9.129
 1788POPC   GL226978   1.069   2.714   9.085
 1788POPC   C1A26979   1.440   2.787   8.739
 1788POPC   D2A26980   1.240   2.577   8.465
 1788POPC   C3A26981   1.353   2.828   8.100
 1788POPC   C4A26982   1.272   2.672   7.708
 1788POPC   C1B26983   0.887   2.333   8.827
 1788POPC   C2B26984   0.873   2.182   8.404
 1788POPC   C3B26985   0.952   2.442   8.049
 1788POPC   C4B26986   0.783   2.416   7.643
 1789POPC   NC326987  17.388  36.539   9.664
 1789POPC   PO426988  17.631  37.147   9.747
 1789POPC   GL126989  17.521  36.966   9.326
 1789POPC   GL226990  17.306  36.697   9.156
 1789POPC   C1A26991  17.627  37.036   8.882
 1789POPC   D2A26992  17.449  37.232   8.483
 1789POPC   C3A26993  17.368  37.046   8.064
 1789POPC   C4A26994  17.530  37.175   7.637
 1789POPC   C1B26995  17.445  36.581   8.716
 1789POPC   C2B26996  17.716  36.799   8.424
 1789POPC   C3B26997  17.870  37.028   8.067
 1789POPC   C4B26998  17.918  36.877   7.650
 1790POPC   NC326999   3.055  34.891   9.758
 1790POPC   PO427000   3.570  34.557   9.592
 1790POPC   GL127001   3.640  34.474   9.143
 1790POPC   GL227002   3.346  34.355   8.934
 1790POPC   C1A27003   3.810  34.262   8.757
 1790POPC   D2A27004   3.516  34.231   8.411
 1790POPC   C3A27005   3.607  34.500   8.044
 1790POPC   C4A27006   3.916  34.599   7.739
 1790POPC   C1B27007   3.552  34.725   8.705
 1790POPC   C2B27008   3.516  34.953   8.309
 1790POPC   C3B27009   3.230  34.901   7.954
 1790POPC   C4B27010   3.178  35.109   7.555
 1791POPC   NC327011  19.321  28.602   9.424
 1791POPC   PO427012  18.707  28.374   9.461
 1791POPC   GL127013  18.975  28.378   9.124
 1791POPC   GL227014  19.135  28.050   9.079
 1791POPC   C1A27015  19.059  28.542   8.715
 1791POPC   D2A27016  19.261  28.256   8.431
 1791POPC   C3A27017  19.233  28.398   8.031
 1791POPC   C4A27018  19.366  28.152   7.722
 1791POPC   C1B27019  18.811  28.098   8.732
 1791POPC   C2B27020  18.772  28.306   8.306
 1791POPC   C3B27021  18.861  28.098   7.879
 1791POPC   C4B27022  18.816  27.990   7.412
 1792POPC   NC327023  26.791  27.361   9.539
 1792POPC   PO427024  26.997  27.963   9.754
 1792POPC   GL127025  26.864  27.850   9.269
 1792POPC   GL227026  26.784  27.496   9.064
 1792POPC   C1A27027  27.062  27.822   8.824
 1792POPC   D2A27028  26.878  27.796   8.439
 1792POPC   C3A27029  27.014  27.864   8.061
 1792POPC   C4A27030  27.008  27.926   7.647
 1792POPC   C1B27031  26.784  27.247   8.694
 1792POPC   C2B27032  26.981  27.085   8.358
 1792POPC   C3B27033  26.894  27.337   8.064
 1792POPC   C4B27034  26.710  27.548   7.767
 1793POPC   NC327035  25.887  12.033   9.507
 1793POPC   PO427036  26.470  12.372   9.572
 1793POPC   GL127037  26.283  12.209   9.191
 1793POPC   GL227038  26.571  12.208   8.995
 1793POPC   C1A27039  26.050  12.228   8.788
 1793POPC   D2A27040  25.933  11.940   8.438
 1793POPC   C3A27041  25.751  12.114   8.064
 1793POPC   C4A27042  25.848  11.962   7.636
 1793POPC   C1B27043  26.502  12.407   8.593
 1793POPC   C2B27044  26.192  12.362   8.279
 1793POPC   C3B27045  26.242  12.099   7.938
 1793POPC   C4B27046  26.352  12.225   7.539
 1794POPC   NC327047  17.343  39.047   9.561
 1794POPC   PO427048  17.755  39.561   9.628
 1794POPC   GL127049  17.607  39.359   9.197
 1794POPC   GL227050  17.478  38.990   9.078
 1794POPC   C1A27051  17.648  39.303   8.717
 1794POPC   D2A27052  17.392  39.150   8.344
 1794POPC   C3A27053  17.367  39.431   7.947
 1794POPC   C4A27054  17.654  39.402   7.583
 1794POPC   C1B27055  17.722  38.795   8.713
 1794POPC   C2B27056  17.796  38.822   8.255
 1794POPC   C3B27057  17.520  38.923   7.877
 1794POPC   C4B27058  17.631  38.873   7.441
 1795POPC   NC327059  14.485  12.656   9.408
 1795POPC   PO427060  14.497  13.276   9.395
 1795POPC   GL127061  14.242  13.024   9.063
 1795POPC   GL227062  14.183  12.632   8.997
 1795POPC   C1A27063  14.353  12.990   8.623
 1795POPC   D2A27064  14.239  13.193   8.241
 1795POPC   C3A27065  14.508  13.099   7.944
 1795POPC   C4A27066  14.689  12.723   7.786
 1795POPC   C1B27067  14.404  12.469   8.655
 1795POPC   C2B27068  14.388  12.641   8.228
 1795POPC   C3B27069  14.170  12.740   7.868
 1795POPC   C4B27070  14.165  12.669   7.450
 1796POPC   NC327071  11.150   1.203   9.618
 1796POPC   PO427072  10.798   1.687   9.292
 1796POPC   GL127073  11.224   1.550   9.199
 1796POPC   GL227074  11.249   1.169   9.103
 1796POPC   C1A27075  11.505   1.551   8.832
 1796POPC   D2A27076  11.570   1.175   8.570
 1796POPC   C3A27077  11.504   1.126   8.125
 1796POPC   C4A27078  11.266   1.243   7.783
 1796POPC   C1B27079  11.379   0.783   8.835
 1796POPC   C2B27080  11.649   0.666   8.485
 1796POPC   C3B27081  11.595   0.568   8.050
 1796POPC   C4B27082  11.588   0.838   7.682
 1797POPC   NC327083  22.816  13.105   9.465
 1797POPC   PO427084  23.001  12.441   9.375
 1797POPC   GL127085  22.864  12.728   9.107
 1797POPC   GL227086  23.150  12.951   9.108
 1797POPC   C1A27087  22.917  12.721   8.677
 1797POPC   D2A27088  23.178  12.738   8.315
 1797POPC   C3A27089  22.895  12.630   7.953
 1797POPC   C4A27090  22.864  12.646   7.482
 1797POPC   C1B27091  23.153  13.170   8.730
 1797POPC   C2B27092  22.887  13.162   8.383
 1797POPC   C3B27093  23.060  13.112   7.985
 1797POPC   C4B27094  22.914  13.141   7.608
 1798POPC   NC327095  15.389  27.074   9.696
 1798POPC   PO427096  15.085  27.747   9.562
 1798POPC   GL127097  15.106  27.865   9.126
 1798POPC   GL227098  15.307  27.605   9.077
 1798POPC   C1A27099  15.007  27.695   8.684
 1798POPC   D2A27100  14.882  27.412   8.375
 1798POPC   C3A27101  14.862  27.542   7.959
 1798POPC   C4A27102  14.748  27.895   7.704
 1798POPC   C1B27103  15.525  27.395   8.770
 1798POPC   C2B27104  15.435  27.459   8.374
 1798POPC   C3B27105  15.366  27.613   7.997
 1798POPC   C4B27106  15.247  27.406   7.653
 1799POPC   NC327107   5.809  11.819   9.952
 1799POPC   PO427108   5.563  12.192   9.415
 1799POPC   GL127109   5.803  12.087   8.997
 1799POPC   GL227110   5.869  11.736   8.890
 1799POPC   C1A27111   6.089  12.117   8.670
 1799POPC   D2A27112   6.059  12.264   8.292
 1799POPC   C3A27113   6.163  12.043   7.934
 1799POPC   C4A27114   6.050  12.140   7.532
 1799POPC   C1B27115   5.612  11.910   8.575
 1799POPC   C2B27116   5.641  12.015   8.160
 1799POPC   C3B27117   5.533  11.996   7.756
 1799POPC   C4B27118   5.668  11.767   7.423
 1800POPC   NC327119  33.991   9.375   9.504
 1800POPC   PO427120  33.662   9.937   9.778
 1800POPC   GL127121  33.716   9.917   9.279
 1800POPC   GL227122  33.774   9.598   9.105
 1800POPC   C1A27123  33.656   9.970   8.798
 1800POPC   D2A27124  33.771   9.672   8.473
 1800POPC   C3A27125  33.731   9.825   8.043
 1800POPC   C4A27126  33.632   9.545   7.689
 1800POPC   C1B27127  34.131   9.816   8.862
 1800POPC   C2B27128  34.153  10.003   8.421
 1800POPC   C3B27129  34.240   9.758   8.051
 1800POPC   C4B27130  34.119   9.707   7.627
 1801POPC   NC327131   4.889  13.736   9.423
 1801POPC   PO427132   5.367  13.343   9.461
 1801POPC   GL127133   5.296  13.615   9.088
 1801POPC   GL227134   4.984  13.746   8.934
 1801POPC   C1A27135   5.429  13.850   8.714
 1801POPC   D2A27136   5.573  14.087   8.341
 1801POPC   C3A27137   5.270  13.926   8.047
 1801POPC   C4A27138   5.364  13.686   7.719
 1801POPC   C1B27139   4.745  13.596   8.600
 1801POPC   C2B27140   4.702  13.832   8.234
 1801POPC   C3B27141   4.783  14.142   7.929
 1801POPC   C4B27142   4.906  13.850   7.628
 1802POPC   NC327143   9.778  17.501   9.606
 1802POPC   PO427144  10.165  16.973   9.433
 1802POPC   GL127145   9.817  17.248   9.179
 1802POPC   GL227146   9.836  17.671   9.126
 1802POPC   C1A27147   9.598  17.372   8.808
 1802POPC   D2A27148   9.763  17.324   8.398
 1802POPC   C3A27149   9.519  17.466   8.082
 1802POPC   C4A27150   9.500  17.701   7.736
 1802POPC   C1B27151   9.815  17.795   8.665
 1802POPC   C2B27152  10.132  17.688   8.359
 1802POPC   C3B27153  10.261  17.895   8.005
 1802POPC   C4B27154  10.020  17.609   7.794
 1803POPC   NC327155  43.635   0.029   9.508
 1803POPC   PO427156  44.117  44.590   9.646
 1803POPC   GL127157  43.959  44.691   9.213
 1803POPC   GL227158  43.591  44.657   9.133
 1803POPC   C1A27159  44.076  44.554   8.765
 1803POPC   D2A27160  44.246  44.575   8.311
 1803POPC   C3A27161  43.971  44.610   7.938
 1803POPC   C4A27162  43.871  44.315   7.593
 1803POPC   C1B27163  43.689  44.895   8.769
 1803POPC   C2B27164  43.715  44.684   8.376
 1803POPC   C3B27165  43.469  44.644   8.001
 1803POPC   C4B27166  43.578  44.736   7.583
 1804POPC   NC327167  18.738  24.678   9.378
 1804POPC   PO427168  19.262  24.372   9.602
 1804POPC   GL127169  19.308  24.392   9.131
 1804POPC   GL227170  19.237  24.730   9.118
 1804POPC   C1A27171  19.081  24.333   8.681
 1804POPC   D2A27172  18.689  24.523   8.400
 1804POPC   C3A27173  18.767  24.632   7.946
 1804POPC   C4A27174  18.825  24.315   7.619
 1804POPC   C1B27175  18.989  24.809   8.755
 1804POPC   C2B27176  19.125  24.765   8.311
 1804POPC   C3B27177  19.272  24.634   7.885
 1804POPC   C4B27178  19.192  24.615   7.403
 1805POPC   NC327179   9.250  35.500   9.663
 1805POPC   PO427180   9.883  35.495   9.453
 1805POPC   GL127181   9.763  35.513   9.052
 1805POPC   GL227182   9.599  35.235   8.891
 1805POPC   C1A27183   9.843  35.685   8.667
 1805POPC   D2A27184   9.901  35.460   8.331
 1805POPC   C3A27185   9.614  35.242   8.104
 1805POPC   C4A27186   9.681  35.537   7.784
 1805POPC   C1B27187   9.968  35.117   8.721
 1805POPC   C2B27188  10.110  34.844   8.399
 1805POPC   C3B27189  10.078  35.069   8.055
 1805POPC   C4B27190   9.885  35.046   7.653
 1806POPC   NC327191  26.642  11.955   9.456
 1806POPC   PO427192  27.159  12.309   9.608
 1806POPC   GL127193  27.055  12.138   9.150
 1806POPC   GL227194  26.929  11.804   9.085
 1806POPC   C1A27195  26.927  12.047   8.651
 1806POPC   D2A27196  27.024  12.096   8.234
 1806POPC   C3A27197  26.757  12.097   7.936
 1806POPC   C4A27198  26.767  11.899   7.579
 1806POPC   C1B27199  26.550  11.744   8.790
 1806POPC   C2B27200  26.486  11.883   8.359
 1806POPC   C3B27201  26.518  11.647   7.960
 1806POPC   C4B27202  26.297  11.713   7.570
 1807POPC   NC327203   4.238  42.116   9.455
 1807POPC   PO427204   4.640  42.688   9.413
 1807POPC   GL127205   4.604  42.364   9.171
 1807POPC   GL227206   4.763  42.051   9.331
 1807POPC   C1A27207   4.304  42.429   8.835
 1807POPC   D2A27208   4.301  42.736   8.486
 1807POPC   C3A27209   4.248  42.479   8.113
 1807POPC   C4A27210   4.332  42.319   7.695
 1807POPC   C1B27211   4.660  41.965   8.887
 1807POPC   C2B27212   4.510  42.106   8.483
 1807POPC   C3B27213   4.650  42.118   8.058
 1807POPC   C4B27214   4.790  42.077   7.633
 1808POPC   NC327215  13.315  39.084   9.520
 1808POPC   PO427216  13.676  39.600   9.295
 1808POPC   GL127217  13.432  39.306   9.070
 1808POPC   GL227218  13.524  38.937   9.079
 1808POPC   C1A27219  13.515  39.222   8.671
 1808POPC   D2A27220  13.787  39.099   8.379
 1808POPC   C3A27221  13.623  39.319   8.062
 1808POPC   C4A27222  13.739  39.232   7.680
 1808POPC   C1B27223  13.267  38.781   8.734
 1808POPC   C2B27224  13.273  38.933   8.309
 1808POPC   C3B27225  13.539  38.817   7.947
 1808POPC   C4B27226  13.372  38.852   7.515
 1809POPC   NC327227   2.877  17.906   9.782
 1809POPC   PO427228   2.766  18.516   9.490
 1809POPC   GL127229   3.033  18.250   9.240
 1809POPC   GL227230   2.986  18.472   9.021
 1809POPC   C1A27231   3.043  18.014   8.795
 1809POPC   D2A27232   2.761  17.929   8.380
 1809POPC   C3A27233   2.991  17.988   7.928
 1809POPC   C4A27234   2.986  17.964   7.451
 1809POPC   C1B27235   2.734  18.384   8.665
 1809POPC   C2B27236   2.856  18.399   8.243
 1809POPC   C3B27237   2.578  18.291   7.938
 1809POPC   C4B27238   2.748  18.401   7.551
 1810POPC   NC327239  30.549   5.431   9.552
 1810POPC   PO427240  30.627   4.761   9.589
 1810POPC   GL127241  30.750   4.991   9.205
 1810POPC   GL227242  30.648   5.321   9.068
 1810POPC   C1A27243  30.868   4.985   8.760
 1810POPC   D2A27244  30.720   5.138   8.363
 1810POPC   C3A27245  30.888   4.911   8.026
 1810POPC   C4A27246  30.803   4.896   7.619
 1810POPC   C1B27247  30.563   5.549   8.653
 1810POPC   C2B27248  30.320   5.501   8.288
 1810POPC   C3B27249  30.373   5.211   7.976
 1810POPC   C4B27250  30.533   5.308   7.588
 1811POPC   NC327251   2.739   0.551   9.594
 1811POPC   PO427252   3.013  44.877   9.632
 1811POPC   GL127253   2.839   0.075   9.281
 1811POPC   GL227254   3.080   0.324   9.220
 1811POPC   C1A27255   2.818   0.071   8.834
 1811POPC   D2A27256   2.634   0.320   8.520
 1811POPC   C3A27257   2.758   0.207   8.106
 1811POPC   C4A27258   2.583   0.382   7.763
 1811POPC   C1B27259   2.987   0.602   8.871
 1811POPC   C2B27260   3.058   0.600   8.430
 1811POPC   C3B27261   2.872   0.718   8.042
 1811POPC   C4B27262   3.057   0.546   7.696
 1812POPC   NC327263  23.090   0.097   9.691
 1812POPC   PO427264  22.771   0.648   9.557
 1812POPC   GL127265  22.903   0.398   9.174
 1812POPC   GL227266  23.106   0.091   9.185
 1812POPC   C1A27267  22.862   0.406   8.725
 1812POPC   D2A27268  22.591   0.228   8.433
 1812POPC   C3A27269  22.686   0.290   8.005
 1812POPC   C4A27270  22.958   0.512   7.757
 1812POPC   C1B27271  23.044  44.941   8.769
 1812POPC   C2B27272  23.074   0.135   8.330
 1812POPC   C3B27273  23.143   0.063   7.887
 1812POPC   C4B27274  22.952   0.093   7.473
 1813POPC   NC327275  38.004  42.913   9.482
 1813POPC   PO427276  38.680  42.771   9.587
 1813POPC   GL127277  38.671  42.668   9.153
 1813POPC   GL227278  38.350  42.838   9.012
 1813POPC   C1A27279  38.742  42.699   8.710
 1813POPC   D2A27280  38.405  42.793   8.407
 1813POPC   C3A27281  38.461  42.982   7.975
 1813POPC   C4A27282  38.391  42.914   7.528
 1813POPC   C1B27283  38.037  43.047   8.695
 1813POPC   C2B27284  37.975  43.116   8.230
 1813POPC   C3B27285  37.954  43.071   7.763
 1813POPC   C4B27286  37.967  43.039   7.275
 1814POPC   NC327287  12.417  44.205   9.603
 1814POPC   PO427288  12.957  43.813   9.507
 1814POPC   GL127289  12.898  43.906   9.099
 1814POPC   GL227290  13.207  43.780   9.024
 1814POPC   C1A27291  12.915  44.182   8.744
 1814POPC   D2A27292  13.078  44.161   8.312
 1814POPC   C3A27293  12.722  44.161   8.061
 1814POPC   C4A27294  12.566  43.926   7.752
 1814POPC   C1B27295  13.039  43.685   8.613
 1814POPC   C2B27296  13.227  43.479   8.239
 1814POPC   C3B27297  13.235  43.712   7.843
 1814POPC   C4B27298  13.138  44.128   7.741
 1815POPC   NC327299  44.207  21.503   9.584
 1815POPC   PO427300  43.635  21.559   9.477
 1815POPC   GL127301  43.923  21.455   9.177
 1815POPC   GL227302  44.029  21.104   9.255
 1815POPC   C1A27303  44.106  21.371   8.797
 1815POPC   D2A27304  43.986  21.550   8.443
 1815POPC   C3A27305  44.089  21.459   8.056
 1815POPC   C4A27306  44.026  21.688   7.671
 1815POPC   C1B27307  43.692  21.089   8.912
 1815POPC   C2B27308  43.554  21.180   8.476
 1815POPC   C3B27309  43.680  21.052   8.064
 1815POPC   C4B27310  43.820  21.220   7.671
 1816POPC   NC327311  44.441  41.940   9.830
 1816POPC   PO427312   0.017  42.248   9.498
 1816POPC   GL127313  44.761  42.422   9.114
 1816POPC   GL227314  44.384  42.412   9.219
 1816POPC   C1A27315  44.889  42.580   8.686
 1816POPC   D2A27316   0.150  42.665   8.319
 1816POPC   C3A27317  44.895  42.636   7.905
 1816POPC   C4A27318  44.930  42.461   7.471
 1816POPC   C1B27319  44.370  42.309   8.794
 1816POPC   C2B27320  44.365  42.073   8.444
 1816POPC   C3B27321  44.310  42.080   8.038
 1816POPC   C4B27322  44.489  42.302   7.700
 1817POPC   NC327323   8.713   1.819   9.450
 1817POPC   PO427324   9.017   2.440   9.557
 1817POPC   GL127325   9.008   2.162   9.182
 1817POPC   GL227326   8.683   2.220   9.071
 1817POPC   C1A27327   8.926   1.818   8.846
 1817POPC   D2A27328   8.809   1.676   8.453
 1817POPC   C3A27329   8.878   1.877   8.067
 1817POPC   C4A27330   8.838   1.980   7.655
 1817POPC   C1B27331   8.735   2.419   8.711
 1817POPC   C2B27332   9.017   2.295   8.386
 1817POPC   C3B27333   8.961   2.425   7.975
 1817POPC   C4B27334   8.607   2.443   7.721
 1818POPC   NC327335  34.647  20.828   9.741
 1818POPC   PO427336  34.354  20.284   9.455
 1818POPC   GL127337  34.526  20.446   9.078
 1818POPC   GL227338  34.636  20.785   9.208
 1818POPC   C1A27339  34.614  20.405   8.651
 1818POPC   D2A27340  34.379  20.382   8.291
 1818POPC   C3A27341  34.621  20.514   7.958
 1818POPC   C4A27342  34.763  20.452   7.521
 1818POPC   C1B27343  34.457  20.887   8.797
 1818POPC   C2B27344  34.533  20.872   8.356
 1818POPC   C3B27345  34.255  20.868   7.996
 1818POPC   C4B27346  34.283  20.693   7.616
 1819POPC   NC327347  40.843  24.676   9.486
 1819POPC   PO427348  40.770  23.953   9.474
 1819POPC   GL127349  40.834  24.273   9.134
 1819POPC   GL227350  40.607  24.574   9.067
 1819POPC   C1A27351  40.787  24.226   8.680
 1819POPC   D2A27352  40.756  24.112   8.222
 1819POPC   C3A27353  40.991  24.450   7.937
 1819POPC   C4A27354  41.000  24.692   7.512
 1819POPC   C1B27355  40.469  24.645   8.673
 1819POPC   C2B27356  40.628  24.602   8.285
 1819POPC   C3B27357  40.485  24.423   7.921
 1819POPC   C4B27358  40.154  24.480   7.695
 1820POPC   NC327359  37.016  10.269   9.368
 1820POPC   PO427360  36.857   9.659   9.572
 1820POPC   GL127361  36.950   9.551   9.180
 1820POPC   GL227362  37.087   9.848   9.054
 1820POPC   C1A27363  36.747   9.514   8.795
 1820POPC   D2A27364  36.926   9.577   8.406
 1820POPC   C3A27365  36.664   9.745   8.140
 1820POPC   C4A27366  36.812   9.600   7.752
 1820POPC   C1B27367  36.833  10.015   8.709
 1820POPC   C2B27368  37.025  10.093   8.318
 1820POPC   C3B27369  37.166   9.883   7.972
 1820POPC   C4B27370  37.277   9.837   7.539
 1821POPC   NC327371  44.885  36.606   9.463
 1821POPC   PO427372  44.650  37.198   9.559
 1821POPC   GL127373  44.510  36.888   9.224
 1821POPC   GL227374  44.265  37.036   9.025
 1821POPC   C1A27375  44.615  36.701   8.796
 1821POPC   D2A27376  44.610  36.575   8.330
 1821POPC   C3A27377  44.593  36.845   7.977
 1821POPC   C4A27378  44.892  36.791   7.635
 1821POPC   C1B27379  44.668  37.209   8.862
 1821POPC   C2B27380  44.807  37.068   8.479
 1821POPC   C3B27381  44.979  37.292   8.196
 1821POPC   C4B27382  44.819  37.288   7.813
 1822POPC   NC327383  16.843  42.137   9.896
 1822POPC   PO427384  16.764  42.683   9.454
 1822POPC   GL127385  16.705  42.466   9.050
 1822POPC   GL227386  16.459  42.202   8.999
 1822POPC   C1A27387  16.856  42.229   8.689
 1822POPC   D2A27388  16.683  41.961   8.367
 1822POPC   C3A27389  16.670  42.089   7.954
 1822POPC   C4A27390  16.783  41.992   7.523
 1822POPC   C1B27391  16.368  42.495   8.678
 1822POPC   C2B27392  16.306  42.329   8.299
 1822POPC   C3B27393  16.325  42.504   7.914
 1822POPC   C4B27394  16.644  42.459   7.597
 1823POPC   NC327395  42.213  23.429   9.446
 1823POPC   PO427396  42.459  24.123   9.536
 1823POPC   GL127397  42.473  23.858   9.163
 1823POPC   GL227398  42.154  23.746   9.050
 1823POPC   C1A27399  42.431  24.030   8.732
 1823POPC   D2A27400  42.662  24.159   8.372
 1823POPC   C3A27401  42.541  23.958   7.978
 1823POPC   C4A27402  42.471  23.765   7.567
 1823POPC   C1B27403  42.437  23.515   8.765
 1823POPC   C2B27404  42.595  23.604   8.345
 1823POPC   C3B27405  42.468  23.432   7.948
 1823POPC   C4B27406  42.095  23.178   7.901
 1824POPC   NC327407  15.826  14.729   9.526
 1824POPC   PO427408  15.804  15.391   9.550
 1824POPC   GL127409  15.892  15.117   9.198
 1824POPC   GL227410  16.221  14.934   9.213
 1824POPC   C1A27411  15.810  14.855   8.833
 1824POPC   D2A27412  15.927  14.716   8.411
 1824POPC   C3A27413  15.774  15.010   8.098
 1824POPC   C4A27414  15.532  15.048   7.760
 1824POPC   C1B27415  16.220  15.190   8.818
 1824POPC   C2B27416  16.111  15.250   8.388
 1824POPC   C3B27417  16.260  15.140   7.946
 1824POPC   C4B27418  16.170  15.167   7.496
 1825POPC   NC327419   3.025  13.601   9.507
 1825POPC   PO427420   2.512  13.817   9.429
 1825POPC   GL127421   2.761  13.702   9.047
 1825POPC   GL227422   2.956  13.389   9.037
 1825POPC   C1A27423   2.934  13.851   8.640
 1825POPC   D2A27424   2.925  13.691   8.209
 1825POPC   C3A27425   2.583  13.763   7.910
 1825POPC   C4A27426   2.504  13.665   7.484
 1825POPC   C1B27427   2.834  13.345   8.591
 1825POPC   C2B27428   2.572  13.321   8.202
 1825POPC   C3B27429   2.642  13.213   7.766
 1825POPC   C4B27430   2.838  13.165   7.365
 1826POPC   NC327431  35.796  18.922   9.593
 1826POPC   PO427432  36.379  18.871   9.597
 1826POPC   GL127433  36.138  19.072   9.237
 1826POPC   GL227434  35.885  18.832   9.083
 1826POPC   C1A27435  36.237  19.272   8.849
 1826POPC   D2A27436  36.497  19.128   8.521
 1826POPC   C3A27437  36.369  19.156   8.117
 1826POPC   C4A27438  36.435  19.168   7.695
 1826POPC   C1B27439  35.868  18.985   8.636
 1826POPC   C2B27440  35.965  19.333   8.381
 1826POPC   C3B27441  36.042  19.527   7.977
 1826POPC   C4B27442  35.924  19.188   7.814
 1827POPC   NC327443  26.132   0.769   9.854
 1827POPC   PO427444  26.023   1.425   9.726
 1827POPC   GL127445  26.032   1.330   9.311
 1827POPC   GL227446  26.356   1.428   9.234
 1827POPC   C1A27447  25.927   1.057   8.955
 1827POPC   D2A27448  26.079   1.001   8.532
 1827POPC   C3A27449  25.834   0.909   8.174
 1827POPC   C4A27450  26.030   1.049   7.837
 1827POPC   C1B27451  26.169   1.506   8.845
 1827POPC   C2B27452  26.238   1.490   8.428
 1827POPC   C3B27453  26.216   1.604   8.016
 1827POPC   C4B27454  25.993   1.533   7.668
 1828POPC   NC327455  32.799  40.224   9.285
 1828POPC   PO427456  33.258  39.984   9.740
 1828POPC   GL127457  33.302  40.089   9.245
 1828POPC   GL227458  33.184  39.801   9.025
 1828POPC   C1A27459  33.351  40.173   8.754
 1828POPC   D2A27460  33.236  39.915   8.387
 1828POPC   C3A27461  33.050  40.151   8.056
 1828POPC   C4A27462  33.110  40.088   7.624
 1828POPC   C1B27463  32.844  39.781   8.729
 1828POPC   C2B27464  32.706  39.804   8.293
 1828POPC   C3B27465  32.865  39.686   7.889
 1828POPC   C4B27466  32.803  39.445   7.511
 1829POPC   NC327467  39.888  43.579   9.462
 1829POPC   PO427468  40.071  44.136   9.563
 1829POPC   GL127469  40.232  43.921   9.166
 1829POPC   GL227470  40.080  43.639   9.005
 1829POPC   C1A27471  40.333  44.043   8.736
 1829POPC   D2A27472  40.138  43.925   8.346
 1829POPC   C3A27473  40.258  44.140   7.968
 1829POPC   C4A27474  40.056  44.172   7.536
 1829POPC   C1B27475  40.128  43.466   8.599
 1829POPC   C2B27476  39.902  43.448   8.212
 1829POPC   C3B27477  39.964  43.522   7.779
 1829POPC   C4B27478  40.224  43.323   7.481
 1830POPC   NC327479   8.838  13.308   9.522
 1830POPC   PO427480   9.273  13.713   9.280
 1830POPC   GL127481   9.035  13.409   9.048
 1830POPC   GL227482   8.713  13.561   9.106
 1830POPC   C1A27483   8.900  13.458   8.616
 1830POPC   D2A27484   8.957  13.748   8.302
 1830POPC   C3A27485   9.254  13.698   8.001
 1830POPC   C4A27486   9.225  13.444   7.673
 1830POPC   C1B27487   8.504  13.745   8.775
 1830POPC   C2B27488   8.464  13.898   8.386
 1830POPC   C3B27489   8.490  13.680   8.034
 1830POPC   C4B27490   8.459  13.818   7.615
 1831POPC   NC327491   6.996  27.649   9.772
 1831POPC   PO427492   6.496  27.435   9.649
 1831POPC   GL127493   6.454  27.403   9.177
 1831POPC   GL227494   6.635  27.683   8.994
 1831POPC   C1A27495   6.440  27.318   8.700
 1831POPC   D2A27496   6.527  27.521   8.291
 1831POPC   C3A27497   6.586  27.288   7.879
 1831POPC   C4A27498   6.625  27.440   7.438
 1831POPC   C1B27499   6.924  27.531   8.640
 1831POPC   C2B27500   7.006  27.483   8.175
 1831POPC   C3B27501   6.790  27.748   7.870
 1831POPC   C4B27502   6.977  27.869   7.494
 1832POPC   NC327503  37.943   8.945   9.629
 1832POPC   PO427504  37.284   8.755   9.573
 1832POPC   GL127505  37.579   8.869   9.285
 1832POPC   GL227506  37.426   8.658   9.074
 1832POPC   C1A27507  37.717   9.041   8.907
 1832POPC   D2A27508  37.753   8.962   8.465
 1832POPC   C3A27509  37.832   9.216   8.155
 1832POPC   C4A27510  37.679   9.185   7.756
 1832POPC   C1B27511  37.311   8.834   8.697
 1832POPC   C2B27512  37.370   8.647   8.327
 1832POPC   C3B27513  37.356   8.839   7.952
 1832POPC   C4B27514  37.051   8.645   7.690
 1833POPC   NC327515  26.810  31.057   9.651
 1833POPC   PO427516  26.864  31.698   9.582
 1833POPC   GL127517  26.766  31.401   9.238
 1833POPC   GL227518  27.001  31.096   9.174
 1833POPC   C1A27519  26.619  31.536   8.835
 1833POPC   D2A27520  26.745  31.741   8.477
 1833POPC   C3A27521  26.624  31.642   8.086
 1833POPC   C4A27522  26.839  31.584   7.716
 1833POPC   C1B27523  26.822  31.056   8.773
 1833POPC   C2B27524  26.757  31.242   8.398
 1833POPC   C3B27525  26.777  31.120   7.980
 1833POPC   C4B27526  27.013  31.147   7.598
 1834POPC   NC327527   3.091  32.295   9.402
 1834POPC   PO427528   2.440  32.356   9.565
 1834POPC   GL127529   2.645  32.295   9.121
 1834POPC   GL227530   2.904  32.045   9.021
 1834POPC   C1A27531   2.819  32.432   8.690
 1834POPC   D2A27532   2.510  32.601   8.344
 1834POPC   C3A27533   2.484  32.404   7.928
 1834POPC   C4A27534   2.652  32.190   7.520
 1834POPC   C1B27535   2.651  31.971   8.682
 1834POPC   C2B27536   2.758  32.128   8.285
 1834POPC   C3B27537   2.852  31.983   7.933
 1834POPC   C4B27538   3.079  31.797   7.650
 1835POPC   NC327539  38.791  42.347   9.729
 1835POPC   PO427540  38.456  41.806   9.454
 1835POPC   GL127541  38.516  42.169   9.204
 1835POPC   GL227542  38.191  42.372   9.165
 1835POPC   C1A27543  38.478  42.260   8.764
 1835POPC   D2A27544  38.340  42.269   8.347
 1835POPC   C3A27545  38.560  42.480   8.020
 1835POPC   C4A27546  38.514  42.400   7.607
 1835POPC   C1B27547  38.037  42.534   8.715
 1835POPC   C2B27548  37.961  42.598   8.241
 1835POPC   C3B27549  38.095  42.595   7.805
 1835POPC   C4B27550  38.114  42.551   7.312
 1836POPC   NC327551   6.040  24.019   9.506
 1836POPC   PO427552   6.104  23.355   9.580
 1836POPC   GL127553   6.102  23.482   9.134
 1836POPC   GL227554   6.173  23.834   9.027
 1836POPC   C1A27555   5.794  23.627   8.781
 1836POPC   D2A27556   5.889  23.810   8.357
 1836POPC   C3A27557   5.932  23.547   7.974
 1836POPC   C4A27558   5.587  23.445   7.729
 1836POPC   C1B27559   6.276  23.568   8.656
 1836POPC   C2B27560   6.367  23.684   8.229
 1836POPC   C3B27561   6.244  23.958   7.927
 1836POPC   C4B27562   5.927  23.952   7.609
 1837POPC   NC327563   0.160  33.419   9.438
 1837POPC   PO427564  44.675  33.825   9.623
 1837POPC   GL127565  44.665  33.869   9.199
 1837POPC   GL227566  44.754  33.529   9.119
 1837POPC   C1A27567  44.732  33.990   8.779
 1837POPC   D2A27568  44.544  33.906   8.375
 1837POPC   C3A27569  44.757  34.023   8.022
 1837POPC   C4A27570  44.727  33.905   7.612
 1837POPC   C1B27571  44.504  33.486   8.743
 1837POPC   C2B27572  44.318  33.439   8.329
 1837POPC   C3B27573  44.550  33.537   7.930
 1837POPC   C4B27574  44.770  33.420   7.511
 1838POPC   NC327575   4.723  10.726   9.593
 1838POPC   PO427576   4.080  10.417   9.556
 1838POPC   GL127577   4.355  10.647   9.241
 1838POPC   GL227578   4.199  10.856   8.979
 1838POPC   C1A27579   4.565  10.524   8.897
 1838POPC   D2A27580   4.515  10.488   8.460
 1838POPC   C3A27581   4.503  10.489   8.026
 1838POPC   C4A27582   4.833  10.310   7.823
 1838POPC   C1B27583   4.531  10.984   8.691
 1838POPC   C2B27584   4.638  10.950   8.274
 1838POPC   C3B27585   4.488  10.976   7.882
 1838POPC   C4B27586   4.237  10.858   7.547
 1839POPC   NC327587  18.903   6.914   9.280
 1839POPC   PO427588  19.129   6.277   9.484
 1839POPC   GL127589  18.899   6.425   9.168
 1839POPC   GL227590  19.207   6.541   9.035
 1839POPC   C1A27591  18.779   6.555   8.752
 1839POPC   D2A27592  19.003   6.538   8.400
 1839POPC   C3A27593  18.845   6.429   8.052
 1839POPC   C4A27594  18.902   6.598   7.663
 1839POPC   C1B27595  19.252   6.854   8.717
 1839POPC   C2B27596  19.241   6.962   8.277
 1839POPC   C3B27597  19.339   6.765   7.900
 1839POPC   C4B27598  19.572   6.996   7.599
 1840POPC   NC327599  18.205  39.554   9.584
 1840POPC   PO427600  18.611  39.045   9.592
 1840POPC   GL127601  18.371  39.201   9.203
 1840POPC   GL227602  18.016  39.063   9.104
 1840POPC   C1A27603  18.271  39.423   8.809
 1840POPC   D2A27604  18.069  39.294   8.416
 1840POPC   C3A27605  18.330  39.324   8.049
 1840POPC   C4A27606  18.502  39.135   7.663
 1840POPC   C1B27607  18.241  38.915   8.757
 1840POPC   C2B27608  18.463  38.957   8.389
 1840POPC   C3B27609  18.289  38.813   8.005
 1840POPC   C4B27610  17.992  39.083   7.769
 1841POPC   NC327611  27.442  31.078   9.427
 1841POPC   PO427612  27.797  30.527   9.648
 1841POPC   GL127613  27.745  30.570   9.213
 1841POPC   GL227614  27.409  30.686   9.131
 1841POPC   C1A27615  27.600  30.325   8.858
 1841POPC   D2A27616  27.474  30.514   8.479
 1841POPC   C3A27617  27.714  30.476   8.086
 1841POPC   C4A27618  27.812  30.806   7.816
 1841POPC   C1B27619  27.350  30.976   8.778
 1841POPC   C2B27620  27.176  30.950   8.349
 1841POPC   C3B27621  27.361  30.986   7.921
 1841POPC   C4B27622  27.467  31.023   7.436
 1842POPC   NC327623  44.203  35.212   9.483
 1842POPC   PO427624  44.887  35.521   9.490
 1842POPC   GL127625  44.782  35.361   9.088
 1842POPC   GL227626  44.429  35.347   9.042
 1842POPC   C1A27627  44.820  35.043   8.740
 1842POPC   D2A27628  44.901  35.245   8.343
 1842POPC   C3A27629  44.589  35.299   8.024
 1842POPC   C4A27630  44.641  35.108   7.628
 1842POPC   C1B27631  44.537  35.446   8.631
 1842POPC   C2B27632  44.267  35.586   8.323
 1842POPC   C3B27633  44.239  35.776   7.946
 1842POPC   C4B27634  44.379  35.540   7.601
 1843POPC   NC327635   4.992  16.583   9.517
 1843POPC   PO427636   5.051  15.901   9.561
 1843POPC   GL127637   4.949  16.158   9.166
 1843POPC   GL227638   4.656  16.387   9.131
 1843POPC   C1A27639   5.176  16.236   8.761
 1843POPC   D2A27640   5.227  16.388   8.362
 1843POPC   C3A27641   5.396  16.074   8.150
 1843POPC   C4A27642   5.376  15.936   7.759
 1843POPC   C1B27643   4.680  16.171   8.719
 1843POPC   C2B27644   4.646  16.194   8.276
 1843POPC   C3B27645   4.915  16.083   7.960
 1843POPC   C4B27646   4.896  15.807   7.652
 1844POPC   NC327647  39.769  25.010   9.558
 1844POPC   PO427648  40.357  24.667   9.535
 1844POPC   GL127649  40.092  24.555   9.162
 1844POPC   GL227650  39.765  24.698   9.162
 1844POPC   C1A27651  39.977  24.583   8.706
 1844POPC   D2A27652  40.096  24.547   8.274
 1844POPC   C3A27653  39.747  24.460   8.001
 1844POPC   C4A27654  39.630  24.506   7.584
 1844POPC   C1B27655  39.527  24.797   8.793
 1844POPC   C2B27656  39.621  24.779   8.377
 1844POPC   C3B27657  39.831  24.981   8.056
 1844POPC   C4B27658  39.988  24.948   7.650
 1845POPC   NC327659   0.571  18.773   9.376
 1845POPC   PO427660   0.131  19.263   9.556
 1845POPC   GL127661   0.172  19.026   9.175
 1845POPC   GL227662   0.482  19.222   9.078
 1845POPC   C1A27663   0.284  18.835   8.769
 1845POPC   D2A27664   0.564  19.025   8.468
 1845POPC   C3A27665   0.594  18.775   8.093
 1845POPC   C4A27666   0.242  18.746   7.805
 1845POPC   C1B27667   0.620  19.526   8.736
 1845POPC   C2B27668   0.469  19.552   8.310
 1845POPC   C3B27669   0.498  19.267   7.994
 1845POPC   C4B27670   0.735  19.289   7.657
 1846POPC   NC327671  42.377   6.059   9.462
 1846POPC   PO427672  41.956   5.547   9.447
 1846POPC   GL127673  42.137   5.734   9.099
 1846POPC   GL227674  42.513   5.775   9.078
 1846POPC   C1A27675  42.149   5.913   8.703
 1846POPC   D2A27676  42.399   5.829   8.384
 1846POPC   C3A27677  42.253   5.878   8.012
 1846POPC   C4A27678  42.058   5.575   7.790
 1846POPC   C1B27679  42.651   6.083   8.739
 1846POPC   C2B27680  42.575   6.284   8.289
 1846POPC   C3B27681  42.657   6.149   7.862
 1846POPC   C4B27682  42.776   6.184   7.429
 1847POPC   NC327683  34.089  21.202   9.305
 1847POPC   PO427684  34.599  21.341   9.696
 1847POPC   GL127685  34.719  21.299   9.267
 1847POPC   GL227686  34.872  21.606   9.180
 1847POPC   C1A27687  34.828  21.260   8.824
 1847POPC   D2A27688  34.600  21.394   8.459
 1847POPC   C3A27689  34.781  21.256   8.067
 1847POPC   C4A27690  34.572  21.143   7.700
 1847POPC   C1B27691  34.804  21.787   8.788
 1847POPC   C2B27692  34.719  21.895   8.379
 1847POPC   C3B27693  34.610  21.741   8.010
 1847POPC   C4B27694  34.822  21.640   7.662
 1848POPC   NC327695  16.456  36.775   9.389
 1848POPC   PO427696  17.067  36.848   9.587
 1848POPC   GL127697  16.875  37.021   9.202
 1848POPC   GL227698  17.125  37.260   9.130
 1848POPC   C1A27699  16.630  36.878   8.775
 1848POPC   D2A27700  16.546  36.696   8.345
 1848POPC   C3A27701  16.380  36.942   7.980
 1848POPC   C4A27702  16.614  36.800   7.631
 1848POPC   C1B27703  17.124  36.984   8.768
 1848POPC   C2B27704  16.938  37.084   8.390
 1848POPC   C3B27705  16.870  37.093   7.976
 1848POPC   C4B27706  17.071  36.990   7.597
 1849POPC   NC327707  24.888  25.711   9.279
 1849POPC   PO427708  25.251  25.291   9.633
 1849POPC   GL127709  25.133  25.234   9.197
 1849POPC   GL227710  25.324  25.492   9.144
 1849POPC   C1A27711  25.091  25.383   8.722
 1849POPC   D2A27712  25.190  25.550   8.303
 1849POPC   C3A27713  24.986  25.378   7.933
 1849POPC   C4A27714  25.131  25.079   7.631
 1849POPC   C1B27715  25.617  25.551   8.826
 1849POPC   C2B27716  25.687  25.717   8.436
 1849POPC   C3B27717  25.673  25.502   8.084
 1849POPC   C4B27718  25.427  25.470   7.741
 1850POPC   NC327719   1.526  36.494   9.506
 1850POPC   PO427720   0.956  36.122   9.546
 1850POPC   GL127721   1.004  35.983   9.133
 1850POPC   GL227722   1.366  35.932   9.112
 1850POPC   C1A27723   0.985  36.084   8.713
 1850POPC   D2A27724   1.221  36.318   8.421
 1850POPC   C3A27725   1.035  36.323   8.020
 1850POPC   C4A27726   0.847  35.948   7.799
 1850POPC   C1B27727   1.558  36.227   8.799
 1850POPC   C2B27728   1.728  36.262   8.369
 1850POPC   C3B27729   1.503  36.103   8.029
 1850POPC   C4B27730   1.580  36.186   7.620
 1851POPC   NC327731   3.466  44.184   9.394
 1851POPC   PO427732   3.639  43.543   9.470
 1851POPC   GL127733   3.508  43.722   9.096
 1851POPC   GL227734   3.561  44.027   8.913
 1851POPC   C1A27735   3.309  43.628   8.701
 1851POPC   D2A27736   3.036  43.667   8.368
 1851POPC   C3A27737   3.291  43.857   8.069
 1851POPC   C4A27738   3.357  43.797   7.633
 1851POPC   C1B27739   3.725  44.317   8.600
 1851POPC   C2B27740   3.825  44.244   8.226
 1851POPC   C3B27741   3.707  44.117   7.864
 1851POPC   C4B27742   3.965  44.019   7.546
 1852POPC   NC327743  40.549   9.113   9.508
 1852POPC   PO427744  41.174   8.713   9.500
 1852POPC   GL127745  41.042   8.848   9.108
 1852POPC   GL227746  40.708   8.766   9.157
 1852POPC   C1A27747  41.184   8.950   8.688
 1852POPC   D2A27748  40.969   8.816   8.285
 1852POPC   C3A27749  40.982   9.032   7.863
 1852POPC   C4A27750  40.971   9.335   7.483
 1852POPC   C1B27751  40.687   8.947   8.721
 1852POPC   C2B27752  40.559   9.161   8.373
 1852POPC   C3B27753  40.425   9.170   8.006
 1852POPC   C4B27754  40.533   8.813   7.765
 1853POPC   NC327755  17.810   4.468   9.462
 1853POPC   PO427756  17.432   3.924   9.556
 1853POPC   GL127757  17.511   4.169   9.180
 1853POPC   GL227758  17.869   4.120   9.049
 1853POPC   C1A27759  17.254   4.349   8.825
 1853POPC   D2A27760  17.125   4.688   8.554
 1853POPC   C3A27761  17.220   4.503   8.182
 1853POPC   C4A27762  17.407   4.287   7.840
 1853POPC   C1B27763  17.751   4.487   8.818
 1853POPC   C2B27764  17.651   4.632   8.422
 1853POPC   C3B27765  17.688   4.654   8.016
 1853POPC   C4B27766  17.907   4.406   7.734
 1854POPC   NC327767  42.928   7.254   9.269
 1854POPC   PO427768  43.335   7.599   9.558
 1854POPC   GL127769  43.354   7.547   9.093
 1854POPC   GL227770  43.168   7.264   8.844
 1854POPC   C1A27771  43.204   7.729   8.719
 1854POPC   D2A27772  42.937   7.607   8.398
 1854POPC   C3A27773  43.134   7.463   8.010
 1854POPC   C4A27774  43.063   7.554   7.588
 1854POPC   C1B27775  42.832   6.947   8.737
 1854POPC   C2B27776  42.625   6.971   8.385
 1854POPC   C3B27777  42.854   6.896   8.008
 1854POPC   C4B27778  42.915   7.077   7.619
 1855POPC   NC327779  28.925  31.189   9.629
 1855POPC   PO427780  29.306  31.760   9.449
 1855POPC   GL127781  29.053  31.567   9.166
 1855POPC   GL227782  29.027  31.222   9.130
 1855POPC   C1A27783  29.140  31.526   8.726
 1855POPC   D2A27784  29.091  31.700   8.343
 1855POPC   C3A27785  29.102  31.444   8.004
 1855POPC   C4A27786  28.957  31.500   7.642
 1855POPC   C1B27787  28.743  31.166   8.788
 1855POPC   C2B27788  28.876  31.139   8.340
 1855POPC   C3B27789  28.758  31.081   7.869
 1855POPC   C4B27790  28.707  31.179   7.369
 1856POPC   NC327791  38.453  16.369   9.637
 1856POPC   PO427792  38.179  15.749   9.596
 1856POPC   GL127793  38.322  15.902   9.211
 1856POPC   GL227794  38.114  16.147   9.130
 1856POPC   C1A27795  38.514  15.800   8.791
 1856POPC   D2A27796  38.781  15.915   8.409
 1856POPC   C3A27797  38.621  15.985   7.955
 1856POPC   C4A27798  38.580  15.859   7.525
 1856POPC   C1B27799  38.283  16.279   8.748
 1856POPC   C2B27800  38.432  16.275   8.329
 1856POPC   C3B27801  38.261  16.403   7.935
 1856POPC   C4B27802  38.442  16.349   7.553
 1857POPC   NC327803   1.380  39.617   9.510
 1857POPC   PO427804   1.135  38.976   9.624
 1857POPC   GL127805   1.273  38.954   9.187
 1857POPC   GL227806   1.619  39.048   9.196
 1857POPC   C1A27807   1.189  38.999   8.712
 1857POPC   D2A27808   1.238  38.888   8.255
 1857POPC   C3A27809   0.990  39.151   7.946
 1857POPC   C4A27810   0.841  39.593   7.915
 1857POPC   C1B27811   1.536  39.323   8.883
 1857POPC   C2B27812   1.450  39.361   8.440
 1857POPC   C3B27813   1.555  39.305   8.017
 1857POPC   C4B27814   1.295  39.467   7.669
 1858POPC   NC327815   4.169  42.889   9.432
 1858POPC   PO427816   4.400  43.343   9.771
 1858POPC   GL127817   4.383  43.317   9.266
 1858POPC   GL227818   4.057  43.379   9.200
 1858POPC   C1A27819   4.553  43.081   8.863
 1858POPC   D2A27820   4.587  43.180   8.400
 1858POPC   C3A27821   4.559  42.907   8.025
 1858POPC   C4A27822   4.476  43.079   7.610
 1858POPC   C1B27823   4.031  43.067   8.824
 1858POPC   C2B27824   3.960  43.158   8.389
 1858POPC   C3B27825   4.116  43.181   7.985
 1858POPC   C4B27826   4.060  42.791   7.739
 1859POPC   NC327827  20.351  36.997   9.594
 1859POPC   PO427828  19.989  37.362   9.342
 1859POPC   GL127829  20.186  36.955   9.117
 1859POPC   GL227830  20.487  37.056   8.976
 1859POPC   C1A27831  20.246  36.657   8.736
 1859POPC   D2A27832  20.406  36.448   8.325
 1859POPC   C3A27833  20.451  36.608   7.870
 1859POPC   C4A27834  20.608  36.944   7.600
 1859POPC   C1B27835  20.632  36.935   8.549
 1859POPC   C2B27836  20.728  36.959   8.105
 1859POPC   C3B27837  20.865  37.309   7.815
 1859POPC   C4B27838  20.833  37.314   7.321
 1860POPC   NC327839  36.335  23.385   9.620
 1860POPC   PO427840  35.760  23.572   9.496
 1860POPC   GL127841  36.058  23.413   9.181
 1860POPC   GL227842  36.339  23.654   9.117
 1860POPC   C1A27843  36.186  23.368   8.737
 1860POPC   D2A27844  36.469  23.476   8.396
 1860POPC   C3A27845  36.278  23.454   7.964
 1860POPC   C4A27846  35.884  23.375   7.710
 1860POPC   C1B27847  36.377  23.894   8.678
 1860POPC   C2B27848  36.491  23.935   8.195
 1860POPC   C3B27849  36.460  23.966   7.734
 1860POPC   C4B27850  36.600  24.001   7.263
 1861POPC   NC327851   4.624  17.512   9.563
 1861POPC   PO427852   3.989  17.634   9.695
 1861POPC   GL127853   4.138  17.604   9.238
 1861POPC   GL227854   4.477  17.650   9.095
 1861POPC   C1A27855   4.064  17.506   8.776
 1861POPC   D2A27856   4.239  17.644   8.353
 1861POPC   C3A27857   4.401  17.429   8.025
 1861POPC   C4A27858   4.307  17.428   7.619
 1861POPC   C1B27859   4.375  17.918   8.747
 1861POPC   C2B27860   4.274  18.164   8.387
 1861POPC   C3B27861   4.377  18.007   7.982
 1861POPC   C4B27862   4.630  17.819   7.651
 1862POPC   NC327863   2.595  22.355   9.424
 1862POPC   PO427864   2.490  21.697   9.333
 1862POPC   GL127865   2.760  22.012   9.089
 1862POPC   GL227866   2.550  21.909   8.857
 1862POPC   C1A27867   2.807  22.275   8.675
 1862POPC   D2A27868   2.719  22.064   8.288
 1862POPC   C3A27869   2.931  22.246   7.938
 1862POPC   C4A27870   3.327  22.119   7.763
 1862POPC   C1B27871   2.951  21.783   8.653
 1862POPC   C2B27872   2.920  21.554   8.281
 1862POPC   C3B27873   2.774  21.715   7.927
 1862POPC   C4B27874   2.462  22.036   7.820
 1863POPC   NC327875   3.362  12.069   9.441
 1863POPC   PO427876   3.970  11.951   9.702
 1863POPC   GL127877   3.844  12.040   9.273
 1863POPC   GL227878   3.776  11.764   9.128
 1863POPC   C1A27879   3.858  12.231   8.842
 1863POPC   D2A27880   3.855  12.080   8.411
 1863POPC   C3A27881   3.767  12.314   8.033
 1863POPC   C4A27882   3.453  12.522   7.775
 1863POPC   C1B27883   3.504  11.868   8.766
 1863POPC   C2B27884   3.371  11.934   8.314
 1863POPC   C3B27885   3.363  11.980   7.851
 1863POPC   C4B27886   3.212  11.750   7.481
 1864POPC   NC327887  21.488  31.072   9.523
 1864POPC   PO427888  21.313  31.619   9.437
 1864POPC   GL127889  21.255  31.269   9.116
 1864POPC   GL227890  20.946  31.267   8.976
 1864POPC   C1A27891  21.418  31.222   8.679
 1864POPC   D2A27892  21.660  31.440   8.325
 1864POPC   C3A27893  21.467  31.586   7.930
 1864POPC   C4A27894  21.557  31.193   7.744
 1864POPC   C1B27895  21.139  31.645   8.778
 1864POPC   C2B27896  21.165  31.595   8.346
 1864POPC   C3B27897  21.114  31.234   8.012
 1864POPC   C4B27898  21.074  31.244   7.514
 1865POPC   NC327899  42.751  38.534   9.455
 1865POPC   PO427900  42.118  38.191   9.459
 1865POPC   GL127901  42.189  38.612   9.199
 1865POPC   GL227902  42.515  38.775   9.083
 1865POPC   C1A27903  42.210  38.566   8.736
 1865POPC   D2A27904  42.252  38.232   8.452
 1865POPC   C3A27905  42.497  38.216   8.088
 1865POPC   C4A27906  42.179  38.426   7.848
 1865POPC   C1B27907  42.537  38.946   8.660
 1865POPC   C2B27908  42.512  38.677   8.296
 1865POPC   C3B27909  42.646  38.659   7.872
 1865POPC   C4B27910  42.709  38.696   7.437
 1866POPC   NC327911  13.450  31.773   9.635
 1866POPC   PO427912  13.942  31.349   9.551
 1866POPC   GL127913  13.575  31.411   9.290
 1866POPC   GL227914  13.683  31.708   9.192
 1866POPC   C1A27915  13.494  31.329   8.864
 1866POPC   D2A27916  13.786  31.288   8.513
 1866POPC   C3A27917  13.634  31.308   8.109
 1866POPC   C4A27918  13.790  31.123   7.752
 1866POPC   C1B27919  13.533  31.865   8.826
 1866POPC   C2B27920  13.420  31.654   8.467
 1866POPC   C3B27921  13.458  31.788   8.074
 1866POPC   C4B27922  13.653  31.664   7.715
 1867POPC   NC327923  42.549  17.376   9.553
 1867POPC   PO427924  41.917  17.417   9.359
 1867POPC   GL127925  42.284  17.416   9.111
 1867POPC   GL227926  42.483  17.718   9.186
 1867POPC   C1A27927  42.292  17.213   8.720
 1867POPC   D2A27928  42.020  17.036   8.354
 1867POPC   C3A27929  42.181  17.149   7.966
 1867POPC   C4A27930  42.185  17.565   7.761
 1867POPC   C1B27931  42.543  17.699   8.761
 1867POPC   C2B27932  42.743  17.548   8.399
 1867POPC   C3B27933  42.649  17.414   8.004
 1867POPC   C4B27934  42.671  17.671   7.642
 1868POPC   NC327935  20.943  10.063   9.458
 1868POPC   PO427936  20.659   9.479   9.434
 1868POPC   GL127937  20.565   9.637   9.035
 1868POPC   GL227938  20.605  10.011   9.046
 1868POPC   C1A27939  20.508   9.673   8.622
 1868POPC   D2A27940  20.610   9.958   8.296
 1868POPC   C3A27941  20.346   9.765   7.986
 1868POPC   C4A27942  20.479   9.516   7.660
 1868POPC   C1B27943  20.869  10.339   8.853
 1868POPC   C2B27944  21.096  10.379   8.458
 1868POPC   C3B27945  20.972  10.253   8.011
 1868POPC   C4B27946  20.760   9.939   7.745
 1869POPC   NC327947  42.183  41.042   9.558
 1869POPC   PO427948  42.362  40.360   9.465
 1869POPC   GL127949  42.538  40.713   9.240
 1869POPC   GL227950  42.191  40.765   9.124
 1869POPC   C1A27951  42.554  40.919   8.823
 1869POPC   D2A27952  42.291  40.835   8.465
 1869POPC   C3A27953  42.447  40.688   8.085
 1869POPC   C4A27954  42.298  40.778   7.702
 1869POPC   C1B27955  42.015  41.073   8.834
 1869POPC   C2B27956  41.783  41.062   8.437
 1869POPC   C3B27957  41.917  41.077   7.988
 1869POPC   C4B27958  41.943  41.054   7.501
 1870POPC   NC327959  34.213  33.015   9.767
 1870POPC   PO427960  34.691  33.073   9.277
 1870POPC   GL127961  34.781  33.156   8.953
 1870POPC   GL227962  35.043  33.406   8.999
 1870POPC   C1A27963  34.552  33.070   8.608
 1870POPC   D2A27964  34.299  33.107   8.272
 1870POPC   C3A27965  34.518  32.985   7.906
 1870POPC   C4A27966  34.344  33.051   7.516
 1870POPC   C1B27967  35.043  33.286   8.564
 1870POPC   C2B27968  34.771  33.369   8.232
 1870POPC   C3B27969  34.843  33.374   7.809
 1870POPC   C4B27970  34.781  33.263   7.427
 1871POPC   NC327971  21.471   8.564   9.374
 1871POPC   PO427972  21.622   9.208   9.463
 1871POPC   GL127973  21.549   9.040   9.109
 1871POPC   GL227974  21.865   9.148   9.021
 1871POPC   C1A27975  21.393   9.154   8.702
 1871POPC   D2A27976  21.349   9.376   8.263
 1871POPC   C3A27977  21.221   9.075   7.891
 1871POPC   C4A27978  20.916   8.684   7.826
 1871POPC   C1B27979  21.863   8.876   8.698
 1871POPC   C2B27980  21.637   8.943   8.315
 1871POPC   C3B27981  21.718   9.131   7.950
 1871POPC   C4B27982  21.735   8.713   7.750
 1872POPC   NC327983  23.028   7.329   9.600
 1872POPC   PO427984  22.594   7.670   9.541
 1872POPC   GL127985  22.854   7.607   9.166
 1872POPC   GL227986  23.047   7.306   9.061
 1872POPC   C1A27987  22.791   7.626   8.718
 1872POPC   D2A27988  22.571   7.523   8.332
 1872POPC   C3A27989  22.754   7.626   7.932
 1872POPC   C4A27990  22.942   7.868   7.606
 1872POPC   C1B27991  23.003   7.166   8.610
 1872POPC   C2B27992  22.878   7.144   8.169
 1872POPC   C3B27993  23.086   7.235   7.778
 1872POPC   C4B27994  23.221   6.997   7.409
 1873POPC   NC327995   9.572  33.117   9.336
 1873POPC   PO427996   8.890  33.118   9.491
 1873POPC   GL127997   9.044  32.878   9.135
 1873POPC   GL227998   9.304  32.636   9.231
 1873POPC   C1A27999   9.028  32.937   8.699
 1873POPC   D2A28000   8.936  33.258   8.414
 1873POPC   C3A28001   9.244  33.299   8.108
 1873POPC   C4A28002   9.060  33.272   7.723
 1873POPC   C1B28003   9.339  32.540   8.787
 1873POPC   C2B28004   9.130  32.551   8.364
 1873POPC   C3B28005   9.124  32.782   7.946
 1873POPC   C4B28006   9.309  32.892   7.511
 1874POPC   NC328007  28.934  32.017   9.395
 1874POPC   PO428008  28.855  32.656   9.395
 1874POPC   GL128009  29.074  32.388   9.062
 1874POPC   GL228010  29.369  32.178   9.155
 1874POPC   C1A28011  29.048  32.068   8.712
 1874POPC   D2A28012  28.951  32.207   8.259
 1874POPC   C3A28013  28.967  31.946   7.909
 1874POPC   C4A28014  29.393  31.819   7.797
 1874POPC   C1B28015  29.504  32.302   8.737
 1874POPC   C2B28016  29.517  32.161   8.292
 1874POPC   C3B28017  29.612  32.406   7.898
 1874POPC   C4B28018  29.544  32.653   7.495
 1875POPC   NC328019  38.409  18.386   9.554
 1875POPC   PO428020  38.331  17.892   9.103
 1875POPC   GL128021  38.628  18.150   8.913
 1875POPC   GL228022  38.733  18.430   9.135
 1875POPC   C1A28023  38.430  18.353   8.545
 1875POPC   D2A28024  38.298  18.429   8.132
 1875POPC   C3A28025  38.312  18.054   7.893
 1875POPC   C4A28026  38.263  17.978   7.447
 1875POPC   C1B28027  38.764  18.669   8.729
 1875POPC   C2B28028  38.844  18.575   8.289
 1875POPC   C3B28029  38.668  18.701   7.880
 1875POPC   C4B28030  38.379  18.456   7.594
 1876POPC   NC328031  10.454   0.864   9.496
 1876POPC   PO428032  10.738   1.402   9.755
 1876POPC   GL128033  10.724   1.213   9.255
 1876POPC   GL228034  10.367   1.256   9.163
 1876POPC   C1A28035  10.617   1.395   8.769
 1876POPC   D2A28036  10.503   1.261   8.389
 1876POPC   C3A28037  10.854   1.215   8.143
 1876POPC   C4A28038  10.836   1.523   7.843
 1876POPC   C1B28039  10.433   0.918   8.831
 1876POPC   C2B28040  10.596   0.769   8.418
 1876POPC   C3B28041  10.464   0.908   8.006
 1876POPC   C4B28042  10.371   1.292   7.847
 1877POPC   NC328043  16.198  26.486   9.463
 1877POPC   PO428044  16.741  25.981   9.474
 1877POPC   GL128045  16.466  25.819   9.148
 1877POPC   GL228046  16.364  26.125   9.020
 1877POPC   C1A28047  16.482  25.760   8.691
 1877POPC   D2A28048  16.546  26.083   8.353
 1877POPC   C3A28049  16.731  25.927   7.969
 1877POPC   C4A28050  16.961  25.972   7.583
 1877POPC   C1B28051  16.809  26.180   8.815
 1877POPC   C2B28052  17.037  26.341   8.424
 1877POPC   C3B28053  16.971  26.405   7.959
 1877POPC   C4B28054  16.818  26.437   7.520
 1878POPC   NC328055  25.386   0.335   9.583
 1878POPC   PO428056  25.078   0.893   9.368
 1878POPC   GL128057  25.126   0.521   9.082
 1878POPC   GL228058  25.331   0.226   9.099
 1878POPC   C1A28059  25.243   0.391   8.637
 1878POPC   D2A28060  25.427   0.645   8.334
 1878POPC   C3A28061  25.393   0.726   7.893
 1878POPC   C4A28062  25.454   0.555   7.460
 1878POPC   C1B28063  25.638   0.127   8.790
 1878POPC   C2B28064  25.598   0.116   8.344
 1878POPC   C3B28065  25.316   0.248   8.031
 1878POPC   C4B28066  25.307   0.077   7.675
 1879POPC   NC328067  16.585  33.149   9.336
 1879POPC   PO428068  17.139  32.790   9.418
 1879POPC   GL128069  16.893  32.876   9.046
 1879POPC   GL228070  17.086  32.838   8.787
 1879POPC   C1A28071  16.605  32.959   8.679
 1879POPC   D2A28072  16.745  33.067   8.249
 1879POPC   C3A28073  16.699  33.022   7.809
 1879POPC   C4A28074  16.505  32.967   7.436
 1879POPC   C1B28075  17.003  33.299   8.690
 1879POPC   C2B28076  17.180  33.531   8.325
 1879POPC   C3B28077  17.095  33.315   7.927
 1879POPC   C4B28078  17.161  32.979   7.565
 1880POPC   NC328079  31.332  38.041   9.293
 1880POPC   PO428080  31.771  37.809   9.760
 1880POPC   GL128081  31.772  37.594   9.283
 1880POPC   GL228082  31.571  37.280   9.207
 1880POPC   C1A28083  31.560  37.647   8.833
 1880POPC   D2A28084  31.240  37.543   8.488
 1880POPC   C3A28085  31.186  37.865   8.213
 1880POPC   C4A28086  31.183  37.945   7.794
 1880POPC   C1B28087  31.453  37.177   8.764
 1880POPC   C2B28088  31.737  37.414   8.425
 1880POPC   C3B28089  31.570  37.542   8.009
 1880POPC   C4B28090  31.199  37.435   7.729
 1881POPC   NC328091  12.831  12.830   9.863
 1881POPC   PO428092  12.976  12.546   9.295
 1881POPC   GL128093  12.697  12.598   9.013
 1881POPC   GL228094  12.668  12.904   9.131
 1881POPC   C1A28095  12.792  12.539   8.616
 1881POPC   D2A28096  12.975  12.781   8.337
 1881POPC   C3A28097  12.765  12.792   7.999
 1881POPC   C4A28098  12.791  12.656   7.620
 1881POPC   C1B28099  12.794  13.039   8.751
 1881POPC   C2B28100  12.623  13.180   8.350
 1881POPC   C3B28101  12.820  13.307   7.957
 1881POPC   C4B28102  12.617  13.137   7.605
 1882POPC   NC328103  27.519  27.571   9.691
 1882POPC   PO428104  27.407  28.057   9.312
 1882POPC   GL128105  27.521  27.685   9.142
 1882POPC   GL228106  27.243  27.502   9.259
 1882POPC   C1A28107  27.593  27.741   8.697
 1882POPC   D2A28108  27.636  27.866   8.244
 1882POPC   C3A28109  27.896  27.608   7.952
 1882POPC   C4A28110  27.933  27.524   7.479
 1882POPC   C1B28111  27.270  27.336   8.824
 1882POPC   C2B28112  27.273  27.503   8.387
 1882POPC   C3B28113  27.375  27.536   7.947
 1882POPC   C4B28114  27.170  27.311   7.641
 1883POPC   NC328115  36.129  28.329   9.444
 1883POPC   PO428116  35.571  28.484   9.459
 1883POPC   GL128117  35.740  28.419   9.036
 1883POPC   GL228118  36.053  28.566   8.986
 1883POPC   C1A28119  36.032  28.132   8.765
 1883POPC   D2A28120  36.348  28.308   8.479
 1883POPC   C3A28121  36.152  28.358   8.125
 1883POPC   C4A28122  35.943  28.153   7.777
 1883POPC   C1B28123  36.404  28.728   8.771
 1883POPC   C2B28124  36.530  28.811   8.359
 1883POPC   C3B28125  36.598  28.575   8.023
 1883POPC   C4B28126  36.385  28.392   7.687
 1884POPC   NC328127  34.657   1.962   9.692
 1884POPC   PO428128  34.120   2.015   9.625
 1884POPC   GL128129  34.351   1.864   9.252
 1884POPC   GL228130  34.669   2.022   9.139
 1884POPC   C1A28131  34.313   1.858   8.769
 1884POPC   D2A28132  34.184   1.849   8.307
 1884POPC   C3A28133  34.365   2.133   7.990
 1884POPC   C4A28134  34.405   2.161   7.558
 1884POPC   C1B28135  34.807   1.954   8.676
 1884POPC   C2B28136  34.709   1.824   8.230
 1884POPC   C3B28137  34.849   2.001   7.821
 1884POPC   C4B28138  34.888   2.064   7.366
 1885POPC   NC328139  35.808  11.782   9.458
 1885POPC   PO428140  36.447  12.013   9.327
 1885POPC   GL128141  36.074  12.021   9.111
 1885POPC   GL228142  36.055  12.348   8.996
 1885POPC   C1A28143  35.960  11.719   8.809
 1885POPC   D2A28144  36.218  11.835   8.467
 1885POPC   C3A28145  36.118  11.756   8.055
 1885POPC   C4A28146  36.311  11.977   7.719
 1885POPC   C1B28147  35.775  12.164   8.695
 1885POPC   C2B28148  35.835  12.191   8.273
 1885POPC   C3B28149  36.228  12.290   8.097
 1885POPC   C4B28150  36.154  12.466   7.708
 1886POPC   NC328151  13.084  38.214   9.421
 1886POPC   PO428152  12.480  38.406   9.529
 1886POPC   GL128153  12.708  38.485   9.127
 1886POPC   GL228154  12.908  38.806   9.119
 1886POPC   C1A28155  13.003  38.344   8.785
 1886POPC   D2A28156  13.016  38.031   8.452
 1886POPC   C3A28157  12.896  38.146   8.030
 1886POPC   C4A28158  12.648  38.407   7.742
 1886POPC   C1B28159  12.716  38.776   8.699
 1886POPC   C2B28160  12.870  38.588   8.321
 1886POPC   C3B28161  13.064  38.641   7.924
 1886POPC   C4B28162  12.863  38.858   7.587
 1887POPC   NC328163   1.099  43.665   9.424
 1887POPC   PO428164   1.436  44.210   9.605
 1887POPC   GL128165   1.424  44.260   9.136
 1887POPC   GL228166   1.134  44.046   9.060
 1887POPC   C1A28167   1.360  44.204   8.645
 1887POPC   D2A28168   1.280  43.841   8.349
 1887POPC   C3A28169   1.467  43.900   7.941
 1887POPC   C4A28170   1.274  44.177   7.631
 1887POPC   C1B28171   0.992  43.702   8.777
 1887POPC   C2B28172   0.637  43.625   8.531
 1887POPC   C3B28173   0.674  43.698   8.099
 1887POPC   C4B28174   0.940  43.790   7.731
 1888POPC   NC328175   8.273  10.274   9.771
 1888POPC   PO428176   8.295  10.890   9.431
 1888POPC   GL128177   8.152  10.652   9.133
 1888POPC   GL228178   8.442  10.440   9.190
 1888POPC   C1A28179   7.991  10.480   8.739
 1888POPC   D2A28180   7.835  10.668   8.363
 1888POPC   C3A28181   7.943  10.569   7.938
 1888POPC   C4A28182   7.774  10.733   7.572
 1888POPC   C1B28183   8.504  10.605   8.756
 1888POPC   C2B28184   8.354  10.571   8.316
 1888POPC   C3B28185   8.430  10.686   7.866
 1888POPC   C4B28186   8.502  10.292   7.621
 1889POPC   NC328187   5.656   3.135   9.637
 1889POPC   PO428188   4.962   2.877   9.561
 1889POPC   GL128189   5.176   2.811   9.176
 1889POPC   GL228190   5.333   2.497   9.139
 1889POPC   C1A28191   4.996   2.604   8.791
 1889POPC   D2A28192   4.826   2.446   8.430
 1889POPC   C3A28193   5.082   2.417   8.135
 1889POPC   C4A28194   4.923   2.648   7.808
 1889POPC   C1B28195   5.485   2.718   8.727
 1889POPC   C2B28196   5.643   2.862   8.302
 1889POPC   C3B28197   5.435   2.726   7.915
 1889POPC   C4B28198   5.314   2.341   7.686
 1890POPC   NC328199  27.557  43.791   9.687
 1890POPC   PO428200  27.113  44.149   9.366
 1890POPC   GL128201  27.367  43.945   9.104
 1890POPC   GL228202  27.543  43.623   9.188
 1890POPC   C1A28203  27.246  43.700   8.750
 1890POPC   D2A28204  27.379  43.529   8.366
 1890POPC   C3A28205  27.361  43.710   7.957
 1890POPC   C4A28206  27.273  44.000   7.618
 1890POPC   C1B28207  27.745  43.776   8.807
 1890POPC   C2B28208  28.004  43.877   8.439
 1890POPC   C3B28209  27.927  43.704   8.061
 1890POPC   C4B28210  27.822  43.777   7.664
 1891POPC   NC328211  28.057   5.677   9.519
 1891POPC   PO428212  28.613   6.104   9.438
 1891POPC   GL128213  28.308   5.983   9.147
 1891POPC   GL228214  28.333   5.620   9.088
 1891POPC   C1A28215  28.264   5.968   8.701
 1891POPC   D2A28216  28.413   5.857   8.293
 1891POPC   C3A28217  28.354   6.103   7.930
 1891POPC   C4A28218  28.299   6.028   7.498
 1891POPC   C1B28219  28.390   5.466   8.652
 1891POPC   C2B28220  28.589   5.356   8.273
 1891POPC   C3B28221  28.614   5.582   7.867
 1891POPC   C4B28222  28.499   5.566   7.393
 1892POPC   NC328223  11.549  32.160   9.839
 1892POPC   PO428224  12.154  32.189   9.639
 1892POPC   GL128225  12.136  32.385   9.241
 1892POPC   GL228226  12.381  32.129   9.151
 1892POPC   C1A28227  11.782  32.459   8.912
 1892POPC   D2A28228  11.605  32.484   8.487
 1892POPC   C3A28229  11.894  32.620   8.157
 1892POPC   C4A28230  11.877  32.320   7.821
 1892POPC   C1B28231  12.115  32.104   8.800
 1892POPC   C2B28232  12.110  32.222   8.409
 1892POPC   C3B28233  12.034  31.948   8.105
 1892POPC   C4B28234  12.242  31.800   7.785
 1893POPC   NC328235   0.053  35.030   9.376
 1893POPC   PO428236   0.598  35.385   9.551
 1893POPC   GL128237   0.319  35.465   9.198
 1893POPC   GL228238   0.561  35.701   9.102
 1893POPC   C1A28239   0.181  35.411   8.784
 1893POPC   D2A28240   0.401  35.438   8.407
 1893POPC   C3A28241   0.333  35.134   8.118
 1893POPC   C4A28242   0.072  35.281   7.835
 1893POPC   C1B28243   0.707  35.353   8.818
 1893POPC   C2B28244   0.898  35.353   8.400
 1893POPC   C3B28245   0.742  35.431   7.988
 1893POPC   C4B28246   0.666  35.047   7.742
 1894POPC   NC328247   9.748   4.296   9.465
 1894POPC   PO428248  10.268   3.882   9.507
 1894POPC   GL128249   9.976   4.030   9.094
 1894POPC   GL228250   9.833   4.411   8.995
 1894POPC   C1A28251   9.651   3.986   8.733
 1894POPC   D2A28252   9.311   3.866   8.445
 1894POPC   C3A28253   9.416   4.004   8.014
 1894POPC   C4A28254   9.843   4.022   7.826
 1894POPC   C1B28255   9.615   4.489   8.611
 1894POPC   C2B28256   9.745   4.379   8.176
 1894POPC   C3B28257  10.032   4.515   7.805
 1894POPC   C4B28258   9.978   4.597   7.338
 1895POPC   NC328259   1.978   4.166   9.601
 1895POPC   PO428260   1.953   4.870   9.574
 1895POPC   GL128261   1.950   4.624   9.179
 1895POPC   GL228262   2.126   4.294   9.131
 1895POPC   C1A28263   1.790   4.442   8.783
 1895POPC   D2A28264   1.931   4.528   8.353
 1895POPC   C3A28265   1.994   4.249   8.021
 1895POPC   C4A28266   2.365   3.983   7.955
 1895POPC   C1B28267   2.302   4.430   8.733
 1895POPC   C2B28268   2.462   4.356   8.309
 1895POPC   C3B28269   2.323   4.661   8.023
 1895POPC   C4B28270   1.938   4.720   7.812
 1896POPC   NC328271  26.842  42.818   9.297
 1896POPC   PO428272  26.605  43.386   9.407
 1896POPC   GL128273  26.843  43.254   9.046
 1896POPC   GL228274  26.572  43.099   8.949
 1896POPC   C1A28275  27.087  43.197   8.686
 1896POPC   D2A28276  27.356  43.023   8.376
 1896POPC   C3A28277  27.191  43.056   7.950
 1896POPC   C4A28278  26.955  42.710   7.728
 1896POPC   C1B28279  26.700  42.875   8.603
 1896POPC   C2B28280  26.791  43.035   8.249
 1896POPC   C3B28281  26.605  43.065   7.867
 1896POPC   C4B28282  26.347  43.129   7.518
 1897POPC   NC328283  32.301  17.427   9.533
 1897POPC   PO428284  32.053  18.014   9.592
 1897POPC   GL128285  32.170  17.803   9.196
 1897POPC   GL228286  31.977  17.517   9.068
 1897POPC   C1A28287  32.198  17.915   8.789
 1897POPC   D2A28288  32.008  17.965   8.403
 1897POPC   C3A28289  32.021  17.708   8.057
 1897POPC   C4A28290  32.233  17.759   7.696
 1897POPC   C1B28291  32.098  17.463   8.597
 1897POPC   C2B28292  32.379  17.387   8.242
 1897POPC   C3B28293  32.534  17.279   7.821
 1897POPC   C4B28294  32.637  17.208   7.359
 1898POPC   NC328295  23.861  32.073   9.695
 1898POPC   PO428296  23.380  32.397   9.497
 1898POPC   GL128297  23.645  32.072   9.217
 1898POPC   GL228298  23.960  31.863   9.214
 1898POPC   C1A28299  23.742  32.027   8.778
 1898POPC   D2A28300  23.965  32.310   8.514
 1898POPC   C3A28301  23.849  32.346   8.089
 1898POPC   C4A28302  23.720  32.265   7.663
 1898POPC   C1B28303  24.228  31.914   8.786
 1898POPC   C2B28304  24.077  31.831   8.326
 1898POPC   C3B28305  24.087  31.930   7.863
 1898POPC   C4B28306  24.206  32.246   7.509
 1899POPC   NC328307  26.849  26.415   9.218
 1899POPC   PO428308  26.694  25.826   9.488
 1899POPC   GL128309  26.683  25.720   9.085
 1899POPC   GL228310  27.019  25.652   8.998
 1899POPC   C1A28311  26.635  25.866   8.690
 1899POPC   D2A28312  26.626  26.156   8.403
 1899POPC   C3A28313  26.568  25.992   8.031
 1899POPC   C4A28314  26.829  25.947   7.725
 1899POPC   C1B28315  27.149  25.933   8.659
 1899POPC   C2B28316  27.079  25.975   8.206
 1899POPC   C3B28317  27.322  26.075   7.843
 1899POPC   C4B28318  27.256  25.929   7.414
 1900POPC   NC328319   3.206   3.144   9.516
 1900POPC   PO428320   2.805   2.580   9.449
 1900POPC   GL128321   2.930   2.854   9.127
 1900POPC   GL228322   2.604   2.750   8.990
 1900POPC   C1A28323   3.017   2.778   8.693
 1900POPC   D2A28324   2.765   2.668   8.341
 1900POPC   C3A28325   2.943   2.860   8.010
 1900POPC   C4A28326   3.035   2.912   7.601
 1900POPC   C1B28327   2.478   2.976   8.648
 1900POPC   C2B28328   2.631   3.167   8.305
 1900POPC   C3B28329   2.536   3.130   7.876
 1900POPC   C4B28330   2.464   2.678   7.927
 1901POPC   NC328331   0.245   3.856   9.482
 1901POPC   PO428332   0.196   3.140   9.376
 1901POPC   GL128333   0.402   3.359   9.093
 1901POPC   GL228334   0.461   3.718   9.057
 1901POPC   C1A28335   0.240   3.396   8.695
 1901POPC   D2A28336   0.121   3.578   8.330
 1901POPC   C3A28337   0.419   3.504   8.084
 1901POPC   C4A28338   0.427   3.245   7.757
 1901POPC   C1B28339   0.728   3.548   8.771
 1901POPC   C2B28340   0.803   3.468   8.419
 1901POPC   C3B28341   0.892   3.702   8.088
 1901POPC   C4B28342   0.843   3.547   7.711
 1902POPC   NC328343  30.924  40.717   9.513
 1902POPC   PO428344  30.281  40.728   9.439
 1902POPC   GL128345  30.607  40.829   9.126
 1902POPC   GL228346  30.820  41.123   9.191
 1902POPC   C1A28347  30.915  40.799   8.793
 1902POPC   D2A28348  30.892  40.594   8.433
 1902POPC   C3A28349  30.867  40.773   8.029
 1902POPC   C4A28350  30.639  40.588   7.691
 1902POPC   C1B28351  30.613  41.212   8.766
 1902POPC   C2B28352  30.593  41.070   8.357
 1902POPC   C3B28353  30.446  41.035   7.926
 1902POPC   C4B28354  30.667  41.072   7.516
 1903POPC   NC328355  42.534   6.906   9.657
 1903POPC   PO428356  42.139   6.466   9.526
 1903POPC   GL128357  42.384   6.490   9.157
 1903POPC   GL228358  42.111   6.270   9.056
 1903POPC   C1A28359  42.466   6.559   8.711
 1903POPC   D2A28360  42.199   6.694   8.351
 1903POPC   C3A28361  42.354   6.886   7.954
 1903POPC   C4A28362  42.579   6.611   7.672
 1903POPC   C1B28363  41.931   6.450   8.708
 1903POPC   C2B28364  41.997   6.225   8.312
 1903POPC   C3B28365  42.170   6.410   7.938
 1903POPC   C4B28366  42.084   6.667   7.548
 1904POPC   NC328367  10.208  21.456   9.300
 1904POPC   PO428368  10.730  21.155   9.662
 1904POPC   GL128369  10.825  21.199   9.187
 1904POPC   GL228370  10.566  21.345   8.973
 1904POPC   C1A28371  10.979  21.235   8.721
 1904POPC   D2A28372  10.791  21.601   8.480
 1904POPC   C3A28373  10.621  21.524   8.049
 1904POPC   C4A28374  10.904  21.590   7.702
 1904POPC   C1B28375  10.224  21.141   8.723
 1904POPC   C2B28376  10.258  21.203   8.311
 1904POPC   C3B28377  10.049  21.462   8.022
 1904POPC   C4B28378  10.291  21.284   7.727
 1905POPC   NC328379  25.142  42.816   9.440
 1905POPC   PO428380  25.652  43.256   9.528
 1905POPC   GL128381  25.430  43.206   9.173
 1905POPC   GL228382  25.560  42.883   9.130
 1905POPC   C1A28383  25.308  43.377   8.753
 1905POPC   D2A28384  25.033  43.220   8.429
 1905POPC   C3A28385  25.174  43.147   8.037
 1905POPC   C4A28386  25.360  43.341   7.698
 1905POPC   C1B28387  25.258  42.867   8.799
 1905POPC   C2B28388  25.343  42.791   8.383
 1905POPC   C3B28389  25.202  42.625   8.014
 1905POPC   C4B28390  25.407  42.835   7.702
 1906POPC   NC328391   8.100  42.966   9.669
 1906POPC   PO428392   7.916  43.525   9.446
 1906POPC   GL128393   8.140  43.255   9.173
 1906POPC   GL228394   8.316  42.948   9.202
 1906POPC   C1A28395   8.009  43.104   8.811
 1906POPC   D2A28396   7.654  43.116   8.573
 1906POPC   C3A28397   7.795  43.281   8.200
 1906POPC   C4A28398   7.836  43.181   7.780
 1906POPC   C1B28399   8.422  42.806   8.783
 1906POPC   C2B28400   8.175  42.854   8.399
 1906POPC   C3B28401   8.348  42.811   8.014
 1906POPC   C4B28402   8.339  43.055   7.717
 1907POPC   NC328403   6.510  39.626   9.463
 1907POPC   PO428404   6.723  38.954   9.484
 1907POPC   GL128405   6.600  38.929   9.130
 1907POPC   GL228406   6.425  39.225   9.126
 1907POPC   C1A28407   6.531  38.827   8.768
 1907POPC   D2A28408   6.457  39.042   8.406
 1907POPC   C3A28409   6.604  38.977   8.017
 1907POPC   C4A28410   6.659  39.359   7.847
 1907POPC   C1B28411   6.302  39.403   8.735
 1907POPC   C2B28412   6.326  39.509   8.283
 1907POPC   C3B28413   6.182  39.480   7.854
 1907POPC   C4B28414   6.230  39.092   7.651
 1908POPC   NC328415  43.275  21.825   9.418
 1908POPC   PO428416  42.947  21.201   9.372
 1908POPC   GL128417  43.044  21.487   9.068
 1908POPC   GL228418  43.361  21.419   9.085
 1908POPC   C1A28419  43.122  21.496   8.620
 1908POPC   D2A28420  42.899  21.303   8.291
 1908POPC   C3A28421  43.130  21.001   8.105
 1908POPC   C4A28422  43.309  21.193   7.747
 1908POPC   C1B28423  43.612  21.608   8.791
 1908POPC   C2B28424  43.522  21.741   8.369
 1908POPC   C3B28425  43.587  21.572   7.953
 1908POPC   C4B28426  43.549  21.606   7.468
 1909POPC   NC328427  35.813   8.086   9.486
 1909POPC   PO428428  36.368   8.358   9.630
 1909POPC   GL128429  36.345   8.540   9.221
 1909POPC   GL228430  35.993   8.438   9.106
 1909POPC   C1A28431  36.374   8.514   8.771
 1909POPC   D2A28432  36.325   8.299   8.383
 1909POPC   C3A28433  36.166   8.441   7.988
 1909POPC   C4A28434  36.149   8.134   7.669
 1909POPC   C1B28435  35.941   8.129   8.728
 1909POPC   C2B28436  35.929   7.991   8.256
 1909POPC   C3B28437  35.710   8.149   7.894
 1909POPC   C4B28438  35.601   7.999   7.488
 1910POPC   NC328439   3.976  37.293   9.486
 1910POPC   PO428440   3.347  36.889   9.497
 1910POPC   GL128441   3.608  36.724   9.198
 1910POPC   GL228442   3.900  36.937   9.092
 1910POPC   C1A28443   3.506  36.751   8.793
 1910POPC   D2A28444   3.356  36.966   8.452
 1910POPC   C3A28445   3.657  36.883   8.111
 1910POPC   C4A28446   3.511  37.000   7.694
 1910POPC   C1B28447   3.722  37.193   8.746
 1910POPC   C2B28448   3.711  37.364   8.322
 1910POPC   C3B28449   3.893  37.300   7.904
 1910POPC   C4B28450   3.897  37.226   7.450
 1911POPC   NC328451   5.503  19.833   9.856
 1911POPC   PO428452   6.013  19.747   9.478
 1911POPC   GL128453   6.177  19.905   9.074
 1911POPC   GL228454   5.856  19.875   8.956
 1911POPC   C1A28455   6.186  19.976   8.592
 1911POPC   D2A28456   5.760  20.059   8.392
 1911POPC   C3A28457   5.707  19.962   7.959
 1911POPC   C4A28458   6.091  19.826   7.780
 1911POPC   C1B28459   5.566  19.667   8.708
 1911POPC   C2B28460   5.453  19.412   8.404
 1911POPC   C3B28461   5.427  19.538   8.014
 1911POPC   C4B28462   5.718  19.491   7.707
 1912POPC   NC328463  32.923  16.708   9.696
 1912POPC   PO428464  33.438  17.174   9.520
 1912POPC   GL128465  33.059  17.012   9.233
 1912POPC   GL228466  32.744  16.709   9.225
 1912POPC   C1A28467  32.959  16.885   8.795
 1912POPC   D2A28468  32.699  17.017   8.456
 1912POPC   C3A28469  32.590  16.787   8.089
 1912POPC   C4A28470  32.769  16.839   7.697
 1912POPC   C1B28471  32.841  16.410   8.867
 1912POPC   C2B28472  32.973  16.507   8.421
 1912POPC   C3B28473  32.978  16.421   7.966
 1912POPC   C4B28474  33.022  16.434   7.515
 1913POPC   NC328475  14.971  39.675   9.568
 1913POPC   PO428476  14.879  40.376   9.553
 1913POPC   GL128477  14.978  40.057   9.234
 1913POPC   GL228478  15.318  39.924   9.202
 1913POPC   C1A28479  14.911  39.916   8.818
 1913POPC   D2A28480  15.125  39.880   8.434
 1913POPC   C3A28481  14.895  40.062   8.093
 1913POPC   C4A28482  14.987  40.157   7.675
 1913POPC   C1B28483  15.360  40.160   8.816
 1913POPC   C2B28484  15.524  40.227   8.384
 1913POPC   C3B28485  15.415  40.061   7.971
 1913POPC   C4B28486  15.448  40.006   7.526
 1914POPC   NC328487  27.277  31.932   9.527
 1914POPC   PO428488  27.921  32.069   9.341
 1914POPC   GL128489  27.530  32.252   9.199
 1914POPC   GL228490  27.403  31.964   9.034
 1914POPC   C1A28491  27.385  32.418   8.797
 1914POPC   D2A28492  27.551  32.249   8.398
 1914POPC   C3A28493  27.482  32.439   8.011
 1914POPC   C4A28494  27.909  32.490   7.952
 1914POPC   C1B28495  27.686  31.844   8.733
 1914POPC   C2B28496  27.706  31.739   8.308
 1914POPC   C3B28497  27.632  31.947   7.923
 1914POPC   C4B28498  27.385  31.928   7.540
 1915POPC   NC328499  18.585   8.702   9.460
 1915POPC   PO428500  19.218   8.965   9.706
 1915POPC   GL128501  19.044   8.937   9.265
 1915POPC   GL228502  18.997   8.598   9.160
 1915POPC   C1A28503  19.043   9.019   8.797
 1915POPC   D2A28504  19.105   8.808   8.384
 1915POPC   C3A28505  19.272   9.008   8.035
 1915POPC   C4A28506  18.927   9.157   7.775
 1915POPC   C1B28507  18.858   8.523   8.730
 1915POPC   C2B28508  18.648   8.564   8.307
 1915POPC   C3B28509  18.918   8.625   7.912
 1915POPC   C4B28510  18.887   8.680   7.441
 1916POPC   NC328511  17.921  40.671   9.559
 1916POPC   PO428512  18.531  40.975   9.504
 1916POPC   GL128513  18.220  40.878   9.189
 1916POPC   GL228514  18.332  40.546   9.203
 1916POPC   C1A28515  18.050  40.811   8.753
 1916POPC   D2A28516  18.193  40.641   8.305
 1916POPC   C3A28517  18.064  40.834   7.873
 1916POPC   C4A28518  17.916  40.828   7.390
 1916POPC   C1B28519  18.474  40.479   8.764
 1916POPC   C2B28520  18.557  40.220   8.379
 1916POPC   C3B28521  18.594  40.360   7.968
 1916POPC   C4B28522  18.580  40.792   7.868
 1917POPC   NC328523   7.397  43.318   9.507
 1917POPC   PO428524   7.710  42.724   9.723
 1917POPC   GL128525   7.706  42.968   9.274
 1917POPC   GL228526   7.623  43.290   9.067
 1917POPC   C1A28527   7.336  42.882   8.942
 1917POPC   D2A28528   7.188  42.856   8.490
 1917POPC   C3A28529   7.395  42.972   8.074
 1917POPC   C4A28530   7.261  43.158   7.638
 1917POPC   C1B28531   7.246  43.359   8.788
 1917POPC   C2B28532   7.292  43.391   8.330
 1917POPC   C3B28533   7.428  43.528   7.921
 1917POPC   C4B28534   7.685  43.579   7.508
 1918POPC   NC328535  18.137  44.290   9.505
 1918POPC   PO428536  18.548  43.795   9.414
 1918POPC   GL128537  18.453  44.095   9.127
 1918POPC   GL228538  18.167  43.986   8.980
 1918POPC   C1A28539  18.562  44.219   8.740
 1918POPC   D2A28540  18.424  44.119   8.368
 1918POPC   C3A28541  18.594  44.268   8.009
 1918POPC   C4A28542  18.414  44.271   7.605
 1918POPC   C1B28543  18.354  43.694   8.650
 1918POPC   C2B28544  18.510  43.637   8.222
 1918POPC   C3B28545  18.324  43.829   7.903
 1918POPC   C4B28546  18.120  43.683   7.550
 1919POPC   NC328547   9.382  16.844   9.591
 1919POPC   PO428548   8.723  16.553   9.434
 1919POPC   GL128549   8.885  16.743   9.098
 1919POPC   GL228550   9.059  17.026   9.221
 1919POPC   C1A28551   8.776  16.830   8.683
 1919POPC   D2A28552   8.715  17.060   8.295
 1919POPC   C3A28553   8.711  16.764   7.939
 1919POPC   C4A28554   8.940  16.362   7.859
 1919POPC   C1B28555   9.201  17.083   8.795
 1919POPC   C2B28556   9.285  17.058   8.330
 1919POPC   C3B28557   9.313  16.810   7.921
 1919POPC   C4B28558   9.506  16.873   7.448
 1920POPC   NC328559   8.181  30.393   9.485
 1920POPC   PO428560   8.404  29.875   9.485
 1920POPC   GL128561   8.270  30.073   9.088
 1920POPC   GL228562   7.914  30.184   9.103
 1920POPC   C1A28563   8.142  29.999   8.670
 1920POPC   D2A28564   8.038  29.778   8.299
 1920POPC   C3A28565   8.101  29.986   7.896
 1920POPC   C4A28566   8.127  29.732   7.530
 1920POPC   C1B28567   7.688  30.220   8.699
 1920POPC   C2B28568   7.869  30.263   8.304
 1920POPC   C3B28569   7.619  30.166   7.936
 1920POPC   C4B28570   7.619  29.836   7.624
 1921POPC   NC328571  22.484  10.456   9.566
 1921POPC   PO428572  21.962  10.839   9.593
 1921POPC   GL128573  22.054  10.555   9.257
 1921POPC   GL228574  22.302  10.791   9.156
 1921POPC   C1A28575  22.056  10.475   8.803
 1921POPC   D2A28576  22.144  10.681   8.389
 1921POPC   C3A28577  21.993  10.522   7.963
 1921POPC   C4A28578  21.853  10.425   7.526
 1921POPC   C1B28579  22.512  10.769   8.758
 1921POPC   C2B28580  22.671  10.612   8.353
 1921POPC   C3B28581  22.466  10.763   7.992
 1921POPC   C4B28582  22.244  10.775   7.600
 1922POPC   NC328583  32.872  39.440   9.762
 1922POPC   PO428584  32.178  39.413   9.603
 1922POPC   GL128585  32.221  39.371   9.168
 1922POPC   GL228586  32.205  39.026   9.056
 1922POPC   C1A28587  32.418  39.469   8.766
 1922POPC   D2A28588  32.248  39.560   8.346
 1922POPC   C3A28589  32.160  39.254   8.024
 1922POPC   C4A28590  32.320  39.304   7.605
 1922POPC   C1B28591  31.957  39.249   8.729
 1922POPC   C2B28592  31.770  39.354   8.347
 1922POPC   C3B28593  31.673  39.117   8.023
 1922POPC   C4B28594  31.846  39.082   7.627
 1923POPC   NC328595   6.853   7.047   9.513
 1923POPC   PO428596   6.507   7.535   9.847
 1923POPC   GL128597   6.518   7.528   9.298
 1923POPC   GL228598   6.765   7.340   9.136
 1923POPC   C1A28599   6.626   7.734   8.869
 1923POPC   D2A28600   6.614   7.486   8.456
 1923POPC   C3A28601   6.670   7.654   8.027
 1923POPC   C4A28602   6.470   7.561   7.667
 1923POPC   C1B28603   7.117   7.107   8.920
 1923POPC   C2B28604   7.159   7.110   8.504
 1923POPC   C3B28605   6.990   7.248   8.158
 1923POPC   C4B28606   6.948   7.280   7.724
 1924POPC   NC328607  38.824  11.945   9.513
 1924POPC   PO428608  39.042  12.497   9.718
 1924POPC   GL128609  39.182  12.300   9.276
 1924POPC   GL228610  39.050  11.998   9.057
 1924POPC   C1A28611  39.315  12.374   8.828
 1924POPC   D2A28612  39.164  12.246   8.422
 1924POPC   C3A28613  39.337  12.338   8.020
 1924POPC   C4A28614  39.590  12.115   7.703
 1924POPC   C1B28615  38.885  11.831   8.665
 1924POPC   C2B28616  38.677  11.766   8.272
 1924POPC   C3B28617  39.012  11.918   8.066
 1924POPC   C4B28618  39.100  12.012   7.684
 1925POPC   NC328619  14.103   4.066   9.336
 1925POPC   PO428620  14.305   4.657   9.699
 1925POPC   GL128621  14.211   4.559   9.263
 1925POPC   GL228622  14.498   4.446   9.183
 1925POPC   C1A28623  14.214   4.426   8.786
 1925POPC   D2A28624  14.380   4.169   8.437
 1925POPC   C3A28625  14.314   4.376   8.015
 1925POPC   C4A28626  14.154   4.349   7.581
 1925POPC   C1B28627  14.762   4.273   8.907
 1925POPC   C2B28628  14.853   4.299   8.513
 1925POPC   C3B28629  14.811   4.265   8.106
 1925POPC   C4B28630  14.704   4.404   7.698
 1926POPC   NC328631  25.888  38.682   9.606
 1926POPC   PO428632  26.084  38.192   9.627
 1926POPC   GL128633  26.207  38.480   9.244
 1926POPC   GL228634  26.084  38.276   8.971
 1926POPC   C1A28635  26.246  38.741   8.834
 1926POPC   D2A28636  26.165  38.498   8.443
 1926POPC   C3A28637  26.228  38.546   7.986
 1926POPC   C4A28638  25.939  38.589   7.618
 1926POPC   C1B28639  26.517  38.311   8.775
 1926POPC   C2B28640  26.648  38.294   8.323
 1926POPC   C3B28641  26.480  38.016   8.007
 1926POPC   C4B28642  26.120  38.081   7.731
 1927POPC   NC328643  42.714  37.567   9.600
 1927POPC   PO428644  43.341  37.411   9.588
 1927POPC   GL128645  43.115  37.674   9.262
 1927POPC   GL228646  43.380  37.884   9.083
 1927POPC   C1A28647  42.956  37.644   8.805
 1927POPC   D2A28648  42.827  37.397   8.400
 1927POPC   C3A28649  42.952  37.595   7.981
 1927POPC   C4A28650  42.954  38.060   7.832
 1927POPC   C1B28651  43.418  37.462   8.930
 1927POPC   C2B28652  43.346  37.380   8.520
 1927POPC   C3B28653  43.468  37.477   8.104
 1927POPC   C4B28654  43.405  37.273   7.717
 1928POPC   NC328655  39.250  27.998   9.497
 1928POPC   PO428656  38.725  28.390   9.567
 1928POPC   GL128657  39.129  28.451   9.232
 1928POPC   GL228658  39.340  28.152   9.038
 1928POPC   C1A28659  39.418  28.594   8.859
 1928POPC   D2A28660  39.386  28.334   8.473
 1928POPC   C3A28661  39.543  28.467   8.071
 1928POPC   C4A28662  39.356  28.727   7.742
 1928POPC   C1B28663  39.079  27.920   8.792
 1928POPC   C2B28664  38.960  28.029   8.400
 1928POPC   C3B28665  39.115  28.043   8.026
 1928POPC   C4B28666  39.346  28.204   7.690
 1929POPC   NC328667  20.847  26.377   9.482
 1929POPC   PO428668  20.489  25.785   9.498
 1929POPC   GL128669  20.671  25.960   9.163
 1929POPC   GL228670  21.033  25.942   9.270
 1929POPC   C1A28671  20.577  26.279   8.853
 1929POPC   D2A28672  20.433  26.486   8.470
 1929POPC   C3A28673  20.693  26.495   8.132
 1929POPC   C4A28674  20.599  26.371   7.731
 1929POPC   C1B28675  21.032  25.991   8.805
 1929POPC   C2B28676  20.769  26.032   8.430
 1929POPC   C3B28677  20.927  26.052   8.016
 1929POPC   C4B28678  20.825  25.871   7.613
 1930POPC   NC328679  38.817  40.476   9.485
 1930POPC   PO428680  39.438  40.796   9.346
 1930POPC   GL128681  39.270  40.760   8.991
 1930POPC   GL228682  39.147  40.467   9.037
 1930POPC   C1A28683  39.327  40.881   8.575
 1930POPC   D2A28684  39.072  40.922   8.256
 1930POPC   C3A28685  39.243  40.777   7.905
 1930POPC   C4A28686  39.341  40.937   7.490
 1930POPC   C1B28687  39.109  40.412   8.580
 1930POPC   C2B28688  38.829  40.434   8.210
 1930POPC   C3B28689  38.714  40.733   7.944
 1930POPC   C4B28690  38.877  40.757   7.553
 1931POPC   NC328691  22.214  40.614   9.687
 1931POPC   PO428692  21.751  41.100   9.616
 1931POPC   GL128693  22.023  40.930   9.274
 1931POPC   GL228694  22.404  41.012   9.216
 1931POPC   C1A28695  21.960  40.800   8.833
 1931POPC   D2A28696  22.005  41.039   8.408
 1931POPC   C3A28697  21.863  40.797   8.031
 1931POPC   C4A28698  21.977  40.751   7.597
 1931POPC   C1B28699  22.447  40.852   8.782
 1931POPC   C2B28700  22.338  40.664   8.356
 1931POPC   C3B28701  22.386  40.634   7.903
 1931POPC   C4B28702  22.630  40.826   7.598
 1932POPC   NC328703  40.704  16.925   9.520
 1932POPC   PO428704  41.097  16.474   9.130
 1932POPC   GL128705  40.901  16.820   9.052
 1932POPC   GL228706  40.558  16.677   9.093
 1932POPC   C1A28707  41.041  16.998   8.674
 1932POPC   D2A28708  41.072  16.631   8.431
 1932POPC   C3A28709  41.161  16.626   7.996
 1932POPC   C4A28710  40.917  16.869   7.686
 1932POPC   C1B28711  40.593  16.642   8.669
 1932POPC   C2B28712  40.611  16.478   8.274
 1932POPC   C3B28713  40.515  16.601   7.864
 1932POPC   C4B28714  40.268  16.387   7.597
 1933POPC   NC328715  31.352  17.106   9.436
 1933POPC   PO428716  31.699  16.537   9.470
 1933POPC   GL128717  31.632  16.821   9.120
 1933POPC   GL228718  31.324  16.755   9.031
 1933POPC   C1A28719  31.721  16.696   8.694
 1933POPC   D2A28720  31.598  16.402   8.395
 1933POPC   C3A28721  31.383  16.534   8.023
 1933POPC   C4A28722  31.769  16.509   7.749
 1933POPC   C1B28723  31.211  16.867   8.622
 1933POPC   C2B28724  31.311  17.041   8.226
 1933POPC   C3B28725  31.565  16.971   7.866
 1933POPC   C4B28726  31.337  16.768   7.509
 1934POPC   NC328727   5.446  28.260   9.574
 1934POPC   PO428728   5.458  28.831   9.560
 1934POPC   GL128729   5.203  28.867   9.148
 1934POPC   GL228730   4.936  28.604   9.127
 1934POPC   C1A28731   5.103  28.770   8.681
 1934POPC   D2A28732   5.009  28.620   8.281
 1934POPC   C3A28733   5.289  28.621   7.946
 1934POPC   C4A28734   5.581  28.348   7.703
 1934POPC   C1B28735   4.608  28.639   8.768
 1934POPC   C2B28736   4.509  28.642   8.307
 1934POPC   C3B28737   4.704  28.557   7.866
 1934POPC   C4B28738   4.582  28.379   7.445
 1935POPC   NC328739  27.340   5.298   9.544
 1935POPC   PO428740  27.642   5.904   9.568
 1935POPC   GL128741  27.741   6.130   9.209
 1935POPC   GL228742  27.379   6.058   9.142
 1935POPC   C1A28743  27.773   6.062   8.773
 1935POPC   D2A28744  27.867   5.753   8.450
 1935POPC   C3A28745  27.817   5.900   8.023
 1935POPC   C4A28746  27.659   5.722   7.630
 1935POPC   C1B28747  27.334   5.821   8.749
 1935POPC   C2B28748  27.363   5.880   8.304
 1935POPC   C3B28749  27.239   5.792   7.890
 1935POPC   C4B28750  27.185   5.784   7.422
 1936POPC   NC328751  10.609  33.562   9.522
 1936POPC   PO428752  10.245  34.096   9.570
 1936POPC   GL128753  10.395  33.909   9.171
 1936POPC   GL228754  10.695  34.035   8.984
 1936POPC   C1A28755  10.362  33.743   8.740
 1936POPC   D2A28756  10.509  33.835   8.334
 1936POPC   C3A28757  10.451  33.492   8.032
 1936POPC   C4A28758  10.440  33.751   7.695
 1936POPC   C1B28759  10.878  33.678   8.701
 1936POPC   C2B28760  10.907  33.517   8.256
 1936POPC   C3B28761  10.897  33.560   7.792
 1936POPC   C4B28762  10.723  33.452   7.358
 1937POPC   NC328763   7.462  39.849   9.513
 1937POPC   PO428764   7.713  40.499   9.456
 1937POPC   GL128765   7.530  40.368   9.078
 1937POPC   GL228766   7.238  40.206   9.191
 1937POPC   C1A28767   7.524  40.222   8.680
 1937POPC   D2A28768   7.344  40.200   8.289
 1937POPC   C3A28769   7.558  39.967   8.004
 1937POPC   C4A28770   7.617  40.162   7.643
 1937POPC   C1B28771   7.232  39.839   8.912
 1937POPC   C2B28772   7.237  39.738   8.499
 1937POPC   C3B28773   7.133  39.690   8.061
 1937POPC   C4B28774   7.273  39.780   7.652
 1938POPC   NC328775  43.493  33.145   9.451
 1938POPC   PO428776  44.155  32.994   9.600
 1938POPC   GL128777  43.956  33.029   9.205
 1938POPC   GL228778  43.742  32.752   9.152
 1938POPC   C1A28779  43.991  33.275   8.815
 1938POPC   D2A28780  43.778  33.353   8.424
 1938POPC   C3A28781  43.887  33.117   8.046
 1938POPC   C4A28782  44.107  33.162   7.619
 1938POPC   C1B28783  43.691  32.849   8.697
 1938POPC   C2B28784  43.431  32.850   8.343
 1938POPC   C3B28785  43.422  32.728   7.933
 1938POPC   C4B28786  43.766  32.771   7.663
 1939POPC   NC328787  33.272  17.579   9.351
 1939POPC   PO428788  32.620  17.741   9.398
 1939POPC   GL128789  32.822  17.468   9.124
 1939POPC   GL228790  32.972  17.784   9.017
 1939POPC   C1A28791  33.042  17.376   8.721
 1939POPC   D2A28792  32.875  17.495   8.324
 1939POPC   C3A28793  33.044  17.447   7.935
 1939POPC   C4A28794  33.081  17.272   7.570
 1939POPC   C1B28795  32.667  17.748   8.717
 1939POPC   C2B28796  32.515  17.917   8.352
 1939POPC   C3B28797  32.649  17.790   7.974
 1939POPC   C4B28798  32.708  17.686   7.543
 1940POPC   NC328799  29.492   9.162   9.375
 1940POPC   PO428800  29.333   9.821   9.500
 1940POPC   GL128801  29.205   9.577   9.128
 1940POPC   GL228802  28.872   9.574   8.977
 1940POPC   C1A28803  29.416   9.390   8.777
 1940POPC   D2A28804  29.582   9.581   8.427
 1940POPC   C3A28805  29.292   9.631   8.076
 1940POPC   C4A28806  29.291   9.509   7.648
 1940POPC   C1B28807  29.086   9.764   8.611
 1940POPC   C2B28808  29.041  10.059   8.263
 1940POPC   C3B28809  29.177  10.114   7.869
 1940POPC   C4B28810  28.954   9.912   7.554
 1941POPC   NC328811  35.007  33.634   9.466
 1941POPC   PO428812  34.803  34.269   9.444
 1941POPC   GL128813  34.964  34.024   9.106
 1941POPC   GL228814  35.307  33.943   9.154
 1941POPC   C1A28815  35.064  33.835   8.710
 1941POPC   D2A28816  35.292  33.678   8.388
 1941POPC   C3A28817  35.131  33.743   8.015
 1941POPC   C4A28818  34.996  33.846   7.628
 1941POPC   C1B28819  35.575  33.836   8.798
 1941POPC   C2B28820  35.799  33.704   8.417
 1941POPC   C3B28821  35.618  33.498   8.035
 1941POPC   C4B28822  35.467  33.635   7.637
 1942POPC   NC328823   5.869  31.198   9.404
 1942POPC   PO428824   5.838  31.781   9.679
 1942POPC   GL128825   5.901  31.686   9.211
 1942POPC   GL228826   6.254  31.610   9.255
 1942POPC   C1A28827   5.886  31.462   8.764
 1942POPC   D2A28828   5.869  31.202   8.357
 1942POPC   C3A28829   5.649  31.298   7.972
 1942POPC   C4A28830   5.480  31.424   7.593
 1942POPC   C1B28831   6.350  31.695   8.818
 1942POPC   C2B28832   6.291  31.505   8.403
 1942POPC   C3B28833   6.105  31.523   8.000
 1942POPC   C4B28834   6.252  31.663   7.609
 1943POPC   NC328835  27.811  28.187   9.495
 1943POPC   PO428836  28.366  28.505   9.240
 1943POPC   GL128837  28.100  28.315   8.976
 1943POPC   GL228838  27.905  28.017   9.017
 1943POPC   C1A28839  28.164  28.473   8.584
 1943POPC   D2A28840  28.263  28.661   8.210
 1943POPC   C3A28841  28.628  28.577   7.984
 1943POPC   C4A28842  28.596  28.537   7.567
 1943POPC   C1B28843  28.019  27.985   8.561
 1943POPC   C2B28844  28.091  28.080   8.125
 1943POPC   C3B28845  28.171  28.361   7.810
 1943POPC   C4B28846  28.200  28.286   7.381
 1944POPC   NC328847  27.548  42.129   9.390
 1944POPC   PO428848  27.331  41.544   9.608
 1944POPC   GL128849  27.377  41.637   9.179
 1944POPC   GL228850  27.124  41.891   9.182
 1944POPC   C1A28851  27.648  41.580   8.798
 1944POPC   D2A28852  27.672  41.405   8.398
 1944POPC   C3A28853  27.788  41.685   8.089
 1944POPC   C4A28854  27.813  41.488   7.716
 1944POPC   C1B28855  27.256  41.907   8.762
 1944POPC   C2B28856  27.171  41.782   8.370
 1944POPC   C3B28857  27.321  41.905   7.997
 1944POPC   C4B28858  27.553  41.893   7.659
 1945POPC   NC328859  18.616   5.169   9.451
 1945POPC   PO428860  17.959   4.974   9.473
 1945POPC   GL128861  18.066   4.814   9.083
 1945POPC   GL228862  18.281   5.111   9.024
 1945POPC   C1A28863  18.139   4.779   8.636
 1945POPC   D2A28864  18.452   4.860   8.425
 1945POPC   C3A28865  18.386   4.998   8.028
 1945POPC   C4A28866  18.058   4.900   7.778
 1945POPC   C1B28867  18.121   5.310   8.644
 1945POPC   C2B28868  18.275   5.449   8.243
 1945POPC   C3B28869  18.107   5.396   7.836
 1945POPC   C4B28870  17.869   5.284   7.430
 1946POPC   NC328871  43.998  31.140   9.543
 1946POPC   PO428872  43.856  30.415   9.657
 1946POPC   GL128873  43.909  30.481   9.197
 1946POPC   GL228874  43.792  30.847   9.142
 1946POPC   C1A28875  43.852  30.550   8.724
 1946POPC   D2A28876  43.822  30.893   8.378
 1946POPC   C3A28877  43.781  30.670   7.961
 1946POPC   C4A28878  43.541  30.311   7.757
 1946POPC   C1B28879  44.162  30.934   8.853
 1946POPC   C2B28880  44.335  30.854   8.430
 1946POPC   C3B28881  44.336  31.005   7.994
 1946POPC   C4B28882  44.261  30.897   7.537
 1947POPC   NC328883   6.708   0.206   9.557
 1947POPC   PO428884   6.853   0.829   9.456
 1947POPC   GL128885   6.853   0.599   9.104
 1947POPC   GL228886   6.524   0.513   9.115
 1947POPC   C1A28887   6.791   0.700   8.682
 1947POPC   D2A28888   6.704   0.632   8.257
 1947POPC   C3A28889   6.961   0.695   7.912
 1947POPC   C4A28890   6.800   0.323   7.748
 1947POPC   C1B28891   6.526   0.243   8.742
 1947POPC   C2B28892   6.343   0.265   8.318
 1947POPC   C3B28893   6.336   0.472   7.908
 1947POPC   C4B28894   6.267   0.495   7.461
 1948POPC   NC328895   5.656  40.875   9.705
 1948POPC   PO428896   6.263  40.602   9.717
 1948POPC   GL128897   6.020  40.650   9.294
 1948POPC   GL228898   5.666  40.741   9.212
 1948POPC   C1A28899   5.981  40.710   8.834
 1948POPC   D2A28900   5.882  40.928   8.446
 1948POPC   C3A28901   5.770  40.609   8.140
 1948POPC   C4A28902   5.785  40.659   7.712
 1948POPC   C1B28903   5.507  40.957   8.825
 1948POPC   C2B28904   5.371  40.889   8.407
 1948POPC   C3B28905   5.516  41.051   8.022
 1948POPC   C4B28906   5.634  41.150   7.593
 1949POPC   NC328907  28.387  24.053   9.491
 1949POPC   PO428908  28.024  23.475   9.484
 1949POPC   GL128909  28.215  23.520   9.111
 1949POPC   GL228910  28.416  23.793   9.068
 1949POPC   C1A28911  28.037  23.574   8.703
 1949POPC   D2A28912  28.099  23.446   8.274
 1949POPC   C3A28913  28.313  23.656   7.916
 1949POPC   C4A28914  28.290  23.535   7.474
 1949POPC   C1B28915  28.251  24.037   8.724
 1949POPC   C2B28916  28.088  23.995   8.280
 1949POPC   C3B28917  28.044  24.166   7.832
 1949POPC   C4B28918  28.063  23.998   7.407
 1950POPC   NC328919  42.489   3.226   9.468
 1950POPC   PO428920  42.290   3.970   9.477
 1950POPC   GL128921  42.273   3.604   9.156
 1950POPC   GL228922  42.114   3.250   9.125
 1950POPC   C1A28923  42.484   3.439   8.773
 1950POPC   D2A28924  42.321   3.304   8.357
 1950POPC   C3A28925  42.616   3.196   8.068
 1950POPC   C4A28926  42.577   3.053   7.660
 1950POPC   C1B28927  41.986   3.437   8.723
 1950POPC   C2B28928  42.141   3.780   8.471
 1950POPC   C3B28929  42.217   3.761   8.031
 1950POPC   C4B28930  42.519   3.599   7.764
 1951POPC   NC328931   2.661  44.200   9.349
 1951POPC   PO428932   2.810  43.509   9.434
 1951POPC   GL128933   2.761  43.761   9.118
 1951POPC   GL228934   3.053  43.925   9.101
 1951POPC   C1A28935   2.634  43.872   8.739
 1951POPC   D2A28936   2.510  43.585   8.434
 1951POPC   C3A28937   2.605  43.778   8.063
 1951POPC   C4A28938   2.888  43.675   7.773
 1951POPC   C1B28939   3.098  44.101   8.694
 1951POPC   C2B28940   2.869  44.148   8.334
 1951POPC   C3B28941   2.919  44.187   7.932
 1951POPC   C4B28942   2.622  44.141   7.660
 1952POPC   NC328943  29.668   3.020   9.450
 1952POPC   PO428944  30.028   2.502   9.708
 1952POPC   GL128945  29.909   2.591   9.250
 1952POPC   GL228946  30.034   2.902   9.115
 1952POPC   C1A28947  29.684   2.670   8.838
 1952POPC   D2A28948  29.620   2.937   8.481
 1952POPC   C3A28949  29.678   2.760   8.097
 1952POPC   C4A28950  29.948   2.745   7.766
 1952POPC   C1B28951  30.219   2.755   8.785
 1952POPC   C2B28952  30.105   2.764   8.377
 1952POPC   C3B28953  30.124   3.097   8.116
 1952POPC   C4B28954  30.344   3.078   7.734
 1953POPC   NC328955  38.437  33.142   9.692
 1953POPC   PO428956  38.567  32.484   9.743
 1953POPC   GL128957  38.506  32.681   9.256
 1953POPC   GL228958  38.385  33.052   9.203
 1953POPC   C1A28959  38.475  32.830   8.755
 1953POPC   D2A28960  38.762  33.111   8.469
 1953POPC   C3A28961  38.692  32.977   8.029
 1953POPC   C4A28962  38.322  32.827   7.841
 1953POPC   C1B28963  38.403  33.324   8.829
 1953POPC   C2B28964  38.320  33.453   8.434
 1953POPC   C3B28965  38.110  33.316   8.108
 1953POPC   C4B28966  38.179  33.457   7.712
 1954POPC   NC328967   3.580  20.332   9.375
 1954POPC   PO428968   3.173  20.674   9.653
 1954POPC   GL128969   3.443  20.779   9.197
 1954POPC   GL228970   3.877  20.654   9.137
 1954POPC   C1A28971   3.563  20.627   8.750
 1954POPC   D2A28972   3.730  20.372   8.397
 1954POPC   C3A28973   3.594  20.456   7.983
 1954POPC   C4A28974   3.329  20.784   7.889
 1954POPC   C1B28975   4.076  20.511   8.753
 1954POPC   C2B28976   4.128  20.693   8.349
 1954POPC   C3B28977   4.046  20.677   7.929
 1954POPC   C4B28978   3.766  20.850   7.626
 1955POPC   NC328979  14.767  44.623   9.492
 1955POPC   PO428980  15.355  44.276   9.480
 1955POPC   GL128981  15.137  44.498   9.124
 1955POPC   GL228982  14.953  44.820   9.039
 1955POPC   C1A28983  15.319  44.649   8.741
 1955POPC   D2A28984  15.476  44.800   8.377
 1955POPC   C3A28985  15.316  44.630   7.990
 1955POPC   C4A28986  15.400  44.911   7.663
 1955POPC   C1B28987  14.803  44.623   8.731
 1955POPC   C2B28988  14.958  44.688   8.368
 1955POPC   C3B28989  14.802  44.683   7.998
 1955POPC   C4B28990  14.747  44.992   7.740
 1956POPC   NC328991  44.754   3.069   9.442
 1956POPC   PO428992  44.318   2.559   9.381
 1956POPC   GL128993  44.662   2.417   9.127
 1956POPC   GL228994  44.929   2.678   9.115
 1956POPC   C1A28995  44.627   2.502   8.722
 1956POPC   D2A28996  44.397   2.754   8.471
 1956POPC   C3A28997  44.588   2.812   8.142
 1956POPC   C4A28998  44.577   3.101   7.822
 1956POPC   C1B28999  44.732   3.000   8.802
 1956POPC   C2B29000  44.837   3.173   8.393
 1956POPC   C3B29001   0.045   2.986   8.010
 1956POPC   C4B29002  44.868   2.666   7.732
 1957POPC   NC329003  10.516  18.974   9.661
 1957POPC   PO429004  10.498  19.613   9.509
 1957POPC   GL129005  10.354  19.262   9.245
 1957POPC   GL229006  10.609  18.980   9.152
 1957POPC   C1A29007  10.290  19.177   8.804
 1957POPC   D2A29008  10.389  19.027   8.370
 1957POPC   C3A29009  10.563  19.303   8.030
 1957POPC   C4A29010  10.678  19.024   7.718
 1957POPC   C1B29011  10.804  18.960   8.713
 1957POPC   C2B29012  10.908  18.984   8.240
 1957POPC   C3B29013  10.995  18.647   7.918
 1957POPC   C4B29014  10.788  18.565   7.517
 1958POPC   NC329015  44.901   2.119   9.473
 1958POPC   PO429016  44.291   1.898   9.668
 1958POPC   GL129017  44.416   1.963   9.231
 1958POPC   GL229018  44.713   1.877   9.050
 1958POPC   C1A29019  44.273   2.119   8.814
 1958POPC   D2A29020  44.331   2.254   8.368
 1958POPC   C3A29021  44.382   1.985   7.996
 1958POPC   C4A29022  44.519   1.904   7.559
 1958POPC   C1B29023  44.754   2.022   8.612
 1958POPC   C2B29024  44.832   2.361   8.267
 1958POPC   C3B29025  44.835   2.179   7.876
 1958POPC   C4B29026  44.906   1.738   7.920
 1959POPC   NC329027  29.011  15.681   9.441
 1959POPC   PO429028  29.385  16.258   9.516
 1959POPC   GL129029  29.155  16.077   9.146
 1959POPC   GL229030  29.319  16.196   8.834
 1959POPC   C1A29031  28.968  15.857   8.782
 1959POPC   D2A29032  29.065  16.047   8.369
 1959POPC   C3A29033  29.033  15.885   7.953
 1959POPC   C4A29034  28.986  16.140   7.599
 1959POPC   C1B29035  29.481  15.861   8.615
 1959POPC   C2B29036  29.488  15.807   8.178
 1959POPC   C3B29037  29.474  15.737   7.728
 1959POPC   C4B29038  29.488  16.022   7.382
 1960POPC   NC329039  31.313   5.835   9.553
 1960POPC   PO429040  31.721   6.282   9.392
 1960POPC   GL129041  31.592   5.953   9.089
 1960POPC   GL229042  31.243   5.884   9.066
 1960POPC   C1A29043  31.523   5.979   8.622
 1960POPC   D2A29044  31.694   5.699   8.264
 1960POPC   C3A29045  31.747   5.873   7.854
 1960POPC   C4A29046  31.499   6.177   7.674
 1960POPC   C1B29047  31.047   5.585   8.797
 1960POPC   C2B29048  31.107   5.748   8.406
 1960POPC   C3B29049  31.256   5.872   8.024
 1960POPC   C4B29050  31.244   5.753   7.583
 1961POPC   NC329051  17.208  42.880   9.468
 1961POPC   PO429052  17.670  43.347   9.399
 1961POPC   GL129053  17.446  43.133   9.098
 1961POPC   GL229054  17.649  42.846   9.196
 1961POPC   C1A29055  17.265  43.060   8.691
 1961POPC   D2A29056  17.451  42.983   8.271
 1961POPC   C3A29057  17.246  43.214   7.891
 1961POPC   C4A29058  17.280  43.339   7.427
 1961POPC   C1B29059  17.672  42.765   8.780
 1961POPC   C2B29060  17.984  42.873   8.508
 1961POPC   C3B29061  18.001  42.856   8.071
 1961POPC   C4B29062  17.634  42.857   7.787
 1962POPC   NC329063  34.622  19.484   9.285
 1962POPC   PO429064  34.785  19.947   9.679
 1962POPC   GL129065  34.642  19.963   9.218
 1962POPC   GL229066  34.908  19.987   9.076
 1962POPC   C1A29067  34.448  19.926   8.797
 1962POPC   D2A29068  34.380  19.706   8.389
 1962POPC   C3A29069  34.287  19.958   8.046
 1962POPC   C4A29070  34.330  20.200   7.677
 1962POPC   C1B29071  34.980  20.046   8.660
 1962POPC   C2B29072  34.797  20.096   8.257
 1962POPC   C3B29073  34.816  20.037   7.825
 1962POPC   C4B29074  34.699  19.934   7.414
 1963POPC   NC329075   5.716  30.214   9.503
 1963POPC   PO429076   6.350  30.225   9.641
 1963POPC   GL129077   6.179  30.069   9.218
 1963POPC   GL229078   5.875  29.847   9.173
 1963POPC   C1A29079   6.014  30.140   8.769
 1963POPC   D2A29080   5.956  29.893   8.385
 1963POPC   C3A29081   5.790  30.092   8.015
 1963POPC   C4A29082   5.954  30.118   7.569
 1963POPC   C1B29083   5.537  29.902   8.853
 1963POPC   C2B29084   5.440  29.982   8.419
 1963POPC   C3B29085   5.515  29.676   8.085
 1963POPC   C4B29086   5.793  29.637   7.714
 1964POPC   NC329087  21.970  30.015   9.596
 1964POPC   PO429088  22.523  29.612   9.378
 1964POPC   GL129089  22.150  29.582   9.110
 1964POPC   GL229090  21.958  29.901   9.097
 1964POPC   C1A29091  21.973  29.635   8.678
 1964POPC   D2A29092  21.867  29.940   8.361
 1964POPC   C3A29093  21.931  29.713   8.026
 1964POPC   C4A29094  22.153  29.663   7.672
 1964POPC   C1B29095  22.345  29.985   8.819
 1964POPC   C2B29096  22.400  30.080   8.366
 1964POPC   C3B29097  22.183  30.151   7.962
 1964POPC   C4B29098  22.214  30.472   7.633
 1965POPC   NC329099  12.904  42.589   9.273
 1965POPC   PO429100  12.921  42.048   9.603
 1965POPC   GL129101  12.723  42.094   9.219
 1965POPC   GL229102  13.002  42.200   8.980
 1965POPC   C1A29103  12.664  41.865   8.841
 1965POPC   D2A29104  12.849  42.021   8.482
 1965POPC   C3A29105  12.606  42.083   8.129
 1965POPC   C4A29106  12.523  42.079   7.710
 1965POPC   C1B29107  12.595  42.367   8.774
 1965POPC   C2B29108  12.630  42.550   8.387
 1965POPC   C3B29109  12.953  42.463   8.087
 1965POPC   C4B29110  12.868  42.448   7.656
 1966POPC   NC329111  37.460  24.401   9.550
 1966POPC   PO429112  38.096  24.309   9.312
 1966POPC   GL129113  37.806  24.548   9.149
 1966POPC   GL229114  37.610  24.222   9.101
 1966POPC   C1A29115  37.965  24.743   8.779
 1966POPC   D2A29116  38.045  24.618   8.390
 1966POPC   C3A29117  37.966  24.829   8.012
 1966POPC   C4A29118  37.915  24.738   7.613
 1966POPC   C1B29119  37.720  24.017   8.724
 1966POPC   C2B29120  37.715  24.207   8.348
 1966POPC   C3B29121  37.441  24.257   8.022
 1966POPC   C4B29122  37.631  24.333   7.677
 1967POPC   NC329123  37.286  34.249   9.394
 1967POPC   PO429124  37.915  34.445   9.554
 1967POPC   GL129125  37.667  34.564   9.201
 1967POPC   GL229126  37.812  34.831   9.027
 1967POPC   C1A29127  37.375  34.664   8.836
 1967POPC   D2A29128  37.477  34.715   8.400
 1967POPC   C3A29129  37.247  34.435   8.145
 1967POPC   C4A29130  37.309  34.535   7.730
 1967POPC   C1B29131  37.828  34.451   8.714
 1967POPC   C2B29132  38.004  34.490   8.296
 1967POPC   C3B29133  37.784  34.618   7.933
 1967POPC   C4B29134  37.562  34.989   7.813
 1968POPC   NC329135  36.777  28.119   9.775
 1968POPC   PO429136  37.135  28.613   9.668
 1968POPC   GL129137  36.953  28.312   9.295
 1968POPC   GL229138  36.602  28.414   9.157
 1968POPC   C1A29139  36.939  28.157   8.830
 1968POPC   D2A29140  36.860  28.358   8.417
 1968POPC   C3A29141  36.894  28.161   8.004
 1968POPC   C4A29142  37.062  28.005   7.644
 1968POPC   C1B29143  36.911  28.658   8.850
 1968POPC   C2B29144  37.034  28.876   8.450
 1968POPC   C3B29145  37.104  28.690   8.025
 1968POPC   C4B29146  36.862  28.710   7.614
 1969POPC   NC329147  43.985   2.203   9.470
 1969POPC   PO429148  44.006   1.468   9.344
 1969POPC   GL129149  43.951   1.795   9.115
 1969POPC   GL229150  43.671   1.977   9.130
 1969POPC   C1A29151  43.882   1.798   8.703
 1969POPC   D2A29152  44.079   1.768   8.350
 1969POPC   C3A29153  43.826   1.824   8.045
 1969POPC   C4A29154  44.053   1.746   7.684
 1969POPC   C1B29155  43.604   2.229   8.760
 1969POPC   C2B29156  43.817   2.225   8.382
 1969POPC   C3B29157  43.977   2.318   7.986
 1969POPC   C4B29158  43.762   2.528   7.668
 1970POPC   NC329159  20.368  42.854   9.540
 1970POPC   PO429160  20.799  43.324   9.326
 1970POPC   GL129161  20.411  43.176   9.134
 1970POPC   GL229162  20.320  42.786   9.048
 1970POPC   C1A29163  20.164  43.333   8.805
 1970POPC   D2A29164  20.252  43.163   8.400
 1970POPC   C3A29165  20.256  43.406   8.036
 1970POPC   C4A29166  20.317  43.286   7.637
 1970POPC   C1B29167  20.726  42.837   8.862
 1970POPC   C2B29168  20.825  43.049   8.493
 1970POPC   C3B29169  20.718  43.144   8.081
 1970POPC   C4B29170  20.842  43.267   7.682
 1971POPC   NC329171  37.222  13.141   9.373
 1971POPC   PO429172  37.829  12.746   9.518
 1971POPC   GL129173  37.666  12.702   9.106
 1971POPC   GL229174  37.933  12.453   9.050
 1971POPC   C1A29175  37.495  12.971   8.754
 1971POPC   D2A29176  37.382  13.197   8.347
 1971POPC   C3A29177  37.277  12.915   7.997
 1971POPC   C4A29178  37.485  12.850   7.603
 1971POPC   C1B29179  37.932  12.689   8.669
 1971POPC   C2B29180  37.666  12.761   8.329
 1971POPC   C3B29181  37.810  12.848   7.976
 1971POPC   C4B29182  37.994  12.682   7.621
 1972POPC   NC329183  31.284  43.182   9.692
 1972POPC   PO429184  31.810  43.388   9.329
 1972POPC   GL129185  31.376  43.244   9.194
 1972POPC   GL229186  31.148  43.553   9.227
 1972POPC   C1A29187  31.322  42.962   8.810
 1972POPC   D2A29188  31.679  43.003   8.515
 1972POPC   C3A29189  31.582  42.894   8.115
 1972POPC   C4A29190  31.702  43.002   7.697
 1972POPC   C1B29191  31.201  43.453   8.778
 1972POPC   C2B29192  31.198  43.236   8.363
 1972POPC   C3B29193  31.334  43.295   7.927
 1972POPC   C4B29194  31.186  43.369   7.506
 1973POPC   NC329195   7.700  36.502   9.244
 1973POPC   PO429196   7.293  36.008   9.527
 1973POPC   GL129197   7.280  36.264   9.111
 1973POPC   GL229198   7.590  36.099   8.985
 1973POPC   C1A29199   7.436  36.432   8.650
 1973POPC   D2A29200   7.728  36.138   8.434
 1973POPC   C3A29201   7.656  36.270   8.013
 1973POPC   C4A29202   7.244  36.370   7.822
 1973POPC   C1B29203   7.279  35.963   8.705
 1973POPC   C2B29204   7.226  36.093   8.289
 1973POPC   C3B29205   7.026  35.922   7.947
 1973POPC   C4B29206   7.189  35.642   7.641
 1974POPC   NC329207  33.937  30.647   9.584
 1974POPC   PO429208  33.670  31.150   9.378
 1974POPC   GL129209  33.704  30.839   9.091
 1974POPC   GL229210  34.042  30.878   9.090
 1974POPC   C1A29211  33.838  30.740   8.652
 1974POPC   D2A29212  33.996  30.962   8.313
 1974POPC   C3A29213  33.670  30.988   8.005
 1974POPC   C4A29214  33.522  30.580   7.909
 1974POPC   C1B29215  34.140  30.424   8.942
 1974POPC   C2B29216  34.136  30.295   8.514
 1974POPC   C3B29217  34.333  30.565   8.211
 1974POPC   C4B29218  34.062  30.682   7.867
 1975POPC   NC329219   9.664  20.895   9.477
 1975POPC   PO429220   9.662  20.160   9.482
 1975POPC   GL129221   9.658  20.467   9.165
 1975POPC   GL229222   9.983  20.615   9.185
 1975POPC   C1A29223   9.494  20.542   8.764
 1975POPC   D2A29224   9.496  20.734   8.351
 1975POPC   C3A29225   9.707  20.574   7.992
 1975POPC   C4A29226   9.544  20.535   7.618
 1975POPC   C1B29227  10.051  20.552   8.760
 1975POPC   C2B29228  10.019  20.744   8.369
 1975POPC   C3B29229  10.155  20.838   7.953
 1975POPC   C4B29230  10.029  20.656   7.563
 1976POPC   NC329231  14.604  13.692   9.548
 1976POPC   PO429232  13.986  13.754   9.494
 1976POPC   GL129233  14.233  13.613   9.131
 1976POPC   GL229234  14.452  13.847   9.092
 1976POPC   C1A29235  14.569  13.446   8.798
 1976POPC   D2A29236  14.566  13.581   8.402
 1976POPC   C3A29237  14.716  13.577   7.997
 1976POPC   C4A29238  14.397  13.526   7.695
 1976POPC   C1B29239  14.463  14.014   8.692
 1976POPC   C2B29240  14.683  14.065   8.304
 1976POPC   C3B29241  14.451  14.084   7.900
 1976POPC   C4B29242  14.300  13.960   7.461
 1977POPC   NC329243  30.779  42.806   9.413
 1977POPC   PO429244  30.575  42.131   9.419
 1977POPC   GL129245  30.914  42.311   9.173
 1977POPC   GL229246  31.154  42.029   9.146
 1977POPC   C1A29247  30.755  42.469   8.766
 1977POPC   D2A29248  30.503  42.181   8.490
 1977POPC   C3A29249  30.556  42.240   8.045
 1977POPC   C4A29250  30.841  42.479   7.800
 1977POPC   C1B29251  30.925  42.005   8.745
 1977POPC   C2B29252  30.990  42.189   8.351
 1977POPC   C3B29253  31.057  42.040   7.965
 1977POPC   C4B29254  31.157  42.124   7.580
 1978POPC   NC329255  39.790   5.514   9.468
 1978POPC   PO429256  39.662   6.205   9.499
 1978POPC   GL129257  39.832   5.943   9.176
 1978POPC   GL229258  40.137   5.737   9.144
 1978POPC   C1A29259  39.765   5.814   8.765
 1978POPC   D2A29260  39.689   5.602   8.393
 1978POPC   C3A29261  39.896   5.785   8.047
 1978POPC   C4A29262  39.704   6.044   7.762
 1978POPC   C1B29263  40.326   5.597   8.735
 1978POPC   C2B29264  40.332   5.650   8.272
 1978POPC   C3B29265  40.323   5.506   7.837
 1978POPC   C4B29266  40.335   5.488   7.361
 1979POPC   NC329267   8.739  15.347   9.454
 1979POPC   PO429268   9.424  15.410   9.632
 1979POPC   GL129269   9.162  15.092   9.329
 1979POPC   GL229270   9.156  15.312   9.126
 1979POPC   C1A29271   8.858  14.942   8.948
 1979POPC   D2A29272   8.734  14.844   8.511
 1979POPC   C3A29273   8.878  15.099   8.153
 1979POPC   C4A29274   9.039  15.068   7.753
 1979POPC   C1B29275   8.970  15.421   8.756
 1979POPC   C2B29276   9.071  15.540   8.353
 1979POPC   C3B29277   9.251  15.492   7.969
 1979POPC   C4B29278   9.160  15.532   7.537
 1980POPC   NC329279  29.566   6.519   9.633
 1980POPC   PO429280  30.212   6.613   9.554
 1980POPC   GL129281  29.915   6.607   9.197
 1980POPC   GL229282  30.093   6.322   9.104
 1980POPC   C1A29283  29.769   6.798   8.779
 1980POPC   D2A29284  29.893   6.630   8.368
 1980POPC   C3A29285  29.680   6.722   7.995
 1980POPC   C4A29286  29.542   6.948   7.643
 1980POPC   C1B29287  30.216   6.533   8.756
 1980POPC   C2B29288  30.415   6.528   8.375
 1980POPC   C3B29289  30.262   6.613   8.008
 1980POPC   C4B29290  30.016   6.436   7.699
 1981POPC   NC329291  12.342  17.702   9.485
 1981POPC   PO429292  11.695  17.523   9.470
 1981POPC   GL129293  11.876  17.377   9.067
 1981POPC   GL229294  12.167  17.507   9.067
 1981POPC   C1A29295  11.920  17.505   8.627
 1981POPC   D2A29296  12.022  17.371   8.249
 1981POPC   C3A29297  12.175  17.586   7.929
 1981POPC   C4A29298  12.008  17.532   7.548
 1981POPC   C1B29299  12.362  17.752   8.777
 1981POPC   C2B29300  12.494  17.616   8.378
 1981POPC   C3B29301  12.597  17.317   8.069
 1981POPC   C4B29302  12.528  17.353   7.629
 1982POPC   NC329303  13.341  18.847   9.397
 1982POPC   PO429304  12.677  18.974   9.455
 1982POPC   GL129305  12.896  18.917   9.111
 1982POPC   GL229306  12.995  19.243   9.097
 1982POPC   C1A29307  12.754  18.825   8.715
 1982POPC   D2A29308  12.489  18.905   8.363
 1982POPC   C3A29309  12.758  18.931   8.007
 1982POPC   C4A29310  12.880  19.184   7.680
 1982POPC   C1B29311  13.116  19.210   8.671
 1982POPC   C2B29312  13.069  19.244   8.232
 1982POPC   C3B29313  13.317  19.336   7.844
 1982POPC   C4B29314  13.171  19.549   7.442
 1983POPC   NC329315   3.247  17.254   9.484
 1983POPC   PO429316   2.622  17.604   9.532
 1983POPC   GL129317   2.877  17.514   9.217
 1983POPC   GL229318   2.829  17.153   9.200
 1983POPC   C1A29319   2.825  17.538   8.790
 1983POPC   D2A29320   2.627  17.442   8.418
 1983POPC   C3A29321   2.862  17.512   8.067
 1983POPC   C4A29322   2.780  17.571   7.664
 1983POPC   C1B29323   3.048  17.075   8.831
 1983POPC   C2B29324   3.106  17.256   8.443
 1983POPC   C3B29325   3.061  17.044   8.056
 1983POPC   C4B29326   3.098  17.199   7.663
 1984POPC   NC329327  33.069  44.855  10.046
 1984POPC   PO429328  33.446  44.455   9.655
 1984POPC   GL129329  33.186  44.643   9.302
 1984POPC   GL229330  32.896  44.874   9.142
 1984POPC   C1A29331  33.236  44.639   8.854
 1984POPC   D2A29332  33.048  44.663   8.473
 1984POPC   C3A29333  33.245  44.680   8.082
 1984POPC   C4A29334  33.284  44.556   7.670
 1984POPC   C1B29335  32.777   0.051   8.696
 1984POPC   C2B29336  32.665  44.895   8.240
 1984POPC   C3B29337  32.849  44.823   7.779
 1984POPC   C4B29338  33.013  44.821   7.322
 1985POPC   NC329339  26.491  28.883   9.422
 1985POPC   PO429340  27.061  29.048   9.582
 1985POPC   GL129341  27.025  29.288   9.160
 1985POPC   GL229342  26.696  29.213   9.098
 1985POPC   C1A29343  26.954  29.289   8.676
 1985POPC   D2A29344  26.922  29.458   8.273
 1985POPC   C3A29345  27.091  29.134   8.046
 1985POPC   C4A29346  26.901  28.822   7.798
 1985POPC   C1B29347  26.482  29.020   8.753
 1985POPC   C2B29348  26.504  29.143   8.329
 1985POPC   C3B29349  26.574  29.200   7.907
 1985POPC   C4B29350  26.902  29.400   7.686
 1986POPC   NC329351  13.132  22.092   9.527
 1986POPC   PO429352  12.436  22.064   9.534
 1986POPC   GL129353  12.778  22.132   9.161
 1986POPC   GL229354  12.907  21.812   9.140
 1986POPC   C1A29355  12.893  22.435   8.781
 1986POPC   D2A29356  13.046  22.417   8.351
 1986POPC   C3A29357  12.825  22.525   7.957
 1986POPC   C4A29358  12.926  22.379   7.502
 1986POPC   C1B29359  13.055  21.958   8.751
 1986POPC   C2B29360  12.945  21.907   8.349
 1986POPC   C3B29361  12.892  22.019   7.925
 1986POPC   C4B29362  12.622  21.716   7.777
 1987POPC   NC329363  42.822  36.051   9.547
 1987POPC   PO429364  43.481  36.111   9.389
 1987POPC   GL129365  43.287  35.831   9.053
 1987POPC   GL229366  42.923  35.831   9.098
 1987POPC   C1A29367  43.264  35.910   8.606
 1987POPC   D2A29368  43.121  36.336   8.395
 1987POPC   C3A29369  43.335  36.296   8.029
 1987POPC   C4A29370  43.355  35.905   7.780
 1987POPC   C1B29371  42.869  36.153   8.808
 1987POPC   C2B29372  42.784  35.958   8.375
 1987POPC   C3B29373  42.888  36.050   7.937
 1987POPC   C4B29374  42.755  36.035   7.498
 1988POPC   NC329375  29.026  37.832   9.772
 1988POPC   PO429376  29.517  37.469   9.413
 1988POPC   GL129377  29.165  37.764   9.279
 1988POPC   GL229378  28.836  37.584   9.248
 1988POPC   C1A29379  29.026  37.903   8.869
 1988POPC   D2A29380  29.301  37.895   8.484
 1988POPC   C3A29381  29.154  37.766   8.084
 1988POPC   C4A29382  29.222  37.925   7.698
 1988POPC   C1B29383  28.654  37.548   8.833
 1988POPC   C2B29384  28.869  37.507   8.429
 1988POPC   C3B29385  28.730  37.452   7.990
 1988POPC   C4B29386  28.816  37.658   7.580
 1989POPC   NC329387  35.875  33.198   9.470
 1989POPC   PO429388  36.412  32.791   9.647
 1989POPC   GL129389  36.245  32.758   9.210
 1989POPC   GL229390  36.130  33.070   9.059
 1989POPC   C1A29391  36.434  32.792   8.773
 1989POPC   D2A29392  36.428  32.926   8.335
 1989POPC   C3A29393  36.050  32.754   8.110
 1989POPC   C4A29394  35.681  32.976   7.919
 1989POPC   C1B29395  35.934  32.957   8.691
 1989POPC   C2B29396  35.906  33.202   8.341
 1989POPC   C3B29397  36.136  33.259   8.025
 1989POPC   C4B29398  36.403  33.010   7.815
 1990POPC   NC329399   5.665  36.824   9.690
 1990POPC   PO429400   6.166  37.290   9.420
 1990POPC   GL129401   5.863  37.014   9.211
 1990POPC   GL229402   5.577  37.084   9.153
 1990POPC   C1A29403   5.814  36.820   8.765
 1990POPC   D2A29404   6.034  36.739   8.358
 1990POPC   C3A29405   5.901  36.920   7.974
 1990POPC   C4A29406   5.714  36.794   7.605
 1990POPC   C1B29407   5.510  37.260   8.747
 1990POPC   C2B29408   5.652  37.170   8.325
 1990POPC   C3B29409   5.501  37.256   7.876
 1990POPC   C4B29410   5.526  37.197   7.367
 1991POPC   NC329411   1.666  38.912   9.674
 1991POPC   PO429412   2.232  38.453   9.564
 1991POPC   GL129413   2.161  38.375   9.095
 1991POPC   GL229414   2.228  38.667   8.872
 1991POPC   C1A29415   1.870  38.377   8.707
 1991POPC   D2A29416   1.711  38.222   8.312
 1991POPC   C3A29417   1.965  38.401   7.977
 1991POPC   C4A29418   1.811  38.552   7.583
 1991POPC   C1B29419   2.391  38.982   8.643
 1991POPC   C2B29420   2.351  38.999   8.224
 1991POPC   C3B29421   2.425  39.051   7.824
 1991POPC   C4B29422   2.229  38.814   7.526
 1992POPC   NC329423  14.774  23.953   9.315
 1992POPC   PO429424  15.198  23.490   9.678
 1992POPC   GL129425  15.310  23.729   9.241
 1992POPC   GL229426  15.549  24.036   9.217
 1992POPC   C1A29427  15.234  23.906   8.817
 1992POPC   D2A29428  15.177  24.062   8.394
 1992POPC   C3A29429  15.146  23.782   8.037
 1992POPC   C4A29430  15.399  23.500   7.774
 1992POPC   C1B29431  15.750  23.984   8.845
 1992POPC   C2B29432  15.670  24.046   8.438
 1992POPC   C3B29433  15.699  23.910   8.027
 1992POPC   C4B29434  15.467  23.991   7.676
 1993POPC   NC329435  24.883  20.428   9.941
 1993POPC   PO429436  24.688  20.888   9.679
 1993POPC   GL129437  24.606  20.836   9.211
 1993POPC   GL229438  24.756  21.082   8.992
 1993POPC   C1A29439  24.351  20.717   8.841
 1993POPC   D2A29440  24.158  20.677   8.416
 1993POPC   C3A29441  24.186  20.928   8.024
 1993POPC   C4A29442  24.095  20.852   7.579
 1993POPC   C1B29443  24.814  20.804   8.630
 1993POPC   C2B29444  24.638  20.760   8.230
 1993POPC   C3B29445  24.658  20.599   7.806
 1993POPC   C4B29446  25.015  20.329   7.613
 1994POPC   NC329447  44.138   6.394   9.531
 1994POPC   PO429448  43.564   6.745   9.374
 1994POPC   GL129449  43.826   6.501   9.142
 1994POPC   GL229450  44.060   6.777   9.181
 1994POPC   C1A29451  43.921   6.360   8.726
 1994POPC   D2A29452  43.720   6.569   8.381
 1994POPC   C3A29453  43.863   6.527   7.965
 1994POPC   C4A29454  43.720   6.485   7.547
 1994POPC   C1B29455  43.949   6.862   8.769
 1994POPC   C2B29456  44.154   6.850   8.392
 1994POPC   C3B29457  44.123   6.972   7.974
 1994POPC   C4B29458  43.877   6.989   7.615
 1995POPC   NC329459  29.425  37.006   9.374
 1995POPC   PO429460  28.799  36.774   9.427
 1995POPC   GL129461  28.879  36.727   9.018
 1995POPC   GL229462  29.222  36.692   9.039
 1995POPC   C1A29463  28.985  37.074   8.742
 1995POPC   D2A29464  29.320  37.254   8.484
 1995POPC   C3A29465  29.208  37.243   8.063
 1995POPC   C4A29466  29.078  37.224   7.640
 1995POPC   C1B29467  29.440  36.792   8.677
 1995POPC   C2B29468  29.282  36.750   8.256
 1995POPC   C3B29469  29.234  36.770   7.811
 1995POPC   C4B29470  29.454  36.565   7.508
 1996POPC   NC329471   2.406  11.835   9.617
 1996POPC   PO429472   3.026  11.707   9.483
 1996POPC   GL129473   2.949  11.956   9.094
 1996POPC   GL229474   2.613  12.097   9.144
 1996POPC   C1A29475   2.837  11.998   8.624
 1996POPC   D2A29476   2.598  12.016   8.203
 1996POPC   C3A29477   2.814  11.907   7.792
 1996POPC   C4A29478   2.729  11.797   7.321
 1996POPC   C1B29479   2.617  12.426   8.804
 1996POPC   C2B29480   2.768  12.467   8.368
 1996POPC   C3B29481   2.728  12.455   7.905
 1996POPC   C4B29482   2.531  12.727   7.539
 1997POPC   NC329483  20.428  43.629   9.457
 1997POPC   PO429484  20.999  44.093   9.579
 1997POPC   GL129485  20.769  43.929   9.219
 1997POPC   GL229486  20.443  44.086   9.202
 1997POPC   C1A29487  20.882  43.762   8.789
 1997POPC   D2A29488  20.663  43.548   8.436
 1997POPC   C3A29489  20.793  43.652   8.016
 1997POPC   C4A29490  20.890  43.986   7.748
 1997POPC   C1B29491  20.383  43.849   8.791
 1997POPC   C2B29492  20.242  43.823   8.338
 1997POPC   C3B29493  20.360  43.887   7.866
 1997POPC   C4B29494  20.260  44.003   7.414
 1998POPC   NC329495  14.481   2.258   9.403
 1998POPC   PO429496  14.391   2.934   9.444
 1998POPC   GL129497  14.404   2.997   9.028
 1998POPC   GL229498  14.176   2.713   8.989
 1998POPC   C1A29499  14.467   2.944   8.598
 1998POPC   D2A29500  14.660   2.947   8.204
 1998POPC   C3A29501  14.366   2.952   7.857
 1998POPC   C4A29502  14.107   2.567   7.676
 1998POPC   C1B29503  14.273   2.425   8.728
 1998POPC   C2B29504  14.495   2.376   8.397
 1998POPC   C3B29505  14.441   2.497   8.041
 1998POPC   C4B29506  14.612   2.414   7.662
 1999POPC   NC329507  38.284  30.432   9.681
 1999POPC   PO429508  38.694  30.965   9.734
 1999POPC   GL129509  38.528  30.783   9.313
 1999POPC   GL229510  38.216  30.694   9.178
 1999POPC   C1A29511  38.506  30.895   8.837
 1999POPC   D2A29512  38.573  30.694   8.441
 1999POPC   C3A29513  38.454  30.848   8.067
 1999POPC   C4A29514  38.554  30.781   7.678
 1999POPC   C1B29515  38.253  30.427   8.747
 1999POPC   C2B29516  38.203  30.306   8.302
 1999POPC   C3B29517  38.049  30.553   7.934
 1999POPC   C4B29518  38.041  30.548   7.477
 2000POPC   NC329519  34.950  34.585   9.153
 2000POPC   PO429520  35.252  34.848   9.678
 2000POPC   GL129521  35.461  34.704   9.260
 2000POPC   GL229522  35.726  34.943   9.126
 2000POPC   C1A29523  35.560  34.371   8.921
 2000POPC   D2A29524  35.423  34.389   8.473
 2000POPC   C3A29525  35.523  34.076   8.144
 2000POPC   C4A29526  35.430  34.136   7.711
 2000POPC   C1B29527  35.449  34.866   8.766
 2000POPC   C2B29528  35.069  34.930   8.492
 2000POPC   C3B29529  35.093  34.717   8.107
 2000POPC   C4B29530  35.518  34.571   7.970
 2001POPC   NC329531   2.621   1.543   9.637
 2001POPC   PO429532   2.503   0.938   9.470
 2001POPC   GL129533   2.684   1.233   9.183
 2001POPC   GL229534   2.891   1.526   9.199
 2001POPC   C1A29535   2.771   1.122   8.763
 2001POPC   D2A29536   2.610   1.327   8.432
 2001POPC   C3A29537   2.747   1.228   8.025
 2001POPC   C4A29538   2.465   1.319   7.710
 2001POPC   C1B29539   3.131   1.481   8.805
 2001POPC   C2B29540   3.045   1.568   8.375
 2001POPC   C3B29541   3.212   1.486   7.990
 2001POPC   C4B29542   3.034   1.283   7.580
 2002POPC   NC329543  29.416  40.247   9.792
 2002POPC   PO429544  29.066  40.754   9.447
 2002POPC   GL129545  29.175  40.738   9.072
 2002POPC   GL229546  29.440  40.944   9.087
 2002POPC   C1A29547  29.233  40.598   8.677
 2002POPC   D2A29548  29.388  40.807   8.319
 2002POPC   C3A29549  29.030  40.816   8.043
 2002POPC   C4A29550  28.967  40.580   7.662
 2002POPC   C1B29551  29.566  41.237   8.763
 2002POPC   C2B29552  29.701  41.225   8.319
 2002POPC   C3B29553  29.413  41.163   7.927
 2002POPC   C4B29554  29.317  41.089   7.422
 2003POPC   NC329555   0.958  40.444   9.881
 2003POPC   PO429556   0.919  39.859   9.501
 2003POPC   GL129557   1.155  39.770   9.089
 2003POPC   GL229558   0.989  39.990   8.843
 2003POPC   C1A29559   1.439  39.791   8.742
 2003POPC   D2A29560   1.161  39.793   8.404
 2003POPC   C3A29561   1.353  39.763   8.065
 2003POPC   C4A29562   1.373  39.978   7.709
 2003POPC   C1B29563   1.343  40.280   8.687
 2003POPC   C2B29564   1.454  40.231   8.246
 2003POPC   C3B29565   1.275  40.439   7.861
 2003POPC   C4B29566   1.187  40.340   7.385
 2004POPC   NC329567  37.299  18.005   9.729
 2004POPC   PO429568  37.982  18.161   9.542
 2004POPC   GL129569  37.728  18.299   9.193
 2004POPC   GL229570  37.376  18.229   9.196
 2004POPC   C1A29571  37.721  18.475   8.781
 2004POPC   D2A29572  37.510  18.389   8.390
 2004POPC   C3A29573  37.536  18.631   8.027
 2004POPC   C4A29574  37.925  18.615   7.784
 2004POPC   C1B29575  37.432  18.025   8.797
 2004POPC   C2B29576  37.374  17.901   8.361
 2004POPC   C3B29577  37.450  18.089   7.946
 2004POPC   C4B29578  37.421  17.883   7.564
 2005POPC   NC329579  44.871  18.892   9.682
 2005POPC   PO429580  44.351  19.201   9.363
 2005POPC   GL129581  44.718  19.259   9.075
 2005POPC   GL229582   0.005  19.513   9.130
 2005POPC   C1A29583  44.774  18.980   8.693
 2005POPC   D2A29584  44.562  18.858   8.272
 2005POPC   C3A29585  44.732  18.933   7.858
 2005POPC   C4A29586  44.580  19.279   7.623
 2005POPC   C1B29587   0.138  19.346   8.720
 2005POPC   C2B29588   0.071  19.175   8.305
 2005POPC   C3B29589   0.004  19.356   7.903
 2005POPC   C4B29590   0.162  19.167   7.531
 2006POPC   NC329591   8.726   0.220   9.594
 2006POPC   PO429592   9.261   0.656   9.512
 2006POPC   GL129593   8.960   0.498   9.224
 2006POPC   GL229594   8.758   0.723   9.085
 2006POPC   C1A29595   8.991   0.275   8.842
 2006POPC   D2A29596   9.131   0.363   8.434
 2006POPC   C3A29597   8.966   0.235   8.028
 2006POPC   C4A29598   8.938   0.374   7.603
 2006POPC   C1B29599   8.915   0.766   8.687
 2006POPC   C2B29600   8.815   0.891   8.303
 2006POPC   C3B29601   8.888   0.767   7.909
 2006POPC   C4B29602   8.701   0.801   7.493
 2007POPC   NC329603  32.041  36.963   9.599
 2007POPC   PO429604  32.653  36.777   9.398
 2007POPC   GL129605  32.297  36.849   9.140
 2007POPC   GL229606  32.084  37.164   9.146
 2007POPC   C1A29607  32.438  36.994   8.756
 2007POPC   D2A29608  32.570  37.042   8.350
 2007POPC   C3A29609  32.378  36.744   8.114
 2007POPC   C4A29610  32.480  36.618   7.740
 2007POPC   C1B29611  31.926  37.033   8.780
 2007POPC   C2B29612  32.052  37.004   8.406
 2007POPC   C3B29613  31.947  37.150   8.027
 2007POPC   C4B29614  32.111  36.978   7.709
 2008POPC   NC329615   7.925  13.711   9.586
 2008POPC   PO429616   8.440  13.379   9.721
 2008POPC   GL129617   8.237  13.424   9.265
 2008POPC   GL229618   8.201  13.771   9.167
 2008POPC   C1A29619   8.088  13.443   8.805
 2008POPC   D2A29620   8.030  13.617   8.368
 2008POPC   C3A29621   8.058  13.320   8.032
 2008POPC   C4A29622   8.200  13.366   7.624
 2008POPC   C1B29623   8.043  13.969   8.778
 2008POPC   C2B29624   8.021  14.171   8.422
 2008POPC   C3B29625   7.884  14.134   8.059
 2008POPC   C4B29626   8.020  13.788   7.868
 2009POPC   NC329627   3.978  36.462   9.497
 2009POPC   PO429628   4.645  36.272   9.476
 2009POPC   GL129629   4.344  36.183   9.148
 2009POPC   GL229630   3.991  36.042   9.079
 2009POPC   C1A29631   4.359  36.026   8.728
 2009POPC   D2A29632   4.627  36.101   8.391
 2009POPC   C3A29633   4.462  36.193   8.010
 2009POPC   C4A29634   4.499  36.529   7.765
 2009POPC   C1B29635   4.033  36.448   8.846
 2009POPC   C2B29636   4.232  36.484   8.435
 2009POPC   C3B29637   4.047  36.514   8.059
 2009POPC   C4B29638   4.040  36.279   7.709
 2010POPC   NC329639  21.813  39.922   9.482
 2010POPC   PO429640  21.163  40.236   9.497
 2010POPC   GL129641  21.413  40.148   9.173
 2010POPC   GL229642  21.478  39.800   9.091
 2010POPC   C1A29643  21.235  40.128   8.777
 2010POPC   D2A29644  21.326  40.192   8.377
 2010POPC   C3A29645  21.620  40.008   8.101
 2010POPC   C4A29646  21.366  39.966   7.735
 2010POPC   C1B29647  21.528  39.758   8.627
 2010POPC   C2B29648  21.267  39.679   8.249
 2010POPC   C3B29649  21.280  39.481   7.848
 2010POPC   C4B29650  21.440  39.567   7.424
 2011POPC   NC329651  27.439   6.347   9.588
 2011POPC   PO429652  27.974   6.843   9.478
 2011POPC   GL129653  27.785   6.652   9.126
 2011POPC   GL229654  27.452   6.575   9.123
 2011POPC   C1A29655  27.721   6.552   8.679
 2011POPC   D2A29656  27.621   6.332   8.283
 2011POPC   C3A29657  27.539   6.618   7.925
 2011POPC   C4A29658  27.472   6.969   7.688
 2011POPC   C1B29659  27.250   6.361   8.761
 2011POPC   C2B29660  27.065   6.445   8.372
 2011POPC   C3B29661  27.169   6.282   7.999
 2011POPC   C4B29662  27.423   6.194   7.655
 2012POPC   NC329663  15.499   6.387   9.541
 2012POPC   PO429664  14.909   6.240   9.466
 2012POPC   GL129665  15.232   5.984   9.173
 2012POPC   GL229666  15.561   5.859   9.310
 2012POPC   C1A29667  15.236   5.826   8.700
 2012POPC   D2A29668  15.171   6.030   8.268
 2012POPC   C3A29669  15.032   5.797   7.878
 2012POPC   C4A29670  14.743   5.877   7.541
 2012POPC   C1B29671  15.679   5.976   8.882
 2012POPC   C2B29672  15.705   5.926   8.400
 2012POPC   C3B29673  15.553   5.920   7.960
 2012POPC   C4B29674  15.449   5.625   7.615
 2013POPC   NC329675  10.849  40.522   9.409
 2013POPC   PO429676  10.634  41.113   9.488
 2013POPC   GL129677  10.626  40.915   9.091
 2013POPC   GL229678  10.465  40.606   9.020
 2013POPC   C1A29679  10.705  40.888   8.648
 2013POPC   D2A29680  10.475  40.984   8.274
 2013POPC   C3A29681  10.716  40.787   7.964
 2013POPC   C4A29682  10.696  40.867   7.541
 2013POPC   C1B29683  10.225  40.690   8.650
 2013POPC   C2B29684  10.094  40.607   8.221
 2013POPC   C3B29685  10.233  40.763   7.820
 2013POPC   C4B29686  10.241  40.710   7.367
 2014POPC   NC329687   3.434  16.440   9.455
 2014POPC   PO429688   3.666  17.043   9.626
 2014POPC   GL129689   3.594  16.864   9.233
 2014POPC   GL229690   3.825  16.598   9.130
 2014POPC   C1A29691   3.421  16.701   8.843
 2014POPC   D2A29692   3.356  16.831   8.459
 2014POPC   C3A29693   3.257  16.554   8.199
 2014POPC   C4A29694   3.200  16.516   7.801
 2014POPC   C1B29695   3.877  16.533   8.724
 2014POPC   C2B29696   3.851  16.785   8.393
 2014POPC   C3B29697   3.786  16.678   7.986
 2014POPC   C4B29698   3.504  16.941   7.812
 2015POPC   NC329699  14.765  43.109   9.394
 2015POPC   PO429700  14.132  42.747   9.467
 2015POPC   GL129701  14.232  43.121   9.201
 2015POPC   GL229702  14.028  43.424   9.192
 2015POPC   C1A29703  14.498  43.153   8.825
 2015POPC   D2A29704  14.741  43.111   8.460
 2015POPC   C3A29705  14.487  42.984   8.118
 2015POPC   C4A29706  14.383  43.105   7.679
 2015POPC   C1B29707  14.223  43.604   8.827
 2015POPC   C2B29708  14.302  43.431   8.437
 2015POPC   C3B29709  14.150  43.373   8.058
 2015POPC   C4B29710  13.879  43.122   7.832
 2016POPC   NC329711  41.705  20.173   9.514
 2016POPC   PO429712  41.796  19.492   9.430
 2016POPC   GL129713  41.610  19.786   9.082
 2016POPC   GL229714  41.331  20.053   9.093
 2016POPC   C1A29715  41.409  19.709   8.643
 2016POPC   D2A29716  41.186  19.544   8.245
 2016POPC   C3A29717  41.398  19.709   7.865
 2016POPC   C4A29718  41.710  20.088   7.806
 2016POPC   C1B29719  41.064  20.075   8.705
 2016POPC   C2B29720  41.116  20.073   8.247
 2016POPC   C3B29721  41.165  20.161   7.815
 2016POPC   C4B29722  41.208  20.292   7.404
 2017POPC   NC329723   3.017  19.569   9.490
 2017POPC   PO429724   2.459  20.000   9.462
 2017POPC   GL129725   2.600  19.691   9.175
 2017POPC   GL229726   2.891  19.858   9.090
 2017POPC   C1A29727   2.449  19.658   8.746
 2017POPC   D2A29728   2.665  19.682   8.345
 2017POPC   C3A29729   2.447  19.611   7.923
 2017POPC   C4A29730   2.694  19.643   7.533
 2017POPC   C1B29731   2.769  20.076   8.716
 2017POPC   C2B29732   2.678  20.205   8.284
 2017POPC   C3B29733   2.763  19.996   7.890
 2017POPC   C4B29734   2.523  20.116   7.507
 2018POPC   NC329735  21.844   9.634   9.520
 2018POPC   PO429736  22.348  10.028   9.536
 2018POPC   GL129737  22.143   9.955   9.150
 2018POPC   GL229738  22.103   9.597   9.079
 2018POPC   C1A29739  22.001   9.980   8.727
 2018POPC   D2A29740  22.042  10.183   8.333
 2018POPC   C3A29741  22.082  10.010   7.912
 2018POPC   C4A29742  22.395   9.832   7.636
 2018POPC   C1B29743  21.938   9.489   8.662
 2018POPC   C2B29744  22.112   9.662   8.300
 2018POPC   C3B29745  22.177   9.473   7.919
 2018POPC   C4B29746  22.017   9.453   7.528
 2019POPC   NC329747   3.253  43.248   9.456
 2019POPC   PO429748   3.758  42.665   9.415
 2019POPC   GL129749   3.466  42.881   9.111
 2019POPC   GL229750   3.589  43.221   9.083
 2019POPC   C1A29751   3.520  43.034   8.653
 2019POPC   D2A29752   3.458  43.306   8.303
 2019POPC   C3A29753   3.596  43.083   7.945
 2019POPC   C4A29754   3.468  42.840   7.601
 2019POPC   C1B29755   3.796  43.506   8.747
 2019POPC   C2B29756   3.739  43.739   8.348
 2019POPC   C3B29757   3.735  43.584   7.912
 2019POPC   C4B29758   3.990  43.453   7.548
 2020POPC   NC329759   6.470  41.095   9.427
 2020POPC   PO429760   6.539  41.703   9.551
 2020POPC   GL129761   6.558  41.588   9.118
 2020POPC   GL229762   6.878  41.693   8.992
 2020POPC   C1A29763   6.448  41.741   8.690
 2020POPC   D2A29764   6.219  41.854   8.284
 2020POPC   C3A29765   6.312  41.566   7.946
 2020POPC   C4A29766   6.688  41.480   7.683
 2020POPC   C1B29767   7.051  41.436   8.646
 2020POPC   C2B29768   7.150  41.231   8.237
 2020POPC   C3B29769   7.099  41.170   7.782
 2020POPC   C4B29770   7.031  41.278   7.337
 2021POPC   NC329771  32.127  38.007   9.527
 2021POPC   PO429772  32.306  37.330   9.579
 2021POPC   GL129773  32.295  37.636   9.236
 2021POPC   GL229774  32.549  37.590   9.055
 2021POPC   C1A29775  32.312  37.960   8.856
 2021POPC   D2A29776  32.059  37.921   8.485
 2021POPC   C3A29777  32.212  37.890   8.050
 2021POPC   C4A29778  31.894  37.937   7.728
 2021POPC   C1B29779  32.228  37.462   8.760
 2021POPC   C2B29780  32.260  37.461   8.354
 2021POPC   C3B29781  32.401  37.387   7.981
 2021POPC   C4B29782  32.177  37.516   7.661
 2022POPC   NC329783  23.053  41.128   9.511
 2022POPC   PO429784  22.638  40.653   9.496
 2022POPC   GL129785  22.790  40.636   9.078
 2022POPC   GL229786  22.915  40.967   9.019
 2022POPC   C1A29787  22.772  40.500   8.618
 2022POPC   D2A29788  22.809  40.693   8.183
 2022POPC   C3A29789  22.929  40.465   7.849
 2022POPC   C4A29790  23.224  40.332   7.535
 2022POPC   C1B29791  22.889  41.013   8.569
 2022POPC   C2B29792  23.168  41.054   8.199
 2022POPC   C3B29793  23.102  40.951   7.768
 2022POPC   C4B29794  23.242  41.175   7.401
 2023POPC   NC329795  29.766  31.708   9.477
 2023POPC   PO429796  29.712  32.355   9.505
 2023POPC   GL129797  29.883  32.313   9.097
 2023POPC   GL229798  29.860  31.975   9.074
 2023POPC   C1A29799  30.000  32.202   8.658
 2023POPC   D2A29800  30.269  32.410   8.402
 2023POPC   C3A29801  30.096  32.293   8.026
 2023POPC   C4A29802  30.035  32.474   7.608
 2023POPC   C1B29803  29.664  31.767   8.724
 2023POPC   C2B29804  29.933  31.675   8.363
 2023POPC   C3B29805  30.289  31.803   8.081
 2023POPC   C4B29806  30.063  31.916   7.699
 2024POPC   NC329807  39.006  34.293   9.303
 2024POPC   PO429808  39.243  34.924   9.428
 2024POPC   GL129809  39.355  34.674   9.103
 2024POPC   GL229810  39.492  34.947   8.960
 2024POPC   C1A29811  39.326  34.402   8.738
 2024POPC   D2A29812  39.611  34.199   8.452
 2024POPC   C3A29813  39.514  34.461   8.138
 2024POPC   C4A29814  39.148  34.398   7.860
 2024POPC   C1B29815  39.206  34.910   8.640
 2024POPC   C2B29816  39.046  34.674   8.312
 2024POPC   C3B29817  38.802  34.767   7.962
 2024POPC   C4B29818  38.945  34.756   7.543
 2025POPC   NC329819  25.962   1.880   9.662
 2025POPC   PO429820  26.402   2.395   9.540
 2025POPC   GL129821  26.287   2.019   9.217
 2025POPC   GL229822  25.955   1.835   9.162
 2025POPC   C1A29823  26.201   2.010   8.739
 2025POPC   D2A29824  26.381   1.988   8.307
 2025POPC   C3A29825  26.178   2.082   7.877
 2025POPC   C4A29826  26.332   1.996   7.452
 2025POPC   C1B29827  25.713   1.874   8.770
 2025POPC   C2B29828  25.855   1.873   8.339
 2025POPC   C3B29829  25.699   1.843   7.907
 2025POPC   C4B29830  25.812   1.978   7.461
 2026POPC   NC329831   8.772  35.396   9.377
 2026POPC   PO429832   9.265  35.031   9.556
 2026POPC   GL129833   9.187  35.231   9.159
 2026POPC   GL229834   9.252  35.560   9.172
 2026POPC   C1A29835   8.959  35.364   8.759
 2026POPC   D2A29836   8.832  35.535   8.355
 2026POPC   C3A29837   8.929  35.244   8.031
 2026POPC   C4A29838   9.288  35.225   7.722
 2026POPC   C1B29839   9.339  35.707   8.816
 2026POPC   C2B29840   9.369  35.504   8.457
 2026POPC   C3B29841   9.259  35.635   8.056
 2026POPC   C4B29842   9.308  35.935   7.745
 2027POPC   NC329843  38.842  23.869   9.373
 2027POPC   PO429844  38.303  23.493   9.406
 2027POPC   GL129845  38.474  23.597   9.082
 2027POPC   GL229846  38.761  23.368   9.120
 2027POPC   C1A29847  38.300  23.742   8.705
 2027POPC   D2A29848  38.042  23.713   8.357
 2027POPC   C3A29849  38.287  23.798   7.979
 2027POPC   C4A29850  38.366  23.565   7.622
 2027POPC   C1B29851  38.807  23.559   8.712
 2027POPC   C2B29852  38.606  23.558   8.316
 2027POPC   C3B29853  38.778  23.447   7.913
 2027POPC   C4B29854  38.803  23.342   7.444
 2028POPC   NC329855   7.006  14.768   9.409
 2028POPC   PO429856   7.137  14.061   9.341
 2028POPC   GL129857   7.262  14.269   8.979
 2028POPC   GL229858   7.560  14.466   9.092
 2028POPC   C1A29859   7.547  14.208   8.638
 2028POPC   D2A29860   7.437  14.378   8.261
 2028POPC   C3A29861   7.416  14.134   7.904
 2028POPC   C4A29862   7.622  13.941   7.619
 2028POPC   C1B29863   7.443  14.713   8.712
 2028POPC   C2B29864   7.464  14.889   8.277
 2028POPC   C3B29865   7.551  14.694   7.872
 2028POPC   C4B29866   7.621  14.430   7.510
 2029POPC   NC329867  23.269  38.309   9.823
 2029POPC   PO429868  22.956  38.666   9.536
 2029POPC   GL129869  23.075  38.454   9.147
 2029POPC   GL229870  22.886  38.157   9.090
 2029POPC   C1A29871  23.050  38.454   8.681
 2029POPC   D2A29872  22.753  38.512   8.326
 2029POPC   C3A29873  22.921  38.703   7.940
 2029POPC   C4A29874  23.283  38.542   7.714
 2029POPC   C1B29875  22.679  38.094   8.684
 2029POPC   C2B29876  22.638  38.007   8.243
 2029POPC   C3B29877  22.781  38.223   7.845
 2029POPC   C4B29878  22.725  38.528   7.482
 2030POPC   NC329879  24.773   1.274   9.370
 2030POPC   PO429880  24.272   0.845   9.608
 2030POPC   GL129881  24.414   0.922   9.159
 2030POPC   GL229882  24.732   0.869   9.018
 2030POPC   C1A29883  24.414   1.053   8.687
 2030POPC   D2A29884  24.667   0.974   8.305
 2030POPC   C3A29885  24.356   0.950   7.980
 2030POPC   C4A29886  24.217   1.318   7.708
 2030POPC   C1B29887  24.897   1.211   8.714
 2030POPC   C2B29888  24.914   1.444   8.312
 2030POPC   C3B29889  24.715   1.467   7.888
 2030POPC   C4B29890  24.672   1.112   7.640
 2031POPC   NC329891  43.004  44.163   9.542
 2031POPC   PO429892  42.844  43.602   9.197
 2031POPC   GL129893  43.024  43.999   9.057
 2031POPC   GL229894  43.390  44.057   9.156
 2031POPC   C1A29895  43.052  43.959   8.636
 2031POPC   D2A29896  43.113  43.530   8.423
 2031POPC   C3A29897  43.142  43.606   7.983
 2031POPC   C4A29898  42.947  43.942   7.784
 2031POPC   C1B29899  43.538  43.823   8.753
 2031POPC   C2B29900  43.435  43.919   8.302
 2031POPC   C3B29901  43.496  44.093   7.902
 2031POPC   C4B29902  43.393  43.863   7.532
 2032POPC   NC329903  29.457  15.097   9.556
 2032POPC   PO429904  28.815  15.123   9.621
 2032POPC   GL129905  29.002  15.169   9.239
 2032POPC   GL229906  29.151  14.866   9.198
 2032POPC   C1A29907  29.045  15.313   8.808
 2032POPC   D2A29908  29.119  15.536   8.422
 2032POPC   C3A29909  29.024  15.365   8.057
 2032POPC   C4A29910  29.059  15.441   7.650
 2032POPC   C1B29911  29.259  14.808   8.791
 2032POPC   C2B29912  29.234  15.033   8.402
 2032POPC   C3B29913  29.220  14.894   7.985
 2032POPC   C4B29914  29.506  14.609   7.812
 2033POPC   NC329915  22.150  30.780   9.454
 2033POPC   PO429916  22.399  30.223   9.776
 2033POPC   GL129917  22.273  30.302   9.255
 2033POPC   GL229918  21.954  30.411   9.138
 2033POPC   C1A29919  22.364  30.591   8.842
 2033POPC   D2A29920  22.516  30.578   8.371
 2033POPC   C3A29921  22.555  30.866   8.002
 2033POPC   C4A29922  22.883  31.176   7.958
 2033POPC   C1B29923  21.962  30.299   8.710
 2033POPC   C2B29924  21.983  30.489   8.307
 2033POPC   C3B29925  22.046  30.834   8.012
 2033POPC   C4B29926  21.871  30.837   7.585
 2034POPC   NC329927  28.062  31.622   9.399
 2034POPC   PO429928  28.447  31.096   9.696
 2034POPC   GL129929  28.551  31.368   9.265
 2034POPC   GL229930  28.291  31.388   9.007
 2034POPC   C1A29931  28.676  31.675   8.865
 2034POPC   D2A29932  28.586  31.547   8.464
 2034POPC   C3A29933  28.600  31.595   8.038
 2034POPC   C4A29934  28.353  31.344   7.772
 2034POPC   C1B29935  28.187  31.747   8.744
 2034POPC   C2B29936  28.208  31.916   8.337
 2034POPC   C3B29937  28.085  31.711   7.966
 2034POPC   C4B29938  27.937  31.741   7.552
 2035POPC   NC329939   4.017   1.857   9.389
 2035POPC   PO429940   4.425   2.444   9.497
 2035POPC   GL129941   4.176   2.264   9.140
 2035POPC   GL229942   4.265   1.928   8.964
 2035POPC   C1A29943   3.983   2.261   8.734
 2035POPC   D2A29944   4.276   2.008   8.444
 2035POPC   C3A29945   4.152   2.128   8.046
 2035POPC   C4A29946   4.076   2.308   7.670
 2035POPC   C1B29947   4.351   1.498   8.825
 2035POPC   C2B29948   4.536   1.474   8.422
 2035POPC   C3B29949   4.345   1.643   8.068
 2035POPC   C4B29950   4.435   1.868   7.690
 2036POPC   NC329951  13.682   0.964   9.414
 2036POPC   PO429952  13.299   1.478   9.514
 2036POPC   GL129953  13.293   1.174   9.183
 2036POPC   GL229954  13.555   1.400   9.056
 2036POPC   C1A29955  13.419   0.928   8.811
 2036POPC   D2A29956  13.685   1.082   8.489
 2036POPC   C3A29957  13.505   1.129   8.087
 2036POPC   C4A29958  13.726   1.110   7.714
 2036POPC   C1B29959  13.453   1.762   8.779
 2036POPC   C2B29960  13.401   1.571   8.378
 2036POPC   C3B29961  13.235   1.683   7.997
 2036POPC   C4B29962  13.431   1.510   7.642
 2037POPC   NC329963  28.834   5.640   9.511
 2037POPC   PO429964  29.365   6.085   9.624
 2037POPC   GL129965  29.082   5.984   9.209
 2037POPC   GL229966  29.080   5.633   9.083
 2037POPC   C1A29967  29.125   6.088   8.752
 2037POPC   D2A29968  28.957   6.218   8.316
 2037POPC   C3A29969  29.007   5.965   7.968
 2037POPC   C4A29970  29.301   5.937   7.606
 2037POPC   C1B29971  28.743   5.783   8.848
 2037POPC   C2B29972  28.877   5.732   8.457
 2037POPC   C3B29973  29.069   5.504   8.163
 2037POPC   C4B29974  29.098   5.490   7.758
 2038POPC   NC329975  39.708  34.960   9.424
 2038POPC   PO429976  40.065  34.330   9.339
 2038POPC   GL129977  39.882  34.648   9.045
 2038POPC   GL229978  40.108  34.925   8.840
 2038POPC   C1A29979  39.772  34.633   8.630
 2038POPC   D2A29980  40.087  34.731   8.339
 2038POPC   C3A29981  40.057  34.434   8.037
 2038POPC   C4A29982  39.786  34.389   7.725
 2038POPC   C1B29983  39.776  35.130   8.600
 2038POPC   C2B29984  39.586  34.974   8.287
 2038POPC   C3B29985  39.814  34.879   7.911
 2038POPC   C4B29986  39.819  34.900   7.457
 2039POPC   NC329987  21.522  23.160   9.615
 2039POPC   PO429988  21.188  22.640   9.488
 2039POPC   GL129989  21.550  22.900   9.179
 2039POPC   GL229990  21.661  23.283   9.152
 2039POPC   C1A29991  21.854  22.950   8.798
 2039POPC   D2A29992  21.843  22.735   8.368
 2039POPC   C3A29993  21.512  22.796   8.019
 2039POPC   C4A29994  21.141  22.546   7.839
 2039POPC   C1B29995  21.404  23.246   8.795
 2039POPC   C2B29996  21.206  23.305   8.370
 2039POPC   C3B29997  21.263  23.253   7.928
 2039POPC   C4B29998  21.609  23.285   7.694
 2040POPC   NC329999   6.216   2.793   9.505
 2040POPC   PO430000   5.535   2.697   9.605
 2040POPC   GL130001   5.815   2.546   9.295
 2040POPC   GL230002   5.738   2.830   9.151
 2040POPC   C1A30003   6.039   2.589   8.859
 2040POPC   D2A30004   6.182   2.792   8.472
 2040POPC   C3A30005   6.089   2.636   8.106
 2040POPC   C4A30006   5.917   2.855   7.804
 2040POPC   C1B30007   5.848   3.078   8.759
 2040POPC   C2B30008   6.132   3.297   8.468
 2040POPC   C3B30009   6.063   3.309   8.048
 2040POPC   C4B30010   6.257   3.247   7.652
 2041POPC   NC330011  15.421  12.316   9.320
 2041POPC   PO430012  15.235  11.856   9.751
 2041POPC   GL130013  15.032  11.990   9.294
 2041POPC   GL230014  15.287  11.958   9.006
 2041POPC   C1A30015  14.889  12.216   8.875
 2041POPC   D2A30016  15.012  12.003   8.499
 2041POPC   C3A30017  15.077  12.166   8.124
 2041POPC   C4A30018  14.905  12.243   7.732
 2041POPC   C1B30019  15.404  12.257   8.687
 2041POPC   C2B30020  15.448  12.498   8.341
 2041POPC   C3B30021  15.536  12.331   7.943
 2041POPC   C4B30022  15.430  11.980   7.778
 2042POPC   NC330023  44.436  41.880   9.299
 2042POPC   PO430024  44.998  41.661   9.658
 2042POPC   GL130025  44.883  41.616   9.238
 2042POPC   GL230026  44.903  41.936   9.089
 2042POPC   C1A30027  44.874  41.527   8.783
 2042POPC   D2A30028  44.571  41.610   8.467
 2042POPC   C3A30029  44.542  41.527   8.031
 2042POPC   C4A30030  44.472  41.782   7.658
 2042POPC   C1B30031  44.819  42.057   8.687
 2042POPC   C2B30032  44.861  42.229   8.278
 2042POPC   C3B30033  44.860  41.995   7.910
 2042POPC   C4B30034  44.963  41.566   7.747
 2043POPC   NC330035   6.337  15.665   9.273
 2043POPC   PO430036   6.780  15.235   9.530
 2043POPC   GL130037   6.583  14.981   9.219
 2043POPC   GL230038   6.598  15.273   9.022
 2043POPC   C1A30039   6.410  14.827   8.824
 2043POPC   D2A30040   6.515  14.996   8.405
 2043POPC   C3A30041   6.395  14.814   7.980
 2043POPC   C4A30042   6.311  15.041   7.562
 2043POPC   C1B30043   6.823  15.362   8.668
 2043POPC   C2B30044   6.939  15.207   8.260
 2043POPC   C3B30045   6.757  15.186   7.864
 2043POPC   C4B30046   6.978  15.247   7.477
 2044POPC   NC330047  41.687   6.420   9.423
 2044POPC   PO430048  41.269   6.927   9.348
 2044POPC   GL130049  41.542   6.737   9.071
 2044POPC   GL230050  41.929   6.787   9.119
 2044POPC   C1A30051  41.412   6.562   8.710
 2044POPC   D2A30052  41.513   6.397   8.340
 2044POPC   C3A30053  41.388   6.594   7.997
 2044POPC   C4A30054  41.615   6.505   7.646
 2044POPC   C1B30055  41.742   7.063   8.771
 2044POPC   C2B30056  41.662   6.875   8.383
 2044POPC   C3B30057  41.837   6.857   7.993
 2044POPC   C4B30058  41.577   7.058   7.709
 2045POPC   NC330059  32.880   5.308   9.613
 2045POPC   PO430060  33.413   4.956   9.693
 2045POPC   GL130061  33.040   4.945   9.316
 2045POPC   GL230062  33.011   5.277   9.142
 2045POPC   C1A30063  32.925   4.884   8.832
 2045POPC   D2A30064  33.066   5.026   8.389
 2045POPC   C3A30065  33.214   4.874   7.967
 2045POPC   C4A30066  33.276   5.001   7.523
 2045POPC   C1B30067  33.122   5.379   8.766
 2045POPC   C2B30068  32.982   5.526   8.375
 2045POPC   C3B30069  33.061   5.378   7.952
 2045POPC   C4B30070  33.177   5.553   7.562
 2046POPC   NC330071  37.697  34.822   9.726
 2046POPC   PO430072  37.955  35.246   9.318
 2046POPC   GL130073  37.796  35.501   8.992
 2046POPC   GL230074  37.422  35.522   8.961
 2046POPC   C1A30075  37.832  35.504   8.568
 2046POPC   D2A30076  38.032  35.150   8.335
 2046POPC   C3A30077  38.046  35.275   7.908
 2046POPC   C4A30078  37.788  35.453   7.604
 2046POPC   C1B30079  37.464  35.172   8.699
 2046POPC   C2B30080  37.507  35.238   8.249
 2046POPC   C3B30081  37.346  35.452   7.862
 2046POPC   C4B30082  37.360  35.245   7.418
 2047POPC   NC330083  32.215  39.894   9.568
 2047POPC   PO430084  32.844  39.758   9.414
 2047POPC   GL130085  32.452  39.869   9.115
 2047POPC   GL230086  32.093  40.095   9.111
 2047POPC   C1A30087  32.362  39.973   8.682
 2047POPC   D2A30088  32.236  40.076   8.277
 2047POPC   C3A30089  32.331  39.849   7.896
 2047POPC   C4A30090  32.237  40.136   7.557
 2047POPC   C1B30091  32.078  40.405   8.751
 2047POPC   C2B30092  31.858  40.415   8.349
 2047POPC   C3B30093  31.953  40.345   7.907
 2047POPC   C4B30094  31.877  40.455   7.412
 2048POPC   NC330095  33.035   2.113   9.546
 2048POPC   PO430096  33.459   2.173   9.080
 2048POPC   GL130097  33.037   2.330   9.052
 2048POPC   GL230098  32.762   2.108   9.128
 2048POPC   C1A30099  32.868   2.234   8.652
 2048POPC   D2A30100  32.757   1.981   8.358
 2048POPC   C3A30101  32.839   2.117   8.019
 2048POPC   C4A30102  33.080   2.180   7.668
 2048POPC   C1B30103  32.959   1.777   8.875
 2048POPC   C2B30104  33.210   1.798   8.490
 2048POPC   C3B30105  33.289   1.897   8.065
 2048POPC   C4B30106  33.207   1.688   7.699
 2049POPC   NC330107  16.669  39.670   9.556
 2049POPC   PO430108  17.060  40.242   9.554
 2049POPC   GL130109  16.864  40.000   9.180
 2049POPC   GL230110  16.599  40.235   9.008
 2049POPC   C1A30111  16.603  39.766   8.842
 2049POPC   D2A30112  16.461  40.047   8.506
 2049POPC   C3A30113  16.551  39.986   8.074
 2049POPC   C4A30114  16.552  40.222   7.683
 2049POPC   C1B30115  16.928  40.160   8.670
 2049POPC   C2B30116  17.156  40.397   8.379
 2049POPC   C3B30117  17.030  40.256   7.996
 2049POPC   C4B30118  16.992  39.835   7.852
 2050POPC   NC330119  38.496   8.574   9.165
 2050POPC   PO430120  38.638   9.152   9.506
 2050POPC   GL130121  38.452   9.221   9.140
 2050POPC   GL230122  38.140   9.058   9.179
 2050POPC   C1A30123  38.613   9.157   8.731
 2050POPC   D2A30124  38.796   8.961   8.373
 2050POPC   C3A30125  38.659   9.088   7.964
 2050POPC   C4A30126  38.653   8.875   7.556
 2050POPC   C1B30127  38.169   8.882   8.744
 2050POPC   C2B30128  38.279   8.999   8.343
 2050POPC   C3B30129  38.155   8.830   7.969
 2050POPC   C4B30130  37.784   8.685   7.726
 2051POPC   NC330131  18.469  30.567   9.615
 2051POPC   PO430132  18.060  31.120   9.570
 2051POPC   GL130133  18.203  30.783   9.217
 2051POPC   GL230134  18.455  30.459   9.140
 2051POPC   C1A30135  18.227  30.706   8.763
 2051POPC   D2A30136  18.060  30.849   8.385
 2051POPC   C3A30137  18.231  30.659   7.974
 2051POPC   C4A30138  18.041  30.850   7.600
 2051POPC   C1B30139  18.380  30.202   8.788
 2051POPC   C2B30140  18.468  30.260   8.343
 2051POPC   C3B30141  18.710  30.408   7.970
 2051POPC   C4B30142  18.509  30.503   7.533
 2052POPC   NC330143  19.122  31.517   9.511
 2052POPC   PO430144  18.744  30.932   9.416
 2052POPC   GL130145  18.885  31.309   9.087
 2052POPC   GL230146  19.118  31.640   9.035
 2052POPC   C1A30147  19.070  31.315   8.659
 2052POPC   D2A30148  19.126  31.196   8.241
 2052POPC   C3A30149  18.844  31.381   7.923
 2052POPC   C4A30150  18.986  31.345   7.531
 2052POPC   C1B30151  18.842  31.783   8.701
 2052POPC   C2B30152  18.909  31.750   8.262
 2052POPC   C3B30153  19.144  31.805   7.867
 2052POPC   C4B30154  19.132  31.809   7.389
 2053POPC   NC330155  26.576  35.816   9.562
 2053POPC   PO430156  27.212  35.768   9.568
 2053POPC   GL130157  27.136  36.004   9.163
 2053POPC   GL230158  26.770  36.103   9.104
 2053POPC   C1A30159  27.183  36.127   8.710
 2053POPC   D2A30160  26.870  36.160   8.349
 2053POPC   C3A30161  26.915  36.042   7.907
 2053POPC   C4A30162  26.797  35.725   7.573
 2053POPC   C1B30163  26.765  36.449   8.772
 2053POPC   C2B30164  26.625  36.608   8.342
 2053POPC   C3B30165  26.566  36.481   7.902
 2053POPC   C4B30166  26.611  36.725   7.508
 2054POPC   NC330167  40.277  15.540   9.437
 2054POPC   PO430168  39.790  14.959   9.412
 2054POPC   GL130169  39.929  15.303   9.135
 2054POPC   GL230170  39.650  15.461   8.984
 2054POPC   C1A30171  40.116  15.469   8.719
 2054POPC   D2A30172  40.012  15.676   8.281
 2054POPC   C3A30173  40.226  15.544   7.898
 2054POPC   C4A30174  40.180  15.141   7.691
 2054POPC   C1B30175  39.726  15.111   8.696
 2054POPC   C2B30176  39.518  15.158   8.291
 2054POPC   C3B30177  39.705  15.211   7.905
 2054POPC   C4B30178  39.649  14.936   7.546
 2055POPC   NC330179  15.446   2.164   9.433
 2055POPC   PO430180  14.958   1.610   9.584
 2055POPC   GL130181  15.219   1.744   9.223
 2055POPC   GL230182  15.563   1.695   9.255
 2055POPC   C1A30183  15.177   1.995   8.835
 2055POPC   D2A30184  15.339   1.941   8.423
 2055POPC   C3A30185  15.138   1.880   8.031
 2055POPC   C4A30186  15.047   2.172   7.697
 2055POPC   C1B30187  15.476   1.578   8.805
 2055POPC   C2B30188  15.541   1.466   8.358
 2055POPC   C3B30189  15.627   1.754   8.015
 2055POPC   C4B30190  15.647   1.752   7.536
 2056POPC   NC330191  19.935   0.141   9.509
 2056POPC   PO430192  19.703   0.795   9.577
 2056POPC   GL130193  19.758   0.599   9.188
 2056POPC   GL230194  19.584   0.277   9.097
 2056POPC   C1A30195  19.898   0.542   8.782
 2056POPC   D2A30196  19.832   0.721   8.364
 2056POPC   C3A30197  19.617   0.585   7.988
 2056POPC   C4A30198  19.905   0.587   7.608
 2056POPC   C1B30199  19.763   0.033   8.760
 2056POPC   C2B30200  19.965   0.219   8.397
 2056POPC   C3B30201  19.981   0.229   7.963
 2056POPC   C4B30202  19.618   0.188   7.654
 2057POPC   NC330203   3.271  11.307   9.542
 2057POPC   PO430204   3.888  11.366   9.445
 2057POPC   GL130205   3.611  11.284   9.138
 2057POPC   GL230206   3.722  10.994   9.111
 2057POPC   C1A30207   3.658  11.380   8.698
 2057POPC   D2A30208   3.859  11.572   8.321
 2057POPC   C3A30209   3.649  11.517   7.951
 2057POPC   C4A30210   3.416  11.202   7.734
 2057POPC   C1B30211   3.772  10.856   8.687
 2057POPC   C2B30212   3.608  10.968   8.280
 2057POPC   C3B30213   3.560  10.732   7.892
 2057POPC   C4B30214   3.704  10.831   7.494
 2058POPC   NC330215  15.956  13.074   9.470
 2058POPC   PO430216  15.678  12.417   9.683
 2058POPC   GL130217  15.846  12.594   9.236
 2058POPC   GL230218  16.181  12.647   9.090
 2058POPC   C1A30219  15.813  12.564   8.753
 2058POPC   D2A30220  15.823  12.837   8.391
 2058POPC   C3A30221  15.934  12.599   8.093
 2058POPC   C4A30222  15.849  12.647   7.710
 2058POPC   C1B30223  16.084  12.996   8.802
 2058POPC   C2B30224  16.196  13.187   8.381
 2058POPC   C3B30225  16.022  13.123   7.937
 2058POPC   C4B30226  16.205  12.952   7.533
 2059POPC   NC330227  31.168  19.747   9.466
 2059POPC   PO430228  30.514  19.777   9.568
 2059POPC   GL130229  30.770  19.606   9.196
 2059POPC   GL230230  30.644  19.500   8.918
 2059POPC   C1A30231  31.092  19.745   8.835
 2059POPC   D2A30232  31.222  19.876   8.440
 2059POPC   C3A30233  30.853  19.913   8.215
 2059POPC   C4A30234  30.649  19.715   7.883
 2059POPC   C1B30235  30.618  19.918   8.746
 2059POPC   C2B30236  30.508  20.259   8.460
 2059POPC   C3B30237  30.346  20.238   8.036
 2059POPC   C4B30238  30.393  20.080   7.614
 2060POPC   NC330239  27.379   0.238   9.470
 2060POPC   PO430240  28.002   0.576   9.389
 2060POPC   GL130241  27.716   0.383   9.107
 2060POPC   GL230242  27.367   0.487   9.041
 2060POPC   C1A30243  27.640   0.258   8.685
 2060POPC   D2A30244  27.781   0.055   8.339
 2060POPC   C3A30245  27.743   0.369   8.038
 2060POPC   C4A30246  27.949   0.427   7.656
 2060POPC   C1B30247  27.175   0.124   8.837
 2060POPC   C2B30248  27.175   0.231   8.391
 2060POPC   C3B30249  27.357   0.000   8.060
 2060POPC   C4B30250  27.619  44.998   7.725
 2061POPC   NC330251  29.129  36.437   9.490
 2061POPC   PO430252  28.527  36.290   9.410
 2061POPC   GL130253  28.931  36.215   9.090
 2061POPC   GL230254  29.326  36.202   9.079
 2061POPC   C1A30255  29.138  36.360   8.655
 2061POPC   D2A30256  29.332  36.211   8.255
 2061POPC   C3A30257  29.086  36.286   7.878
 2061POPC   C4A30258  29.005  36.334   7.419
 2061POPC   C1B30259  29.424  35.924   8.727
 2061POPC   C2B30260  29.197  35.722   8.399
 2061POPC   C3B30261  29.037  35.757   7.988
 2061POPC   C4B30262  29.177  35.888   7.559
 2062POPC   NC330263   6.086  33.870   9.571
 2062POPC   PO430264   6.051  33.277   9.267
 2062POPC   GL130265   5.934  33.728   9.102
 2062POPC   GL230266   6.173  34.044   9.097
 2062POPC   C1A30267   5.873  33.966   8.696
 2062POPC   D2A30268   5.850  34.264   8.342
 2062POPC   C3A30269   5.816  34.047   7.969
 2062POPC   C4A30270   5.942  33.638   7.823
 2062POPC   C1B30271   6.394  33.995   8.676
 2062POPC   C2B30272   6.254  33.892   8.247
 2062POPC   C3B30273   6.307  34.041   7.823
 2062POPC   C4B30274   6.398  33.917   7.382
 2063POPC   NC330275  37.206  19.658   9.364
 2063POPC   PO430276  36.577  19.844   9.476
 2063POPC   GL130277  36.821  19.907   9.128
 2063POPC   GL230278  37.076  20.187   9.173
 2063POPC   C1A30279  36.939  19.600   8.793
 2063POPC   D2A30280  36.889  19.449   8.410
 2063POPC   C3A30281  36.771  19.745   8.119
 2063POPC   C4A30282  36.631  19.645   7.717
 2063POPC   C1B30283  37.049  20.096   8.713
 2063POPC   C2B30284  37.250  19.814   8.388
 2063POPC   C3B30285  37.226  19.720   7.935
 2063POPC   C4B30286  36.985  20.059   7.711
 2064POPC   NC330287   5.571  15.176   9.477
 2064POPC   PO430288   6.167  15.394   9.630
 2064POPC   GL130289   6.111  15.205   9.189
 2064POPC   GL230290   5.819  15.366   9.058
 2064POPC   C1A30291   6.177  15.271   8.700
 2064POPC   D2A30292   5.830  15.256   8.370
 2064POPC   C3A30293   5.864  15.041   7.951
 2064POPC   C4A30294   5.817  15.173   7.508
 2064POPC   C1B30295   5.775  14.976   8.800
 2064POPC   C2B30296   5.532  14.777   8.473
 2064POPC   C3B30297   5.362  14.939   8.078
 2064POPC   C4B30298   5.449  14.850   7.634
 2065POPC   NC330299  10.214  31.380   9.902
 2065POPC   PO430300   9.748  31.758   9.623
 2065POPC   GL130301   9.735  31.653   9.182
 2065POPC   GL230302   9.797  31.305   9.198
 2065POPC   C1A30303   9.501  31.627   8.776
 2065POPC   D2A30304   9.471  31.425   8.371
 2065POPC   C3A30305   9.556  31.688   8.019
 2065POPC   C4A30306   9.983  31.763   7.824
 2065POPC   C1B30307   9.639  31.122   8.789
 2065POPC   C2B30308   9.691  30.979   8.344
 2065POPC   C3B30309   9.561  31.144   7.921
 2065POPC   C4B30310   9.749  31.023   7.494
 2066POPC   NC330311  34.342  15.161   9.795
 2066POPC   PO430312  34.947  15.221   9.434
 2066POPC   GL130313  34.909  15.159   9.020
 2066POPC   GL230314  34.756  15.464   8.950
 2066POPC   C1A30315  34.626  15.010   8.704
 2066POPC   D2A30316  34.565  15.221   8.334
 2066POPC   C3A30317  34.726  15.042   7.996
 2066POPC   C4A30318  34.730  15.314   7.633
 2066POPC   C1B30319  34.344  15.473   8.731
 2066POPC   C2B30320  34.094  15.441   8.369
 2066POPC   C3B30321  34.187  15.503   7.931
 2066POPC   C4B30322  34.236  15.406   7.499
 2067POPC   NC330323  36.467  41.360   9.530
 2067POPC   PO430324  36.915  41.929   9.444
 2067POPC   GL130325  36.703  41.665   9.192
 2067POPC   GL230326  36.892  41.364   9.223
 2067POPC   C1A30327  36.690  41.591   8.787
 2067POPC   D2A30328  37.003  41.459   8.492
 2067POPC   C3A30329  36.824  41.461   8.097
 2067POPC   C4A30330  37.029  41.578   7.725
 2067POPC   C1B30331  36.633  41.124   8.934
 2067POPC   C2B30332  36.639  41.117   8.478
 2067POPC   C3B30333  36.626  40.975   8.027
 2067POPC   C4B30334  36.772  41.123   7.601
 2068POPC   NC330335   2.438  17.043   9.531
 2068POPC   PO430336   3.094  16.774   9.473
 2068POPC   GL130337   2.993  16.632   9.088
 2068POPC   GL230338   2.627  16.694   9.062
 2068POPC   C1A30339   2.970  16.501   8.679
 2068POPC   D2A30340   2.827  16.789   8.429
 2068POPC   C3A30341   2.679  16.666   8.037
 2068POPC   C4A30342   2.804  16.791   7.664
 2068POPC   C1B30343   2.515  17.044   8.763
 2068POPC   C2B30344   2.405  17.022   8.289
 2068POPC   C3B30345   2.518  17.170   7.857
 2068POPC   C4B30346   2.634  17.175   7.386
 2069POPC   NC330347  20.375  15.387   9.566
 2069POPC   PO430348  20.837  14.917   9.598
 2069POPC   GL130349  20.607  14.999   9.215
 2069POPC   GL230350  20.704  15.308   9.200
 2069POPC   C1A30351  20.637  14.872   8.787
 2069POPC   D2A30352  20.732  15.065   8.372
 2069POPC   C3A30353  20.473  14.790   8.044
 2069POPC   C4A30354  20.282  14.838   7.594
 2069POPC   C1B30355  20.511  15.369   8.826
 2069POPC   C2B30356  20.581  15.579   8.451
 2069POPC   C3B30357  20.509  15.500   8.047
 2069POPC   C4B30358  20.625  15.186   7.785
 2070POPC   NC330359  30.123  42.051   9.397
 2070POPC   PO430360  29.585  42.359   9.446
 2070POPC   GL130361  29.742  42.229   9.062
 2070POPC   GL230362  29.850  42.589   8.989
 2070POPC   C1A30363  30.009  42.095   8.711
 2070POPC   D2A30364  30.056  42.268   8.281
 2070POPC   C3A30365  29.755  42.151   7.970
 2070POPC   C4A30366  29.493  42.449   7.769
 2070POPC   C1B30367  30.241  42.574   8.719
 2070POPC   C2B30368  30.401  42.679   8.276
 2070POPC   C3B30369  30.192  42.557   7.846
 2070POPC   C4B30370  30.350  42.454   7.398
 2071POPC   NC330371  14.595  38.625   9.580
 2071POPC   PO430372  14.182  38.148   9.412
 2071POPC   GL130373  14.346  38.454   9.125
 2071POPC   GL230374  14.200  38.238   8.879
 2071POPC   C1A30375  14.436  38.815   8.822
 2071POPC   D2A30376  14.409  39.027   8.403
 2071POPC   C3A30377  14.283  38.779   8.054
 2071POPC   C4A30378  14.304  38.431   7.735
 2071POPC   C1B30379  14.615  38.332   8.699
 2071POPC   C2B30380  14.656  38.577   8.381
 2071POPC   C3B30381  14.732  38.548   7.976
 2071POPC   C4B30382  14.847  38.203   7.759
 2072POPC   NC330383  34.727  32.112   9.381
 2072POPC   PO430384  34.352  32.581   9.712
 2072POPC   GL130385  34.407  32.525   9.221
 2072POPC   GL230386  34.402  32.202   9.022
 2072POPC   C1A30387  34.652  32.581   8.792
 2072POPC   D2A30388  34.482  32.618   8.363
 2072POPC   C3A30389  34.599  32.469   7.966
 2072POPC   C4A30390  34.274  32.243   7.735
 2072POPC   C1B30391  34.635  32.049   8.693
 2072POPC   C2B30392  34.518  32.068   8.256
 2072POPC   C3B30393  34.662  31.951   7.840
 2072POPC   C4B30394  34.803  31.755   7.472
 2073POPC   NC330395  31.710  17.972   9.268
 2073POPC   PO430396  31.407  18.590   9.619
 2073POPC   GL130397  31.318  18.340   9.211
 2073POPC   GL230398  31.211  17.966   9.243
 2073POPC   C1A30399  31.474  18.485   8.770
 2073POPC   D2A30400  31.704  18.361   8.419
 2073POPC   C3A30401  31.650  18.427   7.995
 2073POPC   C4A30402  31.290  18.387   7.764
 2073POPC   C1B30403  31.211  18.062   8.764
 2073POPC   C2B30404  31.106  18.205   8.313
 2073POPC   C3B30405  31.091  17.951   7.899
 2073POPC   C4B30406  31.043  18.118   7.417
 2074POPC   NC330407  14.936  32.902   9.419
 2074POPC   PO430408  15.612  33.218   9.442
 2074POPC   GL130409  15.282  33.129   9.122
 2074POPC   GL230410  14.959  33.348   9.133
 2074POPC   C1A30411  15.001  32.971   8.772
 2074POPC   D2A30412  14.976  32.735   8.394
 2074POPC   C3A30413  15.386  32.723   8.229
 2074POPC   C4A30414  15.416  32.787   7.824
 2074POPC   C1B30415  15.194  33.448   8.726
 2074POPC   C2B30416  15.265  33.229   8.308
 2074POPC   C3B30417  15.178  33.268   7.862
 2074POPC   C4B30418  14.876  33.317   7.517
 2075POPC   NC330419  12.798  39.755   9.767
 2075POPC   PO430420  12.899  40.187   9.256
 2075POPC   GL130421  12.693  40.117   8.961
 2075POPC   GL230422  13.024  40.113   8.759
 2075POPC   C1A30423  12.543  40.123   8.605
 2075POPC   D2A30424  12.762  40.137   8.262
 2075POPC   C3A30425  12.457  40.109   7.975
 2075POPC   C4A30426  12.677  39.943   7.650
 2075POPC   C1B30427  13.230  39.688   8.727
 2075POPC   C2B30428  13.191  39.445   8.344
 2075POPC   C3B30429  13.015  39.661   8.002
 2075POPC   C4B30430  13.153  40.069   7.876
 2076POPC   NC330431   0.653   2.056   9.421
 2076POPC   PO430432   0.028   1.661   9.413
 2076POPC   GL130433   0.274   1.859   9.113
 2076POPC   GL230434   0.129   2.153   9.029
 2076POPC   C1A30435   0.515   1.964   8.732
 2076POPC   D2A30436   0.659   1.672   8.404
 2076POPC   C3A30437   0.739   1.818   7.997
 2076POPC   C4A30438   0.373   1.873   7.719
 2076POPC   C1B30439   0.128   2.374   8.698
 2076POPC   C2B30440   0.438   2.474   8.420
 2076POPC   C3B30441   0.470   2.259   8.054
 2076POPC   C4B30442   0.268   2.367   7.693
 2077POPC   NC330443  42.054   4.449   9.510
 2077POPC   PO430444  41.448   4.132   9.631
 2077POPC   GL130445  41.583   4.169   9.214
 2077POPC   GL230446  41.742   4.466   9.122
 2077POPC   C1A30447  41.434   4.232   8.791
 2077POPC   D2A30448  41.326   4.083   8.367
 2077POPC   C3A30449  41.532   4.287   8.037
 2077POPC   C4A30450  41.300   4.466   7.680
 2077POPC   C1B30451  42.017   4.588   8.780
 2077POPC   C2B30452  41.949   4.723   8.345
 2077POPC   C3B30453  42.096   4.781   7.930
 2077POPC   C4B30454  41.810   4.576   7.713
 2078POPC   NC330455  25.682  28.600   9.652
 2078POPC   PO430456  26.226  28.369   9.770
 2078POPC   GL130457  26.082  28.463   9.285
 2078POPC   GL230458  25.864  28.274   9.124
 2078POPC   C1A30459  26.243  28.538   8.798
 2078POPC   D2A30460  26.259  28.275   8.362
 2078POPC   C3A30461  26.125  28.368   7.914
 2078POPC   C4A30462  26.258  28.346   7.452
 2078POPC   C1B30463  25.916  28.167   8.733
 2078POPC   C2B30464  25.712  28.273   8.336
 2078POPC   C3B30465  25.610  28.459   7.932
 2078POPC   C4B30466  25.748  28.218   7.581
 2079POPC   NC330467  36.506  11.067   9.436
 2079POPC   PO430468  35.923  11.343   9.568
 2079POPC   GL130469  36.168  11.455   9.216
 2079POPC   GL230470  36.047  11.134   9.103
 2079POPC   C1A30471  36.321  11.369   8.775
 2079POPC   D2A30472  36.026  11.351   8.424
 2079POPC   C3A30473  36.175  11.230   8.042
 2079POPC   C4A30474  36.376  11.464   7.702
 2079POPC   C1B30475  36.031  10.917   8.686
 2079POPC   C2B30476  35.852  10.869   8.258
 2079POPC   C3B30477  35.912  10.826   7.798
 2079POPC   C4B30478  36.335  10.964   7.626
 2080POPC   NC330479  24.961   1.893   9.526
 2080POPC   PO430480  25.558   1.762   9.490
 2080POPC   GL130481  25.463   2.041   9.174
 2080POPC   GL230482  25.246   1.855   9.078
 2080POPC   C1A30483  25.296   2.186   8.719
 2080POPC   D2A30484  25.150   2.100   8.283
 2080POPC   C3A30485  25.311   2.159   7.869
 2080POPC   C4A30486  25.289   1.970   7.455
 2080POPC   C1B30487  25.228   1.631   8.702
 2080POPC   C2B30488  25.378   1.654   8.280
 2080POPC   C3B30489  25.206   1.640   7.867
 2080POPC   C4B30490  25.043   1.447   7.482
 2081POPC   NC330491   9.534  39.267   9.423
 2081POPC   PO430492  10.140  38.949   9.557
 2081POPC   GL130493   9.909  39.073   9.157
 2081POPC   GL230494   9.843  39.384   9.006
 2081POPC   C1A30495   9.731  38.922   8.777
 2081POPC   D2A30496   9.917  38.900   8.360
 2081POPC   C3A30497   9.987  39.343   8.276
 2081POPC   C4A30498   9.912  39.607   7.933
 2081POPC   C1B30499   9.492  39.392   8.732
 2081POPC   C2B30500   9.470  39.142   8.365
 2081POPC   C3B30501   9.642  39.143   7.973
 2081POPC   C4B30502   9.456  39.476   7.766
 2082POPC   NC330503  25.308  24.847   9.556
 2082POPC   PO430504  25.194  24.155   9.622
 2082POPC   GL130505  25.392  24.260   9.210
 2082POPC   GL230506  25.335  24.621   9.107
 2082POPC   C1A30507  25.476  24.303   8.742
 2082POPC   D2A30508  25.438  24.653   8.430
 2082POPC   C3A30509  25.460  24.487   8.013
 2082POPC   C4A30510  25.320  24.239   7.657
 2082POPC   C1B30511  25.037  24.847   8.803
 2082POPC   C2B30512  25.028  25.009   8.377
 2082POPC   C3B30513  24.988  24.782   8.005
 2082POPC   C4B30514  24.743  24.769   7.618
 2083POPC   NC330515  38.119  35.681   9.385
 2083POPC   PO430516  38.477  35.120   9.630
 2083POPC   GL130517  38.461  35.279   9.192
 2083POPC   GL230518  38.549  35.620   9.099
 2083POPC   C1A30519  38.462  35.208   8.738
 2083POPC   D2A30520  38.778  35.125   8.425
 2083POPC   C3A30521  38.608  35.236   8.016
 2083POPC   C4A30522  38.874  35.253   7.644
 2083POPC   C1B30523  38.347  35.721   8.709
 2083POPC   C2B30524  38.211  35.640   8.256
 2083POPC   C3B30525  38.382  35.668   7.823
 2083POPC   C4B30526  38.694  35.672   7.443
 2084POPC   NC330527  37.976   5.701   9.487
 2084POPC   PO430528  38.701   5.929   9.524
 2084POPC   GL130529  38.382   5.870   9.212
 2084POPC   GL230530  38.298   6.175   8.998
 2084POPC   C1A30531  38.478   5.650   8.840
 2084POPC   D2A30532  38.679   5.670   8.416
 2084POPC   C3A30533  38.474   5.870   8.066
 2084POPC   C4A30534  38.591   5.755   7.647
 2084POPC   C1B30535  38.207   6.011   8.586
 2084POPC   C2B30536  37.974   6.011   8.203
 2084POPC   C3B30537  37.986   5.783   7.810
 2084POPC   C4B30538  38.157   5.917   7.432
 2085POPC   NC330539  11.199  16.455   9.388
 2085POPC   PO430540  11.132  17.096   9.404
 2085POPC   GL130541  11.267  16.956   9.022
 2085POPC   GL230542  11.519  16.690   9.015
 2085POPC   C1A30543  11.564  17.123   8.720
 2085POPC   D2A30544  11.512  17.327   8.333
 2085POPC   C3A30545  11.479  17.060   7.964
 2085POPC   C4A30546  11.058  16.934   7.825
 2085POPC   C1B30547  11.167  16.633   8.653
 2085POPC   C2B30548  10.972  16.584   8.209
 2085POPC   C3B30549  11.109  16.415   7.799
 2085POPC   C4B30550  11.515  16.439   7.572
 2086POPC   NC330551  29.372   7.426   9.440
 2086POPC   PO430552  28.698   7.532   9.520
 2086POPC   GL130553  28.854   7.389   9.131
 2086POPC   GL230554  29.108   7.118   9.138
 2086POPC   C1A30555  29.098   7.546   8.787
 2086POPC   D2A30556  29.250   7.449   8.383
 2086POPC   C3A30557  29.281   7.697   8.049
 2086POPC   C4A30558  29.349   7.535   7.650
 2086POPC   C1B30559  29.283   7.035   8.745
 2086POPC   C2B30560  29.361   6.958   8.314
 2086POPC   C3B30561  29.151   7.141   7.926
 2086POPC   C4B30562  29.044   7.197   7.457
 2087POPC   NC330563  43.221  43.381   9.378
 2087POPC   PO430564  42.703  42.908   9.540
 2087POPC   GL130565  42.992  42.940   9.199
 2087POPC   GL230566  43.361  42.879   9.069
 2087POPC   C1A30567  42.943  43.087   8.784
 2087POPC   D2A30568  43.177  42.993   8.435
 2087POPC   C3A30569  42.977  43.112   8.054
 2087POPC   C4A30570  43.110  42.899   7.705
 2087POPC   C1B30571  43.572  43.216   8.814
 2087POPC   C2B30572  43.589  43.318   8.387
 2087POPC   C3B30573  43.492  43.115   8.015
 2087POPC   C4B30574  43.352  43.317   7.618
 2088POPC   NC330575  30.965  21.799   9.561
 2088POPC   PO430576  30.718  22.336   9.361
 2088POPC   GL130577  30.683  22.073   9.056
 2088POPC   GL230578  30.364  21.949   9.155
 2088POPC   C1A30579  30.789  22.157   8.623
 2088POPC   D2A30580  30.728  22.279   8.195
 2088POPC   C3A30581  30.892  22.177   7.835
 2088POPC   C4A30582  31.162  22.456   7.612
 2088POPC   C1B30583  30.293  22.218   8.752
 2088POPC   C2B30584  30.250  22.257   8.294
 2088POPC   C3B30585  30.357  22.363   7.854
 2088POPC   C4B30586  30.325  22.617   7.465
 2089POPC   NC330587  36.843  26.714   9.502
 2089POPC   PO430588  36.435  27.177   9.467
 2089POPC   GL130589  36.859  27.107   9.172
 2089POPC   GL230590  37.112  26.756   9.076
 2089POPC   C1A30591  37.080  27.135   8.774
 2089POPC   D2A30592  37.027  26.805   8.488
 2089POPC   C3A30593  37.067  26.897   8.091
 2089POPC   C4A30594  36.796  26.935   7.753
 2089POPC   C1B30595  37.289  26.457   8.732
 2089POPC   C2B30596  36.979  26.276   8.393
 2089POPC   C3B30597  36.966  26.410   7.909
 2089POPC   C4B30598  37.063  26.598   7.480
 2090POPC   NC330599  14.532  30.914   9.524
 2090POPC   PO430600  13.985  30.602   9.326
 2090POPC   GL130601  14.375  30.733   9.046
 2090POPC   GL230602  14.701  30.978   9.061
 2090POPC   C1A30603  14.466  30.829   8.594
 2090POPC   D2A30604  14.361  31.096   8.235
 2090POPC   C3A30605  14.229  30.843   7.876
 2090POPC   C4A30606  14.131  30.970   7.414
 2090POPC   C1B30607  14.850  30.611   8.849
 2090POPC   C2B30608  14.790  30.382   8.476
 2090POPC   C3B30609  14.670  30.588   8.102
 2090POPC   C4B30610  14.755  30.756   7.742
 2091POPC   NC330611   1.473  32.503   9.500
 2091POPC   PO430612   1.863  33.032   9.590
 2091POPC   GL130613   2.143  33.015   9.169
 2091POPC   GL230614   2.251  32.654   9.181
 2091POPC   C1A30615   2.174  33.179   8.757
 2091POPC   D2A30616   1.884  33.035   8.460
 2091POPC   C3A30617   2.040  33.064   8.061
 2091POPC   C4A30618   1.738  33.043   7.781
 2091POPC   C1B30619   1.900  32.668   8.896
 2091POPC   C2B30620   1.835  32.511   8.498
 2091POPC   C3B30621   1.645  32.646   8.132
 2091POPC   C4B30622   1.455  32.635   7.742
 2092POPC   NC330623  37.859  29.873   9.577
 2092POPC   PO430624  38.460  30.007   9.678
 2092POPC   GL130625  38.438  29.910   9.259
 2092POPC   GL230626  38.221  30.183   9.217
 2092POPC   C1A30627  38.354  29.914   8.794
 2092POPC   D2A30628  38.488  29.757   8.403
 2092POPC   C3A30629  38.385  29.892   8.003
 2092POPC   C4A30630  38.792  29.867   7.793
 2092POPC   C1B30631  38.650  30.301   9.001
 2092POPC   C2B30632  38.756  30.230   8.542
 2092POPC   C3B30633  38.679  30.334   8.085
 2092POPC   C4B30634  38.463  30.280   7.695
 2093POPC   NC330635  41.431   1.882   9.531
 2093POPC   PO430636  42.057   1.915   9.335
 2093POPC   GL130637  41.861   2.026   9.028
 2093POPC   GL230638  41.607   1.783   9.062
 2093POPC   C1A30639  41.844   2.127   8.612
 2093POPC   D2A30640  41.520   2.283   8.370
 2093POPC   C3A30641  41.463   2.078   7.978
 2093POPC   C4A30642  41.711   2.209   7.646
 2093POPC   C1B30643  41.731   1.621   8.657
 2093POPC   C2B30644  41.694   1.647   8.197
 2093POPC   C3B30645  41.509   1.577   7.793
 2093POPC   C4B30646  41.369   1.867   7.493
 2094POPC   NC330647   0.493   5.427   9.604
 2094POPC   PO430648   0.053   4.908   9.553
 2094POPC   GL130649   0.349   5.109   9.173
 2094POPC   GL230650   0.689   5.308   9.156
 2094POPC   C1A30651   0.237   5.235   8.748
 2094POPC   D2A30652   0.408   5.221   8.327
 2094POPC   C3A30653   0.252   5.319   7.899
 2094POPC   C4A30654   0.434   5.161   7.528
 2094POPC   C1B30655   0.714   5.050   8.774
 2094POPC   C2B30656   0.718   4.808   8.376
 2094POPC   C3B30657   0.605   4.770   7.904
 2094POPC   C4B30658   0.822   4.821   7.468
 2095POPC   NC330659   0.872  33.303   9.509
 2095POPC   PO430660   0.227  32.983   9.656
 2095POPC   GL130661   0.523  32.997   9.291
 2095POPC   GL230662   0.541  33.312   9.123
 2095POPC   C1A30663   0.573  32.920   8.796
 2095POPC   D2A30664   0.260  33.065   8.465
 2095POPC   C3A30665   0.186  32.799   8.085
 2095POPC   C4A30666   0.412  32.875   7.727
 2095POPC   C1B30667   0.599  33.466   8.717
 2095POPC   C2B30668   0.455  33.589   8.315
 2095POPC   C3B30669   0.437  33.286   8.026
 2095POPC   C4B30670   0.768  33.246   7.722
 2096POPC   NC330671  12.361  18.649   9.364
 2096POPC   PO430672  11.715  18.707   9.389
 2096POPC   GL130673  11.991  18.950   9.114
 2096POPC   GL230674  12.254  19.165   9.256
 2096POPC   C1A30675  12.051  18.978   8.669
 2096POPC   D2A30676  11.853  18.807   8.313
 2096POPC   C3A30677  12.124  18.926   7.985
 2096POPC   C4A30678  11.924  19.062   7.627
 2096POPC   C1B30679  12.459  19.211   8.853
 2096POPC   C2B30680  12.347  19.394   8.467
 2096POPC   C3B30681  12.477  19.371   8.029
 2096POPC   C4B30682  12.386  19.233   7.609
 2097POPC   NC330683  15.723  43.275   9.625
 2097POPC   PO430684  16.104  42.905   9.213
 2097POPC   GL130685  15.822  43.146   9.049
 2097POPC   GL230686  15.933  43.431   9.125
 2097POPC   C1A30687  15.617  43.171   8.689
 2097POPC   D2A30688  15.850  43.299   8.363
 2097POPC   C3A30689  15.650  43.337   8.000
 2097POPC   C4A30690  15.801  43.308   7.623
 2097POPC   C1B30691  16.220  43.370   8.763
 2097POPC   C2B30692  16.290  43.570   8.365
 2097POPC   C3B30693  16.211  43.393   7.957
 2097POPC   C4B30694  16.366  43.469   7.530
 2098POPC   NC330695  14.186   4.198   9.828
 2098POPC   PO430696  13.583   4.027   9.441
 2098POPC   GL130697  13.702   3.994   9.013
 2098POPC   GL230698  13.769   4.333   9.047
 2098POPC   C1A30699  13.907   4.059   8.610
 2098POPC   D2A30700  13.989   4.014   8.168
 2098POPC   C3A30701  13.728   4.215   7.856
 2098POPC   C4A30702  13.681   4.180   7.393
 2098POPC   C1B30703  13.709   4.548   8.683
 2098POPC   C2B30704  13.957   4.539   8.327
 2098POPC   C3B30705  13.931   4.700   7.898
 2098POPC   C4B30706  13.677   4.666   7.544
 2099POPC   NC330707  24.009   0.475   9.514
 2099POPC   PO430708  23.543   0.015   9.613
 2099POPC   GL130709  23.624   0.226   9.241
 2099POPC   GL230710  23.411   0.518   9.183
 2099POPC   C1A30711  23.859   0.338   8.883
 2099POPC   D2A30712  23.886   0.135   8.490
 2099POPC   C3A30713  23.936   0.360   8.120
 2099POPC   C4A30714  23.924   0.267   7.707
 2099POPC   C1B30715  23.368   0.337   8.755
 2099POPC   C2B30716  23.469   0.451   8.327
 2099POPC   C3B30717  23.466   0.464   7.867
 2099POPC   C4B30718  23.596   0.709   7.488
 2100POPC   NC330719  21.429  33.027   9.506
 2100POPC   PO430720  20.828  33.222   9.470
 2100POPC   GL130721  21.038  33.041   9.132
 2100POPC   GL230722  21.249  33.329   9.097
 2100POPC   C1A30723  21.101  32.781   8.765
 2100POPC   D2A30724  21.063  32.879   8.320
 2100POPC   C3A30725  21.416  32.811   8.007
 2100POPC   C4A30726  21.492  32.887   7.557
 2100POPC   C1B30727  21.445  33.177   8.713
 2100POPC   C2B30728  21.466  33.268   8.267
 2100POPC   C3B30729  21.662  33.264   7.862
 2100POPC   C4B30730  21.906  33.171   7.444
 2101POPC   NC330731  12.033  33.872   9.729
 2101POPC   PO430732  12.510  33.769   9.287
 2101POPC   GL130733  12.286  33.989   9.046
 2101POPC   GL230734  11.968  34.002   9.211
 2101POPC   C1A30735  12.330  34.035   8.602
 2101POPC   D2A30736  12.377  33.685   8.312
 2101POPC   C3A30737  12.220  33.785   7.902
 2101POPC   C4A30738  12.071  33.488   7.607
 2101POPC   C1B30739  11.845  33.957   8.786
 2101POPC   C2B30740  11.865  33.821   8.378
 2101POPC   C3B30741  11.733  33.955   8.009
 2101POPC   C4B30742  11.789  34.220   7.677
 2102POPC   NC330743   2.433  31.970   9.830
 2102POPC   PO430744   2.127  31.490   9.447
 2102POPC   GL130745   1.987  31.437   9.063
 2102POPC   GL230746   1.754  31.686   8.981
 2102POPC   C1A30747   2.103  31.439   8.645
 2102POPC   D2A30748   2.334  31.149   8.411
 2102POPC   C3A30749   2.156  31.262   8.068
 2102POPC   C4A30750   2.145  31.336   7.665
 2102POPC   C1B30751   1.607  31.292   8.759
 2102POPC   C2B30752   1.715  31.209   8.332
 2102POPC   C3B30753   1.683  31.347   7.889
 2102POPC   C4B30754   1.703  31.681   7.542
 2103POPC   NC330755  22.571  12.436   9.494
 2103POPC   PO430756  22.774  11.850   9.694
 2103POPC   GL130757  22.721  12.005   9.205
 2103POPC   GL230758  22.901  12.225   8.946
 2103POPC   C1A30759  22.664  11.850   8.748
 2103POPC   D2A30760  23.004  12.028   8.452
 2103POPC   C3A30761  22.904  11.955   8.003
 2103POPC   C4A30762  22.647  12.235   7.736
 2103POPC   C1B30763  23.295  12.383   8.773
 2103POPC   C2B30764  23.522  12.370   8.414
 2103POPC   C3B30765  23.290  12.315   8.044
 2103POPC   C4B30766  23.162  12.263   7.641
 2104POPC   NC330767   5.648  10.255   9.720
 2104POPC   PO430768   5.195  10.696   9.681
 2104POPC   GL130769   5.039  10.542   9.209
 2104POPC   GL230770   5.274  10.671   8.984
 2104POPC   C1A30771   4.968  10.272   8.764
 2104POPC   D2A30772   4.863  10.108   8.328
 2104POPC   C3A30773   5.254  10.179   8.092
 2104POPC   C4A30774   5.362  10.441   7.765
 2104POPC   C1B30775   4.982  10.758   8.656
 2104POPC   C2B30776   5.007  10.604   8.246
 2104POPC   C3B30777   4.966  10.795   7.859
 2104POPC   C4B30778   4.755  10.869   7.448
 2105POPC   NC330779  41.264  34.339   9.500
 2105POPC   PO430780  41.585  34.917   9.325
 2105POPC   GL130781  41.638  34.537   9.029
 2105POPC   GL230782  41.467  34.223   9.043
 2105POPC   C1A30783  41.735  34.545   8.593
 2105POPC   D2A30784  41.497  34.904   8.404
 2105POPC   C3A30785  41.607  34.896   7.972
 2105POPC   C4A30786  41.921  34.704   7.751
 2105POPC   C1B30787  41.246  34.400   8.698
 2105POPC   C2B30788  41.337  34.436   8.284
 2105POPC   C3B30789  41.653  34.369   8.043
 2105POPC   C4B30790  41.392  34.296   7.748
 2106POPC   NC330791  41.236   1.002   9.319
 2106POPC   PO430792  41.702   1.491   9.542
 2106POPC   GL130793  41.679   1.257   9.164
 2106POPC   GL230794  41.410   1.320   8.966
 2106POPC   C1A30795  41.798   1.116   8.749
 2106POPC   D2A30796  41.560   1.185   8.373
 2106POPC   C3A30797  41.716   1.136   7.953
 2106POPC   C4A30798  41.601   1.127   7.514
 2106POPC   C1B30799  41.168   1.048   8.683
 2106POPC   C2B30800  41.108   0.968   8.262
 2106POPC   C3B30801  41.208   1.141   7.892
 2106POPC   C4B30802  41.118   0.936   7.565
 2107POPC   NC330803  44.665  27.439   9.433
 2107POPC   PO430804   0.171  27.611   9.273
 2107POPC   GL130805  44.777  27.792   9.058
 2107POPC   GL230806  44.430  27.841   9.202
 2107POPC   C1A30807  44.552  27.670   8.675
 2107POPC   D2A30808  44.644  27.701   8.207
 2107POPC   C3A30809  44.482  27.383   7.940
 2107POPC   C4A30810  44.263  27.085   7.700
 2107POPC   C1B30811  44.205  28.015   8.834
 2107POPC   C2B30812  44.335  28.049   8.398
 2107POPC   C3B30813  44.183  27.883   8.001
 2107POPC   C4B30814  44.288  27.694   7.587
 2108POPC   NC330815  13.298  20.911   9.475
 2108POPC   PO430816  13.682  20.399   9.617
 2108POPC   GL130817  13.471  20.425   9.220
 2108POPC   GL230818  13.671  20.709   9.187
 2108POPC   C1A30819  13.572  20.288   8.774
 2108POPC   D2A30820  13.856  20.281   8.363
 2108POPC   C3A30821  13.709  20.275   7.900
 2108POPC   C4A30822  13.855  20.432   7.449
 2108POPC   C1B30823  13.642  20.862   8.817
 2108POPC   C2B30824  13.583  20.690   8.446
 2108POPC   C3B30825  13.764  20.765   8.080
 2108POPC   C4B30826  13.594  20.777   7.684
 2109POPC   NC330827  43.362  17.501   9.539
 2109POPC   PO430828  42.765  17.896   9.583
 2109POPC   GL130829  43.001  17.750   9.242
 2109POPC   GL230830  42.929  17.402   9.209
 2109POPC   C1A30831  43.043  17.714   8.804
 2109POPC   D2A30832  43.141  17.897   8.396
 2109POPC   C3A30833  43.148  17.632   8.037
 2109POPC   C4A30834  43.382  17.697   7.644
 2109POPC   C1B30835  42.834  17.236   8.816
 2109POPC   C2B30836  43.049  17.142   8.444
 2109POPC   C3B30837  43.028  17.048   8.026
 2109POPC   C4B30838  43.017  17.302   7.656
 2110POPC   NC330839  14.732   0.298   9.484
 2110POPC   PO430840  14.116   0.207   9.259
 2110POPC   GL130841  14.339   0.462   9.010
 2110POPC   GL230842  14.651   0.310   8.989
 2110POPC   C1A30843  14.401   0.458   8.563
 2110POPC   D2A30844  14.117   0.273   8.271
 2110POPC   C3A30845  14.193   0.341   7.865
 2110POPC   C4A30846  14.341   0.796   7.826
 2110POPC   C1B30847  14.847   0.127   8.646
 2110POPC   C2B30848  14.633   0.100   8.269
 2110POPC   C3B30849  14.656   0.433   8.018
 2110POPC   C4B30850  14.605   0.442   7.553
 2111POPC   NC330851  14.130  28.619   9.506
 2111POPC   PO430852  13.546  28.816   9.141
 2111POPC   GL130853  13.892  28.526   9.013
 2111POPC   GL230854  13.876  28.168   9.131
 2111POPC   C1A30855  13.992  28.316   8.616
 2111POPC   D2A30856  14.135  28.406   8.183
 2111POPC   C3A30857  13.851  28.396   7.854
 2111POPC   C4A30858  13.412  28.567   7.869
 2111POPC   C1B30859  13.591  28.070   8.811
 2111POPC   C2B30860  13.641  28.002   8.352
 2111POPC   C3B30861  13.458  28.062   7.923
 2111POPC   C4B30862  13.736  27.943   7.604
 2112POPC   NC330863  35.239  12.285   9.410
 2112POPC   PO430864  35.341  11.629   9.478
 2112POPC   GL130865  35.403  11.903   9.137
 2112POPC   GL230866  35.091  11.772   8.988
 2112POPC   C1A30867  35.270  12.184   8.771
 2112POPC   D2A30868  35.313  12.082   8.370
 2112POPC   C3A30869  35.329  12.323   8.034
 2112POPC   C4A30870  35.690  12.276   7.785
 2112POPC   C1B30871  35.466  11.693   8.699
 2112POPC   C2B30872  35.686  11.724   8.341
 2112POPC   C3B30873  35.496  11.829   7.956
 2112POPC   C4B30874  35.089  11.851   7.778
 2113POPC   NC330875  17.330  11.874   9.571
 2113POPC   PO430876  17.798  12.472   9.611
 2113POPC   GL130877  17.701  12.206   9.257
 2113POPC   GL230878  17.387  12.265   9.098
 2113POPC   C1A30879  17.774  12.004   8.852
 2113POPC   D2A30880  17.558  11.873   8.471
 2113POPC   C3A30881  17.583  12.107   8.092
 2113POPC   C4A30882  17.834  12.020   7.760
 2113POPC   C1B30883  17.330  11.795   8.926
 2113POPC   C2B30884  17.130  11.601   8.547
 2113POPC   C3B30885  17.139  11.776   8.119
 2113POPC   C4B30886  17.233  11.921   7.700
 2114POPC   NC330887  13.978  13.286   9.434
 2114POPC   PO430888  13.321  13.458   9.325
 2114POPC   GL130889  13.672  13.587   9.119
 2114POPC   GL230890  13.764  13.284   8.982
 2114POPC   C1A30891  13.663  13.717   8.709
 2114POPC   D2A30892  13.422  13.617   8.363
 2114POPC   C3A30893  13.600  13.903   8.123
 2114POPC   C4A30894  13.574  13.936   7.699
 2114POPC   C1B30895  14.078  13.417   8.706
 2114POPC   C2B30896  14.060  13.674   8.341
 2114POPC   C3B30897  13.917  13.542   7.946
 2114POPC   C4B30898  13.492  13.432   7.812
 2115POPC   NC330899  18.024   3.521   9.543
 2115POPC   PO430900  18.586   3.223   9.785
 2115POPC   GL130901  18.438   3.379   9.273
 2115POPC   GL230902  18.189   3.663   9.102
 2115POPC   C1A30903  18.392   3.338   8.778
 2115POPC   D2A30904  18.433   3.135   8.366
 2115POPC   C3A30905  18.551   3.417   8.069
 2115POPC   C4A30906  18.447   3.620   7.723
 2115POPC   C1B30907  17.961   3.699   8.720
 2115POPC   C2B30908  17.996   3.431   8.365
 2115POPC   C3B30909  18.008   3.483   7.931
 2115POPC   C4B30910  17.969   3.794   7.618
 2116POPC   NC330911   5.343  18.000   9.309
 2116POPC   PO430912   5.045  17.578   9.771
 2116POPC   GL130913   5.121  17.508   9.312
 2116POPC   GL230914   5.469  17.514   9.157
 2116POPC   C1A30915   4.955  17.540   8.877
 2116POPC   D2A30916   4.710  17.445   8.478
 2116POPC   C3A30917   4.895  17.567   8.054
 2116POPC   C4A30918   4.900  17.373   7.664
 2116POPC   C1B30919   5.448  17.577   8.684
 2116POPC   C2B30920   5.347  17.414   8.261
 2116POPC   C3B30921   5.378  17.475   7.794
 2116POPC   C4B30922   5.378  17.581   7.322
 2117POPC   NC330923  29.824  43.192   9.706
 2117POPC   PO430924  30.349  42.999   9.358
 2117POPC   GL130925  30.113  43.069   9.022
 2117POPC   GL230926  29.795  43.117   9.179
 2117POPC   C1A30927  30.177  43.057   8.592
 2117POPC   D2A30928  29.926  42.896   8.249
 2117POPC   C3A30929  30.112  43.099   7.905
 2117POPC   C4A30930  30.199  43.397   7.518
 2117POPC   C1B30931  29.653  43.045   8.744
 2117POPC   C2B30932  29.433  43.104   8.339
 2117POPC   C3B30933  29.604  43.275   7.957
 2117POPC   C4B30934  29.750  43.190   7.563
 2118POPC   NC330935  20.469  30.580   9.542
 2118POPC   PO430936  21.032  30.941   9.473
 2118POPC   GL130937  20.728  30.847   9.184
 2118POPC   GL230938  20.730  30.508   9.077
 2118POPC   C1A30939  20.615  30.918   8.765
 2118POPC   D2A30940  20.501  30.743   8.376
 2118POPC   C3A30941  20.678  30.655   7.963
 2118POPC   C4A30942  20.894  30.348   7.686
 2118POPC   C1B30943  20.524  30.323   8.740
 2118POPC   C2B30944  20.256  30.298   8.410
 2118POPC   C3B30945  20.178  30.499   8.045
 2118POPC   C4B30946  20.351  30.520   7.602
 2119POPC   NC330947  31.838  43.874   9.385
 2119POPC   PO430948  31.147  44.019   9.543
 2119POPC   GL130949  31.389  44.025   9.177
 2119POPC   GL230950  31.299  44.310   9.040
 2119POPC   C1A30951  31.538  43.850   8.787
 2119POPC   D2A30952  31.590  43.579   8.436
 2119POPC   C3A30953  31.452  43.783   8.079
 2119POPC   C4A30954  31.593  43.711   7.694
 2119POPC   C1B30955  31.675  44.352   8.810
 2119POPC   C2B30956  31.786  44.229   8.346
 2119POPC   C3B30957  31.648  44.207   7.880
 2119POPC   C4B30958  31.693  44.217   7.411
 2120POPC   NC330959  38.703  17.851   9.356
 2120POPC   PO430960  38.647  17.208   9.567
 2120POPC   GL130961  38.474  17.333   9.166
 2120POPC   GL230962  38.802  17.391   9.116
 2120POPC   C1A30963  38.411  17.374   8.705
 2120POPC   D2A30964  38.460  17.691   8.372
 2120POPC   C3A30965  38.303  17.540   7.968
 2120POPC   C4A30966  38.247  17.485   7.527
 2120POPC   C1B30967  38.844  17.619   8.768
 2120POPC   C2B30968  39.008  17.587   8.414
 2120POPC   C3B30969  38.817  17.555   8.017
 2120POPC   C4B30970  38.683  17.778   7.674
 2121POPC   NC330971  34.312   6.685   9.504
 2121POPC   PO430972  34.928   6.641   9.431
 2121POPC   GL130973  34.806   6.786   9.052
 2121POPC   GL230974  34.450   6.709   9.029
 2121POPC   C1A30975  34.677   6.898   8.640
 2121POPC   D2A30976  34.272   6.722   8.450
 2121POPC   C3A30977  34.190   6.885   8.050
 2121POPC   C4A30978  34.480   6.779   7.758
 2121POPC   C1B30979  34.553   6.411   8.739
 2121POPC   C2B30980  34.437   6.189   8.386
 2121POPC   C3B30981  34.372   6.336   7.988
 2121POPC   C4B30982  34.046   6.511   7.724
 2122POPC   NC330983  36.150   6.212   9.498
 2122POPC   PO430984  35.761   5.648   9.411
 2122POPC   GL130985  35.949   5.905   9.102
 2122POPC   GL230986  35.839   6.244   9.081
 2122POPC   C1A30987  35.958   5.859   8.655
 2122POPC   D2A30988  36.057   5.572   8.320
 2122POPC   C3A30989  36.219   5.718   7.949
 2122POPC   C4A30990  36.254   5.514   7.591
 2122POPC   C1B30991  36.254   6.224   8.842
 2122POPC   C2B30992  36.399   6.180   8.404
 2122POPC   C3B30993  36.589   6.094   8.002
 2122POPC   C4B30994  36.551   5.912   7.606
 2123POPC   NC330995  26.071  25.004   9.513
 2123POPC   PO430996  26.025  25.630   9.639
 2123POPC   GL130997  25.856  25.418   9.266
 2123POPC   GL230998  25.646  25.142   9.290
 2123POPC   C1A30999  25.982  25.196   8.865
 2123POPC   D2A31000  26.191  24.999   8.526
 2123POPC   C3A31001  26.143  25.198   8.119
 2123POPC   C4A31002  26.192  25.219   7.673
 2123POPC   C1B31003  25.494  25.053   8.891
 2123POPC   C2B31004  25.520  25.171   8.475
 2123POPC   C3B31005  25.440  25.035   8.063
 2123POPC   C4B31006  25.735  25.071   7.771
 2124POPC   NC331007  36.544  40.590   9.591
 2124POPC   PO431008  36.069  41.080   9.564
 2124POPC   GL131009  36.221  40.876   9.224
 2124POPC   GL231010  35.918  40.672   9.156
 2124POPC   C1A31011  36.297  40.784   8.791
 2124POPC   D2A31012  36.179  40.947   8.410
 2124POPC   C3A31013  36.156  40.675   8.101
 2124POPC   C4A31014  36.292  40.584   7.727
 2124POPC   C1B31015  35.850  41.007   8.865
 2124POPC   C2B31016  35.693  41.096   8.462
 2124POPC   C3B31017  35.856  41.115   8.059
 2124POPC   C4B31018  35.815  40.857   7.719
 2125POPC   NC331019  38.434  19.349   9.290
 2125POPC   PO431020  38.670  18.780   9.620
 2125POPC   GL131021  38.417  18.833   9.244
 2125POPC   GL231022  38.725  18.958   9.125
 2125POPC   C1A31023  38.279  18.913   8.790
 2125POPC   D2A31024  38.464  18.896   8.365
 2125POPC   C3A31025  38.367  19.120   7.981
 2125POPC   C4A31026  38.309  18.953   7.572
 2125POPC   C1B31027  38.702  19.200   8.730
 2125POPC   C2B31028  38.667  19.370   8.326
 2125POPC   C3B31029  38.867  19.281   7.924
 2125POPC   C4B31030  38.727  19.250   7.454
 2126POPC   NC331031  25.364  43.670   9.518
 2126POPC   PO431032  25.302  44.426   9.705
 2126POPC   GL131033  25.293  44.138   9.331
 2126POPC   GL231034  25.449  44.281   9.107
 2126POPC   C1A31035  25.157  43.865   8.922
 2126POPC   D2A31036  24.983  43.741   8.483
 2126POPC   C3A31037  25.302  43.641   8.143
 2126POPC   C4A31038  25.426  43.828   7.735
 2126POPC   C1B31039  25.277  44.318   8.720
 2126POPC   C2B31040  25.365  44.108   8.361
 2126POPC   C3B31041  25.131  44.158   7.987
 2126POPC   C4B31042  24.921  44.101   7.599
 2127POPC   NC331043  30.932   0.191  10.035
 2127POPC   PO431044  30.385  44.837   9.655
 2127POPC   GL131045  30.635  44.749   9.264
 2127POPC   GL231046  30.877  44.485   9.284
 2127POPC   C1A31047  30.621  44.922   8.859
 2127POPC   D2A31048  30.899  44.965   8.516
 2127POPC   C3A31049  30.652  44.848   8.176
 2127POPC   C4A31050  30.629  44.929   7.751
 2127POPC   C1B31051  30.840  44.438   8.803
 2127POPC   C2B31052  30.844  44.224   8.381
 2127POPC   C3B31053  31.038  44.139   8.012
 2127POPC   C4B31054  30.788  44.448   7.794
 2128POPC   NC331055  35.810  14.269   9.548
 2128POPC   PO431056  35.166  14.382   9.453
 2128POPC   GL131057  35.483  14.402   9.141
 2128POPC   GL231058  35.611  14.069   9.136
 2128POPC   C1A31059  35.483  14.329   8.704
 2128POPC   D2A31060  35.246  14.469   8.395
 2128POPC   C3A31061  35.431  14.339   8.033
 2128POPC   C4A31062  35.430  14.543   7.654
 2128POPC   C1B31063  35.882  14.020   8.775
 2128POPC   C2B31064  35.809  14.062   8.339
 2128POPC   C3B31065  35.792  13.866   7.949
 2128POPC   C4B31066  35.553  14.027   7.621
 2129POPC   NC331067  41.977   1.779   9.772
 2129POPC   PO431068  42.619   1.960   9.577
 2129POPC   GL131069  42.515   1.905   9.140
 2129POPC   GL231070  42.409   2.250   9.112
 2129POPC   C1A31071  42.303   1.917   8.737
 2129POPC   D2A31072  42.164   1.800   8.349
 2129POPC   C3A31073  42.459   1.771   8.044
 2129POPC   C4A31074  42.176   2.032   7.839
 2129POPC   C1B31075  42.482   2.401   8.707
 2129POPC   C2B31076  42.387   2.291   8.299
 2129POPC   C3B31077  42.660   2.237   7.980
 2129POPC   C4B31078  42.600   2.088   7.589
 2130POPC   NC331079  20.403  27.887   9.501
 2130POPC   PO431080  20.749  27.275   9.482
 2130POPC   GL131081  20.661  27.577   9.159
 2130POPC   GL231082  20.351  27.605   9.063
 2130POPC   C1A31083  20.817  27.739   8.755
 2130POPC   D2A31084  21.114  27.760   8.385
 2130POPC   C3A31085  21.029  27.461   8.069
 2130POPC   C4A31086  20.691  27.502   7.792
 2130POPC   C1B31087  20.401  27.387   8.700
 2130POPC   C2B31088  20.607  27.456   8.350
 2130POPC   C3B31089  20.315  27.358   8.079
 2130POPC   C4B31090  20.146  27.561   7.737
 2131POPC   NC331091  43.252  36.951   9.487
 2131POPC   PO431092  42.677  36.664   9.608
 2131POPC   GL131093  42.769  36.844   9.176
 2131POPC   GL231094  43.033  37.133   9.055
 2131POPC   C1A31095  42.913  36.716   8.763
 2131POPC   D2A31096  43.068  36.922   8.415
 2131POPC   C3A31097  42.892  36.783   8.065
 2131POPC   C4A31098  42.917  37.074   7.720
 2131POPC   C1B31099  43.408  36.926   8.797
 2131POPC   C2B31100  43.507  36.669   8.372
 2131POPC   C3B31101  43.407  36.800   7.917
 2131POPC   C4B31102  43.692  36.870   7.530
 2132POPC   NC331103  19.641  43.448   9.575
 2132POPC   PO431104  20.087  43.991   9.546
 2132POPC   GL131105  19.845  43.776   9.220
 2132POPC   GL231106  19.489  43.928   9.151
 2132POPC   C1A31107  19.872  43.779   8.774
 2132POPC   D2A31108  19.778  44.050   8.447
 2132POPC   C3A31109  19.796  43.901   8.011
 2132POPC   C4A31110  19.960  43.662   7.664
 2132POPC   C1B31111  19.360  43.712   8.772
 2132POPC   C2B31112  19.362  43.705   8.350
 2132POPC   C3B31113  19.352  43.656   7.927
 2132POPC   C4B31114  19.310  43.977   7.644
 2133POPC   NC331115  39.632  27.077   9.579
 2133POPC   PO431116  38.986  26.940   9.539
 2133POPC   GL131117  39.112  26.825   9.099
 2133POPC   GL231118  39.485  26.812   9.148
 2133POPC   C1A31119  39.309  26.562   8.713
 2133POPC   D2A31120  39.418  26.445   8.261
 2133POPC   C3A31121  39.110  26.497   7.932
 2133POPC   C4A31122  39.049  26.876   7.666
 2133POPC   C1B31123  39.419  27.046   8.784
 2133POPC   C2B31124  39.195  26.994   8.404
 2133POPC   C3B31125  39.395  26.996   8.021
 2133POPC   C4B31126  39.421  27.256   7.640
 2134POPC   NC331127  30.478  17.088   9.275
 2134POPC   PO431128  30.926  16.597   9.279
 2134POPC   GL131129  30.768  16.797   8.956
 2134POPC   GL231130  30.897  17.082   8.955
 2134POPC   C1A31131  30.466  16.801   8.625
 2134POPC   D2A31132  30.302  16.454   8.354
 2134POPC   C3A31133  30.504  16.447   7.933
 2134POPC   C4A31134  30.924  16.477   7.725
 2134POPC   C1B31135  30.725  17.243   8.568
 2134POPC   C2B31136  30.506  17.139   8.177
 2134POPC   C3B31137  30.790  16.947   7.857
 2134POPC   C4B31138  30.861  16.918   7.383
 2135POPC   NC331139  33.691   2.076   9.463
 2135POPC   PO431140  33.195   1.635   9.602
 2135POPC   GL131141  33.529   1.661   9.163
 2135POPC   GL231142  33.872   1.850   9.054
 2135POPC   C1A31143  33.673   1.641   8.648
 2135POPC   D2A31144  33.708   1.609   8.148
 2135POPC   C3A31145  33.995   1.835   7.824
 2135POPC   C4A31146  34.027   1.864   7.357
 2135POPC   C1B31147  33.888   2.110   8.623
 2135POPC   C2B31148  33.729   2.128   8.182
 2135POPC   C3B31149  33.890   2.347   7.811
 2135POPC   C4B31150  33.964   2.368   7.351
 2136POPC   NC331151  32.456   4.455   9.639
 2136POPC   PO431152  32.858   3.984   9.335
 2136POPC   GL131153  32.403   4.062   9.219
 2136POPC   GL231154  32.194   4.394   9.204
 2136POPC   C1A31155  32.143   4.070   8.826
 2136POPC   D2A31156  32.156   4.261   8.434
 2136POPC   C3A31157  32.245   4.023   8.055
 2136POPC   C4A31158  32.377   4.273   7.691
 2136POPC   C1B31159  31.960   4.572   8.830
 2136POPC   C2B31160  31.788   4.630   8.404
 2136POPC   C3B31161  31.909   4.451   8.022
 2136POPC   C4B31162  31.957   4.531   7.601
 2137POPC   NC331163  42.877  41.607  10.003
 2137POPC   PO431164  43.467  41.340   9.667
 2137POPC   GL131165  43.145  41.534   9.364
 2137POPC   GL231166  43.371  41.647   9.135
 2137POPC   C1A31167  42.921  41.588   8.922
 2137POPC   D2A31168  43.152  41.662   8.527
 2137POPC   C3A31169  43.024  41.508   8.150
 2137POPC   C4A31170  43.158  41.634   7.762
 2137POPC   C1B31171  43.441  41.951   8.862
 2137POPC   C2B31172  43.467  42.074   8.452
 2137POPC   C3B31173  43.249  42.120   8.093
 2137POPC   C4B31174  43.444  42.068   7.705
 2138POPC   NC331175  13.414  25.485   9.711
 2138POPC   PO431176  13.562  26.038   9.483
 2138POPC   GL131177  13.687  26.245   9.142
 2138POPC   GL231178  13.769  25.901   8.992
 2138POPC   C1A31179  13.530  26.274   8.728
 2138POPC   D2A31180  13.482  26.078   8.353
 2138POPC   C3A31181  13.842  25.950   8.131
 2138POPC   C4A31182  13.633  26.234   7.848
 2138POPC   C1B31183  13.681  25.669   8.609
 2138POPC   C2B31184  13.502  25.580   8.199
 2138POPC   C3B31185  13.574  25.722   7.757
 2138POPC   C4B31186  13.941  25.929   7.588
 2139POPC   NC331187  29.430   4.673  10.000
 2139POPC   PO431188  28.845   4.512   9.616
 2139POPC   GL131189  28.969   4.498   9.189
 2139POPC   GL231190  28.855   4.757   8.971
 2139POPC   C1A31191  29.332   4.558   8.877
 2139POPC   D2A31192  29.352   4.356   8.469
 2139POPC   C3A31193  29.167   4.615   8.165
 2139POPC   C4A31194  29.145   4.529   7.742
 2139POPC   C1B31195  28.880   4.355   8.711
 2139POPC   C2B31196  28.884   4.148   8.337
 2139POPC   C3B31197  29.171   4.092   8.034
 2139POPC   C4B31198  29.054   4.000   7.637
 2140POPC   NC331199   4.675  15.061   9.617
 2140POPC   PO431200   4.168  15.458   9.407
 2140POPC   GL131201   4.530  15.346   9.183
 2140POPC   GL231202   4.351  15.064   9.041
 2140POPC   C1A31203   4.767  15.219   8.822
 2140POPC   D2A31204   4.549  14.948   8.555
 2140POPC   C3A31205   4.403  15.069   8.201
 2140POPC   C4A31206   4.460  15.017   7.792
 2140POPC   C1B31207   4.173  15.290   8.627
 2140POPC   C2B31208   4.064  15.435   8.166
 2140POPC   C3B31209   3.860  15.655   7.819
 2140POPC   C4B31210   4.099  15.786   7.454
 2141POPC   NC331211  39.868  32.515   9.504
 2141POPC   PO431212  40.176  31.927   9.506
 2141POPC   GL131213  39.919  32.047   9.157
 2141POPC   GL231214  39.968  32.372   9.035
 2141POPC   C1A31215  39.793  32.008   8.714
 2141POPC   D2A31216  39.972  32.212   8.375
 2141POPC   C3A31217  39.735  32.101   8.051
 2141POPC   C4A31218  39.717  32.106   7.649
 2141POPC   C1B31219  40.227  32.523   8.710
 2141POPC   C2B31220  40.163  32.689   8.298
 2141POPC   C3B31221  40.015  32.501   7.899
 2141POPC   C4B31222  39.922  32.604   7.473
 2142POPC   NC331223   5.976  44.238   9.484
 2142POPC   PO431224   5.503  43.798   9.515
 2142POPC   GL131225   5.715  43.964   9.130
 2142POPC   GL231226   6.076  43.878   9.133
 2142POPC   C1A31227   5.836  43.912   8.691
 2142POPC   D2A31228   6.107  43.970   8.320
 2142POPC   C3A31229   5.946  43.843   7.923
 2142POPC   C4A31230   5.529  43.690   7.796
 2142POPC   C1B31231   6.346  43.834   8.760
 2142POPC   C2B31232   6.474  43.583   8.389
 2142POPC   C3B31233   6.398  43.602   7.927
 2142POPC   C4B31234   6.315  43.840   7.507
 2143POPC   NC331235   9.103  16.255   9.245
 2143POPC   PO431236   8.603  15.789   9.367
 2143POPC   GL131237   8.947  15.792   9.092
 2143POPC   GL231238   9.323  15.788   9.145
 2143POPC   C1A31239   8.884  15.933   8.679
 2143POPC   D2A31240   9.004  16.053   8.275
 2143POPC   C3A31241   8.812  15.796   7.971
 2143POPC   C4A31242   8.778  15.948   7.576
 2143POPC   C1B31243   9.383  15.814   8.661
 2143POPC   C2B31244   9.487  15.877   8.217
 2143POPC   C3B31245   9.303  15.971   7.788
 2143POPC   C4B31246   9.238  15.979   7.308
 2144POPC   NC331247  31.679  12.891   9.581
 2144POPC   PO431248  31.061  12.906   9.373
 2144POPC   GL131249  31.329  12.639   9.111
 2144POPC   GL231250  31.709  12.601   9.174
 2144POPC   C1A31251  31.274  12.681   8.645
 2144POPC   D2A31252  31.155  12.656   8.233
 2144POPC   C3A31253  31.260  13.016   7.969
 2144POPC   C4A31254  31.708  13.117   7.892
 2144POPC   C1B31255  31.730  12.559   8.766
 2144POPC   C2B31256  31.726  12.756   8.356
 2144POPC   C3B31257  31.601  12.632   7.957
 2144POPC   C4B31258  31.567  12.768   7.522
 2145POPC   NC331259  26.731   7.843   9.507
 2145POPC   PO431260  26.387   7.286   9.524
 2145POPC   GL131261  26.166   7.372   9.116
 2145POPC   GL231262  25.947   7.098   9.064
 2145POPC   C1A31263  26.097   7.419   8.644
 2145POPC   D2A31264  26.314   7.321   8.220
 2145POPC   C3A31265  26.197   7.536   7.811
 2145POPC   C4A31266  26.007   7.877   7.528
 2145POPC   C1B31267  26.235   6.933   8.736
 2145POPC   C2B31268  26.117   6.844   8.301
 2145POPC   C3B31269  26.017   7.045   7.882
 2145POPC   C4B31270  26.214   7.112   7.470
 2146POPC   NC331271  27.884  43.065   9.288
 2146POPC   PO431272  27.353  43.302   9.550
 2146POPC   GL131273  27.346  43.133   9.146
 2146POPC   GL231274  27.478  42.808   9.138
 2146POPC   C1A31275  27.577  43.279   8.778
 2146POPC   D2A31276  27.865  43.391   8.468
 2146POPC   C3A31277  27.678  43.256   8.056
 2146POPC   C4A31278  27.746  43.189   7.623
 2146POPC   C1B31279  27.694  42.765   8.737
 2146POPC   C2B31280  27.625  42.594   8.346
 2146POPC   C3B31281  27.757  42.747   7.947
 2146POPC   C4B31282  27.463  42.764   7.651
 2147POPC   NC331283  34.966  10.536   9.442
 2147POPC   PO431284  35.641  10.677   9.531
 2147POPC   GL131285  35.444  10.456   9.209
 2147POPC   GL231286  35.364  10.788   9.098
 2147POPC   C1A31287  35.321  10.370   8.781
 2147POPC   D2A31288  35.465  10.542   8.369
 2147POPC   C3A31289  35.271  10.376   7.974
 2147POPC   C4A31290  35.349  10.417   7.494
 2147POPC   C1B31291  35.141  10.862   8.717
 2147POPC   C2B31292  35.142  10.934   8.289
 2147POPC   C3B31293  35.415  10.891   7.968
 2147POPC   C4B31294  35.115  10.792   7.713
 2148POPC   NC331295  24.370  21.178   9.525
 2148POPC   PO431296  24.273  21.854   9.556
 2148POPC   GL131297  24.406  21.548   9.181
 2148POPC   GL231298  24.261  21.196   9.018
 2148POPC   C1A31299  24.302  21.594   8.748
 2148POPC   D2A31300  24.122  21.465   8.349
 2148POPC   C3A31301  24.258  21.638   7.958
 2148POPC   C4A31302  24.331  21.293   7.657
 2148POPC   C1B31303  24.433  21.137   8.570
 2148POPC   C2B31304  24.552  21.253   8.143
 2148POPC   C3B31305  24.817  21.091   7.837
 2148POPC   C4B31306  25.066  20.837   7.541
 2149POPC   NC331307  43.306  22.385   9.686
 2149POPC   PO431308  42.800  22.095   9.348
 2149POPC   GL131309  43.035  22.210   9.057
 2149POPC   GL231310  43.240  21.938   8.924
 2149POPC   C1A31311  43.018  22.294   8.651
 2149POPC   D2A31312  43.229  22.158   8.316
 2149POPC   C3A31313  42.979  22.218   7.969
 2149POPC   C4A31314  43.137  22.370   7.651
 2149POPC   C1B31315  42.786  21.855   8.761
 2149POPC   C2B31316  42.791  21.836   8.340
 2149POPC   C3B31317  43.099  21.730   8.050
 2149POPC   C4B31318  43.087  21.824   7.611
 2150POPC   NC331319  33.016   8.655   9.755
 2150POPC   PO431320  32.746   8.014   9.455
 2150POPC   GL131321  32.890   8.025   9.068
 2150POPC   GL231322  33.091   8.297   9.110
 2150POPC   C1A31323  33.202   7.975   8.730
 2150POPC   D2A31324  33.340   7.729   8.378
 2150POPC   C3A31325  33.270   7.995   8.059
 2150POPC   C4A31326  33.120   8.329   7.757
 2150POPC   C1B31327  32.883   8.381   8.708
 2150POPC   C2B31328  32.990   8.341   8.291
 2150POPC   C3B31329  32.671   8.494   7.989
 2150POPC   C4B31330  32.672   8.621   7.575
 2151POPC   NC331331  42.619  26.410   9.466
 2151POPC   PO431332  42.147  25.965   9.314
 2151POPC   GL131333  42.508  25.959   9.032
 2151POPC   GL231334  42.620  26.269   8.988
 2151POPC   C1A31335  42.625  25.991   8.559
 2151POPC   D2A31336  42.658  25.813   8.133
 2151POPC   C3A31337  42.352  26.022   7.849
 2151POPC   C4A31338  42.112  25.865   7.459
 2151POPC   C1B31339  42.287  26.394   8.730
 2151POPC   C2B31340  42.059  26.255   8.366
 2151POPC   C3B31341  42.035  26.456   7.968
 2151POPC   C4B31342  42.104  26.377   7.515
 2152POPC   NC331343  10.315  35.377   9.569
 2152POPC   PO431344  10.886  35.643   9.378
 2152POPC   GL131345  10.615  35.382   9.162
 2152POPC   GL231346  10.812  35.106   9.040
 2152POPC   C1A31347  10.297  35.460   8.866
 2152POPC   D2A31348  10.361  35.298   8.440
 2152POPC   C3A31349  10.329  35.521   8.036
 2152POPC   C4A31350  10.371  35.235   7.696
 2152POPC   C1B31351  10.795  35.434   8.695
 2152POPC   C2B31352  10.799  35.512   8.241
 2152POPC   C3B31353  10.813  35.493   7.797
 2152POPC   C4B31354  11.019  35.563   7.382
 2153POPC   NC331355  12.748  40.897   9.561
 2153POPC   PO431356  13.178  40.391   9.650
 2153POPC   GL131357  13.053  40.665   9.201
 2153POPC   GL231358  12.797  40.977   9.074
 2153POPC   C1A31359  12.860  40.612   8.759
 2153POPC   D2A31360  12.846  40.970   8.484
 2153POPC   C3A31361  12.846  40.825   8.070
 2153POPC   C4A31362  12.815  40.443   7.842
 2153POPC   C1B31363  12.422  41.033   8.731
 2153POPC   C2B31364  12.394  41.079   8.250
 2153POPC   C3B31365  12.468  41.096   7.786
 2153POPC   C4B31366  12.396  41.072   7.298
 2154POPC   NC331367  33.414  15.070   9.615
 2154POPC   PO431368  32.937  15.528   9.589
 2154POPC   GL131369  33.072  15.354   9.172
 2154POPC   GL231370  32.883  15.085   9.240
 2154POPC   C1A31371  33.211  15.321   8.704
 2154POPC   D2A31372  33.250  15.447   8.262
 2154POPC   C3A31373  32.921  15.511   7.980
 2154POPC   C4A31374  32.863  15.167   7.736
 2154POPC   C1B31375  33.127  14.865   8.936
 2154POPC   C2B31376  33.185  14.822   8.501
 2154POPC   C3B31377  33.165  14.959   8.093
 2154POPC   C4B31378  33.321  14.959   7.681
 2155POPC   NC331379  36.367  29.967   9.540
 2155POPC   PO431380  35.785  29.616   9.499
 2155POPC   GL131381  35.968  29.887   9.200
 2155POPC   GL231382  36.328  29.781   9.087
 2155POPC   C1A31383  35.860  30.143   8.857
 2155POPC   D2A31384  36.001  30.080   8.439
 2155POPC   C3A31385  35.861  30.219   8.054
 2155POPC   C4A31386  35.986  29.946   7.701
 2155POPC   C1B31387  36.387  30.111   8.801
 2155POPC   C2B31388  36.517  30.089   8.367
 2155POPC   C3B31389  36.403  29.980   7.984
 2155POPC   C4B31390  36.461  30.198   7.600
 2156POPC   NC331391   8.880  20.449   9.680
 2156POPC   PO431392   9.142  21.015   9.475
 2156POPC   GL131393   8.967  20.787   9.117
 2156POPC   GL231394   8.838  20.452   9.160
 2156POPC   C1A31395   9.021  20.742   8.674
 2156POPC   D2A31396   8.855  20.817   8.259
 2156POPC   C3A31397   9.138  20.691   7.935
 2156POPC   C4A31398   9.071  20.618   7.493
 2156POPC   C1B31399   8.586  20.229   8.849
 2156POPC   C2B31400   8.722  20.092   8.415
 2156POPC   C3B31401   8.777  20.322   8.007
 2156POPC   C4B31402   8.657  20.321   7.533
 2157POPC   NC331403  17.408  12.562   9.853
 2157POPC   PO431404  17.414  13.074   9.421
 2157POPC   GL131405  17.641  12.746   9.200
 2157POPC   GL231406  17.420  12.804   8.941
 2157POPC   C1A31407  17.788  12.510   8.817
 2157POPC   D2A31408  17.828  12.706   8.389
 2157POPC   C3A31409  17.908  12.508   8.011
 2157POPC   C4A31410  17.880  12.851   7.746
 2157POPC   C1B31411  17.354  12.874   8.511
 2157POPC   C2B31412  17.475  13.155   8.202
 2157POPC   C3B31413  17.432  13.037   7.802
 2157POPC   C4B31414  17.450  12.582   7.821
 2158POPC   NC331415  15.289  42.374   9.631
 2158POPC   PO431416  14.693  41.990   9.529
 2158POPC   GL131417  14.938  42.204   9.188
 2158POPC   GL231418  15.294  42.328   9.142
 2158POPC   C1A31419  15.011  42.255   8.737
 2158POPC   D2A31420  15.210  41.968   8.463
 2158POPC   C3A31421  15.293  42.123   8.065
 2158POPC   C4A31422  15.071  41.968   7.708
 2158POPC   C1B31423  15.511  42.295   8.781
 2158POPC   C2B31424  15.381  42.519   8.426
 2158POPC   C3B31425  15.552  42.598   8.039
 2158POPC   C4B31426  15.317  42.482   7.685
 2159POPC   NC331427  14.753  22.118   9.440
 2159POPC   PO431428  14.152  21.991   9.547
 2159POPC   GL131429  14.305  22.188   9.176
 2159POPC   GL231430  14.332  21.854   9.072
 2159POPC   C1A31431  14.161  22.303   8.737
 2159POPC   D2A31432  14.437  22.352   8.332
 2159POPC   C3A31433  14.293  22.390   7.880
 2159POPC   C4A31434  14.359  22.227   7.460
 2159POPC   C1B31435  14.542  21.973   8.711
 2159POPC   C2B31436  14.518  21.836   8.299
 2159POPC   C3B31437  14.385  21.876   7.877
 2159POPC   C4B31438  14.760  22.070   7.726
 2160POPC   NC331439  29.670  30.997   9.745
 2160POPC   PO431440  30.193  30.519   9.655
 2160POPC   GL131441  29.852  30.659   9.349
 2160POPC   GL231442  29.547  30.417   9.327
 2160POPC   C1A31443  29.852  30.848   8.918
 2160POPC   D2A31444  30.086  30.697   8.536
 2160POPC   C3A31445  30.050  30.785   8.093
 2160POPC   C4A31446  30.222  30.534   7.768
 2160POPC   C1B31447  29.471  30.466   8.872
 2160POPC   C2B31448  29.561  30.708   8.494
 2160POPC   C3B31449  29.589  30.573   8.086
 2160POPC   C4B31450  29.673  30.790   7.723
 2161POPC   NC331451  14.851   2.963   9.347
 2161POPC   PO431452  14.960   2.304   9.496
 2161POPC   GL131453  15.036   2.450   9.106
 2161POPC   GL231454  14.680   2.567   9.068
 2161POPC   C1A31455  15.280   2.769   8.808
 2161POPC   D2A31456  15.157   3.001   8.398
 2161POPC   C3A31457  15.338   2.891   7.984
 2161POPC   C4A31458  15.320   2.610   7.629
 2161POPC   C1B31459  14.822   2.613   8.687
 2161POPC   C2B31460  15.053   2.403   8.428
 2161POPC   C3B31461  14.960   2.531   8.038
 2161POPC   C4B31462  14.864   2.853   7.746
 2162POPC   NC331463  16.565  25.570   9.594
 2162POPC   PO431464  16.728  24.906   9.632
 2162POPC   GL131465  16.741  25.188   9.256
 2162POPC   GL231466  16.434  25.300   9.154
 2162POPC   C1A31467  16.985  25.351   8.885
 2162POPC   D2A31468  16.828  25.447   8.461
 2162POPC   C3A31469  16.984  25.300   8.073
 2162POPC   C4A31470  16.934  25.499   7.739
 2162POPC   C1B31471  16.535  25.124   8.743
 2162POPC   C2B31472  16.625  24.996   8.285
 2162POPC   C3B31473  16.618  25.068   7.807
 2162POPC   C4B31474  16.388  25.140   7.414
 2163POPC   NC331475  24.578  11.647   9.287
 2163POPC   PO431476  24.315  11.032   9.453
 2163POPC   GL131477  24.468  11.193   9.092
 2163POPC   GL231478  24.776  10.990   9.023
 2163POPC   C1A31479  24.273  11.378   8.709
 2163POPC   D2A31480  24.195  11.711   8.451
 2163POPC   C3A31481  24.145  11.532   8.070
 2163POPC   C4A31482  24.282  11.597   7.680
 2163POPC   C1B31483  24.766  11.263   8.696
 2163POPC   C2B31484  24.617  11.394   8.319
 2163POPC   C3B31485  24.582  11.270   7.929
 2163POPC   C4B31486  24.776  11.381   7.564
 2164POPC   NC331487   1.390   9.030   9.448
 2164POPC   PO431488   0.877   8.777   9.490
 2164POPC   GL131489   1.068   8.704   9.107
 2164POPC   GL231490   1.434   8.634   9.139
 2164POPC   C1A31491   0.973   8.799   8.685
 2164POPC   D2A31492   0.978   8.518   8.329
 2164POPC   C3A31493   1.051   8.696   7.935
 2164POPC   C4A31494   1.085   8.937   7.548
 2164POPC   C1B31495   1.450   8.941   8.799
 2164POPC   C2B31496   1.357   8.911   8.354
 2164POPC   C3B31497   1.308   9.144   7.980
 2164POPC   C4B31498   1.524   9.206   7.611
 2165POPC   NC331499  42.833  44.884   9.796
 2165POPC   PO431500  43.382  44.559   9.582
 2165POPC   GL131501  43.051  44.634   9.300
 2165POPC   GL231502  43.178  44.957   9.252
 2165POPC   C1A31503  43.035  44.525   8.847
 2165POPC   D2A31504  43.294  44.396   8.471
 2165POPC   C3A31505  43.059  44.357   8.081
 2165POPC   C4A31506  42.727  44.506   7.812
 2165POPC   C1B31507  43.242   0.126   8.859
 2165POPC   C2B31508  43.182  44.922   8.466
 2165POPC   C3B31509  43.167   0.068   8.049
 2165POPC   C4B31510  43.084  44.853   7.672
 2166POPC   NC331511  24.574  25.502   9.674
 2166POPC   PO431512  24.764  24.926   9.404
 2166POPC   GL131513  24.618  25.254   9.161
 2166POPC   GL231514  24.387  25.510   9.100
 2166POPC   C1A31515  24.605  25.210   8.722
 2166POPC   D2A31516  24.665  25.398   8.329
 2166POPC   C3A31517  24.559  25.120   7.994
 2166POPC   C4A31518  24.205  24.960   7.802
 2166POPC   C1B31519  24.476  25.722   8.741
 2166POPC   C2B31520  24.809  25.859   8.498
 2166POPC   C3B31521  24.791  25.842   8.065
 2166POPC   C4B31522  24.492  25.663   7.794
 2167POPC   NC331523  41.779  28.700   9.535
 2167POPC   PO431524  41.137  28.729   9.614
 2167POPC   GL131525  41.381  28.600   9.220
 2167POPC   GL231526  41.584  28.286   9.235
 2167POPC   C1A31527  41.424  28.550   8.744
 2167POPC   D2A31528  41.233  28.440   8.329
 2167POPC   C3A31529  41.456  28.403   7.949
 2167POPC   C4A31530  41.554  28.048   7.675
 2167POPC   C1B31531  41.868  28.367   8.881
 2167POPC   C2B31532  41.870  28.436   8.425
 2167POPC   C3B31533  41.973  28.398   7.975
 2167POPC   C4B31534  41.793  28.549   7.604
 2168POPC   NC331535   5.158  41.759   9.613
 2168POPC   PO431536   5.187  41.075   9.625
 2168POPC   GL131537   5.187  41.380   9.242
 2168POPC   GL231538   4.874  41.560   9.173
 2168POPC   C1A31539   5.211  41.534   8.786
 2168POPC   D2A31540   5.456  41.392   8.489
 2168POPC   C3A31541   5.358  41.558   8.108
 2168POPC   C4A31542   5.209  41.378   7.777
 2168POPC   C1B31543   4.717  41.504   8.698
 2168POPC   C2B31544   4.848  41.724   8.354
 2168POPC   C3B31545   4.826  41.649   7.938
 2168POPC   C4B31546   4.720  41.467   7.544
 2169POPC   NC331547   0.686  36.594   9.387
 2169POPC   PO431548   1.307  36.971   9.514
 2169POPC   GL131549   1.393  37.199   9.144
 2169POPC   GL231550   1.721  37.075   9.008
 2169POPC   C1A31551   1.156  37.260   8.755
 2169POPC   D2A31552   0.886  37.294   8.388
 2169POPC   C3A31553   1.093  37.269   8.022
 2169POPC   C4A31554   1.137  36.870   7.827
 2169POPC   C1B31555   1.372  36.798   8.821
 2169POPC   C2B31556   1.200  36.831   8.393
 2169POPC   C3B31557   1.487  36.630   8.102
 2169POPC   C4B31558   1.593  36.700   7.686
 2170POPC   NC331559  27.783  33.191   9.656
 2170POPC   PO431560  27.269  33.201   9.218
 2170POPC   GL131561  27.652  33.033   9.078
 2170POPC   GL231562  27.869  33.282   9.157
 2170POPC   C1A31563  27.706  32.858   8.653
 2170POPC   D2A31564  27.327  32.785   8.384
 2170POPC   C3A31565  27.150  33.192   8.253
 2170POPC   C4A31566  27.325  33.362   7.849
 2170POPC   C1B31567  27.724  33.408   8.718
 2170POPC   C2B31568  27.652  33.348   8.258
 2170POPC   C3B31569  27.769  33.044   7.899
 2170POPC   C4B31570  27.809  32.739   7.519
 2171POPC   NC331571  20.859  16.969   9.658
 2171POPC   PO431572  20.264  16.619   9.611
 2171POPC   GL131573  20.480  16.577   9.239
 2171POPC   GL231574  20.815  16.654   9.196
 2171POPC   C1A31575  20.378  16.371   8.879
 2171POPC   D2A31576  20.185  16.409   8.485
 2171POPC   C3A31577  20.330  16.543   8.096
 2171POPC   C4A31578  20.559  16.776   7.777
 2171POPC   C1B31579  20.752  16.683   8.730
 2171POPC   C2B31580  20.710  16.806   8.305
 2171POPC   C3B31581  21.025  16.744   7.988
 2171POPC   C4B31582  21.058  16.653   7.553
 2172POPC   NC331583  34.853  39.604   9.292
 2172POPC   PO431584  35.094  39.967   9.742
 2172POPC   GL131585  35.135  39.995   9.211
 2172POPC   GL231586  35.414  39.762   9.134
 2172POPC   C1A31587  35.225  40.180   8.756
 2172POPC   D2A31588  35.081  40.131   8.290
 2172POPC   C3A31589  35.455  40.103   7.966
 2172POPC   C4A31590  35.455  40.135   7.445
 2172POPC   C1B31591  35.192  39.661   8.751
 2172POPC   C2B31592  35.261  39.650   8.352
 2172POPC   C3B31593  35.070  39.666   7.998
 2172POPC   C4B31594  35.319  39.719   7.671
 2173POPC   NC331595  42.683   4.127   9.707
 2173POPC   PO431596  43.262   4.461   9.569
 2173POPC   GL131597  43.177   4.364   9.150
 2173POPC   GL231598  43.096   4.691   9.091
 2173POPC   C1A31599  43.221   4.141   8.734
 2173POPC   D2A31600  42.966   4.059   8.372
 2173POPC   C3A31601  43.120   4.067   7.938
 2173POPC   C4A31602  42.936   4.002   7.519
 2173POPC   C1B31603  42.980   4.607   8.665
 2173POPC   C2B31604  43.165   4.501   8.256
 2173POPC   C3B31605  43.060   4.601   7.831
 2173POPC   C4B31606  42.984   4.487   7.399
 2174POPC   NC331607  28.623   8.019   9.558
 2174POPC   PO431608  27.983   8.410   9.412
 2174POPC   GL131609  28.179   8.127   9.219
 2174POPC   GL231610  28.500   8.275   9.127
 2174POPC   C1A31611  28.152   7.966   8.813
 2174POPC   D2A31612  28.374   8.111   8.457
 2174POPC   C3A31613  28.140   7.961   8.106
 2174POPC   C4A31614  28.337   7.931   7.725
 2174POPC   C1B31615  28.242   8.490   8.806
 2174POPC   C2B31616  28.292   8.634   8.387
 2174POPC   C3B31617  28.369   8.417   8.017
 2174POPC   C4B31618  28.397   8.425   7.598
 2175POPC   NC331619  21.818  23.714   9.426
 2175POPC   PO431620  22.459  23.928   9.480
 2175POPC   GL131621  22.324  23.985   9.049
 2175POPC   GL231622  21.977  23.928   9.001
 2175POPC   C1A31623  22.403  23.684   8.691
 2175POPC   D2A31624  22.245  23.424   8.355
 2175POPC   C3A31625  22.487  23.476   7.989
 2175POPC   C4A31626  22.412  23.694   7.636
 2175POPC   C1B31627  22.119  24.105   8.610
 2175POPC   C2B31628  21.952  23.841   8.343
 2175POPC   C3B31629  21.969  23.634   7.966
 2175POPC   C4B31630  21.895  23.669   7.547
 2176POPC   NC331631   7.632   6.901   9.516
 2176POPC   PO431632   7.010   6.608   9.560
 2176POPC   GL131633   7.289   6.677   9.152
 2176POPC   GL231634   7.571   6.884   9.005
 2176POPC   C1A31635   7.172   6.630   8.674
 2176POPC   D2A31636   7.002   6.714   8.213
 2176POPC   C3A31637   7.231   6.852   7.816
 2176POPC   C4A31638   7.241   6.564   7.452
 2176POPC   C1B31639   7.635   6.941   8.554
 2176POPC   C2B31640   7.529   6.691   8.191
 2176POPC   C3B31641   7.699   6.615   7.760
 2176POPC   C4B31642   8.073   6.761   7.467
 2177POPC   NC331643  36.560  36.081   9.329
 2177POPC   PO431644  37.175  35.740   9.352
 2177POPC   GL131645  37.008  35.921   8.972
 2177POPC   GL231646  36.663  35.902   8.872
 2177POPC   C1A31647  37.040  36.032   8.516
 2177POPC   D2A31648  37.078  36.400   8.246
 2177POPC   C3A31649  37.016  36.335   7.806
 2177POPC   C4A31650  36.994  36.019   7.461
 2177POPC   C1B31651  36.737  36.339   8.758
 2177POPC   C2B31652  36.601  36.311   8.378
 2177POPC   C3B31653  36.466  36.090   8.061
 2177POPC   C4B31654  36.552  36.164   7.659
 2178POPC   NC331655   1.483  40.572   9.441
 2178POPC   PO431656   2.033  40.944   9.389
 2178POPC   GL131657   1.975  40.604   9.109
 2178POPC   GL231658   2.318  40.485   9.014
 2178POPC   C1A31659   1.807  40.583   8.690
 2178POPC   D2A31660   1.984  40.625   8.279
 2178POPC   C3A31661   1.704  40.688   7.934
 2178POPC   C4A31662   1.473  40.795   7.537
 2178POPC   C1B31663   2.268  40.858   8.737
 2178POPC   C2B31664   2.166  41.126   8.382
 2178POPC   C3B31665   2.220  40.969   7.961
 2178POPC   C4B31666   2.165  40.543   7.781
 2179POPC   NC331667  40.536  40.472   9.590
 2179POPC   PO431668  40.962  41.033   9.590
 2179POPC   GL131669  40.974  40.809   9.228
 2179POPC   GL231670  40.663  40.732   9.172
 2179POPC   C1A31671  41.033  40.893   8.832
 2179POPC   D2A31672  40.815  40.939   8.493
 2179POPC   C3A31673  40.919  40.713   8.128
 2179POPC   C4A31674  40.985  40.955   7.768
 2179POPC   C1B31675  40.730  40.482   8.799
 2179POPC   C2B31676  40.531  40.531   8.427
 2179POPC   C3B31677  40.409  40.487   8.062
 2179POPC   C4B31678  40.570  40.668   7.752
 2180POPC   NC331679   9.438   4.938   9.579
 2180POPC   PO431680   9.925   4.745   9.437
 2180POPC   GL131681   9.675   4.939   9.103
 2180POPC   GL231682   9.649   5.322   9.050
 2180POPC   C1A31683   9.738   4.990   8.664
 2180POPC   D2A31684   9.944   4.818   8.326
 2180POPC   C3A31685   9.688   4.860   7.973
 2180POPC   C4A31686   9.868   5.014   7.615
 2180POPC   C1B31687   9.894   5.472   8.674
 2180POPC   C2B31688   9.807   5.313   8.240
 2180POPC   C3B31689   9.555   5.353   7.851
 2180POPC   C4B31690   9.582   5.388   7.382
 2181POPC   NC331691   5.106  35.046   9.532
 2181POPC   PO431692   4.783  35.674   9.487
 2181POPC   GL131693   4.865  35.424   9.121
 2181POPC   GL231694   4.771  35.062   9.139
 2181POPC   C1A31695   5.185  35.446   8.776
 2181POPC   D2A31696   5.179  35.267   8.358
 2181POPC   C3A31697   5.274  35.536   8.032
 2181POPC   C4A31698   5.275  35.311   7.688
 2181POPC   C1B31699   4.817  35.108   8.703
 2181POPC   C2B31700   4.642  35.222   8.330
 2181POPC   C3B31701   4.809  35.353   7.967
 2181POPC   C4B31702   4.791  35.126   7.640
 2182POPC   NC331703  25.345  12.481   9.140
 2182POPC   PO431704  25.071  12.987   9.507
 2182POPC   GL131705  25.197  12.991   9.083
 2182POPC   GL231706  24.920  12.827   9.043
 2182POPC   C1A31707  25.323  12.898   8.641
 2182POPC   D2A31708  25.209  12.563   8.335
 2182POPC   C3A31709  25.095  12.626   7.881
 2182POPC   C4A31710  25.411  12.777   7.566
 2182POPC   C1B31711  24.856  13.125   8.704
 2182POPC   C2B31712  25.087  13.234   8.332
 2182POPC   C3B31713  25.248  13.109   7.939
 2182POPC   C4B31714  25.104  13.172   7.500
 2183POPC   NC331715   9.133  23.058   9.482
 2183POPC   PO431716   9.641  23.263   9.225
 2183POPC   GL131717   9.239  22.939   9.009
 2183POPC   GL231718   8.990  22.644   9.181
 2183POPC   C1A31719   8.792  22.943   8.797
 2183POPC   D2A31720   8.512  22.759   8.475
 2183POPC   C3A31721   8.586  22.898   8.060
 2183POPC   C4A31722   8.892  22.875   7.764
 2183POPC   C1B31723   8.980  22.479   8.738
 2183POPC   C2B31724   8.977  22.618   8.287
 2183POPC   C3B31725   9.219  22.493   7.886
 2183POPC   C4B31726   9.284  22.739   7.459
 2184POPC   NC331727  18.550  27.161   9.419
 2184POPC   PO431728  18.101  26.696   9.426
 2184POPC   GL131729  18.348  26.664   9.050
 2184POPC   GL231730  18.528  26.348   9.039
 2184POPC   C1A31731  18.557  26.891   8.716
 2184POPC   D2A31732  18.389  27.051   8.334
 2184POPC   C3A31733  18.606  27.084   7.927
 2184POPC   C4A31734  18.379  27.057   7.523
 2184POPC   C1B31735  18.717  26.399   8.623
 2184POPC   C2B31736  18.659  26.625   8.243
 2184POPC   C3B31737  18.435  26.611   7.843
 2184POPC   C4B31738  18.479  26.581   7.373
 2185POPC   NC331739  13.673  33.955   9.792
 2185POPC   PO431740  13.303  34.310   9.312
 2185POPC   GL131741  13.295  34.021   9.019
 2185POPC   GL231742  13.499  33.730   9.053
 2185POPC   C1A31743  13.524  34.018   8.643
 2185POPC   D2A31744  13.515  33.753   8.313
 2185POPC   C3A31745  13.588  33.984   7.935
 2185POPC   C4A31746  13.564  34.277   7.614
 2185POPC   C1B31747  13.901  33.695   8.778
 2185POPC   C2B31748  14.034  33.615   8.344
 2185POPC   C3B31749  14.060  33.838   7.938
 2185POPC   C4B31750  14.010  33.718   7.518
 2186POPC   NC331751  35.518  22.263   9.511
 2186POPC   PO431752  35.086  21.806   9.600
 2186POPC   GL131753  35.161  22.047   9.199
 2186POPC   GL231754  35.526  22.041   9.056
 2186POPC   C1A31755  35.132  22.175   8.777
 2186POPC   D2A31756  35.223  22.026   8.424
 2186POPC   C3A31757  35.031  22.197   8.065
 2186POPC   C4A31758  35.281  22.397   7.762
 2186POPC   C1B31759  35.705  22.149   8.654
 2186POPC   C2B31760  35.552  22.393   8.280
 2186POPC   C3B31761  35.791  22.429   7.955
 2186POPC   C4B31762  35.747  22.094   7.756
 2187POPC   NC331763   3.949   2.619   9.405
 2187POPC   PO431764   3.618   3.084   9.733
 2187POPC   GL131765   3.556   2.896   9.248
 2187POPC   GL231766   3.378   2.562   9.214
 2187POPC   C1A31767   3.753   2.805   8.815
 2187POPC   D2A31768   3.621   2.738   8.392
 2187POPC   C3A31769   3.888   2.642   8.033
 2187POPC   C4A31770   3.740   2.686   7.618
 2187POPC   C1B31771   3.409   2.420   8.769
 2187POPC   C2B31772   3.221   2.436   8.345
 2187POPC   C3B31773   3.346   2.574   7.920
 2187POPC   C4B31774   3.325   2.338   7.505
 2188POPC   NC331775  15.893  10.627   9.582
 2188POPC   PO431776  16.480  10.332   9.708
 2188POPC   GL131777  16.258  10.357   9.257
 2188POPC   GL231778  15.871  10.280   9.188
 2188POPC   C1A31779  16.140  10.520   8.823
 2188POPC   D2A31780  15.969  10.340   8.413
 2188POPC   C3A31781  16.195  10.462   8.064
 2188POPC   C4A31782  16.183  10.598   7.648
 2188POPC   C1B31783  15.627  10.404   8.789
 2188POPC   C2B31784  15.604  10.691   8.404
 2188POPC   C3B31785  15.658  10.531   7.969
 2188POPC   C4B31786  15.699  10.703   7.557
 2189POPC   NC331787  36.789  31.109   9.308
 2189POPC   PO431788  37.398  31.177   9.588
 2189POPC   GL131789  37.329  31.474   9.231
 2189POPC   GL231790  37.088  31.775   9.263
 2189POPC   C1A31791  37.185  31.400   8.807
 2189POPC   D2A31792  37.181  31.175   8.426
 2189POPC   C3A31793  36.954  31.297   8.084
 2189POPC   C4A31794  36.919  31.176   7.679
 2189POPC   C1B31795  37.084  31.900   8.821
 2189POPC   C2B31796  37.009  31.698   8.421
 2189POPC   C3B31797  36.984  31.800   7.976
 2189POPC   C4B31798  37.142  31.617   7.584
 2190POPC   NC331799  13.966  23.381   9.456
 2190POPC   PO431800  13.272  23.425   9.452
 2190POPC   GL131801  13.422  23.711   9.140
 2190POPC   GL231802  13.713  23.877   9.196
 2190POPC   C1A31803  13.383  23.874   8.750
 2190POPC   D2A31804  13.531  23.661   8.390
 2190POPC   C3A31805  13.418  23.757   7.988
 2190POPC   C4A31806  13.651  24.020   7.690
 2190POPC   C1B31807  13.797  23.552   8.849
 2190POPC   C2B31808  13.806  23.241   8.508
 2190POPC   C3B31809  13.807  23.340   8.046
 2190POPC   C4B31810  13.725  23.520   7.634
 2191POPC   NC331811  26.293  13.883   9.394
 2191POPC   PO431812  25.987  13.245   9.510
 2191POPC   GL131813  26.107  13.401   9.134
 2191POPC   GL231814  25.762  13.562   9.042
 2191POPC   C1A31815  26.172  13.571   8.739
 2191POPC   D2A31816  25.819  13.613   8.479
 2191POPC   C3A31817  25.936  13.697   8.095
 2191POPC   C4A31818  26.169  13.625   7.775
 2191POPC   C1B31819  25.774  13.199   8.751
 2191POPC   C2B31820  25.692  13.086   8.334
 2191POPC   C3B31821  25.839  13.193   7.945
 2191POPC   C4B31822  25.610  13.248   7.598
 2192POPC   NC331823  39.153  30.922   9.606
 2192POPC   PO431824  39.062  30.205   9.512
 2192POPC   GL131825  39.012  30.581   9.224
 2192POPC   GL231826  39.294  30.773   9.126
 2192POPC   C1A31827  38.970  30.688   8.757
 2192POPC   D2A31828  39.174  30.651   8.342
 2192POPC   C3A31829  39.002  30.706   7.915
 2192POPC   C4A31830  39.053  30.752   7.441
 2192POPC   C1B31831  39.508  30.780   8.737
 2192POPC   C2B31832  39.508  31.066   8.393
 2192POPC   C3B31833  39.453  30.932   7.980
 2192POPC   C4B31834  39.581  30.522   7.881
 2193POPC   NC331835  12.769  35.269   9.625
 2193POPC   PO431836  12.866  35.908   9.601
 2193POPC   GL131837  12.798  35.605   9.211
 2193POPC   GL231838  12.693  35.221   9.140
 2193POPC   C1A31839  12.782  35.548   8.749
 2193POPC   D2A31840  13.015  35.625   8.357
 2193POPC   C3A31841  12.839  35.486   7.946
 2193POPC   C4A31842  12.679  35.207   7.630
 2193POPC   C1B31843  12.842  35.040   8.765
 2193POPC   C2B31844  12.699  35.149   8.348
 2193POPC   C3B31845  12.934  34.989   8.014
 2193POPC   C4B31846  13.159  34.939   7.675
 2194POPC   NC331847  16.469  28.078   9.459
 2194POPC   PO431848  16.886  28.563   9.420
 2194POPC   GL131849  16.671  28.489   9.061
 2194POPC   GL231850  16.332  28.521   9.222
 2194POPC   C1A31851  16.855  28.421   8.641
 2194POPC   D2A31852  17.036  28.183   8.292
 2194POPC   C3A31853  16.859  28.405   7.904
 2194POPC   C4A31854  16.916  28.628   7.528
 2194POPC   C1B31855  16.241  28.613   8.792
 2194POPC   C2B31856  16.452  28.656   8.399
 2194POPC   C3B31857  16.387  28.608   7.965
 2194POPC   C4B31858  16.405  28.656   7.524
 2195POPC   NC331859   9.999  11.806   9.457
 2195POPC   PO431860   9.436  12.024   9.485
 2195POPC   GL131861   9.666  12.036   9.114
 2195POPC   GL231862  10.019  12.133   9.081
 2195POPC   C1A31863   9.609  12.231   8.750
 2195POPC   D2A31864   9.576  11.939   8.443
 2195POPC   C3A31865   9.765  12.077   8.126
 2195POPC   C4A31866   9.789  11.951   7.725
 2195POPC   C1B31867  10.044  11.982   8.662
 2195POPC   C2B31868  10.239  12.156   8.314
 2195POPC   C3B31869  10.213  12.149   7.893
 2195POPC   C4B31870  10.120  12.280   7.491
 2196POPC   NC331871   0.625   3.052   9.504
 2196POPC   PO431872   0.296   2.369   9.461
 2196POPC   GL131873   0.427   2.569   9.052
 2196POPC   GL231874   0.552   2.863   9.057
 2196POPC   C1A31875   0.221   2.870   8.697
 2196POPC   D2A31876   0.422   3.061   8.341
 2196POPC   C3A31877   0.519   2.770   7.980
 2196POPC   C4A31878   0.458   2.797   7.532
 2196POPC   C1B31879   0.743   2.793   8.678
 2196POPC   C2B31880   0.917   2.942   8.334
 2196POPC   C3B31881   0.847   3.153   8.024
 2196POPC   C4B31882   0.919   3.013   7.653
 2197POPC   NC331883  20.591  12.850   9.552
 2197POPC   PO431884  20.015  12.922   9.508
 2197POPC   GL131885  20.282  13.021   9.164
 2197POPC   GL231886  20.389  12.679   9.086
 2197POPC   C1A31887  20.406  13.068   8.724
 2197POPC   D2A31888  20.514  12.845   8.329
 2197POPC   C3A31889  20.663  13.125   7.958
 2197POPC   C4A31890  20.755  13.071   7.486
 2197POPC   C1B31891  20.789  12.707   8.797
 2197POPC   C2B31892  20.973  12.564   8.359
 2197POPC   C3B31893  20.781  12.620   7.920
 2197POPC   C4B31894  20.849  12.569   7.446
 2198POPC   NC331895  44.707  39.671   9.452
 2198POPC   PO431896  44.636  38.959   9.597
 2198POPC   GL131897  44.656  39.192   9.201
 2198POPC   GL231898  44.920  39.355   9.131
 2198POPC   C1A31899  44.520  39.173   8.760
 2198POPC   D2A31900  44.422  38.892   8.401
 2198POPC   C3A31901  44.479  39.096   7.973
 2198POPC   C4A31902  44.288  38.983   7.554
 2198POPC   C1B31903  44.872  39.540   8.739
 2198POPC   C2B31904  44.576  39.598   8.443
 2198POPC   C3B31905  44.687  39.586   8.028
 2198POPC   C4B31906  44.770  39.398   7.624
 2199POPC   NC331907  12.268  36.755   9.478
 2199POPC   PO431908  11.549  36.905   9.396
 2199POPC   GL131909  11.928  37.039   9.164
 2199POPC   GL231910  12.121  36.755   9.009
 2199POPC   C1A31911  11.852  37.053   8.717
 2199POPC   D2A31912  11.996  36.829   8.381
 2199POPC   C3A31913  11.961  37.080   8.038
 2199POPC   C4A31914  11.752  36.940   7.744
 2199POPC   C1B31915  12.365  36.933   8.733
 2199POPC   C2B31916  12.518  36.776   8.374
 2199POPC   C3B31917  12.323  36.730   7.999
 2199POPC   C4B31918  12.406  36.767   7.617
 2200POPC   NC331919  37.413  28.257   9.527
 2200POPC   PO431920  37.994  28.557   9.773
 2200POPC   GL131921  37.782  28.484   9.280
 2200POPC   GL231922  37.929  28.294   9.006
 2200POPC   C1A31923  37.536  28.574   8.876
 2200POPC   D2A31924  37.350  28.492   8.492
 2200POPC   C3A31925  37.482  28.235   8.177
 2200POPC   C4A31926  37.417  28.345   7.781
 2200POPC   C1B31927  37.856  28.296   8.582
 2200POPC   C2B31928  37.983  28.131   8.205
 2200POPC   C3B31929  37.860  28.108   7.793
 2200POPC   C4B31930  38.020  27.985   7.410
 2201POPC   NC331931  21.266  43.332   9.358
 2201POPC   PO431932  21.570  42.679   9.338
 2201POPC   GL131933  21.547  43.006   9.045
 2201POPC   GL231934  21.790  43.218   9.236
 2201POPC   C1A31935  21.284  43.218   8.701
 2201POPC   D2A31936  21.142  43.403   8.299
 2201POPC   C3A31937  21.248  43.171   7.952
 2201POPC   C4A31938  21.577  42.912   7.945
 2201POPC   C1B31939  21.802  43.384   8.823
 2201POPC   C2B31940  21.735  43.112   8.475
 2201POPC   C3B31941  21.643  43.377   8.191
 2201POPC   C4B31942  21.696  43.465   7.796
 2202POPC   NC331943  39.866  35.840   9.872
 2202POPC   PO431944  40.210  36.346   9.591
 2202POPC   GL131945  40.002  36.282   9.180
 2202POPC   GL231946  40.096  35.959   9.042
 2202POPC   C1A31947  39.745  36.185   8.782
 2202POPC   D2A31948  39.953  36.046   8.415
 2202POPC   C3A31949  39.850  36.362   8.068
 2202POPC   C4A31950  39.879  36.275   7.626
 2202POPC   C1B31951  40.280  36.249   8.749
 2202POPC   C2B31952  40.402  36.272   8.326
 2202POPC   C3B31953  40.215  36.033   7.981
 2202POPC   C4B31954  40.383  36.211   7.669
 2203POPC   NC331955  21.198  27.286   9.738
 2203POPC   PO431956  21.583  27.826   9.515
 2203POPC   GL131957  21.492  27.495   9.207
 2203POPC   GL231958  21.166  27.640   9.172
 2203POPC   C1A31959  21.347  27.463   8.743
 2203POPC   D2A31960  21.476  27.397   8.307
 2203POPC   C3A31961  21.486  27.501   7.843
 2203POPC   C4A31962  21.546  27.465   7.379
 2203POPC   C1B31963  21.283  27.985   8.823
 2203POPC   C2B31964  21.319  28.237   8.426
 2203POPC   C3B31965  21.121  28.175   8.034
 2203POPC   C4B31966  21.113  27.842   7.754
 2204POPC   NC331967  19.598   6.249   9.555
 2204POPC   PO431968  19.893   5.736   9.606
 2204POPC   GL131969  19.732   5.861   9.185
 2204POPC   GL231970  19.411   6.035   9.100
 2204POPC   C1A31971  19.953   5.952   8.791
 2204POPC   D2A31972  20.103   5.704   8.453
 2204POPC   C3A31973  20.116   5.796   8.025
 2204POPC   C4A31974  19.820   5.687   7.746
 2204POPC   C1B31975  19.478   5.822   8.674
 2204POPC   C2B31976  19.652   5.893   8.249
 2204POPC   C3B31977  19.783   6.176   7.914
 2204POPC   C4B31978  19.676   6.264   7.512
 2205POPC   NC331979   7.457  23.397   9.403
 2205POPC   PO431980   7.537  24.015   9.412
 2205POPC   GL131981   7.326  23.776   9.056
 2205POPC   GL231982   7.104  23.471   9.077
 2205POPC   C1A31983   7.226  23.896   8.620
 2205POPC   D2A31984   7.135  23.951   8.180
 2205POPC   C3A31985   7.292  24.038   7.754
 2205POPC   C4A31986   7.310  23.889   7.310
 2205POPC   C1B31987   7.257  23.395   8.679
 2205POPC   C2B31988   7.267  23.429   8.238
 2205POPC   C3B31989   7.215  23.543   7.826
 2205POPC   C4B31990   7.613  23.634   7.627
 2206POPC   NC331991   5.261  38.597   9.480
 2206POPC   PO431992   4.732  38.179   9.620
 2206POPC   GL131993   4.854  38.361   9.226
 2206POPC   GL231994   4.849  38.704   9.171
 2206POPC   C1A31995   5.011  38.325   8.790
 2206POPC   D2A31996   4.970  38.052   8.418
 2206POPC   C3A31997   5.004  38.298   8.033
 2206POPC   C4A31998   5.201  38.298   7.617
 2206POPC   C1B31999   5.168  38.810   8.850
 2206POPC   C2B32000   5.160  38.675   8.428
 2206POPC   C3B32001   5.248  38.751   8.018
 2206POPC   C4B32002   4.940  38.733   7.691
 2207POPC   NC332003  10.332  39.312   9.776
 2207POPC   PO432004  10.858  39.434   9.447
 2207POPC   GL132005  10.764  39.163   9.134
 2207POPC   GL232006  10.418  39.105   9.136
 2207POPC   C1A32007  10.710  39.279   8.714
 2207POPC   D2A32008  10.937  39.332   8.346
 2207POPC   C3A32009  10.782  39.283   7.932
 2207POPC   C4A32010  10.354  39.385   7.871
 2207POPC   C1B32011  10.216  39.138   8.734
 2207POPC   C2B32012  10.425  39.115   8.338
 2207POPC   C3B32013  10.402  38.902   8.001
 2207POPC   C4B32014  10.106  38.910   7.657
 2208POPC   NC332015   4.063  21.477   9.346
 2208POPC   PO432016   4.519  21.175   9.723
 2208POPC   GL132017   4.530  21.129   9.198
 2208POPC   GL232018   4.203  21.060   9.091
 2208POPC   C1A32019   4.379  21.331   8.731
 2208POPC   D2A32020   4.501  21.677   8.518
 2208POPC   C3A32021   4.393  21.564   8.157
 2208POPC   C4A32022   4.184  21.587   7.819
 2208POPC   C1B32023   3.965  21.017   8.744
 2208POPC   C2B32024   3.912  21.321   8.431
 2208POPC   C3B32025   4.072  21.162   8.073
 2208POPC   C4B32026   4.192  21.104   7.671
 2209POPC   NC332027   9.769  38.671   9.443
 2209POPC   PO432028   9.914  37.989   9.392
 2209POPC   GL132029  10.002  38.317   9.107
 2209POPC   GL232030  10.178  38.650   9.137
 2209POPC   C1A32031   9.664  38.409   8.812
 2209POPC   D2A32032   9.432  38.618   8.485
 2209POPC   C3A32033   9.562  38.527   8.078
 2209POPC   C4A32034   9.500  38.729   7.708
 2209POPC   C1B32035  10.146  38.608   8.718
 2209POPC   C2B32036   9.970  38.371   8.402
 2209POPC   C3B32037  10.070  38.515   8.038
 2209POPC   C4B32038   9.940  38.399   7.663
 2210POPC   NC332039  25.382  26.470   9.616
 2210POPC   PO432040  25.537  27.020   9.391
 2210POPC   GL132041  25.305  26.706   9.144
 2210POPC   GL232042  25.573  26.429   9.158
 2210POPC   C1A32043  25.014  26.821   8.757
 2210POPC   D2A32044  24.796  26.829   8.323
 2210POPC   C3A32045  25.051  26.807   7.952
 2210POPC   C4A32046  25.525  26.930   7.922
 2210POPC   C1B32047  25.406  26.417   8.742
 2210POPC   C2B32048  25.300  26.586   8.340
 2210POPC   C3B32049  25.426  26.428   7.926
 2210POPC   C4B32050  25.250  26.327   7.502
 2211POPC   NC332051  36.320  32.439   9.912
 2211POPC   PO432052  35.854  31.968   9.746
 2211POPC   GL132053  36.083  32.262   9.405
 2211POPC   GL232054  35.888  32.041   9.242
 2211POPC   C1A32055  36.217  32.324   8.920
 2211POPC   D2A32056  36.331  32.424   8.440
 2211POPC   C3A32057  36.195  32.189   8.051
 2211POPC   C4A32058  35.915  32.387   7.764
 2211POPC   C1B32059  35.920  31.895   8.862
 2211POPC   C2B32060  35.948  32.096   8.496
 2211POPC   C3B32061  35.737  31.910   8.167
 2211POPC   C4B32062  35.699  31.908   7.771
 2212POPC   NC332063  15.526  27.878   9.475
 2212POPC   PO432064  15.238  28.526   9.392
 2212POPC   GL132065  15.467  28.438   9.022
 2212POPC   GL232066  15.564  28.127   9.050
 2212POPC   C1A32067  15.363  28.440   8.611
 2212POPC   D2A32068  15.030  28.178   8.523
 2212POPC   C3A32069  15.040  28.014   8.131
 2212POPC   C4A32070  14.905  28.357   7.855
 2212POPC   C1B32071  15.454  27.929   8.696
 2212POPC   C2B32072  15.639  27.933   8.301
 2212POPC   C3B32073  15.506  28.138   7.948
 2212POPC   C4B32074  15.247  27.958   7.646
 2213POPC   NC332075   9.564  32.202   9.740
 2213POPC   PO432076  10.022  32.701   9.929
 2213POPC   GL132077  10.123  32.381   9.488
 2213POPC   GL232078   9.833  32.180   9.323
 2213POPC   C1A32079  10.111  32.365   8.968
 2213POPC   D2A32080   9.957  32.418   8.546
 2213POPC   C3A32081  10.113  32.178   8.173
 2213POPC   C4A32082  10.013  32.275   7.729
 2213POPC   C1B32083   9.596  32.115   8.933
 2213POPC   C2B32084   9.493  32.141   8.478
 2213POPC   C3B32085   9.599  32.204   8.051
 2213POPC   C4B32086   9.523  32.488   7.742
 2214POPC   NC332087  43.682  42.531   9.558
 2214POPC   PO432088  44.105  42.094   9.539
 2214POPC   GL132089  43.923  41.997   9.153
 2214POPC   GL232090  43.738  42.282   9.120
 2214POPC   C1A32091  43.921  42.054   8.710
 2214POPC   D2A32092  43.934  42.358   8.413
 2214POPC   C3A32093  43.789  42.214   8.060
 2214POPC   C4A32094  43.885  42.382   7.671
 2214POPC   C1B32095  43.530  42.474   8.763
 2214POPC   C2B32096  43.462  42.578   8.325
 2214POPC   C3B32097  43.465  42.582   7.890
 2214POPC   C4B32098  43.443  42.593   7.430
 2215POPC   NC332099   3.668   4.317   9.468
 2215POPC   PO432100   3.313   4.786   9.368
 2215POPC   GL132101   3.553   4.620   9.001
 2215POPC   GL232102   3.913   4.499   9.046
 2215POPC   C1A32103   3.504   4.447   8.574
 2215POPC   D2A32104   3.415   4.143   8.248
 2215POPC   C3A32105   3.420   4.122   7.814
 2215POPC   C4A32106   3.619   4.456   7.599
 2215POPC   C1B32107   3.849   4.107   8.788
 2215POPC   C2B32108   3.823   3.873   8.376
 2215POPC   C3B32109   3.919   4.067   7.981
 2215POPC   C4B32110   3.836   4.011   7.543
 2216POPC   NC332111  42.553  16.567   9.544
 2216POPC   PO432112  41.963  16.713   9.529
 2216POPC   GL132113  42.202  16.746   9.169
 2216POPC   GL232114  42.499  16.954   9.179
 2216POPC   C1A32115  42.065  16.737   8.755
 2216POPC   D2A32116  42.253  16.570   8.385
 2216POPC   C3A32117  42.094  16.617   7.985
 2216POPC   C4A32118  42.088  16.800   7.585
 2216POPC   C1B32119  42.589  16.787   8.774
 2216POPC   C2B32120  42.560  16.992   8.361
 2216POPC   C3B32121  42.574  16.791   7.997
 2216POPC   C4B32122  42.573  17.039   7.651
 2217POPC   NC332123  27.769  22.476   9.625
 2217POPC   PO432124  27.407  23.007   9.627
 2217POPC   GL132125  27.561  23.159   9.208
 2217POPC   GL232126  27.250  23.284   9.068
 2217POPC   C1A32127  27.777  22.992   8.834
 2217POPC   D2A32128  27.675  22.636   8.547
 2217POPC   C3A32129  27.568  22.706   8.122
 2217POPC   C4A32130  27.941  22.809   7.844
 2217POPC   C1B32131  27.364  23.181   8.612
 2217POPC   C2B32132  27.623  23.214   8.209
 2217POPC   C3B32133  27.498  23.087   7.769
 2217POPC   C4B32134  27.375  23.258   7.384
 2218POPC   NC332135  44.811  23.004   9.506
 2218POPC   PO432136  44.384  22.424   9.590
 2218POPC   GL132137  44.341  22.701   9.184
 2218POPC   GL232138  44.409  23.092   9.208
 2218POPC   C1A32139  44.388  22.523   8.715
 2218POPC   D2A32140  44.477  22.377   8.267
 2218POPC   C3A32141  44.839  22.521   8.063
 2218POPC   C4A32142  44.950  22.739   7.688
 2218POPC   C1B32143  44.347  23.037   8.774
 2218POPC   C2B32144  44.350  22.895   8.343
 2218POPC   C3B32145  44.470  22.866   7.913
 2218POPC   C4B32146  44.438  23.179   7.586
 2219POPC   NC332147   1.914   8.189   9.580
 2219POPC   PO432148   2.496   8.517   9.494
 2219POPC   GL132149   2.368   8.196   9.120
 2219POPC   GL232150   2.081   8.006   9.144
 2219POPC   C1A32151   2.171   8.085   8.663
 2219POPC   D2A32152   2.287   8.154   8.254
 2219POPC   C3A32153   2.132   8.189   7.884
 2219POPC   C4A32154   1.759   8.378   7.788
 2219POPC   C1B32155   1.781   7.829   8.869
 2219POPC   C2B32156   1.654   8.058   8.519
 2219POPC   C3B32157   1.718   7.996   8.103
 2219POPC   C4B32158   1.601   7.880   7.695
 2220POPC   NC332159  26.800   2.216   9.393
 2220POPC   PO432160  26.979   1.610   9.501
 2220POPC   GL132161  26.743   1.763   9.151
 2220POPC   GL232162  27.006   1.934   9.019
 2220POPC   C1A32163  26.628   1.741   8.699
 2220POPC   D2A32164  26.724   1.541   8.272
 2220POPC   C3A32165  26.677   1.832   7.913
 2220POPC   C4A32166  26.868   2.220   7.983
 2220POPC   C1B32167  27.117   1.598   8.752
 2220POPC   C2B32168  27.252   1.636   8.301
 2220POPC   C3B32169  27.224   1.845   7.895
 2220POPC   C4B32170  27.174   1.703   7.463
 2221POPC   NC332171  15.090  43.679   9.415
 2221POPC   PO432172  15.652  43.693   9.454
 2221POPC   GL132173  15.640  43.874   9.104
 2221POPC   GL232174  15.320  43.978   9.061
 2221POPC   C1A32175  15.574  43.734   8.679
 2221POPC   D2A32176  15.227  43.761   8.406
 2221POPC   C3A32177  15.353  43.884   8.026
 2221POPC   C4A32178  15.571  43.757   7.687
 2221POPC   C1B32179  15.091  44.172   8.727
 2221POPC   C2B32180  14.916  44.193   8.316
 2221POPC   C3B32181  14.994  44.230   7.890
 2221POPC   C4B32182  15.335  44.224   7.636
 2222POPC   NC332183   5.901  16.679   9.450
 2222POPC   PO432184   5.459  17.182   9.547
 2222POPC   GL132185   5.535  16.935   9.127
 2222POPC   GL232186   5.895  16.799   8.981
 2222POPC   C1A32187   5.490  16.682   8.732
 2222POPC   D2A32188   5.801  16.747   8.454
 2222POPC   C3A32189   5.713  16.590   8.064
 2222POPC   C4A32190   5.926  16.531   7.676
 2222POPC   C1B32191   6.196  16.946   8.737
 2222POPC   C2B32192   6.322  16.909   8.359
 2222POPC   C3B32193   6.175  16.855   7.977
 2222POPC   C4B32194   6.189  17.063   7.618
 2223POPC   NC332195  35.137  28.409   9.540
 2223POPC   PO432196  35.216  29.006   9.361
 2223POPC   GL132197  35.253  28.680   9.077
 2223POPC   GL232198  35.343  28.951   8.856
 2223POPC   C1A32199  35.320  28.483   8.674
 2223POPC   D2A32200  35.177  28.680   8.278
 2223POPC   C3A32201  35.171  28.481   7.868
 2223POPC   C4A32202  35.438  28.170   7.699
 2223POPC   C1B32203  35.733  28.814   8.666
 2223POPC   C2B32204  35.798  28.479   8.469
 2223POPC   C3B32205  35.657  28.484   8.071
 2223POPC   C4B32206  35.932  28.683   7.799
 2224POPC   NC332207  11.664  35.597   9.510
 2224POPC   PO432208  12.325  35.377   9.521
 2224POPC   GL132209  12.177  35.245   9.116
 2224POPC   GL232210  11.836  35.313   9.114
 2224POPC   C1A32211  12.148  35.469   8.720
 2224POPC   D2A32212  11.990  35.512   8.301
 2224POPC   C3A32213  12.287  35.302   8.025
 2224POPC   C4A32214  12.177  35.155   7.638
 2224POPC   C1B32215  11.644  35.303   8.709
 2224POPC   C2B32216  11.628  35.077   8.303
 2224POPC   C3B32217  11.739  35.251   7.899
 2224POPC   C4B32218  11.965  35.640   7.783
 2225POPC   NC332219   3.930  14.017   9.417
 2225POPC   PO432220   3.462  13.485   9.486
 2225POPC   GL132221   3.575  13.731   9.162
 2225POPC   GL232222   3.257  13.813   9.112
 2225POPC   C1A32223   3.796  13.741   8.773
 2225POPC   D2A32224   3.795  13.436   8.437
 2225POPC   C3A32225   3.836  13.709   8.119
 2225POPC   C4A32226   3.768  13.965   7.752
 2225POPC   C1B32227   3.331  13.559   8.742
 2225POPC   C2B32228   3.410  13.751   8.371
 2225POPC   C3B32229   3.341  13.766   7.941
 2225POPC   C4B32230   2.999  14.076   7.874
 2226POPC   NC332231   6.497  40.478   9.339
 2226POPC   PO432232   6.871  39.937   9.598
 2226POPC   GL132233   6.759  40.025   9.182
 2226POPC   GL232234   6.739  39.702   9.010
 2226POPC   C1A32235   6.859  40.175   8.781
 2226POPC   D2A32236   6.777  39.954   8.408
 2226POPC   C3A32237   6.893  40.133   8.031
 2226POPC   C4A32238   6.781  39.828   7.710
 2226POPC   C1B32239   6.409  39.910   8.791
 2226POPC   C2B32240   6.255  39.991   8.407
 2226POPC   C3B32241   6.396  39.935   8.014
 2226POPC   C4B32242   6.489  40.235   7.733
 2227POPC   NC332243  32.976  15.960   9.740
 2227POPC   PO432244  33.293  16.484   9.861
 2227POPC   GL132245  33.118  16.326   9.417
 2227POPC   GL232246  33.247  16.551   9.239
 2227POPC   C1A32247  33.161  16.052   9.005
 2227POPC   D2A32248  33.007  15.995   8.550
 2227POPC   C3A32249  33.222  15.959   8.123
 2227POPC   C4A32250  33.029  15.945   7.697
 2227POPC   C1B32251  33.350  16.527   8.841
 2227POPC   C2B32252  33.454  16.264   8.525
 2227POPC   C3B32253  33.454  16.439   8.140
 2227POPC   C4B32254  33.526  16.388   7.726
 2228POPC   NC332255  36.485   9.423   9.410
 2228POPC   PO432256  36.188   9.945   9.571
 2228POPC   GL132257  36.120   9.747   9.197
 2228POPC   GL232258  35.957   9.461   9.312
 2228POPC   C1A32259  36.283   9.767   8.777
 2228POPC   D2A32260  36.059   9.860   8.399
 2228POPC   C3A32261  36.228  10.026   8.047
 2228POPC   C4A32262  36.400   9.871   7.693
 2228POPC   C1B32263  35.941   9.372   8.859
 2228POPC   C2B32264  35.847   9.398   8.414
 2228POPC   C3B32265  35.994   9.546   7.985
 2228POPC   C4B32266  35.908   9.886   7.651
 2229POPC   NC332267  32.608  44.298   9.557
 2229POPC   PO432268  31.874  44.377   9.462
 2229POPC   GL132269  32.083  44.215   9.100
 2229POPC   GL232270  32.340  44.029   9.183
 2229POPC   C1A32271  32.029  43.965   8.740
 2229POPC   D2A32272  32.212  43.753   8.417
 2229POPC   C3A32273  31.966  43.769   8.073
 2229POPC   C4A32274  32.061  43.964   7.717
 2229POPC   C1B32275  32.518  44.073   8.759
 2229POPC   C2B32276  32.708  43.873   8.371
 2229POPC   C3B32277  32.507  43.959   7.994
 2229POPC   C4B32278  32.594  44.152   7.608
 2230POPC   NC332279  40.363   9.810   9.458
 2230POPC   PO432280  40.896   9.429   9.443
 2230POPC   GL132281  40.729   9.304   9.070
 2230POPC   GL232282  40.382   9.367   9.095
 2230POPC   C1A32283  40.884   9.418   8.678
 2230POPC   D2A32284  41.030   9.337   8.268
 2230POPC   C3A32285  40.869   9.586   7.929
 2230POPC   C4A32286  40.799  10.066   7.846
 2230POPC   C1B32287  40.329   9.462   8.706
 2230POPC   C2B32288  40.533   9.682   8.379
 2230POPC   C3B32289  40.406   9.773   7.993
 2230POPC   C4B32290  40.144   9.552   7.802
 2231POPC   NC332291   6.558   7.920   9.579
 2231POPC   PO432292   6.794   8.584   9.644
 2231POPC   GL132293   6.739   8.328   9.252
 2231POPC   GL232294   6.394   8.213   9.166
 2231POPC   C1A32295   6.754   8.243   8.796
 2231POPC   D2A32296   7.005   8.243   8.424
 2231POPC   C3A32297   6.798   8.433   8.103
 2231POPC   C4A32298   6.693   8.214   7.744
 2231POPC   C1B32299   6.254   8.048   8.755
 2231POPC   C2B32300   6.498   8.014   8.344
 2231POPC   C3B32301   6.287   7.993   7.914
 2231POPC   C4B32302   6.223   8.327   7.565
 2232POPC   NC332303  14.081  17.315   9.508
 2232POPC   PO432304  14.627  17.455   9.125
 2232POPC   GL132305  14.248  17.322   9.035
 2232POPC   GL232306  14.073  17.639   9.109
 2232POPC   C1A32307  14.031  17.294   8.676
 2232POPC   D2A32308  13.933  17.190   8.257
 2232POPC   C3A32309  14.292  17.359   7.990
 2232POPC   C4A32310  14.683  17.143   7.807
 2232POPC   C1B32311  13.883  17.788   8.737
 2232POPC   C2B32312  13.968  17.686   8.348
 2232POPC   C3B32313  13.870  17.661   7.968
 2232POPC   C4B32314  14.088  17.749   7.588
 2233POPC   NC332315  15.550  23.833   9.672
 2233POPC   PO432316  16.140  24.099   9.681
 2233POPC   GL132317  16.073  23.912   9.248
 2233POPC   GL232318  15.831  23.608   9.196
 2233POPC   C1A32319  16.213  23.789   8.823
 2233POPC   D2A32320  16.060  23.738   8.400
 2233POPC   C3A32321  16.255  23.773   7.981
 2233POPC   C4A32322  15.989  23.844   7.608
 2233POPC   C1B32323  15.568  23.501   8.806
 2233POPC   C2B32324  15.577  23.515   8.326
 2233POPC   C3B32325  15.876  23.428   7.955
 2233POPC   C4B32326  15.948  23.348   7.496
 2234POPC   NC332327  24.275   1.349   9.921
 2234POPC   PO432328  24.564   1.702   9.398
 2234POPC   GL132329  24.772   1.689   9.031
 2234POPC   GL232330  24.791   2.061   9.060
 2234POPC   C1A32331  24.558   1.585   8.646
 2234POPC   D2A32332  24.376   1.425   8.261
 2234POPC   C3A32333  24.285   1.763   7.944
 2234POPC   C4A32334  24.403   1.799   7.521
 2234POPC   C1B32335  24.788   2.044   8.631
 2234POPC   C2B32336  24.697   1.883   8.211
 2234POPC   C3B32337  24.819   1.971   7.783
 2234POPC   C4B32338  24.936   2.355   7.578
 2235POPC   NC332339   1.674  42.168   9.614
 2235POPC   PO432340   2.156  42.680   9.432
 2235POPC   GL132341   1.943  42.508   9.093
 2235POPC   GL232342   1.936  42.191   9.148
 2235POPC   C1A32343   2.201  42.296   8.745
 2235POPC   D2A32344   2.375  42.349   8.365
 2235POPC   C3A32345   2.290  42.089   8.045
 2235POPC   C4A32346   1.970  42.161   7.771
 2235POPC   C1B32347   1.766  42.064   8.719
 2235POPC   C2B32348   1.864  42.064   8.317
 2235POPC   C3B32349   1.586  41.943   8.017
 2235POPC   C4B32350   1.514  42.062   7.579
 2236POPC   NC332351   2.087   0.804   9.647
 2236POPC   PO432352   2.202   1.430   9.782
 2236POPC   GL132353   2.061   1.171   9.309
 2236POPC   GL232354   2.247   1.007   9.047
 2236POPC   C1A32355   1.769   1.100   8.911
 2236POPC   D2A32356   1.688   0.864   8.530
 2236POPC   C3A32357   1.912   0.999   8.153
 2236POPC   C4A32358   1.947   1.226   7.761
 2236POPC   C1B32359   2.217   0.990   8.597
 2236POPC   C2B32360   2.410   0.861   8.227
 2236POPC   C3B32361   2.302   0.832   7.798
 2236POPC   C4B32362   2.202   0.970   7.371
 2237POPC   NC332363  17.823  29.161   9.487
 2237POPC   PO432364  18.526  29.361   9.484
 2237POPC   GL132365  18.390  29.195   9.077
 2237POPC   GL232366  18.041  29.172   9.043
 2237POPC   C1A32367  18.323  29.006   8.655
 2237POPC   D2A32368  18.263  28.819   8.269
 2237POPC   C3A32369  18.492  29.033   7.922
 2237POPC   C4A32370  18.346  29.239   7.527
 2237POPC   C1B32371  17.983  29.394   8.693
 2237POPC   C2B32372  18.106  29.321   8.311
 2237POPC   C3B32373  18.012  29.158   7.969
 2237POPC   C4B32374  17.872  29.104   7.610
 2238POPC   NC332375  17.940   2.776   9.465
 2238POPC   PO432376  18.582   2.465   9.592
 2238POPC   GL132377  18.279   2.491   9.218
 2238POPC   GL232378  18.251   2.840   9.043
 2238POPC   C1A32379  18.123   2.439   8.784
 2238POPC   D2A32380  18.360   2.624   8.453
 2238POPC   C3A32381  18.303   2.550   8.058
 2238POPC   C4A32382  18.113   2.553   7.700
 2238POPC   C1B32383  18.005   2.955   8.633
 2238POPC   C2B32384  17.977   2.951   8.156
 2238POPC   C3B32385  18.277   3.042   7.816
 2238POPC   C4B32386  18.532   3.168   7.466
 2239POPC   NC332387   2.931  30.495   9.485
 2239POPC   PO432388   2.623  31.140   9.637
 2239POPC   GL132389   2.652  30.799   9.190
 2239POPC   GL232390   2.691  30.486   9.020
 2239POPC   C1A32391   2.709  30.939   8.742
 2239POPC   D2A32392   2.933  31.147   8.427
 2239POPC   C3A32393   2.730  31.043   8.066
 2239POPC   C4A32394   2.920  30.818   7.768
 2239POPC   C1B32395   2.859  30.483   8.580
 2239POPC   C2B32396   2.738  30.514   8.131
 2239POPC   C3B32397   2.836  30.313   7.716
 2239POPC   C4B32398   2.642  30.146   7.326
 2240POPC   NC332399  27.095  14.202   9.355
 2240POPC   PO432400  26.611  14.689   9.373
 2240POPC   GL132401  26.835  14.539   9.068
 2240POPC   GL232402  26.978  14.789   8.997
 2240POPC   C1A32403  26.826  14.256   8.714
 2240POPC   D2A32404  26.623  14.108   8.342
 2240POPC   C3A32405  26.827  14.274   8.005
 2240POPC   C4A32406  26.967  14.239   7.590
 2240POPC   C1B32407  27.251  14.584   8.743
 2240POPC   C2B32408  27.207  14.442   8.346
 2240POPC   C3B32409  27.154  14.651   7.937
 2240POPC   C4B32410  26.772  14.733   7.678
 2241POPC   NC332411  16.992  42.215   9.355
 2241POPC   PO432412  17.525  42.472   9.521
 2241POPC   GL132413  17.420  42.381   9.088
 2241POPC   GL232414  17.190  42.652   9.005
 2241POPC   C1A32415  17.632  42.243   8.700
 2241POPC   D2A32416  17.751  42.460   8.347
 2241POPC   C3A32417  17.551  42.371   7.988
 2241POPC   C4A32418  17.635  42.059   7.701
 2241POPC   C1B32419  17.249  42.535   8.555
 2241POPC   C2B32420  17.261  42.087   8.365
 2241POPC   C3B32421  17.175  41.926   7.946
 2241POPC   C4B32422  17.137  42.303   7.703
 2242POPC   NC332423   3.680   0.265   9.772
 2242POPC   PO432424   3.227   0.668   9.560
 2242POPC   GL132425   3.587   0.567   9.347
 2242POPC   GL232426   3.628   0.222   9.206
 2242POPC   C1A32427   3.667   0.702   8.951
 2242POPC   D2A32428   3.599   0.577   8.534
 2242POPC   C3A32429   3.689   0.769   8.156
 2242POPC   C4A32430   3.556   0.544   7.808
 2242POPC   C1B32431   3.356   0.210   8.803
 2242POPC   C2B32432   3.162   0.079   8.394
 2242POPC   C3B32433   3.298   0.038   7.911
 2242POPC   C4B32434   3.705   0.084   7.640
 2243POPC   NC332435  24.048  28.748   9.348
 2243POPC   PO432436  23.797  29.393   9.484
 2243POPC   GL132437  23.739  29.163   9.082
 2243POPC   GL232438  23.701  28.829   8.957
 2243POPC   C1A32439  23.638  29.204   8.632
 2243POPC   D2A32440  23.867  29.487   8.394
 2243POPC   C3A32441  23.783  29.508   7.996
 2243POPC   C4A32442  23.500  29.231   7.729
 2243POPC   C1B32443  24.054  28.795   8.716
 2243POPC   C2B32444  24.077  29.011   8.401
 2243POPC   C3B32445  23.784  29.018   8.100
 2243POPC   C4B32446  23.818  28.810   7.729
 2244POPC   NC332447   3.768  15.736   9.456
 2244POPC   PO432448   3.143  16.067   9.431
 2244POPC   GL132449   3.367  15.780   9.131
 2244POPC   GL232450   3.582  16.069   9.105
 2244POPC   C1A32451   3.591  15.581   8.749
 2244POPC   D2A32452   3.640  15.706   8.293
 2244POPC   C3A32453   3.330  15.717   7.962
 2244POPC   C4A32454   3.200  16.035   7.677
 2244POPC   C1B32455   3.658  16.075   8.691
 2244POPC   C2B32456   3.704  16.264   8.307
 2244POPC   C3B32457   3.652  16.169   7.886
 2244POPC   C4B32458   3.978  16.292   7.600
 2245POPC   NC332459  28.438  12.252   9.348
 2245POPC   PO432460  28.475  11.658   9.555
 2245POPC   GL132461  28.607  11.718   9.154
 2245POPC   GL232462  28.273  11.820   9.068
 2245POPC   C1A32463  28.635  11.737   8.714
 2245POPC   D2A32464  28.306  11.801   8.376
 2245POPC   C3A32465  28.421  11.918   7.951
 2245POPC   C4A32466  28.508  12.282   7.668
 2245POPC   C1B32467  28.318  12.159   8.729
 2245POPC   C2B32468  28.393  12.323   8.303
 2245POPC   C3B32469  28.108  12.356   7.971
 2245POPC   C4B32470  27.840  12.357   7.637
 2246POPC   NC332471  30.330  22.557   9.412
 2246POPC   PO432472  30.406  23.142   9.632
 2246POPC   GL132473  30.552  22.972   9.185
 2246POPC   GL232474  30.522  22.639   8.970
 2246POPC   C1A32475  30.490  23.082   8.732
 2246POPC   D2A32476  30.794  23.055   8.401
 2246POPC   C3A32477  30.675  23.194   7.994
 2246POPC   C4A32478  30.441  23.093   7.626
 2246POPC   C1B32479  30.569  22.611   8.543
 2246POPC   C2B32480  30.471  22.752   8.134
 2246POPC   C3B32481  30.732  22.696   7.757
 2246POPC   C4B32482  30.828  22.752   7.301
 2247POPC   NC332483  36.273   8.801   9.680
 2247POPC   PO432484  35.732   9.055   9.561
 2247POPC   GL132485  35.897   8.938   9.194
 2247POPC   GL232486  36.210   9.029   9.199
 2247POPC   C1A32487  35.989   8.858   8.762
 2247POPC   D2A32488  36.264   8.858   8.404
 2247POPC   C3A32489  36.044   9.027   8.078
 2247POPC   C4A32490  36.078   8.865   7.686
 2247POPC   C1B32491  36.411   9.130   8.824
 2247POPC   C2B32492  36.370   9.374   8.453
 2247POPC   C3B32493  36.505   9.270   8.068
 2247POPC   C4B32494  36.351   9.347   7.682
 2248POPC   NC332495  16.521   9.963   9.986
 2248POPC   PO432496  16.120   9.915   9.483
 2248POPC   GL132497  16.059   9.791   9.134
 2248POPC   GL232498  15.887   9.512   9.142
 2248POPC   C1A32499  16.087  10.003   8.778
 2248POPC   D2A32500  16.124   9.819   8.413
 2248POPC   C3A32501  15.985   9.988   8.038
 2248POPC   C4A32502  15.955   9.743   7.711
 2248POPC   C1B32503  15.763   9.597   8.718
 2248POPC   C2B32504  15.611   9.900   8.405
 2248POPC   C3B32505  15.503   9.773   7.985
 2248POPC   C4B32506  15.593   9.387   7.729
 2249POPC   NC332507   8.621  17.002   9.478
 2249POPC   PO432508   8.053  17.201   9.555
 2249POPC   GL132509   8.073  16.881   9.188
 2249POPC   GL232510   8.262  16.551   9.214
 2249POPC   C1A32511   8.268  16.749   8.755
 2249POPC   D2A32512   8.421  16.640   8.342
 2249POPC   C3A32513   8.164  16.634   7.964
 2249POPC   C4A32514   8.198  16.851   7.562
 2249POPC   C1B32515   8.537  16.332   8.854
 2249POPC   C2B32516   8.475  16.145   8.435
 2249POPC   C3B32517   8.474  16.206   7.985
 2249POPC   C4B32518   8.497  16.437   7.594
 2250POPC   NC332519   7.933  20.230   9.455
 2250POPC   PO432520   8.128  19.673   9.786
 2250POPC   GL132521   8.087  19.720   9.294
 2250POPC   GL232522   8.115  20.021   9.040
 2250POPC   C1A32523   8.197  19.543   8.868
 2250POPC   D2A32524   8.010  19.506   8.435
 2250POPC   C3A32525   8.258  19.689   8.115
 2250POPC   C4A32526   8.403  20.013   7.837
 2250POPC   C1B32527   7.974  20.058   8.595
 2250POPC   C2B32528   7.998  20.154   8.146
 2250POPC   C3B32529   7.928  20.183   7.699
 2250POPC   C4B32530   7.759  20.208   7.274
 2251POPC   NC332531   4.970   7.178   9.560
 2251POPC   PO432532   4.729   7.848   9.441
 2251POPC   GL132533   4.904   7.475   9.135
 2251POPC   GL232534   4.769   7.108   9.097
 2251POPC   C1A32535   5.250   7.527   8.800
 2251POPC   D2A32536   5.063   7.533   8.424
 2251POPC   C3A32537   5.252   7.603   8.082
 2251POPC   C4A32538   5.131   7.685   7.675
 2251POPC   C1B32539   5.046   7.070   8.776
 2251POPC   C2B32540   5.290   7.051   8.413
 2251POPC   C3B32541   5.112   7.132   8.023
 2251POPC   C4B32542   4.936   7.216   7.625
 2252POPC   NC332543   9.857  33.119  10.010
 2252POPC   PO432544   9.759  32.716   9.432
 2252POPC   GL132545   9.909  32.827   9.050
 2252POPC   GL232546  10.054  33.153   9.074
 2252POPC   C1A32547   9.701  32.894   8.670
 2252POPC   D2A32548   9.607  32.678   8.287
 2252POPC   C3A32549   9.606  32.939   7.960
 2252POPC   C4A32550   9.587  33.271   7.704
 2252POPC   C1B32551  10.019  33.325   8.660
 2252POPC   C2B32552   9.818  33.312   8.250
 2252POPC   C3B32553  10.062  33.171   7.904
 2252POPC   C4B32554  10.286  33.258   7.543
 2253POPC   NC332555  20.855  31.517   9.419
 2253POPC   PO432556  20.195  31.488   9.477
 2253POPC   GL132557  20.365  31.661   9.150
 2253POPC   GL232558  20.055  31.668   8.981
 2253POPC   C1A32559  20.625  31.628   8.787
 2253POPC   D2A32560  20.585  31.804   8.386
 2253POPC   C3A32561  20.761  31.601   8.031
 2253POPC   C4A32562  20.635  31.292   7.756
 2253POPC   C1B32563  20.248  31.283   8.792
 2253POPC   C2B32564  20.499  31.287   8.398
 2253POPC   C3B32565  20.263  31.529   8.081
 2253POPC   C4B32566  20.355  31.721   7.677
 2254POPC   NC332567  21.759  26.651   9.503
 2254POPC   PO432568  22.404  26.676   9.322
 2254POPC   GL132569  22.105  26.801   9.096
 2254POPC   GL232570  22.028  27.061   9.288
 2254POPC   C1A32571  21.965  26.756   8.686
 2254POPC   D2A32572  21.656  26.550   8.436
 2254POPC   C3A32573  21.833  26.728   8.087
 2254POPC   C4A32574  22.209  26.689   7.829
 2254POPC   C1B32575  21.927  27.244   8.868
 2254POPC   C2B32576  21.904  27.180   8.415
 2254POPC   C3B32577  22.054  27.179   7.983
 2254POPC   C4B32578  21.850  27.048   7.637
 2255POPC   NC332579  40.738  33.991   9.667
 2255POPC   PO432580  40.497  33.441   9.492
 2255POPC   GL132581  40.662  33.521   9.091
 2255POPC   GL232582  40.793  33.842   9.168
 2255POPC   C1A32583  40.678  33.419   8.638
 2255POPC   D2A32584  40.939  33.439   8.244
 2255POPC   C3A32585  40.837  33.670   7.898
 2255POPC   C4A32586  40.874  33.646   7.444
 2255POPC   C1B32587  41.082  33.921   8.847
 2255POPC   C2B32588  41.104  33.960   8.430
 2255POPC   C3B32589  40.936  34.174   8.103
 2255POPC   C4B32590  40.904  34.120   7.686
 2256POPC   NC332591  39.255   8.056   9.370
 2256POPC   PO432592  39.493   8.646   9.623
 2256POPC   GL132593  39.334   8.545   9.168
 2256POPC   GL232594  39.604   8.327   9.067
 2256POPC   C1A32595  39.159   8.280   8.753
 2256POPC   D2A32596  38.929   8.262   8.320
 2256POPC   C3A32597  39.147   8.100   7.923
 2256POPC   C4A32598  38.980   8.044   7.448
 2256POPC   C1B32599  39.634   8.097   8.661
 2256POPC   C2B32600  39.433   8.301   8.297
 2256POPC   C3B32601  39.522   8.463   7.869
 2256POPC   C4B32602  39.399   8.365   7.445
 2257POPC   NC332603  39.266  13.884   9.697
 2257POPC   PO432604  39.899  13.671   9.582
 2257POPC   GL132605  39.995  13.576   9.152
 2257POPC   GL232606  39.934  13.898   9.029
 2257POPC   C1A32607  39.898  13.472   8.726
 2257POPC   D2A32608  39.846  13.660   8.318
 2257POPC   C3A32609  40.066  13.552   7.915
 2257POPC   C4A32610  39.851  13.517   7.502
 2257POPC   C1B32611  39.629  13.962   8.704
 2257POPC   C2B32612  39.641  14.134   8.287
 2257POPC   C3B32613  39.671  13.892   7.882
 2257POPC   C4B32614  39.630  13.965   7.447
 2258POPC   NC332615  37.337  30.662   9.898
 2258POPC   PO432616  36.833  30.665   9.414
 2258POPC   GL132617  36.942  30.689   9.049
 2258POPC   GL232618  36.974  30.370   9.022
 2258POPC   C1A32619  36.883  30.818   8.659
 2258POPC   D2A32620  36.984  30.739   8.249
 2258POPC   C3A32621  36.652  30.894   8.048
 2258POPC   C4A32622  36.592  30.744   7.673
 2258POPC   C1B32623  36.913  30.270   8.637
 2258POPC   C2B32624  37.171  30.269   8.297
 2258POPC   C3B32625  36.869  30.241   7.980
 2258POPC   C4B32626  36.953  30.397   7.605
 2259POPC   NC332627  20.710  44.451   9.527
 2259POPC   PO432628  20.159  44.749   9.635
 2259POPC   GL132629  20.488  44.906   9.294
 2259POPC   GL232630  20.502  44.622   9.097
 2259POPC   C1A32631  20.661   0.012   8.831
 2259POPC   D2A32632  20.413  44.980   8.401
 2259POPC   C3A32633  20.454  44.896   7.943
 2259POPC   C4A32634  20.812  44.748   7.671
 2259POPC   C1B32635  20.706  44.329   8.865
 2259POPC   C2B32636  20.875  44.232   8.538
 2259POPC   C3B32637  20.681  44.121   8.195
 2259POPC   C4B32638  20.534  44.376   7.865
 2260POPC   NC332639  39.011  11.190   9.423
 2260POPC   PO432640  39.289  11.828   9.475
 2260POPC   GL132641  39.299  11.550   9.075
 2260POPC   GL232642  38.967  11.447   8.979
 2260POPC   C1A32643  39.275  11.395   8.602
 2260POPC   D2A32644  38.889  11.328   8.359
 2260POPC   C3A32645  38.958  11.432   7.931
 2260POPC   C4A32646  39.369  11.591   7.797
 2260POPC   C1B32647  38.948  11.004   8.767
 2260POPC   C2B32648  38.979  10.836   8.338
 2260POPC   C3B32649  39.282  11.073   8.114
 2260POPC   C4B32650  39.541  11.113   7.749
 2261POPC   NC332651  17.545  10.210   9.355
 2261POPC   PO432652  17.513   9.657   9.803
 2261POPC   GL132653  17.478   9.703   9.293
 2261POPC   GL232654  17.811   9.633   9.105
 2261POPC   C1A32655  17.487   9.902   8.823
 2261POPC   D2A32656  17.704   9.867   8.418
 2261POPC   C3A32657  17.481   9.909   8.071
 2261POPC   C4A32658  17.339   9.908   7.660
 2261POPC   C1B32659  17.598   9.427   8.709
 2261POPC   C2B32660  17.439   9.426   8.269
 2261POPC   C3B32661  17.638   9.492   7.844
 2261POPC   C4B32662  17.446   9.465   7.455
 2262POPC   NC332663  40.403  12.362   9.535
 2262POPC   PO432664  40.496  13.039   9.377
 2262POPC   GL132665  40.678  12.891   9.024
 2262POPC   GL232666  40.793  12.605   9.182
 2262POPC   C1A32667  40.632  12.941   8.592
 2262POPC   D2A32668  40.906  12.889   8.244
 2262POPC   C3A32669  40.768  13.059   7.895
 2262POPC   C4A32670  40.363  13.152   7.808
 2262POPC   C1B32671  40.712  12.454   8.759
 2262POPC   C2B32672  40.730  12.406   8.324
 2262POPC   C3B32673  40.877  12.551   7.896
 2262POPC   C4B32674  41.042  12.803   7.555
 2263POPC   NC332675  31.353  21.251   9.637
 2263POPC   PO432676  31.860  20.907   9.454
 2263POPC   GL132677  31.610  21.236   9.152
 2263POPC   GL232678  31.251  21.224   9.086
 2263POPC   C1A32679  31.493  21.169   8.663
 2263POPC   D2A32680  31.610  21.081   8.218
 2263POPC   C3A32681  31.419  21.342   7.894
 2263POPC   C4A32682  31.106  21.333   7.565
 2263POPC   C1B32683  31.083  21.545   8.807
 2263POPC   C2B32684  31.056  21.787   8.419
 2263POPC   C3B32685  31.099  21.726   7.982
 2263POPC   C4B32686  31.355  21.791   7.608
 2264POPC   NC332687   7.939   0.580   9.415
 2264POPC   PO432688   8.583   0.655   9.558
 2264POPC   GL132689   8.373   0.378   9.222
 2264POPC   GL232690   8.590   0.119   9.109
 2264POPC   C1A32691   8.073   0.220   8.861
 2264POPC   D2A32692   8.099   0.392   8.440
 2264POPC   C3A32693   7.974   0.275   8.046
 2264POPC   C4A32694   8.057   0.036   7.701
 2264POPC   C1B32695   8.526   0.410   8.737
 2264POPC   C2B32696   8.605   0.427   8.311
 2264POPC   C3B32697   8.456   0.458   7.883
 2264POPC   C4B32698   8.276   0.526   7.443
 2265POPC   NC332699   0.705  42.792   9.388
 2265POPC   PO432700   0.137  43.140   9.454
 2265POPC   GL132701   0.197  43.166   9.073
 2265POPC   GL232702   0.542  43.186   9.052
 2265POPC   C1A32703   0.255  43.104   8.635
 2265POPC   D2A32704   0.426  43.240   8.267
 2265POPC   C3A32705   0.178  43.066   7.999
 2265POPC   C4A32706   0.193  42.900   7.559
 2265POPC   C1B32707   0.826  43.166   8.699
 2265POPC   C2B32708   0.941  43.263   8.276
 2265POPC   C3B32709   0.811  43.229   7.887
 2265POPC   C4B32710   0.475  43.391   7.721
 2266POPC   NC332711  16.406  12.381   9.484
 2266POPC   PO432712  17.121  12.301   9.592
 2266POPC   GL132713  16.886  12.283   9.194
 2266POPC   GL232714  16.639  12.038   9.159
 2266POPC   C1A32715  16.991  12.117   8.762
 2266POPC   D2A32716  17.273  12.317   8.449
 2266POPC   C3A32717  17.086  12.302   8.032
 2266POPC   C4A32718  16.763  12.165   7.761
 2266POPC   C1B32719  16.540  12.344   8.831
 2266POPC   C2B32720  16.587  12.178   8.429
 2266POPC   C3B32721  16.290  12.229   8.130
 2266POPC   C4B32722  16.330  12.432   7.756
 2267POPC   NC332723  20.425  24.629   9.529
 2267POPC   PO432724  21.084  24.916   9.442
 2267POPC   GL132725  20.760  24.787   9.132
 2267POPC   GL232726  20.568  24.468   9.074
 2267POPC   C1A32727  20.834  24.664   8.693
 2267POPC   D2A32728  20.948  24.678   8.269
 2267POPC   C3A32729  20.639  24.679   7.966
 2267POPC   C4A32730  20.661  24.331   7.706
 2267POPC   C1B32731  20.322  24.432   8.706
 2267POPC   C2B32732  20.368  24.339   8.233
 2267POPC   C3B32733  20.191  24.203   7.822
 2267POPC   C4B32734  20.297  24.248   7.346
 2268POPC   NC332735  15.278  24.787   9.542
 2268POPC   PO432736  15.144  24.069   9.590
 2268POPC   GL132737  15.167  24.356   9.215
 2268POPC   GL232738  14.886  24.571   9.177
 2268POPC   C1A32739  15.432  24.377   8.816
 2268POPC   D2A32740  15.623  24.561   8.443
 2268POPC   C3A32741  15.455  24.358   8.066
 2268POPC   C4A32742  15.383  24.506   7.639
 2268POPC   C1B32743  14.912  24.407   8.771
 2268POPC   C2B32744  15.085  24.557   8.429
 2268POPC   C3B32745  14.955  24.507   8.039
 2268POPC   C4B32746  15.000  24.214   7.771
 2269POPC   NC332747   7.947  34.028   9.633
 2269POPC   PO432748   8.383  33.492   9.640
 2269POPC   GL132749   8.209  33.469   9.254
 2269POPC   GL232750   8.107  33.770   9.226
 2269POPC   C1A32751   8.350  33.522   8.834
 2269POPC   D2A32752   8.104  33.620   8.443
 2269POPC   C3A32753   8.251  33.616   8.020
 2269POPC   C4A32754   8.541  33.479   7.712
 2269POPC   C1B32755   8.192  33.990   8.810
 2269POPC   C2B32756   8.314  34.118   8.392
 2269POPC   C3B32757   8.162  34.135   7.951
 2269POPC   C4B32758   7.720  34.216   7.832
 2270POPC   NC332759  35.130  33.027   9.370
 2270POPC   PO432760  35.537  33.580   9.440
 2270POPC   GL132761  35.519  33.285   9.110
 2270POPC   GL232762  35.539  32.924   9.038
 2270POPC   C1A32763  35.542  33.309   8.689
 2270POPC   D2A32764  35.452  32.978   8.396
 2270POPC   C3A32765  35.220  33.157   8.082
 2270POPC   C4A32766  35.281  33.176   7.654
 2270POPC   C1B32767  35.152  32.810   8.778
 2270POPC   C2B32768  34.948  32.816   8.392
 2270POPC   C3B32769  35.075  32.657   8.022
 2270POPC   C4B32770  34.974  32.795   7.635
 2271POPC   NC332771   8.206  34.857   9.305
 2271POPC   PO432772   8.354  35.442   9.594
 2271POPC   GL132773   8.301  35.430   9.137
 2271POPC   GL232774   7.955  35.312   9.113
 2271POPC   C1A32775   8.436  35.400   8.679
 2271POPC   D2A32776   8.307  35.125   8.313
 2271POPC   C3A32777   8.471  35.006   7.921
 2271POPC   C4A32778   8.587  35.245   7.587
 2271POPC   C1B32779   7.935  35.247   8.660
 2271POPC   C2B32780   7.982  35.514   8.294
 2271POPC   C3B32781   8.099  35.379   7.897
 2271POPC   C4B32782   7.872  35.068   7.679
 2272POPC   NC332783  21.137   9.239   9.417
 2272POPC   PO432784  21.376   9.861   9.648
 2272POPC   GL132785  21.406   9.667   9.225
 2272POPC   GL232786  21.067   9.668   9.131
 2272POPC   C1A32787  21.454   9.649   8.753
 2272POPC   D2A32788  21.641   9.851   8.378
 2272POPC   C3A32789  21.702   9.643   7.979
 2272POPC   C4A32790  21.531   9.580   7.558
 2272POPC   C1B32791  20.987   9.871   8.747
 2272POPC   C2B32792  21.138   9.878   8.351
 2272POPC   C3B32793  21.208   9.769   7.942
 2272POPC   C4B32794  21.018   9.488   7.637
 2273POPC   NC332795  40.370  34.623   9.152
 2273POPC   PO432796  40.815  34.453   9.631
 2273POPC   GL132797  40.905  34.647   9.250
 2273POPC   GL232798  40.933  34.338   9.096
 2273POPC   C1A32799  40.921  34.806   8.821
 2273POPC   D2A32800  40.902  34.664   8.396
 2273POPC   C3A32801  40.684  34.829   8.054
 2273POPC   C4A32802  40.992  34.636   7.783
 2273POPC   C1B32803  40.734  34.262   8.682
 2273POPC   C2B32804  40.500  34.377   8.307
 2273POPC   C3B32805  40.529  34.393   7.866
 2273POPC   C4B32806  40.250  34.267   7.529
 2274POPC   NC332807   4.266  43.739   9.577
 2274POPC   PO432808   3.911  44.301   9.385
 2274POPC   GL132809   3.999  43.913   9.153
 2274POPC   GL232810   4.352  43.838   9.091
 2274POPC   C1A32811   4.055  43.956   8.704
 2274POPC   D2A32812   4.301  44.103   8.357
 2274POPC   C3A32813   4.153  43.871   7.992
 2274POPC   C4A32814   4.401  43.761   7.635
 2274POPC   C1B32815   4.316  43.523   8.793
 2274POPC   C2B32816   4.239  43.577   8.401
 2274POPC   C3B32817   4.574  43.692   8.187
 2274POPC   C4B32818   4.690  43.425   7.894
 2275POPC   NC332819  10.905  37.066   9.767
 2275POPC   PO432820  11.097  36.509   9.379
 2275POPC   GL132821  11.260  36.570   8.983
 2275POPC   GL232822  11.609  36.659   8.957
 2275POPC   C1A32823  11.222  36.795   8.605
 2275POPC   D2A32824  11.491  37.061   8.336
 2275POPC   C3A32825  11.295  37.041   7.932
 2275POPC   C4A32826  11.099  36.794   7.600
 2275POPC   C1B32827  11.646  36.516   8.570
 2275POPC   C2B32828  11.456  36.587   8.163
 2275POPC   C3B32829  11.455  36.454   7.757
 2275POPC   C4B32830  11.553  36.695   7.370
 2276POPC   NC332831  12.044  24.217   9.377
 2276POPC   PO432832  12.230  24.832   9.288
 2276POPC   GL132833  12.376  24.446   9.035
 2276POPC   GL232834  12.071  24.309   8.872
 2276POPC   C1A32835  12.521  24.274   8.611
 2276POPC   D2A32836  12.479  24.281   8.154
 2276POPC   C3A32837  12.134  24.346   7.870
 2276POPC   C4A32838  12.141  24.393   7.428
 2276POPC   C1B32839  12.208  24.668   8.596
 2276POPC   C2B32840  12.281  24.783   8.165
 2276POPC   C3B32841  12.090  24.838   7.731
 2276POPC   C4B32842  11.682  24.702   7.576
 2277POPC   NC332843  13.446  24.867   9.915
 2277POPC   PO432844  13.562  24.353   9.453
 2277POPC   GL132845  13.534  24.341   9.004
 2277POPC   GL232846  13.345  24.665   8.866
 2277POPC   C1A32847  13.574  24.326   8.553
 2277POPC   D2A32848  13.404  24.705   8.361
 2277POPC   C3A32849  13.641  24.719   8.011
 2277POPC   C4A32850  13.897  24.428   7.859
 2277POPC   C1B32851  13.086  24.330   8.720
 2277POPC   C2B32852  13.123  24.060   8.350
 2277POPC   C3B32853  13.362  24.266   8.050
 2277POPC   C4B32854  13.174  24.622   7.901
 2278POPC   NC332855  42.090  25.514   9.374
 2278POPC   PO432856  42.635  25.101   9.437
 2278POPC   GL132857  42.320  25.093   9.132
 2278POPC   GL232858  42.469  25.425   9.050
 2278POPC   C1A32859  42.349  25.100   8.683
 2278POPC   D2A32860  42.458  25.320   8.322
 2278POPC   C3A32861  42.470  25.059   7.958
 2278POPC   C4A32862  42.170  25.066   7.678
 2278POPC   C1B32863  42.280  25.632   8.710
 2278POPC   C2B32864  42.161  25.743   8.297
 2278POPC   C3B32865  42.214  25.546   7.898
 2278POPC   C4B32866  41.858  25.459   7.677
 2279POPC   NC332867   6.234  11.368   9.598
 2279POPC   PO432868   6.896  11.530   9.514
 2279POPC   GL132869   6.726  11.204   9.206
 2279POPC   GL232870   6.454  10.993   9.282
 2279POPC   C1A32871   6.668  11.278   8.764
 2279POPC   D2A32872   6.790  11.348   8.320
 2279POPC   C3A32873   6.563  11.603   7.989
 2279POPC   C4A32874   6.646  11.524   7.551
 2279POPC   C1B32875   6.304  10.957   8.820
 2279POPC   C2B32876   6.285  11.197   8.404
 2279POPC   C3B32877   6.470  11.092   7.995
 2279POPC   C4B32878   6.311  11.140   7.603
 2280POPC   NC332879  30.335  30.945   9.485
 2280POPC   PO432880  31.004  31.066   9.420
 2280POPC   GL132881  30.733  30.925   9.115
 2280POPC   GL232882  30.531  31.223   9.082
 2280POPC   C1A32883  30.847  30.735   8.721
 2280POPC   D2A32884  30.891  30.375   8.438
 2280POPC   C3A32885  30.832  30.524   8.030
 2280POPC   C4A32886  30.704  30.410   7.662
 2280POPC   C1B32887  30.416  31.060   8.685
 2280POPC   C2B32888  30.516  30.854   8.282
 2280POPC   C3B32889  30.604  30.934   7.829
 2280POPC   C4B32890  31.065  31.022   7.829
 2281POPC   NC332891  35.241  16.451   9.852
 2281POPC   PO432892  35.273  17.060   9.566
 2281POPC   GL132893  35.336  16.783   9.235
 2281POPC   GL232894  35.181  16.430   9.279
 2281POPC   C1A32895  35.430  16.948   8.813
 2281POPC   D2A32896  35.194  17.002   8.461
 2281POPC   C3A32897  35.416  16.963   8.081
 2281POPC   C4A32898  35.184  16.961   7.707
 2281POPC   C1B32899  35.333  16.428   8.833
 2281POPC   C2B32900  35.470  16.535   8.409
 2281POPC   C3B32901  35.376  16.322   8.009
 2281POPC   C4B32902  35.098  16.455   7.668
 2282POPC   NC332903  34.949  25.079   9.868
 2282POPC   PO432904  35.451  25.217   9.637
 2282POPC   GL132905  35.526  25.223   9.139
 2282POPC   GL232906  35.503  25.573   9.019
 2282POPC   C1A32907  35.671  25.234   8.675
 2282POPC   D2A32908  35.513  25.449   8.296
 2282POPC   C3A32909  35.461  25.251   7.874
 2282POPC   C4A32910  35.650  24.873   7.689
 2282POPC   C1B32911  35.183  25.387   8.693
 2282POPC   C2B32912  35.042  25.266   8.232
 2282POPC   C3B32913  34.970  25.370   7.772
 2282POPC   C4B32914  34.951  25.405   7.302
 2283POPC   NC332915   2.983  37.189   9.501
 2283POPC   PO432916   2.636  36.706   9.267
 2283POPC   GL132917   2.777  37.040   9.026
 2283POPC   GL232918   3.109  36.952   9.031
 2283POPC   C1A32919   2.830  37.053   8.579
 2283POPC   D2A32920   2.771  36.748   8.266
 2283POPC   C3A32921   2.764  37.001   7.919
 2283POPC   C4A32922   2.364  37.112   7.815
 2283POPC   C1B32923   3.015  36.607   8.720
 2283POPC   C2B32924   3.206  36.478   8.377
 2283POPC   C3B32925   3.201  36.700   8.001
 2283POPC   C4B32926   3.010  36.610   7.634
 2284POPC   NC332927  16.109   1.578   9.412
 2284POPC   PO432928  15.928   2.263   9.414
 2284POPC   GL132929  16.049   2.036   9.090
 2284POPC   GL232930  15.723   2.036   8.938
 2284POPC   C1A32931  16.307   1.939   8.727
 2284POPC   D2A32932  16.246   1.927   8.262
 2284POPC   C3A32933  15.998   2.147   7.925
 2284POPC   C4A32934  16.046   2.049   7.474
 2284POPC   C1B32935  15.829   1.869   8.553
 2284POPC   C2B32936  15.765   2.239   8.357
 2284POPC   C3B32937  15.434   2.334   8.093
 2284POPC   C4B32938  15.535   2.178   7.752
 2285POPC   NC332939   7.298  10.238   9.550
 2285POPC   PO432940   7.588  10.827   9.665
 2285POPC   GL132941   7.616  10.766   9.210
 2285POPC   GL232942   7.301  10.844   9.068
 2285POPC   C1A32943   7.507  10.390   8.921
 2285POPC   D2A32944   7.385  10.310   8.472
 2285POPC   C3A32945   7.452  10.495   8.062
 2285POPC   C4A32946   7.526  10.291   7.680
 2285POPC   C1B32947   7.420  10.793   8.641
 2285POPC   C2B32948   7.171  10.835   8.337
 2285POPC   C3B32949   7.042  10.812   7.966
 2285POPC   C4B32950   7.074  10.506   7.646
 2286POPC   NC332951  37.536   6.631   9.196
 2286POPC   PO432952  37.975   6.180   9.417
 2286POPC   GL132953  37.772   6.224   9.027
 2286POPC   GL232954  37.397   6.169   9.026
 2286POPC   C1A32955  37.826   6.441   8.611
 2286POPC   D2A32956  37.998   6.630   8.211
 2286POPC   C3A32957  37.742   6.790   7.900
 2286POPC   C4A32958  37.755   6.672   7.439
 2286POPC   C1B32959  37.329   6.274   8.607
 2286POPC   C2B32960  37.528   6.425   8.191
 2286POPC   C3B32961  37.348   6.491   7.730
 2286POPC   C4B32962  37.298   6.447   7.253
 2287POPC   NC332963  12.959  30.410   9.637
 2287POPC   PO432964  13.139  31.088   9.446
 2287POPC   GL132965  12.817  30.890   9.166
 2287POPC   GL232966  12.808  30.523   9.168
 2287POPC   C1A32967  12.703  30.987   8.733
 2287POPC   D2A32968  12.735  30.799   8.316
 2287POPC   C3A32969  12.937  30.957   7.944
 2287POPC   C4A32970  12.885  30.910   7.503
 2287POPC   C1B32971  12.755  30.477   8.725
 2287POPC   C2B32972  13.093  30.447   8.410
 2287POPC   C3B32973  13.099  30.464   7.954
 2287POPC   C4B32974  13.402  30.322   7.700
 2288POPC   NC332975  33.984  41.867   9.514
 2288POPC   PO432976  33.531  41.410   9.546
 2288POPC   GL132977  33.820  41.471   9.223
 2288POPC   GL232978  33.672  41.773   9.122
 2288POPC   C1A32979  34.048  41.562   8.835
 2288POPC   D2A32980  34.256  41.381   8.462
 2288POPC   C3A32981  34.254  41.612   8.057
 2288POPC   C4A32982  33.950  41.643   7.711
 2288POPC   C1B32983  33.562  41.701   8.704
 2288POPC   C2B32984  33.809  41.619   8.338
 2288POPC   C3B32985  33.901  41.264   8.071
 2288POPC   C4B32986  33.667  41.154   7.722
 2289POPC   NC332987  28.402  14.982   9.799
 2289POPC   PO432988  27.914  15.441   9.583
 2289POPC   GL132989  28.118  15.174   9.219
 2289POPC   GL232990  28.434  14.986   9.256
 2289POPC   C1A32991  28.363  15.198   8.803
 2289POPC   D2A32992  28.671  15.234   8.447
 2289POPC   C3A32993  28.528  15.307   8.003
 2289POPC   C4A32994  28.368  15.303   7.613
 2289POPC   C1B32995  28.745  14.894   8.887
 2289POPC   C2B32996  28.830  14.742   8.493
 2289POPC   C3B32997  28.710  14.854   8.098
 2289POPC   C4B32998  28.801  15.017   7.683
 2290POPC   NC332999  13.188  17.224   9.248
 2290POPC   PO433000  13.718  17.645   9.497
 2290POPC   GL133001  13.564  17.560   9.107
 2290POPC   GL233002  13.731  17.234   9.107
 2290POPC   C1A33003  13.380  17.747   8.717
 2290POPC   D2A33004  13.524  17.931   8.299
 2290POPC   C3A33005  13.367  17.753   7.906
 2290POPC   C4A33006  13.635  17.540   7.552
 2290POPC   C1B33007  13.543  17.266   8.694
 2290POPC   C2B33008  13.475  17.421   8.308
 2290POPC   C3B33009  13.519  17.246   7.940
 2290POPC   C4B33010  13.890  17.146   7.756
 2291POPC   NC333011  16.594   3.181   9.520
 2291POPC   PO433012  16.759   2.540   9.479
 2291POPC   GL133013  16.766   2.809   9.180
 2291POPC   GL233014  17.050   2.661   9.044
 2291POPC   C1A33015  16.753   3.016   8.800
 2291POPC   D2A33016  16.837   2.759   8.487
 2291POPC   C3A33017  16.675   2.987   8.171
 2291POPC   C4A33018  16.754   2.980   7.755
 2291POPC   C1B33019  17.135   2.337   8.799
 2291POPC   C2B33020  17.112   2.290   8.378
 2291POPC   C3B33021  16.906   2.492   8.045
 2291POPC   C4B33022  17.125   2.564   7.706
 2292POPC   NC333023  19.824  41.335   9.439
 2292POPC   PO433024  19.890  41.885   9.110
 2292POPC   GL133025  19.609  41.616   8.976
 2292POPC   GL233026  19.887  41.380   8.954
 2292POPC   C1A33027  19.634  41.572   8.545
 2292POPC   D2A33028  20.055  41.548   8.396
 2292POPC   C3A33029  20.110  41.795   8.072
 2292POPC   C4A33030  20.322  41.705   7.703
 2292POPC   C1B33031  19.923  41.120   8.657
 2292POPC   C2B33032  19.764  41.146   8.265
 2292POPC   C3B33033  19.971  41.257   7.933
 2292POPC   C4B33034  19.790  41.075   7.586
 2293POPC   NC333035   2.362   2.461   9.357
 2293POPC   PO433036   1.870   2.860   9.233
 2293POPC   GL133037   1.803   2.510   8.970
 2293POPC   GL233038   2.153   2.502   8.856
 2293POPC   C1A33039   1.763   2.392   8.541
 2293POPC   D2A33040   2.113   2.451   8.304
 2293POPC   C3A33041   1.931   2.616   7.971
 2293POPC   C4A33042   2.114   2.649   7.590
 2293POPC   C1B33043   1.978   2.860   8.590
 2293POPC   C2B33044   2.144   3.010   8.203
 2293POPC   C3B33045   1.973   3.108   7.794
 2293POPC   C4B33046   2.096   3.106   7.343
 2294POPC   NC333047   1.798  17.718   9.326
 2294POPC   PO433048   1.986  17.090   9.576
 2294POPC   GL133049   2.061  17.185   9.135
 2294POPC   GL233050   2.361  17.378   9.144
 2294POPC   C1A33051   1.836  17.334   8.750
 2294POPC   D2A33052   1.680  17.723   8.583
 2294POPC   C3A33053   1.657  17.710   8.125
 2294POPC   C4A33054   1.884  17.446   7.874
 2294POPC   C1B33055   2.278  17.588   8.775
 2294POPC   C2B33056   2.133  17.601   8.341
 2294POPC   C3B33057   2.376  17.675   7.975
 2294POPC   C4B33058   2.465  17.943   7.599
 2295POPC   NC333059  10.631  20.678   9.609
 2295POPC   PO433060  10.106  21.045   9.482
 2295POPC   GL133061  10.417  20.884   9.134
 2295POPC   GL233062  10.666  20.618   9.108
 2295POPC   C1A33063  10.632  20.857   8.680
 2295POPC   D2A33064  10.514  20.641   8.301
 2295POPC   C3A33065  10.654  20.673   7.870
 2295POPC   C4A33066  10.491  20.854   7.493
 2295POPC   C1B33067  10.537  20.348   8.752
 2295POPC   C2B33068  10.269  20.202   8.393
 2295POPC   C3B33069  10.251  20.326   7.936
 2295POPC   C4B33070  10.448  20.335   7.499
 2296POPC   NC333071  35.571  38.185   9.504
 2296POPC   PO433072  35.238  37.580   9.411
 2296POPC   GL133073  35.481  37.737   9.140
 2296POPC   GL233074  35.313  38.021   9.109
 2296POPC   C1A33075  35.524  37.577   8.745
 2296POPC   D2A33076  35.243  37.525   8.434
 2296POPC   C3A33077  35.479  37.352   8.155
 2296POPC   C4A33078  35.547  37.576   7.818
 2296POPC   C1B33079  35.123  37.924   8.761
 2296POPC   C2B33080  34.959  37.949   8.366
 2296POPC   C3B33081  35.142  37.824   7.994
 2296POPC   C4B33082  35.248  37.924   7.586
 2297POPC   NC333083  10.653  17.986   9.612
 2297POPC   PO433084  10.310  18.612   9.393
 2297POPC   GL133085  10.287  18.293   9.110
 2297POPC   GL233086  10.257  17.964   9.251
 2297POPC   C1A33087  10.444  18.386   8.693
 2297POPC   D2A33088  10.716  18.542   8.379
 2297POPC   C3A33089  10.471  18.638   7.999
 2297POPC   C4A33090  10.317  18.344   7.694
 2297POPC   C1B33091  10.298  17.893   8.794
 2297POPC   C2B33092  10.606  17.961   8.426
 2297POPC   C3B33093  10.716  18.178   8.023
 2297POPC   C4B33094  10.732  18.058   7.612
 2298POPC   NC333095   1.834  38.160   9.529
 2298POPC   PO433096   2.163  37.592   9.463
 2298POPC   GL133097   2.014  37.552   9.063
 2298POPC   GL233098   1.935  37.915   9.077
 2298POPC   C1A33099   2.051  37.394   8.621
 2298POPC   D2A33100   2.024  37.365   8.173
 2298POPC   C3A33101   2.256  37.588   7.870
 2298POPC   C4A33102   2.152  37.655   7.437
 2298POPC   C1B33103   1.973  37.889   8.646
 2298POPC   C2B33104   2.131  37.918   8.240
 2298POPC   C3B33105   1.871  37.911   7.877
 2298POPC   C4B33106   1.687  37.845   7.479
 2299POPC   NC333107  15.158  37.624   9.962
 2299POPC   PO433108  14.898  37.386   9.362
 2299POPC   GL133109  14.992  37.570   9.019
 2299POPC   GL233110  15.312  37.659   9.095
 2299POPC   C1A33111  15.086  37.477   8.630
 2299POPC   D2A33112  15.243  37.386   8.251
 2299POPC   C3A33113  14.958  37.317   7.927
 2299POPC   C4A33114  14.826  37.681   7.750
 2299POPC   C1B33115  15.530  37.713   8.791
 2299POPC   C2B33116  15.514  37.896   8.425
 2299POPC   C3B33117  15.614  37.739   8.057
 2299POPC   C4B33118  15.459  37.461   7.799
 2300POPC   NC333119   9.307  14.174   9.350
 2300POPC   PO433120   8.860  14.593   9.516
 2300POPC   GL133121   8.815  14.426   9.114
 2300POPC   GL233122   8.761  14.072   9.159
 2300POPC   C1A33123   9.069  14.512   8.751
 2300POPC   D2A33124   9.364  14.591   8.434
 2300POPC   C3A33125   9.155  14.584   8.032
 2300POPC   C4A33126   9.369  14.688   7.647
 2300POPC   C1B33127   8.928  14.023   8.740
 2300POPC   C2B33128   8.858  14.250   8.345
 2300POPC   C3B33129   8.886  14.090   7.922
 2300POPC   C4B33130   8.726  14.243   7.551
 2301POPC   NC333131  32.618   3.586   9.448
 2301POPC   PO433132  31.960   3.829   9.410
 2301POPC   GL133133  32.033   3.620   9.045
 2301POPC   GL233134  32.314   3.447   9.048
 2301POPC   C1A33135  32.111   3.616   8.606
 2301POPC   D2A33136  32.322   3.514   8.235
 2301POPC   C3A33137  32.011   3.568   7.904
 2301POPC   C4A33138  32.025   3.904   7.588
 2301POPC   C1B33139  32.425   3.170   8.713
 2301POPC   C2B33140  32.653   3.123   8.328
 2301POPC   C3B33141  32.492   3.016   7.942
 2301POPC   C4B33142  32.188   3.114   7.708
 2302POPC   NC333143  14.923  41.552   9.718
 2302POPC   PO433144  15.449  41.958   9.789
 2302POPC   GL133145  15.327  41.839   9.320
 2302POPC   GL233146  15.592  41.893   9.085
 2302POPC   C1A33147  15.246  41.599   8.858
 2302POPC   D2A33148  15.349  41.420   8.404
 2302POPC   C3A33149  15.239  41.529   7.946
 2302POPC   C4A33150  15.261  41.569   7.457
 2302POPC   C1B33151  15.664  41.795   8.627
 2302POPC   C2B33152  15.651  41.762   8.174
 2302POPC   C3B33153  15.591  41.851   7.731
 2302POPC   C4B33154  15.436  42.100   7.392
 2303POPC   NC333155  12.865   1.667   9.538
 2303POPC   PO433156  12.782   2.307   9.524
 2303POPC   GL133157  12.647   2.052   9.173
 2303POPC   GL233158  12.495   1.732   9.182
 2303POPC   C1A33159  12.837   2.012   8.787
 2303POPC   D2A33160  13.003   1.886   8.430
 2303POPC   C3A33161  12.795   2.090   8.112
 2303POPC   C4A33162  12.834   2.024   7.669
 2303POPC   C1B33163  12.609   1.553   8.770
 2303POPC   C2B33164  12.482   1.672   8.341
 2303POPC   C3B33165  12.677   1.620   7.964
 2303POPC   C4B33166  12.934   1.512   7.612
 2304POPC   NC333167  30.865  29.038   9.526
 2304POPC   PO433168  30.647  29.646   9.514
 2304POPC   GL133169  30.658  29.334   9.160
 2304POPC   GL233170  30.966  29.359   9.048
 2304POPC   C1A33171  30.710  28.992   8.811
 2304POPC   D2A33172  30.896  29.018   8.378
 2304POPC   C3A33173  30.662  29.124   7.976
 2304POPC   C4A33174  30.367  28.906   7.654
 2304POPC   C1B33175  30.809  29.470   8.635
 2304POPC   C2B33176  31.001  29.494   8.211
 2304POPC   C3B33177  30.958  29.498   7.756
 2304POPC   C4B33178  30.982  29.506   7.278
 2305POPC   NC333179  30.093  13.168   9.666
 2305POPC   PO433180  29.833  13.783   9.580
 2305POPC   GL133181  29.801  13.658   9.162
 2305POPC   GL233182  29.877  13.284   9.212
 2305POPC   C1A33183  29.980  13.800   8.769
 2305POPC   D2A33184  30.121  13.945   8.377
 2305POPC   C3A33185  29.842  13.716   8.130
 2305POPC   C4A33186  29.658  13.586   7.744
 2305POPC   C1B33187  29.714  13.318   8.815
 2305POPC   C2B33188  29.971  13.337   8.484
 2305POPC   C3B33189  29.854  13.212   8.105
 2305POPC   C4B33190  29.847  13.086   7.711
 2306POPC   NC333191   0.682  20.409   9.283
 2306POPC   PO433192   0.248  20.956   9.460
 2306POPC   GL133193   0.133  20.837   9.009
 2306POPC   GL233194   0.362  20.557   8.905
 2306POPC   C1A33195   0.145  20.770   8.527
 2306POPC   D2A33196   0.509  20.556   8.346
 2306POPC   C3A33197   0.388  20.513   7.946
 2306POPC   C4A33198   0.293  20.905   7.747
 2306POPC   C1B33199   0.726  20.793   8.748
 2306POPC   C2B33200   0.952  20.863   8.355
 2306POPC   C3B33201   0.773  20.852   7.922
 2306POPC   C4B33202   0.875  20.851   7.442
 2307POPC   NC333203  37.547  33.344   9.418
 2307POPC   PO433204  37.189  32.816   9.248
 2307POPC   GL133205  37.527  33.000   9.008
 2307POPC   GL233206  37.887  33.145   9.093
 2307POPC   C1A33207  37.492  32.842   8.616
 2307POPC   D2A33208  37.459  32.572   8.299
 2307POPC   C3A33209  37.464  32.785   7.915
 2307POPC   C4A33210  37.493  32.929   7.483
 2307POPC   C1B33211  37.889  33.190   8.641
 2307POPC   C2B33212  37.573  33.225   8.295
 2307POPC   C3B33213  37.559  33.293   7.875
 2307POPC   C4B33214  37.889  33.048   7.737
 2308POPC   NC333215  17.765   0.973   9.355
 2308POPC   PO433216  18.164   1.557   9.583
 2308POPC   GL133217  18.362   1.350   9.205
 2308POPC   GL233218  18.078   1.263   9.105
 2308POPC   C1A33219  18.427   1.337   8.745
 2308POPC   D2A33220  18.653   1.079   8.453
 2308POPC   C3A33221  18.478   1.064   8.034
 2308POPC   C4A33222  18.325   1.373   7.710
 2308POPC   C1B33223  18.051   0.951   8.788
 2308POPC   C2B33224  18.047   0.968   8.379
 2308POPC   C3B33225  17.994   1.219   8.066
 2308POPC   C4B33226  17.927   1.059   7.701
 2309POPC   NC333227  17.815  27.638   9.444
 2309POPC   PO433228  17.422  27.173   9.626
 2309POPC   GL133229  17.453  27.280   9.223
 2309POPC   GL233230  17.792  27.186   9.152
 2309POPC   C1A33231  17.279  27.284   8.810
 2309POPC   D2A33232  17.236  27.671   8.550
 2309POPC   C3A33233  17.224  27.614   8.115
 2309POPC   C4A33234  17.283  27.679   7.691
 2309POPC   C1B33235  17.730  27.496   8.788
 2309POPC   C2B33236  17.625  27.396   8.343
 2309POPC   C3B33237  17.730  27.593   7.936
 2309POPC   C4B33238  17.914  27.980   7.856
 2310POPC   NC333239  40.360   4.820   9.309
 2310POPC   PO433240  40.231   5.383   9.523
 2310POPC   GL133241  40.100   5.223   9.130
 2310POPC   GL233242  39.985   4.885   8.985
 2310POPC   C1A33243  39.888   5.324   8.784
 2310POPC   D2A33244  39.820   5.076   8.465
 2310POPC   C3A33245  39.804   5.247   8.066
 2310POPC   C4A33246  39.765   5.015   7.743
 2310POPC   C1B33247  40.286   4.978   8.684
 2310POPC   C2B33248  40.281   5.157   8.312
 2310POPC   C3B33249  40.222   4.956   7.958
 2310POPC   C4B33250  40.393   5.040   7.595
 2311POPC   NC333251  21.182  28.090   9.457
 2311POPC   PO433252  21.169  28.738   9.657
 2311POPC   GL133253  21.402  28.600   9.269
 2311POPC   GL233254  21.588  28.270   9.162
 2311POPC   C1A33255  21.278  28.547   8.831
 2311POPC   D2A33256  20.976  28.676   8.497
 2311POPC   C3A33257  21.199  28.706   8.112
 2311POPC   C4A33258  21.457  28.483   7.845
 2311POPC   C1B33259  21.758  28.298   8.715
 2311POPC   C2B33260  21.797  28.287   8.239
 2311POPC   C3B33261  21.623  28.011   7.943
 2311POPC   C4B33262  21.622  27.969   7.520
 2312POPC   NC333263  20.259  26.961   9.853
 2312POPC   PO433264  19.568  26.837   9.655
 2312POPC   GL133265  19.679  26.654   9.239
 2312POPC   GL233266  20.063  26.635   9.202
 2312POPC   C1A33267  19.717  26.772   8.791
 2312POPC   D2A33268  19.597  26.961   8.408
 2312POPC   C3A33269  19.698  26.743   8.035
 2312POPC   C4A33270  19.506  26.917   7.692
 2312POPC   C1B33271  20.045  26.362   8.826
 2312POPC   C2B33272  19.928  26.462   8.409
 2312POPC   C3B33273  20.149  26.421   8.020
 2312POPC   C4B33274  20.146  26.631   7.627
 2313POPC   NC333275  12.530   3.376   9.412
 2313POPC   PO433276  13.054   3.741   9.772
 2313POPC   GL133277  13.121   3.682   9.274
 2313POPC   GL233278  13.037   3.345   9.225
 2313POPC   C1A33279  13.241   3.727   8.841
 2313POPC   D2A33280  12.942   3.917   8.553
 2313POPC   C3A33281  12.786   3.767   8.164
 2313POPC   C4A33282  12.834   3.746   7.740
 2313POPC   C1B33283  12.959   3.316   8.783
 2313POPC   C2B33284  13.135   3.436   8.369
 2313POPC   C3B33285  12.958   3.293   7.959
 2313POPC   C4B33286  13.110   3.043   7.625
 2314POPC   NC333287   3.264  35.779   9.649
 2314POPC   PO433288   3.850  36.027   9.556
 2314POPC   GL133289   3.516  36.189   9.260
 2314POPC   GL233290   3.287  35.936   9.177
 2314POPC   C1A33291   3.426  36.263   8.803
 2314POPC   D2A33292   3.705  36.434   8.455
 2314POPC   C3A33293   3.580  36.329   8.060
 2314POPC   C4A33294   3.555  36.494   7.687
 2314POPC   C1B33295   3.546  35.780   8.846
 2314POPC   C2B33296   3.661  35.905   8.434
 2314POPC   C3B33297   3.553  35.834   8.011
 2314POPC   C4B33298   3.737  35.891   7.603
 2315POPC   NC333299  11.605  17.084   9.387
 2315POPC   PO433300  11.972  16.553   9.380
 2315POPC   GL133301  12.059  16.821   9.051
 2315POPC   GL233302  12.335  17.022   9.132
 2315POPC   C1A33303  12.227  16.627   8.679
 2315POPC   D2A33304  12.025  16.439   8.321
 2315POPC   C3A33305  12.229  16.505   7.936
 2315POPC   C4A33306  12.018  16.597   7.547
 2315POPC   C1B33307  12.269  17.152   8.691
 2315POPC   C2B33308  12.275  16.942   8.263
 2315POPC   C3B33309  12.188  17.026   7.818
 2315POPC   C4B33310  12.376  16.923   7.397
 2316POPC   NC333311  38.825  27.298   9.822
 2316POPC   PO433312  39.431  27.534   9.584
 2316POPC   GL133313  39.284  27.303   9.253
 2316POPC   GL233314  39.620  27.323   9.142
 2316POPC   C1A33315  39.085  27.411   8.855
 2316POPC   D2A33316  38.959  27.517   8.432
 2316POPC   C3A33317  39.207  27.516   8.055
 2316POPC   C4A33318  39.180  27.707   7.642
 2316POPC   C1B33319  39.549  27.650   8.842
 2316POPC   C2B33320  39.437  27.823   8.429
 2316POPC   C3B33321  39.615  27.927   8.036
 2316POPC   C4B33322  39.686  27.746   7.645
 2317POPC   NC333323  16.216  26.716  10.074
 2317POPC   PO433324  15.915  26.856   9.479
 2317POPC   GL133325  15.975  26.769   9.060
 2317POPC   GL233326  15.672  26.966   9.028
 2317POPC   C1A33327  16.084  26.845   8.604
 2317POPC   D2A33328  16.102  26.525   8.262
 2317POPC   C3A33329  16.069  26.732   7.876
 2317POPC   C4A33330  16.203  27.160   7.923
 2317POPC   C1B33331  15.603  26.742   8.647
 2317POPC   C2B33332  15.683  26.893   8.219
 2317POPC   C3B33333  15.692  27.103   7.820
 2317POPC   C4B33334  15.620  27.067   7.380
 2318POPC   NC333335  12.828  15.770   9.363
 2318POPC   PO433336  12.794  15.121   9.525
 2318POPC   GL133337  12.646  15.290   9.151
 2318POPC   GL233338  12.928  15.076   9.000
 2318POPC   C1A33339  12.555  15.339   8.707
 2318POPC   D2A33340  12.819  15.424   8.351
 2318POPC   C3A33341  12.805  15.178   7.985
 2318POPC   C4A33342  13.224  15.136   7.893
 2318POPC   C1B33343  12.546  14.856   8.885
 2318POPC   C2B33344  12.356  14.903   8.470
 2318POPC   C3B33345  12.510  14.738   8.066
 2318POPC   C4B33346  12.499  14.888   7.623
 2319POPC   NC333347   7.182  11.058   9.528
 2319POPC   PO433348   7.594  11.598   9.515
 2319POPC   GL133349   7.533  11.302   9.210
 2319POPC   GL233350   7.199  11.346   9.117
 2319POPC   C1A33351   7.692  11.164   8.828
 2319POPC   D2A33352   7.799  11.170   8.383
 2319POPC   C3A33353   7.566  11.000   8.020
 2319POPC   C4A33354   7.632  11.225   7.614
 2319POPC   C1B33355   7.161  11.216   8.712
 2319POPC   C2B33356   7.308  11.346   8.329
 2319POPC   C3B33357   7.172  11.311   7.895
 2319POPC   C4B33358   7.194  10.973   7.522
 2320POPC   NC333359  16.990  23.143   9.469
 2320POPC   PO433360  17.045  22.579   9.400
 2320POPC   GL133361  16.876  22.871   9.043
 2320POPC   GL233362  16.689  23.205   9.061
 2320POPC   C1A33363  16.747  22.967   8.596
 2320POPC   D2A33364  16.796  23.092   8.134
 2320POPC   C3A33365  16.672  22.758   7.834
 2320POPC   C4A33366  16.643  22.394   7.528
 2320POPC   C1B33367  16.382  23.304   8.734
 2320POPC   C2B33368  16.391  23.374   8.279
 2320POPC   C3B33369  16.377  23.233   7.835
 2320POPC   C4B33370  16.739  23.168   7.533
 2321POPC   NC333371  28.108  44.558   9.535
 2321POPC   PO433372  28.619  44.913   9.607
 2321POPC   GL133373  28.299  44.827   9.150
 2321POPC   GL233374  28.159  44.484   9.035
 2321POPC   C1A33375  28.483  44.699   8.707
 2321POPC   D2A33376  28.736  44.836   8.346
 2321POPC   C3A33377  28.520  44.676   8.038
 2321POPC   C4A33378  28.404  44.595   7.664
 2321POPC   C1B33379  28.180  44.304   8.645
 2321POPC   C2B33380  28.081  44.622   8.325
 2321POPC   C3B33381  27.933  44.598   7.904
 2321POPC   C4B33382  28.119  44.198   7.797
 2322POPC   NC333383  34.699   9.051   9.816
 2322POPC   PO433384  34.193   8.951   9.403
 2322POPC   GL133385  34.209   9.229   9.080
 2322POPC   GL233386  34.322   8.933   8.900
 2322POPC   C1A33387  34.361   9.384   8.707
 2322POPC   D2A33388  34.606   9.088   8.482
 2322POPC   C3A33389  34.462   8.940   8.105
 2322POPC   C4A33390  34.619   9.054   7.687
 2322POPC   C1B33391  34.552   8.602   8.727
 2322POPC   C2B33392  34.525   8.479   8.337
 2322POPC   C3B33393  34.768   8.574   7.965
 2322POPC   C4B33394  34.425   8.604   7.709
 2323POPC   NC333395  41.456  31.685   9.495
 2323POPC   PO433396  42.097  31.629   9.557
 2323POPC   GL133397  41.822  31.476   9.174
 2323POPC   GL233398  41.470  31.503   9.000
 2323POPC   C1A33399  41.819  31.224   8.775
 2323POPC   D2A33400  41.535  31.317   8.443
 2323POPC   C3A33401  41.546  31.609   8.107
 2323POPC   C4A33402  41.369  31.484   7.707
 2323POPC   C1B33403  41.456  31.799   8.624
 2323POPC   C2B33404  41.254  32.013   8.260
 2323POPC   C3B33405  41.240  31.972   7.804
 2323POPC   C4B33406  41.396  31.878   7.367
 2324POPC   NC333407  11.801  13.162   9.661
 2324POPC   PO433408  12.479  12.993   9.598
 2324POPC   GL133409  12.232  13.120   9.205
 2324POPC   GL233410  11.954  12.911   9.143
 2324POPC   C1A33411  12.296  12.906   8.759
 2324POPC   D2A33412  11.913  12.705   8.543
 2324POPC   C3A33413  11.906  12.694   8.095
 2324POPC   C4A33414  12.271  12.863   7.877
 2324POPC   C1B33415  11.891  13.192   8.766
 2324POPC   C2B33416  12.074  13.140   8.334
 2324POPC   C3B33417  11.838  13.210   7.959
 2324POPC   C4B33418  11.529  13.191   7.632
 2325POPC   NC333419   0.141  26.023   9.601
 2325POPC   PO433420  44.601  25.950   9.712
 2325POPC   GL133421  44.704  25.960   9.261
 2325POPC   GL233422  44.948  26.219   9.148
 2325POPC   C1A33423  44.638  25.964   8.790
 2325POPC   D2A33424  44.490  25.836   8.363
 2325POPC   C3A33425  44.561  26.091   8.008
 2325POPC   C4A33426  44.613  25.935   7.616
 2325POPC   C1B33427   0.081  26.247   8.696
 2325POPC   C2B33428   0.006  26.033   8.287
 2325POPC   C3B33429   0.060  26.007   7.837
 2325POPC   C4B33430   0.079  26.364   7.572
 2326POPC   NC333431   7.906  31.179   9.329
 2326POPC   PO433432   7.331  31.270   9.670
 2326POPC   GL133433   7.411  31.551   9.229
 2326POPC   GL233434   7.200  31.411   8.952
 2326POPC   C1A33435   7.616  31.729   8.860
 2326POPC   D2A33436   7.768  31.708   8.429
 2326POPC   C3A33437   7.578  31.417   8.152
 2326POPC   C4A33438   7.566  31.509   7.735
 2326POPC   C1B33439   7.185  31.092   8.611
 2326POPC   C2B33440   6.946  30.865   8.336
 2326POPC   C3B33441   6.873  31.011   7.960
 2326POPC   C4B33442   7.157  31.218   7.743
 2327POPC   NC333443  11.677  14.876   9.422
 2327POPC   PO433444  11.683  14.206   9.417
 2327POPC   GL133445  11.356  14.373   9.135
 2327POPC   GL233446  10.997  14.332   9.228
 2327POPC   C1A33447  11.333  14.637   8.769
 2327POPC   D2A33448  11.483  14.565   8.371
 2327POPC   C3A33449  11.307  14.670   7.995
 2327POPC   C4A33450  11.327  14.451   7.622
 2327POPC   C1B33451  11.023  14.092   8.817
 2327POPC   C2B33452  11.202  14.140   8.392
 2327POPC   C3B33453  11.256  14.069   7.973
 2327POPC   C4B33454  10.978  14.078   7.626
 2328POPC   NC333455  40.468  31.571   9.596
 2328POPC   PO433456  39.876  31.352   9.555
 2328POPC   GL133457  40.043  31.538   9.185
 2328POPC   GL233458  40.290  31.313   9.117
 2328POPC   C1A33459  39.874  31.508   8.747
 2328POPC   D2A33460  39.739  31.642   8.304
 2328POPC   C3A33461  39.962  31.648   7.878
 2328POPC   C4A33462  39.867  31.683   7.415
 2328POPC   C1B33463  40.368  31.408   8.671
 2328POPC   C2B33464  40.531  31.374   8.258
 2328POPC   C3B33465  40.284  31.192   7.916
 2328POPC   C4B33466  40.184  31.275   7.470
 2329POPC   NC333467   6.657  13.968   9.473
 2329POPC   PO433468   6.633  13.333   9.671
 2329POPC   GL133469   6.731  13.501   9.254
 2329POPC   GL233470   6.794  13.255   9.003
 2329POPC   C1A33471   6.667  13.739   8.872
 2329POPC   D2A33472   6.706  13.598   8.472
 2329POPC   C3A33473   6.483  13.822   8.175
 2329POPC   C4A33474   6.631  13.694   7.792
 2329POPC   C1B33475   6.405  13.222   8.754
 2329POPC   C2B33476   6.191  13.250   8.354
 2329POPC   C3B33477   6.263  13.391   7.937
 2329POPC   C4B33478   6.370  13.402   7.451
 2330POPC   NC333479  30.633   6.792   9.617
 2330POPC   PO433480  30.912   6.174   9.453
 2330POPC   GL133481  30.640   6.375   9.119
 2330POPC   GL233482  30.475   6.725   9.139
 2330POPC   C1A33483  30.769   6.577   8.741
 2330POPC   D2A33484  30.843   6.821   8.371
 2330POPC   C3A33485  30.806   6.569   8.003
 2330POPC   C4A33486  30.578   6.421   7.673
 2330POPC   C1B33487  30.444   6.990   8.766
 2330POPC   C2B33488  30.372   7.096   8.322
 2330POPC   C3B33489  30.577   7.015   7.932
 2330POPC   C4B33490  30.436   6.872   7.525
 2331POPC   NC333491  12.131  23.554   9.473
 2331POPC   PO433492  11.601  24.057   9.345
 2331POPC   GL133493  11.945  23.829   9.089
 2331POPC   GL233494  11.859  23.598   8.880
 2331POPC   C1A33495  12.287  23.858   8.783
 2331POPC   D2A33496  12.114  23.913   8.360
 2331POPC   C3A33497  12.278  23.861   7.936
 2331POPC   C4A33498  12.304  23.906   7.468
 2331POPC   C1B33499  12.203  23.388   8.641
 2331POPC   C2B33500  12.380  23.407   8.221
 2331POPC   C3B33501  12.112  23.385   7.870
 2331POPC   C4B33502  11.885  23.670   7.618
 2332POPC   NC333503  16.218  24.859   9.340
 2332POPC   PO433504  16.114  25.533   9.517
 2332POPC   GL133505  15.917  25.300   9.202
 2332POPC   GL233506  15.548  25.251   9.245
 2332POPC   C1A33507  16.085  25.335   8.779
 2332POPC   D2A33508  16.295  25.391   8.368
 2332POPC   C3A33509  16.158  25.178   7.985
 2332POPC   C4A33510  15.963  25.361   7.606
 2332POPC   C1B33511  15.587  25.266   8.806
 2332POPC   C2B33512  15.792  25.180   8.397
 2332POPC   C3B33513  15.661  25.239   8.009
 2332POPC   C4B33514  15.616  24.983   7.661
 2333POPC   NC333515   1.846  33.411   9.310
 2333POPC   PO433516   2.411  33.383   9.416
 2333POPC   GL133517   2.178  33.718   9.091
 2333POPC   GL233518   1.825  33.933   9.136
 2333POPC   C1A33519   1.931  33.676   8.699
 2333POPC   D2A33520   2.040  33.528   8.309
 2333POPC   C3A33521   1.754  33.519   7.961
 2333POPC   C4A33522   1.982  33.431   7.572
 2333POPC   C1B33523   1.754  34.159   8.725
 2333POPC   C2B33524   1.731  33.991   8.304
 2333POPC   C3B33525   2.026  33.961   7.957
 2333POPC   C4B33526   1.765  33.907   7.605
 2334POPC   NC333527  17.498  10.123   9.830
 2334POPC   PO433528  17.350  10.739   9.429
 2334POPC   GL133529  17.532  10.823   9.034
 2334POPC   GL233530  17.681  10.547   9.024
 2334POPC   C1A33531  17.701  10.832   8.616
 2334POPC   D2A33532  17.424  10.846   8.314
 2334POPC   C3A33533  17.558  10.739   7.916
 2334POPC   C4A33534  17.588  10.983   7.581
 2334POPC   C1B33535  17.765  10.311   8.686
 2334POPC   C2B33536  17.634  10.367   8.286
 2334POPC   C3B33537  17.769  10.269   7.888
 2334POPC   C4B33538  17.609  10.308   7.492
 2335POPC   NC333539  34.918  17.249   9.342
 2335POPC   PO433540  34.393  17.523   9.680
 2335POPC   GL133541  34.494  17.501   9.255
 2335POPC   GL233542  34.490  17.222   9.063
 2335POPC   C1A33543  34.545  17.644   8.789
 2335POPC   D2A33544  34.891  17.685   8.463
 2335POPC   C3A33545  34.772  17.570   8.055
 2335POPC   C4A33546  34.421  17.754   7.852
 2335POPC   C1B33547  34.760  17.203   8.689
 2335POPC   C2B33548  34.661  17.131   8.273
 2335POPC   C3B33549  34.459  17.203   7.867
 2335POPC   C4B33550  34.765  17.198   7.517
 2336POPC   NC333551  34.167  40.985   9.516
 2336POPC   PO433552  34.833  40.902   9.634
 2336POPC   GL133553  34.704  40.701   9.214
 2336POPC   GL233554  34.920  40.452   9.069
 2336POPC   C1A33555  34.459  40.930   8.856
 2336POPC   D2A33556  34.303  40.808   8.459
 2336POPC   C3A33557  34.382  41.030   8.111
 2336POPC   C4A33558  34.547  40.824   7.788
 2336POPC   C1B33559  34.935  40.711   8.733
 2336POPC   C2B33560  34.805  40.734   8.306
 2336POPC   C3B33561  34.948  40.550   7.951
 2336POPC   C4B33562  35.018  40.159   7.744
 2337POPC   NC333563   5.575  10.680   9.407
 2337POPC   PO433564   6.121  10.237   9.653
 2337POPC   GL133565   6.005  10.430   9.237
 2337POPC   GL233566   6.001  10.790   9.177
 2337POPC   C1A33567   5.962  10.264   8.795
 2337POPC   D2A33568   5.624  10.274   8.472
 2337POPC   C3A33569   5.761  10.288   8.029
 2337POPC   C4A33570   5.839  10.225   7.571
 2337POPC   C1B33571   5.774  10.747   8.785
 2337POPC   C2B33572   5.460  10.820   8.481
 2337POPC   C3B33573   5.487  10.870   8.040
 2337POPC   C4B33574   5.802  10.715   7.729
 2338POPC   NC333575  43.841   4.853   9.693
 2338POPC   PO433576  44.287   5.257   9.502
 2338POPC   GL133577  44.047   5.019   9.199
 2338POPC   GL233578  43.690   5.160   9.131
 2338POPC   C1A33579  43.912   4.914   8.764
 2338POPC   D2A33580  43.728   5.272   8.522
 2338POPC   C3A33581  43.839   5.297   8.108
 2338POPC   C4A33582  44.055   4.951   7.907
 2338POPC   C1B33583  43.403   4.995   8.806
 2338POPC   C2B33584  43.356   4.951   8.344
 2338POPC   C3B33585  43.546   4.836   7.946
 2338POPC   C4B33586  43.681   5.147   7.631
 2339POPC   NC333587  15.453  11.034   9.353
 2339POPC   PO433588  14.888  11.260   9.609
 2339POPC   GL133589  15.055  11.290   9.201
 2339POPC   GL233590  15.268  11.530   9.252
 2339POPC   C1A33591  15.300  11.306   8.774
 2339POPC   D2A33592  15.259  11.076   8.375
 2339POPC   C3A33593  15.460  11.024   7.973
 2339POPC   C4A33594  15.216  11.271   7.680
 2339POPC   C1B33595  14.931  11.639   8.870
 2339POPC   C2B33596  14.961  11.518   8.424
 2339POPC   C3B33597  15.124  11.645   8.039
 2339POPC   C4B33598  15.011  11.758   7.626
 2340POPC   NC333599  40.080  16.507   9.278
 2340POPC   PO433600  39.901  15.853   9.506
 2340POPC   GL133601  40.014  15.819   9.082
 2340POPC   GL233602  40.151  16.123   8.977
 2340POPC   C1A33603  39.802  15.918   8.684
 2340POPC   D2A33604  39.990  16.225   8.362
 2340POPC   C3A33605  40.004  16.072   7.911
 2340POPC   C4A33606  39.770  15.754   7.798
 2340POPC   C1B33607  40.312  15.933   8.615
 2340POPC   C2B33608  40.431  16.008   8.170
 2340POPC   C3B33609  40.494  15.969   7.719
 2340POPC   C4B33610  40.507  16.130   7.248
 2341POPC   NC333611  43.391  15.311   9.811
 2341POPC   PO433612  42.779  15.363   9.588
 2341POPC   GL133613  43.040  15.408   9.215
 2341POPC   GL233614  43.147  15.766   9.198
 2341POPC   C1A33615  43.014  15.167   8.800
 2341POPC   D2A33616  42.847  15.046   8.359
 2341POPC   C3A33617  43.144  14.981   8.004
 2341POPC   C4A33618  43.287  15.146   7.596
 2341POPC   C1B33619  43.041  15.686   8.762
 2341POPC   C2B33620  43.168  15.449   8.396
 2341POPC   C3B33621  43.167  15.500   7.960
 2341POPC   C4B33622  43.304  15.655   7.574
 2342POPC   NC333623  27.945   9.799   9.507
 2342POPC   PO433624  27.239   9.713   9.501
 2342POPC   GL133625  27.520   9.619   9.163
 2342POPC   GL233626  27.664   9.928   9.118
 2342POPC   C1A33627  27.522   9.410   8.750
 2342POPC   D2A33628  27.466   9.244   8.316
 2342POPC   C3A33629  27.560   9.565   7.986
 2342POPC   C4A33630  27.467   9.542   7.554
 2342POPC   C1B33631  27.553  10.093   8.727
 2342POPC   C2B33632  27.508   9.978   8.303
 2342POPC   C3B33633  27.670  10.097   7.892
 2342POPC   C4B33634  27.880   9.826   7.576
 2343POPC   NC333635  36.039  37.307   9.400
 2343POPC   PO433636  36.168  37.896   9.597
 2343POPC   GL133637  36.191  37.802   9.158
 2343POPC   GL233638  35.912  38.010   9.145
 2343POPC   C1A33639  36.051  37.684   8.704
 2343POPC   D2A33640  35.928  37.681   8.226
 2343POPC   C3A33641  36.288  37.570   7.900
 2343POPC   C4A33642  36.378  37.729   7.447
 2343POPC   C1B33643  35.676  38.055   8.759
 2343POPC   C2B33644  35.481  38.001   8.371
 2343POPC   C3B33645  35.623  38.071   7.965
 2343POPC   C4B33646  35.928  37.877   7.702
 2344POPC   NC333647  43.787   1.040   9.420
 2344POPC   PO433648  43.942   0.386   9.488
 2344POPC   GL133649  43.755   0.331   9.103
 2344POPC   GL233650  43.921   0.637   9.053
 2344POPC   C1A33651  43.639   0.440   8.675
 2344POPC   D2A33652  43.609   0.176   8.319
 2344POPC   C3A33653  43.752   0.089   7.917
 2344POPC   C4A33654  43.448   0.250   7.649
 2344POPC   C1B33655  44.058   0.759   8.673
 2344POPC   C2B33656  43.927   0.829   8.262
 2344POPC   C3B33657  43.926   0.565   7.905
 2344POPC   C4B33658  43.856   0.590   7.476
 2345POPC   NC333659  18.129  37.823   9.656
 2345POPC   PO433660  18.494  37.271   9.689
 2345POPC   GL133661  18.376  37.538   9.297
 2345POPC   GL233662  18.503  37.868   9.223
 2345POPC   C1A33663  18.084  37.681   8.948
 2345POPC   D2A33664  18.127  37.981   8.582
 2345POPC   C3A33665  18.149  37.803   8.161
 2345POPC   C4A33666  18.220  37.867   7.709
 2345POPC   C1B33667  18.559  37.776   8.784
 2345POPC   C2B33668  18.615  37.621   8.368
 2345POPC   C3B33669  18.639  37.789   7.961
 2345POPC   C4B33670  18.653  37.548   7.588
 2346POPC   NC333671  20.280  40.467   9.343
 2346POPC   PO433672  20.787  40.835   9.594
 2346POPC   GL133673  20.794  40.686   9.173
 2346POPC   GL233674  21.114  40.564   9.094
 2346POPC   C1A33675  20.603  40.927   8.817
 2346POPC   D2A33676  20.411  41.016   8.406
 2346POPC   C3A33677  20.446  40.635   8.147
 2346POPC   C4A33678  20.440  40.507   7.727
 2346POPC   C1B33679  21.112  40.865   8.770
 2346POPC   C2B33680  20.951  41.062   8.434
 2346POPC   C3B33681  20.858  41.036   8.024
 2346POPC   C4B33682  20.965  40.784   7.696
 2347POPC   NC333683  43.582   7.986   9.490
 2347POPC   PO433684  43.880   8.402   9.101
 2347POPC   GL133685  43.888   7.926   9.090
 2347POPC   GL233686  44.214   7.791   8.975
 2347POPC   C1A33687  43.744   7.746   8.732
 2347POPC   D2A33688  43.868   7.995   8.346
 2347POPC   C3A33689  43.950   7.905   7.909
 2347POPC   C4A33690  43.985   8.002   7.452
 2347POPC   C1B33691  44.274   8.117   8.625
 2347POPC   C2B33692  44.237   8.298   8.170
 2347POPC   C3B33693  44.021   8.418   7.755
 2347POPC   C4B33694  44.133   8.655   7.350
 2348POPC   NC333695  28.742  33.136   9.537
 2348POPC   PO433696  28.116  32.862   9.627
 2348POPC   GL133697  28.363  32.872   9.236
 2348POPC   GL233698  28.409  33.224   9.155
 2348POPC   C1A33699  28.491  32.819   8.795
 2348POPC   D2A33700  28.631  33.139   8.473
 2348POPC   C3A33701  28.527  33.071   8.069
 2348POPC   C4A33702  28.253  32.834   7.832
 2348POPC   C1B33703  28.177  33.199   8.779
 2348POPC   C2B33704  28.098  33.104   8.380
 2348POPC   C3B33705  28.124  33.388   8.076
 2348POPC   C4B33706  28.194  33.327   7.689
 2349POPC   NC333707  24.479  40.041   9.615
 2349POPC   PO433708  24.276  40.547   9.259
 2349POPC   GL133709  24.512  40.165   9.124
 2349POPC   GL233710  24.345  39.904   8.951
 2349POPC   C1A33711  24.846  40.021   8.858
 2349POPC   D2A33712  25.009  40.224   8.465
 2349POPC   C3A33713  24.725  40.244   8.115
 2349POPC   C4A33714  24.480  40.067   7.757
 2349POPC   C1B33715  24.443  40.120   8.545
 2349POPC   C2B33716  24.198  40.273   8.152
 2349POPC   C3B33717  23.999  40.229   7.724
 2349POPC   C4B33718  24.062  40.095   7.281
 2350POPC   NC333719   0.104  30.662   9.404
 2350POPC   PO433720   0.833  30.557   9.522
 2350POPC   GL133721   0.560  30.436   9.175
 2350POPC   GL233722   0.461  30.765   9.024
 2350POPC   C1A33723   0.662  30.326   8.750
 2350POPC   D2A33724   0.615  30.611   8.435
 2350POPC   C3A33725   0.616  30.460   7.992
 2350POPC   C4A33726   0.545  30.802   7.687
 2350POPC   C1B33727   0.194  30.890   8.667
 2350POPC   C2B33728   0.271  30.903   8.227
 2350POPC   C3B33729   0.124  31.011   7.851
 2350POPC   C4B33730   0.169  31.083   7.398
 2351POPC   NC333731  33.754  20.484   9.450
 2351POPC   PO433732  34.184  20.908   9.659
 2351POPC   GL133733  34.125  20.709   9.203
 2351POPC   GL233734  33.959  20.902   8.924
 2351POPC   C1A33735  34.119  20.456   8.787
 2351POPC   D2A33736  33.996  20.674   8.405
 2351POPC   C3A33737  33.947  20.466   7.975
 2351POPC   C4A33738  33.535  20.387   7.776
 2351POPC   C1B33739  33.667  21.026   8.621
 2351POPC   C2B33740  33.636  20.971   8.201
 2351POPC   C3B33741  33.726  21.134   7.835
 2351POPC   C4B33742  33.797  20.818   7.608
 2352POPC   NC333743  17.164   9.345   9.683
 2352POPC   PO433744  17.330   8.838   9.311
 2352POPC   GL133745  17.512   9.018   8.997
 2352POPC   GL233746  17.857   9.124   9.172
 2352POPC   C1A33747  17.260   9.032   8.596
 2352POPC   D2A33748  17.072   8.966   8.180
 2352POPC   C3A33749  17.196   9.169   7.815
 2352POPC   C4A33750  17.463   8.976   7.516
 2352POPC   C1B33751  17.952   8.892   8.806
 2352POPC   C2B33752  17.747   8.997   8.442
 2352POPC   C3B33753  17.654   9.022   8.026
 2352POPC   C4B33754  17.908   8.818   7.755
 2353POPC   NC333755  29.591  16.683   9.498
 2353POPC   PO433756  30.083  17.172   9.478
 2353POPC   GL133757  30.006  16.966   9.105
 2353POPC   GL233758  29.688  16.969   9.085
 2353POPC   C1A33759  29.982  16.705   8.741
 2353POPC   D2A33760  30.020  16.881   8.324
 2353POPC   C3A33761  29.901  16.585   8.015
 2353POPC   C4A33762  30.089  16.430   7.633
 2353POPC   C1B33763  29.695  17.114   8.650
 2353POPC   C2B33764  29.494  16.932   8.292
 2353POPC   C3B33765  29.502  16.893   7.863
 2353POPC   C4B33766  29.833  16.862   7.575
 2354POPC   NC333767   5.720   4.819   9.544
 2354POPC   PO433768   5.899   4.191   9.466
 2354POPC   GL133769   5.738   4.137   9.095
 2354POPC   GL233770   5.752   4.501   9.052
 2354POPC   C1A33771   5.953   4.174   8.697
 2354POPC   D2A33772   6.223   4.253   8.338
 2354POPC   C3A33773   5.939   4.213   8.045
 2354POPC   C4A33774   5.886   4.086   7.691
 2354POPC   C1B33775   6.067   4.714   8.767
 2354POPC   C2B33776   6.333   4.761   8.392
 2354POPC   C3B33777   6.199   4.684   7.990
 2354POPC   C4B33778   6.046   4.627   7.601
 2355POPC   NC333779  19.814  28.930   9.441
 2355POPC   PO433780  20.004  29.552   9.391
 2355POPC   GL133781  19.701  29.331   9.132
 2355POPC   GL233782  19.394  29.412   8.957
 2355POPC   C1A33783  19.768  29.153   8.713
 2355POPC   D2A33784  19.616  29.172   8.288
 2355POPC   C3A33785  19.996  29.093   8.047
 2355POPC   C4A33786  20.377  29.016   7.802
 2355POPC   C1B33787  19.290  29.016   8.702
 2355POPC   C2B33788  19.472  28.704   8.410
 2355POPC   C3B33789  19.596  28.771   7.958
 2355POPC   C4B33790  19.619  29.184   7.726
 2356POPC   NC333791  34.082  31.373   9.390
 2356POPC   PO433792  33.715  31.881   9.682
 2356POPC   GL133793  33.703  31.662   9.210
 2356POPC   GL233794  33.813  31.337   8.951
 2356POPC   C1A33795  33.752  31.768   8.750
 2356POPC   D2A33796  33.807  31.439   8.403
 2356POPC   C3A33797  33.758  31.504   7.939
 2356POPC   C4A33798  33.743  31.238   7.563
 2356POPC   C1B33799  34.189  31.252   8.704
 2356POPC   C2B33800  34.318  31.364   8.275
 2356POPC   C3B33801  34.149  31.186   7.884
 2356POPC   C4B33802  34.189  30.979   7.480
 2357POPC   NC333803  13.449   3.561   9.616
 2357POPC   PO433804  14.122   3.746   9.682
 2357POPC   GL133805  13.880   3.607   9.285
 2357POPC   GL233806  13.557   3.471   9.142
 2357POPC   C1A33807  13.892   3.578   8.797
 2357POPC   D2A33808  13.604   3.656   8.446
 2357POPC   C3A33809  13.671   3.689   7.983
 2357POPC   C4A33810  13.677   3.711   7.550
 2357POPC   C1B33811  13.474   3.247   8.754
 2357POPC   C2B33812  13.614   3.139   8.350
 2357POPC   C3B33813  13.458   3.245   7.969
 2357POPC   C4B33814  13.566   3.228   7.547
 2358POPC   NC333815   0.293  35.710   9.640
 2358POPC   PO433816   0.404  36.359   9.667
 2358POPC   GL133817   0.398  36.172   9.254
 2358POPC   GL233818   0.093  35.971   9.256
 2358POPC   C1A33819   0.461  36.347   8.814
 2358POPC   D2A33820   0.717  36.437   8.440
 2358POPC   C3A33821   0.529  36.247   8.084
 2358POPC   C4A33822   0.258  36.420   7.808
 2358POPC   C1B33823   0.167  35.910   8.828
 2358POPC   C2B33824  44.993  35.757   8.422
 2358POPC   C3B33825   0.245  35.750   8.012
 2358POPC   C4B33826   0.247  35.935   7.587
 2359POPC   NC333827  37.231  22.139   9.437
 2359POPC   PO433828  36.618  22.343   9.473
 2359POPC   GL133829  36.825  22.151   9.122
 2359POPC   GL233830  37.130  22.366   9.005
 2359POPC   C1A33831  36.733  22.157   8.704
 2359POPC   D2A33832  36.926  22.235   8.333
 2359POPC   C3A33833  36.632  22.102   8.056
 2359POPC   C4A33834  36.711  22.205   7.640
 2359POPC   C1B33835  37.223  22.025   8.721
 2359POPC   C2B33836  37.240  21.821   8.309
 2359POPC   C3B33837  37.093  21.959   7.893
 2359POPC   C4B33838  37.139  21.972   7.412
 2360POPC   NC333839   3.143  21.115   9.494
 2360POPC   PO433840   3.843  21.049   9.428
 2360POPC   GL133841   3.639  21.252   9.091
 2360POPC   GL233842   3.466  21.528   9.250
 2360POPC   C1A33843   3.476  21.120   8.677
 2360POPC   D2A33844   3.631  20.896   8.305
 2360POPC   C3A33845   3.577  21.202   7.988
 2360POPC   C4A33846   3.753  21.384   7.663
 2360POPC   C1B33847   3.412  21.616   8.790
 2360POPC   C2B33848   3.424  21.544   8.347
 2360POPC   C3B33849   3.296  21.628   7.909
 2360POPC   C4B33850   3.406  21.721   7.471
 2361POPC   NC333851   7.162  20.363   9.299
 2361POPC   PO433852   6.685  20.682   9.827
 2361POPC   GL133853   6.609  20.683   9.321
 2361POPC   GL233854   6.396  20.373   9.213
 2361POPC   C1A33855   6.608  20.857   8.863
 2361POPC   D2A33856   6.847  20.877   8.450
 2361POPC   C3A33857   6.626  20.751   8.047
 2361POPC   C4A33858   6.683  20.728   7.556
 2361POPC   C1B33859   6.417  20.396   8.811
 2361POPC   C2B33860   6.613  20.266   8.440
 2361POPC   C3B33861   6.375  20.106   8.106
 2361POPC   C4B33862   6.468  20.286   7.714
 2362POPC   NC333863   5.087  36.023   9.446
 2362POPC   PO433864   5.416  36.630   9.372
 2362POPC   GL133865   5.267  36.344   9.062
 2362POPC   GL233866   4.886  36.296   9.009
 2362POPC   C1A33867   5.450  36.053   8.757
 2362POPC   D2A33868   5.336  35.939   8.336
 2362POPC   C3A33869   5.312  36.238   8.011
 2362POPC   C4A33870   5.020  36.429   7.752
 2362POPC   C1B33871   4.893  35.882   8.804
 2362POPC   C2B33872   4.886  35.677   8.388
 2362POPC   C3B33873   4.899  35.881   7.960
 2362POPC   C4B33874   4.963  35.697   7.552
 2363POPC   NC333875  16.521  38.717   9.578
 2363POPC   PO433876  16.927  39.289   9.660
 2363POPC   GL133877  16.929  39.236   9.211
 2363POPC   GL233878  16.873  38.897   9.225
 2363POPC   C1A33879  16.648  39.221   8.807
 2363POPC   D2A33880  16.420  39.373   8.392
 2363POPC   C3A33881  16.646  39.430   7.974
 2363POPC   C4A33882  16.821  39.470   7.532
 2363POPC   C1B33883  16.993  38.791   8.826
 2363POPC   C2B33884  16.865  38.926   8.414
 2363POPC   C3B33885  16.593  38.923   8.066
 2363POPC   C4B33886  16.758  38.990   7.656
 2364POPC   NC333887  40.355  26.557   9.510
 2364POPC   PO433888  40.077  27.229   9.554
 2364POPC   GL133889  39.987  26.924   9.225
 2364POPC   GL233890  40.295  26.892   9.097
 2364POPC   C1A33891  39.873  26.730   8.825
 2364POPC   D2A33892  39.712  26.824   8.424
 2364POPC   C3A33893  39.937  26.938   8.057
 2364POPC   C4A33894  39.756  26.881   7.674
 2364POPC   C1B33895  40.345  26.516   8.845
 2364POPC   C2B33896  40.113  26.397   8.474
 2364POPC   C3B33897  39.938  26.429   8.078
 2364POPC   C4B33898  40.226  26.521   7.744
 2365POPC   NC333899  19.102   5.802   9.432
 2365POPC   PO433900  18.460   5.611   9.567
 2365POPC   GL133901  18.714   5.629   9.146
 2365POPC   GL233902  18.804   5.953   9.044
 2365POPC   C1A33903  18.983   5.640   8.695
 2365POPC   D2A33904  18.758   5.688   8.261
 2365POPC   C3A33905  18.922   5.865   7.895
 2365POPC   C4A33906  19.344   5.763   7.856
 2365POPC   C1B33907  19.082   6.145   8.734
 2365POPC   C2B33908  19.159   6.058   8.300
 2365POPC   C3B33909  19.280   6.256   7.883
 2365POPC   C4B33910  19.100   6.162   7.483
 2366POPC   NC333911  34.690   5.237   9.672
 2366POPC   PO433912  34.074   5.058   9.759
 2366POPC   GL133913  34.314   5.163   9.330
 2366POPC   GL233914  34.288   4.894   9.105
 2366POPC   C1A33915  34.291   5.372   8.859
 2366POPC   D2A33916  34.256   5.293   8.365
 2366POPC   C3A33917  34.599   5.310   8.018
 2366POPC   C4A33918  34.858   5.235   7.630
 2366POPC   C1B33919  34.467   4.929   8.673
 2366POPC   C2B33920  34.727   4.926   8.310
 2366POPC   C3B33921  34.696   4.797   7.875
 2366POPC   C4B33922  34.623   4.547   7.479
 2367POPC   NC333923  36.763  13.970   9.519
 2367POPC   PO433924  36.771  13.295   9.405
 2367POPC   GL133925  36.886  13.637   9.128
 2367POPC   GL233926  37.129  13.945   9.149
 2367POPC   C1A33927  36.788  13.596   8.705
 2367POPC   D2A33928  36.977  13.558   8.289
 2367POPC   C3A33929  36.755  13.535   7.889
 2367POPC   C4A33930  37.149  13.401   7.716
 2367POPC   C1B33931  36.848  14.109   8.794
 2367POPC   C2B33932  36.697  13.983   8.352
 2367POPC   C3B33933  36.971  13.999   7.971
 2367POPC   C4B33934  36.925  13.853   7.537
 2368POPC   NC333935  28.099   3.189   9.359
 2368POPC   PO433936  28.364   2.544   9.487
 2368POPC   GL133937  28.604   2.692   9.168
 2368POPC   GL233938  28.521   3.038   9.076
 2368POPC   C1A33939  28.634   2.604   8.776
 2368POPC   D2A33940  28.457   2.848   8.497
 2368POPC   C3A33941  28.405   2.729   8.101
 2368POPC   C4A33942  28.716   2.717   7.787
 2368POPC   C1B33943  28.817   3.143   8.730
 2368POPC   C2B33944  28.866   3.038   8.286
 2368POPC   C3B33945  28.639   3.185   7.968
 2368POPC   C4B33946  28.308   3.087   7.729
 2369POPC   NC333947  24.596  30.039   9.311
 2369POPC   PO433948  24.518  29.372   9.431
 2369POPC   GL133949  24.566  29.583   9.038
 2369POPC   GL233950  24.879  29.701   8.981
 2369POPC   C1A33951  24.453  29.882   8.685
 2369POPC   D2A33952  24.174  29.908   8.324
 2369POPC   C3A33953  24.259  29.734   7.954
 2369POPC   C4A33954  24.325  30.058   7.697
 2369POPC   C1B33955  24.847  29.588   8.582
 2369POPC   C2B33956  24.684  29.800   8.231
 2369POPC   C3B33957  24.802  29.908   7.836
 2369POPC   C4B33958  24.975  29.763   7.472
 2370POPC   NC333959   9.941  40.180   9.467
 2370POPC   PO433960  10.056  39.498   9.449
 2370POPC   GL133961  10.050  39.847   9.059
 2370POPC   GL233962  10.114  40.219   9.001
 2370POPC   C1A33963   9.945  39.735   8.610
 2370POPC   D2A33964   9.572  39.678   8.300
 2370POPC   C3A33965   9.571  39.983   7.944
 2370POPC   C4A33966   9.465  40.293   7.598
 2370POPC   C1B33967   9.944  40.254   8.602
 2370POPC   C2B33968  10.020  40.087   8.191
 2370POPC   C3B33969   9.923  40.342   7.809
 2370POPC   C4B33970   9.971  40.256   7.385
 2371POPC   NC333971  23.247  30.435   9.407
 2371POPC   PO433972  22.608  30.601   9.480
 2371POPC   GL133973  22.776  30.453   9.144
 2371POPC   GL233974  22.972  30.725   9.088
 2371POPC   C1A33975  22.759  30.289   8.746
 2371POPC   D2A33976  23.021  30.428   8.445
 2371POPC   C3A33977  22.966  30.559   8.039
 2371POPC   C4A33978  22.640  30.341   7.886
 2371POPC   C1B33979  22.895  30.859   8.686
 2371POPC   C2B33980  23.287  30.858   8.445
 2371POPC   C3B33981  23.332  30.940   8.054
 2371POPC   C4B33982  23.140  30.869   7.647
 2372POPC   NC333983   9.375  43.367   9.397
 2372POPC   PO433984   9.809  42.886   9.525
 2372POPC   GL133985   9.676  43.039   9.116
 2372POPC   GL233986   9.313  42.933   9.102
 2372POPC   C1A33987   9.876  43.230   8.712
 2372POPC   D2A33988   9.804  43.164   8.225
 2372POPC   C3A33989  10.152  43.152   7.875
 2372POPC   C4A33990  10.024  43.244   7.397
 2372POPC   C1B33991   9.479  42.877   8.671
 2372POPC   C2B33992   9.506  42.716   8.260
 2372POPC   C3B33993   9.445  42.719   7.811
 2372POPC   C4B33994   9.684  43.074   7.718
 2373POPC   NC333995  30.973  34.980   9.520
 2373POPC   PO433996  30.626  35.474   9.485
 2373POPC   GL133997  30.795  35.516   9.106
 2373POPC   GL233998  30.645  35.190   9.063
 2373POPC   C1A33999  30.647  35.527   8.682
 2373POPC   D2A34000  30.643  35.178   8.410
 2373POPC   C3A34001  30.692  35.322   8.017
 2373POPC   C4A34002  30.605  35.415   7.600
 2373POPC   C1B34003  30.297  35.066   8.772
 2373POPC   C2B34004  30.127  35.039   8.318
 2373POPC   C3B34005  30.234  35.164   7.870
 2373POPC   C4B34006  30.269  35.113   7.398
 2374POPC   NC334007   4.647  12.805   9.148
 2374POPC   PO434008   4.168  12.874   9.595
 2374POPC   GL134009   4.099  12.770   9.178
 2374POPC   GL234010   4.218  13.066   9.024
 2374POPC   C1A34011   4.125  12.683   8.714
 2374POPC   D2A34012   4.119  12.968   8.348
 2374POPC   C3A34013   4.027  12.799   7.952
 2374POPC   C4A34014   4.106  13.047   7.611
 2374POPC   C1B34015   4.520  13.109   8.614
 2374POPC   C2B34016   4.610  12.837   8.241
 2374POPC   C3B34017   4.590  12.913   7.804
 2374POPC   C4B34018   4.558  13.026   7.358
 2375POPC   NC334019   6.553  40.225   9.802
 2375POPC   PO434020   6.841  40.753   9.474
 2375POPC   GL134021   6.800  40.771   9.044
 2375POPC   GL234022   6.446  40.833   8.975
 2375POPC   C1A34023   6.876  40.672   8.628
 2375POPC   D2A34024   7.053  40.614   8.231
 2375POPC   C3A34025   6.807  40.630   7.873
 2375POPC   C4A34026   6.597  40.991   7.741
 2375POPC   C1B34027   6.409  40.442   8.683
 2375POPC   C2B34028   6.472  40.421   8.223
 2375POPC   C3B34029   6.255  40.648   7.864
 2375POPC   C4B34030   6.160  40.868   7.437
 2376POPC   NC334031   8.084  40.359   9.210
 2376POPC   PO434032   8.076  40.904   9.623
 2376POPC   GL134033   8.334  40.831   9.275
 2376POPC   GL234034   8.161  41.107   9.146
 2376POPC   C1A34035   8.444  40.781   8.835
 2376POPC   D2A34036   8.458  40.435   8.533
 2376POPC   C3A34037   8.304  40.521   8.121
 2376POPC   C4A34038   8.307  40.740   7.711
 2376POPC   C1B34039   8.036  41.151   8.756
 2376POPC   C2B34040   8.177  40.959   8.423
 2376POPC   C3B34041   7.962  40.898   8.081
 2376POPC   C4B34042   7.866  41.152   7.758
 2377POPC   NC334043  39.589  40.359   9.283
 2377POPC   PO434044  40.091  40.554   9.675
 2377POPC   GL134045  40.153  40.693   9.238
 2377POPC   GL234046  39.842  40.752   9.026
 2377POPC   C1A34047  40.308  40.820   8.813
 2377POPC   D2A34048  40.078  40.795   8.426
 2377POPC   C3A34049  40.095  40.890   7.993
 2377POPC   C4A34050  40.240  40.976   7.570
 2377POPC   C1B34051  39.693  40.528   8.638
 2377POPC   C2B34052  39.667  40.620   8.171
 2377POPC   C3B34053  39.728  40.697   7.694
 2377POPC   C4B34054  39.628  40.621   7.225
 2378POPC   NC334055  43.057  25.015   9.569
 2378POPC   PO434056  43.593  25.414   9.622
 2378POPC   GL134057  43.269  25.388   9.280
 2378POPC   GL234058  42.929  25.529   9.326
 2378POPC   C1A34059  43.095  25.173   8.911
 2378POPC   D2A34060  43.152  25.046   8.473
 2378POPC   C3A34061  42.918  25.226   8.134
 2378POPC   C4A34062  42.967  25.061   7.708
 2378POPC   C1B34063  42.894  25.654   8.894
 2378POPC   C2B34064  43.060  25.560   8.503
 2378POPC   C3B34065  43.320  25.526   8.108
 2378POPC   C4B34066  42.997  25.581   7.783
 2379POPC   NC334067  42.656   3.946   9.189
 2379POPC   PO434068  42.527   4.541   9.546
 2379POPC   GL134069  42.622   4.456   9.107
 2379POPC   GL234070  42.299   4.307   9.092
 2379POPC   C1A34071  42.504   4.358   8.639
 2379POPC   D2A34072  42.637   4.430   8.213
 2379POPC   C3A34073  42.602   4.087   7.926
 2379POPC   C4A34074  42.438   4.044   7.490
 2379POPC   C1B34075  41.985   4.085   8.870
 2379POPC   C2B34076  41.844   4.227   8.465
 2379POPC   C3B34077  42.071   4.271   8.083
 2379POPC   C4B34078  41.945   4.083   7.706
 2380POPC   NC334079   3.470  38.042   9.692
 2380POPC   PO434080   3.200  38.705   9.592
 2380POPC   GL134081   3.460  38.411   9.317
 2380POPC   GL234082   3.505  38.636   9.139
 2380POPC   C1A34083   3.655  38.274   8.855
 2380POPC   D2A34084   3.597  38.462   8.470
 2380POPC   C3A34085   3.654  38.242   8.125
 2380POPC   C4A34086   3.669  38.398   7.751
 2380POPC   C1B34087   3.467  38.862   8.789
 2380POPC   C2B34088   3.337  38.915   8.404
 2380POPC   C3B34089   3.474  38.810   8.014
 2380POPC   C4B34090   3.318  38.734   7.586
 2381POPC   NC334091   4.436  15.839   9.359
 2381POPC   PO434092   3.904  16.239   9.486
 2381POPC   GL134093   4.096  16.138   9.112
 2381POPC   GL234094   4.029  15.767   9.003
 2381POPC   C1A34095   4.185  16.140   8.709
 2381POPC   D2A34096   4.090  15.855   8.452
 2381POPC   C3A34097   4.112  16.004   8.073
 2381POPC   C4A34098   4.404  16.026   7.795
 2381POPC   C1B34099   4.445  15.684   8.770
 2381POPC   C2B34100   4.617  15.512   8.443
 2381POPC   C3B34101   4.629  15.657   8.077
 2381POPC   C4B34102   4.437  15.522   7.731
 2382POPC   NC334103  35.963  33.927   9.449
 2382POPC   PO434104  36.366  33.398   9.369
 2382POPC   GL134105  36.265  33.731   9.096
 2382POPC   GL234106  35.940  33.568   9.054
 2382POPC   C1A34107  36.053  34.003   8.784
 2382POPC   D2A34108  35.942  34.234   8.421
 2382POPC   C3A34109  36.294  34.152   8.184
 2382POPC   C4A34110  36.415  34.066   7.751
 2382POPC   C1B34111  36.194  33.456   8.681
 2382POPC   C2B34112  36.303  33.659   8.291
 2382POPC   C3B34113  36.036  33.777   7.942
 2382POPC   C4B34114  35.946  33.487   7.625
 2383POPC   NC334115  16.652  14.168   9.575
 2383POPC   PO434116  17.091  14.627   9.658
 2383POPC   GL134117  16.930  14.350   9.207
 2383POPC   GL234118  16.562  14.397   9.127
 2383POPC   C1A34119  16.825  14.356   8.719
 2383POPC   D2A34120  16.923  14.480   8.284
 2383POPC   C3A34121  16.711  14.248   7.931
 2383POPC   C4A34122  16.747  14.277   7.479
 2383POPC   C1B34123  16.468  14.732   8.821
 2383POPC   C2B34124  16.419  14.848   8.431
 2383POPC   C3B34125  16.589  14.787   8.052
 2383POPC   C4B34126  16.431  14.672   7.642
 2384POPC   NC334127  37.320  41.119   9.480
 2384POPC   PO434128  37.825  41.540   9.585
 2384POPC   GL134129  37.835  41.480   9.166
 2384POPC   GL234130  38.161  41.538   9.101
 2384POPC   C1A34131  37.646  41.249   8.835
 2384POPC   D2A34132  37.457  41.210   8.438
 2384POPC   C3A34133  37.415  41.511   8.116
 2384POPC   C4A34134  37.482  41.333   7.727
 2384POPC   C1B34135  38.052  41.538   8.694
 2384POPC   C2B34136  38.246  41.773   8.406
 2384POPC   C3B34137  38.131  41.885   8.015
 2384POPC   C4B34138  37.749  41.757   7.773
 2385POPC   NC334139  20.468  14.642   9.536
 2385POPC   PO434140  20.356  14.044   9.682
 2385POPC   GL134141  20.517  14.230   9.231
 2385POPC   GL234142  20.383  14.499   9.055
 2385POPC   C1A34143  20.748  14.319   8.779
 2385POPC   D2A34144  20.768  14.546   8.400
 2385POPC   C3A34145  20.804  14.380   7.965
 2385POPC   C4A34146  20.740  14.590   7.559
 2385POPC   C1B34147  20.287  14.149   8.727
 2385POPC   C2B34148  20.369  14.264   8.249
 2385POPC   C3B34149  20.322  14.340   7.783
 2385POPC   C4B34150  20.106  14.397   7.378
 2386POPC   NC334151  24.306  43.214   9.625
 2386POPC   PO434152  24.933  43.351   9.476
 2386POPC   GL134153  24.584  43.198   9.178
 2386POPC   GL234154  24.426  42.856   9.243
 2386POPC   C1A34155  24.619  43.241   8.726
 2386POPC   D2A34156  24.571  43.423   8.315
 2386POPC   C3A34157  24.666  43.186   7.994
 2386POPC   C4A34158  24.503  43.327   7.631
 2386POPC   C1B34159  24.233  42.912   8.838
 2386POPC   C2B34160  24.293  42.994   8.417
 2386POPC   C3B34161  24.161  43.145   8.054
 2386POPC   C4B34162  24.100  42.999   7.681
 2387POPC   NC334163   1.459  20.926   9.642
 2387POPC   PO434164   1.074  20.417   9.522
 2387POPC   GL134165   1.267  20.556   9.171
 2387POPC   GL234166   1.344  20.877   9.156
 2387POPC   C1A34167   1.171  20.489   8.757
 2387POPC   D2A34168   1.276  20.205   8.445
 2387POPC   C3A34169   1.046  20.412   8.111
 2387POPC   C4A34170   1.213  20.660   7.776
 2387POPC   C1B34171   1.548  20.854   8.778
 2387POPC   C2B34172   1.459  20.711   8.369
 2387POPC   C3B34173   1.598  20.913   7.991
 2387POPC   C4B34174   1.719  20.782   7.599
 2388POPC   NC334175  42.225  29.456   9.406
 2388POPC   PO434176  42.652  28.914   9.473
 2388POPC   GL134177  42.572  29.190   9.120
 2388POPC   GL234178  42.219  29.106   9.010
 2388POPC   C1A34179  42.524  29.414   8.728
 2388POPC   D2A34180  42.192  29.301   8.447
 2388POPC   C3A34181  42.302  29.212   8.010
 2388POPC   C4A34182  42.602  29.368   7.733
 2388POPC   C1B34183  41.974  28.863   8.698
 2388POPC   C2B34184  41.965  28.886   8.242
 2388POPC   C3B34185  41.851  28.991   7.846
 2388POPC   C4B34186  41.915  29.353   7.632
 2389POPC   NC334187  41.506   5.444   9.415
 2389POPC   PO434188  41.343   6.098   9.392
 2389POPC   GL134189  41.659   5.952   9.117
 2389POPC   GL234190  41.423   5.698   8.978
 2389POPC   C1A34191  41.621   6.050   8.684
 2389POPC   D2A34192  41.274   5.931   8.401
 2389POPC   C3A34193  41.403   6.052   7.994
 2389POPC   C4A34194  41.821   6.062   7.835
 2389POPC   C1B34195  41.774   5.572   8.681
 2389POPC   C2B34196  41.791   5.712   8.235
 2389POPC   C3B34197  41.554   5.598   7.830
 2389POPC   C4B34198  41.489   5.521   7.396
 2390POPC   NC334199   2.166  20.366   9.421
 2390POPC   PO434200   2.306  20.980   9.587
 2390POPC   GL134201   2.126  20.812   9.170
 2390POPC   GL234202   1.790  20.628   9.198
 2390POPC   C1A34203   2.060  20.663   8.730
 2390POPC   D2A34204   2.244  20.729   8.299
 2390POPC   C3A34205   2.017  20.563   7.970
 2390POPC   C4A34206   2.074  20.393   7.554
 2390POPC   C1B34207   1.672  20.355   8.841
 2390POPC   C2B34208   1.794  20.307   8.395
 2390POPC   C3B34209   1.550  20.362   8.011
 2390POPC   C4B34210   1.567  20.311   7.578
 2391POPC   NC334211  20.058  25.558   9.571
 2391POPC   PO434212  19.537  25.300   9.852
 2391POPC   GL134213  19.696  25.383   9.278
 2391POPC   GL234214  19.595  25.091   9.053
 2391POPC   C1A34215  19.869  25.456   8.866
 2391POPC   D2A34216  19.740  25.349   8.475
 2391POPC   C3A34217  20.008  25.589   8.201
 2391POPC   C4A34218  20.044  25.628   7.766
 2391POPC   C1B34219  19.498  24.850   8.673
 2391POPC   C2B34220  19.601  24.896   8.238
 2391POPC   C3B34221  19.756  25.183   7.979
 2391POPC   C4B34222  19.853  25.046   7.604
 2392POPC   NC334223  24.172  29.145   9.632
 2392POPC   PO434224  24.629  28.601   9.651
 2392POPC   GL134225  24.615  28.833   9.197
 2392POPC   GL234226  24.335  29.052   9.088
 2392POPC   C1A34227  24.655  28.972   8.712
 2392POPC   D2A34228  24.607  28.977   8.250
 2392POPC   C3A34229  24.737  29.351   7.969
 2392POPC   C4A34230  24.543  29.509   7.588
 2392POPC   C1B34231  24.190  29.344   8.784
 2392POPC   C2B34232  24.374  29.423   8.374
 2392POPC   C3B34233  24.246  29.223   7.971
 2392POPC   C4B34234  24.037  29.298   7.618
 2393POPC   NC334235  10.324  10.915   9.373
 2393POPC   PO434236   9.967  10.422   9.279
 2393POPC   GL134237  10.338  10.526   9.011
 2393POPC   GL234238  10.671  10.709   9.013
 2393POPC   C1A34239  10.361  10.633   8.585
 2393POPC   D2A34240  10.599  10.832   8.285
 2393POPC   C3A34241  10.531  10.675   7.883
 2393POPC   C4A34242  10.718  10.628   7.501
 2393POPC   C1B34243  10.852  10.472   8.620
 2393POPC   C2B34244  10.855  10.387   8.150
 2393POPC   C3B34245  10.714  10.182   7.756
 2393POPC   C4B34246  10.703  10.158   7.286
 2394POPC   NC334247  18.222  28.160   9.416
 2394POPC   PO434248  18.134  28.817   9.404
 2394POPC   GL134249  18.237  28.646   9.011
 2394POPC   GL234250  18.457  28.360   9.009
 2394POPC   C1A34251  18.146  28.427   8.597
 2394POPC   D2A34252  17.885  28.427   8.204
 2394POPC   C3A34253  18.143  28.578   7.845
 2394POPC   C4A34254  18.612  28.550   7.864
 2394POPC   C1B34255  18.306  27.963   8.799
 2394POPC   C2B34256  18.452  27.889   8.406
 2394POPC   C3B34257  18.339  28.152   8.090
 2394POPC   C4B34258  18.403  28.012   7.711
 2395POPC   NC334259  28.563  40.625   9.433
 2395POPC   PO434260  28.127  41.098   9.420
 2395POPC   GL134261  28.347  40.989   9.030
 2395POPC   GL234262  28.721  41.019   9.116
 2395POPC   C1A34263  28.239  40.747   8.635
 2395POPC   D2A34264  28.097  40.451   8.285
 2395POPC   C3A34265  27.971  40.723   7.922
 2395POPC   C4A34266  28.144  41.111   7.774
 2395POPC   C1B34267  28.731  40.695   8.793
 2395POPC   C2B34268  28.657  40.561   8.377
 2395POPC   C3B34269  28.477  40.721   8.031
 2395POPC   C4B34270  28.488  40.778   7.609
 2396POPC   NC334271  18.382   2.032   9.614
 2396POPC   PO434272  17.732   2.285   9.474
 2396POPC   GL134273  17.982   2.084   9.154
 2396POPC   GL234274  18.242   1.843   9.169
 2396POPC   C1A34275  18.022   1.938   8.728
 2396POPC   D2A34276  18.249   2.098   8.395
 2396POPC   C3A34277  18.291   1.879   8.004
 2396POPC   C4A34278  18.460   2.168   7.735
 2396POPC   C1B34279  18.508   1.864   8.817
 2396POPC   C2B34280  18.657   1.744   8.448
 2396POPC   C3B34281  18.662   1.545   8.081
 2396POPC   C4B34282  18.701   1.723   7.693
 2397POPC   NC334283  30.829  41.749   9.496
 2397POPC   PO434284  30.410  41.306   9.472
 2397POPC   GL134285  30.510  41.573   9.143
 2397POPC   GL234286  30.876  41.591   9.014
 2397POPC   C1A34287  30.463  41.740   8.758
 2397POPC   D2A34288  30.759  41.594   8.478
 2397POPC   C3A34289  30.682  41.749   8.127
 2397POPC   C4A34290  30.446  41.590   7.820
 2397POPC   C1B34291  31.110  41.273   8.740
 2397POPC   C2B34292  31.111  41.115   8.342
 2397POPC   C3B34293  30.900  41.297   7.970
 2397POPC   C4B34294  30.921  41.655   7.663
 2398POPC   NC334295   3.018  15.605   9.478
 2398POPC   PO434296   2.780  14.994   9.488
 2398POPC   GL134297   2.739  15.274   9.151
 2398POPC   GL234298   3.089  15.252   9.114
 2398POPC   C1A34299   2.736  15.142   8.705
 2398POPC   D2A34300   2.684  15.253   8.273
 2398POPC   C3A34301   2.607  15.013   7.896
 2398POPC   C4A34302   2.431  15.222   7.544
 2398POPC   C1B34303   3.096  15.495   8.781
 2398POPC   C2B34304   3.240  15.393   8.381
 2398POPC   C3B34305   3.106  15.233   7.995
 2398POPC   C4B34306   2.948  15.279   7.620
 2399POPC   NC334307   8.350  36.826   9.520
 2399POPC   PO434308   7.654  36.886   9.491
 2399POPC   GL134309   7.861  37.107   9.142
 2399POPC   GL234310   8.244  37.085   9.098
 2399POPC   C1A34311   7.969  37.302   8.745
 2399POPC   D2A34312   7.995  37.127   8.315
 2399POPC   C3A34313   7.843  37.205   7.904
 2399POPC   C4A34314   8.004  37.070   7.506
 2399POPC   C1B34315   8.302  36.882   8.672
 2399POPC   C2B34316   8.504  36.957   8.267
 2399POPC   C3B34317   8.402  37.021   7.848
 2399POPC   C4B34318   8.471  36.864   7.438
 2400POPC   NC334319  29.970  44.328   9.428
 2400POPC   PO434320  29.926  43.639   9.678
 2400POPC   GL134321  29.776  43.633   9.199
 2400POPC   GL234322  29.691  43.997   9.131
 2400POPC   C1A34323  29.981  43.511   8.777
 2400POPC   D2A34324  29.890  43.405   8.363
 2400POPC   C3A34325  30.078  43.600   8.013
 2400POPC   C4A34326  29.858  43.749   7.672
 2400POPC   C1B34327  29.771  43.965   8.696
 2400POPC   C2B34328  30.087  43.959   8.384
 2400POPC   C3B34329  30.027  44.123   7.973
 2400POPC   C4B34330  29.602  44.215   7.856
 2401POPC   NC334331   8.150  18.299   9.619
 2401POPC   PO434332   7.700  17.910   9.269
 2401POPC   GL134333   8.115  18.114   9.152
 2401POPC   GL234334   8.236  18.473   9.166
 2401POPC   C1A34335   8.377  18.168   8.786
 2401POPC   D2A34336   8.197  17.988   8.416
 2401POPC   C3A34337   8.231  18.201   8.034
 2401POPC   C4A34338   8.308  18.055   7.663
 2401POPC   C1B34339   8.277  18.662   8.794
 2401POPC   C2B34340   8.393  18.512   8.390
 2401POPC   C3B34341   8.391  18.714   7.979
 2401POPC   C4B34342   8.565  18.674   7.593
 2402POPC   NC334343   3.484   1.050   9.531
 2402POPC   PO434344   3.164   1.668   9.645
 2402POPC   GL134345   3.396   1.466   9.264
 2402POPC   GL234346   3.208   1.113   9.129
 2402POPC   C1A34347   3.650   1.330   8.897
 2402POPC   D2A34348   3.525   1.423   8.473
 2402POPC   C3A34349   3.673   1.268   8.099
 2402POPC   C4A34350   3.595   1.352   7.690
 2402POPC   C1B34351   3.302   0.993   8.706
 2402POPC   C2B34352   3.177   1.076   8.297
 2402POPC   C3B34353   3.291   0.976   7.885
 2402POPC   C4B34354   3.329   0.904   7.432
 2403POPC   NC334355   7.936  17.659   9.574
 2403POPC   PO434356   8.606  17.926   9.614
 2403POPC   GL134357   8.381  17.684   9.257
 2403POPC   GL234358   8.336  17.326   9.155
 2403POPC   C1A34359   8.206  17.676   8.822
 2403POPC   D2A34360   8.422  17.506   8.434
 2403POPC   C3A34361   8.276  17.652   8.010
 2403POPC   C4A34362   8.528  17.529   7.644
 2403POPC   C1B34363   8.044  17.191   8.783
 2403POPC   C2B34364   7.997  16.972   8.366
 2403POPC   C3B34365   8.192  17.144   8.002
 2403POPC   C4B34366   8.036  17.329   7.616
 2404POPC   NC334367   4.278   0.042   9.379
 2404POPC   PO434368   4.022   0.590   9.714
 2404POPC   GL134369   4.088   0.509   9.248
 2404POPC   GL234370   4.432   0.462   9.148
 2404POPC   C1A34371   4.087   0.447   8.781
 2404POPC   D2A34372   4.137   0.660   8.389
 2404POPC   C3A34373   4.074   0.454   7.963
 2404POPC   C4A34374   4.104   0.719   7.591
 2404POPC   C1B34375   4.624   0.344   8.765
 2404POPC   C2B34376   4.540   0.305   8.340
 2404POPC   C3B34377   4.553   0.222   7.913
 2404POPC   C4B34378   4.476   0.376   7.511
 2405POPC   NC334379  38.721  28.847   9.448
 2405POPC   PO434380  39.242  29.243   9.308
 2405POPC   GL134381  38.932  29.252   9.005
 2405POPC   GL234382  38.936  28.889   9.003
 2405POPC   C1A34383  39.056  29.373   8.568
 2405POPC   D2A34384  39.483  29.188   8.441
 2405POPC   C3A34385  39.548  29.101   8.024
 2405POPC   C4A34386  39.307  29.345   7.759
 2405POPC   C1B34387  39.090  28.874   8.611
 2405POPC   C2B34388  39.167  28.797   8.210
 2405POPC   C3B34389  38.936  28.978   7.878
 2405POPC   C4B34390  38.696  29.349   7.809
 2406POPC   NC334391  38.741  15.426   9.473
 2406POPC   PO434392  38.280  14.954   9.595
 2406POPC   GL134393  38.475  15.061   9.212
 2406POPC   GL234394  38.285  15.380   9.173
 2406POPC   C1A34395  38.692  15.117   8.816
 2406POPC   D2A34396  38.481  14.981   8.407
 2406POPC   C3A34397  38.660  15.058   8.003
 2406POPC   C4A34398  38.453  15.116   7.650
 2406POPC   C1B34399  38.242  15.323   8.717
 2406POPC   C2B34400  38.494  15.480   8.374
 2406POPC   C3B34401  38.432  15.522   7.952
 2406POPC   C4B34402  38.182  15.570   7.615
 2407POPC   NC334403   7.545  34.577   9.547
 2407POPC   PO434404   7.046  34.617   9.184
 2407POPC   GL134405   7.406  34.752   8.990
 2407POPC   GL234406   7.151  34.751   8.702
 2407POPC   C1A34407   7.633  34.813   8.570
 2407POPC   D2A34408   7.389  34.674   8.222
 2407POPC   C3A34409   7.544  34.692   7.813
 2407POPC   C4A34410   7.533  34.811   7.384
 2407POPC   C1B34411   7.365  34.342   8.653
 2407POPC   C2B34412   7.340  34.149   8.273
 2407POPC   C3B34413   7.153  34.312   7.916
 2407POPC   C4B34414   7.312  34.342   7.525
 2408POPC   NC334415  27.641   7.995   9.437
 2408POPC   PO434416  27.455   8.588   9.759
 2408POPC   GL134417  27.483   8.594   9.288
 2408POPC   GL234418  27.296   8.305   9.209
 2408POPC   C1A34419  27.683   8.479   8.853
 2408POPC   D2A34420  27.861   8.257   8.484
 2408POPC   C3A34421  27.672   8.275   8.069
 2408POPC   C4A34422  27.908   8.272   7.712
 2408POPC   C1B34423  27.290   8.152   8.773
 2408POPC   C2B34424  27.221   8.193   8.327
 2408POPC   C3B34425  27.147   8.031   7.893
 2408POPC   C4B34426  27.405   7.967   7.521
 2409POPC   NC334427  44.608   4.913   9.400
 2409POPC   PO434428   0.095   5.502   9.385
 2409POPC   GL134429  44.854   5.242   9.106
 2409POPC   GL234430  44.919   4.881   9.028
 2409POPC   C1A34431  44.484   5.264   8.860
 2409POPC   D2A34432  44.247   5.177   8.488
 2409POPC   C3A34433  44.473   5.183   8.120
 2409POPC   C4A34434  44.560   5.021   7.710
 2409POPC   C1B34435  44.822   4.970   8.616
 2409POPC   C2B34436  44.955   5.014   8.204
 2409POPC   C3B34437   0.063   4.867   7.814
 2409POPC   C4B34438  44.829   4.603   7.591
 2410POPC   NC334439  20.598  32.626   9.397
 2410POPC   PO434440  20.819  31.994   9.483
 2410POPC   GL134441  20.531  32.145   9.162
 2410POPC   GL234442  20.188  32.259   9.192
 2410POPC   C1A34443  20.333  32.042   8.762
 2410POPC   D2A34444  20.250  32.291   8.408
 2410POPC   C3A34445  20.412  32.135   8.041
 2410POPC   C4A34446  20.782  32.058   7.825
 2410POPC   C1B34447  20.373  32.533   8.836
 2410POPC   C2B34448  20.708  32.500   8.544
 2410POPC   C3B34449  20.622  32.603   8.167
 2410POPC   C4B34450  20.591  32.548   7.747
 2411POPC   NC334451  29.044  21.601   9.572
 2411POPC   PO434452  29.618  21.296   9.605
 2411POPC   GL134453  29.453  21.396   9.249
 2411POPC   GL234454  29.476  21.101   9.084
 2411POPC   C1A34455  29.359  21.672   8.937
 2411POPC   D2A34456  29.281  21.708   8.458
 2411POPC   C3A34457  29.243  21.437   8.097
 2411POPC   C4A34458  29.303  21.513   7.674
 2411POPC   C1B34459  29.260  21.232   8.721
 2411POPC   C2B34460  28.914  21.259   8.453
 2411POPC   C3B34461  28.822  21.145   8.021
 2411POPC   C4B34462  29.188  20.985   7.816
 2412POPC   NC334463  13.295  34.775   9.361
 2412POPC   PO434464  12.649  34.824   9.521
 2412POPC   GL134465  12.798  34.633   9.173
 2412POPC   GL234466  12.485  34.463   9.127
 2412POPC   C1A34467  12.884  34.518   8.756
 2412POPC   D2A34468  13.036  34.643   8.366
 2412POPC   C3A34469  12.861  34.476   7.970
 2412POPC   C4A34470  12.900  34.478   7.533
 2412POPC   C1B34471  12.421  34.745   8.779
 2412POPC   C2B34472  12.498  34.664   8.327
 2412POPC   C3B34473  12.480  34.814   7.900
 2412POPC   C4B34474  12.454  34.748   7.461
 2413POPC   NC334475  40.408  37.392   9.356
 2413POPC   PO434476  40.036  36.986   9.741
 2413POPC   GL134477  40.137  36.833   9.245
 2413POPC   GL234478  40.168  37.095   8.967
 2413POPC   C1A34479  39.907  36.671   8.871
 2413POPC   D2A34480  39.712  36.661   8.462
 2413POPC   C3A34481  39.938  36.889   8.083
 2413POPC   C4A34482  39.913  37.204   7.735
 2413POPC   C1B34483  40.501  37.201   8.731
 2413POPC   C2B34484  40.605  37.133   8.349
 2413POPC   C3B34485  40.337  37.219   8.040
 2413POPC   C4B34486  40.399  37.116   7.634
 2414POPC   NC334487  19.663  32.734   9.476
 2414POPC   PO434488  19.377  33.322   9.508
 2414POPC   GL134489  19.619  33.127   9.154
 2414POPC   GL234490  19.903  32.948   9.093
 2414POPC   C1A34491  19.512  32.987   8.745
 2414POPC   D2A34492  19.717  32.981   8.372
 2414POPC   C3A34493  19.547  33.134   8.016
 2414POPC   C4A34494  19.783  33.023   7.673
 2414POPC   C1B34495  20.097  33.006   8.731
 2414POPC   C2B34496  20.197  32.796   8.371
 2414POPC   C3B34497  20.247  32.905   7.935
 2414POPC   C4B34498  20.176  32.711   7.527
 2415POPC   NC334499  38.004  41.916   9.406
 2415POPC   PO434500  37.729  42.502   9.436
 2415POPC   GL134501  37.688  42.290   9.088
 2415POPC   GL234502  37.624  41.945   9.070
 2415POPC   C1A34503  37.543  42.351   8.698
 2415POPC   D2A34504  37.388  42.296   8.300
 2415POPC   C3A34505  37.413  42.600   7.993
 2415POPC   C4A34506  37.178  42.513   7.606
 2415POPC   C1B34507  37.983  42.033   8.772
 2415POPC   C2B34508  37.852  42.112   8.364
 2415POPC   C3B34509  37.761  42.233   7.933
 2415POPC   C4B34510  38.044  42.136   7.589
 2416POPC   NC334511  32.774  21.747   9.470
 2416POPC   PO434512  33.250  22.179   9.477
 2416POPC   GL134513  33.098  21.970   9.151
 2416POPC   GL234514  32.805  22.139   9.100
 2416POPC   C1A34515  33.233  21.938   8.778
 2416POPC   D2A34516  33.375  22.138   8.490
 2416POPC   C3A34517  33.063  22.194   8.207
 2416POPC   C4A34518  33.107  22.450   7.882
 2416POPC   C1B34519  32.741  22.006   8.670
 2416POPC   C2B34520  32.686  21.837   8.261
 2416POPC   C3B34521  32.720  22.052   7.835
 2416POPC   C4B34522  32.497  22.089   7.430
 2417POPC   NC334523  20.458  33.265   9.730
 2417POPC   PO434524  20.148  32.688   9.470
 2417POPC   GL134525  20.415  33.014   9.141
 2417POPC   GL234526  20.618  33.326   9.023
 2417POPC   C1A34527  20.604  32.956   8.705
 2417POPC   D2A34528  20.588  33.133   8.305
 2417POPC   C3A34529  20.776  33.016   7.914
 2417POPC   C4A34530  20.548  33.070   7.527
 2417POPC   C1B34531  20.950  33.308   8.665
 2417POPC   C2B34532  20.990  33.432   8.204
 2417POPC   C3B34533  20.746  33.511   7.797
 2417POPC   C4B34534  20.578  33.579   7.366
 2418POPC   NC334535  21.709  41.342   9.224
 2418POPC   PO434536  22.088  41.857   9.279
 2418POPC   GL134537  22.246  41.621   8.958
 2418POPC   GL234538  22.114  41.287   8.900
 2418POPC   C1A34539  22.087  41.669   8.575
 2418POPC   D2A34540  21.819  41.528   8.316
 2418POPC   C3A34541  22.072  41.545   7.979
 2418POPC   C4A34542  22.266  41.587   7.558
 2418POPC   C1B34543  22.459  41.312   8.586
 2418POPC   C2B34544  22.527  41.130   8.187
 2418POPC   C3B34545  22.280  41.123   7.818
 2418POPC   C4B34546  22.218  41.133   7.382
 2419POPC   NC334547  40.801   8.380   9.536
 2419POPC   PO434548  40.268   8.014   9.632
 2419POPC   GL134549  40.545   8.087   9.184
 2419POPC   GL234550  40.887   8.291   9.066
 2419POPC   C1A34551  40.681   7.983   8.748
 2419POPC   D2A34552  40.593   8.145   8.384
 2419POPC   C3A34553  40.747   7.924   8.045
 2419POPC   C4A34554  40.862   8.016   7.616
 2419POPC   C1B34555  40.981   8.467   8.684
 2419POPC   C2B34556  41.065   8.291   8.291
 2419POPC   C3B34557  40.852   8.428   7.937
 2419POPC   C4B34558  40.977   8.519   7.521
 2420POPC   NC334559   4.742   4.700   9.370
 2420POPC   PO434560   5.326   5.067   9.463
 2420POPC   GL134561   5.036   5.049   9.141
 2420POPC   GL234562   4.760   5.323   9.119
 2420POPC   C1A34563   5.061   4.736   8.802
 2420POPC   D2A34564   5.190   4.566   8.403
 2420POPC   C3A34565   5.316   4.909   8.175
 2420POPC   C4A34566   5.092   5.022   7.820
 2420POPC   C1B34567   4.863   5.195   8.689
 2420POPC   C2B34568   4.724   5.033   8.307
 2420POPC   C3B34569   4.713   5.308   7.986
 2420POPC   C4B34570   4.994   5.508   7.715
 2421POPC   NC334571  26.486   5.459   9.967
 2421POPC   PO434572  26.912   5.062   9.561
 2421POPC   GL134573  26.853   5.214   9.167
 2421POPC   GL234574  26.960   5.531   9.273
 2421POPC   C1A34575  26.850   5.116   8.705
 2421POPC   D2A34576  27.118   5.075   8.306
 2421POPC   C3A34577  26.901   4.944   7.920
 2421POPC   C4A34578  26.947   4.703   7.529
 2421POPC   C1B34579  26.880   5.627   8.857
 2421POPC   C2B34580  26.981   5.543   8.430
 2421POPC   C3B34581  26.902   5.456   7.995
 2421POPC   C4B34582  26.755   5.737   7.669
 2422POPC   NC334583  26.359  12.991   9.399
 2422POPC   PO434584  25.651  12.806   9.255
 2422POPC   GL134585  26.026  12.872   9.033
 2422POPC   GL234586  26.343  12.678   9.004
 2422POPC   C1A34587  26.030  12.745   8.604
 2422POPC   D2A34588  25.704  12.495   8.430
 2422POPC   C3A34589  25.649  12.646   8.020
 2422POPC   C4A34590  26.016  12.554   7.771
 2422POPC   C1B34591  26.396  13.082   8.754
 2422POPC   C2B34592  26.202  13.206   8.365
 2422POPC   C3B34593  26.296  12.941   8.006
 2422POPC   C4B34594  26.532  12.550   7.941
 2423POPC   NC334595  43.859   5.442   9.501
 2423POPC   PO434596  43.727   6.085   9.519
 2423POPC   GL134597  43.995   5.989   9.174
 2423POPC   GL234598  44.214   5.691   9.230
 2423POPC   C1A34599  43.750   5.893   8.822
 2423POPC   D2A34600  43.584   5.779   8.441
 2423POPC   C3A34601  43.620   6.053   8.089
 2423POPC   C4A34602  43.827   6.001   7.719
 2423POPC   C1B34603  44.034   5.485   8.871
 2423POPC   C2B34604  44.080   5.662   8.455
 2423POPC   C3B34605  44.159   5.730   8.023
 2423POPC   C4B34606  44.208   5.404   7.740
 2424POPC   NC334607  32.332   7.801   9.542
 2424POPC   PO434608  32.204   7.150   9.508
 2424POPC   GL134609  32.363   7.270   9.090
 2424POPC   GL234610  32.540   7.598   9.117
 2424POPC   C1A34611  32.141   7.278   8.656
 2424POPC   D2A34612  31.803   7.393   8.363
 2424POPC   C3A34613  32.005   7.328   7.963
 2424POPC   C4A34614  32.366   7.251   7.683
 2424POPC   C1B34615  32.115   7.703   8.913
 2424POPC   C2B34616  32.107   7.819   8.460
 2424POPC   C3B34617  32.312   7.740   8.054
 2424POPC   C4B34618  32.131   7.718   7.643
 2425POPC   NC334619  19.521  42.028   9.345
 2425POPC   PO434620  19.983  42.586   9.451
 2425POPC   GL134621  19.758  42.435   9.116
 2425POPC   GL234622  20.078  42.331   8.934
 2425POPC   C1A34623  19.659  42.429   8.682
 2425POPC   D2A34624  20.014  42.551   8.413
 2425POPC   C3A34625  19.973  42.314   8.062
 2425POPC   C4A34626  19.618  42.365   7.792
 2425POPC   C1B34627  19.971  42.057   8.529
 2425POPC   C2B34628  19.596  42.050   8.309
 2425POPC   C3B34629  19.619  41.877   7.922
 2425POPC   C4B34630  19.976  42.047   7.628
 2426POPC   NC334631  24.971  29.457   9.445
 2426POPC   PO434632  25.430  28.969   9.498
 2426POPC   GL134633  25.314  28.897   9.098
 2426POPC   GL234634  25.019  29.114   9.050
 2426POPC   C1A34635  25.363  28.927   8.684
 2426POPC   D2A34636  25.079  29.166   8.440
 2426POPC   C3A34637  25.138  29.060   8.053
 2426POPC   C4A34638  25.067  28.941   7.651
 2426POPC   C1B34639  25.298  29.412   8.848
 2426POPC   C2B34640  25.541  29.393   8.469
 2426POPC   C3B34641  25.610  29.447   8.030
 2426POPC   C4B34642  25.266  29.422   7.708
 2427POPC   NC334643  10.289  31.799   9.324
 2427POPC   PO434644  10.617  31.265   9.673
 2427POPC   GL134645  10.621  31.286   9.203
 2427POPC   GL234646  10.304  31.372   9.046
 2427POPC   C1A34647  10.757  31.365   8.741
 2427POPC   D2A34648  10.463  31.581   8.423
 2427POPC   C3A34649  10.480  31.539   7.945
 2427POPC   C4A34650  10.571  31.610   7.493
 2427POPC   C1B34651  10.004  31.488   8.707
 2427POPC   C2B34652   9.970  31.445   8.243
 2427POPC   C3B34653  10.077  31.203   7.878
 2427POPC   C4B34654  10.272  30.953   7.527
 2428POPC   NC334655   6.862  43.805   9.652
 2428POPC   PO434656   6.430  44.193   9.422
 2428POPC   GL134657   6.572  43.798   9.233
 2428POPC   GL234658   6.835  43.989   9.151
 2428POPC   C1A34659   6.765  43.567   8.878
 2428POPC   D2A34660   6.988  43.737   8.524
 2428POPC   C3A34661   6.896  43.656   8.104
 2428POPC   C4A34662   6.785  43.867   7.705
 2428POPC   C1B34663   6.735  44.190   8.767
 2428POPC   C2B34664   6.632  44.061   8.369
 2428POPC   C3B34665   6.475  44.124   7.995
 2428POPC   C4B34666   6.799  44.379   7.811
 2429POPC   NC334667   5.933  35.621   9.440
 2429POPC   PO434668   5.583  34.989   9.534
 2429POPC   GL134669   5.831  35.155   9.213
 2429POPC   GL234670   6.183  35.095   9.184
 2429POPC   C1A34671   5.716  35.400   8.852
 2429POPC   D2A34672   5.619  35.534   8.443
 2429POPC   C3A34673   5.638  35.205   8.124
 2429POPC   C4A34674   5.760  35.402   7.709
 2429POPC   C1B34675   6.241  35.347   8.840
 2429POPC   C2B34676   6.068  35.294   8.485
 2429POPC   C3B34677   6.055  35.469   8.118
 2429POPC   C4B34678   6.088  35.051   7.887
 2430POPC   NC334679  31.580  38.535   9.629
 2430POPC   PO434680  31.781  38.096   9.207
 2430POPC   GL134681  31.545  38.485   9.119
 2430POPC   GL234682  31.799  38.739   9.215
 2430POPC   C1A34683  31.240  38.515   8.771
 2430POPC   D2A34684  31.429  38.653   8.379
 2430POPC   C3A34685  31.344  38.374   8.038
 2430POPC   C4A34686  31.090  38.424   7.681
 2430POPC   C1B34687  31.857  38.736   8.777
 2430POPC   C2B34688  31.962  38.855   8.361
 2430POPC   C3B34689  31.787  38.637   7.994
 2430POPC   C4B34690  31.473  38.741   7.698
 2431POPC   NC334691  28.008  34.735   9.677
 2431POPC   PO434692  27.433  34.882   9.515
 2431POPC   GL134693  27.760  34.620   9.246
 2431POPC   GL234694  28.142  34.747   9.182
 2431POPC   C1A34695  27.552  34.413   8.881
 2431POPC   D2A34696  27.262  34.498   8.527
 2431POPC   C3A34697  27.397  34.608   8.101
 2431POPC   C4A34698  27.241  34.615   7.665
 2431POPC   C1B34699  28.063  34.474   8.839
 2431POPC   C2B34700  27.828  34.429   8.453
 2431POPC   C3B34701  27.912  34.553   8.047
 2431POPC   C4B34702  27.676  34.311   7.766
 2432POPC   NC334703   5.533  32.128   9.624
 2432POPC   PO434704   6.109  32.500   9.582
 2432POPC   GL134705   5.908  32.323   9.217
 2432POPC   GL234706   5.636  32.114   9.130
 2432POPC   C1A34707   5.731  32.490   8.798
 2432POPC   D2A34708   5.606  32.545   8.371
 2432POPC   C3A34709   5.830  32.254   8.097
 2432POPC   C4A34710   5.876  32.261   7.649
 2432POPC   C1B34711   5.746  31.951   8.737
 2432POPC   C2B34712   5.741  31.714   8.314
 2432POPC   C3B34713   5.675  31.813   7.864
 2432POPC   C4B34714   5.493  31.979   7.474
 2433POPC   NC334715  36.470  30.795   9.697
 2433POPC   PO434716  35.980  30.309   9.530
 2433POPC   GL134717  36.069  30.531   9.141
 2433POPC   GL234718  36.388  30.759   9.159
 2433POPC   C1A34719  36.118  30.536   8.685
 2433POPC   D2A34720  36.483  30.579   8.421
 2433POPC   C3A34721  36.325  30.477   8.018
 2433POPC   C4A34722  36.020  30.479   7.649
 2433POPC   C1B34723  36.358  30.972   8.742
 2433POPC   C2B34724  36.104  30.921   8.325
 2433POPC   C3B34725  36.162  30.943   7.877
 2433POPC   C4B34726  36.427  31.232   7.707
 2434POPC   NC334727  27.210  10.180   9.586
 2434POPC   PO434728  27.863  10.273   9.503
 2434POPC   GL134729  27.677  10.430   9.115
 2434POPC   GL234730  27.406  10.409   9.172
 2434POPC   C1A34731  27.702  10.616   8.723
 2434POPC   D2A34732  27.692  10.448   8.303
 2434POPC   C3A34733  27.817  10.616   7.906
 2434POPC   C4A34734  28.042  10.927   7.699
 2434POPC   C1B34735  27.215  10.499   8.808
 2434POPC   C2B34736  27.175  10.604   8.415
 2434POPC   C3B34737  27.246  10.366   8.046
 2434POPC   C4B34738  27.372  10.539   7.660
 2435POPC   NC334739  38.294  20.157   9.496
 2435POPC   PO434740  38.728  19.606   9.553
 2435POPC   GL134741  38.620  19.782   9.149
 2435POPC   GL234742  38.257  19.823   9.081
 2435POPC   C1A34743  38.682  19.745   8.729
 2435POPC   D2A34744  38.428  19.824   8.405
 2435POPC   C3A34745  38.700  19.818   8.070
 2435POPC   C4A34746  38.519  19.605   7.767
 2435POPC   C1B34747  38.250  20.178   8.774
 2435POPC   C2B34748  38.205  20.331   8.361
 2435POPC   C3B34749  38.245  20.080   7.995
 2435POPC   C4B34750  38.114  19.901   7.624
 2436POPC   NC334751  38.254  12.526   9.454
 2436POPC   PO434752  38.292  11.860   9.546
 2436POPC   GL134753  38.477  12.004   9.147
 2436POPC   GL234754  38.656  12.312   9.194
 2436POPC   C1A34755  38.391  11.992   8.717
 2436POPC   D2A34756  38.171  11.868   8.359
 2436POPC   C3A34757  38.307  12.061   7.999
 2436POPC   C4A34758  38.602  11.931   7.765
 2436POPC   C1B34759  38.787  12.335   8.774
 2436POPC   C2B34760  38.659  12.254   8.333
 2436POPC   C3B34761  38.761  12.391   7.898
 2436POPC   C4B34762  38.420  12.397   7.568
 2437POPC   NC334763  28.710  13.877   9.222
 2437POPC   PO434764  28.352  13.538   9.664
 2437POPC   GL134765  28.266  13.576   9.201
 2437POPC   GL234766  28.559  13.559   8.897
 2437POPC   C1A34767  28.076  13.680   8.822
 2437POPC   D2A34768  28.327  13.767   8.465
 2437POPC   C3A34769  28.052  13.693   8.150
 2437POPC   C4A34770  28.044  13.491   7.793
 2437POPC   C1B34771  28.867  13.662   8.570
 2437POPC   C2B34772  28.742  13.747   8.150
 2437POPC   C3B34773  28.510  13.718   7.768
 2437POPC   C4B34774  28.621  13.885   7.306
 2438POPC   NC334775  21.494  29.076   9.584
 2438POPC   PO434776  20.895  29.249   9.312
 2438POPC   GL134777  21.260  29.070   9.098
 2438POPC   GL234778  21.626  29.207   9.104
 2438POPC   C1A34779  21.324  29.045   8.656
 2438POPC   D2A34780  21.476  29.279   8.287
 2438POPC   C3A34781  21.293  29.186   7.879
 2438POPC   C4A34782  21.323  29.341   7.444
 2438POPC   C1B34783  21.728  28.811   8.885
 2438POPC   C2B34784  21.667  28.734   8.434
 2438POPC   C3B34785  21.717  28.892   8.010
 2438POPC   C4B34786  21.567  28.899   7.565
 2439POPC   NC334787  19.940   5.293   9.630
 2439POPC   PO434788  19.719   4.703   9.610
 2439POPC   GL134789  19.518   4.977   9.224
 2439POPC   GL234790  19.732   5.274   9.128
 2439POPC   C1A34791  19.394   5.124   8.744
 2439POPC   D2A34792  19.494   5.408   8.339
 2439POPC   C3A34793  19.616   5.237   7.905
 2439POPC   C4A34794  19.794   4.936   7.588
 2439POPC   C1B34795  19.886   5.289   8.670
 2439POPC   C2B34796  20.022   5.258   8.205
 2439POPC   C3B34797  20.207   5.192   7.768
 2439POPC   C4B34798  20.441   5.418   7.425
 2440POPC   NC334799  39.972  16.280   9.711
 2440POPC   PO434800  40.241  16.908   9.408
 2440POPC   GL134801  40.110  16.975   9.033
 2440POPC   GL234802  39.765  16.869   9.078
 2440POPC   C1A34803  40.085  16.718   8.661
 2440POPC   D2A34804  40.208  16.785   8.264
 2440POPC   C3A34805  40.001  16.577   7.987
 2440POPC   C4A34806  39.711  16.593   7.706
 2440POPC   C1B34807  39.735  17.088   8.689
 2440POPC   C2B34808  39.974  17.233   8.333
 2440POPC   C3B34809  39.917  17.084   7.910
 2440POPC   C4B34810  39.483  17.012   7.839
 2441POPC   NC334811  17.023   0.501   9.565
 2441POPC   PO434812  16.816  44.873   9.706
 2441POPC   GL134813  16.731   0.212   9.247
 2441POPC   GL234814  16.887   0.542   9.088
 2441POPC   C1A34815  16.823   0.149   8.777
 2441POPC   D2A34816  16.636   0.195   8.384
 2441POPC   C3A34817  16.822   0.234   7.996
 2441POPC   C4A34818  16.567   0.178   7.627
 2441POPC   C1B34819  16.793   0.670   8.688
 2441POPC   C2B34820  17.045   0.565   8.359
 2441POPC   C3B34821  17.065   0.790   7.971
 2441POPC   C4B34822  16.731   0.657   7.705
 2442POPC   NC334823   4.068  18.937   9.463
 2442POPC   PO434824   3.421  19.272   9.481
 2442POPC   GL134825   3.543  18.988   9.158
 2442POPC   GL234826   3.253  18.910   8.972
 2442POPC   C1A34827   3.719  18.818   8.769
 2442POPC   D2A34828   3.761  18.803   8.320
 2442POPC   C3A34829   3.789  19.184   8.095
 2442POPC   C4A34830   3.580  19.257   7.703
 2442POPC   C1B34831   3.384  19.218   8.675
 2442POPC   C2B34832   3.373  19.424   8.301
 2442POPC   C3B34833   3.290  19.064   8.053
 2442POPC   C4B34834   3.084  18.827   7.765
 2443POPC   NC334835  22.306  11.873   9.603
 2443POPC   PO434836  21.902  12.375   9.388
 2443POPC   GL134837  22.248  12.226   9.162
 2443POPC   GL234838  22.231  11.887   9.068
 2443POPC   C1A34839  22.341  12.258   8.735
 2443POPC   D2A34840  22.101  12.113   8.378
 2443POPC   C3A34841  22.182  12.331   7.991
 2443POPC   C4A34842  22.136  12.144   7.629
 2443POPC   C1B34843  22.159  11.684   8.700
 2443POPC   C2B34844  22.362  11.646   8.344
 2443POPC   C3B34845  22.198  11.766   7.975
 2443POPC   C4B34846  22.484  11.731   7.681
 2444POPC   NC334847  28.203   1.227   9.564
 2444POPC   PO434848  28.815   1.158   9.412
 2444POPC   GL134849  28.516   1.290   9.166
 2444POPC   GL234850  28.338   0.972   9.146
 2444POPC   C1A34851  28.407   1.327   8.740
 2444POPC   D2A34852  28.242   1.501   8.372
 2444POPC   C3A34853  28.462   1.391   8.000
 2444POPC   C4A34854  28.194   1.467   7.624
 2444POPC   C1B34855  28.375   0.805   8.726
 2444POPC   C2B34856  28.360   0.984   8.311
 2444POPC   C3B34857  28.154   1.007   7.891
 2444POPC   C4B34858  28.300   0.992   7.446
 2445POPC   NC334859  11.022   2.063   9.414
 2445POPC   PO434860  11.668   2.181   9.308
 2445POPC   GL134861  11.402   2.031   9.015
 2445POPC   GL234862  11.193   2.304   8.970
 2445POPC   C1A34863  11.394   2.080   8.564
 2445POPC   D2A34864  11.166   1.950   8.205
 2445POPC   C3A34865  11.399   1.737   7.853
 2445POPC   C4A34866  11.439   1.787   7.376
 2445POPC   C1B34867  10.907   2.290   8.572
 2445POPC   C2B34868  10.866   2.454   8.185
 2445POPC   C3B34869  11.138   2.350   7.860
 2445POPC   C4B34870  11.143   2.342   7.392
 2446POPC   NC334871  16.544  24.038   9.459
 2446POPC   PO434872  16.930  23.572   9.378
 2446POPC   GL134873  16.676  23.729   9.064
 2446POPC   GL234874  16.877  24.028   9.050
 2446POPC   C1A34875  16.683  23.685   8.625
 2446POPC   D2A34876  16.879  23.594   8.253
 2446POPC   C3A34877  16.751  23.574   7.849
 2446POPC   C4A34878  17.032  23.621   7.502
 2446POPC   C1B34879  16.557  24.161   8.791
 2446POPC   C2B34880  16.476  24.069   8.376
 2446POPC   C3B34881  16.715  24.048   8.017
 2446POPC   C4B34882  16.703  23.990   7.533
 2447POPC   NC334883  42.492  15.747   9.808
 2447POPC   PO434884  42.804  16.197   9.365
 2447POPC   GL134885  42.963  16.195   8.973
 2447POPC   GL234886  43.328  16.224   8.987
 2447POPC   C1A34887  43.079  16.169   8.544
 2447POPC   D2A34888  42.972  15.889   8.256
 2447POPC   C3A34889  43.168  16.010   7.926
 2447POPC   C4A34890  43.125  16.174   7.560
 2447POPC   C1B34891  43.494  15.916   8.728
 2447POPC   C2B34892  43.491  15.866   8.293
 2447POPC   C3B34893  43.665  15.882   7.874
 2447POPC   C4B34894  43.625  16.018   7.428
 2448POPC   NC334895  43.660   4.236   9.520
 2448POPC   PO434896  44.242   4.659   9.571
 2448POPC   GL134897  43.957   4.513   9.206
 2448POPC   GL234898  43.613   4.674   9.241
 2448POPC   C1A34899  43.888   4.135   8.897
 2448POPC   D2A34900  43.770   4.047   8.462
 2448POPC   C3A34901  44.061   4.236   8.162
 2448POPC   C4A34902  44.072   4.190   7.729
 2448POPC   C1B34903  43.562   4.520   8.814
 2448POPC   C2B34904  43.695   4.557   8.378
 2448POPC   C3B34905  43.585   4.302   8.002
 2448POPC   C4B34906  43.426   4.296   7.588
 2449POPC   NC334907  10.986  41.522   9.355
 2449POPC   PO434908  11.531  41.297   9.677
 2449POPC   GL134909  11.458  41.403   9.182
 2449POPC   GL234910  11.608  41.752   9.031
 2449POPC   C1A34911  11.284  41.499   8.738
 2449POPC   D2A34912  11.502  41.469   8.340
 2449POPC   C3A34913  11.297  41.497   7.955
 2449POPC   C4A34914  11.015  41.182   7.820
 2449POPC   C1B34915  11.789  41.828   8.603
 2449POPC   C2B34916  11.746  41.872   8.125
 2449POPC   C3B34917  11.580  41.818   7.681
 2449POPC   C4B34918  11.504  42.006   7.231
 2450POPC   NC334919  34.892  37.884   9.431
 2450POPC   PO434920  34.599  37.226   9.425
 2450POPC   GL134921  34.773  37.490   9.137
 2450POPC   GL234922  34.543  37.796   9.070
 2450POPC   C1A34923  34.799  37.529   8.711
 2450POPC   D2A34924  34.532  37.669   8.396
 2450POPC   C3A34925  34.725  37.534   8.014
 2450POPC   C4A34926  34.792  37.724   7.577
 2450POPC   C1B34927  34.243  37.965   8.745
 2450POPC   C2B34928  34.108  37.945   8.313
 2450POPC   C3B34929  34.316  37.864   7.935
 2450POPC   C4B34930  34.305  37.806   7.511
 2451POPC   NC334931  24.844  26.486   9.320
 2451POPC   PO434932  24.472  25.882   9.423
 2451POPC   GL134933  24.540  26.130   9.093
 2451POPC   GL234934  24.849  26.096   8.964
 2451POPC   C1A34935  24.431  26.229   8.680
 2451POPC   D2A34936  24.346  25.997   8.307
 2451POPC   C3A34937  24.258  26.168   7.932
 2451POPC   C4A34938  24.107  25.947   7.561
 2451POPC   C1B34939  24.921  26.341   8.645
 2451POPC   C2B34940  24.788  26.328   8.269
 2451POPC   C3B34941  24.929  26.301   7.895
 2451POPC   C4B34942  24.646  26.154   7.618
 2452POPC   NC334943  11.578   0.299   9.606
 2452POPC   PO434944  10.956   0.705   9.551
 2452POPC   GL134945  11.089   0.536   9.193
 2452POPC   GL234946  10.892   0.783   9.038
 2452POPC   C1A34947  11.105   0.311   8.813
 2452POPC   D2A34948  11.284   0.325   8.410
 2452POPC   C3A34949  11.085   0.270   8.051
 2452POPC   C4A34950  11.075   0.080   7.674
 2452POPC   C1B34951  10.956   1.024   8.680
 2452POPC   C2B34952  11.146   0.819   8.343
 2452POPC   C3B34953  11.141   0.760   7.916
 2452POPC   C4B34954  11.113   0.648   7.470
 2453POPC   NC334955   8.662   4.441   9.475
 2453POPC   PO434956   9.302   4.500   9.539
 2453POPC   GL134957   9.223   4.273   9.131
 2453POPC   GL234958   8.864   4.137   9.077
 2453POPC   C1A34959   9.086   4.369   8.687
 2453POPC   D2A34960   9.238   4.411   8.276
 2453POPC   C3A34961   9.044   4.430   7.890
 2453POPC   C4A34962   9.116   4.180   7.528
 2453POPC   C1B34963   8.824   3.930   8.659
 2453POPC   C2B34964   8.883   4.025   8.204
 2453POPC   C3B34965   8.674   4.108   7.788
 2453POPC   C4B34966   8.661   4.052   7.322
 2454POPC   NC334967  27.780   4.441   9.650
 2454POPC   PO434968  27.242   4.126   9.541
 2454POPC   GL134969  27.473   4.394   9.237
 2454POPC   GL234970  27.703   4.166   9.082
 2454POPC   C1A34971  27.478   4.519   8.801
 2454POPC   D2A34972  27.669   4.311   8.456
 2454POPC   C3A34973  27.547   4.314   8.028
 2454POPC   C4A34974  27.520   4.709   7.797
 2454POPC   C1B34975  28.051   4.178   8.764
 2454POPC   C2B34976  28.035   3.979   8.356
 2454POPC   C3B34977  28.060   4.110   7.918
 2454POPC   C4B34978  27.803   4.327   7.587
 2455POPC   NC334979   9.512  11.602   9.666
 2455POPC   PO434980  10.194  11.384   9.428
 2455POPC   GL134981   9.929  11.556   9.033
 2455POPC   GL234982   9.582  11.545   9.176
 2455POPC   C1A34983   9.857  11.518   8.567
 2455POPC   D2A34984   9.752  11.153   8.304
 2455POPC   C3A34985   9.833  11.111   7.854
 2455POPC   C4A34986   9.812  10.789   7.548
 2455POPC   C1B34987   9.383  11.485   8.809
 2455POPC   C2B34988   9.356  11.483   8.380
 2455POPC   C3B34989   9.638  11.565   8.025
 2455POPC   C4B34990   9.607  11.527   7.543
 2456POPC   NC334991  12.623  32.332   9.580
 2456POPC   PO434992  12.406  32.863   9.353
 2456POPC   GL134993  12.614  32.593   9.072
 2456POPC   GL234994  12.877  32.320   9.115
 2456POPC   C1A34995  12.574  32.343   8.711
 2456POPC   D2A34996  12.660  32.180   8.313
 2456POPC   C3A34997  12.553  32.335   7.941
 2456POPC   C4A34998  12.693  32.663   7.655
 2456POPC   C1B34999  13.000  32.021   8.750
 2456POPC   C2B35000  12.957  31.789   8.350
 2456POPC   C3B35001  12.995  31.931   7.912
 2456POPC   C4B35002  13.185  31.815   7.494
 2457POPC   NC335003  43.506  20.042   9.438
 2457POPC   PO435004  44.010  19.643   9.720
 2457POPC   GL135005  43.926  19.784   9.297
 2457POPC   GL235006  43.802  19.495   9.178
 2457POPC   C1A35007  43.812  19.860   8.828
 2457POPC   D2A35008  43.755  19.759   8.389
 2457POPC   C3A35009  44.033  19.926   8.092
 2457POPC   C4A35010  43.915  19.895   7.715
 2457POPC   C1B35011  43.976  19.350   8.777
 2457POPC   C2B35012  43.974  19.297   8.305
 2457POPC   C3B35013  43.816  19.417   7.887
 2457POPC   C4B35014  44.090  19.455   7.507
 2458POPC   NC335015  14.817  17.109   9.336
 2458POPC   PO435016  14.950  16.495   9.391
 2458POPC   GL135017  15.191  16.696   9.073
 2458POPC   GL235018  15.513  16.889   9.131
 2458POPC   C1A35019  15.328  16.523   8.694
 2458POPC   D2A35020  15.125  16.327   8.329
 2458POPC   C3A35021  15.198  16.480   7.904
 2458POPC   C4A35022  15.115  16.855   7.659
 2458POPC   C1B35023  15.466  17.036   8.700
 2458POPC   C2B35024  15.382  16.831   8.291
 2458POPC   C3B35025  15.561  16.857   7.899
 2458POPC   C4B35026  15.556  17.062   7.491
 2459POPC   NC335027  26.716  44.407   9.473
 2459POPC   PO435028  27.087  44.934   9.667
 2459POPC   GL135029  26.977  44.824   9.225
 2459POPC   GL235030  27.185  44.553   9.076
 2459POPC   C1A35031  26.831  44.721   8.775
 2459POPC   D2A35032  27.070  44.748   8.398
 2459POPC   C3A35033  26.873  44.844   8.006
 2459POPC   C4A35034  26.429  44.849   7.903
 2459POPC   C1B35035  27.163  44.330   8.667
 2459POPC   C2B35036  26.761  44.344   8.399
 2459POPC   C3B35037  26.624  44.388   7.998
 2459POPC   C4B35038  26.891  44.455   7.670
 2460POPC   NC335039  11.041  32.034   9.350
 2460POPC   PO435040  11.485  32.541   9.574
 2460POPC   GL135041  11.319  32.425   9.160
 2460POPC   GL235042  10.960  32.522   9.202
 2460POPC   C1A35043  11.404  32.111   8.804
 2460POPC   D2A35044  11.628  31.924   8.450
 2460POPC   C3A35045  11.500  32.075   8.054
 2460POPC   C4A35046  11.417  32.517   7.998
 2460POPC   C1B35047  10.960  32.374   8.771
 2460POPC   C2B35048  11.119  32.259   8.343
 2460POPC   C3B35049  11.005  32.249   7.870
 2460POPC   C4B35050  10.714  32.401   7.515
 2461POPC   NC335051  39.638  41.222   9.363
 2461POPC   PO435052  40.109  41.553   9.627
 2461POPC   GL135053  40.287  41.540   9.228
 2461POPC   GL235054  40.168  41.208   9.160
 2461POPC   C1A35055  40.272  41.609   8.807
 2461POPC   D2A35056  40.030  41.630   8.438
 2461POPC   C3A35057  40.097  41.402   8.098
 2461POPC   C4A35058  40.188  41.614   7.731
 2461POPC   C1B35059  39.948  41.201   8.764
 2461POPC   C2B35060  39.704  41.202   8.407
 2461POPC   C3B35061  39.600  41.118   8.013
 2461POPC   C4B35062  39.845  41.236   7.691
 2462POPC   NC335063   2.175  34.755   9.559
 2462POPC   PO435064   1.710  34.350   9.423
 2462POPC   GL135065   1.869  34.568   9.099
 2462POPC   GL235066   1.934  34.911   9.149
 2462POPC   C1A35067   2.044  34.593   8.708
 2462POPC   D2A35068   2.136  34.321   8.365
 2462POPC   C3A35069   2.118  34.658   8.070
 2462POPC   C4A35070   2.274  34.614   7.688
 2462POPC   C1B35071   1.772  35.103   8.810
 2462POPC   C2B35072   1.755  34.992   8.404
 2462POPC   C3B35073   1.607  34.899   8.002
 2462POPC   C4B35074   1.808  34.834   7.625
 2463POPC   NC335075  27.214  11.156   9.538
 2463POPC   PO435076  26.631  11.486   9.397
 2463POPC   GL135077  26.872  11.287   9.096
 2463POPC   GL235078  27.227  11.390   9.101
 2463POPC   C1A35079  26.718  11.268   8.685
 2463POPC   D2A35080  26.824  11.041   8.347
 2463POPC   C3A35081  26.526  11.087   8.011
 2463POPC   C4A35082  26.540  11.258   7.611
 2463POPC   C1B35083  27.136  11.553   8.706
 2463POPC   C2B35084  26.923  11.583   8.323
 2463POPC   C3B35085  26.955  11.347   7.949
 2463POPC   C4B35086  27.038  11.478   7.535
 2464POPC   NC335087  38.167  34.825   9.412
 2464POPC   PO435088  38.573  34.150   9.407
 2464POPC   GL135089  38.516  34.511   9.159
 2464POPC   GL235090  38.169  34.415   9.093
 2464POPC   C1A35091  38.746  34.641   8.771
 2464POPC   D2A35092  38.708  34.308   8.475
 2464POPC   C3A35093  38.497  34.372   8.106
 2464POPC   C4A35094  38.646  34.293   7.716
 2464POPC   C1B35095  38.244  34.732   8.761
 2464POPC   C2B35096  38.418  34.791   8.376
 2464POPC   C3B35097  38.281  34.828   7.970
 2464POPC   C4B35098  38.472  34.950   7.587
 2465POPC   NC335099  38.818  10.391   9.289
 2465POPC   PO435100  39.332  10.829   9.481
 2465POPC   GL135101  39.199  10.680   9.087
 2465POPC   GL235102  39.329  10.353   9.141
 2465POPC   C1A35103  39.016  10.473   8.699
 2465POPC   D2A35104  39.091  10.172   8.368
 2465POPC   C3A35105  39.043  10.399   7.979
 2465POPC   C4A35106  39.090  10.792   7.750
 2465POPC   C1B35107  39.504  10.421   8.726
 2465POPC   C2B35108  39.412  10.582   8.340
 2465POPC   C3B35109  39.574  10.649   7.950
 2465POPC   C4B35110  39.486  10.478   7.600
 2466POPC   NC335111  17.136  12.709   9.360
 2466POPC   PO435112  16.422  12.922   9.450
 2466POPC   GL135113  16.680  12.798   9.124
 2466POPC   GL235114  16.964  13.017   9.006
 2466POPC   C1A35115  16.554  12.871   8.715
 2466POPC   D2A35116  16.295  12.635   8.468
 2466POPC   C3A35117  16.399  12.808   8.087
 2466POPC   C4A35118  16.643  12.831   7.744
 2466POPC   C1B35119  16.979  12.620   8.751
 2466POPC   C2B35120  16.833  12.623   8.344
 2466POPC   C3B35121  17.036  12.867   8.043
 2466POPC   C4B35122  16.963  13.238   7.721
 2467POPC   NC335123  25.174  41.973   9.466
 2467POPC   PO435124  25.533  42.552   9.507
 2467POPC   GL135125  25.343  42.411   9.138
 2467POPC   GL235126  25.372  42.067   9.012
 2467POPC   C1A35127  25.500  42.431   8.710
 2467POPC   D2A35128  25.400  42.131   8.409
 2467POPC   C3A35129  25.502  42.188   8.000
 2467POPC   C4A35130  25.401  42.340   7.613
 2467POPC   C1B35131  25.022  42.237   8.757
 2467POPC   C2B35132  24.910  42.306   8.309
 2467POPC   C3B35133  24.995  42.148   7.877
 2467POPC   C4B35134  25.247  41.866   7.551
 2468POPC   NC335135  42.841  20.064   9.676
 2468POPC   PO435136  43.320  19.613   9.459
 2468POPC   GL135137  43.029  19.672   9.149
 2468POPC   GL235138  42.954  20.025   9.166
 2468POPC   C1A35139  42.950  19.522   8.752
 2468POPC   D2A35140  42.836  19.799   8.434
 2468POPC   C3A35141  42.835  19.696   8.005
 2468POPC   C4A35142  42.871  20.036   7.709
 2468POPC   C1B35143  43.278  19.943   8.833
 2468POPC   C2B35144  43.320  20.068   8.450
 2468POPC   C3B35145  43.219  20.044   8.080
 2468POPC   C4B35146  43.427  19.773   7.829
 2469POPC   NC335147   4.380  32.336   9.785
 2469POPC   PO435148   5.063  32.176   9.681
 2469POPC   GL135149   5.145  32.127   9.265
 2469POPC   GL235150   4.848  32.197   9.183
 2469POPC   C1A35151   5.170  32.067   8.800
 2469POPC   D2A35152   5.386  32.071   8.389
 2469POPC   C3A35153   5.186  32.098   7.993
 2469POPC   C4A35154   5.100  32.255   7.605
 2469POPC   C1B35155   4.822  32.447   8.805
 2469POPC   C2B35156   4.927  32.341   8.382
 2469POPC   C3B35157   4.869  32.526   7.980
 2469POPC   C4B35158   4.629  32.427   7.617
 2470POPC   NC335159   8.944  18.822   9.535
 2470POPC   PO435160   8.700  19.412   9.457
 2470POPC   GL135161   8.965  19.212   9.178
 2470POPC   GL235162   9.058  18.877   9.059
 2470POPC   C1A35163   9.070  19.305   8.791
 2470POPC   D2A35164   8.985  19.068   8.440
 2470POPC   C3A35165   9.089  19.239   8.074
 2470POPC   C4A35166   8.978  19.022   7.717
 2470POPC   C1B35167   9.351  18.874   8.734
 2470POPC   C2B35168   9.438  18.816   8.299
 2470POPC   C3B35169   9.446  18.876   7.842
 2470POPC   C4B35170   9.486  18.737   7.397
 2471POPC   NC335171  19.003  16.842   9.560
 2471POPC   PO435172  18.554  16.298   9.497
 2471POPC   GL135173  18.877  16.508   9.163
 2471POPC   GL235174  19.256  16.474   9.282
 2471POPC   C1A35175  18.909  16.722   8.689
 2471POPC   D2A35176  18.922  16.524   8.249
 2471POPC   C3A35177  18.840  16.646   7.820
 2471POPC   C4A35178  18.457  16.768   7.579
 2471POPC   C1B35179  19.309  16.441   8.848
 2471POPC   C2B35180  19.388  16.515   8.415
 2471POPC   C3B35181  19.365  16.429   7.962
 2471POPC   C4B35182  19.316  16.590   7.515
 2472POPC   NC335183  43.181  16.461   9.407
 2472POPC   PO435184  42.845  17.022   9.544
 2472POPC   GL135185  43.026  16.885   9.152
 2472POPC   GL235186  43.362  16.969   9.228
 2472POPC   C1A35187  43.095  16.645   8.770
 2472POPC   D2A35188  42.911  16.638   8.384
 2472POPC   C3A35189  43.063  16.513   8.007
 2472POPC   C4A35190  42.857  16.587   7.623
 2472POPC   C1B35191  43.424  17.016   8.767
 2472POPC   C2B35192  43.411  16.789   8.348
 2472POPC   C3B35193  43.656  16.817   7.963
 2472POPC   C4B35194  43.315  16.846   7.651
 2473POPC   NC335195  43.228  33.695   9.611
 2473POPC   PO435196  42.676  33.903   9.552
 2473POPC   GL135197  42.910  33.751   9.188
 2473POPC   GL235198  43.280  33.694   9.082
 2473POPC   C1A35199  42.914  33.588   8.770
 2473POPC   D2A35200  43.187  33.734   8.433
 2473POPC   C3A35201  43.011  33.663   8.048
 2473POPC   C4A35202  43.258  33.658   7.706
 2473POPC   C1B35203  43.176  34.034   8.831
 2473POPC   C2B35204  42.983  34.210   8.450
 2473POPC   C3B35205  43.015  34.171   8.016
 2473POPC   C4B35206  43.011  34.098   7.587
 2474POPC   NC335207   4.504   2.916   9.633
 2474POPC   PO435208   4.002   3.158   9.331
 2474POPC   GL135209   4.276   2.799   9.053
 2474POPC   GL235210   4.639   2.690   9.126
 2474POPC   C1A35211   4.583   2.863   8.653
 2474POPC   D2A35212   4.652   3.176   8.320
 2474POPC   C3A35213   4.526   3.038   7.886
 2474POPC   C4A35214   4.257   2.780   7.566
 2474POPC   C1B35215   4.497   2.383   8.794
 2474POPC   C2B35216   4.290   2.512   8.395
 2474POPC   C3B35217   4.443   2.545   7.987
 2474POPC   C4B35218   4.553   2.379   7.581
 2475POPC   NC335219  20.689  33.685   9.368
 2475POPC   PO435220  21.032  34.160   9.188
 2475POPC   GL135221  21.139  33.813   8.962
 2475POPC   GL235222  21.484  33.835   9.036
 2475POPC   C1A35223  21.303  33.666   8.573
 2475POPC   D2A35224  21.349  33.867   8.189
 2475POPC   C3A35225  21.238  33.694   7.821
 2475POPC   C4A35226  21.087  33.688   7.366
 2475POPC   C1B35227  21.578  34.096   8.657
 2475POPC   C2B35228  21.805  34.060   8.261
 2475POPC   C3B35229  21.779  33.829   7.851
 2475POPC   C4B35230  21.936  33.882   7.401
 2476POPC   NC335231  42.427   0.788   9.928
 2476POPC   PO435232  42.280   0.248   9.487
 2476POPC   GL135233  42.316   0.395   9.070
 2476POPC   GL235234  42.645   0.600   9.070
 2476POPC   C1A35235  42.289   0.366   8.628
 2476POPC   D2A35236  42.505   0.637   8.347
 2476POPC   C3A35237  42.479   0.503   7.909
 2476POPC   C4A35238  42.461   0.587   7.450
 2476POPC   C1B35239  42.782   0.336   8.713
 2476POPC   C2B35240  42.707   0.161   8.315
 2476POPC   C3B35241  42.658   0.009   7.909
 2476POPC   C4B35242  42.612   0.053   7.491
 2477POPC   NC335243  42.378  31.871   9.835
 2477POPC   PO435244  42.592  31.397   9.363
 2477POPC   GL135245  42.497  31.503   8.974
 2477POPC   GL235246  42.297  31.261   8.904
 2477POPC   C1A35247  42.492  31.637   8.551
 2477POPC   D2A35248  42.527  31.283   8.307
 2477POPC   C3A35249  42.434  31.263   7.872
 2477POPC   C4A35250  42.467  31.630   7.617
 2477POPC   C1B35251  42.056  31.682   8.805
 2477POPC   C2B35252  41.959  31.785   8.424
 2477POPC   C3B35253  42.082  31.603   8.054
 2477POPC   C4B35254  41.878  31.645   7.690
 2478POPC   NC335255  34.372  12.546   9.775
 2478POPC   PO435256  34.967  12.694   9.376
 2478POPC   GL135257  34.766  12.896   9.039
 2478POPC   GL235258  34.463  13.019   9.036
 2478POPC   C1A35259  34.646  12.744   8.616
 2478POPC   D2A35260  34.800  12.910   8.229
 2478POPC   C3A35261  34.880  12.715   7.870
 2478POPC   C4A35262  34.831  12.850   7.446
 2478POPC   C1B35263  34.173  12.975   8.709
 2478POPC   C2B35264  34.306  13.026   8.300
 2478POPC   C3B35265  34.388  12.900   7.883
 2478POPC   C4B35266  34.300  12.961   7.454
 2479POPC   NC335267   3.635  34.108   9.504
 2479POPC   PO435268   3.750  33.365   9.565
 2479POPC   GL135269   3.534  33.666   9.253
 2479POPC   GL235270   3.195  33.600   9.136
 2479POPC   C1A35271   3.483  33.870   8.828
 2479POPC   D2A35272   3.414  33.711   8.417
 2479POPC   C3A35273   3.558  33.877   8.038
 2479POPC   C4A35274   3.395  34.144   7.729
 2479POPC   C1B35275   3.169  33.391   8.738
 2479POPC   C2B35276   3.134  33.285   8.291
 2479POPC   C3B35277   3.281  33.465   7.954
 2479POPC   C4B35278   3.218  33.617   7.555
 2480POPC   NC335279  22.361  22.618   9.563
 2480POPC   PO435280  21.980  23.248   9.545
 2480POPC   GL135281  22.190  23.192   9.192
 2480POPC   GL235282  22.261  23.507   9.162
 2480POPC   C1A35283  22.386  23.180   8.803
 2480POPC   D2A35284  22.288  22.938   8.487
 2480POPC   C3A35285  22.407  22.963   8.076
 2480POPC   C4A35286  22.329  22.736   7.759
 2480POPC   C1B35287  21.942  23.475   8.787
 2480POPC   C2B35288  21.749  23.307   8.414
 2480POPC   C3B35289  21.924  23.125   8.060
 2480POPC   C4B35290  22.136  23.227   7.698
 2481POPC   NC335291   7.836  43.974   9.561
 2481POPC   PO435292   7.176  44.141   9.591
 2481POPC   GL135293   7.294  43.841   9.275
 2481POPC   GL235294   7.600  43.798   9.149
 2481POPC   C1A35295   7.240  44.023   8.840
 2481POPC   D2A35296   7.187  44.218   8.401
 2481POPC   C3A35297   7.198  44.037   7.958
 2481POPC   C4A35298   7.165  44.166   7.507
 2481POPC   C1B35299   7.611  43.693   8.705
 2481POPC   C2B35300   7.571  43.830   8.293
 2481POPC   C3B35301   7.877  43.766   7.956
 2481POPC   C4B35302   8.147  43.816   7.597
 2482POPC   NC335303  33.868  11.694   9.638
 2482POPC   PO435304  34.044  12.375   9.486
 2482POPC   GL135305  33.860  12.133   9.180
 2482POPC   GL235306  33.540  12.228   9.254
 2482POPC   C1A35307  33.891  12.135   8.679
 2482POPC   D2A35308  33.752  12.268   8.237
 2482POPC   C3A35309  33.944  12.041   7.871
 2482POPC   C4A35310  34.001  11.876   7.440
 2482POPC   C1B35311  33.533  11.868   8.922
 2482POPC   C2B35312  33.425  11.898   8.483
 2482POPC   C3B35313  33.521  11.791   8.105
 2482POPC   C4B35314  33.605  11.674   7.724
 2483POPC   NC335315   5.693   0.658   9.468
 2483POPC   PO435316   6.271   0.404   9.552
 2483POPC   GL135317   6.033   0.394   9.194
 2483POPC   GL235318   5.715   0.284   9.058
 2483POPC   C1A35319   6.091   0.500   8.796
 2483POPC   D2A35320   5.857   0.321   8.501
 2483POPC   C3A35321   5.881   0.498   8.129
 2483POPC   C4A35322   5.847   0.417   7.704
 2483POPC   C1B35323   5.586  44.931   8.759
 2483POPC   C2B35324   5.496  44.994   8.329
 2483POPC   C3B35325   5.496   0.134   7.936
 2483POPC   C4B35326   5.632  44.959   7.564
 2484POPC   NC335327  33.342  35.713   9.460
 2484POPC   PO435328  33.068  35.044   9.440
 2484POPC   GL135329  33.048  35.429   9.137
 2484POPC   GL235330  33.327  35.576   8.976
 2484POPC   C1A35331  32.875  35.569   8.741
 2484POPC   D2A35332  32.716  35.279   8.480
 2484POPC   C3A35333  32.669  35.349   8.091
 2484POPC   C4A35334  32.936  35.390   7.798
 2484POPC   C1B35335  33.258  35.220   8.694
 2484POPC   C2B35336  33.163  35.199   8.251
 2484POPC   C3B35337  33.270  35.018   7.879
 2484POPC   C4B35338  33.359  35.219   7.528
 2485POPC   NC335339   9.213  28.783   9.785
 2485POPC   PO435340   9.011  29.263   9.650
 2485POPC   GL135341   9.005  29.339   9.201
 2485POPC   GL235342   9.160  29.672   9.166
 2485POPC   C1A35343   8.811  29.206   8.805
 2485POPC   D2A35344   8.973  29.226   8.366
 2485POPC   C3A35345   9.085  29.038   7.950
 2485POPC   C4A35346   9.278  29.019   7.514
 2485POPC   C1B35347   9.085  29.619   8.722
 2485POPC   C2B35348   8.916  29.722   8.302
 2485POPC   C3B35349   8.911  29.551   7.880
 2485POPC   C4B35350   8.645  29.634   7.493
 2486POPC   NC335351  23.340  31.313   9.653
 2486POPC   PO435352  23.890  31.615   9.792
 2486POPC   GL135353  23.823  31.386   9.372
 2486POPC   GL235354  23.519  31.548   9.227
 2486POPC   C1A35355  23.750  31.150   8.954
 2486POPC   D2A35356  23.644  31.256   8.510
 2486POPC   C3A35357  23.808  31.198   8.098
 2486POPC   C4A35358  23.780  31.519   7.752
 2486POPC   C1B35359  23.330  31.685   8.849
 2486POPC   C2B35360  23.502  31.741   8.434
 2486POPC   C3B35361  23.603  31.897   8.051
 2486POPC   C4B35362  23.368  31.876   7.672
 2487POPC   NC335363  38.453   6.331   9.458
 2487POPC   PO435364  38.468   7.013   9.442
 2487POPC   GL135365  38.418   6.721   9.129
 2487POPC   GL235366  38.062   6.661   9.082
 2487POPC   C1A35367  38.648   6.595   8.794
 2487POPC   D2A35368  38.711   6.869   8.428
 2487POPC   C3A35369  38.646   6.757   8.021
 2487POPC   C4A35370  38.863   6.414   7.846
 2487POPC   C1B35371  38.214   6.774   8.650
 2487POPC   C2B35372  38.425   6.422   8.363
 2487POPC   C3B35373  38.363   6.357   7.912
 2487POPC   C4B35374  38.213   6.777   7.728
 2488POPC   NC335375  40.252   4.237   9.571
 2488POPC   PO435376  39.933   4.851   9.500
 2488POPC   GL135377  39.912   4.447   9.217
 2488POPC   GL235378  40.219   4.389   9.061
 2488POPC   C1A35379  39.865   4.460   8.726
 2488POPC   D2A35380  40.083   4.635   8.354
 2488POPC   C3A35381  40.062   4.406   7.975
 2488POPC   C4A35382  39.733   4.319   7.677
 2488POPC   C1B35383  40.417   4.412   8.673
 2488POPC   C2B35384  40.486   4.237   8.269
 2488POPC   C3B35385  40.452   4.041   7.862
 2488POPC   C4B35386  40.254   4.171   7.501
 2489POPC   NC335387  13.389  43.998   9.489
 2489POPC   PO435388  14.025  44.314   9.496
 2489POPC   GL135389  13.717  44.253   9.158
 2489POPC   GL235390  13.723  43.886   9.094
 2489POPC   C1A35391  13.432  44.163   8.803
 2489POPC   D2A35392  13.484  43.886   8.448
 2489POPC   C3A35393  13.572  44.091   8.070
 2489POPC   C4A35394  13.713  43.998   7.698
 2489POPC   C1B35395  13.723  43.576   8.780
 2489POPC   C2B35396  13.730  43.396   8.387
 2489POPC   C3B35397  13.687  43.574   8.002
 2489POPC   C4B35398  13.671  43.500   7.587
 2490POPC   NC335399  36.750  32.744   9.347
 2490POPC   PO435400  37.198  33.164   9.657
 2490POPC   GL135401  37.127  33.306   9.142
 2490POPC   GL235402  36.809  33.146   9.009
 2490POPC   C1A35403  37.184  33.264   8.657
 2490POPC   D2A35404  37.112  33.004   8.235
 2490POPC   C3A35405  37.064  33.135   7.774
 2490POPC   C4A35406  36.825  33.340   7.430
 2490POPC   C1B35407  36.930  32.806   8.672
 2490POPC   C2B35408  36.833  32.566   8.315
 2490POPC   C3B35409  36.798  32.708   7.916
 2490POPC   C4B35410  37.081  32.654   7.608
 2491POPC   NC335411   7.154  21.971   9.584
 2491POPC   PO435412   7.650  22.371   9.533
 2491POPC   GL135413   7.466  22.115   9.176
 2491POPC   GL235414   7.108  22.012   9.079
 2491POPC   C1A35415   7.515  21.963   8.736
 2491POPC   D2A35416   7.638  22.174   8.316
 2491POPC   C3A35417   7.616  21.924   7.930
 2491POPC   C4A35418   7.496  22.025   7.512
 2491POPC   C1B35419   7.072  21.717   8.712
 2491POPC   C2B35420   7.236  21.801   8.282
 2491POPC   C3B35421   7.106  22.001   7.867
 2491POPC   C4B35422   7.064  21.766   7.448
 2492POPC   NC335423  19.355  10.696   9.538
 2492POPC   PO435424  18.704  10.786   9.609
 2492POPC   GL135425  18.956  10.627   9.212
 2492POPC   GL235426  19.264  10.796   9.064
 2492POPC   C1A35427  18.790  10.574   8.771
 2492POPC   D2A35428  18.615  10.374   8.403
 2492POPC   C3A35429  18.773  10.526   8.025
 2492POPC   C4A35430  18.863  10.380   7.635
 2492POPC   C1B35431  19.277  10.452   8.806
 2492POPC   C2B35432  19.123  10.372   8.401
 2492POPC   C3B35433  19.280  10.386   8.025
 2492POPC   C4B35434  19.208  10.704   7.750
 2493POPC   NC335435  17.692   1.808   9.503
 2493POPC   PO435436  17.124   2.013   9.624
 2493POPC   GL135437  17.272   1.826   9.205
 2493POPC   GL235438  17.451   2.098   9.113
 2493POPC   C1A35439  17.394   1.783   8.728
 2493POPC   D2A35440  17.239   1.790   8.318
 2493POPC   C3A35441  17.394   2.080   7.961
 2493POPC   C4A35442  17.404   1.818   7.627
 2493POPC   C1B35443  17.627   2.254   8.738
 2493POPC   C2B35444  17.698   2.061   8.363
 2493POPC   C3B35445  17.905   2.196   8.019
 2493POPC   C4B35446  17.879   2.088   7.613
 2494POPC   NC335447  19.293  17.377   9.308
 2494POPC   PO435448  18.775  17.255   9.598
 2494POPC   GL135449  18.859  17.134   9.136
 2494POPC   GL235450  19.153  16.940   9.067
 2494POPC   C1A35451  18.964  17.250   8.682
 2494POPC   D2A35452  19.148  17.134   8.254
 2494POPC   C3A35453  19.144  17.449   7.903
 2494POPC   C4A35454  19.008  17.832   7.669
 2494POPC   C1B35455  19.379  16.954   8.687
 2494POPC   C2B35456  19.670  17.096   8.340
 2494POPC   C3B35457  19.643  17.251   7.931
 2494POPC   C4B35458  19.386  17.124   7.589
 2495POPC   NC335459   7.005  34.191   9.341
 2495POPC   PO435460   6.502  34.632   9.596
 2495POPC   GL135461   6.557  34.721   9.134
 2495POPC   GL235462   6.574  34.365   9.080
 2495POPC   C1A35463   6.380  34.869   8.741
 2495POPC   D2A35464   6.428  34.951   8.286
 2495POPC   C3A35465   6.745  34.922   7.968
 2495POPC   C4A35466   6.542  34.842   7.555
 2495POPC   C1B35467   6.689  34.457   8.671
 2495POPC   C2B35468   6.861  34.542   8.283
 2495POPC   C3B35469   6.655  34.439   7.860
 2495POPC   C4B35470   6.785  34.327   7.449
 2496POPC   NC335471  26.874  29.468   9.615
 2496POPC   PO435472  26.748  30.133   9.530
 2496POPC   GL135473  26.672  30.088   9.127
 2496POPC   GL235474  26.660  29.722   9.110
 2496POPC   C1A35475  26.788  30.130   8.721
 2496POPC   D2A35476  26.917  29.972   8.332
 2496POPC   C3A35477  26.828  30.181   7.964
 2496POPC   C4A35478  26.910  29.897   7.693
 2496POPC   C1B35479  26.526  29.541   8.728
 2496POPC   C2B35480  26.362  29.640   8.341
 2496POPC   C3B35481  26.518  29.719   7.950
 2496POPC   C4B35482  26.446  29.549   7.525
 2497POPC   NC335483  11.286  39.138   9.530
 2497POPC   PO435484  11.504  39.689   9.749
 2497POPC   GL135485  11.342  39.561   9.256
 2497POPC   GL235486  11.593  39.322   9.171
 2497POPC   C1A35487  11.185  39.394   8.842
 2497POPC   D2A35488  11.250  38.994   8.577
 2497POPC   C3A35489  11.282  39.047   8.100
 2497POPC   C4A35490  11.157  39.021   7.647
 2497POPC   C1B35491  11.687  39.440   8.753
 2497POPC   C2B35492  11.500  39.419   8.396
 2497POPC   C3B35493  11.655  39.444   8.022
 2497POPC   C4B35494  11.358  39.460   7.773
 2498POPC   NC335495   7.950  41.339   9.581
 2498POPC   PO435496   8.328  41.904   9.458
 2498POPC   GL135497   8.270  41.607   9.152
 2498POPC   GL235498   8.578  41.428   9.180
 2498POPC   C1A35499   8.099  41.642   8.727
 2498POPC   D2A35500   7.868  41.686   8.336
 2498POPC   C3A35501   8.061  41.636   7.917
 2498POPC   C4A35502   8.022  41.948   7.588
 2498POPC   C1B35503   8.512  41.313   8.760
 2498POPC   C2B35504   8.405  41.446   8.346
 2498POPC   C3B35505   8.372  41.179   7.996
 2498POPC   C4B35506   8.318  41.230   7.560
 2499POPC   NC335507  38.749  38.874   9.338
 2499POPC   PO435508  39.216  39.264   9.701
 2499POPC   GL135509  39.255  39.375   9.284
 2499POPC   GL235510  39.453  39.087   9.245
 2499POPC   C1A35511  39.126  39.459   8.858
 2499POPC   D2A35512  39.144  39.293   8.451
 2499POPC   C3A35513  38.951  39.365   8.048
 2499POPC   C4A35514  39.023  39.021   7.783
 2499POPC   C1B35515  39.595  39.123   8.846
 2499POPC   C2B35516  39.568  39.007   8.430
 2499POPC   C3B35517  39.502  39.207   8.073
 2499POPC   C4B35518  39.370  39.406   7.730
 2500POPC   NC335519  33.321  13.567   9.809
 2500POPC   PO435520  32.728  13.318   9.443
 2500POPC   GL135521  32.831  13.597   9.111
 2500POPC   GL235522  32.984  13.922   9.226
 2500POPC   C1A35523  32.973  13.473   8.695
 2500POPC   D2A35524  32.907  13.184   8.365
 2500POPC   C3A35525  32.955  13.435   8.050
 2500POPC   C4A35526  33.256  13.580   7.797
 2500POPC   C1B35527  32.891  13.990   8.786
 2500POPC   C2B35528  32.848  13.831   8.359
 2500POPC   C3B35529  33.050  13.964   8.024
 2500POPC   C4B35530  32.916  14.175   7.712
 2501POPC   NC335531  16.878  29.001   9.530
 2501POPC   PO435532  16.529  29.515   9.691
 2501POPC   GL135533  16.638  29.424   9.287
 2501POPC   GL235534  16.968  29.423   9.207
 2501POPC   C1A35535  16.491  29.195   8.925
 2501POPC   D2A35536  16.504  29.355   8.515
 2501POPC   C3A35537  16.416  29.109   8.153
 2501POPC   C4A35538  16.659  28.998   7.777
 2501POPC   C1B35539  16.984  29.292   8.792
 2501POPC   C2B35540  16.917  29.026   8.443
 2501POPC   C3B35541  16.884  29.307   8.111
 2501POPC   C4B35542  17.013  29.367   7.698
 2502POPC   NC335543  11.142  44.419   9.417
 2502POPC   PO435544  11.468  44.875   9.776
 2502POPC   GL135545  11.357  44.887   9.304
 2502POPC   GL235546  11.567  44.608   9.197
 2502POPC   C1A35547  11.280  44.828   8.828
 2502POPC   D2A35548  11.079  44.845   8.385
 2502POPC   C3A35549  11.191  44.672   7.978
 2502POPC   C4A35550  11.113  44.544   7.543
 2502POPC   C1B35551  11.722  44.418   8.836
 2502POPC   C2B35552  11.534  44.444   8.431
 2502POPC   C3B35553  11.677  44.504   8.024
 2502POPC   C4B35554  11.737  44.339   7.633
 2503POPC   NC335555   7.431   3.728   9.625
 2503POPC   PO435556   7.110   3.286   9.506
 2503POPC   GL135557   7.278   3.477   9.102
 2503POPC   GL235558   7.360   3.811   9.121
 2503POPC   C1A35559   7.313   3.618   8.648
 2503POPC   D2A35560   7.008   3.629   8.273
 2503POPC   C3A35561   7.259   3.722   7.883
 2503POPC   C4A35562   7.550   3.433   7.664
 2503POPC   C1B35563   7.778   3.807   8.828
 2503POPC   C2B35564   7.863   3.912   8.426
 2503POPC   C3B35565   7.833   3.721   8.016
 2503POPC   C4B35566   7.737   3.911   7.627
 2504POPC   NC335567   9.713  34.004   9.569
 2504POPC   PO435568   9.919  33.299   9.589
 2504POPC   GL135569   9.884  33.617   9.269
 2504POPC   GL235570   9.512  33.682   9.194
 2504POPC   C1A35571   9.875  33.774   8.857
 2504POPC   D2A35572   9.759  33.866   8.438
 2504POPC   C3A35573  10.037  33.765   8.108
 2504POPC   C4A35574   9.959  33.622   7.691
 2504POPC   C1B35575   9.347  33.862   8.777
 2504POPC   C2B35576   9.257  33.822   8.325
 2504POPC   C3B35577   9.542  33.709   7.975
 2504POPC   C4B35578   9.480  33.701   7.493
 2505POPC   NC335579  31.280  16.335   9.388
 2505POPC   PO435580  31.342  15.680   9.361
 2505POPC   GL135581  31.399  15.976   9.034
 2505POPC   GL235582  31.605  16.302   9.012
 2505POPC   C1A35583  31.564  15.939   8.631
 2505POPC   D2A35584  31.441  15.671   8.304
 2505POPC   C3A35585  31.677  15.538   7.980
 2505POPC   C4A35586  31.470  15.681   7.628
 2505POPC   C1B35587  31.220  16.334   8.728
 2505POPC   C2B35588  31.175  16.111   8.335
 2505POPC   C3B35589  31.516  16.059   7.984
 2505POPC   C4B35590  31.368  16.244   7.567
 2506POPC   NC335591  12.034  16.112   9.298
 2506POPC   PO435592  12.354  15.697   9.727
 2506POPC   GL135593  12.234  15.623   9.233
 2506POPC   GL235594  11.894  15.708   9.071
 2506POPC   C1A35595  12.255  15.752   8.746
 2506POPC   D2A35596  12.387  15.679   8.320
 2506POPC   C3A35597  12.270  15.899   7.930
 2506POPC   C4A35598  12.079  15.706   7.548
 2506POPC   C1B35599  11.820  16.013   8.713
 2506POPC   C2B35600  11.934  15.927   8.330
 2506POPC   C3B35601  11.773  15.781   7.974
 2506POPC   C4B35602  11.864  16.151   7.777
 2507POPC   NC335603  35.720  29.206   9.699
 2507POPC   PO435604  36.197  28.816   9.399
 2507POPC   GL135605  36.077  29.068   9.039
 2507POPC   GL235606  36.075  29.359   9.157
 2507POPC   C1A35607  36.154  29.144   8.610
 2507POPC   D2A35608  36.024  28.928   8.239
 2507POPC   C3A35609  36.325  28.986   7.899
 2507POPC   C4A35610  36.309  28.840   7.471
 2507POPC   C1B35611  36.017  29.630   8.753
 2507POPC   C2B35612  36.277  29.645   8.392
 2507POPC   C3B35613  36.267  29.489   7.955
 2507POPC   C4B35614  36.147  29.320   7.523
 2508POPC   NC335615   6.010  12.318   9.382
 2508POPC   PO435616   5.909  12.966   9.540
 2508POPC   GL135617   5.684  12.945   9.137
 2508POPC   GL235618   5.668  12.590   9.086
 2508POPC   C1A35619   5.850  12.903   8.708
 2508POPC   D2A35620   6.021  12.760   8.329
 2508POPC   C3A35621   5.973  12.938   7.978
 2508POPC   C4A35622   5.973  13.132   7.617
 2508POPC   C1B35623   5.660  12.423   8.644
 2508POPC   C2B35624   5.568  12.532   8.221
 2508POPC   C3B35625   5.795  12.440   7.859
 2508POPC   C4B35626   5.929  12.649   7.481
 2509POPC   NC335627  17.274  44.482   9.442
 2509POPC   PO435628  17.900  44.815   9.463
 2509POPC   GL135629  17.713  44.908   9.063
 2509POPC   GL235630  17.470  44.637   9.010
 2509POPC   C1A35631  17.768  44.801   8.637
 2509POPC   D2A35632  17.516  44.583   8.325
 2509POPC   C3A35633  17.674  44.649   7.935
 2509POPC   C4A35634  17.719   0.081   7.821
 2509POPC   C1B35635  17.175  44.641   8.689
 2509POPC   C2B35636  17.052  44.875   8.340
 2509POPC   C3B35637  17.221  44.907   7.924
 2509POPC   C4B35638  16.992  44.959   7.549
 2510POPC   NC335639  18.749  14.397   9.442
 2510POPC   PO435640  18.063  14.377   9.578
 2510POPC   GL135641  18.131  14.341   9.106
 2510POPC   GL235642  18.463  14.183   9.025
 2510POPC   C1A35643  18.253  14.471   8.671
 2510POPC   D2A35644  18.549  14.376   8.352
 2510POPC   C3A35645  18.504  14.585   7.937
 2510POPC   C4A35646  18.144  14.436   7.681
 2510POPC   C1B35647  18.578  13.921   8.670
 2510POPC   C2B35648  18.700  13.876   8.232
 2510POPC   C3B35649  18.484  14.088   7.881
 2510POPC   C4B35650  18.509  14.170   7.430
 2511POPC   NC335651  42.001   9.696   9.904
 2511POPC   PO435652  42.488   9.753   9.609
 2511POPC   GL135653  42.290   9.859   9.188
 2511POPC   GL235654  42.026   9.636   9.074
 2511POPC   C1A35655  42.431   9.853   8.742
 2511POPC   D2A35656  42.564   9.558   8.373
 2511POPC   C3A35657  42.547   9.787   7.971
 2511POPC   C4A35658  42.439   9.749   7.541
 2511POPC   C1B35659  42.074   9.513   8.626
 2511POPC   C2B35660  42.132   9.806   8.288
 2511POPC   C3B35661  42.027   9.849   7.859
 2511POPC   C4B35662  41.618   9.710   7.702
 2512POPC   NC335663  42.201   2.274   9.565
 2512POPC   PO435664  42.748   2.629   9.449
 2512POPC   GL135665  42.462   2.787   9.159
 2512POPC   GL235666  42.166   2.749   9.316
 2512POPC   C1A35667  42.340   2.934   8.764
 2512POPC   D2A35668  42.473   2.810   8.381
 2512POPC   C3A35669  42.259   2.824   8.017
 2512POPC   C4A35670  42.358   2.549   7.688
 2512POPC   C1B35671  42.048   2.529   8.928
 2512POPC   C2B35672  41.994   2.588   8.475
 2512POPC   C3B35673  41.946   2.430   8.049
 2512POPC   C4B35674  41.864   2.694   7.659
 2513POPC   NC335675  14.128  37.738   9.620
 2513POPC   PO435676  14.737  37.631   9.781
 2513POPC   GL135677  14.531  37.747   9.311
 2513POPC   GL235678  14.239  37.587   9.136
 2513POPC   C1A35679  14.583  37.868   8.879
 2513POPC   D2A35680  14.314  37.910   8.502
 2513POPC   C3A35681  14.489  38.110   8.135
 2513POPC   C4A35682  14.408  37.946   7.715
 2513POPC   C1B35683  14.542  37.372   8.837
 2513POPC   C2B35684  14.608  37.464   8.425
 2513POPC   C3B35685  14.392  37.558   8.065
 2513POPC   C4B35686  14.454  37.324   7.704
 2514POPC   NC335687  44.790   4.536   9.723
 2514POPC   PO435688  44.767   3.966   9.382
 2514POPC   GL135689  44.787   4.365   9.212
 2514POPC   GL235690  44.480   4.491   9.138
 2514POPC   C1A35691  44.880   4.449   8.772
 2514POPC   D2A35692  44.741   4.544   8.351
 2514POPC   C3A35693  44.578   4.190   8.142
 2514POPC   C4A35694  44.593   4.129   7.728
 2514POPC   C1B35695  44.394   4.722   8.754
 2514POPC   C2B35696  44.248   4.695   8.309
 2514POPC   C3B35697  44.381   4.574   7.868
 2514POPC   C4B35698  44.371   4.447   7.405
 2515POPC   NC335699   0.953  17.523   9.584
 2515POPC   PO435700   1.570  17.309   9.359
 2515POPC   GL135701   1.268  17.597   9.178
 2515POPC   GL235702   0.979  17.360   9.093
 2515POPC   C1A35703   1.163  17.730   8.769
 2515POPC   D2A35704   1.231  17.529   8.385
 2515POPC   C3A35705   1.138  17.691   8.033
 2515POPC   C4A35706   0.997  17.444   7.740
 2515POPC   C1B35707   1.319  17.249   8.798
 2515POPC   C2B35708   1.465  17.076   8.447
 2515POPC   C3B35709   1.423  17.190   7.987
 2515POPC   C4B35710   1.296  17.070   7.555
 2516POPC   NC335711  13.199  35.953   9.300
 2516POPC   PO435712  12.541  36.351   9.452
 2516POPC   GL135713  12.770  36.141   9.143
 2516POPC   GL235714  13.025  36.410   9.079
 2516POPC   C1A35715  12.961  36.036   8.716
 2516POPC   D2A35716  13.217  36.103   8.338
 2516POPC   C3A35717  12.937  35.987   7.984
 2516POPC   C4A35718  12.785  35.839   7.547
 2516POPC   C1B35719  12.619  36.446   8.794
 2516POPC   C2B35720  12.589  36.241   8.426
 2516POPC   C3B35721  12.432  36.256   8.091
 2516POPC   C4B35722  12.655  36.359   7.794
 2517POPC   NC335723  40.024  17.293   9.584
 2517POPC   PO435724  39.948  17.989   9.489
 2517POPC   GL135725  40.058  17.649   9.187
 2517POPC   GL235726  39.792  17.394   9.128
 2517POPC   C1A35727  40.170  17.435   8.776
 2517POPC   D2A35728  40.396  17.543   8.391
 2517POPC   C3A35729  40.170  17.541   7.967
 2517POPC   C4A35730  40.102  17.804   7.582
 2517POPC   C1B35731  39.762  17.722   8.790
 2517POPC   C2B35732  39.924  17.767   8.382
 2517POPC   C3B35733  39.717  17.796   8.017
 2517POPC   C4B35734  39.669  17.495   7.709
 2518POPC   NC335735  42.715   8.471   9.373
 2518POPC   PO435736  42.050   8.217   9.456
 2518POPC   GL135737  42.285   8.172   9.147
 2518POPC   GL235738  42.543   7.926   9.216
 2518POPC   C1A35739  42.319   8.343   8.773
 2518POPC   D2A35740  42.499   8.537   8.462
 2518POPC   C3A35741  42.363   8.381   8.098
 2518POPC   C4A35742  42.233   8.220   7.733
 2518POPC   C1B35743  42.402   7.846   8.785
 2518POPC   C2B35744  42.495   7.988   8.388
 2518POPC   C3B35745  42.424   7.822   7.983
 2518POPC   C4B35746  42.568   7.863   7.547
 2519POPC   NC335747  40.569  41.346   9.619
 2519POPC   PO435748  41.013  41.831   9.534
 2519POPC   GL135749  40.823  41.588   9.224
 2519POPC   GL235750  41.035  41.316   9.107
 2519POPC   C1A35751  40.780  41.661   8.788
 2519POPC   D2A35752  40.853  41.460   8.398
 2519POPC   C3A35753  40.555  41.651   8.127
 2519POPC   C4A35754  40.641  41.872   7.744
 2519POPC   C1B35755  40.622  41.204   8.914
 2519POPC   C2B35756  40.393  41.218   8.495
 2519POPC   C3B35757  40.545  41.103   8.085
 2519POPC   C4B35758  40.621  41.338   7.731
 2520POPC   NC335759  33.842  44.278   9.782
 2520POPC   PO435760  33.530  43.784   9.531
 2520POPC   GL135761  33.696  43.932   9.169
 2520POPC   GL235762  33.705  44.302   9.208
 2520POPC   C1A35763  33.684  43.740   8.755
 2520POPC   D2A35764  33.624  43.899   8.326
 2520POPC   C3A35765  33.636  43.627   7.957
 2520POPC   C4A35766  33.656  43.737   7.526
 2520POPC   C1B35767  33.521  44.223   8.782
 2520POPC   C2B35768  33.557  44.432   8.409
 2520POPC   C3B35769  33.558  44.278   7.994
 2520POPC   C4B35770  33.738  44.238   7.590
 2521POPC   NC335771  39.045   6.101   9.785
 2521POPC   PO435772  39.323   5.630   9.354
 2521POPC   GL135773  39.059   5.689   9.004
 2521POPC   GL235774  38.857   5.969   9.052
 2521POPC   C1A35775  39.142   5.825   8.605
 2521POPC   D2A35776  39.183   5.571   8.264
 2521POPC   C3A35777  39.409   5.650   7.891
 2521POPC   C4A35778  39.101   5.554   7.590
 2521POPC   C1B35779  38.704   6.102   8.695
 2521POPC   C2B35780  38.853   6.153   8.296
 2521POPC   C3B35781  38.973   5.920   7.953
 2521POPC   C4B35782  39.148   6.066   7.589
 2522POPC   NC335783  35.740   6.831   9.726
 2522POPC   PO435784  36.302   6.653   9.579
 2522POPC   GL135785  36.102   6.708   9.206
 2522POPC   GL235786  36.414   6.907   9.130
 2522POPC   C1A35787  35.876   6.670   8.798
 2522POPC   D2A35788  35.777   6.969   8.460
 2522POPC   C3A35789  35.738   6.700   8.106
 2522POPC   C4A35790  35.925   6.648   7.704
 2522POPC   C1B35791  36.385   6.693   8.766
 2522POPC   C2B35792  36.179   6.660   8.385
 2522POPC   C3B35793  36.291   6.500   8.005
 2522POPC   C4B35794  36.338   6.354   7.573
 2523POPC   NC335795  12.893  14.656   9.468
 2523POPC   PO435796  12.650  13.975   9.521
 2523POPC   GL135797  12.700  14.212   9.166
 2523POPC   GL235798  13.051  14.230   9.126
 2523POPC   C1A35799  12.707  14.093   8.734
 2523POPC   D2A35800  12.716  14.383   8.401
 2523POPC   C3A35801  12.812  14.246   8.018
 2523POPC   C4A35802  12.601  14.387   7.699
 2523POPC   C1B35803  12.972  14.550   8.826
 2523POPC   C2B35804  12.911  14.864   8.508
 2523POPC   C3B35805  13.024  14.714   8.130
 2523POPC   C4B35806  13.022  14.685   7.734
 2524POPC   NC335807  30.656  33.395   9.653
 2524POPC   PO435808  30.476  32.819   9.500
 2524POPC   GL135809  30.692  32.994   9.167
 2524POPC   GL235810  30.722  33.360   9.118
 2524POPC   C1A35811  30.891  32.997   8.778
 2524POPC   D2A35812  30.805  33.160   8.385
 2524POPC   C3A35813  31.104  33.175   8.048
 2524POPC   C4A35814  30.902  33.102   7.676
 2524POPC   C1B35815  30.414  33.216   8.778
 2524POPC   C2B35816  30.282  32.972   8.422
 2524POPC   C3B35817  30.444  32.987   8.005
 2524POPC   C4B35818  30.392  33.081   7.572
 2525POPC   NC335819  35.780  21.384   9.452
 2525POPC   PO435820  36.449  21.440   9.515
 2525POPC   GL135821  36.224  21.222   9.210
 2525POPC   GL235822  36.129  21.556   9.108
 2525POPC   C1A35823  36.136  21.171   8.767
 2525POPC   D2A35824  36.087  21.460   8.432
 2525POPC   C3A35825  36.328  21.400   8.092
 2525POPC   C4A35826  36.164  21.531   7.724
 2525POPC   C1B35827  35.802  21.656   8.825
 2525POPC   C2B35828  35.614  21.703   8.416
 2525POPC   C3B35829  35.672  21.623   8.003
 2525POPC   C4B35830  35.754  21.268   7.801
 2526POPC   NC335831  12.037  38.439   9.628
 2526POPC   PO435832  11.622  37.938   9.507
 2526POPC   GL135833  11.921  38.231   9.189
 2526POPC   GL235834  12.149  38.569   9.151
 2526POPC   C1A35835  12.302  38.126   8.937
 2526POPC   D2A35836  12.549  38.265   8.573
 2526POPC   C3A35837  12.404  38.131   8.181
 2526POPC   C4A35838  12.305  38.040   7.767
 2526POPC   C1B35839  12.184  38.587   8.711
 2526POPC   C2B35840  12.097  38.564   8.251
 2526POPC   C3B35841  11.894  38.515   7.804
 2526POPC   C4B35842  11.735  38.655   7.362
 2527POPC   NC335843  18.629   1.488   9.607
 2527POPC   PO435844  19.037   0.928   9.466
 2527POPC   GL135845  18.902   1.167   9.141
 2527POPC   GL235846  19.259   1.189   9.058
 2527POPC   C1A35847  18.918   1.477   8.805
 2527POPC   D2A35848  19.101   1.469   8.386
 2527POPC   C3A35849  18.983   1.169   8.067
 2527POPC   C4A35850  18.822   1.220   7.664
 2527POPC   C1B35851  19.136   1.000   8.669
 2527POPC   C2B35852  19.388   0.998   8.309
 2527POPC   C3B35853  19.449   1.354   8.029
 2527POPC   C4B35854  19.326   1.259   7.641
 2528POPC   NC335855  40.097  22.573   9.429
 2528POPC   PO435856  39.972  21.891   9.356
 2528POPC   GL135857  39.770  22.051   9.035
 2528POPC   GL235858  39.695  22.404   9.087
 2528POPC   C1A35859  39.806  21.945   8.619
 2528POPC   D2A35860  40.199  21.948   8.424
 2528POPC   C3A35861  40.142  22.026   7.996
 2528POPC   C4A35862  40.238  21.760   7.671
 2528POPC   C1B35863  40.056  22.402   8.767
 2528POPC   C2B35864  40.159  22.469   8.328
 2528POPC   C3B35865  40.128  22.536   7.887
 2528POPC   C4B35866  40.244  22.415   7.465
 2529POPC   NC335867   2.599  18.000   9.289
 2529POPC   PO435868   1.893  18.189   9.328
 2529POPC   GL135869   2.201  18.206   9.026
 2529POPC   GL235870   2.454  18.468   9.099
 2529POPC   C1A35871   2.116  18.063   8.629
 2529POPC   D2A35872   1.847  18.153   8.303
 2529POPC   C3A35873   2.064  18.076   7.965
 2529POPC   C4A35874   1.895  17.904   7.624
 2529POPC   C1B35875   2.281  18.638   8.740
 2529POPC   C2B35876   2.268  18.460   8.332
 2529POPC   C3B35877   2.151  18.589   7.941
 2529POPC   C4B35878   2.198  18.353   7.539
 2530POPC   NC335879  21.763  11.983   9.194
 2530POPC   PO435880  21.134  12.073   9.447
 2530POPC   GL135881  21.277  12.063   9.062
 2530POPC   GL235882  21.356  11.715   9.013
 2530POPC   C1A35883  21.237  12.100   8.638
 2530POPC   D2A35884  20.943  12.019   8.341
 2530POPC   C3A35885  21.159  12.022   8.004
 2530POPC   C4A35886  21.216  12.384   7.831
 2530POPC   C1B35887  21.650  11.743   8.634
 2530POPC   C2B35888  21.604  11.992   8.277
 2530POPC   C3B35889  21.683  12.151   7.882
 2530POPC   C4B35890  21.742  11.764   7.651
 2531POPC   NC335891   6.972   4.513   9.575
 2531POPC   PO435892   7.594   4.146   9.682
 2531POPC   GL135893   7.647   4.216   9.204
 2531POPC   GL235894   7.346   4.359   9.186
 2531POPC   C1A35895   7.430   4.137   8.754
 2531POPC   D2A35896   7.243   4.073   8.386
 2531POPC   C3A35897   7.522   4.130   8.071
 2531POPC   C4A35898   7.345   4.248   7.726
 2531POPC   C1B35899   7.575   4.603   8.842
 2531POPC   C2B35900   7.551   4.505   8.415
 2531POPC   C3B35901   7.568   4.657   7.989
 2531POPC   C4B35902   7.727   4.866   7.625
 2532POPC   NC335903   1.138   1.036   9.443
 2532POPC   PO435904   1.670   1.489   9.418
 2532POPC   GL135905   1.323   1.440   9.124
 2532POPC   GL235906   1.199   1.127   8.952
 2532POPC   C1A35907   1.447   1.479   8.696
 2532POPC   D2A35908   1.316   1.172   8.390
 2532POPC   C3A35909   1.497   1.316   8.024
 2532POPC   C4A35910   1.413   1.130   7.651
 2532POPC   C1B35911   0.865   1.228   8.653
 2532POPC   C2B35912   0.771   0.954   8.314
 2532POPC   C3B35913   1.056   0.931   7.969
 2532POPC   C4B35914   1.005   1.370   7.876
 2533POPC   NC335915   6.118   7.490   9.631
 2533POPC   PO435916   5.460   7.363   9.486
 2533POPC   GL135917   5.646   7.440   9.123
 2533POPC   GL235918   5.987   7.503   9.144
 2533POPC   C1A35919   5.715   7.259   8.746
 2533POPC   D2A35920   5.652   7.433   8.376
 2533POPC   C3A35921   5.620   7.208   8.022
 2533POPC   C4A35922   5.587   7.477   7.689
 2533POPC   C1B35923   6.187   7.495   8.774
 2533POPC   C2B35924   6.117   7.675   8.374
 2533POPC   C3B35925   6.041   7.535   7.962
 2533POPC   C4B35926   6.014   7.681   7.504
 2534POPC   NC335927  44.440  37.931   9.506
 2534POPC   PO435928   0.056  37.813   9.775
 2534POPC   GL135929  44.815  37.659   9.308
 2534POPC   GL235930  44.463  37.515   9.217
 2534POPC   C1A35931  44.666  37.784   8.847
 2534POPC   D2A35932  44.453  37.758   8.431
 2534POPC   C3A35933  44.703  37.704   8.071
 2534POPC   C4A35934  44.884  37.759   7.663
 2534POPC   C1B35935  44.247  37.508   8.841
 2534POPC   C2B35936  44.291  37.190   8.499
 2534POPC   C3B35937  44.332  37.285   8.045
 2534POPC   C4B35938  44.385  37.585   7.705
 2535POPC   NC335939   7.673   3.094   9.455
 2535POPC   PO435940   7.472   2.468   9.412
 2535POPC   GL135941   7.483   2.682   9.056
 2535POPC   GL235942   7.290   2.966   9.133
 2535POPC   C1A35943   7.379   2.571   8.642
 2535POPC   D2A35944   7.608   2.767   8.329
 2535POPC   C3A35945   7.500   2.860   7.910
 2535POPC   C4A35946   7.798   2.980   7.592
 2535POPC   C1B35947   7.448   3.107   8.723
 2535POPC   C2B35948   7.414   3.264   8.272
 2535POPC   C3B35949   7.119   3.225   7.914
 2535POPC   C4B35950   6.798   3.078   7.642
 2536POPC   NC335951   2.214  19.578   9.495
 2536POPC   PO435952   1.767  20.141   9.514
 2536POPC   GL135953   1.920  19.954   9.176
 2536POPC   GL235954   1.719  19.663   9.243
 2536POPC   C1A35955   2.080  20.037   8.753
 2536POPC   D2A35956   2.198  19.890   8.340
 2536POPC   C3A35957   2.259  20.097   7.957
 2536POPC   C4A35958   2.115  19.841   7.596
 2536POPC   C1B35959   1.963  19.522   8.890
 2536POPC   C2B35960   2.022  19.437   8.503
 2536POPC   C3B35961   1.948  19.467   8.079
 2536POPC   C4B35962   1.812  19.363   7.659
 2537POPC   NC335963   7.415  19.423   9.462
 2537POPC   PO435964   7.466  20.113   9.569
 2537POPC   GL135965   7.529  19.866   9.205
 2537POPC   GL235966   7.175  19.797   9.131
 2537POPC   C1A35967   7.526  19.830   8.746
 2537POPC   D2A35968   7.504  19.626   8.339
 2537POPC   C3A35969   7.592  19.837   7.972
 2537POPC   C4A35970   7.419  20.001   7.635
 2537POPC   C1B35971   7.063  19.537   8.743
 2537POPC   C2B35972   7.021  19.422   8.282
 2537POPC   C3B35973   7.081  19.644   7.838
 2537POPC   C4B35974   6.976  19.897   7.420
 2538POPC   NC335975  13.845  11.444   9.694
 2538POPC   PO435976  13.271  11.474   9.957
 2538POPC   GL135977  13.435  11.310   9.425
 2538POPC   GL235978  13.741  11.118   9.323
 2538POPC   C1A35979  13.693  11.405   8.939
 2538POPC   D2A35980  13.786  11.451   8.496
 2538POPC   C3A35981  13.515  11.447   8.143
 2538POPC   C4A35982  13.780  11.256   7.798
 2538POPC   C1B35983  13.392  11.014   9.004
 2538POPC   C2B35984  13.441  11.037   8.539
 2538POPC   C3B35985  13.505  10.936   8.096
 2538POPC   C4B35986  13.482  10.887   7.624
 2539POPC   NC335987  11.251   9.538   9.523
 2539POPC   PO435988  11.391   9.957   9.683
 2539POPC   GL135989  11.405   9.925   9.209
 2539POPC   GL235990  11.525   9.606   9.069
 2539POPC   C1A35991  11.283  10.033   8.771
 2539POPC   D2A35992  11.027   9.959   8.389
 2539POPC   C3A35993  11.182  10.001   7.941
 2539POPC   C4A35994  11.039   9.818   7.531
 2539POPC   C1B35995  11.417   9.555   8.610
 2539POPC   C2B35996  11.260   9.544   8.174
 2539POPC   C3B35997  11.422   9.496   7.740
 2539POPC   C4B35998  11.701   9.157   7.541
 2540POPC   NC335999  41.577  30.482   9.439
 2540POPC   PO436000  41.483  31.199   9.420
 2540POPC   GL136001  41.527  30.903   9.070
 2540POPC   GL236002  41.789  30.628   8.992
 2540POPC   C1A36003  41.517  30.842   8.625
 2540POPC   D2A36004  41.839  30.866   8.327
 2540POPC   C3A36005  41.636  30.832   7.949
 2540POPC   C4A36006  41.220  30.744   7.852
 2540POPC   C1B36007  41.586  30.349   8.706
 2540POPC   C2B36008  41.503  30.415   8.256
 2540POPC   C3B36009  41.563  30.340   7.813
 2540POPC   C4B36010  41.810  30.609   7.496
 2541POPC   NC336011  42.881  39.391   9.469
 2541POPC   PO436012  43.062  38.775   9.218
 2541POPC   GL136013  42.876  39.150   8.992
 2541POPC   GL236014  42.960  39.536   9.010
 2541POPC   C1A36015  42.935  39.298   8.555
 2541POPC   D2A36016  43.373  39.304   8.366
 2541POPC   C3A36017  43.363  38.985   8.049
 2541POPC   C4A36018  43.030  39.016   7.734
 2541POPC   C1B36019  42.834  39.818   8.711
 2541POPC   C2B36020  42.789  39.717   8.293
 2541POPC   C3B36021  43.024  39.444   8.024
 2541POPC   C4B36022  43.419  39.457   7.835
 2542POPC   NC336023  23.592  15.130   9.406
 2542POPC   PO436024  24.123  14.808   9.448
 2542POPC   GL136025  23.843  14.791   9.075
 2542POPC   GL236026  23.701  15.123   8.930
 2542POPC   C1A36027  23.644  14.717   8.661
 2542POPC   D2A36028  23.466  14.923   8.288
 2542POPC   C3A36029  23.699  15.035   7.944
 2542POPC   C4A36030  23.832  14.881   7.557
 2542POPC   C1B36031  23.417  15.300   8.630
 2542POPC   C2B36032  23.419  15.439   8.187
 2542POPC   C3B36033  23.596  15.729   7.866
 2542POPC   C4B36034  23.490  15.811   7.406
 2543POPC   NC336035  30.165  41.080   9.164
 2543POPC   PO436036  29.696  41.375   9.523
 2543POPC   GL136037  29.679  41.684   9.187
 2543POPC   GL236038  30.008  41.677   9.066
 2543POPC   C1A36039  29.611  41.743   8.736
 2543POPC   D2A36040  29.827  41.775   8.333
 2543POPC   C3A36041  29.604  41.638   7.984
 2543POPC   C4A36042  29.701  41.415   7.594
 2543POPC   C1B36043  30.043  41.464   8.678
 2543POPC   C2B36044  30.256  41.461   8.309
 2543POPC   C3B36045  30.038  41.339   7.954
 2543POPC   C4B36046  30.186  41.260   7.532
 2544POPC   NC336047  26.052  15.523   9.793
 2544POPC   PO436048  26.395  16.009   9.528
 2544POPC   GL136049  26.086  15.809   9.269
 2544POPC   GL236050  25.973  16.120   9.109
 2544POPC   C1A36051  26.018  15.666   8.834
 2544POPC   D2A36052  25.871  15.705   8.396
 2544POPC   C3A36053  26.179  15.853   8.094
 2544POPC   C4A36054  26.270  15.818   7.634
 2544POPC   C1B36055  25.730  16.117   8.701
 2544POPC   C2B36056  25.804  16.198   8.239
 2544POPC   C3B36057  25.819  16.048   7.778
 2544POPC   C4B36058  25.950  16.067   7.313
 2545POPC   NC336059  30.048   7.037   9.422
 2545POPC   PO436060  29.808   7.726   9.364
 2545POPC   GL136061  29.951   7.430   9.102
 2545POPC   GL236062  29.670   7.197   9.079
 2545POPC   C1A36063  30.154   7.425   8.710
 2545POPC   D2A36064  30.264   7.688   8.353
 2545POPC   C3A36065  30.131   7.463   7.985
 2545POPC   C4A36066  30.066   7.037   7.845
 2545POPC   C1B36067  29.658   7.353   8.684
 2545POPC   C2B36068  29.838   7.173   8.339
 2545POPC   C3B36069  29.644   7.293   7.986
 2545POPC   C4B36070  29.816   7.352   7.557
 2546POPC   NC336071  36.928  17.957   9.209
 2546POPC   PO436072  37.183  18.459   9.603
 2546POPC   GL136073  37.079  18.673   9.200
 2546POPC   GL236074  36.813  18.451   9.074
 2546POPC   C1A36075  37.210  18.586   8.783
 2546POPC   D2A36076  37.040  18.259   8.537
 2546POPC   C3A36077  37.026  18.342   8.109
 2546POPC   C4A36078  37.019  18.193   7.684
 2546POPC   C1B36079  36.571  18.225   8.733
 2546POPC   C2B36080  36.554  18.263   8.328
 2546POPC   C3B36081  36.587  18.062   7.961
 2546POPC   C4B36082  36.529  18.355   7.706
 2547POPC   NC336083  15.648  25.655   9.547
 2547POPC   PO436084  15.787  26.383   9.653
 2547POPC   GL136085  15.812  26.273   9.194
 2547POPC   GL236086  15.961  25.972   9.285
 2547POPC   C1A36087  15.912  26.337   8.736
 2547POPC   D2A36088  15.648  26.354   8.322
 2547POPC   C3A36089  15.786  26.115   7.987
 2547POPC   C4A36090  15.549  25.732   7.949
 2547POPC   C1B36091  15.983  25.830   8.860
 2547POPC   C2B36092  16.047  25.916   8.407
 2547POPC   C3B36093  16.104  25.705   7.996
 2547POPC   C4B36094  16.428  25.547   7.725
 2548POPC   NC336095  11.181  29.448   9.546
 2548POPC   PO436096  10.971  28.965   9.373
 2548POPC   GL136097  11.130  29.258   9.065
 2548POPC   GL236098  10.968  29.556   9.047
 2548POPC   C1A36099  11.315  29.347   8.660
 2548POPC   D2A36100  11.242  29.179   8.261
 2548POPC   C3A36101  11.310  29.471   7.930
 2548POPC   C4A36102  11.704  29.499   7.700
 2548POPC   C1B36103  10.824  29.416   8.602
 2548POPC   C2B36104  10.811  29.401   8.119
 2548POPC   C3B36105  10.906  29.224   7.692
 2548POPC   C4B36106  10.842  29.220   7.218
 2549POPC   NC336107  35.448  38.941   9.407
 2549POPC   PO436108  35.104  38.325   9.483
 2549POPC   GL136109  35.309  38.525   9.145
 2549POPC   GL236110  35.649  38.443   9.070
 2549POPC   C1A36111  35.303  38.417   8.717
 2549POPC   D2A36112  35.166  38.639   8.399
 2549POPC   C3A36113  35.156  38.343   8.084
 2549POPC   C4A36114  35.310  38.410   7.707
 2549POPC   C1B36115  35.687  38.786   8.803
 2549POPC   C2B36116  35.809  38.750   8.401
 2549POPC   C3B36117  35.595  38.623   8.067
 2549POPC   C4B36118  35.414  38.906   7.754
 2550POPC   NC336119  17.111  24.853   9.341
 2550POPC   PO436120  16.541  24.493   9.394
 2550POPC   GL136121  16.615  24.717   9.062
 2550POPC   GL236122  16.889  24.542   8.974
 2550POPC   C1A36123  16.502  24.632   8.649
 2550POPC   D2A36124  16.775  24.491   8.338
 2550POPC   C3A36125  16.538  24.581   7.990
 2550POPC   C4A36126  16.555  24.636   7.527
 2550POPC   C1B36127  16.964  24.871   8.682
 2550POPC   C2B36128  17.144  24.876   8.296
 2550POPC   C3B36129  17.014  24.772   7.910
 2550POPC   C4B36130  16.941  24.384   7.730
 2551POPC   NC336131  38.038  38.268   9.667
 2551POPC   PO436132  37.563  38.764   9.475
 2551POPC   GL136133  37.477  38.471   9.158
 2551POPC   GL236134  37.827  38.353   9.194
 2551POPC   C1A36135  37.441  38.515   8.710
 2551POPC   D2A36136  37.717  38.518   8.343
 2551POPC   C3A36137  37.619  38.435   7.938
 2551POPC   C4A36138  37.493  38.175   7.557
 2551POPC   C1B36139  37.801  38.150   8.807
 2551POPC   C2B36140  37.891  38.039   8.414
 2551POPC   C3B36141  38.074  38.210   8.072
 2551POPC   C4B36142  38.010  38.290   7.662
 2552POPC   NC336143  11.089  36.972   9.278
 2552POPC   PO436144  11.291  37.406   9.775
 2552POPC   GL136145  11.211  37.560   9.318
 2552POPC   GL236146  10.853  37.702   9.241
 2552POPC   C1A36147  11.290  37.796   8.891
 2552POPC   D2A36148  11.447  38.063   8.505
 2552POPC   C3A36149  11.379  38.003   8.050
 2552POPC   C4A36150  11.318  37.760   7.677
 2552POPC   C1B36151  10.761  37.803   8.786
 2552POPC   C2B36152  10.846  37.922   8.352
 2552POPC   C3B36153  10.984  37.621   8.026
 2552POPC   C4B36154  10.981  37.334   7.663
 2553POPC   NC336155  41.620  33.385   9.453
 2553POPC   PO436156  41.169  33.890   9.539
 2553POPC   GL136157  41.384  33.746   9.205
 2553POPC   GL236158  41.176  33.491   9.153
 2553POPC   C1A36159  41.587  33.733   8.814
 2553POPC   D2A36160  41.622  34.044   8.471
 2553POPC   C3A36161  41.857  33.896   8.101
 2553POPC   C4A36162  41.741  33.919   7.663
 2553POPC   C1B36163  41.189  33.455   8.692
 2553POPC   C2B36164  41.442  33.585   8.336
 2553POPC   C3B36165  41.341  33.821   7.980
 2553POPC   C4B36166  41.416  33.533   7.665
 2554POPC   NC336167  43.320  20.907   9.431
 2554POPC   PO436168  42.771  20.448   9.430
 2554POPC   GL136169  42.958  20.726   9.123
 2554POPC   GL236170  43.226  20.469   9.133
 2554POPC   C1A36171  42.939  20.902   8.680
 2554POPC   D2A36172  42.748  20.584   8.358
 2554POPC   C3A36173  42.976  20.485   7.986
 2554POPC   C4A36174  43.251  20.690   7.703
 2554POPC   C1B36175  43.053  20.393   8.749
 2554POPC   C2B36176  43.270  20.594   8.437
 2554POPC   C3B36177  43.493  20.571   8.116
 2554POPC   C4B36178  43.573  20.273   7.800
 2555POPC   NC336179  30.016  30.065   9.794
 2555POPC   PO436180  29.440  29.880   9.530
 2555POPC   GL136181  29.763  29.969   9.197
 2555POPC   GL236182  30.072  30.152   9.295
 2555POPC   C1A36183  29.960  29.868   8.781
 2555POPC   D2A36184  29.764  29.796   8.356
 2555POPC   C3A36185  29.886  29.705   7.918
 2555POPC   C4A36186  30.195  29.722   7.570
 2555POPC   C1B36187  29.973  30.360   8.925
 2555POPC   C2B36188  29.829  30.277   8.502
 2555POPC   C3B36189  29.942  30.209   8.075
 2555POPC   C4B36190  29.914  30.132   7.623
 2556POPC   NC336191  22.502  22.104  10.052
 2556POPC   PO436192  22.096  22.262   9.672
 2556POPC   GL136193  22.261  22.270   9.206
 2556POPC   GL236194  22.484  22.008   9.079
 2556POPC   C1A36195  22.301  22.533   8.805
 2556POPC   D2A36196  22.315  22.469   8.323
 2556POPC   C3A36197  22.010  22.420   7.988
 2556POPC   C4A36198  22.218  22.258   7.625
 2556POPC   C1B36199  22.312  22.043   8.625
 2556POPC   C2B36200  22.264  21.987   8.134
 2556POPC   C3B36201  22.429  21.796   7.746
 2556POPC   C4B36202  22.357  21.832   7.296
 2557POPC   NC336203  23.349  22.541   9.697
 2557POPC   PO436204  22.975  23.144   9.535
 2557POPC   GL136205  22.803  23.196   9.146
 2557POPC   GL236206  22.615  22.891   9.161
 2557POPC   C1A36207  22.889  23.361   8.735
 2557POPC   D2A36208  22.702  23.228   8.391
 2557POPC   C3A36209  22.886  23.150   8.007
 2557POPC   C4A36210  22.988  22.802   7.836
 2557POPC   C1B36211  22.757  22.828   8.734
 2557POPC   C2B36212  22.770  22.680   8.303
 2557POPC   C3B36213  22.677  22.427   7.904
 2557POPC   C4B36214  22.731  22.621   7.445
 2558POPC   NC336215  43.928  19.212   9.593
 2558POPC   PO436216  44.427  18.750   9.769
 2558POPC   GL136217  44.088  18.750   9.370
 2558POPC   GL236218  43.784  18.965   9.193
 2558POPC   C1A36219  44.085  18.739   8.886
 2558POPC   D2A36220  43.796  18.870   8.549
 2558POPC   C3A36221  43.966  18.774   8.145
 2558POPC   C4A36222  44.181  19.051   7.862
 2558POPC   C1B36223  43.579  18.635   8.953
 2558POPC   C2B36224  43.427  18.500   8.550
 2558POPC   C3B36225  43.396  18.794   8.200
 2558POPC   C4B36226  43.586  18.914   7.810
 2559POPC   NC336227  40.142  23.249   9.265
 2559POPC   PO436228  40.507  22.735   9.313
 2559POPC   GL136229  40.314  22.838   8.969
 2559POPC   GL236230  39.956  22.847   9.003
 2559POPC   C1A36231  40.333  23.045   8.586
 2559POPC   D2A36232  40.096  22.975   8.212
 2559POPC   C3A36233  40.205  23.036   7.782
 2559POPC   C4A36234  39.987  22.849   7.426
 2559POPC   C1B36235  39.743  23.130   8.739
 2559POPC   C2B36236  39.596  23.390   8.428
 2559POPC   C3B36237  39.631  23.168   8.099
 2559POPC   C4B36238  39.715  23.179   7.722
 2560POPC   NC336239  34.683  17.840   9.869
 2560POPC   PO436240  34.601  18.394   9.503
 2560POPC   GL136241  34.492  18.300   9.124
 2560POPC   GL236242  34.625  17.974   9.157
 2560POPC   C1A36243  34.650  18.577   8.793
 2560POPC   D2A36244  34.811  18.598   8.360
 2560POPC   C3A36245  34.470  18.556   8.129
 2560POPC   C4A36246  34.401  18.284   7.798
 2560POPC   C1B36247  34.802  18.086   8.785
 2560POPC   C2B36248  34.550  18.163   8.473
 2560POPC   C3B36249  34.741  18.086   8.126
 2560POPC   C4B36250  34.901  17.947   7.755
 2561POPC   NC336251  30.654  13.080   9.495
 2561POPC   PO436252  30.798  13.681   9.611
 2561POPC   GL136253  30.603  13.789   9.196
 2561POPC   GL236254  30.283  13.662   9.333
 2561POPC   C1A36255  30.764  13.911   8.775
 2561POPC   D2A36256  30.674  13.872   8.339
 2561POPC   C3A36257  30.849  13.471   8.173
 2561POPC   C4A36258  30.807  13.296   7.766
 2561POPC   C1B36259  30.286  13.438   8.940
 2561POPC   C2B36260  30.479  13.442   8.546
 2561POPC   C3B36261  30.334  13.536   8.143
 2561POPC   C4B36262  30.157  13.489   7.773
 2562POPC   NC336263  38.868  38.800   9.835
 2562POPC   PO436264  38.404  39.203   9.476
 2562POPC   GL136265  38.433  39.219   9.089
 2562POPC   GL236266  38.500  39.595   9.120
 2562POPC   C1A36267  38.435  38.964   8.724
 2562POPC   D2A36268  38.657  39.091   8.379
 2562POPC   C3A36269  38.507  39.025   7.984
 2562POPC   C4A36270  38.602  39.293   7.656
 2562POPC   C1B36271  38.283  39.532   8.724
 2562POPC   C2B36272  38.210  39.624   8.323
 2562POPC   C3B36273  38.483  39.670   7.992
 2562POPC   C4B36274  38.491  39.804   7.577
 2563POPC   NC336275  43.761  29.290   9.344
 2563POPC   PO436276  44.251  28.868   9.640
 2563POPC   GL136277  44.096  28.966   9.163
 2563POPC   GL236278  43.772  28.800   9.081
 2563POPC   C1A36279  44.162  29.253   8.740
 2563POPC   D2A36280  44.012  29.453   8.299
 2563POPC   C3A36281  44.209  29.355   7.846
 2563POPC   C4A36282  44.069  29.063   7.478
 2563POPC   C1B36283  43.680  29.068   8.753
 2563POPC   C2B36284  43.749  28.958   8.371
 2563POPC   C3B36285  43.823  29.058   7.973
 2563POPC   C4B36286  43.572  29.110   7.635
 2564POPC   NC336287  11.804   2.633   9.448
 2564POPC   PO436288  11.212   2.931   9.539
 2564POPC   GL136289  11.255   2.776   9.149
 2564POPC   GL236290  11.576   2.903   9.065
 2564POPC   C1A36291  11.076   2.729   8.718
 2564POPC   D2A36292  10.957   2.955   8.372
 2564POPC   C3A36293  11.095   2.870   8.005
 2564POPC   C4A36294  11.087   2.784   7.611
 2564POPC   C1B36295  11.560   2.578   8.731
 2564POPC   C2B36296  11.372   2.548   8.303
 2564POPC   C3B36297  11.552   2.684   7.875
 2564POPC   C4B36298  11.714   3.056   7.605
 2565POPC   NC336299  38.288  23.061   9.573
 2565POPC   PO436300  38.805  22.680   9.475
 2565POPC   GL136301  38.538  22.853   9.152
 2565POPC   GL236302  38.270  23.105   9.083
 2565POPC   C1A36303  38.434  22.689   8.765
 2565POPC   D2A36304  38.615  22.532   8.415
 2565POPC   C3A36305  38.436  22.692   8.058
 2565POPC   C4A36306  38.631  22.610   7.657
 2565POPC   C1B36307  38.417  23.213   8.730
 2565POPC   C2B36308  38.236  23.056   8.398
 2565POPC   C3B36309  38.292  23.254   8.048
 2565POPC   C4B36310  38.485  23.084   7.744
 2566POPC   NC336311   8.002  32.149   9.383
 2566POPC   PO436312   7.343  32.128   9.391
 2566POPC   GL136313   7.293  32.313   9.032
 2566POPC   GL236314   7.587  32.520   9.016
 2566POPC   C1A36315   7.137  32.358   8.621
 2566POPC   D2A36316   7.384  32.476   8.256
 2566POPC   C3A36317   7.411  32.102   8.031
 2566POPC   C4A36318   7.400  31.957   7.594
 2566POPC   C1B36319   7.649  32.215   8.653
 2566POPC   C2B36320   7.881  32.162   8.258
 2566POPC   C3B36321   7.856  31.976   7.849
 2566POPC   C4B36322   7.664  32.386   7.708
 2567POPC   NC336323  39.243  32.620   9.882
 2567POPC   PO436324  38.895  33.200   9.612
 2567POPC   GL136325  39.023  32.877   9.278
 2567POPC   GL236326  38.854  32.987   9.020
 2567POPC   C1A36327  39.275  32.826   8.836
 2567POPC   D2A36328  39.375  33.066   8.460
 2567POPC   C3A36329  39.193  33.041   8.079
 2567POPC   C4A36330  39.111  32.879   7.678
 2567POPC   C1B36331  39.104  33.306   8.851
 2567POPC   C2B36332  39.123  33.501   8.500
 2567POPC   C3B36333  39.124  33.557   8.136
 2567POPC   C4B36334  39.101  33.431   7.756
 2568POPC   NC336335  42.080   7.763   9.414
 2568POPC   PO436336  42.582   7.362   9.554
 2568POPC   GL136337  42.436   7.386   9.159
 2568POPC   GL236338  42.455   7.020   9.142
 2568POPC   C1A36339  42.593   7.388   8.742
 2568POPC   D2A36340  42.441   7.488   8.389
 2568POPC   C3A36341  42.641   7.358   8.047
 2568POPC   C4A36342  42.519   7.390   7.669
 2568POPC   C1B36343  42.250   7.008   8.759
 2568POPC   C2B36344  42.063   7.170   8.383
 2568POPC   C3B36345  42.121   7.342   8.008
 2568POPC   C4B36346  42.059   7.167   7.626
 2569POPC   NC336347  15.423   8.768   9.717
 2569POPC   PO436348  15.760   9.172   9.493
 2569POPC   GL136349  15.670   9.035   9.057
 2569POPC   GL236350  15.493   8.748   9.161
 2569POPC   C1A36351  15.763   9.083   8.603
 2569POPC   D2A36352  15.610   9.331   8.254
 2569POPC   C3A36353  15.341   9.049   8.003
 2569POPC   C4A36354  15.404   8.837   7.629
 2569POPC   C1B36355  15.378   8.749   8.695
 2569POPC   C2B36356  15.307   8.607   8.249
 2569POPC   C3B36357  15.056   8.532   7.854
 2569POPC   C4B36358  15.085   8.502   7.389
 2570POPC   NC336359  28.814  34.155   9.556
 2570POPC   PO436360  29.183  34.808   9.476
 2570POPC   GL136361  29.042  34.757   9.084
 2570POPC   GL236362  29.144  34.437   9.123
 2570POPC   C1A36363  29.056  34.748   8.645
 2570POPC   D2A36364  28.893  34.555   8.290
 2570POPC   C3A36365  28.919  34.757   7.907
 2570POPC   C4A36366  29.085  35.034   7.600
 2570POPC   C1B36367  29.358  34.190   8.823
 2570POPC   C2B36368  29.312  34.012   8.431
 2570POPC   C3B36369  29.223  34.230   8.066
 2570POPC   C4B36370  29.103  34.344   7.675
 2571POPC   NC336371  31.643   0.486   9.512
 2571POPC   PO436372  30.987   0.522   9.652
 2571POPC   GL136373  31.245   0.619   9.244
 2571POPC   GL236374  31.428   0.292   9.109
 2571POPC   C1A36375  31.521   0.720   8.860
 2571POPC   D2A36376  31.660   0.764   8.442
 2571POPC   C3A36377  31.390   0.655   8.068
 2571POPC   C4A36378  31.354   0.594   7.613
 2571POPC   C1B36379  31.359   0.228   8.682
 2571POPC   C2B36380  31.356   0.064   8.269
 2571POPC   C3B36381  31.526   0.166   7.861
 2571POPC   C4B36382  31.700   0.229   7.442
 2572POPC   NC336383  20.060   8.196   9.666
 2572POPC   PO436384  19.449   8.003   9.787
 2572POPC   GL136385  19.604   8.255   9.403
 2572POPC   GL236386  19.345   8.232   9.148
 2572POPC   C1A36387  19.800   8.392   8.977
 2572POPC   D2A36388  19.966   8.308   8.568
 2572POPC   C3A36389  19.896   8.318   8.104
 2572POPC   C4A36390  19.977   8.032   7.751
 2572POPC   C1B36391  19.476   8.117   8.706
 2572POPC   C2B36392  19.491   8.013   8.249
 2572POPC   C3B36393  19.470   7.913   7.805
 2572POPC   C4B36394  19.596   7.980   7.381
 2573POPC   NC336395  42.066  19.452   9.835
 2573POPC   PO436396  42.692  19.661   9.513
 2573POPC   GL136397  42.607  19.306   9.130
 2573POPC   GL236398  42.358  19.017   9.122
 2573POPC   C1A36399  42.682  19.081   8.710
 2573POPC   D2A36400  42.551  19.177   8.256
 2573POPC   C3A36401  42.403  18.903   7.878
 2573POPC   C4A36402  42.560  18.878   7.417
 2573POPC   C1B36403  42.162  19.065   8.696
 2573POPC   C2B36404  42.048  19.067   8.246
 2573POPC   C3B36405  41.848  18.837   7.887
 2573POPC   C4B36406  42.047  18.909   7.484
 2574POPC   NC336407  38.034  23.856   9.319
 2574POPC   PO436408  37.405  23.912   9.471
 2574POPC   GL136409  37.612  23.681   9.107
 2574POPC   GL236410  37.827  23.389   9.181
 2574POPC   C1A36411  37.441  23.515   8.725
 2574POPC   D2A36412  37.526  23.707   8.337
 2574POPC   C3A36413  37.334  23.591   7.966
 2574POPC   C4A36414  37.351  23.899   7.646
 2574POPC   C1B36415  37.922  23.356   8.734
 2574POPC   C2B36416  37.784  23.269   8.299
 2574POPC   C3B36417  37.862  23.493   7.936
 2574POPC   C4B36418  37.781  23.901   7.924
 2575POPC   NC336419  12.551  12.522   9.493
 2575POPC   PO436420  11.996  12.126   9.474
 2575POPC   GL136421  11.884  12.346   9.104
 2575POPC   GL236422  12.149  12.091   8.980
 2575POPC   C1A36423  11.783  12.234   8.671
 2575POPC   D2A36424  12.103  12.061   8.419
 2575POPC   C3A36425  12.031  12.150   8.019
 2575POPC   C4A36426  12.163  11.949   7.637
 2575POPC   C1B36427  12.294  12.413   8.728
 2575POPC   C2B36428  12.372  12.552   8.299
 2575POPC   C3B36429  12.479  12.356   7.899
 2575POPC   C4B36430  12.492  12.274   7.458
 2576POPC   NC336431   3.591   1.704   9.816
 2576POPC   PO436432   3.720   2.201   9.397
 2576POPC   GL136433   3.413   2.000   9.154
 2576POPC   GL236434   3.659   1.840   8.992
 2576POPC   C1A36435   3.183   1.972   8.769
 2576POPC   D2A36436   3.400   1.930   8.404
 2576POPC   C3A36437   3.695   2.222   8.300
 2576POPC   C4A36438   3.644   2.170   7.881
 2576POPC   C1B36439   3.883   1.751   8.634
 2576POPC   C2B36440   3.847   1.737   8.189
 2576POPC   C3B36441   3.929   1.761   7.749
 2576POPC   C4B36442   3.932   1.581   7.332
 2577POPC   NC336443  23.645  43.315   9.516
 2577POPC   PO436444  24.024  42.813   9.589
 2577POPC   GL136445  23.760  42.888   9.240
 2577POPC   GL236446  23.998  43.177   9.193
 2577POPC   C1A36447  23.532  42.830   8.842
 2577POPC   D2A36448  23.800  42.902   8.502
 2577POPC   C3A36449  23.738  42.823   8.091
 2577POPC   C4A36450  23.661  43.189   7.857
 2577POPC   C1B36451  24.180  43.443   8.893
 2577POPC   C2B36452  24.079  43.456   8.467
 2577POPC   C3B36453  23.920  43.581   8.062
 2577POPC   C4B36454  24.042  43.534   7.644
 2578POPC   NC336455  42.250  42.765   9.560
 2578POPC   PO436456  42.529  42.139   9.547
 2578POPC   GL136457  42.352  42.298   9.162
 2578POPC   GL236458  42.605  42.364   8.952
 2578POPC   C1A36459  42.107  42.187   8.787
 2578POPC   D2A36460  42.296  42.319   8.438
 2578POPC   C3A36461  42.122  42.382   8.057
 2578POPC   C4A36462  42.526  42.419   7.846
 2578POPC   C1B36463  42.529  41.928   8.798
 2578POPC   C2B36464  42.278  41.819   8.412
 2578POPC   C3B36465  42.305  41.917   7.948
 2578POPC   C4B36466  42.350  41.830   7.481
 2579POPC   NC336467  10.755  43.715  10.012
 2579POPC   PO436468  10.567  44.041   9.477
 2579POPC   GL136469  10.425  43.909   9.093
 2579POPC   GL236470  10.312  43.612   9.225
 2579POPC   C1A36471  10.435  44.066   8.689
 2579POPC   D2A36472  10.607  44.074   8.279
 2579POPC   C3A36473  10.461  43.932   7.897
 2579POPC   C4A36474  10.486  43.523   7.776
 2579POPC   C1B36475  10.389  43.470   8.796
 2579POPC   C2B36476  10.206  43.472   8.365
 2579POPC   C3B36477  10.034  43.625   7.992
 2579POPC   C4B36478   9.946  44.008   7.838
 2580POPC   NC336479  34.022  35.882   9.579
 2580POPC   PO436480  33.400  36.206   9.567
 2580POPC   GL136481  33.668  36.117   9.230
 2580POPC   GL236482  33.763  35.780   9.149
 2580POPC   C1A36483  33.747  36.404   8.891
 2580POPC   D2A36484  33.848  36.540   8.470
 2580POPC   C3A36485  33.759  36.358   8.056
 2580POPC   C4A36486  33.962  36.305   7.677
 2580POPC   C1B36487  33.913  35.929   8.761
 2580POPC   C2B36488  33.721  35.867   8.348
 2580POPC   C3B36489  33.863  35.841   7.928
 2580POPC   C4B36490  34.082  35.847   7.546
 2581POPC   NC336491  13.707  35.661   9.576
 2581POPC   PO436492  13.450  36.319   9.475
 2581POPC   GL136493  13.577  36.334   9.118
 2581POPC   GL236494  13.679  35.989   9.137
 2581POPC   C1A36495  13.749  36.304   8.736
 2581POPC   D2A36496  13.756  36.096   8.368
 2581POPC   C3A36497  13.881  36.255   8.008
 2581POPC   C4A36498  13.573  36.321   7.705
 2581POPC   C1B36499  13.510  35.844   8.746
 2581POPC   C2B36500  13.589  35.607   8.390
 2581POPC   C3B36501  13.548  35.801   7.999
 2581POPC   C4B36502  13.293  35.770   7.663
 2582POPC   NC336503  15.019  20.487   9.561
 2582POPC   PO436504  15.587  20.644   9.545
 2582POPC   GL136505  15.332  20.637   9.153
 2582POPC   GL236506  15.517  20.454   8.906
 2582POPC   C1A36507  14.951  20.560   8.854
 2582POPC   D2A36508  14.887  20.349   8.425
 2582POPC   C3A36509  14.756  20.526   8.002
 2582POPC   C4A36510  14.882  20.576   7.577
 2582POPC   C1B36511  15.337  20.711   8.568
 2582POPC   C2B36512  15.227  20.658   8.147
 2582POPC   C3B36513  15.167  20.943   7.823
 2582POPC   C4B36514  15.424  21.187   7.516
 2583POPC   NC336515   3.697  30.592   9.444
 2583POPC   PO436516   3.097  30.923   9.360
 2583POPC   GL136517   3.415  30.780   9.080
 2583POPC   GL236518   3.741  30.956   9.083
 2583POPC   C1A36519   3.553  30.686   8.670
 2583POPC   D2A36520   3.263  30.690   8.328
 2583POPC   C3A36521   3.323  30.526   7.904
 2583POPC   C4A36522   3.206  30.547   7.434
 2583POPC   C1B36523   3.855  31.101   8.683
 2583POPC   C2B36524   3.774  30.965   8.290
 2583POPC   C3B36525   3.846  30.903   7.893
 2583POPC   C4B36526   3.859  31.085   7.511
 2584POPC   NC336527  42.394  35.354   9.532
 2584POPC   PO436528  42.633  34.948   9.082
 2584POPC   GL136529  42.599  35.422   9.056
 2584POPC   GL236530  42.277  35.599   9.084
 2584POPC   C1A36531  42.535  35.551   8.635
 2584POPC   D2A36532  42.384  35.271   8.345
 2584POPC   C3A36533  42.569  35.274   7.969
 2584POPC   C4A36534  42.768  35.036   7.706
 2584POPC   C1B36535  41.986  35.710   8.758
 2584POPC   C2B36536  41.945  35.512   8.341
 2584POPC   C3B36537  41.988  35.652   7.906
 2584POPC   C4B36538  42.286  35.488   7.608
 2585POPC   NC336539  10.881   0.241   9.577
 2585POPC   PO436540  10.240   0.453   9.512
 2585POPC   GL136541  10.560   0.433   9.237
 2585POPC   GL236542  10.508   0.093   9.170
 2585POPC   C1A36543  10.615   0.430   8.811
 2585POPC   D2A36544  10.726   0.266   8.433
 2585POPC   C3A36545  10.408   0.404   8.120
 2585POPC   C4A36546  10.701   0.529   7.783
 2585POPC   C1B36547  10.264   0.054   8.763
 2585POPC   C2B36548  10.392  44.904   8.346
 2585POPC   C3B36549  10.649   0.007   7.958
 2585POPC   C4B36550  10.404   0.144   7.627
 2586POPC   NC336551  33.517  36.692   9.563
 2586POPC   PO436552  34.058  37.043   9.646
 2586POPC   GL136553  33.936  36.953   9.229
 2586POPC   GL236554  33.638  37.145   9.248
 2586POPC   C1A36555  33.992  36.969   8.764
 2586POPC   D2A36556  34.114  36.925   8.302
 2586POPC   C3A36557  33.845  37.026   7.974
 2586POPC   C4A36558  33.706  36.741   7.669
 2586POPC   C1B36559  33.464  37.079   8.853
 2586POPC   C2B36560  33.603  37.084   8.443
 2586POPC   C3B36561  33.446  36.772   8.170
 2586POPC   C4B36562  33.326  37.030   7.847
 2587POPC   NC336563  33.608   6.568   9.744
 2587POPC   PO436564  34.010   7.036   9.451
 2587POPC   GL136565  33.938   6.705   9.150
 2587POPC   GL236566  33.620   6.505   9.197
 2587POPC   C1A36567  33.825   6.774   8.749
 2587POPC   D2A36568  33.511   6.761   8.494
 2587POPC   C3A36569  33.687   6.713   8.111
 2587POPC   C4A36570  33.581   6.756   7.733
 2587POPC   C1B36571  33.555   6.290   8.811
 2587POPC   C2B36572  33.417   6.275   8.400
 2587POPC   C3B36573  33.420   6.280   7.980
 2587POPC   C4B36574  33.616   6.270   7.610
 2588POPC   NC336575  29.670  36.016   9.407
 2588POPC   PO436576  30.376  36.120   9.493
 2588POPC   GL136577  30.120  36.060   9.174
 2588POPC   GL236578  29.986  36.366   9.118
 2588POPC   C1A36579  30.130  36.052   8.747
 2588POPC   D2A36580  30.319  36.040   8.375
 2588POPC   C3A36581  30.000  36.086   8.084
 2588POPC   C4A36582  30.032  36.039   7.657
 2588POPC   C1B36583  29.706  36.364   8.772
 2588POPC   C2B36584  29.742  36.496   8.363
 2588POPC   C3B36585  29.671  36.510   7.963
 2588POPC   C4B36586  29.559  36.131   7.763
 2589POPC   NC336587  22.549  25.211   9.486
 2589POPC   PO436588  23.239  25.442   9.541
 2589POPC   GL136589  22.992  25.267   9.199
 2589POPC   GL236590  22.703  25.470   9.094
 2589POPC   C1A36591  22.920  25.164   8.749
 2589POPC   D2A36592  22.743  25.335   8.359
 2589POPC   C3A36593  22.890  25.051   8.051
 2589POPC   C4A36594  23.088  25.072   7.668
 2589POPC   C1B36595  22.846  25.683   8.734
 2589POPC   C2B36596  23.064  25.751   8.354
 2589POPC   C3B36597  23.102  25.523   7.976
 2589POPC   C4B36598  22.731  25.449   7.724
 2590POPC   NC336599  18.526  35.457   9.445
 2590POPC   PO436600  17.864  35.211   9.355
 2590POPC   GL136601  18.072  35.380   9.066
 2590POPC   GL236602  18.305  35.134   9.103
 2590POPC   C1A36603  17.997  35.241   8.643
 2590POPC   D2A36604  17.959  35.097   8.192
 2590POPC   C3A36605  17.991  35.361   7.840
 2590POPC   C4A36606  18.326  35.533   7.566
 2590POPC   C1B36607  18.481  35.352   8.743
 2590POPC   C2B36608  18.409  35.317   8.285
 2590POPC   C3B36609  18.432  35.101   7.876
 2590POPC   C4B36610  18.759  35.179   7.536
 2591POPC   NC336611  10.514  22.362   9.594
 2591POPC   PO436612  10.622  21.695   9.368
 2591POPC   GL136613  10.483  22.060   9.177
 2591POPC   GL236614  10.760  22.310   9.161
 2591POPC   C1A36615  10.420  22.206   8.764
 2591POPC   D2A36616  10.632  22.205   8.394
 2591POPC   C3A36617  10.430  22.011   8.074
 2591POPC   C4A36618  10.289  22.261   7.749
 2591POPC   C1B36619  10.919  22.022   8.870
 2591POPC   C2B36620  11.103  22.047   8.493
 2591POPC   C3B36621  10.946  21.923   8.098
 2591POPC   C4B36622  10.795  22.088   7.695
 2592POPC   NC336623  13.724  19.064   9.694
 2592POPC   PO436624  13.897  19.616   9.526
 2592POPC   GL136625  13.711  19.256   9.211
 2592POPC   GL236626  13.678  18.914   9.019
 2592POPC   C1A36627  13.597  19.339   8.761
 2592POPC   D2A36628  13.502  19.483   8.329
 2592POPC   C3A36629  13.799  19.327   7.972
 2592POPC   C4A36630  14.037  19.133   7.602
 2592POPC   C1B36631  13.319  18.748   8.761
 2592POPC   C2B36632  13.093  18.715   8.360
 2592POPC   C3B36633  13.318  18.846   8.017
 2592POPC   C4B36634  13.668  18.826   7.751
 2593POPC   NC336635  16.224  40.910   9.522
 2593POPC   PO436636  15.708  40.489   9.478
 2593POPC   GL136637  15.928  40.662   9.126
 2593POPC   GL236638  15.903  41.020   9.153
 2593POPC   C1A36639  15.870  40.805   8.694
 2593POPC   D2A36640  15.569  40.960   8.424
 2593POPC   C3A36641  15.639  40.704   8.087
 2593POPC   C4A36642  15.992  40.819   7.869
 2593POPC   C1B36643  16.248  41.114   8.838
 2593POPC   C2B36644  16.292  41.004   8.383
 2593POPC   C3B36645  16.257  41.253   7.999
 2593POPC   C4B36646  16.204  41.164   7.546
 2594POPC   NC336647   9.488  14.941   9.670
 2594POPC   PO436648  10.231  14.897   9.614
 2594POPC   GL136649  10.023  15.019   9.220
 2594POPC   GL236650   9.677  15.015   9.210
 2594POPC   C1A36651   9.957  15.071   8.762
 2594POPC   D2A36652   9.807  14.870   8.380
 2594POPC   C3A36653   9.958  14.961   7.968
 2594POPC   C4A36654  10.075  15.293   7.670
 2594POPC   C1B36655   9.384  14.906   8.898
 2594POPC   C2B36656   9.231  15.060   8.523
 2594POPC   C3B36657   9.407  15.018   8.106
 2594POPC   C4B36658   9.565  15.171   7.731
 2595POPC   NC336659  17.308  43.679   9.443
 2595POPC   PO436660  17.666  44.254   9.525
 2595POPC   GL136661  17.506  44.115   9.131
 2595POPC   GL236662  17.702  43.810   9.133
 2595POPC   C1A36663  17.293  43.869   8.786
 2595POPC   D2A36664  17.276  43.526   8.446
 2595POPC   C3A36665  17.304  43.768   8.068
 2595POPC   C4A36666  17.570  44.148   8.072
 2595POPC   C1B36667  17.801  43.761   8.703
 2595POPC   C2B36668  17.974  43.873   8.323
 2595POPC   C3B36669  17.805  43.715   7.956
 2595POPC   C4B36670  17.568  43.796   7.596
 2596POPC   NC336671  38.656  19.215   9.803
 2596POPC   PO436672  39.253  19.249   9.624
 2596POPC   GL136673  39.212  19.175   9.206
 2596POPC   GL236674  38.967  19.399   9.142
 2596POPC   C1A36675  39.181  18.936   8.828
 2596POPC   D2A36676  39.054  19.024   8.400
 2596POPC   C3A36677  39.326  18.987   8.039
 2596POPC   C4A36678  39.094  18.919   7.661
 2596POPC   C1B36679  39.156  19.436   8.725
 2596POPC   C2B36680  39.154  19.524   8.302
 2596POPC   C3B36681  39.474  19.604   8.039
 2596POPC   C4B36682  39.327  19.440   7.704
 2597POPC   NC336683   5.021  12.158   9.467
 2597POPC   PO436684   5.459  11.659   9.702
 2597POPC   GL136685   5.288  11.804   9.182
 2597POPC   GL236686   5.295  12.189   8.997
 2597POPC   C1A36687   5.093  11.821   8.731
 2597POPC   D2A36688   5.180  12.104   8.356
 2597POPC   C3A36689   5.049  11.898   7.954
 2597POPC   C4A36690   5.143  11.723   7.532
 2597POPC   C1B36691   4.915  12.323   8.756
 2597POPC   C2B36692   4.716  12.309   8.320
 2597POPC   C3B36693   4.871  12.387   7.907
 2597POPC   C4B36694   4.899  12.145   7.493
 2598POPC   NC336695  33.501  34.765   9.319
 2598POPC   PO436696  33.790  35.405   9.512
 2598POPC   GL136697  33.714  35.235   9.106
 2598POPC   GL236698  33.931  34.940   9.089
 2598POPC   C1A36699  33.750  35.426   8.690
 2598POPC   D2A36700  34.003  35.399   8.290
 2598POPC   C3A36701  33.736  35.339   7.927
 2598POPC   C4A36702  33.389  35.598   7.933
 2598POPC   C1B36703  34.152  35.095   8.710
 2598POPC   C2B36704  34.173  34.911   8.288
 2598POPC   C3B36705  34.146  35.039   7.861
 2598POPC   C4B36706  34.098  35.325   7.460
 2599POPC   NC336707   9.917   3.303   9.492
 2599POPC   PO436708   9.546   3.881   9.362
 2599POPC   GL136709   9.519   3.548   9.103
 2599POPC   GL236710   9.431   3.244   9.239
 2599POPC   C1A36711   9.660   3.464   8.692
 2599POPC   D2A36712   9.939   3.643   8.386
 2599POPC   C3A36713   9.847   3.521   7.972
 2599POPC   C4A36714   9.509   3.610   7.706
 2599POPC   C1B36715   9.359   3.066   8.800
 2599POPC   C2B36716   9.550   3.124   8.320
 2599POPC   C3B36717   9.542   3.117   7.866
 2599POPC   C4B36718   9.816   3.233   7.519
 2600POPC   NC336719  19.585  37.184   9.459
 2600POPC   PO436720  20.050  36.657   9.548
 2600POPC   GL136721  19.719  36.778   9.182
 2600POPC   GL236722  19.731  37.130   8.975
 2600POPC   C1A36723  19.731  36.699   8.735
 2600POPC   D2A36724  19.905  36.545   8.352
 2600POPC   C3A36725  19.740  36.707   7.991
 2600POPC   C4A36726  19.813  36.637   7.608
 2600POPC   C1B36727  20.074  37.125   8.650
 2600POPC   C2B36728  20.216  36.924   8.247
 2600POPC   C3B36729  20.136  37.013   7.807
 2600POPC   C4B36730  19.841  37.125   7.475
 2601POPC   NC336731   3.549   6.118   9.549
 2601POPC   PO436732   3.006   5.734   9.447
 2601POPC   GL136733   3.396   5.746   9.184
 2601POPC   GL236734   3.755   5.885   9.145
 2601POPC   C1A36735   3.410   5.894   8.764
 2601POPC   D2A36736   3.138   5.881   8.413
 2601POPC   C3A36737   3.382   6.004   8.068
 2601POPC   C4A36738   3.498   5.814   7.683
 2601POPC   C1B36739   3.782   5.536   8.850
 2601POPC   C2B36740   3.528   5.481   8.469
 2601POPC   C3B36741   3.682   5.468   8.074
 2601POPC   C4B36742   3.936   5.443   7.717
 2602POPC   NC336743  32.331  21.096   9.496
 2602POPC   PO436744  32.357  21.763   9.308
 2602POPC   GL136745  32.419  21.381   9.059
 2602POPC   GL236746  32.117  21.184   9.050
 2602POPC   C1A36747  32.553  21.175   8.652
 2602POPC   D2A36748  32.574  21.182   8.172
 2602POPC   C3A36749  32.442  21.524   7.876
 2602POPC   C4A36750  32.455  21.566   7.410
 2602POPC   C1B36751  32.005  21.145   8.647
 2602POPC   C2B36752  32.101  20.943   8.278
 2602POPC   C3B36753  32.097  21.103   7.900
 2602POPC   C4B36754  32.003  21.391   7.603
 2603POPC   NC336755  18.728  11.227   9.448
 2603POPC   PO436756  19.382  11.157   9.423
 2603POPC   GL136757  19.094  11.289   9.096
 2603POPC   GL236758  18.789  11.062   8.979
 2603POPC   C1A36759  18.955  11.497   8.749
 2603POPC   D2A36760  19.135  11.423   8.365
 2603POPC   C3A36761  19.117  11.505   7.954
 2603POPC   C4A36762  19.380  11.157   7.875
 2603POPC   C1B36763  19.087  10.988   8.647
 2603POPC   C2B36764  19.121  10.867   8.240
 2603POPC   C3B36765  18.874  11.037   7.917
 2603POPC   C4B36766  18.979  11.227   7.532
 2604POPC   NC336767  40.964  29.008   9.296
 2604POPC   PO436768  41.686  29.170   9.439
 2604POPC   GL136769  41.681  29.022   9.068
 2604POPC   GL236770  41.342  29.047   8.948
 2604POPC   C1A36771  41.791  29.355   8.783
 2604POPC   D2A36772  41.497  29.535   8.484
 2604POPC   C3A36773  41.610  29.385   8.073
 2604POPC   C4A36774  41.398  29.390   7.665
 2604POPC   C1B36775  41.516  29.014   8.535
 2604POPC   C2B36776  41.456  28.865   8.168
 2604POPC   C3B36777  41.349  28.885   7.768
 2604POPC   C4B36778  41.570  28.947   7.392
 2605POPC   NC336779  41.162  21.037   9.711
 2605POPC   PO436780  40.647  21.435   9.604
 2605POPC   GL136781  40.680  21.339   9.221
 2605POPC   GL236782  40.431  21.612   9.140
 2605POPC   C1A36783  40.919  21.176   8.886
 2605POPC   D2A36784  40.761  21.302   8.503
 2605POPC   C3A36785  40.995  21.421   8.176
 2605POPC   C4A36786  40.876  21.145   7.857
 2605POPC   C1B36787  40.766  21.692   8.862
 2605POPC   C2B36788  40.709  21.819   8.472
 2605POPC   C3B36789  40.557  21.735   8.105
 2605POPC   C4B36790  40.737  21.640   7.767
 2606POPC   NC336791  14.408  42.358   9.428
 2606POPC   PO436792  15.028  42.716   9.388
 2606POPC   GL136793  14.676  42.634   9.038
 2606POPC   GL236794  14.287  42.655   9.002
 2606POPC   C1A36795  14.514  42.277   8.748
 2606POPC   D2A36796  14.674  42.061   8.375
 2606POPC   C3A36797  14.781  42.285   7.984
 2606POPC   C4A36798  14.570  42.628   7.767
 2606POPC   C1B36799  14.366  42.734   8.580
 2606POPC   C2B36800  14.383  42.481   8.237
 2606POPC   C3B36801  14.240  42.237   7.888
 2606POPC   C4B36802  13.812  42.231   7.764
 2607POPC   NC336803  14.034  32.490   9.482
 2607POPC   PO436804  14.578  32.116   9.463
 2607POPC   GL136805  14.343  32.059   9.126
 2607POPC   GL236806  14.332  32.410   9.058
 2607POPC   C1A36807  14.472  31.850   8.776
 2607POPC   D2A36808  14.612  31.972   8.387
 2607POPC   C3A36809  14.313  31.992   8.072
 2607POPC   C4A36810  14.515  32.083   7.725
 2607POPC   C1B36811  14.082  32.664   8.782
 2607POPC   C2B36812  13.932  32.526   8.360
 2607POPC   C3B36813  14.199  32.508   7.984
 2607POPC   C4B36814  14.323  32.508   7.554
 2608POPC   NC336815  39.678  31.771   9.580
 2608POPC   PO436816  39.062  31.418   9.561
 2608POPC   GL136817  39.147  31.263   9.204
 2608POPC   GL236818  38.878  31.098   9.146
 2608POPC   C1A36819  39.402  31.278   8.863
 2608POPC   D2A36820  39.283  31.540   8.531
 2608POPC   C3A36821  39.293  31.417   8.091
 2608POPC   C4A36822  39.438  31.659   7.742
 2608POPC   C1B36823  38.894  31.226   8.721
 2608POPC   C2B36824  38.893  31.078   8.304
 2608POPC   C3B36825  38.858  31.187   7.884
 2608POPC   C4B36826  39.213  31.200   7.610
 2609POPC   NC336827  28.925   0.913   9.786
 2609POPC   PO436828  29.048   0.348   9.380
 2609POPC   GL136829  28.984   0.470   8.955
 2609POPC   GL236830  29.321   0.440   8.962
 2609POPC   C1A36831  28.813   0.583   8.542
 2609POPC   D2A36832  28.729   0.342   8.137
 2609POPC   C3A36833  28.950   0.486   7.754
 2609POPC   C4A36834  28.934   0.521   7.285
 2609POPC   C1B36835  29.232   0.249   8.590
 2609POPC   C2B36836  29.215   0.459   8.238
 2609POPC   C3B36837  29.390   0.275   7.945
 2609POPC   C4B36838  29.392   0.236   7.561
 2610POPC   NC336839  15.692  34.579   9.418
 2610POPC   PO436840  16.345  34.710   9.523
 2610POPC   GL136841  16.097  34.756   9.169
 2610POPC   GL236842  16.079  34.393   9.162
 2610POPC   C1A36843  15.867  34.720   8.776
 2610POPC   D2A36844  16.057  34.813   8.369
 2610POPC   C3A36845  15.793  34.703   8.030
 2610POPC   C4A36846  15.715  34.878   7.621
 2610POPC   C1B36847  15.869  34.212   8.818
 2610POPC   C2B36848  15.886  34.315   8.407
 2610POPC   C3B36849  15.641  34.196   8.061
 2610POPC   C4B36850  15.516  34.395   7.691
 2611POPC   NC336851  41.277  38.868   9.725
 2611POPC   PO436852  41.592  39.400   9.499
 2611POPC   GL136853  41.677  39.293   9.095
 2611POPC   GL236854  41.651  38.972   9.099
 2611POPC   C1A36855  41.527  39.216   8.677
 2611POPC   D2A36856  41.598  38.995   8.309
 2611POPC   C3A36857  41.606  39.227   7.955
 2611POPC   C4A36858  41.266  39.071   7.770
 2611POPC   C1B36859  42.041  39.066   8.809
 2611POPC   C2B36860  42.111  38.978   8.349
 2611POPC   C3B36861  42.024  38.928   7.884
 2611POPC   C4B36862  41.705  38.990   7.496
 2612POPC   NC336863  19.134   7.866   9.481
 2612POPC   PO436864  18.737   7.302   9.440
 2612POPC   GL136865  18.662   7.303   9.002
 2612POPC   GL236866  18.991   7.288   8.908
 2612POPC   C1A36867  18.677   7.564   8.563
 2612POPC   D2A36868  18.993   7.702   8.248
 2612POPC   C3A36869  18.990   7.613   7.797
 2612POPC   C4A36870  19.278   7.414   7.485
 2612POPC   C1B36871  18.807   7.063   8.554
 2612POPC   C2B36872  18.803   7.200   8.137
 2612POPC   C3B36873  18.972   7.090   7.726
 2612POPC   C4B36874  18.991   6.952   7.273
 2613POPC   NC336875   4.337  29.590   9.692
 2613POPC   PO436876   3.730  29.441   9.493
 2613POPC   GL136877   4.075  29.207   9.239
 2613POPC   GL236878   4.428  29.332   9.243
 2613POPC   C1A36879   4.188  29.005   8.801
 2613POPC   D2A36880   4.306  29.104   8.353
 2613POPC   C3A36881   4.285  28.967   7.879
 2613POPC   C4A36882   4.570  28.901   7.508
 2613POPC   C1B36883   4.362  29.495   8.845
 2613POPC   C2B36884   4.447  29.627   8.437
 2613POPC   C3B36885   4.440  29.454   8.004
 2613POPC   C4B36886   4.445  29.396   7.553
 2614POPC   NC336887  16.579   9.966   9.438
 2614POPC   PO436888  16.357   9.535   9.917
 2614POPC   GL136889  16.414   9.484   9.385
 2614POPC   GL236890  16.787   9.522   9.268
 2614POPC   C1A36891  16.473   9.655   8.886
 2614POPC   D2A36892  16.647   9.824   8.491
 2614POPC   C3A36893  16.483   9.799   8.069
 2614POPC   C4A36894  16.456   9.608   7.694
 2614POPC   C1B36895  17.006   9.694   8.879
 2614POPC   C2B36896  17.150   9.855   8.454
 2614POPC   C3B36897  16.995   9.761   8.041
 2614POPC   C4B36898  16.833  10.020   7.717
 2615POPC   NC336899  17.586  31.252   9.562
 2615POPC   PO436900  17.458  31.901   9.401
 2615POPC   GL136901  17.270  31.644   9.120
 2615POPC   GL236902  17.459  31.342   9.092
 2615POPC   C1A36903  17.301  31.680   8.683
 2615POPC   D2A36904  17.559  31.877   8.387
 2615POPC   C3A36905  17.601  31.596   8.049
 2615POPC   C4A36906  17.281  31.566   7.759
 2615POPC   C1B36907  17.390  31.158   8.727
 2615POPC   C2B36908  17.618  31.159   8.380
 2615POPC   C3B36909  17.478  31.099   7.995
 2615POPC   C4B36910  17.168  31.073   7.717
 2616POPC   NC336911  30.812  20.642   9.601
 2616POPC   PO436912  30.447  20.329   9.262
 2616POPC   GL136913  30.740  20.593   9.089
 2616POPC   GL236914  31.050  20.401   9.174
 2616POPC   C1A36915  30.724  20.698   8.671
 2616POPC   D2A36916  30.509  20.921   8.344
 2616POPC   C3A36917  30.610  20.726   7.988
 2616POPC   C4A36918  30.404  20.586   7.635
 2616POPC   C1B36919  30.991  20.267   8.726
 2616POPC   C2B36920  30.973  20.417   8.271
 2616POPC   C3B36921  30.826  20.275   7.840
 2616POPC   C4B36922  30.824  20.416   7.401
 2617POPC   NC336923  28.768  14.689   9.487
 2617POPC   PO436924  29.507  14.649   9.482
 2617POPC   GL136925  29.315  14.375   9.180
 2617POPC   GL236926  28.973  14.325   9.206
 2617POPC   C1A36927  29.215  14.277   8.753
 2617POPC   D2A36928  29.250  14.495   8.356
 2617POPC   C3A36929  29.256  14.205   8.058
 2617POPC   C4A36930  29.434  14.083   7.678
 2617POPC   C1B36931  28.711  14.377   8.835
 2617POPC   C2B36932  28.787  14.183   8.435
 2617POPC   C3B36933  28.768  14.363   8.044
 2617POPC   C4B36934  29.011  14.516   7.701
 2618POPC   NC336935  28.423  42.794   9.468
 2618POPC   PO436936  28.711  42.206   9.661
 2618POPC   GL136937  28.537  42.249   9.227
 2618POPC   GL236938  28.236  42.040   9.159
 2618POPC   C1A36939  28.325  42.408   8.820
 2618POPC   D2A36940  28.100  42.426   8.426
 2618POPC   C3A36941  28.300  42.648   8.065
 2618POPC   C4A36942  28.148  42.523   7.676
 2618POPC   C1B36943  28.472  41.893   8.813
 2618POPC   C2B36944  28.304  41.932   8.406
 2618POPC   C3B36945  28.316  42.146   8.033
 2618POPC   C4B36946  28.545  42.210   7.631
 2619POPC   NC336947  22.485  29.166   9.480
 2619POPC   PO436948  21.893  28.855   9.553
 2619POPC   GL136949  22.155  28.905   9.203
 2619POPC   GL236950  22.534  28.772   9.186
 2619POPC   C1A36951  22.160  29.128   8.820
 2619POPC   D2A36952  22.229  28.975   8.404
 2619POPC   C3A36953  22.137  29.219   8.014
 2619POPC   C4A36954  21.783  29.324   7.725
 2619POPC   C1B36955  22.661  28.959   8.803
 2619POPC   C2B36956  22.706  28.755   8.410
 2619POPC   C3B36957  22.596  28.872   7.994
 2619POPC   C4B36958  22.281  28.895   7.645
 2620POPC   NC336959  23.248  23.474   9.377
 2620POPC   PO436960  23.891  23.541   9.469
 2620POPC   GL136961  23.647  23.691   9.118
 2620POPC   GL236962  23.602  23.333   9.043
 2620POPC   C1A36963  23.699  23.900   8.702
 2620POPC   D2A36964  23.920  23.975   8.284
 2620POPC   C3A36965  23.646  23.949   7.896
 2620POPC   C4A36966  23.639  23.756   7.487
 2620POPC   C1B36967  23.471  23.367   8.638
 2620POPC   C2B36968  23.608  23.572   8.275
 2620POPC   C3B36969  23.741  23.434   7.893
 2620POPC   C4B36970  23.550  23.240   7.520
 2621POPC   NC336971   4.215  38.056   9.547
 2621POPC   PO436972   4.536  37.457   9.532
 2621POPC   GL136973   4.309  37.646   9.242
 2621POPC   GL236974   4.574  37.890   9.228
 2621POPC   C1A36975   4.120  37.846   8.877
 2621POPC   D2A36976   3.937  38.005   8.471
 2621POPC   C3A36977   3.964  37.784   8.082
 2621POPC   C4A36978   4.244  37.790   7.724
 2621POPC   C1B36979   4.563  38.120   8.878
 2621POPC   C2B36980   4.445  38.017   8.488
 2621POPC   C3B36981   4.561  37.955   8.101
 2621POPC   C4B36982   4.617  38.164   7.731
 2622POPC   NC336983  19.680  24.975   9.539
 2622POPC   PO436984  20.009  24.401   9.514
 2622POPC   GL136985  19.810  24.603   9.183
 2622POPC   GL236986  20.124  24.764   9.126
 2622POPC   C1A36987  19.725  24.405   8.787
 2622POPC   D2A36988  19.501  24.404   8.375
 2622POPC   C3A36989  19.735  24.423   7.981
 2622POPC   C4A36990  19.691  24.574   7.566
 2622POPC   C1B36991  19.994  24.884   8.750
 2622POPC   C2B36992  19.978  24.636   8.398
 2622POPC   C3B36993  20.096  24.778   8.009
 2622POPC   C4B36994  20.213  24.666   7.625
 2623POPC   NC336995  33.827   8.683   9.493
 2623POPC   PO436996  33.473   9.269   9.555
 2623POPC   GL136997  33.699   9.096   9.169
 2623POPC   GL236998  33.836   8.794   9.009
 2623POPC   C1A36999  33.849   9.223   8.746
 2623POPC   D2A37000  34.057   9.130   8.368
 2623POPC   C3A37001  33.734   9.280   8.113
 2623POPC   C4A37002  33.428   9.117   7.854
 2623POPC   C1B37003  34.035   8.630   8.625
 2623POPC   C2B37004  34.028   8.592   8.175
 2623POPC   C3B37005  34.006   8.871   7.862
 2623POPC   C4B37006  34.177   9.281   7.870
 2624POPC   NC337007   5.386  29.285   9.557
 2624POPC   PO437008   4.765  29.532   9.582
 2624POPC   GL137009   4.960  29.316   9.236
 2624POPC   GL237010   5.272  29.495   9.111
 2624POPC   C1A37011   4.760  29.115   8.884
 2624POPC   D2A37012   4.778  29.224   8.457
 2624POPC   C3A37013   4.763  29.029   8.073
 2624POPC   C4A37014   5.019  29.000   7.726
 2624POPC   C1B37015   5.249  29.241   8.749
 2624POPC   C2B37016   5.254  29.094   8.288
 2624POPC   C3B37017   5.479  29.123   7.879
 2624POPC   C4B37018   5.471  28.820   7.506
 2625POPC   NC337019  44.269  20.655   9.618
 2625POPC   PO437020  43.597  20.518   9.468
 2625POPC   GL137021  43.873  20.627   9.098
 2625POPC   GL237022  43.955  20.278   9.105
 2625POPC   C1A37023  43.876  20.743   8.600
 2625POPC   D2A37024  44.131  21.000   8.305
 2625POPC   C3A37025  44.121  20.862   7.849
 2625POPC   C4A37026  43.785  20.689   7.601
 2625POPC   C1B37027  43.613  20.332   8.791
 2625POPC   C2B37028  43.784  20.267   8.408
 2625POPC   C3B37029  43.974  20.447   8.081
 2625POPC   C4B37030  44.176  20.323   7.722
 2626POPC   NC337031  43.241  28.330   9.544
 2626POPC   PO437032  42.702  28.009   9.232
 2626POPC   GL137033  42.962  28.359   9.067
 2626POPC   GL237034  43.309  28.489   9.065
 2626POPC   C1A37035  42.863  28.464   8.677
 2626POPC   D2A37036  42.949  28.214   8.307
 2626POPC   C3A37037  42.924  28.422   7.931
 2626POPC   C4A37038  42.667  28.446   7.592
 2626POPC   C1B37039  43.297  28.735   8.709
 2626POPC   C2B37040  43.080  28.743   8.320
 2626POPC   C3B37041  43.337  28.816   7.998
 2626POPC   C4B37042  43.415  28.454   7.771
 2627POPC   NC337043  28.149   3.598   9.891
 2627POPC   PO437044  28.616   3.561   9.405
 2627POPC   GL137045  28.604   3.557   9.007
 2627POPC   GL237046  28.276   3.714   9.016
 2627POPC   C1A37047  28.620   3.719   8.593
 2627POPC   D2A37048  28.480   3.861   8.181
 2627POPC   C3A37049  28.278   3.586   7.901
 2627POPC   C4A37050  28.383   3.513   7.461
 2627POPC   C1B37051  28.250   3.342   8.702
 2627POPC   C2B37052  28.221   3.225   8.262
 2627POPC   C3B37053  27.876   3.175   7.979
 2627POPC   C4B37054  27.886   3.414   7.617
 2628POPC   NC337055  28.742  28.752   9.309
 2628POPC   PO437056  29.322  28.993   9.407
 2628POPC   GL137057  29.044  29.211   9.104
 2628POPC   GL237058  28.798  29.458   9.095
 2628POPC   C1A37059  29.187  29.535   8.802
 2628POPC   D2A37060  29.182  29.381   8.386
 2628POPC   C3A37061  29.377  29.620   8.094
 2628POPC   C4A37062  29.448  29.346   7.759
 2628POPC   C1B37063  28.739  29.311   8.668
 2628POPC   C2B37064  28.718  29.192   8.235
 2628POPC   C3B37065  28.910  29.217   7.828
 2628POPC   C4B37066  28.940  28.898   7.522
 2629POPC   NC337067  28.692  13.893   9.850
 2629POPC   PO437068  28.338  14.537   9.634
 2629POPC   GL137069  28.153  14.519   9.242
 2629POPC   GL237070  28.271  14.172   9.217
 2629POPC   C1A37071  28.279  14.676   8.841
 2629POPC   D2A37072  28.398  14.506   8.435
 2629POPC   C3A37073  28.219  14.591   8.056
 2629POPC   C4A37074  28.420  14.702   7.705
 2629POPC   C1B37075  28.209  14.170   8.781
 2629POPC   C2B37076  28.028  14.179   8.364
 2629POPC   C3B37077  28.325  14.101   8.049
 2629POPC   C4B37078  28.467  14.211   7.660
 2630POPC   NC337079   2.250  21.437   9.620
 2630POPC   PO437080   1.758  21.131   9.374
 2630POPC   GL137081   2.069  21.315   9.130
 2630POPC   GL237082   2.018  21.644   9.131
 2630POPC   C1A37083   2.149  21.168   8.724
 2630POPC   D2A37084   1.864  21.038   8.421
 2630POPC   C3A37085   2.028  21.184   8.059
 2630POPC   C4A37086   2.164  20.978   7.711
 2630POPC   C1B37087   2.143  21.680   8.690
 2630POPC   C2B37088   2.304  21.658   8.239
 2630POPC   C3B37089   2.099  21.630   7.807
 2630POPC   C4B37090   1.994  21.800   7.387
 2631POPC   NC337091  15.449   0.533   9.482
 2631POPC   PO437092  15.097  44.954   9.480
 2631POPC   GL137093  15.332   0.140   9.152
 2631POPC   GL237094  15.132   0.418   9.089
 2631POPC   C1A37095  15.364   0.185   8.697
 2631POPC   D2A37096  15.613   0.398   8.376
 2631POPC   C3A37097  15.550   0.315   7.966
 2631POPC   C4A37098  15.478   0.375   7.491
 2631POPC   C1B37099  14.932   0.648   8.741
 2631POPC   C2B37100  15.077   0.485   8.358
 2631POPC   C3B37101  15.117   0.118   8.126
 2631POPC   C4B37102  15.082   0.358   7.773
 2632POPC   NC337103  28.847   2.336   9.446
 2632POPC   PO437104  29.224   2.923   9.288
 2632POPC   GL137105  29.126   2.581   9.061
 2632POPC   GL237106  29.404   2.398   9.234
 2632POPC   C1A37107  29.097   2.692   8.628
 2632POPC   D2A37108  28.991   2.520   8.220
 2632POPC   C3A37109  29.190   2.797   7.955
 2632POPC   C4A37110  29.155   3.218   7.867
 2632POPC   C1B37111  29.417   2.235   8.818
 2632POPC   C2B37112  29.461   2.433   8.427
 2632POPC   C3B37113  29.440   2.295   8.051
 2632POPC   C4B37114  29.505   2.502   7.698
 2633POPC   NC337115  24.927  24.507   9.457
 2633POPC   PO437116  24.301  24.361   9.408
 2633POPC   GL137117  24.551  24.349   9.112
 2633POPC   GL237118  24.780  24.096   9.224
 2633POPC   C1A37119  24.552  24.576   8.747
 2633POPC   D2A37120  24.564  24.799   8.384
 2633POPC   C3A37121  24.529  24.556   8.025
 2633POPC   C4A37122  24.344  24.480   7.625
 2633POPC   C1B37123  24.981  24.318   8.851
 2633POPC   C2B37124  24.967  24.474   8.443
 2633POPC   C3B37125  24.986  24.278   8.074
 2633POPC   C4B37126  24.815  24.272   7.699
 2634POPC   NC337127  14.902  35.079   9.416
 2634POPC   PO437128  15.155  35.652   9.616
 2634POPC   GL137129  15.256  35.402   9.222
 2634POPC   GL237130  14.926  35.451   9.089
 2634POPC   C1A37131  15.261  35.305   8.743
 2634POPC   D2A37132  15.286  35.008   8.324
 2634POPC   C3A37133  15.400  35.199   7.922
 2634POPC   C4A37134  15.154  35.532   7.801
 2634POPC   C1B37135  14.761  35.278   8.719
 2634POPC   C2B37136  14.916  35.403   8.317
 2634POPC   C3B37137  14.880  35.127   7.989
 2634POPC   C4B37138  14.891  35.093   7.559
 2635POPC   NC337139  38.410  40.385   9.940
 2635POPC   PO437140  38.465  40.791   9.437
 2635POPC   GL137141  38.708  40.740   9.057
 2635POPC   GL237142  38.405  40.586   8.941
 2635POPC   C1A37143  38.719  40.754   8.599
 2635POPC   D2A37144  38.357  40.687   8.327
 2635POPC   C3A37145  38.285  41.010   7.995
 2635POPC   C4A37146  38.563  41.149   7.650
 2635POPC   C1B37147  38.026  40.557   8.708
 2635POPC   C2B37148  37.820  40.469   8.325
 2635POPC   C3B37149  38.009  40.575   7.965
 2635POPC   C4B37150  38.308  40.666   7.638
 2636POPC   NC337151   2.495  37.921   9.502
 2636POPC   PO437152   3.162  37.623   9.505
 2636POPC   GL137153   2.842  37.639   9.160
 2636POPC   GL237154   2.640  37.956   9.014
 2636POPC   C1A37155   2.687  37.504   8.757
 2636POPC   D2A37156   2.521  37.523   8.324
 2636POPC   C3A37157   2.776  37.536   7.931
 2636POPC   C4A37158   2.613  37.434   7.504
 2636POPC   C1B37159   2.942  37.952   8.671
 2636POPC   C2B37160   2.983  37.952   8.241
 2636POPC   C3B37161   2.631  38.042   8.067
 2636POPC   C4B37162   2.472  38.009   7.713
 2637POPC   NC337163  39.496  18.109   9.538
 2637POPC   PO437164  39.479  17.384   9.613
 2637POPC   GL137165  39.295  17.443   9.228
 2637POPC   GL237166  39.192  17.758   9.244
 2637POPC   C1A37167  39.293  17.332   8.788
 2637POPC   D2A37168  39.513  17.463   8.417
 2637POPC   C3A37169  39.312  17.419   8.054
 2637POPC   C4A37170  39.164  17.518   7.639
 2637POPC   C1B37171  39.283  17.840   8.826
 2637POPC   C2B37172  39.374  17.960   8.415
 2637POPC   C3B37173  39.198  17.908   8.043
 2637POPC   C4B37174  39.361  17.996   7.701
 2638POPC   NC337175   0.438  40.005   9.479
 2638POPC   PO437176  44.778  40.122   9.374
 2638POPC   GL137177   0.108  39.865   9.065
 2638POPC   GL237178   0.480  39.993   8.991
 2638POPC   C1A37179   0.361  39.636   8.678
 2638POPC   D2A37180   0.645  39.843   8.370
 2638POPC   C3A37181   0.440  39.967   7.988
 2638POPC   C4A37182   0.097  39.785   7.748
 2638POPC   C1B37183   0.627  40.275   8.661
 2638POPC   C2B37184   0.947  40.282   8.366
 2638POPC   C3B37185   0.957  40.079   8.004
 2638POPC   C4B37186   0.813  40.025   7.595
 2639POPC   NC337187  15.489  29.635   9.369
 2639POPC   PO437188  16.020  30.017   9.675
 2639POPC   GL137189  16.205  29.907   9.242
 2639POPC   GL237190  15.898  29.853   9.140
 2639POPC   C1A37191  16.236  30.080   8.806
 2639POPC   D2A37192  16.186  29.858   8.436
 2639POPC   C3A37193  16.316  30.093   8.072
 2639POPC   C4A37194  16.162  29.900   7.716
 2639POPC   C1B37195  15.704  30.007   8.786
 2639POPC   C2B37196  15.640  29.780   8.440
 2639POPC   C3B37197  15.811  29.792   8.087
 2639POPC   C4B37198  15.632  29.909   7.715
 2640POPC   NC337199  25.277  27.422   9.368
 2640POPC   PO437200  25.903  27.575   9.473
 2640POPC   GL137201  25.642  27.819   9.145
 2640POPC   GL237202  25.288  27.871   9.114
 2640POPC   C1A37203  25.542  27.845   8.667
 2640POPC   D2A37204  25.501  27.830   8.192
 2640POPC   C3A37205  25.461  27.431   7.962
 2640POPC   C4A37206  25.447  27.338   7.513
 2640POPC   C1B37207  25.058  27.685   8.745
 2640POPC   C2B37208  24.959  27.816   8.334
 2640POPC   C3B37209  25.045  27.706   7.926
 2640POPC   C4B37210  24.994  27.276   7.747
 2641POPC   NC337211  31.692  20.556   9.733
 2641POPC   PO437212  32.378  20.589   9.552
 2641POPC   GL137213  32.305  20.722   9.145
 2641POPC   GL237214  32.165  20.451   9.072
 2641POPC   C1A37215  32.301  20.731   8.693
 2641POPC   D2A37216  32.567  20.678   8.335
 2641POPC   C3A37217  32.372  20.672   7.928
 2641POPC   C4A37218  32.068  20.675   7.611
 2641POPC   C1B37219  32.007  20.282   8.676
 2641POPC   C2B37220  32.086  20.432   8.286
 2641POPC   C3B37221  32.060  20.255   7.896
 2641POPC   C4B37222  31.727  20.047   7.702
 2642POPC   NC337223  42.886  24.113   9.728
 2642POPC   PO437224  43.289  23.648   9.492
 2642POPC   GL137225  42.959  23.661   9.187
 2642POPC   GL237226  42.917  23.317   9.050
 2642POPC   C1A37227  42.904  23.774   8.740
 2642POPC   D2A37228  43.105  23.566   8.371
 2642POPC   C3A37229  43.014  23.750   7.990
 2642POPC   C4A37230  42.970  23.744   7.545
 2642POPC   C1B37231  43.315  23.454   8.843
 2642POPC   C2B37232  43.605  23.485   8.471
 2642POPC   C3B37233  43.543  23.705   8.080
 2642POPC   C4B37234  43.403  23.555   7.690
 2643POPC   NC337235  11.473  19.106   9.402
 2643POPC   PO437236  10.926  18.768   9.533
 2643POPC   GL137237  11.113  18.852   9.141
 2643POPC   GL237238  11.079  19.236   9.082
 2643POPC   C1A37239  11.365  18.906   8.774
 2643POPC   D2A37240  11.302  18.695   8.407
 2643POPC   C3A37241  11.397  18.946   8.069
 2643POPC   C4A37242  11.462  18.836   7.663
 2643POPC   C1B37243  11.430  19.436   8.819
 2643POPC   C2B37244  11.662  19.250   8.483
 2643POPC   C3B37245  11.758  19.298   8.056
 2643POPC   C4B37246  11.639  19.646   7.811
 2644POPC   NC337247  43.691  18.443   9.602
 2644POPC   PO437248  44.317  18.213   9.515
 2644POPC   GL137249  43.998  18.268   9.207
 2644POPC   GL237250  44.163  17.998   9.057
 2644POPC   C1A37251  43.768  18.195   8.814
 2644POPC   D2A37252  43.894  18.149   8.398
 2644POPC   C3A37253  43.652  18.354   8.094
 2644POPC   C4A37254  43.575  18.166   7.729
 2644POPC   C1B37255  44.297  18.298   8.752
 2644POPC   C2B37256  44.348  18.397   8.310
 2644POPC   C3B37257  44.144  18.279   7.931
 2644POPC   C4B37258  43.949  18.564   7.659
 2645POPC   NC337259  18.817   2.826   9.779
 2645POPC   PO437260  19.189   2.893   9.305
 2645POPC   GL137261  19.050   2.701   8.974
 2645POPC   GL237262  18.733   2.722   9.171
 2645POPC   C1A37263  19.154   2.456   8.619
 2645POPC   D2A37264  19.264   2.386   8.187
 2645POPC   C3A37265  19.179   2.683   7.875
 2645POPC   C4A37266  19.141   2.702   7.430
 2645POPC   C1B37267  18.658   2.896   8.763
 2645POPC   C2B37268  18.846   2.795   8.378
 2645POPC   C3B37269  18.750   2.940   7.990
 2645POPC   C4B37270  18.944   3.227   7.724
 2646POPC   NC337271  30.530  14.065   9.611
 2646POPC   PO437272  31.205  14.209   9.421
 2646POPC   GL137273  30.808  14.314   9.113
 2646POPC   GL237274  30.483  14.401   9.208
 2646POPC   C1A37275  30.618  14.644   8.777
 2646POPC   D2A37276  30.411  14.838   8.380
 2646POPC   C3A37277  30.597  14.661   7.943
 2646POPC   C4A37278  30.798  14.575   7.498
 2646POPC   C1B37279  30.346  14.199   8.811
 2646POPC   C2B37280  30.465  14.334   8.391
 2646POPC   C3B37281  30.453  14.172   7.981
 2646POPC   C4B37282  30.614  13.800   7.799
 2647POPC   NC337283  19.318  25.570   9.523
 2647POPC   PO437284  18.900  26.103   9.531
 2647POPC   GL137285  19.021  25.877   9.189
 2647POPC   GL237286  19.333  26.014   9.180
 2647POPC   C1A37287  19.000  26.005   8.767
 2647POPC   D2A37288  19.079  26.083   8.346
 2647POPC   C3A37289  18.801  26.180   8.042
 2647POPC   C4A37290  18.809  26.281   7.662
 2647POPC   C1B37291  19.395  25.672   8.888
 2647POPC   C2B37292  19.356  25.683   8.471
 2647POPC   C3B37293  19.520  25.676   8.068
 2647POPC   C4B37294  19.387  25.948   7.710
 2648POPC   NC337295  28.175   8.833   9.407
 2648POPC   PO437296  28.649   8.485   9.597
 2648POPC   GL137297  28.658   8.795   9.245
 2648POPC   GL237298  28.548   9.173   9.254
 2648POPC   C1A37299  28.686   8.768   8.787
 2648POPC   D2A37300  28.832   8.581   8.384
 2648POPC   C3A37301  28.660   8.842   8.038
 2648POPC   C4A37302  28.332   8.905   7.737
 2648POPC   C1B37303  28.482   9.280   8.827
 2648POPC   C2B37304  28.371   9.178   8.399
 2648POPC   C3B37305  28.200   9.312   8.004
 2648POPC   C4B37306  28.154   9.365   7.538
 2649POPC   NC337307  29.553   5.661   9.754
 2649POPC   PO437308  30.142   5.624   9.449
 2649POPC   GL137309  29.885   5.896   9.259
 2649POPC   GL237310  29.555   5.824   9.210
 2649POPC   C1A37311  29.925   5.916   8.819
 2649POPC   D2A37312  29.858   5.729   8.425
 2649POPC   C3A37313  29.863   6.051   8.114
 2649POPC   C4A37314  30.039   5.746   7.857
 2649POPC   C1B37315  29.459   5.708   8.770
 2649POPC   C2B37316  29.377   5.884   8.356
 2649POPC   C3B37317  29.519   5.698   7.994
 2649POPC   C4B37318  29.582   5.516   7.602
 2650POPC   NC337319   5.527  43.351   9.592
 2650POPC   PO437320   6.032  43.008   9.825
 2650POPC   GL137321   5.902  43.046   9.352
 2650POPC   GL237322   5.841  43.397   9.213
 2650POPC   C1A37323   5.767  42.929   8.918
 2650POPC   D2A37324   5.696  43.073   8.492
 2650POPC   C3A37325   5.732  42.838   8.099
 2650POPC   C4A37326   6.031  42.848   7.761
 2650POPC   C1B37327   6.006  43.436   8.828
 2650POPC   C2B37328   5.992  43.483   8.421
 2650POPC   C3B37329   6.081  43.234   8.113
 2650POPC   C4B37330   5.917  43.351   7.777
 2651POPC   NC337331  43.340  26.615   9.620
 2651POPC   PO437332  43.308  27.266   9.517
 2651POPC   GL137333  43.167  26.941   9.186
 2651POPC   GL237334  43.013  26.594   9.196
 2651POPC   C1A37335  43.362  26.825   8.757
 2651POPC   D2A37336  43.521  26.811   8.298
 2651POPC   C3A37337  43.273  27.048   7.980
 2651POPC   C4A37338  42.827  27.144   7.868
 2651POPC   C1B37339  42.927  26.573   8.769
 2651POPC   C2B37340  43.026  26.692   8.377
 2651POPC   C3B37341  42.953  26.670   7.989
 2651POPC   C4B37342  43.266  26.591   7.609
 2652POPC   NC337343  22.679  27.035   9.424
 2652POPC   PO437344  22.919  26.389   9.564
 2652POPC   GL137345  22.909  26.575   9.169
 2652POPC   GL237346  22.735  26.843   8.967
 2652POPC   C1A37347  23.133  26.614   8.782
 2652POPC   D2A37348  23.041  26.912   8.455
 2652POPC   C3A37349  23.027  26.735   8.053
 2652POPC   C4A37350  23.152  26.954   7.675
 2652POPC   C1B37351  22.407  27.017   8.730
 2652POPC   C2B37352  22.305  26.888   8.314
 2652POPC   C3B37353  22.561  27.037   7.994
 2652POPC   C4B37354  22.682  26.788   7.670
 2653POPC   NC337355  29.010   3.318   9.355
 2653POPC   PO437356  29.603   3.474   9.541
 2653POPC   GL137357  29.454   3.528   9.138
 2653POPC   GL237358  29.126   3.702   9.024
 2653POPC   C1A37359  29.406   3.325   8.761
 2653POPC   D2A37360  29.285   3.296   8.358
 2653POPC   C3A37361  29.383   3.641   8.101
 2653POPC   C4A37362  29.447   3.628   7.702
 2653POPC   C1B37363  29.150   3.756   8.554
 2653POPC   C2B37364  28.898   3.588   8.171
 2653POPC   C3B37365  28.828   3.570   7.710
 2653POPC   C4B37366  28.821   3.718   7.254
 2654POPC   NC337367  19.891  31.145   9.572
 2654POPC   PO437368  19.537  31.692   9.605
 2654POPC   GL137369  19.564  31.438   9.229
 2654POPC   GL237370  19.818  31.223   9.095
 2654POPC   C1A37371  19.557  31.524   8.789
 2654POPC   D2A37372  19.853  31.516   8.480
 2654POPC   C3A37373  19.632  31.403   8.127
 2654POPC   C4A37374  19.891  31.292   7.842
 2654POPC   C1B37375  19.791  31.055   8.702
 2654POPC   C2B37376  20.068  31.032   8.351
 2654POPC   C3B37377  20.296  31.002   7.975
 2654POPC   C4B37378  20.213  31.042   7.522
 2655POPC   NC337379   8.809  29.667   9.550
 2655POPC   PO437380   9.018  30.245   9.464
 2655POPC   GL137381   8.789  30.029   9.119
 2655POPC   GL237382   8.651  29.692   9.067
 2655POPC   C1A37383   8.874  30.086   8.677
 2655POPC   D2A37384   8.934  30.265   8.259
 2655POPC   C3A37385   9.157  30.013   7.954
 2655POPC   C4A37386   9.004  29.984   7.550
 2655POPC   C1B37387   8.543  29.685   8.656
 2655POPC   C2B37388   8.498  29.999   8.316
 2655POPC   C3B37389   8.631  29.986   7.913
 2655POPC   C4B37390   8.472  30.123   7.534
 2656POPC   NC337391  22.669  30.045   9.441
 2656POPC   PO437392  23.363  29.948   9.428
 2656POPC   GL137393  23.106  30.045   9.086
 2656POPC   GL237394  22.817  29.801   9.003
 2656POPC   C1A37395  23.153  29.981   8.665
 2656POPC   D2A37396  22.848  29.805   8.450
 2656POPC   C3A37397  22.952  30.026   8.131
 2656POPC   C4A37398  22.972  29.955   7.717
 2656POPC   C1B37399  22.529  29.507   8.741
 2656POPC   C2B37400  22.381  29.566   8.315
 2656POPC   C3B37401  22.554  29.773   7.934
 2656POPC   C4B37402  22.614  29.703   7.426
 2657POPC   NC337403   7.470  18.689   9.519
 2657POPC   PO437404   7.007  19.215   9.422
 2657POPC   GL137405   7.280  19.117   9.070
 2657POPC   GL237406   7.256  18.760   9.052
 2657POPC   C1A37407   7.538  19.302   8.735
 2657POPC   D2A37408   7.654  19.129   8.312
 2657POPC   C3A37409   7.402  19.266   7.971
 2657POPC   C4A37410   7.448  19.404   7.559
 2657POPC   C1B37411   7.557  18.804   8.707
 2657POPC   C2B37412   7.868  18.683   8.445
 2657POPC   C3B37413   7.888  18.680   8.053
 2657POPC   C4B37414   7.729  18.943   7.755
 2658POPC   NC337415   2.291  15.094   9.482
 2658POPC   PO437416   1.884  15.686   9.525
 2658POPC   GL137417   2.066  15.457   9.163
 2658POPC   GL237418   1.922  15.117   9.128
 2658POPC   C1A37419   2.262  15.331   8.757
 2658POPC   D2A37420   2.236  15.500   8.324
 2658POPC   C3A37421   2.124  15.277   7.942
 2658POPC   C4A37422   1.924  15.277   7.551
 2658POPC   C1B37423   1.762  15.281   8.728
 2658POPC   C2B37424   1.755  15.265   8.286
 2658POPC   C3B37425   1.572  15.395   7.884
 2658POPC   C4B37426   1.420  15.132   7.509
 2659POPC   NC337427   7.108  31.737   9.557
 2659POPC   PO437428   6.605  31.176   9.463
 2659POPC   GL137429   6.684  31.362   9.071
 2659POPC   GL237430   6.784  31.707   9.138
 2659POPC   C1A37431   6.793  31.463   8.653
 2659POPC   D2A37432   6.742  31.758   8.334
 2659POPC   C3A37433   6.648  31.533   7.934
 2659POPC   C4A37434   6.412  31.168   7.801
 2659POPC   C1B37435   7.098  31.878   8.844
 2659POPC   C2B37436   7.255  31.838   8.436
 2659POPC   C3B37437   7.146  31.672   8.007
 2659POPC   C4B37438   7.015  31.644   7.558
 2660POPC   NC337439  31.568   4.053   9.415
 2660POPC   PO437440  31.310   4.636   9.435
 2660POPC   GL137441  31.139   4.444   9.095
 2660POPC   GL237442  31.110   4.100   9.188
 2660POPC   C1A37443  31.281   4.531   8.683
 2660POPC   D2A37444  31.303   4.787   8.329
 2660POPC   C3A37445  31.312   4.538   7.998
 2660POPC   C4A37446  31.522   4.287   7.737
 2660POPC   C1B37447  31.231   4.017   8.774
 2660POPC   C2B37448  31.139   4.130   8.349
 2660POPC   C3B37449  31.167   3.994   7.924
 2660POPC   C4B37450  31.168   3.975   7.447
 2661POPC   NC337451   2.554  21.221   9.267
 2661POPC   PO437452   3.022  21.590   9.536
 2661POPC   GL137453   2.918  21.525   9.081
 2661POPC   GL237454   3.102  21.266   8.997
 2661POPC   C1A37455   2.598  21.438   8.676
 2661POPC   D2A37456   2.510  21.181   8.303
 2661POPC   C3A37457   2.500  21.310   7.863
 2661POPC   C4A37458   2.597  21.124   7.439
 2661POPC   C1B37459   2.970  21.103   8.612
 2661POPC   C2B37460   3.145  21.090   8.248
 2661POPC   C3B37461   2.994  21.195   7.867
 2661POPC   C4B37462   2.972  21.452   7.507
 2662POPC   NC337463   2.053   7.199   9.581
 2662POPC   PO437464   2.203   7.830   9.606
 2662POPC   GL137465   2.236   7.529   9.213
 2662POPC   GL237466   2.351   7.175   9.177
 2662POPC   C1A37467   2.139   7.457   8.762
 2662POPC   D2A37468   1.942   7.646   8.381
 2662POPC   C3A37469   2.074   7.683   7.911
 2662POPC   C4A37470   2.044   7.855   7.461
 2662POPC   C1B37471   2.334   6.890   8.834
 2662POPC   C2B37472   2.301   7.098   8.430
 2662POPC   C3B37473   2.044   7.225   8.100
 2662POPC   C4B37474   2.208   7.103   7.712
 2663POPC   NC337475  27.195  13.431   9.428
 2663POPC   PO437476  26.744  13.866   9.308
 2663POPC   GL137477  26.652  13.491   9.061
 2663POPC   GL237478  26.983  13.373   8.980
 2663POPC   C1A37479  26.665  13.495   8.598
 2663POPC   D2A37480  26.471  13.620   8.204
 2663POPC   C3A37481  26.656  13.462   7.816
 2663POPC   C4A37482  26.866  13.657   7.431
 2663POPC   C1B37483  27.083  13.762   8.767
 2663POPC   C2B37484  27.075  13.876   8.335
 2663POPC   C3B37485  27.029  13.794   7.896
 2663POPC   C4B37486  27.317  13.859   7.527
 2664POPC   NC337487  36.599  34.502   9.553
 2664POPC   PO437488  37.297  34.766   9.491
 2664POPC   GL137489  36.965  34.574   9.193
 2664POPC   GL237490  36.634  34.693   9.088
 2664POPC   C1A37491  36.920  34.393   8.778
 2664POPC   D2A37492  36.786  34.604   8.400
 2664POPC   C3A37493  36.731  34.360   8.054
 2664POPC   C4A37494  36.979  34.172   7.743
 2664POPC   C1B37495  36.921  34.912   8.811
 2664POPC   C2B37496  37.055  35.033   8.435
 2664POPC   C3B37497  37.101  34.903   8.038
 2664POPC   C4B37498  36.823  34.717   7.725
 2665POPC   NC337499  15.689  14.045   9.358
 2665POPC   PO437500  16.252  14.499   9.500
 2665POPC   GL137501  16.012  14.420   9.138
 2665POPC   GL237502  16.102  14.052   9.055
 2665POPC   C1A37503  15.792  14.344   8.754
 2665POPC   D2A37504  15.850  14.182   8.340
 2665POPC   C3A37505  15.711  14.478   8.002
 2665POPC   C4A37506  15.919  14.716   7.684
 2665POPC   C1B37507  16.292  14.273   8.726
 2665POPC   C2B37508  16.416  14.350   8.357
 2665POPC   C3B37509  16.211  14.437   8.030
 2665POPC   C4B37510  16.193  14.217   7.654
 2666POPC   NC337511   5.855   6.035   9.642
 2666POPC   PO437512   6.082   5.476   9.403
 2666POPC   GL137513   5.958   5.771   9.097
 2666POPC   GL237514   5.773   6.078   9.137
 2666POPC   C1A37515   5.954   5.749   8.656
 2666POPC   D2A37516   5.837   5.541   8.296
 2666POPC   C3A37517   6.089   5.625   7.968
 2666POPC   C4A37518   5.976   5.664   7.581
 2666POPC   C1B37519   5.768   6.229   8.706
 2666POPC   C2B37520   5.932   6.138   8.293
 2666POPC   C3B37521   5.764   6.016   7.907
 2666POPC   C4B37522   5.808   6.188   7.488
 2667POPC   NC337523  13.740   1.767   9.506
 2667POPC   PO437524  13.610   2.419   9.377
 2667POPC   GL137525  13.806   2.133   9.096
 2667POPC   GL237526  14.165   2.053   9.048
 2667POPC   C1A37527  13.805   2.164   8.655
 2667POPC   D2A37528  13.533   2.057   8.328
 2667POPC   C3A37529  13.700   2.088   7.927
 2667POPC   C4A37530  13.419   2.014   7.611
 2667POPC   C1B37531  13.959   1.690   8.859
 2667POPC   C2B37532  13.919   1.540   8.437
 2667POPC   C3B37533  13.767   1.577   8.019
 2667POPC   C4B37534  13.911   1.673   7.615
 2668POPC   NC337535   4.040   9.160   9.488
 2668POPC   PO437536   3.411   8.902   9.618
 2668POPC   GL137537   3.594   9.058   9.249
 2668POPC   GL237538   3.461   9.327   9.063
 2668POPC   C1A37539   3.786   8.919   8.868
 2668POPC   D2A37540   3.796   9.114   8.468
 2668POPC   C3A37541   3.592   8.957   8.122
 2668POPC   C4A37542   3.310   9.034   7.781
 2668POPC   C1B37543   3.855   9.451   8.860
 2668POPC   C2B37544   4.002   9.575   8.428
 2668POPC   C3B37545   3.816   9.425   8.046
 2668POPC   C4B37546   3.801   9.166   7.675
 2669POPC   NC337547  25.442  41.128   9.501
 2669POPC   PO437548  25.472  41.749   9.758
 2669POPC   GL137549  25.228  41.521   9.287
 2669POPC   GL237550  25.455  41.328   9.040
 2669POPC   C1A37551  25.106  41.652   8.840
 2669POPC   D2A37552  24.993  41.819   8.442
 2669POPC   C3A37553  25.186  41.683   8.049
 2669POPC   C4A37554  25.163  41.288   7.826
 2669POPC   C1B37555  25.189  41.146   8.744
 2669POPC   C2B37556  25.306  41.170   8.327
 2669POPC   C3B37557  25.648  41.275   8.068
 2669POPC   C4B37558  25.594  41.543   7.733
 2670POPC   NC337559  40.552  38.929   9.556
 2670POPC   PO437560  40.775  39.547   9.510
 2670POPC   GL137561  40.899  39.186   9.284
 2670POPC   GL237562  41.177  39.296   9.114
 2670POPC   C1A37563  40.744  39.036   8.887
 2670POPC   D2A37564  40.546  39.213   8.516
 2670POPC   C3A37565  40.738  39.081   8.140
 2670POPC   C4A37566  40.773  39.234   7.724
 2670POPC   C1B37567  41.049  39.407   8.677
 2670POPC   C2B37568  41.184  39.330   8.240
 2670POPC   C3B37569  41.180  39.570   7.844
 2670POPC   C4B37570  40.993  39.601   7.426
 2671POPC   NC337571  14.519  33.846   9.603
 2671POPC   PO437572  13.805  33.666   9.451
 2671POPC   GL137573  14.209  33.632   9.226
 2671POPC   GL237574  14.246  33.965   9.142
 2671POPC   C1A37575  14.409  33.608   8.800
 2671POPC   D2A37576  14.417  33.928   8.486
 2671POPC   C3A37577  14.516  33.767   8.104
 2671POPC   C4A37578  14.482  33.623   7.706
 2671POPC   C1B37579  14.522  34.234   8.894
 2671POPC   C2B37580  14.435  34.443   8.498
 2671POPC   C3B37581  14.368  34.268   8.086
 2671POPC   C4B37582  14.554  34.129   7.726
 2672POPC   NC337583  23.818  21.793   9.549
 2672POPC   PO437584  23.935  21.218   9.395
 2672POPC   GL137585  23.909  21.615   9.086
 2672POPC   GL237586  23.566  21.687   9.031
 2672POPC   C1A37587  23.854  21.799   8.623
 2672POPC   D2A37588  23.651  21.591   8.232
 2672POPC   C3A37589  23.868  21.332   7.891
 2672POPC   C4A37590  23.814  21.283   7.432
 2672POPC   C1B37591  23.752  21.321   8.713
 2672POPC   C2B37592  23.754  21.065   8.314
 2672POPC   C3B37593  23.467  21.019   7.902
 2672POPC   C4B37594  23.176  21.102   7.512
 2673POPC   NC337595  39.511  15.422   9.485
 2673POPC   PO437596  38.971  15.012   9.422
 2673POPC   GL137597  39.259  15.123   9.142
 2673POPC   GL237598  39.136  15.427   9.113
 2673POPC   C1A37599  39.229  15.105   8.724
 2673POPC   D2A37600  38.978  15.134   8.397
 2673POPC   C3A37601  39.108  14.856   8.108
 2673POPC   C4A37602  39.214  15.119   7.813
 2673POPC   C1B37603  38.994  15.566   8.746
 2673POPC   C2B37604  39.205  15.612   8.370
 2673POPC   C3B37605  38.921  15.527   8.070
 2673POPC   C4B37606  38.845  15.440   7.659
 2674POPC   NC337607  25.433  39.723   9.655
 2674POPC   PO437608  24.898  39.932   9.745
 2674POPC   GL137609  25.152  40.087   9.311
 2674POPC   GL237610  25.539  40.145   9.308
 2674POPC   C1A37611  25.344  39.981   8.840
 2674POPC   D2A37612  25.346  39.852   8.366
 2674POPC   C3A37613  25.141  39.966   7.933
 2674POPC   C4A37614  25.260  39.760   7.497
 2674POPC   C1B37615  25.633  40.374   8.914
 2674POPC   C2B37616  25.534  40.328   8.450
 2674POPC   C3B37617  25.595  40.193   7.999
 2674POPC   C4B37618  25.374  40.309   7.608
 2675POPC   NC337619  40.091  42.826   9.431
 2675POPC   PO437620  40.352  43.500   9.455
 2675POPC   GL137621  40.325  43.192   9.143
 2675POPC   GL237622  39.960  43.118   8.997
 2675POPC   C1A37623  40.393  42.941   8.784
 2675POPC   D2A37624  40.121  43.003   8.408
 2675POPC   C3A37625  40.234  43.119   7.998
 2675POPC   C4A37626  40.388  42.829   7.705
 2675POPC   C1B37627  39.655  42.983   8.629
 2675POPC   C2B37628  39.674  42.840   8.167
 2675POPC   C3B37629  39.855  42.908   7.723
 2675POPC   C4B37630  39.651  42.776   7.317
 2676POPC   NC337631  29.137  39.640   9.494
 2676POPC   PO437632  29.433  39.070   9.520
 2676POPC   GL137633  29.337  39.258   9.161
 2676POPC   GL237634  28.974  39.268   9.116
 2676POPC   C1A37635  29.554  39.222   8.775
 2676POPC   D2A37636  29.471  39.049   8.358
 2676POPC   C3A37637  29.436  39.388   8.123
 2676POPC   C4A37638  29.281  39.688   7.835
 2676POPC   C1B37639  29.098  39.482   8.747
 2676POPC   C2B37640  29.069  39.625   8.334
 2676POPC   C3B37641  28.957  39.292   7.971
 2676POPC   C4B37642  28.694  38.895   7.889
 2677POPC   NC337643  19.577  42.833   9.491
 2677POPC   PO437644  20.099  43.288   9.537
 2677POPC   GL137645  19.913  43.073   9.206
 2677POPC   GL237646  19.593  43.200   9.123
 2677POPC   C1A37647  19.878  42.875   8.800
 2677POPC   D2A37648  19.742  42.968   8.356
 2677POPC   C3A37649  19.942  42.820   7.951
 2677POPC   C4A37650  19.681  42.821   7.571
 2677POPC   C1B37651  19.650  43.319   8.707
 2677POPC   C2B37652  19.811  43.469   8.299
 2677POPC   C3B37653  19.708  43.273   7.864
 2677POPC   C4B37654  19.853  43.247   7.392
 2678POPC   NC337655   4.792  43.253   9.553
 2678POPC   PO437656   5.344  42.927   9.513
 2678POPC   GL137657   5.338  43.140   9.133
 2678POPC   GL237658   5.168  43.452   9.215
 2678POPC   C1A37659   5.210  43.154   8.676
 2678POPC   D2A37660   5.067  42.922   8.289
 2678POPC   C3A37661   5.030  43.047   7.845
 2678POPC   C4A37662   5.111  43.445   7.620
 2678POPC   C1B37663   5.484  43.556   8.872
 2678POPC   C2B37664   5.495  43.556   8.429
 2678POPC   C3B37665   5.445  43.272   8.074
 2678POPC   C4B37666   5.521  43.070   7.669
 2679POPC   NC337667  39.121  42.823   9.479
 2679POPC   PO437668  39.644  43.202   9.411
 2679POPC   GL137669  39.452  42.966   9.103
 2679POPC   GL237670  39.520  42.626   9.216
 2679POPC   C1A37671  39.096  43.064   8.805
 2679POPC   D2A37672  38.847  43.079   8.372
 2679POPC   C3A37673  39.112  43.099   7.984
 2679POPC   C4A37674  39.522  43.255   7.874
 2679POPC   C1B37675  39.279  42.566   8.837
 2679POPC   C2B37676  39.206  42.728   8.442
 2679POPC   C3B37677  39.114  42.591   8.062
 2679POPC   C4B37678  39.381  42.676   7.740
 2680POPC   NC337679   4.864  25.479   9.633
 2680POPC   PO437680   4.258  25.505   9.674
 2680POPC   GL137681   4.523  25.510   9.247
 2680POPC   GL237682   4.609  25.165   9.125
 2680POPC   C1A37683   4.461  25.497   8.760
 2680POPC   D2A37684   4.168  25.308   8.425
 2680POPC   C3A37685   4.223  25.468   7.997
 2680POPC   C4A37686   4.611  25.625   7.906
 2680POPC   C1B37687   4.537  25.004   8.678
 2680POPC   C2B37688   4.648  25.199   8.267
 2680POPC   C3B37689   4.526  25.080   7.854
 2680POPC   C4B37690   4.538  24.837   7.459
 2681POPC   NC337691  30.248  35.201   9.446
 2681POPC   PO437692  29.673  35.535   9.353
 2681POPC   GL137693  29.935  35.322   9.074
 2681POPC   GL237694  30.259  35.553   9.076
 2681POPC   C1A37695  29.783  35.133   8.703
 2681POPC   D2A37696  29.646  35.433   8.394
 2681POPC   C3A37697  29.826  35.476   7.987
 2681POPC   C4A37698  29.781  35.182   7.651
 2681POPC   C1B37699  30.112  35.543   8.657
 2681POPC   C2B37700  30.286  35.527   8.284
 2681POPC   C3B37701  30.312  35.685   7.918
 2681POPC   C4B37702  30.117  35.561   7.553
 2682POPC   NC337703  21.043  42.262   9.614
 2682POPC   PO437704  21.690  42.098   9.633
 2682POPC   GL137705  21.343  42.237   9.235
 2682POPC   GL237706  21.106  42.547   9.175
 2682POPC   C1A37707  21.310  42.159   8.813
 2682POPC   D2A37708  21.262  42.302   8.403
 2682POPC   C3A37709  21.505  42.400   8.066
 2682POPC   C4A37710  21.408  42.118   7.743
 2682POPC   C1B37711  21.227  42.697   8.755
 2682POPC   C2B37712  21.263  42.825   8.331
 2682POPC   C3B37713  21.081  42.686   7.925
 2682POPC   C4B37714  20.843  42.376   7.700
 2683POPC   NC337715  11.895  15.803   9.727
 2683POPC   PO437716  11.243  16.000   9.510
 2683POPC   GL137717  11.203  15.843   9.118
 2683POPC   GL237718  11.422  15.580   9.005
 2683POPC   C1A37719  11.313  16.045   8.771
 2683POPC   D2A37720  11.129  16.162   8.423
 2683POPC   C3A37721  11.435  16.163   8.114
 2683POPC   C4A37722  11.369  15.980   7.737
 2683POPC   C1B37723  11.152  15.559   8.662
 2683POPC   C2B37724  11.233  15.689   8.266
 2683POPC   C3B37725  11.248  15.519   7.893
 2683POPC   C4B37726  11.581  15.561   7.561
 2684POPC   NC337727   1.151  32.065   9.643
 2684POPC   PO437728   0.810  32.590   9.380
 2684POPC   GL137729   0.920  32.158   9.185
 2684POPC   GL237730   1.258  32.057   9.144
 2684POPC   C1A37731   0.954  32.044   8.738
 2684POPC   D2A37732   0.895  32.297   8.382
 2684POPC   C3A37733   0.928  32.089   7.989
 2684POPC   C4A37734   1.052  32.339   7.704
 2684POPC   C1B37735   1.460  32.301   8.834
 2684POPC   C2B37736   1.407  32.236   8.412
 2684POPC   C3B37737   1.443  32.163   8.007
 2684POPC   C4B37738   1.663  32.165   7.667
 2685POPC   NC337739   8.448  35.866   9.434
 2685POPC   PO437740   8.103  36.442   9.443
 2685POPC   GL137741   8.098  36.183   9.110
 2685POPC   GL237742   7.969  35.833   9.210
 2685POPC   C1A37743   8.203  36.339   8.689
 2685POPC   D2A37744   8.384  36.459   8.273
 2685POPC   C3A37745   8.303  36.205   7.906
 2685POPC   C4A37746   7.982  35.899   7.856
 2685POPC   C1B37747   8.140  35.816   8.770
 2685POPC   C2B37748   8.212  35.956   8.343
 2685POPC   C3B37749   8.455  35.724   8.045
 2685POPC   C4B37750   8.405  35.741   7.609
 2686POPC   NC337751   0.528   4.814   9.531
 2686POPC   PO437752   0.176   4.305   9.623
 2686POPC   GL137753   0.254   4.539   9.220
 2686POPC   GL237754   0.586   4.432   9.153
 2686POPC   C1A37755   0.326   4.705   8.784
 2686POPC   D2A37756   0.348   4.453   8.410
 2686POPC   C3A37757   0.124   4.422   8.033
 2686POPC   C4A37758   0.207   4.257   7.635
 2686POPC   C1B37759   0.335   4.179   8.858
 2686POPC   C2B37760   0.460   3.901   8.519
 2686POPC   C3B37761   0.501   4.042   8.104
 2686POPC   C4B37762   0.757   4.057   7.729
 2687POPC   NC337763  16.557  35.065   9.293
 2687POPC   PO437764  16.927  34.537   9.562
 2687POPC   GL137765  16.858  34.671   9.176
 2687POPC   GL237766  16.561  34.569   9.098
 2687POPC   C1A37767  16.776  34.834   8.741
 2687POPC   D2A37768  16.580  34.849   8.392
 2687POPC   C3A37769  16.844  34.834   8.072
 2687POPC   C4A37770  16.902  34.476   7.836
 2687POPC   C1B37771  16.328  34.539   8.743
 2687POPC   C2B37772  16.383  34.376   8.371
 2687POPC   C3B37773  16.387  34.568   7.991
 2687POPC   C4B37774  16.498  34.581   7.570
 2688POPC   NC337775   3.847   3.478   9.683
 2688POPC   PO437776   3.428   3.944   9.578
 2688POPC   GL137777   3.556   3.766   9.181
 2688POPC   GL237778   3.563   3.416   9.255
 2688POPC   C1A37779   3.448   3.763   8.715
 2688POPC   D2A37780   3.343   3.638   8.273
 2688POPC   C3A37781   3.590   3.626   7.894
 2688POPC   C4A37782   3.444   3.695   7.483
 2688POPC   C1B37783   3.487   3.255   8.831
 2688POPC   C2B37784   3.672   3.259   8.407
 2688POPC   C3B37785   3.543   3.065   8.000
 2688POPC   C4B37786   3.512   3.179   7.566
 2689POPC   NC337787   3.267  29.552   9.466
 2689POPC   PO437788   3.397  30.210   9.512
 2689POPC   GL137789   3.688  30.132   9.166
 2689POPC   GL237790   3.588  29.778   9.101
 2689POPC   C1A37791   3.595  30.186   8.741
 2689POPC   D2A37792   3.395  30.170   8.338
 2689POPC   C3A37793   3.651  30.136   7.981
 2689POPC   C4A37794   4.052  30.260   7.867
 2689POPC   C1B37795   3.499  29.693   8.644
 2689POPC   C2B37796   3.545  29.639   8.192
 2689POPC   C3B37797   3.469  29.505   7.767
 2689POPC   C4B37798   3.240  29.606   7.364
 2690POPC   NC337799  31.206   5.092   9.423
 2690POPC   PO437800  31.739   5.613   9.499
 2690POPC   GL137801  31.734   5.309   9.147
 2690POPC   GL237802  31.423   5.423   9.114
 2690POPC   C1A37803  31.650   5.005   8.752
 2690POPC   D2A37804  31.709   5.165   8.294
 2690POPC   C3A37805  31.661   4.914   7.926
 2690POPC   C4A37806  31.297   4.968   7.688
 2690POPC   C1B37807  31.522   5.478   8.692
 2690POPC   C2B37808  31.216   5.267   8.416
 2690POPC   C3B37809  31.097   5.376   7.999
 2690POPC   C4B37810  31.507   5.417   7.858
 2691POPC   NC337811   3.362  44.890   5.434
 2691POPC   PO437812   3.615   0.487   5.268
 2691POPC   GL137813   3.579   0.484   5.758
 2691POPC   GL237814   3.386   0.208   5.846
 2691POPC   C1A37815   3.682   0.297   6.218
 2691POPC   D2A37816   3.425   0.279   6.612
 2691POPC   C3A37817   3.628   0.298   7.008
 2691POPC   C4A37818   3.697   0.551   7.336
 2691POPC   C1B37819   3.242   0.542   6.188
 2691POPC   C2B37820   3.077   0.693   6.607
 2691POPC   C3B37821   3.197   0.598   7.053
 2691POPC   C4B37822   3.281   0.246   7.371
 2692POPC   NC337823   0.158  34.390   5.134
 2692POPC   PO437824  44.609  34.791   5.226
 2692POPC   GL137825  44.475  34.610   5.673
 2692POPC   GL237826  44.614  34.883   5.892
 2692POPC   C1A37827  44.602  34.432   6.110
 2692POPC   D2A37828  44.634  34.580   6.546
 2692POPC   C3A37829  44.641  34.354   6.936
 2692POPC   C4A37830  44.444  34.251   7.348
 2692POPC   C1B37831  44.991  34.780   6.189
 2692POPC   C2B37832   0.155  34.643   6.582
 2692POPC   C3B37833  44.970  34.769   6.935
 2692POPC   C4B37834  44.770  34.746   7.302
 2693POPC   NC337835  21.701  27.527   5.413
 2693POPC   PO437836  21.105  27.806   5.231
 2693POPC   GL137837  21.230  27.758   5.667
 2693POPC   GL237838  21.271  27.395   5.718
 2693POPC   C1A37839  21.231  27.803   6.125
 2693POPC   D2A37840  21.542  27.785   6.475
 2693POPC   C3A37841  21.352  27.897   6.848
 2693POPC   C4A37842  21.232  27.853   7.246
 2693POPC   C1B37843  21.213  27.296   6.169
 2693POPC   C2B37844  21.113  27.510   6.566
 2693POPC   C3B37845  20.987  27.468   7.002
 2693POPC   C4B37846  21.053  27.432   7.463
 2694POPC   NC337847   0.538   3.986   5.398
 2694POPC   PO437848   0.466   3.324   5.293
 2694POPC   GL137849   0.350   3.343   5.695
 2694POPC   GL237850   0.498   3.633   5.756
 2694POPC   C1A37851   0.330   3.263   6.136
 2694POPC   D2A37852   0.163   3.452   6.510
 2694POPC   C3A37853   0.381   3.483   6.904
 2694POPC   C4A37854   0.226   3.484   7.315
 2694POPC   C1B37855   0.688   3.847   6.091
 2694POPC   C2B37856   0.577   3.826   6.508
 2694POPC   C3B37857   0.706   3.962   6.910
 2694POPC   C4B37858   0.708   3.739   7.273
 2695POPC   NC337859   2.664  31.836   5.483
 2695POPC   PO437860   2.981  31.314   5.429
 2695POPC   GL137861   2.838  31.501   5.812
 2695POPC   GL237862   2.490  31.397   5.759
 2695POPC   C1A37863   2.957  31.779   6.180
 2695POPC   D2A37864   2.823  31.880   6.604
 2695POPC   C3A37865   2.966  31.618   6.887
 2695POPC   C4A37866   2.986  31.509   7.244
 2695POPC   C1B37867   2.511  31.518   6.200
 2695POPC   C2B37868   2.643  31.378   6.597
 2695POPC   C3B37869   2.504  31.418   7.048
 2695POPC   C4B37870   2.584  31.175   7.449
 2696POPC   NC337871  21.122  25.959   5.462
 2696POPC   PO437872  21.514  26.429   5.510
 2696POPC   GL137873  21.272  26.297   5.870
 2696POPC   GL237874  20.974  26.464   5.893
 2696POPC   C1A37875  21.373  25.995   6.226
 2696POPC   D2A37876  21.656  25.833   6.575
 2696POPC   C3A37877  21.528  25.903   7.018
 2696POPC   C4A37878  21.524  26.283   7.295
 2696POPC   C1B37879  20.959  26.290   6.322
 2696POPC   C2B37880  20.993  26.060   6.728
 2696POPC   C3B37881  21.057  26.128   7.166
 2696POPC   C4B37882  21.091  26.299   7.592
 2697POPC   NC337883  19.679   3.349   5.399
 2697POPC   PO437884  19.789   3.983   5.523
 2697POPC   GL137885  19.605   3.625   5.852
 2697POPC   GL237886  19.547   3.232   5.866
 2697POPC   C1A37887  19.815   3.429   6.253
 2697POPC   D2A37888  20.008   3.316   6.684
 2697POPC   C3A37889  19.900   3.627   7.041
 2697POPC   C4A37890  19.544   3.884   7.200
 2697POPC   C1B37891  19.434   3.095   6.287
 2697POPC   C2B37892  19.509   3.339   6.672
 2697POPC   C3B37893  19.620   3.210   7.092
 2697POPC   C4B37894  19.857   3.023   7.412
 2698POPC   NC337895   6.746  40.588   5.488
 2698POPC   PO437896   6.352  41.123   5.443
 2698POPC   GL137897   6.588  40.964   5.805
 2698POPC   GL237898   6.899  41.142   5.794
 2698POPC   C1A37899   6.505  40.706   6.207
 2698POPC   D2A37900   6.509  40.409   6.559
 2698POPC   C3A37901   6.466  40.581   6.975
 2698POPC   C4A37902   6.588  40.592   7.396
 2698POPC   C1B37903   6.966  40.909   6.184
 2698POPC   C2B37904   6.933  40.691   6.590
 2698POPC   C3B37905   6.903  40.857   7.013
 2698POPC   C4B37906   7.047  40.777   7.438
 2699POPC   NC337907   1.502  32.261   5.451
 2699POPC   PO437908   2.217  31.957   5.472
 2699POPC   GL137909   1.928  32.136   5.767
 2699POPC   GL237910   1.923  32.475   5.748
 2699POPC   C1A37911   1.972  32.256   6.215
 2699POPC   D2A37912   1.881  32.129   6.655
 2699POPC   C3A37913   2.131  32.296   7.025
 2699POPC   C4A37914   2.134  32.177   7.478
 2699POPC   C1B37915   1.601  32.571   6.105
 2699POPC   C2B37916   1.800  32.640   6.520
 2699POPC   C3B37917   1.718  32.609   6.945
 2699POPC   C4B37918   1.796  32.531   7.353
 2700POPC   NC337919  20.204  31.893   5.653
 2700POPC   PO437920  20.746  32.148   5.320
 2700POPC   GL137921  20.689  32.144   5.796
 2700POPC   GL237922  20.389  32.211   6.036
 2700POPC   C1A37923  20.851  32.224   6.201
 2700POPC   D2A37924  20.616  32.077   6.575
 2700POPC   C3A37925  20.799  32.127   6.995
 2700POPC   C4A37926  20.837  32.304   7.388
 2700POPC   C1B37927  20.118  32.230   6.390
 2700POPC   C2B37928  20.269  32.404   6.760
 2700POPC   C3B37929  20.360  32.369   7.187
 2700POPC   C4B37930  20.221  32.200   7.579
 2701POPC   NC337931  14.557  25.934   5.197
 2701POPC   PO437932  14.248  26.524   5.035
 2701POPC   GL137933  14.278  26.232   5.533
 2701POPC   GL237934  14.551  25.969   5.703
 2701POPC   C1A37935  14.309  26.211   6.051
 2701POPC   D2A37936  14.457  26.213   6.486
 2701POPC   C3A37937  14.224  26.217   6.872
 2701POPC   C4A37938  14.308  26.181   7.327
 2701POPC   C1B37939  14.408  25.701   6.133
 2701POPC   C2B37940  14.314  25.759   6.622
 2701POPC   C3B37941  14.495  25.795   7.048
 2701POPC   C4B37942  14.394  25.713   7.528
 2702POPC   NC337943  42.890   3.138   5.308
 2702POPC   PO437944  43.236   2.544   5.447
 2702POPC   GL137945  43.017   2.824   5.762
 2702POPC   GL237946  43.302   2.942   5.938
 2702POPC   C1A37947  42.914   2.931   6.250
 2702POPC   D2A37948  43.122   2.787   6.657
 2702POPC   C3A37949  42.931   2.803   7.052
 2702POPC   C4A37950  43.016   2.985   7.430
 2702POPC   C1B37951  43.259   2.545   6.196
 2702POPC   C2B37952  43.493   2.422   6.573
 2702POPC   C3B37953  43.297   2.405   6.978
 2702POPC   C4B37954  43.345   2.348   7.412
 2703POPC   NC337955   7.031  38.322   5.447
 2703POPC   PO437956   7.647  38.639   5.491
 2703POPC   GL137957   7.557  38.651   5.916
 2703POPC   GL237958   7.202  38.598   5.858
 2703POPC   C1A37959   7.469  38.692   6.350
 2703POPC   D2A37960   7.303  38.781   6.742
 2703POPC   C3A37961   7.542  38.636   7.112
 2703POPC   C4A37962   7.894  38.576   7.390
 2703POPC   C1B37963   7.343  38.229   6.118
 2703POPC   C2B37964   7.252  38.256   6.560
 2703POPC   C3B37965   7.285  38.192   7.010
 2703POPC   C4B37966   7.090  38.401   7.344
 2704POPC   NC337967  24.471  10.173   5.230
 2704POPC   PO437968  24.276  10.907   5.353
 2704POPC   GL137969  24.373  10.741   5.790
 2704POPC   GL237970  24.148  10.502   5.950
 2704POPC   C1A37971  24.627  10.544   6.119
 2704POPC   D2A37972  24.476  10.313   6.472
 2704POPC   C3A37973  24.554  10.514   6.853
 2704POPC   C4A37974  24.566  10.585   7.290
 2704POPC   C1B37975  24.173  10.719   6.354
 2704POPC   C2B37976  24.067  10.665   6.833
 2704POPC   C3B37977  24.151  10.316   7.186
 2704POPC   C4B37978  24.354  10.194   7.617
 2705POPC   NC337979  20.982   9.409   5.400
 2705POPC   PO437980  20.643   9.981   5.484
 2705POPC   GL137981  20.467   9.829   5.838
 2705POPC   GL237982  20.547   9.492   5.752
 2705POPC   C1A37983  20.490   9.657   6.259
 2705POPC   D2A37984  20.630   9.700   6.680
 2705POPC   C3A37985  20.446  10.013   6.883
 2705POPC   C4A37986  20.374  10.174   7.263
 2705POPC   C1B37987  20.845   9.343   6.064
 2705POPC   C2B37988  20.767   9.242   6.522
 2705POPC   C3B37989  20.862   9.343   6.965
 2705POPC   C4B37990  20.728   9.719   7.253
 2706POPC   NC337991  34.214   5.958   5.543
 2706POPC   PO437992  34.869   5.726   5.599
 2706POPC   GL137993  34.690   5.858   6.014
 2706POPC   GL237994  34.442   6.074   5.969
 2706POPC   C1A37995  34.375   5.784   6.380
 2706POPC   D2A37996  34.311   5.839   6.837
 2706POPC   C3A37997  34.595   5.635   7.180
 2706POPC   C4A37998  34.441   5.501   7.571
 2706POPC   C1B37999  34.463   6.293   6.344
 2706POPC   C2B38000  34.541   6.301   6.766
 2706POPC   C3B38001  34.545   6.129   7.179
 2706POPC   C4B38002  34.418   6.005   7.590
 2707POPC   NC338003   6.585  28.921   5.540
 2707POPC   PO438004   6.816  29.474   5.635
 2707POPC   GL138005   6.489  29.510   5.964
 2707POPC   GL238006   6.388  29.175   5.971
 2707POPC   C1A38007   6.445  29.582   6.395
 2707POPC   D2A38008   6.657  29.450   6.768
 2707POPC   C3A38009   6.410  29.422   7.133
 2707POPC   C4A38010   6.332  29.035   7.354
 2707POPC   C1B38011   6.730  29.163   6.282
 2707POPC   C2B38012   6.860  28.980   6.688
 2707POPC   C3B38013   6.815  29.084   7.132
 2707POPC   C4B38014   6.882  29.473   7.330
 2708POPC   NC338015  12.628  44.103   5.573
 2708POPC   PO438016  12.914  43.528   5.344
 2708POPC   GL138017  12.777  43.650   5.762
 2708POPC   GL238018  13.098  43.633   5.861
 2708POPC   C1A38019  12.728  43.909   6.178
 2708POPC   D2A38020  12.569  44.195   6.510
 2708POPC   C3A38021  12.722  44.117   6.936
 2708POPC   C4A38022  12.711  44.320   7.338
 2708POPC   C1B38023  12.863  43.432   6.227
 2708POPC   C2B38024  12.850  43.658   6.619
 2708POPC   C3B38025  13.061  43.732   6.992
 2708POPC   C4B38026  12.885  43.833   7.385
 2709POPC   NC338027  16.524  11.652   5.034
 2709POPC   PO438028  16.669  10.959   5.309
 2709POPC   GL138029  16.717  11.079   5.726
 2709POPC   GL238030  17.021  11.254   5.719
 2709POPC   C1A38031  16.440  11.059   6.092
 2709POPC   D2A38032  16.491  11.224   6.493
 2709POPC   C3A38033  16.421  11.188   6.920
 2709POPC   C4A38034  16.647  11.312   7.284
 2709POPC   C1B38035  16.806  11.463   6.101
 2709POPC   C2B38036  16.685  11.698   6.496
 2709POPC   C3B38037  16.837  11.629   6.930
 2709POPC   C4B38038  17.155  11.548   7.257
 2710POPC   NC338039  16.783  29.780   5.390
 2710POPC   PO438040  16.165  30.036   5.401
 2710POPC   GL138041  16.573  30.088   5.742
 2710POPC   GL238042  16.973  29.957   5.818
 2710POPC   C1A38043  16.597  29.844   6.150
 2710POPC   D2A38044  16.293  29.794   6.496
 2710POPC   C3A38045  16.308  30.058   6.854
 2710POPC   C4A38046  16.412  30.048   7.292
 2710POPC   C1B38047  16.973  30.165   6.197
 2710POPC   C2B38048  16.759  30.078   6.575
 2710POPC   C3B38049  16.813  29.955   6.979
 2710POPC   C4B38050  16.926  30.187   7.324
 2711POPC   NC338051  23.233  44.920   5.502
 2711POPC   PO438052  22.745  44.540   5.578
 2711POPC   GL138053  22.784  44.769   5.942
 2711POPC   GL238054  23.119  44.688   5.973
 2711POPC   C1A38055  22.815  44.811   6.382
 2711POPC   D2A38056  22.902  44.526   6.698
 2711POPC   C3A38057  22.854  44.678   7.112
 2711POPC   C4A38058  22.600  44.489   7.424
 2711POPC   C1B38059  23.224   0.075   6.207
 2711POPC   C2B38060  23.252   0.265   6.622
 2711POPC   C3B38061  23.179   0.078   7.018
 2711POPC   C4B38062  23.315  44.750   7.325
 2712POPC   NC338063  40.394   1.062   5.409
 2712POPC   PO438064  39.804   0.978   5.423
 2712POPC   GL138065  39.887   1.177   5.831
 2712POPC   GL238066  40.260   1.187   5.905
 2712POPC   C1A38067  39.898   1.208   6.303
 2712POPC   D2A38068  40.182   1.245   6.682
 2712POPC   C3A38069  39.976   1.286   7.073
 2712POPC   C4A38070  39.765   1.015   7.350
 2712POPC   C1B38071  40.532   1.135   6.287
 2712POPC   C2B38072  40.611   0.955   6.710
 2712POPC   C3B38073  40.403   0.982   7.128
 2712POPC   C4B38074  40.235   1.213   7.506
 2713POPC   NC338075  34.668   6.857   5.443
 2713POPC   PO438076  34.207   6.423   5.636
 2713POPC   GL138077  34.576   6.546   5.845
 2713POPC   GL238078  34.856   6.311   5.742
 2713POPC   C1A38079  34.618   6.763   6.214
 2713POPC   D2A38080  34.657   6.971   6.601
 2713POPC   C3A38081  34.523   6.781   6.962
 2713POPC   C4A38082  34.329   6.560   7.296
 2713POPC   C1B38083  34.966   6.354   6.179
 2713POPC   C2B38084  34.953   6.537   6.604
 2713POPC   C3B38085  34.913   6.474   7.074
 2713POPC   C4B38086  35.105   6.670   7.432
 2714POPC   NC338087  31.130  11.806   5.415
 2714POPC   PO438088  31.268  12.509   5.414
 2714POPC   GL138089  31.237  12.207   5.751
 2714POPC   GL238090  31.471  11.937   5.787
 2714POPC   C1A38091  31.426  12.270   6.171
 2714POPC   D2A38092  31.607  12.421   6.574
 2714POPC   C3A38093  31.324  12.461   6.916
 2714POPC   C4A38094  31.370  12.299   7.342
 2714POPC   C1B38095  31.710  11.841   6.180
 2714POPC   C2B38096  31.863  11.968   6.574
 2714POPC   C3B38097  31.677  12.019   6.989
 2714POPC   C4B38098  31.908  11.877   7.359
 2715POPC   NC338099   1.151  43.480   5.398
 2715POPC   PO438100   1.332  42.909   5.168
 2715POPC   GL138101   1.235  43.068   5.651
 2715POPC   GL238102   1.499  43.337   5.754
 2715POPC   C1A38103   1.072  43.242   6.101
 2715POPC   D2A38104   0.924  43.154   6.550
 2715POPC   C3A38105   1.079  43.384   6.948
 2715POPC   C4A38106   0.964  43.365   7.416
 2715POPC   C1B38107   1.569  43.170   6.195
 2715POPC   C2B38108   1.433  43.052   6.619
 2715POPC   C3B38109   1.584  43.242   6.974
 2715POPC   C4B38110   1.469  43.391   7.363
 2716POPC   NC338111   9.094  42.504   5.327
 2716POPC   PO438112   9.124  41.985   5.718
 2716POPC   GL138113   9.127  42.385   5.860
 2716POPC   GL238114   8.810  42.440   5.859
 2716POPC   C1A38115   9.207  42.514   6.276
 2716POPC   D2A38116   9.053  42.618   6.664
 2716POPC   C3A38117   9.328  42.457   6.980
 2716POPC   C4A38118   9.385  42.344   7.418
 2716POPC   C1B38119   8.754  42.293   6.263
 2716POPC   C2B38120   8.866  42.148   6.679
 2716POPC   C3B38121   8.850  42.324   7.100
 2716POPC   C4B38122   8.891  42.343   7.561
 2717POPC   NC338123  11.301  41.804   5.427
 2717POPC   PO438124  11.010  41.166   5.388
 2717POPC   GL138125  11.018  41.461   5.700
 2717POPC   GL238126  11.343  41.385   5.781
 2717POPC   C1A38127  11.040  41.739   6.098
 2717POPC   D2A38128  10.934  41.601   6.549
 2717POPC   C3A38129  11.106  41.605   7.006
 2717POPC   C4A38130  11.120  41.774   7.451
 2717POPC   C1B38131  11.674  41.299   6.079
 2717POPC   C2B38132  11.634  41.163   6.514
 2717POPC   C3B38133  11.627  41.417   6.910
 2717POPC   C4B38134  11.483  41.444   7.345
 2718POPC   NC338135  30.742  33.202   5.600
 2718POPC   PO438136  30.731  33.826   5.322
 2718POPC   GL138137  30.692  33.701   5.738
 2718POPC   GL238138  30.473  33.958   5.823
 2718POPC   C1A38139  30.756  33.747   6.190
 2718POPC   D2A38140  30.869  33.926   6.577
 2718POPC   C3A38141  30.887  33.662   6.932
 2718POPC   C4A38142  31.100  33.803   7.302
 2718POPC   C1B38143  30.482  34.175   6.241
 2718POPC   C2B38144  30.393  34.116   6.665
 2718POPC   C3B38145  30.654  34.151   7.013
 2718POPC   C4B38146  30.498  34.187   7.409
 2719POPC   NC338147  25.210   7.916   4.896
 2719POPC   PO438148  25.252   8.364   5.216
 2719POPC   GL138149  25.183   8.388   5.700
 2719POPC   GL238150  25.508   8.574   5.777
 2719POPC   C1A38151  25.156   8.514   6.162
 2719POPC   D2A38152  25.417   8.399   6.546
 2719POPC   C3A38153  25.325   8.205   6.983
 2719POPC   C4A38154  25.508   7.827   7.272
 2719POPC   C1B38155  25.572   8.813   6.164
 2719POPC   C2B38156  25.582   8.878   6.595
 2719POPC   C3B38157  25.684   8.582   6.950
 2719POPC   C4B38158  25.739   8.278   7.285
 2720POPC   NC338159  40.817  26.302   5.392
 2720POPC   PO438160  40.440  25.706   5.429
 2720POPC   GL138161  40.627  25.975   5.735
 2720POPC   GL238162  40.960  25.886   5.807
 2720POPC   C1A38163  40.654  25.979   6.188
 2720POPC   D2A38164  40.668  25.720   6.552
 2720POPC   C3A38165  40.852  25.882   6.917
 2720POPC   C4A38166  40.684  25.846   7.310
 2720POPC   C1B38167  41.084  26.261   6.053
 2720POPC   C2B38168  40.994  26.508   6.431
 2720POPC   C3B38169  41.051  26.410   6.854
 2720POPC   C4B38170  41.004  26.308   7.276
 2721POPC   NC338171  33.114   9.250   5.476
 2721POPC   PO438172  32.763   8.577   5.503
 2721POPC   GL138173  32.875   8.796   5.939
 2721POPC   GL238174  33.154   9.031   5.945
 2721POPC   C1A38175  32.977   8.977   6.413
 2721POPC   D2A38176  32.711   9.099   6.800
 2721POPC   C3A38177  32.627   8.716   7.026
 2721POPC   C4A38178  33.007   8.564   7.181
 2721POPC   C1B38179  33.350   8.667   6.178
 2721POPC   C2B38180  33.416   8.701   6.639
 2721POPC   C3B38181  33.226   8.998   6.954
 2721POPC   C4B38182  33.324   9.222   7.333
 2722POPC   NC338183  28.648  12.466   5.389
 2722POPC   PO438184  29.179  12.970   5.494
 2722POPC   GL138185  29.089  12.787   5.872
 2722POPC   GL238186  28.836  12.506   5.875
 2722POPC   C1A38187  29.342  12.723   6.225
 2722POPC   D2A38188  29.575  12.931   6.531
 2722POPC   C3A38189  29.427  12.990   6.931
 2722POPC   C4A38190  29.290  12.866   7.341
 2722POPC   C1B38191  28.790  12.739   6.273
 2722POPC   C2B38192  29.038  12.846   6.621
 2722POPC   C3B38193  28.891  12.892   7.023
 2722POPC   C4B38194  28.693  12.533   7.246
 2723POPC   NC338195   5.212  24.351   5.253
 2723POPC   PO438196   4.863  23.762   5.400
 2723POPC   GL138197   5.022  23.562   5.832
 2723POPC   GL238198   4.772  23.290   5.797
 2723POPC   C1A38199   5.247  23.552   6.270
 2723POPC   D2A38200   5.324  23.687   6.705
 2723POPC   C3A38201   5.107  23.633   7.103
 2723POPC   C4A38202   5.113  23.523   7.565
 2723POPC   C1B38203   4.789  23.338   6.228
 2723POPC   C2B38204   4.850  23.487   6.654
 2723POPC   C3B38205   4.653  23.421   7.071
 2723POPC   C4B38206   4.604  23.307   7.519
 2724POPC   NC338207  22.340  44.497   5.374
 2724POPC   PO438208  21.863  44.910   5.497
 2724POPC   GL138209  22.269  44.823   5.772
 2724POPC   GL238210  22.337  44.478   5.906
 2724POPC   C1A38211  22.318  44.901   6.211
 2724POPC   D2A38212  22.370  44.540   6.463
 2724POPC   C3A38213  22.391  44.558   6.910
 2724POPC   C4A38214  22.267  44.215   7.175
 2724POPC   C1B38215  21.914  44.592   6.095
 2724POPC   C2B38216  21.755  44.484   6.512
 2724POPC   C3B38217  21.872  44.500   6.959
 2724POPC   C4B38218  22.108  44.673   7.351
 2725POPC   NC338219  28.935  36.956   5.403
 2725POPC   PO438220  29.607  36.667   5.539
 2725POPC   GL138221  29.273  36.873   5.815
 2725POPC   GL238222  28.919  36.695   5.854
 2725POPC   C1A38223  29.021  37.081   6.163
 2725POPC   D2A38224  29.158  37.209   6.569
 2725POPC   C3A38225  28.994  37.074   6.927
 2725POPC   C4A38226  29.167  36.881   7.258
 2725POPC   C1B38227  29.087  36.569   6.294
 2725POPC   C2B38228  29.102  36.573   6.759
 2725POPC   C3B38229  28.786  36.616   7.072
 2725POPC   C4B38230  28.763  36.762   7.550
 2726POPC   NC338231  28.002   0.427   5.317
 2726POPC   PO438232  28.616   0.618   5.183
 2726POPC   GL138233  28.462   0.561   5.714
 2726POPC   GL238234  28.121   0.424   5.819
 2726POPC   C1A38235  28.651   0.536   6.242
 2726POPC   D2A38236  28.797   0.631   6.722
 2726POPC   C3A38237  28.464   0.605   7.047
 2726POPC   C4A38238  28.283   0.274   7.232
 2726POPC   C1B38239  28.169   0.687   6.192
 2726POPC   C2B38240  28.260   0.481   6.582
 2726POPC   C3B38241  27.968   0.463   6.889
 2726POPC   C4B38242  27.947   0.695   7.232
 2727POPC   NC338243  26.342  12.280   5.129
 2727POPC   PO438244  25.734  12.028   5.233
 2727POPC   GL138245  26.113  11.995   5.598
 2727POPC   GL238246  26.251  12.330   5.780
 2727POPC   C1A38247  26.054  11.962   6.079
 2727POPC   D2A38248  25.730  12.128   6.399
 2727POPC   C3A38249  25.821  12.095   6.854
 2727POPC   C4A38250  26.130  11.953   7.159
 2727POPC   C1B38251  26.256  12.418   6.254
 2727POPC   C2B38252  26.353  12.252   6.678
 2727POPC   C3B38253  26.228  12.449   7.078
 2727POPC   C4B38254  25.848  12.366   7.317
 2728POPC   NC338255   8.135  14.051   5.270
 2728POPC   PO438256   8.243  13.414   5.433
 2728POPC   GL138257   8.118  13.610   5.809
 2728POPC   GL238258   8.239  13.942   5.772
 2728POPC   C1A38259   7.951  13.480   6.227
 2728POPC   D2A38260   8.163  13.370   6.620
 2728POPC   C3A38261   8.071  13.319   7.067
 2728POPC   C4A38262   8.451  13.534   7.202
 2728POPC   C1B38263   8.101  13.993   6.189
 2728POPC   C2B38264   8.226  13.998   6.615
 2728POPC   C3B38265   8.022  13.807   6.933
 2728POPC   C4B38266   8.000  13.752   7.347
 2729POPC   NC338267  44.372  40.987   5.456
 2729POPC   PO438268  44.836  40.580   5.340
 2729POPC   GL138269  44.561  40.584   5.706
 2729POPC   GL238270  44.609  40.940   5.902
 2729POPC   C1A38271  44.411  40.537   6.120
 2729POPC   D2A38272  44.557  40.771   6.437
 2729POPC   C3A38273  44.562  40.641   6.846
 2729POPC   C4A38274  44.296  40.824   7.111
 2729POPC   C1B38275  44.956  41.010   6.206
 2729POPC   C2B38276  44.901  41.071   6.644
 2729POPC   C3B38277  44.782  41.063   7.064
 2729POPC   C4B38278   0.044  41.141   7.427
 2730POPC   NC338279  13.174  38.085   5.330
 2730POPC   PO438280  12.653  38.481   5.326
 2730POPC   GL138281  12.613  38.375   5.718
 2730POPC   GL238282  12.929  38.204   5.797
 2730POPC   C1A38283  12.654  38.468   6.152
 2730POPC   D2A38284  12.906  38.555   6.475
 2730POPC   C3A38285  12.804  38.402   6.871
 2730POPC   C4A38286  12.908  38.447   7.290
 2730POPC   C1B38287  13.115  38.058   6.216
 2730POPC   C2B38288  13.106  37.836   6.649
 2730POPC   C3B38289  13.094  37.961   7.106
 2730POPC   C4B38290  12.923  37.991   7.537
 2731POPC   NC338291  42.774   3.766   5.423
 2731POPC   PO438292  43.395   3.776   5.679
 2731POPC   GL138293  42.976   3.694   5.871
 2731POPC   GL238294  42.913   3.334   5.794
 2731POPC   C1A38295  42.784   3.744   6.285
 2731POPC   D2A38296  43.025   3.844   6.668
 2731POPC   C3A38297  43.009   3.630   7.096
 2731POPC   C4A38298  42.956   3.490   7.532
 2731POPC   C1B38299  43.148   3.371   6.213
 2731POPC   C2B38300  43.105   3.311   6.653
 2731POPC   C3B38301  43.303   3.182   7.025
 2731POPC   C4B38302  43.409   3.285   7.464
 2732POPC   NC338303  26.172   1.878   5.416
 2732POPC   PO438304  25.864   2.464   5.391
 2732POPC   GL138305  25.880   2.166   5.749
 2732POPC   GL238306  25.638   1.921   5.608
 2732POPC   C1A38307  26.137   1.957   6.137
 2732POPC   D2A38308  26.293   1.880   6.603
 2732POPC   C3A38309  26.041   2.055   6.963
 2732POPC   C4A38310  25.590   2.150   7.020
 2732POPC   C1B38311  25.635   1.849   6.070
 2732POPC   C2B38312  25.804   1.660   6.464
 2732POPC   C3B38313  26.001   1.399   6.795
 2732POPC   C4B38314  26.153   1.612   7.171
 2733POPC   NC338315  20.600  31.710   5.237
 2733POPC   PO438316  20.815  31.173   5.531
 2733POPC   GL138317  20.676  31.580   5.732
 2733POPC   GL238318  20.981  31.733   5.750
 2733POPC   C1A38319  20.593  31.763   6.161
 2733POPC   D2A38320  20.435  31.593   6.564
 2733POPC   C3A38321  20.527  31.699   6.967
 2733POPC   C4A38322  20.471  31.399   7.278
 2733POPC   C1B38323  21.041  31.544   6.184
 2733POPC   C2B38324  20.960  31.692   6.625
 2733POPC   C3B38325  21.021  31.589   7.072
 2733POPC   C4B38326  20.832  31.702   7.471
 2734POPC   NC338327  24.469  26.314   5.172
 2734POPC   PO438328  24.911  26.251   5.674
 2734POPC   GL138329  24.719  25.945   5.922
 2734POPC   GL238330  24.523  25.702   5.755
 2734POPC   C1A38331  24.577  26.000   6.299
 2734POPC   D2A38332  24.798  26.007   6.627
 2734POPC   C3A38333  24.486  25.911   6.879
 2734POPC   C4A38334  24.374  26.161   7.197
 2734POPC   C1B38335  24.645  25.506   6.158
 2734POPC   C2B38336  24.804  25.486   6.575
 2734POPC   C3B38337  24.675  25.445   6.996
 2734POPC   C4B38338  24.671  25.747   7.320
 2735POPC   NC338339  27.125  36.319   5.400
 2735POPC   PO438340  26.544  36.322   5.405
 2735POPC   GL138341  26.778  36.184   5.785
 2735POPC   GL238342  27.050  36.382   5.918
 2735POPC   C1A38343  26.704  36.017   6.220
 2735POPC   D2A38344  26.589  36.087   6.679
 2735POPC   C3A38345  26.770  36.002   7.098
 2735POPC   C4A38346  26.693  36.206   7.483
 2735POPC   C1B38347  27.044  36.352   6.380
 2735POPC   C2B38348  27.082  36.310   6.835
 2735POPC   C3B38349  26.981  36.507   7.204
 2735POPC   C4B38350  27.052  36.501   7.685
 2736POPC   NC338351  32.415   7.012   5.463
 2736POPC   PO438352  32.532   6.351   5.335
 2736POPC   GL138353  32.652   6.552   5.715
 2736POPC   GL238354  32.327   6.650   5.835
 2736POPC   C1A38355  32.665   6.459   6.163
 2736POPC   D2A38356  32.347   6.500   6.486
 2736POPC   C3A38357  32.482   6.540   6.905
 2736POPC   C4A38358  32.338   6.470   7.316
 2736POPC   C1B38359  32.379   6.931   6.201
 2736POPC   C2B38360  32.111   6.958   6.606
 2736POPC   C3B38361  32.011   6.750   7.027
 2736POPC   C4B38362  32.064   6.870   7.485
 2737POPC   NC338363   4.995   6.197   5.399
 2737POPC   PO438364   5.578   5.863   5.478
 2737POPC   GL138365   5.246   5.960   5.795
 2737POPC   GL238366   4.905   5.790   5.688
 2737POPC   C1A38367   5.300   6.104   6.238
 2737POPC   D2A38368   5.432   6.018   6.676
 2737POPC   C3A38369   5.214   6.094   7.064
 2737POPC   C4A38370   5.151   5.728   7.292
 2737POPC   C1B38371   4.920   5.586   6.067
 2737POPC   C2B38372   5.037   5.703   6.473
 2737POPC   C3B38373   4.869   5.761   6.861
 2737POPC   C4B38374   4.714   5.506   7.182
 2738POPC   NC338375  17.209   6.942   5.018
 2738POPC   PO438376  16.798   6.569   5.483
 2738POPC   GL138377  16.816   6.736   5.885
 2738POPC   GL238378  16.574   6.993   5.735
 2738POPC   C1A38379  17.046   6.584   6.294
 2738POPC   D2A38380  17.094   6.709   6.755
 2738POPC   C3A38381  16.791   6.598   7.075
 2738POPC   C4A38382  16.348   6.495   7.050
 2738POPC   C1B38383  16.485   6.976   6.173
 2738POPC   C2B38384  16.664   6.982   6.615
 2738POPC   C3B38385  16.690   7.133   7.052
 2738POPC   C4B38386  16.463   6.903   7.370
 2739POPC   NC338387  42.745  15.269   5.263
 2739POPC   PO438388  42.131  15.302   5.370
 2739POPC   GL138389  42.339  15.358   5.774
 2739POPC   GL238390  42.043  15.472   5.918
 2739POPC   C1A38391  42.362  15.186   6.216
 2739POPC   D2A38392  42.281  15.101   6.662
 2739POPC   C3A38393  42.527  15.237   7.022
 2739POPC   C4A38394  42.422  15.383   7.449
 2739POPC   C1B38395  42.259  15.682   6.273
 2739POPC   C2B38396  42.264  15.623   6.726
 2739POPC   C3B38397  42.059  15.466   7.094
 2739POPC   C4B38398  41.918  15.493   7.521
 2740POPC   NC338399  30.818  43.277   5.394
 2740POPC   PO438400  30.297  42.883   5.590
 2740POPC   GL138401  30.476  42.789   5.972
 2740POPC   GL238402  30.822  42.762   5.905
 2740POPC   C1A38403  30.574  43.055   6.361
 2740POPC   D2A38404  30.511  43.418   6.664
 2740POPC   C3A38405  30.365  43.239   7.045
 2740POPC   C4A38406  30.576  42.875   7.203
 2740POPC   C1B38407  31.061  42.988   6.239
 2740POPC   C2B38408  31.047  43.054   6.668
 2740POPC   C3B38409  31.046  42.795   7.016
 2740POPC   C4B38410  31.009  42.872   7.484
 2741POPC   NC338411   3.908  22.529   5.429
 2741POPC   PO438412   3.630  21.953   5.642
 2741POPC   GL138413   3.742  22.275   5.859
 2741POPC   GL238414   3.466  22.452   5.748
 2741POPC   C1A38415   3.866  22.286   6.267
 2741POPC   D2A38416   4.017  22.396   6.655
 2741POPC   C3A38417   3.702  22.365   6.974
 2741POPC   C4A38418   3.728  22.151   7.379
 2741POPC   C1B38419   3.344  22.463   6.156
 2741POPC   C2B38420   3.428  22.215   6.526
 2741POPC   C3B38421   3.172  22.171   6.859
 2741POPC   C4B38422   3.247  22.192   7.251
 2742POPC   NC338423  20.148  43.897   5.139
 2742POPC   PO438424  19.813  44.311   5.488
 2742POPC   GL138425  19.973  43.937   5.698
 2742POPC   GL238426  19.648  43.768   5.814
 2742POPC   C1A38427  20.060  43.907   6.159
 2742POPC   D2A38428  19.821  44.090   6.528
 2742POPC   C3A38429  19.960  44.026   6.978
 2742POPC   C4A38430  19.745  44.020   7.391
 2742POPC   C1B38431  19.361  43.615   6.194
 2742POPC   C2B38432  19.307  43.800   6.630
 2742POPC   C3B38433  19.499  43.795   7.006
 2742POPC   C4B38434  19.488  43.577   7.413
 2743POPC   NC338435  12.176   2.654   5.265
 2743POPC   PO438436  12.002   3.324   5.400
 2743POPC   GL138437  11.944   2.938   5.723
 2743POPC   GL238438  12.163   2.646   5.836
 2743POPC   C1A38439  11.865   2.817   6.200
 2743POPC   D2A38440  12.116   2.847   6.619
 2743POPC   C3A38441  11.855   2.816   7.010
 2743POPC   C4A38442  11.737   2.599   7.385
 2743POPC   C1B38443  12.431   2.584   6.264
 2743POPC   C2B38444  12.461   2.455   6.736
 2743POPC   C3B38445  12.368   2.754   7.109
 2743POPC   C4B38446  12.232   3.149   7.331
 2744POPC   NC338447  17.550  24.981   5.426
 2744POPC   PO438448  17.076  25.475   5.622
 2744POPC   GL138449  17.496  25.365   5.797
 2744POPC   GL238450  17.682  25.075   5.895
 2744POPC   C1A38451  17.677  25.508   6.163
 2744POPC   D2A38452  17.441  25.486   6.516
 2744POPC   C3A38453  17.667  25.371   6.851
 2744POPC   C4A38454  17.630  25.338   7.265
 2744POPC   C1B38455  17.835  25.060   6.313
 2744POPC   C2B38456  18.046  25.064   6.690
 2744POPC   C3B38457  17.746  24.877   6.966
 2744POPC   C4B38458  17.582  24.848   7.363
 2745POPC   NC338459  27.110  14.924   5.396
 2745POPC   PO438460  26.498  15.068   5.561
 2745POPC   GL138461  26.791  14.982   5.878
 2745POPC   GL238462  26.994  15.246   5.814
 2745POPC   C1A38463  26.862  14.943   6.330
 2745POPC   D2A38464  26.832  14.755   6.735
 2745POPC   C3A38465  26.865  15.007   7.137
 2745POPC   C4A38466  26.676  15.376   7.325
 2745POPC   C1B38467  27.082  15.380   6.250
 2745POPC   C2B38468  27.019  15.277   6.719
 2745POPC   C3B38469  27.163  15.448   7.149
 2745POPC   C4B38470  27.399  15.587   7.523
 2746POPC   NC338471  41.391   1.281   5.173
 2746POPC   PO438472  40.729   1.359   5.385
 2746POPC   GL138473  40.769   1.284   5.802
 2746POPC   GL238474  40.759   0.940   5.859
 2746POPC   C1A38475  41.017   1.313   6.186
 2746POPC   D2A38476  41.110   1.160   6.614
 2746POPC   C3A38477  40.861   1.318   6.972
 2746POPC   C4A38478  40.443   1.504   7.114
 2746POPC   C1B38479  40.947   0.799   6.277
 2746POPC   C2B38480  41.032   0.660   6.728
 2746POPC   C3B38481  40.888   0.798   7.142
 2746POPC   C4B38482  40.642   0.749   7.539
 2747POPC   NC338483  42.986  26.412   5.333
 2747POPC   PO438484  42.745  27.078   5.400
 2747POPC   GL138485  42.683  26.933   5.821
 2747POPC   GL238486  42.845  26.630   5.783
 2747POPC   C1A38487  42.852  26.885   6.262
 2747POPC   D2A38488  43.130  26.849   6.626
 2747POPC   C3A38489  43.026  26.884   7.074
 2747POPC   C4A38490  43.172  27.058   7.470
 2747POPC   C1B38491  42.772  26.388   6.151
 2747POPC   C2B38492  42.983  26.360   6.525
 2747POPC   C3B38493  43.215  26.404   6.886
 2747POPC   C4B38494  42.964  26.403   7.238
 2748POPC   NC338495   1.146  18.656   5.256
 2748POPC   PO438496   1.500  18.128   5.517
 2748POPC   GL138497   1.317  18.326   5.864
 2748POPC   GL238498   0.994  18.495   5.733
 2748POPC   C1A38499   1.418  18.298   6.304
 2748POPC   D2A38500   1.195  18.319   6.682
 2748POPC   C3A38501   1.314  18.200   7.083
 2748POPC   C4A38502   1.407  18.102   7.494
 2748POPC   C1B38503   0.820  18.492   6.150
 2748POPC   C2B38504   0.874  18.680   6.571
 2748POPC   C3B38505   0.759  18.546   6.963
 2748POPC   C4B38506   0.961  18.477   7.353
 2749POPC   NC338507  15.283  22.192   5.504
 2749POPC   PO438508  14.962  22.511   5.954
 2749POPC   GL138509  15.097  22.104   6.049
 2749POPC   GL238510  15.384  21.934   5.935
 2749POPC   C1A38511  15.183  21.968   6.479
 2749POPC   D2A38512  15.382  22.229   6.793
 2749POPC   C3A38513  15.213  22.319   7.165
 2749POPC   C4A38514  14.829  22.142   7.238
 2749POPC   C1B38515  15.664  21.924   6.300
 2749POPC   C2B38516  15.591  21.766   6.736
 2749POPC   C3B38517  15.248  21.795   7.059
 2749POPC   C4B38518  15.241  21.942   7.509
 2750POPC   NC338519  18.342  17.498   5.321
 2750POPC   PO438520  18.478  16.866   5.378
 2750POPC   GL138521  18.460  17.197   5.732
 2750POPC   GL238522  18.142  17.386   5.799
 2750POPC   C1A38523  18.525  17.457   6.148
 2750POPC   D2A38524  18.498  17.328   6.595
 2750POPC   C3A38525  18.501  17.599   6.993
 2750POPC   C4A38526  18.549  17.670   7.467
 2750POPC   C1B38527  18.030  17.396   6.275
 2750POPC   C2B38528  18.067  17.633   6.663
 2750POPC   C3B38529  17.996  17.560   7.099
 2750POPC   C4B38530  17.773  17.221   7.294
 2751POPC   NC338531  41.203  43.815   5.564
 2751POPC   PO438532  41.748  43.482   5.504
 2751POPC   GL138533  41.595  43.734   5.898
 2751POPC   GL238534  41.326  44.027   6.002
 2751POPC   C1A38535  41.741  43.962   6.274
 2751POPC   D2A38536  41.998  44.082   6.658
 2751POPC   C3A38537  41.734  44.029   7.031
 2751POPC   C4A38538  41.355  44.104   7.201
 2751POPC   C1B38539  41.230  43.679   6.258
 2751POPC   C2B38540  41.355  43.597   6.668
 2751POPC   C3B38541  41.136  43.650   7.065
 2751POPC   C4B38542  41.335  43.653   7.460
 2752POPC   NC338543  25.801  12.381   5.543
 2752POPC   PO438544  25.946  13.048   5.522
 2752POPC   GL138545  26.095  12.817   5.871
 2752POPC   GL238546  25.833  12.561   6.028
 2752POPC   C1A38547  26.342  12.948   6.261
 2752POPC   D2A38548  26.325  12.787   6.697
 2752POPC   C3A38549  26.296  13.084   7.088
 2752POPC   C4A38550  26.209  13.175   7.561
 2752POPC   C1B38551  25.841  12.953   6.287
 2752POPC   C2B38552  25.958  13.152   6.654
 2752POPC   C3B38553  25.878  12.837   6.956
 2752POPC   C4B38554  25.875  12.859   7.382
 2753POPC   NC338555  30.091   3.201   5.171
 2753POPC   PO438556  29.761   3.736   5.244
 2753POPC   GL138557  29.987   3.613   5.679
 2753POPC   GL238558  29.999   3.256   5.760
 2753POPC   C1A38559  29.830   3.581   6.142
 2753POPC   D2A38560  29.795   3.347   6.550
 2753POPC   C3A38561  29.665   3.589   6.908
 2753POPC   C4A38562  29.670   3.401   7.273
 2753POPC   C1B38563  30.242   3.285   6.144
 2753POPC   C2B38564  30.293   3.470   6.536
 2753POPC   C3B38565  30.139   3.450   6.941
 2753POPC   C4B38566  30.271   3.474   7.342
 2754POPC   NC338567  30.339   9.040   5.545
 2754POPC   PO438568  31.084   8.795   5.421
 2754POPC   GL138569  30.802   8.828   5.786
 2754POPC   GL238570  30.506   8.601   5.814
 2754POPC   C1A38571  30.631   9.062   6.158
 2754POPC   D2A38572  30.265   9.128   6.409
 2754POPC   C3A38573  30.388   9.109   6.829
 2754POPC   C4A38574  30.367   9.012   7.230
 2754POPC   C1B38575  30.670   8.551   6.219
 2754POPC   C2B38576  30.568   8.655   6.617
 2754POPC   C3B38577  30.682   8.656   7.024
 2754POPC   C4B38578  30.965   8.607   7.321
 2755POPC   NC338579  24.757  24.668   5.184
 2755POPC   PO438580  24.204  24.345   5.256
 2755POPC   GL138581  24.336  24.503   5.664
 2755POPC   GL238582  24.632  24.651   5.704
 2755POPC   C1A38583  24.333  24.632   6.107
 2755POPC   D2A38584  24.440  24.527   6.546
 2755POPC   C3A38585  24.338  24.839   6.864
 2755POPC   C4A38586  24.320  24.925   7.308
 2755POPC   C1B38587  24.767  24.386   6.098
 2755POPC   C2B38588  24.911  24.296   6.529
 2755POPC   C3B38589  24.736  24.209   6.917
 2755POPC   C4B38590  24.572  24.504   7.178
 2756POPC   NC338591  29.714  32.863   5.388
 2756POPC   PO438592  30.388  33.077   5.329
 2756POPC   GL138593  30.084  33.052   5.703
 2756POPC   GL238594  29.855  33.340   5.585
 2756POPC   C1A38595  29.859  32.914   6.164
 2756POPC   D2A38596  29.565  32.953   6.574
 2756POPC   C3A38597  29.700  32.922   7.027
 2756POPC   C4A38598  30.096  32.798   7.199
 2756POPC   C1B38599  29.907  33.398   6.021
 2756POPC   C2B38600  29.956  33.349   6.447
 2756POPC   C3B38601  29.896  33.376   6.874
 2756POPC   C4B38602  30.050  33.326   7.275
 2757POPC   NC338603  11.665  33.905   5.420
 2757POPC   PO438604  11.087  33.509   5.438
 2757POPC   GL138605  11.146  33.711   5.829
 2757POPC   GL238606  11.320  34.023   5.825
 2757POPC   C1A38607  10.951  33.670   6.230
 2757POPC   D2A38608  10.997  33.515   6.651
 2757POPC   C3A38609  11.242  33.738   6.952
 2757POPC   C4A38610  11.204  33.602   7.362
 2757POPC   C1B38611  11.411  33.892   6.259
 2757POPC   C2B38612  11.619  33.908   6.644
 2757POPC   C3B38613  11.628  34.131   7.021
 2757POPC   C4B38614  11.296  34.119   7.293
 2758POPC   NC338615  24.870  41.601   5.293
 2758POPC   PO438616  24.217  41.555   5.122
 2758POPC   GL138617  24.277  41.519   5.621
 2758POPC   GL238618  24.627  41.520   5.745
 2758POPC   C1A38619  24.244  41.452   6.091
 2758POPC   D2A38620  24.365  41.628   6.505
 2758POPC   C3A38621  24.213  41.772   6.910
 2758POPC   C4A38622  24.423  41.785   7.320
 2758POPC   C1B38623  24.753  41.302   6.145
 2758POPC   C2B38624  24.838  41.425   6.577
 2758POPC   C3B38625  24.702  41.510   6.983
 2758POPC   C4B38626  24.900  41.372   7.369
 2759POPC   NC338627  29.498  18.052   5.123
 2759POPC   PO438628  29.725  18.566   5.540
 2759POPC   GL138629  30.015  18.436   5.830
 2759POPC   GL238630  30.160  18.090   5.832
 2759POPC   C1A38631  29.975  18.329   6.255
 2759POPC   D2A38632  30.069  18.231   6.665
 2759POPC   C3A38633  29.849  18.360   7.057
 2759POPC   C4A38634  29.521  18.177   7.354
 2759POPC   C1B38635  30.335  17.874   6.220
 2759POPC   C2B38636  30.430  17.827   6.689
 2759POPC   C3B38637  30.164  17.918   7.055
 2759POPC   C4B38638  30.055  18.155   7.482
 2760POPC   NC338639  30.327   6.623   5.358
 2760POPC   PO438640  29.698   6.426   5.277
 2760POPC   GL138641  29.909   6.613   5.647
 2760POPC   GL238642  29.925   6.370   5.904
 2760POPC   C1A38643  30.110   6.811   6.034
 2760POPC   D2A38644  30.125   6.912   6.505
 2760POPC   C3A38645  29.803   6.688   6.810
 2760POPC   C4A38646  29.802   6.398   7.161
 2760POPC   C1B38647  30.140   6.198   6.245
 2760POPC   C2B38648  30.183   6.405   6.631
 2760POPC   C3B38649  30.280   6.709   6.974
 2760POPC   C4B38650  30.292   6.453   7.274
 2761POPC   NC338651   0.824   2.246   5.509
 2761POPC   PO438652   0.232   1.798   5.492
 2761POPC   GL138653   0.400   1.944   5.877
 2761POPC   GL238654   0.766   1.919   5.908
 2761POPC   C1A38655   0.516   2.210   6.242
 2761POPC   D2A38656   0.271   2.355   6.593
 2761POPC   C3A38657   0.352   2.053   6.901
 2761POPC   C4A38658   0.489   2.179   7.285
 2761POPC   C1B38659   0.613   1.649   6.230
 2761POPC   C2B38660   0.522   1.575   6.681
 2761POPC   C3B38661   0.734   1.746   7.060
 2761POPC   C4B38662   0.829   1.872   7.498
 2762POPC   NC338663   0.552  32.564   5.383
 2762POPC   PO438664  44.933  32.404   5.527
 2762POPC   GL138665   0.315  32.347   5.821
 2762POPC   GL238666   0.648  32.185   5.765
 2762POPC   C1A38667   0.505  32.420   6.248
 2762POPC   D2A38668   0.747  32.593   6.600
 2762POPC   C3A38669   0.661  32.449   7.002
 2762POPC   C4A38670   0.308  32.243   7.180
 2762POPC   C1B38671   0.808  32.010   6.144
 2762POPC   C2B38672   0.832  32.081   6.581
 2762POPC   C3B38673   0.645  31.923   6.948
 2762POPC   C4B38674   0.734  32.011   7.389
 2763POPC   NC338675  42.789  32.263   5.464
 2763POPC   PO438676  42.109  32.406   5.325
 2763POPC   GL138677  42.292  32.204   5.694
 2763POPC   GL238678  42.483  32.490   5.825
 2763POPC   C1A38679  42.300  32.149   6.164
 2763POPC   D2A38680  42.128  32.396   6.532
 2763POPC   C3A38681  42.320  32.348   6.957
 2763POPC   C4A38682  42.381  31.962   7.205
 2763POPC   C1B38683  42.585  32.553   6.281
 2763POPC   C2B38684  42.698  32.257   6.622
 2763POPC   C3B38685  42.804  32.207   7.071
 2763POPC   C4B38686  42.568  32.373   7.451
 2764POPC   NC338687  20.013  24.680   5.130
 2764POPC   PO438688  19.598  24.269   5.423
 2764POPC   GL138689  19.909  24.455   5.668
 2764POPC   GL238690  19.647  24.610   5.824
 2764POPC   C1A38691  20.065  24.468   6.107
 2764POPC   D2A38692  19.901  24.619   6.520
 2764POPC   C3A38693  20.095  24.561   6.926
 2764POPC   C4A38694  20.122  24.925   7.201
 2764POPC   C1B38695  19.560  24.389   6.209
 2764POPC   C2B38696  19.487  24.334   6.655
 2764POPC   C3B38697  19.623  24.342   7.101
 2764POPC   C4B38698  19.831  24.104   7.462
 2765POPC   NC338699  13.813  38.817   5.008
 2765POPC   PO438700  13.623  38.241   5.285
 2765POPC   GL138701  13.756  38.307   5.784
 2765POPC   GL238702  13.911  38.647   5.919
 2765POPC   C1A38703  13.608  38.374   6.264
 2765POPC   D2A38704  13.308  38.305   6.656
 2765POPC   C3A38705  13.370  38.532   7.052
 2765POPC   C4A38706  13.714  38.523   7.329
 2765POPC   C1B38707  13.972  38.746   6.388
 2765POPC   C2B38708  13.911  38.633   6.846
 2765POPC   C3B38709  14.174  38.669   7.236
 2765POPC   C4B38710  13.981  38.801   7.650
 2766POPC   NC338711   1.635   8.133   4.935
 2766POPC   PO438712   2.101   8.169   5.424
 2766POPC   GL138713   1.939   8.016   5.775
 2766POPC   GL238714   1.878   8.303   5.945
 2766POPC   C1A38715   2.136   7.958   6.229
 2766POPC   D2A38716   2.283   8.205   6.586
 2766POPC   C3A38717   2.197   8.164   7.041
 2766POPC   C4A38718   2.172   8.381   7.428
 2766POPC   C1B38719   1.634   7.909   6.154
 2766POPC   C2B38720   1.501   7.869   6.571
 2766POPC   C3B38721   1.707   8.037   6.911
 2766POPC   C4B38722   1.723   8.208   7.314
 2767POPC   NC338723  37.802  30.569   5.334
 2767POPC   PO438724  37.252  31.025   5.414
 2767POPC   GL138725  37.505  30.804   5.740
 2767POPC   GL238726  37.889  30.731   5.810
 2767POPC   C1A38727  37.520  30.637   6.152
 2767POPC   D2A38728  37.630  30.863   6.520
 2767POPC   C3A38729  37.409  30.831   6.910
 2767POPC   C4A38730  37.563  30.700   7.306
 2767POPC   C1B38731  38.092  31.008   6.129
 2767POPC   C2B38732  38.142  31.130   6.545
 2767POPC   C3B38733  37.950  30.966   6.905
 2767POPC   C4B38734  37.811  31.165   7.249
 2768POPC   NC338735  40.804   4.756   5.474
 2768POPC   PO438736  40.607   5.405   5.376
 2768POPC   GL138737  40.568   5.329   5.799
 2768POPC   GL238738  40.501   4.983   5.812
 2768POPC   C1A38739  40.879   5.254   6.131
 2768POPC   D2A38740  40.935   4.936   6.481
 2768POPC   C3A38741  41.096   5.014   6.882
 2768POPC   C4A38742  41.148   5.164   7.277
 2768POPC   C1B38743  40.495   4.943   6.207
 2768POPC   C2B38744  40.520   5.280   6.485
 2768POPC   C3B38745  40.710   5.348   6.839
 2768POPC   C4B38746  40.652   5.075   7.173
 2769POPC   NC338747  29.648  40.404   5.426
 2769POPC   PO438748  29.142  40.948   5.411
 2769POPC   GL138749  28.955  40.777   5.777
 2769POPC   GL238750  29.275  40.862   5.958
 2769POPC   C1A38751  28.842  40.818   6.210
 2769POPC   D2A38752  29.207  40.834   6.505
 2769POPC   C3A38753  29.097  40.659   6.905
 2769POPC   C4A38754  28.800  40.784   7.209
 2769POPC   C1B38755  29.196  40.451   6.127
 2769POPC   C2B38756  29.235  40.311   6.540
 2769POPC   C3B38757  29.513  40.315   6.886
 2769POPC   C4B38758  29.484  40.582   7.250
 2770POPC   NC338759  39.593   4.679   5.438
 2770POPC   PO438760  40.331   4.649   5.460
 2770POPC   GL138761  40.364   4.483   5.870
 2770POPC   GL238762  40.034   4.373   5.949
 2770POPC   C1A38763  40.374   4.464   6.315
 2770POPC   D2A38764  40.116   4.368   6.615
 2770POPC   C3A38765  40.265   4.278   6.998
 2770POPC   C4A38766  39.869   4.372   7.190
 2770POPC   C1B38767  40.126   4.012   6.246
 2770POPC   C2B38768  40.054   3.863   6.700
 2770POPC   C3B38769  39.990   3.872   7.166
 2770POPC   C4B38770  39.878   3.834   7.626
 2771POPC   NC338771  18.478  33.170   5.378
 2771POPC   PO438772  17.805  33.119   5.573
 2771POPC   GL138773  18.041  32.966   5.912
 2771POPC   GL238774  18.388  33.087   5.867
 2771POPC   C1A38775  17.951  32.889   6.352
 2771POPC   D2A38776  18.189  32.813   6.708
 2771POPC   C3A38777  18.061  33.025   7.085
 2771POPC   C4A38778  17.998  32.767   7.442
 2771POPC   C1B38779  18.510  32.967   6.273
 2771POPC   C2B38780  18.687  32.809   6.639
 2771POPC   C3B38781  18.593  33.035   6.971
 2771POPC   C4B38782  18.475  32.871   7.367
 2772POPC   NC338783  38.653  20.047   5.557
 2772POPC   PO438784  38.273  19.518   5.549
 2772POPC   GL138785  38.368  19.750   5.888
 2772POPC   GL238786  38.294  20.114   5.903
 2772POPC   C1A38787  38.218  19.667   6.290
 2772POPC   D2A38788  38.240  19.424   6.635
 2772POPC   C3A38789  38.194  19.658   6.991
 2772POPC   C4A38790  38.499  19.731   7.290
 2772POPC   C1B38791  38.579  20.024   6.262
 2772POPC   C2B38792  38.581  19.858   6.669
 2772POPC   C3B38793  38.722  20.076   7.018
 2772POPC   C4B38794  38.383  20.228   7.302
 2773POPC   NC338795  38.872  29.337   5.326
 2773POPC   PO438796  39.410  28.929   5.342
 2773POPC   GL138797  39.118  29.004   5.687
 2773POPC   GL238798  39.184  29.336   5.776
 2773POPC   C1A38799  39.220  28.971   6.127
 2773POPC   D2A38800  39.298  29.121   6.549
 2773POPC   C3A38801  39.391  28.971   6.972
 2773POPC   C4A38802  39.195  29.054   7.367
 2773POPC   C1B38803  38.975  29.433   6.202
 2773POPC   C2B38804  38.822  29.276   6.624
 2773POPC   C3B38805  39.043  29.391   6.995
 2773POPC   C4B38806  38.991  29.557   7.418
 2774POPC   NC338807  40.833  31.924   5.414
 2774POPC   PO438808  40.640  32.615   5.289
 2774POPC   GL138809  40.696  32.482   5.726
 2774POPC   GL238810  40.567  32.162   5.790
 2774POPC   C1A38811  40.942  32.368   6.121
 2774POPC   D2A38812  41.065  32.375   6.564
 2774POPC   C3A38813  40.859  32.398   7.006
 2774POPC   C4A38814  41.051  32.244   7.397
 2774POPC   C1B38815  40.437  32.370   6.174
 2774POPC   C2B38816  40.550  32.542   6.594
 2774POPC   C3B38817  40.308  32.517   7.008
 2774POPC   C4B38818  40.425  32.526   7.426
 2775POPC   NC338819   0.278  40.629   5.223
 2775POPC   PO438820   0.281  39.923   5.280
 2775POPC   GL138821   0.426  40.025   5.687
 2775POPC   GL238822   0.149  40.224   5.773
 2775POPC   C1A38823   0.633  39.818   6.056
 2775POPC   D2A38824   0.471  39.723   6.475
 2775POPC   C3A38825   0.599  39.695   6.927
 2775POPC   C4A38826   0.414  39.801   7.340
 2775POPC   C1B38827   0.201  40.079   6.213
 2775POPC   C2B38828   0.321  40.162   6.681
 2775POPC   C3B38829   0.216  40.237   7.130
 2775POPC   C4B38830   0.365  40.285   7.577
 2776POPC   NC338831  43.527  30.942   5.054
 2776POPC   PO438832  43.967  30.736   5.555
 2776POPC   GL138833  44.010  30.711   5.952
 2776POPC   GL238834  44.283  30.942   5.950
 2776POPC   C1A38835  43.706  30.584   6.263
 2776POPC   D2A38836  43.817  30.458   6.665
 2776POPC   C3A38837  43.694  30.554   7.094
 2776POPC   C4A38838  43.940  30.489   7.472
 2776POPC   C1B38839  44.310  31.156   6.334
 2776POPC   C2B38840  44.368  31.030   6.735
 2776POPC   C3B38841  44.058  30.938   7.027
 2776POPC   C4B38842  43.920  31.204   7.314
 2777POPC   NC338843  40.563  28.589   5.396
 2777POPC   PO438844  41.155  28.296   5.417
 2777POPC   GL138845  40.856  28.345   5.741
 2777POPC   GL238846  40.899  28.061   5.941
 2777POPC   C1A38847  40.760  28.511   6.150
 2777POPC   D2A38848  40.443  28.356   6.463
 2777POPC   C3A38849  40.640  28.311   6.868
 2777POPC   C4A38850  40.852  28.417   7.228
 2777POPC   C1B38851  41.114  28.148   6.304
 2777POPC   C2B38852  41.111  28.386   6.660
 2777POPC   C3B38853  41.243  28.173   7.021
 2777POPC   C4B38854  41.091  28.021   7.442
 2778POPC   NC338855  33.688  33.644   5.493
 2778POPC   PO438856  34.252  33.941   5.394
 2778POPC   GL138857  33.997  33.979   5.793
 2778POPC   GL238858  33.681  34.173   5.838
 2778POPC   C1A38859  33.785  33.801   6.179
 2778POPC   D2A38860  33.632  33.514   6.505
 2778POPC   C3A38861  33.886  33.560   6.884
 2778POPC   C4A38862  33.664  33.665   7.251
 2778POPC   C1B38863  33.457  34.246   6.213
 2778POPC   C2B38864  33.519  34.046   6.626
 2778POPC   C3B38865  33.769  34.097   7.026
 2778POPC   C4B38866  33.722  34.087   7.516
 2779POPC   NC338867  20.351  44.320   5.606
 2779POPC   PO438868  20.634  43.743   5.384
 2779POPC   GL138869  20.502  43.872   5.820
 2779POPC   GL238870  20.755  44.031   5.875
 2779POPC   C1A38871  20.635  43.734   6.261
 2779POPC   D2A38872  20.769  43.951   6.644
 2779POPC   C3A38873  20.592  43.876   7.047
 2779POPC   C4A38874  20.649  43.665   7.454
 2779POPC   C1B38875  20.517  44.243   6.251
 2779POPC   C2B38876  20.315  44.219   6.644
 2779POPC   C3B38877  20.419  44.346   7.054
 2779POPC   C4B38878  20.678  44.280   7.394
 2780POPC   NC338879  41.099   1.585   5.504
 2780POPC   PO438880  41.266   0.885   5.360
 2780POPC   GL138881  41.262   1.101   5.763
 2780POPC   GL238882  41.522   1.361   5.738
 2780POPC   C1A38883  41.429   1.007   6.210
 2780POPC   D2A38884  41.793   0.905   6.506
 2780POPC   C3A38885  41.728   1.065   6.946
 2780POPC   C4A38886  41.314   1.072   7.072
 2780POPC   C1B38887  41.772   1.388   6.147
 2780POPC   C2B38888  41.574   1.392   6.552
 2780POPC   C3B38889  41.347   1.557   6.890
 2780POPC   C4B38890  41.617   1.519   7.192
 2781POPC   NC338891  17.707  33.603   5.070
 2781POPC   PO438892  17.186  33.675   5.575
 2781POPC   GL138893  17.389  33.828   5.904
 2781POPC   GL238894  17.733  33.955   5.868
 2781POPC   C1A38895  17.331  33.763   6.304
 2781POPC   D2A38896  17.253  34.013   6.605
 2781POPC   C3A38897  17.318  33.753   6.923
 2781POPC   C4A38898  17.259  33.908   7.280
 2781POPC   C1B38899  17.836  33.762   6.246
 2781POPC   C2B38900  17.779  33.751   6.706
 2781POPC   C3B38901  17.930  33.877   7.132
 2781POPC   C4B38902  18.057  33.601   7.459
 2782POPC   NC338903  35.717  42.099   5.336
 2782POPC   PO438904  35.361  41.515   5.343
 2782POPC   GL138905  35.460  41.559   5.775
 2782POPC   GL238906  35.631  41.870   5.786
 2782POPC   C1A38907  35.307  41.459   6.183
 2782POPC   D2A38908  35.102  41.554   6.574
 2782POPC   C3A38909  35.356  41.429   6.894
 2782POPC   C4A38910  35.348  41.347   7.279
 2782POPC   C1B38911  35.738  41.745   6.199
 2782POPC   C2B38912  35.526  41.870   6.577
 2782POPC   C3B38913  35.464  41.923   7.016
 2782POPC   C4B38914  35.733  41.684   7.269
 2783POPC   NC338915   8.238  30.085   5.302
 2783POPC   PO438916   7.697  29.780   5.275
 2783POPC   GL138917   8.043  29.784   5.655
 2783POPC   GL238918   8.114  30.115   5.842
 2783POPC   C1A38919   8.225  29.658   6.065
 2783POPC   D2A38920   7.958  29.633   6.446
 2783POPC   C3A38921   8.034  29.903   6.818
 2783POPC   C4A38922   8.369  29.789   7.092
 2783POPC   C1B38923   8.191  30.085   6.329
 2783POPC   C2B38924   8.479  30.116   6.689
 2783POPC   C3B38925   8.298  30.286   7.090
 2783POPC   C4B38926   7.942  30.188   7.382
 2784POPC   NC338927  26.339  27.630   5.561
 2784POPC   PO438928  26.748  27.247   5.265
 2784POPC   GL138929  26.792  27.457   5.712
 2784POPC   GL238930  27.060  27.243   5.763
 2784POPC   C1A38931  26.635  27.697   6.142
 2784POPC   D2A38932  26.486  27.848   6.568
 2784POPC   C3A38933  26.651  27.689   6.953
 2784POPC   C4A38934  26.912  27.590   7.293
 2784POPC   C1B38935  26.958  27.272   6.159
 2784POPC   C2B38936  26.884  27.450   6.541
 2784POPC   C3B38937  27.131  27.417   6.881
 2784POPC   C4B38938  27.083  27.118   7.189
 2785POPC   NC338939  37.499  18.745   5.673
 2785POPC   PO438940  37.944  19.089   5.285
 2785POPC   GL138941  37.965  19.111   5.745
 2785POPC   GL238942  37.655  19.265   5.909
 2785POPC   C1A38943  37.946  18.914   6.155
 2785POPC   D2A38944  37.822  19.145   6.491
 2785POPC   C3A38945  37.883  18.944   6.854
 2785POPC   C4A38946  37.826  19.289   7.092
 2785POPC   C1B38947  37.358  19.116   6.257
 2785POPC   C2B38948  37.377  18.886   6.682
 2785POPC   C3B38949  37.448  18.933   7.139
 2785POPC   C4B38950  37.365  18.833   7.585
 2786POPC   NC338951   4.166   2.323   5.341
 2786POPC   PO438952   4.280   1.646   5.129
 2786POPC   GL138953   4.288   1.841   5.543
 2786POPC   GL238954   4.631   1.885   5.721
 2786POPC   C1A38955   4.186   1.943   5.986
 2786POPC   D2A38956   4.318   1.850   6.429
 2786POPC   C3A38957   4.323   2.086   6.833
 2786POPC   C4A38958   4.212   2.038   7.259
 2786POPC   C1B38959   4.595   2.227   6.074
 2786POPC   C2B38960   4.648   2.363   6.515
 2786POPC   C3B38961   4.837   2.173   6.877
 2786POPC   C4B38962   4.704   2.030   7.260
 2787POPC   NC338963  44.090  27.753   5.450
 2787POPC   PO438964  43.422  27.720   5.572
 2787POPC   GL138965  43.538  27.772   5.947
 2787POPC   GL238966  43.895  27.692   5.919
 2787POPC   C1A38967  43.634  27.687   6.370
 2787POPC   D2A38968  43.854  27.845   6.696
 2787POPC   C3A38969  43.729  27.760   7.094
 2787POPC   C4A38970  43.481  27.424   7.288
 2787POPC   C1B38971  44.109  27.518   6.296
 2787POPC   C2B38972  44.312  27.626   6.684
 2787POPC   C3B38973  44.227  27.476   7.083
 2787POPC   C4B38974  43.965  27.351   7.388
 2788POPC   NC338975  22.554  41.356   5.415
 2788POPC   PO438976  22.999  41.852   5.310
 2788POPC   GL138977  23.042  41.675   5.780
 2788POPC   GL238978  22.765  41.542   5.836
 2788POPC   C1A38979  22.851  41.817   6.244
 2788POPC   D2A38980  22.703  41.739   6.659
 2788POPC   C3A38981  23.064  41.818   6.928
 2788POPC   C4A38982  22.975  42.138   7.199
 2788POPC   C1B38983  22.917  41.302   6.187
 2788POPC   C2B38984  22.974  41.332   6.624
 2788POPC   C3B38985  22.898  41.355   7.060
 2788POPC   C4B38986  22.709  41.316   7.486
 2789POPC   NC338987  12.980  17.830   5.394
 2789POPC   PO438988  12.422  17.583   5.714
 2789POPC   GL138989  12.865  17.435   5.778
 2789POPC   GL238990  13.137  17.686   5.841
 2789POPC   C1A38991  13.067  17.283   6.168
 2789POPC   D2A38992  12.929  17.464   6.547
 2789POPC   C3A38993  13.072  17.364   6.945
 2789POPC   C4A38994  12.790  17.508   7.227
 2789POPC   C1B38995  13.103  17.852   6.226
 2789POPC   C2B38996  13.255  17.847   6.628
 2789POPC   C3B38997  13.118  17.879   7.040
 2789POPC   C4B38998  13.202  17.705   7.413
 2790POPC   NC338999   1.123  32.864   5.462
 2790POPC   PO439000   1.615  33.396   5.356
 2790POPC   GL139001   1.355  33.225   5.713
 2790POPC   GL239002   1.005  33.256   5.766
 2790POPC   C1A39003   1.372  33.047   6.145
 2790POPC   D2A39004   1.566  33.094   6.560
 2790POPC   C3A39005   1.350  32.956   6.936
 2790POPC   C4A39006   1.510  32.968   7.340
 2790POPC   C1B39007   0.850  33.125   6.146
 2790POPC   C2B39008   0.981  33.041   6.542
 2790POPC   C3B39009   0.923  33.220   6.914
 2790POPC   C4B39010   1.090  33.262   7.298
 2791POPC   NC339011  31.551  16.355   5.445
 2791POPC   PO439012  31.185  15.839   5.434
 2791POPC   GL139013  31.389  16.003   5.798
 2791POPC   GL239014  31.784  16.044   5.783
 2791POPC   C1A39015  31.486  15.820   6.197
 2791POPC   D2A39016  31.381  15.651   6.578
 2791POPC   C3A39017  31.601  15.608   6.927
 2791POPC   C4A39018  31.502  15.928   7.189
 2791POPC   C1B39019  31.833  16.182   6.226
 2791POPC   C2B39020  31.738  16.078   6.665
 2791POPC   C3B39021  31.970  15.993   7.047
 2791POPC   C4B39022  31.952  15.608   7.309
 2792POPC   NC339023   0.484  14.891   5.214
 2792POPC   PO439024   0.268  14.370   5.231
 2792POPC   GL139025   0.377  14.181   5.669
 2792POPC   GL239026   0.714  14.275   5.805
 2792POPC   C1A39027   0.328  14.197   6.159
 2792POPC   D2A39028   0.343  14.485   6.548
 2792POPC   C3A39029   0.236  14.344   6.991
 2792POPC   C4A39030   0.374  14.334   7.446
 2792POPC   C1B39031   0.768  14.444   6.238
 2792POPC   C2B39032   0.766  14.203   6.633
 2792POPC   C3B39033   0.759  14.272   7.103
 2792POPC   C4B39034   0.878  14.444   7.540
 2793POPC   NC339035   3.035  41.751   5.249
 2793POPC   PO439036   2.419  41.701   5.459
 2793POPC   GL139037   2.585  41.467   5.754
 2793POPC   GL239038   2.305  41.272   5.796
 2793POPC   C1A39039   2.754  41.572   6.144
 2793POPC   D2A39040   2.693  41.883   6.437
 2793POPC   C3A39041   2.826  41.773   6.850
 2793POPC   C4A39042   2.574  41.803   7.229
 2793POPC   C1B39043   2.616  41.079   6.119
 2793POPC   C2B39044   2.879  41.209   6.498
 2793POPC   C3B39045   2.802  41.254   6.940
 2793POPC   C4B39046   3.011  41.492   7.251
 2794POPC   NC339047   3.064  18.215   5.276
 2794POPC   PO439048   2.478  18.237   5.695
 2794POPC   GL139049   2.664  18.534   5.939
 2794POPC   GL239050   2.975  18.497   5.776
 2794POPC   C1A39051   2.657  18.647   6.388
 2794POPC   D2A39052   2.415  18.791   6.750
 2794POPC   C3A39053   2.558  18.551   7.099
 2794POPC   C4A39054   2.651  18.136   7.109
 2794POPC   C1B39055   3.042  18.291   6.223
 2794POPC   C2B39056   3.049  18.301   6.706
 2794POPC   C3B39057   3.108  18.387   7.157
 2794POPC   C4B39058   3.274  18.386   7.585
 2795POPC   NC339059  23.639  43.576   5.428
 2795POPC   PO439060  23.374  44.217   5.502
 2795POPC   GL139061  23.681  43.999   5.825
 2795POPC   GL239062  23.897  43.671   5.852
 2795POPC   C1A39063  23.908  43.996   6.234
 2795POPC   D2A39064  23.975  43.738   6.616
 2795POPC   C3A39065  23.811  44.034   6.941
 2795POPC   C4A39066  23.476  44.010   7.260
 2795POPC   C1B39067  23.528  43.557   6.153
 2795POPC   C2B39068  23.346  43.485   6.594
 2795POPC   C3B39069  23.567  43.568   7.011
 2795POPC   C4B39070  24.035  43.614   7.128
 2796POPC   NC339071   7.384   2.484   5.611
 2796POPC   PO439072   7.205   3.031   5.165
 2796POPC   GL139073   7.282   3.040   5.677
 2796POPC   GL239074   7.618   2.912   5.821
 2796POPC   C1A39075   7.284   3.087   6.166
 2796POPC   D2A39076   7.351   2.810   6.519
 2796POPC   C3A39077   7.301   2.885   6.975
 2796POPC   C4A39078   7.264   2.990   7.438
 2796POPC   C1B39079   7.804   2.863   6.270
 2796POPC   C2B39080   7.792   2.897   6.763
 2796POPC   C3B39081   7.723   2.677   7.175
 2796POPC   C4B39082   7.433   2.535   7.511
 2797POPC   NC339083  33.955  15.819   5.456
 2797POPC   PO439084  33.351  15.464   5.516
 2797POPC   GL139085  33.559  15.760   5.764
 2797POPC   GL239086  33.781  15.514   5.862
 2797POPC   C1A39087  33.787  16.018   6.094
 2797POPC   D2A39088  33.735  16.190   6.505
 2797POPC   C3A39089  33.845  16.062   6.924
 2797POPC   C4A39090  33.804  16.256   7.319
 2797POPC   C1B39091  33.562  15.594   6.245
 2797POPC   C2B39092  33.641  15.671   6.642
 2797POPC   C3B39093  33.515  15.486   7.010
 2797POPC   C4B39094  33.748  15.516   7.392
 2798POPC   NC339095  42.852  37.862   5.463
 2798POPC   PO439096  42.147  37.856   5.379
 2798POPC   GL139097  42.440  37.700   5.721
 2798POPC   GL239098  42.421  37.340   5.761
 2798POPC   C1A39099  42.720  37.750   6.120
 2798POPC   D2A39100  42.811  37.920   6.558
 2798POPC   C3A39101  42.618  37.895   6.979
 2798POPC   C4A39102  42.785  37.790   7.384
 2798POPC   C1B39103  42.262  37.535   6.186
 2798POPC   C2B39104  42.207  37.741   6.635
 2798POPC   C3B39105  42.243  37.567   7.088
 2798POPC   C4B39106  42.562  37.337   7.357
 2799POPC   NC339107   0.139   8.478   5.112
 2799POPC   PO439108   0.445   9.108   5.353
 2799POPC   GL139109   0.518   8.830   5.738
 2799POPC   GL239110   0.841   8.719   5.813
 2799POPC   C1A39111   0.417   8.717   6.190
 2799POPC   D2A39112   0.430   8.904   6.631
 2799POPC   C3A39113   0.454   8.714   7.069
 2799POPC   C4A39114   0.209   8.858   7.462
 2799POPC   C1B39115   0.805   9.051   6.130
 2799POPC   C2B39116   0.911   9.091   6.574
 2799POPC   C3B39117   0.902   9.015   7.029
 2799POPC   C4B39118   0.973   8.603   7.153
 2800POPC   NC339119  14.013  31.562   5.380
 2800POPC   PO439120  14.612  31.311   5.365
 2800POPC   GL139121  14.500  31.313   5.810
 2800POPC   GL239122  14.150  31.433   5.887
 2800POPC   C1A39123  14.488  31.383   6.284
 2800POPC   D2A39124  14.407  31.362   6.746
 2800POPC   C3A39125  14.638  31.645   7.015
 2800POPC   C4A39126  14.587  31.653   7.463
 2800POPC   C1B39127  14.227  31.811   6.182
 2800POPC   C2B39128  14.323  31.879   6.656
 2800POPC   C3B39129  14.144  31.785   7.108
 2800POPC   C4B39130  14.069  31.971   7.565
 2801POPC   NC339131  18.895  37.031   5.442
 2801POPC   PO439132  19.436  36.757   5.461
 2801POPC   GL139133  19.145  36.800   5.821
 2801POPC   GL239134  19.101  37.131   5.903
 2801POPC   C1A39135  18.879  36.779   6.210
 2801POPC   D2A39136  18.662  36.727   6.569
 2801POPC   C3A39137  18.866  36.803   6.969
 2801POPC   C4A39138  18.909  36.700   7.411
 2801POPC   C1B39139  18.916  37.278   6.281
 2801POPC   C2B39140  18.749  37.232   6.687
 2801POPC   C3B39141  19.024  37.266   7.065
 2801POPC   C4B39142  19.029  37.232   7.510
 2802POPC   NC339143  29.365  22.682   5.449
 2802POPC   PO439144  29.933  23.130   5.366
 2802POPC   GL139145  29.960  22.826   5.741
 2802POPC   GL239146  29.678  22.616   5.841
 2802POPC   C1A39147  30.030  22.811   6.199
 2802POPC   D2A39148  30.196  22.918   6.603
 2802POPC   C3A39149  29.984  22.686   6.914
 2802POPC   C4A39150  29.785  22.582   7.289
 2802POPC   C1B39151  29.511  22.841   6.184
 2802POPC   C2B39152  29.664  22.966   6.596
 2802POPC   C3B39153  29.500  22.917   7.026
 2802POPC   C4B39154  29.554  22.999   7.488
 2803POPC   NC339155  25.351  44.568   5.237
 2803POPC   PO439156  25.539   0.201   5.267
 2803POPC   GL139157  25.398  44.857   5.645
 2803POPC   GL239158  25.036  44.785   5.677
 2803POPC   C1A39159  25.475  44.679   6.095
 2803POPC   D2A39160  25.672  44.673   6.528
 2803POPC   C3A39161  25.515  44.579   6.904
 2803POPC   C4A39162  25.435  44.765   7.303
 2803POPC   C1B39163  25.017  44.927   6.124
 2803POPC   C2B39164  24.971  44.782   6.541
 2803POPC   C3B39165  24.999  44.780   6.991
 2803POPC   C4B39166  25.137  44.386   7.175
 2804POPC   NC339167  40.657  42.718   5.116
 2804POPC   PO439168  40.960  42.140   5.321
 2804POPC   GL139169  40.992  42.320   5.725
 2804POPC   GL239170  40.715  42.544   5.639
 2804POPC   C1A39171  40.843  42.211   6.159
 2804POPC   D2A39172  40.539  42.313   6.510
 2804POPC   C3A39173  40.799  42.230   6.889
 2804POPC   C4A39174  40.748  42.094   7.291
 2804POPC   C1B39175  40.602  42.652   6.075
 2804POPC   C2B39176  40.741  42.766   6.512
 2804POPC   C3B39177  40.541  42.648   6.914
 2804POPC   C4B39178  40.469  42.503   7.321
 2805POPC   NC339179  27.891  36.245   5.432
 2805POPC   PO439180  27.358  35.929   5.368
 2805POPC   GL139181  27.508  36.203   5.760
 2805POPC   GL239182  27.756  36.501   5.843
 2805POPC   C1A39183  27.698  36.120   6.178
 2805POPC   D2A39184  27.508  36.237   6.572
 2805POPC   C3A39185  27.618  36.138   6.982
 2805POPC   C4A39186  27.667  35.782   7.220
 2805POPC   C1B39187  27.453  36.564   6.168
 2805POPC   C2B39188  27.336  36.728   6.578
 2805POPC   C3B39189  27.463  36.647   6.973
 2805POPC   C4B39190  27.461  36.480   7.338
 2806POPC   NC339191  43.763  29.418   5.134
 2806POPC   PO439192  44.249  29.005   5.262
 2806POPC   GL139193  44.069  29.157   5.682
 2806POPC   GL239194  43.865  29.461   5.685
 2806POPC   C1A39195  43.931  29.050   6.102
 2806POPC   D2A39196  44.051  29.231   6.513
 2806POPC   C3A39197  44.006  29.088   6.936
 2806POPC   C4A39198  43.636  29.183   7.139
 2806POPC   C1B39199  43.803  29.554   6.130
 2806POPC   C2B39200  43.737  29.720   6.540
 2806POPC   C3B39201  43.823  29.619   6.955
 2806POPC   C4B39202  43.968  29.554   7.376
 2807POPC   NC339203  15.921  37.192   5.274
 2807POPC   PO439204  16.246  36.812   5.721
 2807POPC   GL139205  15.847  36.839   5.842
 2807POPC   GL239206  15.762  37.175   5.776
 2807POPC   C1A39207  15.664  36.785   6.230
 2807POPC   D2A39208  15.474  36.551   6.537
 2807POPC   C3A39209  15.714  36.590   6.895
 2807POPC   C4A39210  15.899  36.915   7.167
 2807POPC   C1B39211  15.935  37.250   6.207
 2807POPC   C2B39212  16.052  37.119   6.665
 2807POPC   C3B39213  16.110  37.355   7.065
 2807POPC   C4B39214  16.160  37.184   7.525
 2808POPC   NC339215  35.545   5.231   5.463
 2808POPC   PO439216  34.965   4.820   5.517
 2808POPC   GL139217  35.205   5.069   5.798
 2808POPC   GL239218  35.480   4.870   5.852
 2808POPC   C1A39219  35.295   5.320   6.166
 2808POPC   D2A39220  34.977   5.434   6.481
 2808POPC   C3A39221  35.009   5.389   6.946
 2808POPC   C4A39222  35.236   5.211   7.291
 2808POPC   C1B39223  35.357   4.844   6.297
 2808POPC   C2B39224  35.549   5.102   6.638
 2808POPC   C3B39225  35.612   4.973   7.075
 2808POPC   C4B39226  35.521   4.568   7.298
 2809POPC   NC339227  20.617  16.198   5.540
 2809POPC   PO439228  20.714  16.715   5.183
 2809POPC   GL139229  20.629  16.672   5.700
 2809POPC   GL239230  20.330  16.847   5.773
 2809POPC   C1A39231  20.678  16.439   6.155
 2809POPC   D2A39232  20.379  16.493   6.515
 2809POPC   C3A39233  20.603  16.628   6.874
 2809POPC   C4A39234  20.655  16.753   7.280
 2809POPC   C1B39235  20.479  16.890   6.182
 2809POPC   C2B39236  20.395  17.009   6.597
 2809POPC   C3B39237  20.381  17.116   7.048
 2809POPC   C4B39238  20.438  17.202   7.507
 2810POPC   NC339239   0.002  21.622   5.269
 2810POPC   PO439240  44.624  21.100   5.578
 2810POPC   GL139241  44.544  21.290   5.951
 2810POPC   GL239242  44.373  21.596   5.873
 2810POPC   C1A39243  44.481  21.132   6.378
 2810POPC   D2A39244  44.212  21.134   6.753
 2810POPC   C3A39245  44.334  21.372   7.114
 2810POPC   C4A39246  44.665  21.239   7.297
 2810POPC   C1B39247  44.516  21.654   6.301
 2810POPC   C2B39248  44.534  21.560   6.695
 2810POPC   C3B39249  44.749  21.654   7.059
 2810POPC   C4B39250  44.594  21.764   7.486
 2811POPC   NC339251  30.849   7.674   5.382
 2811POPC   PO439252  30.477   7.045   5.181
 2811POPC   GL139253  30.484   7.210   5.633
 2811POPC   GL239254  30.585   7.559   5.786
 2811POPC   C1A39255  30.441   7.185   6.111
 2811POPC   D2A39256  30.650   7.196   6.522
 2811POPC   C3A39257  30.496   7.364   6.915
 2811POPC   C4A39258  30.257   7.266   7.287
 2811POPC   C1B39259  30.912   7.703   6.071
 2811POPC   C2B39260  30.797   7.676   6.483
 2811POPC   C3B39261  30.868   7.768   6.905
 2811POPC   C4B39262  30.887   7.473   7.244
 2812POPC   NC339263   9.282  34.974   5.332
 2812POPC   PO439264   8.656  35.358   5.287
 2812POPC   GL139265   8.766  35.196   5.721
 2812POPC   GL239266   9.126  35.214   5.754
 2812POPC   C1A39267   8.852  35.123   6.182
 2812POPC   D2A39268   8.806  35.388   6.542
 2812POPC   C3A39269   8.814  35.189   6.920
 2812POPC   C4A39270   9.024  35.209   7.299
 2812POPC   C1B39271   9.306  35.421   6.116
 2812POPC   C2B39272   9.272  35.626   6.514
 2812POPC   C3B39273   9.291  35.480   6.912
 2812POPC   C4B39274   9.223  35.677   7.301
 2813POPC   NC339275  11.066  15.599   5.539
 2813POPC   PO439276  11.322  16.239   5.395
 2813POPC   GL139277  11.219  16.040   5.789
 2813POPC   GL239278  11.423  15.742   5.859
 2813POPC   C1A39279  11.316  16.123   6.214
 2813POPC   D2A39280  11.515  16.254   6.557
 2813POPC   C3A39281  11.244  16.158   6.883
 2813POPC   C4A39282  11.176  16.175   7.313
 2813POPC   C1B39283  11.171  15.648   6.246
 2813POPC   C2B39284  11.401  15.727   6.655
 2813POPC   C3B39285  11.293  15.688   7.101
 2813POPC   C4B39286  10.946  15.383   7.117
 2814POPC   NC339287  14.184  16.470   5.336
 2814POPC   PO439288  14.354  17.154   5.564
 2814POPC   GL139289  14.581  16.859   5.810
 2814POPC   GL239290  14.544  16.509   5.732
 2814POPC   C1A39291  14.538  16.788   6.243
 2814POPC   D2A39292  14.375  16.841   6.647
 2814POPC   C3A39293  14.648  16.755   6.995
 2814POPC   C4A39294  14.781  17.033   7.315
 2814POPC   C1B39295  14.273  16.391   6.078
 2814POPC   C2B39296  14.091  16.444   6.501
 2814POPC   C3B39297  14.240  16.414   6.934
 2814POPC   C4B39298  13.987  16.445   7.256
 2815POPC   NC339299  30.094  16.408   5.531
 2815POPC   PO439300  29.615  16.952   5.563
 2815POPC   GL139301  29.740  16.621   5.828
 2815POPC   GL239302  30.087  16.783   5.894
 2815POPC   C1A39303  29.771  16.574   6.237
 2815POPC   D2A39304  29.973  16.869   6.482
 2815POPC   C3A39305  29.890  16.671   6.840
 2815POPC   C4A39306  29.779  16.516   7.212
 2815POPC   C1B39307  30.257  16.482   6.217
 2815POPC   C2B39308  30.170  16.304   6.613
 2815POPC   C3B39309  30.286  16.393   7.055
 2815POPC   C4B39310  30.526  16.549   7.402
 2816POPC   NC339311  39.081  31.705   5.328
 2816POPC   PO439312  39.624  31.332   5.372
 2816POPC   GL139313  39.322  31.446   5.734
 2816POPC   GL239314  39.086  31.205   5.844
 2816POPC   C1A39315  39.145  31.602   6.152
 2816POPC   D2A39316  39.277  31.770   6.540
 2816POPC   C3A39317  39.133  31.631   6.934
 2816POPC   C4A39318  39.008  31.584   7.361
 2816POPC   C1B39319  39.149  31.089   6.274
 2816POPC   C2B39320  39.121  31.098   6.700
 2816POPC   C3B39321  39.032  31.150   7.100
 2816POPC   C4B39322  38.729  31.154   7.387
 2817POPC   NC339323  10.524  13.799   5.520
 2817POPC   PO439324  10.747  13.137   5.459
 2817POPC   GL139325  10.523  13.366   5.810
 2817POPC   GL239326  10.161  13.351   5.876
 2817POPC   C1A39327  10.454  13.704   6.177
 2817POPC   D2A39328  10.511  13.935   6.593
 2817POPC   C3A39329  10.541  13.725   6.975
 2817POPC   C4A39330  10.605  13.346   7.168
 2817POPC   C1B39331  10.345  13.225   6.276
 2817POPC   C2B39332  10.358  13.337   6.695
 2817POPC   C3B39333  10.110  13.459   7.052
 2817POPC   C4B39334  10.170  13.260   7.478
 2818POPC   NC339335  17.807   4.524   5.305
 2818POPC   PO439336  17.234   4.143   5.489
 2818POPC   GL139337  17.406   4.256   5.856
 2818POPC   GL239338  17.642   4.473   5.802
 2818POPC   C1A39339  17.590   4.169   6.268
 2818POPC   D2A39340  17.402   3.927   6.622
 2818POPC   C3A39341  17.542   4.116   6.980
 2818POPC   C4A39342  17.683   4.121   7.387
 2818POPC   C1B39343  17.382   4.636   6.174
 2818POPC   C2B39344  17.477   4.576   6.598
 2818POPC   C3B39345  17.324   4.570   7.007
 2818POPC   C4B39346  17.538   4.594   7.428
 2819POPC   NC339347  41.674  38.922   5.628
 2819POPC   PO439348  41.164  39.080   5.471
 2819POPC   GL139349  41.345  39.301   5.825
 2819POPC   GL239350  41.682  39.446   5.875
 2819POPC   C1A39351  41.420  39.200   6.244
 2819POPC   D2A39352  41.183  39.334   6.586
 2819POPC   C3A39353  41.382  39.275   6.983
 2819POPC   C4A39354  41.453  39.411   7.410
 2819POPC   C1B39355  41.878  39.472   6.278
 2819POPC   C2B39356  41.798  39.204   6.639
 2819POPC   C3B39357  41.897  39.308   7.059
 2819POPC   C4B39358  41.814  39.714   7.222
 2820POPC   NC339359   9.193  10.998   5.563
 2820POPC   PO439360   9.049  11.597   5.344
 2820POPC   GL139361   8.934  11.400   5.783
 2820POPC   GL239362   8.648  11.167   5.764
 2820POPC   C1A39363   8.751  11.485   6.239
 2820POPC   D2A39364   8.816  11.638   6.697
 2820POPC   C3A39365   8.834  11.606   7.146
 2820POPC   C4A39366   8.937  11.278   7.517
 2820POPC   C1B39367   8.733  10.979   6.167
 2820POPC   C2B39368   8.723  11.121   6.621
 2820POPC   C3B39369   8.834  11.097   7.059
 2820POPC   C4B39370   8.596  10.942   7.422
 2821POPC   NC339371  26.142  26.655   5.435
 2821POPC   PO439372  25.528  26.551   5.216
 2821POPC   GL139373  25.716  26.640   5.719
 2821POPC   GL239374  26.080  26.816   5.897
 2821POPC   C1A39375  25.643  26.936   6.087
 2821POPC   D2A39376  25.985  27.090   6.375
 2821POPC   C3A39377  25.903  27.093   6.845
 2821POPC   C4A39378  25.711  26.968   7.247
 2821POPC   C1B39379  26.350  26.728   6.261
 2821POPC   C2B39380  26.307  26.806   6.713
 2821POPC   C3B39381  26.247  26.881   7.179
 2821POPC   C4B39382  26.353  26.739   7.601
 2822POPC   NC339383  30.324  13.776   5.234
 2822POPC   PO439384  30.878  13.422   5.537
 2822POPC   GL139385  30.759  13.749   5.837
 2822POPC   GL239386  30.407  13.858   5.756
 2822POPC   C1A39387  30.965  13.774   6.276
 2822POPC   D2A39388  31.088  13.421   6.591
 2822POPC   C3A39389  30.860  13.437   6.978
 2822POPC   C4A39390  30.962  13.582   7.377
 2822POPC   C1B39391  30.450  13.889   6.218
 2822POPC   C2B39392  30.563  13.710   6.617
 2822POPC   C3B39393  30.329  13.557   6.977
 2822POPC   C4B39394  30.467  13.554   7.386
 2823POPC   NC339395  26.320  25.694   5.186
 2823POPC   PO439396  25.885  26.180   5.520
 2823POPC   GL139397  25.917  26.136   5.941
 2823POPC   GL239398  26.201  26.332   5.943
 2823POPC   C1A39399  26.148  26.067   6.369
 2823POPC   D2A39400  26.504  25.985   6.686
 2823POPC   C3A39401  26.341  25.958   7.083
 2823POPC   C4A39402  25.941  25.916   7.209
 2823POPC   C1B39403  25.889  26.524   6.250
 2823POPC   C2B39404  25.734  26.563   6.646
 2823POPC   C3B39405  26.001  26.313   6.880
 2823POPC   C4B39406  26.115  26.393   7.295
 2824POPC   NC339407  36.818  41.072   5.450
 2824POPC   PO439408  37.451  40.719   5.418
 2824POPC   GL139409  37.137  40.806   5.776
 2824POPC   GL239410  36.781  40.662   5.772
 2824POPC   C1A39411  37.074  40.631   6.206
 2824POPC   D2A39412  37.093  40.480   6.635
 2824POPC   C3A39413  37.110  40.773   6.886
 2824POPC   C4A39414  36.979  40.776   7.253
 2824POPC   C1B39415  36.706  40.966   6.115
 2824POPC   C2B39416  36.704  40.825   6.529
 2824POPC   C3B39417  36.591  40.669   6.910
 2824POPC   C4B39418  36.475  40.794   7.295
 2825POPC   NC339419  43.132  38.532   5.454
 2825POPC   PO439420  43.338  37.875   5.421
 2825POPC   GL139421  43.343  38.156   5.781
 2825POPC   GL239422  42.998  38.176   5.842
 2825POPC   C1A39423  43.332  38.463   6.163
 2825POPC   D2A39424  43.372  38.845   6.485
 2825POPC   C3A39425  43.472  38.846   6.920
 2825POPC   C4A39426  43.108  38.722   7.145
 2825POPC   C1B39427  42.831  38.309   6.209
 2825POPC   C2B39428  43.025  38.433   6.573
 2825POPC   C3B39429  42.948  38.280   6.929
 2825POPC   C4B39430  42.975  38.252   7.327
 2826POPC   NC339431  37.443  25.960   4.987
 2826POPC   PO439432  37.986  26.120   5.380
 2826POPC   GL139433  37.693  26.199   5.717
 2826POPC   GL239434  37.519  25.910   5.814
 2826POPC   C1A39435  37.591  26.286   6.167
 2826POPC   D2A39436  37.757  26.270   6.601
 2826POPC   C3A39437  37.509  26.266   6.974
 2826POPC   C4A39438  37.539  26.362   7.401
 2826POPC   C1B39439  37.522  25.689   6.178
 2826POPC   C2B39440  37.694  25.747   6.569
 2826POPC   C3B39441  37.461  25.737   6.927
 2826POPC   C4B39442  37.567  25.860   7.342
 2827POPC   NC339443  29.449  44.579   5.470
 2827POPC   PO439444  29.317   0.234   5.279
 2827POPC   GL139445  29.170  44.960   5.684
 2827POPC   GL239446  29.406  44.790   5.930
 2827POPC   C1A39447  28.907  44.859   6.086
 2827POPC   D2A39448  28.811  44.612   6.502
 2827POPC   C3A39449  28.885  44.622   6.975
 2827POPC   C4A39450  28.870  44.604   7.478
 2827POPC   C1B39451  29.311  44.660   6.339
 2827POPC   C2B39452  29.267  44.851   6.729
 2827POPC   C3B39453  29.441  44.680   7.077
 2827POPC   C4B39454  29.687  44.895   7.306
 2828POPC   NC339455   4.068  21.855   5.717
 2828POPC   PO439456   4.363  22.435   5.529
 2828POPC   GL139457   4.269  22.260   5.939
 2828POPC   GL239458   4.566  22.036   5.947
 2828POPC   C1A39459   4.254  21.967   6.337
 2828POPC   D2A39460   4.452  22.035   6.715
 2828POPC   C3A39461   4.147  22.093   7.043
 2828POPC   C4A39462   4.141  22.459   7.299
 2828POPC   C1B39463   4.610  22.355   6.295
 2828POPC   C2B39464   4.492  22.558   6.675
 2828POPC   C3B39465   4.633  22.375   7.060
 2828POPC   C4B39466   4.591  21.919   7.209
 2829POPC   NC339467  36.724  14.746   5.448
 2829POPC   PO439468  36.816  15.447   5.425
 2829POPC   GL139469  37.003  15.328   5.804
 2829POPC   GL239470  36.974  14.972   5.834
 2829POPC   C1A39471  36.847  15.262   6.222
 2829POPC   D2A39472  36.911  15.039   6.594
 2829POPC   C3A39473  36.785  15.279   6.921
 2829POPC   C4A39474  36.915  15.263   7.318
 2829POPC   C1B39475  37.156  14.765   6.206
 2829POPC   C2B39476  37.231  14.626   6.633
 2829POPC   C3B39477  37.089  14.778   7.067
 2829POPC   C4B39478  37.159  14.807   7.514
 2830POPC   NC339479   4.912  43.327   5.324
 2830POPC   PO439480   5.569  43.089   5.275
 2830POPC   GL139481   5.286  43.149   5.697
 2830POPC   GL239482   4.903  43.066   5.765
 2830POPC   C1A39483   5.169  43.230   6.175
 2830POPC   D2A39484   5.075  43.055   6.608
 2830POPC   C3A39485   5.105  43.316   6.965
 2830POPC   C4A39486   5.438  43.373   7.259
 2830POPC   C1B39487   4.799  42.835   6.178
 2830POPC   C2B39488   4.913  42.576   6.559
 2830POPC   C3B39489   4.926  42.673   7.025
 2830POPC   C4B39490   4.916  43.019   7.327
 2831POPC   NC339491  15.535  10.705   5.275
 2831POPC   PO439492  14.923  10.985   5.502
 2831POPC   GL139493  15.132  11.246   5.839
 2831POPC   GL239494  15.459  11.442   5.816
 2831POPC   C1A39495  14.975  11.336   6.242
 2831POPC   D2A39496  14.932  11.146   6.648
 2831POPC   C3A39497  14.812  11.435   6.947
 2831POPC   C4A39498  15.183  11.479   7.218
 2831POPC   C1B39499  15.534  11.039   6.068
 2831POPC   C2B39500  15.447  10.900   6.495
 2831POPC   C3B39501  15.419  11.136   6.871
 2831POPC   C4B39502  15.490  11.080   7.292
 2832POPC   NC339503   2.677   6.983   5.482
 2832POPC   PO439504   2.935   7.600   5.159
 2832POPC   GL139505   2.958   7.498   5.652
 2832POPC   GL239506   2.665   7.319   5.867
 2832POPC   C1A39507   3.119   7.420   6.100
 2832POPC   D2A39508   3.115   7.032   6.380
 2832POPC   C3A39509   2.844   7.009   6.765
 2832POPC   C4A39510   2.685   7.271   7.128
 2832POPC   C1B39511   2.437   7.027   6.204
 2832POPC   C2B39512   2.310   7.007   6.661
 2832POPC   C3B39513   2.379   6.881   7.096
 2832POPC   C4B39514   2.477   6.732   7.519
 2833POPC   NC339515  36.050  17.115   5.093
 2833POPC   PO439516  35.894  16.826   5.666
 2833POPC   GL139517  35.888  16.711   6.050
 2833POPC   GL239518  36.238  16.714   6.044
 2833POPC   C1A39519  35.937  16.802   6.466
 2833POPC   D2A39520  36.177  16.969   6.782
 2833POPC   C3A39521  35.915  16.967   7.095
 2833POPC   C4A39522  35.943  16.637   7.335
 2833POPC   C1B39523  36.450  16.773   6.395
 2833POPC   C2B39524  36.632  16.606   6.709
 2833POPC   C3B39525  36.547  16.572   7.115
 2833POPC   C4B39526  36.400  16.932   7.270
 2834POPC   NC339527  39.072  15.237   5.372
 2834POPC   PO439528  39.563  15.566   5.664
 2834POPC   GL139529  39.293  15.235   5.848
 2834POPC   GL239530  39.116  14.903   5.793
 2834POPC   C1A39531  39.032  15.230   6.236
 2834POPC   D2A39532  39.081  15.502   6.613
 2834POPC   C3A39533  39.071  15.331   7.017
 2834POPC   C4A39534  39.320  15.331   7.379
 2834POPC   C1B39535  39.459  14.829   6.104
 2834POPC   C2B39536  39.388  14.963   6.532
 2834POPC   C3B39537  39.082  14.851   6.825
 2834POPC   C4B39538  39.301  14.856   7.187
 2835POPC   NC339539  17.387  29.983   5.479
 2835POPC   PO439540  18.006  29.701   5.493
 2835POPC   GL139541  17.733  29.793   5.840
 2835POPC   GL239542  17.544  30.115   5.940
 2835POPC   C1A39543  17.837  29.820   6.263
 2835POPC   D2A39544  17.667  29.996   6.615
 2835POPC   C3A39545  17.840  29.887   7.000
 2835POPC   C4A39546  17.656  29.880   7.401
 2835POPC   C1B39547  17.328  29.807   6.189
 2835POPC   C2B39548  17.223  29.756   6.617
 2835POPC   C3B39549  17.310  29.955   7.027
 2835POPC   C4B39550  17.154  29.771   7.437
 2836POPC   NC339551  23.934  13.473   5.445
 2836POPC   PO439552  23.537  13.981   5.391
 2836POPC   GL139553  23.519  13.848   5.822
 2836POPC   GL239554  23.592  13.513   5.868
 2836POPC   C1A39555  23.521  13.790   6.276
 2836POPC   D2A39556  23.849  13.834   6.540
 2836POPC   C3A39557  23.749  13.705   6.905
 2836POPC   C4A39558  23.582  13.766   7.261
 2836POPC   C1B39559  23.815  13.323   6.204
 2836POPC   C2B39560  24.062  13.376   6.596
 2836POPC   C3B39561  24.082  13.369   7.029
 2836POPC   C4B39562  23.770  13.290   7.349
 2837POPC   NC339563   7.897  32.491   5.747
 2837POPC   PO439564   8.365  32.025   5.529
 2837POPC   GL139565   8.317  32.199   5.894
 2837POPC   GL239566   8.407  32.533   5.911
 2837POPC   C1A39567   8.128  32.020   6.263
 2837POPC   D2A39568   8.015  32.182   6.649
 2837POPC   C3A39569   8.164  31.969   7.043
 2837POPC   C4A39570   7.984  32.190   7.383
 2837POPC   C1B39571   8.420  32.453   6.358
 2837POPC   C2B39572   8.732  32.493   6.682
 2837POPC   C3B39573   8.602  32.630   7.068
 2837POPC   C4B39574   8.190  32.492   7.023
 2838POPC   NC339575  38.660  12.209   5.444
 2838POPC   PO439576  37.992  11.841   5.492
 2838POPC   GL139577  38.188  12.021   5.844
 2838POPC   GL239578  38.531  11.938   5.857
 2838POPC   C1A39579  38.286  12.077   6.290
 2838POPC   D2A39580  38.146  11.986   6.691
 2838POPC   C3A39581  38.384  12.144   6.997
 2838POPC   C4A39582  38.307  11.948   7.362
 2838POPC   C1B39583  38.774  12.170   6.162
 2838POPC   C2B39584  38.721  12.394   6.540
 2838POPC   C3B39585  38.879  12.356   6.942
 2838POPC   C4B39586  38.785  12.122   7.316
 2839POPC   NC339587  40.275  21.490   5.328
 2839POPC   PO439588  39.851  21.032   5.401
 2839POPC   GL139589  40.023  21.168   5.796
 2839POPC   GL239590  40.087  21.495   5.798
 2839POPC   C1A39591  40.240  21.134   6.184
 2839POPC   D2A39592  40.123  21.380   6.516
 2839POPC   C3A39593  40.123  21.182   6.922
 2839POPC   C4A39594  40.114  21.425   7.284
 2839POPC   C1B39595  39.907  21.738   6.132
 2839POPC   C2B39596  39.694  21.689   6.513
 2839POPC   C3B39597  39.900  21.684   6.885
 2839POPC   C4B39598  39.708  21.726   7.291
 2840POPC   NC339599   8.452  37.364   5.428
 2840POPC   PO439600   8.040  37.835   5.045
 2840POPC   GL139601   8.163  37.831   5.594
 2840POPC   GL239602   8.332  37.589   5.860
 2840POPC   C1A39603   8.266  38.027   6.079
 2840POPC   D2A39604   8.122  38.032   6.545
 2840POPC   C3A39605   8.202  37.815   6.949
 2840POPC   C4A39606   8.235  37.991   7.357
 2840POPC   C1B39607   8.000  37.608   6.206
 2840POPC   C2B39608   7.959  37.463   6.648
 2840POPC   C3B39609   7.892  37.408   7.103
 2840POPC   C4B39610   7.994  37.581   7.547
 2841POPC   NC339611  17.136  43.795   5.334
 2841POPC   PO439612  17.508  44.370   5.429
 2841POPC   GL139613  17.303  44.074   5.733
 2841POPC   GL239614  17.441  43.703   5.749
 2841POPC   C1A39615  17.260  44.001   6.180
 2841POPC   D2A39616  17.456  43.935   6.605
 2841POPC   C3A39617  17.158  43.942   6.950
 2841POPC   C4A39618  17.154  43.983   7.389
 2841POPC   C1B39619  17.473  43.528   6.178
 2841POPC   C2B39620  17.675  43.484   6.598
 2841POPC   C3B39621  17.532  43.597   7.004
 2841POPC   C4B39622  17.759  43.440   7.309
 2842POPC   NC339623  38.237  34.369   5.415
 2842POPC   PO439624  38.779  34.535   5.760
 2842POPC   GL139625  38.385  34.388   5.936
 2842POPC   GL239626  38.066  34.560   5.883
 2842POPC   C1A39627  38.442  34.587   6.332
 2842POPC   D2A39628  38.789  34.729   6.575
 2842POPC   C3A39629  38.554  34.610   6.887
 2842POPC   C4A39630  38.575  34.555   7.285
 2842POPC   C1B39631  37.979  34.390   6.286
 2842POPC   C2B39632  38.064  34.469   6.726
 2842POPC   C3B39633  38.135  34.335   7.169
 2842POPC   C4B39634  38.185  34.469   7.623
 2843POPC   NC339635  18.882   6.863   5.412
 2843POPC   PO439636  18.854   6.199   5.508
 2843POPC   GL139637  18.816   6.469   5.835
 2843POPC   GL239638  19.026   6.767   5.888
 2843POPC   C1A39639  18.871   6.398   6.275
 2843POPC   D2A39640  19.160   6.400   6.619
 2843POPC   C3A39641  18.983   6.478   7.017
 2843POPC   C4A39642  18.649   6.414   7.271
 2843POPC   C1B39643  19.309   6.933   6.203
 2843POPC   C2B39644  19.347   6.920   6.653
 2843POPC   C3B39645  19.471   6.625   6.977
 2843POPC   C4B39646  19.336   6.600   7.391
 2844POPC   NC339647  10.240  11.128   5.452
 2844POPC   PO439648  11.038  11.204   5.562
 2844POPC   GL139649  10.717  11.197   5.866
 2844POPC   GL239650  10.382  11.072   5.954
 2844POPC   C1A39651  10.611  11.441   6.215
 2844POPC   D2A39652  10.465  11.294   6.607
 2844POPC   C3A39653  10.288  11.436   6.988
 2844POPC   C4A39654  10.451  11.454   7.407
 2844POPC   C1B39655  10.691  10.926   6.300
 2844POPC   C2B39656  10.841  10.964   6.750
 2844POPC   C3B39657  10.675  11.037   7.177
 2844POPC   C4B39658  10.778  11.122   7.648
 2845POPC   NC339659  36.278  37.856   5.145
 2845POPC   PO439660  36.306  37.419   5.719
 2845POPC   GL139661  35.968  37.661   5.991
 2845POPC   GL239662  35.903  38.059   5.911
 2845POPC   C1A39663  35.941  37.885   6.370
 2845POPC   D2A39664  36.057  38.095   6.682
 2845POPC   C3A39665  36.252  37.796   6.931
 2845POPC   C4A39666  36.077  37.433   7.105
 2845POPC   C1B39667  36.297  38.212   6.209
 2845POPC   C2B39668  36.379  38.442   6.494
 2845POPC   C3B39669  36.381  38.400   6.909
 2845POPC   C4B39670  36.553  38.178   7.230
 2846POPC   NC339671  30.965   3.616   5.424
 2846POPC   PO439672  30.531   3.100   5.296
 2846POPC   GL139673  30.588   3.378   5.725
 2846POPC   GL239674  30.784   3.726   5.868
 2846POPC   C1A39675  30.763   3.325   6.170
 2846POPC   D2A39676  30.788   3.543   6.562
 2846POPC   C3A39677  30.629   3.299   6.922
 2846POPC   C4A39678  30.782   3.268   7.346
 2846POPC   C1B39679  30.455   3.785   6.163
 2846POPC   C2B39680  30.470   3.951   6.574
 2846POPC   C3B39681  30.516   3.795   6.990
 2846POPC   C4B39682  30.699   3.745   7.389
 2847POPC   NC339683  32.635  31.577   5.429
 2847POPC   PO439684  31.962  31.905   5.455
 2847POPC   GL139685  31.960  31.559   5.790
 2847POPC   GL239686  32.289  31.466   5.782
 2847POPC   C1A39687  32.048  31.524   6.229
 2847POPC   D2A39688  31.922  31.581   6.635
 2847POPC   C3A39689  32.170  31.356   6.929
 2847POPC   C4A39690  31.984  31.424   7.295
 2847POPC   C1B39691  32.558  31.499   6.139
 2847POPC   C2B39692  32.697  31.253   6.524
 2847POPC   C3B39693  32.703  31.272   6.958
 2847POPC   C4B39694  32.511  31.515   7.293
 2848POPC   NC339695   7.914  17.723   5.330
 2848POPC   PO439696   8.342  17.250   5.548
 2848POPC   GL139697   8.052  17.434   5.806
 2848POPC   GL239698   8.032  17.794   5.815
 2848POPC   C1A39699   8.195  17.493   6.230
 2848POPC   D2A39700   8.200  17.264   6.589
 2848POPC   C3A39701   8.040  17.340   6.975
 2848POPC   C4A39702   8.370  17.246   7.249
 2848POPC   C1B39703   8.174  17.985   6.144
 2848POPC   C2B39704   7.985  17.894   6.527
 2848POPC   C3B39705   8.140  17.942   6.958
 2848POPC   C4B39706   8.168  17.716   7.327
 2849POPC   NC339707  11.612  15.880   5.372
 2849POPC   PO439708  12.299  15.962   5.429
 2849POPC   GL139709  12.102  16.158   5.811
 2849POPC   GL239710  11.723  16.181   5.796
 2849POPC   C1A39711  12.240  16.208   6.259
 2849POPC   D2A39712  12.534  16.122   6.617
 2849POPC   C3A39713  12.324  15.953   7.003
 2849POPC   C4A39714  12.162  16.158   7.361
 2849POPC   C1B39715  11.789  15.923   6.181
 2849POPC   C2B39716  11.930  15.936   6.615
 2849POPC   C3B39717  11.820  16.171   6.972
 2849POPC   C4B39718  11.661  16.011   7.330
 2850POPC   NC339719  40.319  35.725   5.424
 2850POPC   PO439720  39.859  35.273   5.398
 2850POPC   GL139721  40.051  35.228   5.837
 2850POPC   GL239722  40.162  35.563   5.917
 2850POPC   C1A39723  40.007  35.211   6.303
 2850POPC   D2A39724  39.735  35.006   6.614
 2850POPC   C3A39725  39.874  35.146   7.008
 2850POPC   C4A39726  40.187  35.411   7.142
 2850POPC   C1B39727  39.757  35.635   6.187
 2850POPC   C2B39728  39.620  35.529   6.640
 2850POPC   C3B39729  39.760  35.664   7.065
 2850POPC   C4B39730  40.078  35.804   7.461
 2851POPC   NC339731  23.966   0.300   5.240
 2851POPC   PO439732  23.358   0.356   5.432
 2851POPC   GL139733  23.587   0.409   5.804
 2851POPC   GL239734  23.924   0.257   5.756
 2851POPC   C1A39735  23.613   0.402   6.257
 2851POPC   D2A39736  23.754   0.561   6.654
 2851POPC   C3A39737  23.587   0.412   7.025
 2851POPC   C4A39738  23.509   0.207   7.412
 2851POPC   C1B39739  24.102   0.432   6.130
 2851POPC   C2B39740  24.180   0.301   6.535
 2851POPC   C3B39741  24.084   0.230   6.960
 2851POPC   C4B39742  24.027   0.527   7.283
 2852POPC   NC339743   1.902   9.468   5.363
 2852POPC   PO439744   2.259   9.979   5.468
 2852POPC   GL139745   2.129   9.702   5.833
 2852POPC   GL239746   2.139   9.331   5.841
 2852POPC   C1A39747   2.193   9.669   6.305
 2852POPC   D2A39748   2.262   9.936   6.705
 2852POPC   C3A39749   2.214   9.733   7.117
 2852POPC   C4A39750   2.025   9.679   7.540
 2852POPC   C1B39751   1.762   9.418   6.135
 2852POPC   C2B39752   1.736   9.574   6.580
 2852POPC   C3B39753   1.700   9.644   7.042
 2852POPC   C4B39754   1.521   9.715   7.472
 2853POPC   NC339755  27.586  10.030   5.492
 2853POPC   PO439756  27.783  10.687   5.482
 2853POPC   GL139757  27.617  10.640   5.836
 2853POPC   GL239758  27.396  10.357   5.857
 2853POPC   C1A39759  27.781  10.841   6.191
 2853POPC   D2A39760  27.615  10.837   6.603
 2853POPC   C3A39761  27.849  10.749   6.962
 2853POPC   C4A39762  27.680  10.843   7.346
 2853POPC   C1B39763  27.640  10.376   6.275
 2853POPC   C2B39764  27.655  10.318   6.708
 2853POPC   C3B39765  27.471  10.433   7.100
 2853POPC   C4B39766  27.782  10.366   7.441
 2854POPC   NC339767   3.601   2.717   5.348
 2854POPC   PO439768   3.775   3.364   5.545
 2854POPC   GL139769   3.583   2.976   5.805
 2854POPC   GL239770   3.472   2.590   5.820
 2854POPC   C1A39771   3.443   2.893   6.222
 2854POPC   D2A39772   3.338   3.042   6.619
 2854POPC   C3A39773   3.580   2.853   6.916
 2854POPC   C4A39774   3.387   2.783   7.273
 2854POPC   C1B39775   3.462   2.344   6.222
 2854POPC   C2B39776   3.404   2.178   6.655
 2854POPC   C3B39777   3.557   2.358   7.022
 2854POPC   C4B39778   3.961   2.495   7.191
 2855POPC   NC339779  33.957  34.324   5.397
 2855POPC   PO439780  33.570  34.906   5.487
 2855POPC   GL139781  33.583  34.690   5.843
 2855POPC   GL239782  33.946  34.617   5.813
 2855POPC   C1A39783  33.659  34.731   6.286
 2855POPC   D2A39784  33.836  34.449   6.587
 2855POPC   C3A39785  33.956  34.578   7.004
 2855POPC   C4A39786  33.583  34.512   7.270
 2855POPC   C1B39787  34.170  34.765   6.155
 2855POPC   C2B39788  34.062  34.915   6.579
 2855POPC   C3B39789  34.117  35.080   6.965
 2855POPC   C4B39790  34.253  34.864   7.350
 2856POPC   NC339791  28.101   4.562   5.542
 2856POPC   PO439792  28.755   4.226   5.433
 2856POPC   GL139793  28.614   4.236   5.850
 2856POPC   GL239794  28.819   3.963   5.997
 2856POPC   C1A39795  28.387   4.429   6.216
 2856POPC   D2A39796  28.286   4.236   6.620
 2856POPC   C3A39797  28.076   4.367   6.973
 2856POPC   C4A39798  28.247   4.323   7.373
 2856POPC   C1B39799  28.915   4.367   6.250
 2856POPC   C2B39800  28.733   4.554   6.644
 2856POPC   C3B39801  28.645   4.379   7.045
 2856POPC   C4B39802  28.731   4.365   7.491
 2857POPC   NC339803  18.560  41.818   5.464
 2857POPC   PO439804  17.978  41.599   5.264
 2857POPC   GL139805  18.197  41.543   5.700
 2857POPC   GL239806  18.055  41.219   5.803
 2857POPC   C1A39807  18.367  41.775   6.111
 2857POPC   D2A39808  18.179  41.895   6.535
 2857POPC   C3A39809  18.400  41.964   6.950
 2857POPC   C4A39810  18.504  41.876   7.369
 2857POPC   C1B39811  18.351  41.248   6.146
 2857POPC   C2B39812  18.472  41.172   6.567
 2857POPC   C3B39813  18.367  41.461   6.879
 2857POPC   C4B39814  18.217  41.488   7.300
 2858POPC   NC339815  43.853   4.847   5.335
 2858POPC   PO439816  43.703   5.531   5.335
 2858POPC   GL139817  43.878   5.259   5.749
 2858POPC   GL239818  43.778   4.916   5.826
 2858POPC   C1A39819  44.073   5.086   6.187
 2858POPC   D2A39820  43.889   5.093   6.609
 2858POPC   C3A39821  44.200   5.066   6.936
 2858POPC   C4A39822  44.157   5.038   7.397
 2858POPC   C1B39823  43.572   5.099   6.189
 2858POPC   C2B39824  43.357   5.215   6.564
 2858POPC   C3B39825  43.433   4.961   6.863
 2858POPC   C4B39826  43.733   5.030   7.136
 2859POPC   NC339827  16.095  28.835   5.515
 2859POPC   PO439828  15.669  28.346   5.445
 2859POPC   GL139829  15.747  28.240   5.877
 2859POPC   GL239830  15.976  28.531   5.938
 2859POPC   C1A39831  15.744  28.144   6.325
 2859POPC   D2A39832  16.022  28.284   6.658
 2859POPC   C3A39833  15.803  28.290   7.026
 2859POPC   C4A39834  15.659  28.134   7.431
 2859POPC   C1B39835  16.153  28.844   6.247
 2859POPC   C2B39836  16.303  28.742   6.677
 2859POPC   C3B39837  16.137  28.681   7.093
 2859POPC   C4B39838  15.784  28.645   7.382
 2860POPC   NC339839  21.075  30.006   5.399
 2860POPC   PO439840  21.406  29.398   5.470
 2860POPC   GL139841  21.234  29.688   5.784
 2860POPC   GL239842  21.462  29.964   5.757
 2860POPC   C1A39843  21.117  30.016   6.115
 2860POPC   D2A39844  21.185  29.810   6.494
 2860POPC   C3A39845  21.319  29.914   6.895
 2860POPC   C4A39846  21.499  30.135   7.222
 2860POPC   C1B39847  21.626  29.864   6.168
 2860POPC   C2B39848  21.898  30.026   6.518
 2860POPC   C3B39849  21.842  29.907   6.941
 2860POPC   C4B39850  21.745  29.706   7.364
 2861POPC   NC339851   7.570  40.830   5.432
 2861POPC   PO439852   7.105  40.506   5.202
 2861POPC   GL139853   7.173  40.714   5.723
 2861POPC   GL239854   7.392  40.922   5.884
 2861POPC   C1A39855   7.301  40.541   6.196
 2861POPC   D2A39856   7.584  40.543   6.546
 2861POPC   C3A39857   7.360  40.587   6.917
 2861POPC   C4A39858   7.464  40.507   7.306
 2861POPC   C1B39859   7.516  41.027   6.238
 2861POPC   C2B39860   7.337  40.993   6.605
 2861POPC   C3B39861   7.361  41.096   7.014
 2861POPC   C4B39862   7.493  41.007   7.441
 2862POPC   NC339863  13.869   1.024   5.496
 2862POPC   PO439864  13.267   1.188   5.551
 2862POPC   GL139865  13.468   1.377   5.849
 2862POPC   GL239866  13.810   1.457   5.782
 2862POPC   C1A39867  13.292   1.525   6.195
 2862POPC   D2A39868  13.433   1.497   6.587
 2862POPC   C3A39869  13.446   1.175   6.870
 2862POPC   C4A39870  13.267   1.285   7.231
 2862POPC   C1B39871  13.963   1.687   6.139
 2862POPC   C2B39872  13.848   1.801   6.572
 2862POPC   C3B39873  13.985   1.601   6.944
 2862POPC   C4B39874  13.797   1.286   7.241
 2863POPC   NC339875  11.007  14.924   5.425
 2863POPC   PO439876  11.459  15.421   5.393
 2863POPC   GL139877  11.447  15.221   5.797
 2863POPC   GL239878  11.358  14.891   5.822
 2863POPC   C1A39879  11.312  15.160   6.239
 2863POPC   D2A39880  11.089  15.268   6.619
 2863POPC   C3A39881  11.431  15.234   6.931
 2863POPC   C4A39882  11.699  15.183   7.271
 2863POPC   C1B39883  11.253  14.643   6.202
 2863POPC   C2B39884  11.011  14.607   6.588
 2863POPC   C3B39885  11.099  14.848   6.929
 2863POPC   C4B39886  11.364  14.792   7.255
 2864POPC   NC339887  36.221  10.046   5.424
 2864POPC   PO439888  36.333   9.412   5.406
 2864POPC   GL139889  36.113   9.606   5.762
 2864POPC   GL239890  35.896   9.884   5.818
 2864POPC   C1A39891  36.032   9.554   6.213
 2864POPC   D2A39892  35.919   9.744   6.571
 2864POPC   C3A39893  36.015   9.523   6.926
 2864POPC   C4A39894  36.277   9.621   7.271
 2864POPC   C1B39895  36.235  10.026   6.108
 2864POPC   C2B39896  36.427   9.881   6.502
 2864POPC   C3B39897  36.287   9.972   6.893
 2864POPC   C4B39898  36.222  10.132   7.291
 2865POPC   NC339899   5.804  16.118   5.363
 2865POPC   PO439900   5.535  15.492   5.437
 2865POPC   GL139901   5.782  15.783   5.753
 2865POPC   GL239902   5.615  16.081   5.826
 2865POPC   C1A39903   6.102  16.035   6.026
 2865POPC   D2A39904   6.173  16.085   6.480
 2865POPC   C3A39905   5.915  15.844   6.750
 2865POPC   C4A39906   5.986  15.851   7.177
 2865POPC   C1B39907   5.658  16.146   6.254
 2865POPC   C2B39908   5.464  16.106   6.649
 2865POPC   C3B39909   5.511  15.962   7.064
 2865POPC   C4B39910   5.678  16.162   7.436
 2866POPC   NC339911   7.590  13.134   5.339
 2866POPC   PO439912   7.046  12.801   5.139
 2866POPC   GL139913   7.291  12.783   5.584
 2866POPC   GL239914   7.089  12.884   5.844
 2866POPC   C1A39915   7.556  12.823   6.028
 2866POPC   D2A39916   7.533  12.750   6.515
 2866POPC   C3A39917   7.656  13.057   6.866
 2866POPC   C4A39918   7.740  13.016   7.327
 2866POPC   C1B39919   7.141  13.047   6.289
 2866POPC   C2B39920   7.153  13.022   6.753
 2866POPC   C3B39921   7.270  12.791   7.129
 2866POPC   C4B39922   7.314  12.705   7.591
 2867POPC   NC339923  10.248  16.122   5.517
 2867POPC   PO439924  10.620  15.533   5.566
 2867POPC   GL139925  10.510  15.797   5.883
 2867POPC   GL239926  10.694  16.092   5.790
 2867POPC   C1A39927  10.675  15.848   6.314
 2867POPC   D2A39928  10.867  15.757   6.751
 2867POPC   C3A39929  10.568  15.809   7.124
 2867POPC   C4A39930  10.149  15.649   7.286
 2867POPC   C1B39931  10.830  16.307   6.171
 2867POPC   C2B39932  10.753  16.250   6.626
 2867POPC   C3B39933  10.760  16.289   7.062
 2867POPC   C4B39934  10.712  16.179   7.513
 2868POPC   NC339935  41.163  22.719   5.557
 2868POPC   PO439936  41.878  22.640   5.503
 2868POPC   GL139937  41.664  22.871   5.864
 2868POPC   GL239938  41.401  23.131   5.882
 2868POPC   C1A39939  41.544  22.919   6.309
 2868POPC   D2A39940  41.219  22.756   6.551
 2868POPC   C3A39941  41.409  22.754   6.934
 2868POPC   C4A39942  41.700  22.736   7.265
 2868POPC   C1B39943  41.122  23.238   6.274
 2868POPC   C2B39944  41.115  23.242   6.752
 2868POPC   C3B39945  41.381  23.240   7.145
 2868POPC   C4B39946  41.277  23.249   7.622
 2869POPC   NC339947  27.902   9.366   5.645
 2869POPC   PO439948  28.069  10.003   5.460
 2869POPC   GL139949  28.202   9.739   5.814
 2869POPC   GL239950  28.431   9.500   5.675
 2869POPC   C1A39951  28.106   9.717   6.263
 2869POPC   D2A39952  28.125  10.060   6.529
 2869POPC   C3A39953  28.369   9.982   6.888
 2869POPC   C4A39954  28.168  10.081   7.244
 2869POPC   C1B39955  28.637   9.504   6.088
 2869POPC   C2B39956  28.542   9.602   6.514
 2869POPC   C3B39957  28.552   9.485   6.942
 2869POPC   C4B39958  28.496   9.697   7.332
 2870POPC   NC339959  30.873  19.493   5.535
 2870POPC   PO439960  30.556  18.928   5.506
 2870POPC   GL139961  30.738  19.085   5.849
 2870POPC   GL239962  31.077  18.967   5.885
 2870POPC   C1A39963  30.620  18.983   6.244
 2870POPC   D2A39964  30.694  18.747   6.605
 2870POPC   C3A39965  30.473  18.879   6.952
 2870POPC   C4A39966  30.533  19.078   7.334
 2870POPC   C1B39967  31.056  19.229   6.247
 2870POPC   C2B39968  30.892  19.213   6.668
 2870POPC   C3B39969  30.985  19.161   7.096
 2870POPC   C4B39970  30.883  19.392   7.528
 2871POPC   NC339971   1.459  16.672   5.439
 2871POPC   PO439972   0.848  16.942   5.332
 2871POPC   GL139973   1.099  16.916   5.725
 2871POPC   GL239974   1.125  16.570   5.827
 2871POPC   C1A39975   1.183  16.990   6.171
 2871POPC   D2A39976   0.930  16.909   6.541
 2871POPC   C3A39977   1.091  16.920   6.968
 2871POPC   C4A39978   1.471  16.778   7.174
 2871POPC   C1B39979   1.136  16.484   6.263
 2871POPC   C2B39980   1.326  16.578   6.655
 2871POPC   C3B39981   1.150  16.414   7.026
 2871POPC   C4B39982   1.030  16.262   7.406
 2872POPC   NC339983  27.406   6.355   5.396
 2872POPC   PO439984  27.688   5.721   5.379
 2872POPC   GL139985  27.778   5.892   5.845
 2872POPC   GL239986  27.929   6.239   5.928
 2872POPC   C1A39987  27.679   5.735   6.269
 2872POPC   D2A39988  27.612   5.531   6.659
 2872POPC   C3A39989  27.411   5.841   6.919
 2872POPC   C4A39990  27.605   6.017   7.229
 2872POPC   C1B39991  27.837   6.218   6.386
 2872POPC   C2B39992  27.815   6.268   6.837
 2872POPC   C3B39993  27.960   6.355   7.253
 2872POPC   C4B39994  27.910   6.312   7.721
 2873POPC   NC339995  37.815   5.772   5.374
 2873POPC   PO439996  37.374   6.296   5.364
 2873POPC   GL139997  37.553   6.100   5.735
 2873POPC   GL239998  37.923   6.095   5.749
 2873POPC   C1A39999  37.534   6.180   6.184
 2873POPC   D2A40000  37.799   6.084   6.545
 2873POPC   C3A40001  37.576   6.095   6.950
 2873POPC   C4A40002  37.705   6.159   7.363
 2873POPC   C1B40003  37.908   5.821   6.108
 2873POPC   C2B40004  38.118   5.686   6.498
 2873POPC   C3B40005  38.045   5.825   6.929
 2873POPC   C4B40006  37.766   5.679   7.205
 2874POPC   NC340007   2.135   4.658   5.670
 2874POPC   PO440008   1.633   5.027   5.486
 2874POPC   GL140009   1.883   5.070   5.849
 2874POPC   GL240010   1.808   4.767   6.038
 2874POPC   C1A40011   1.993   5.216   6.263
 2874POPC   D2A40012   1.931   5.033   6.666
 2874POPC   C3A40013   1.965   5.081   7.074
 2874POPC   C4A40014   1.727   4.892   7.392
 2874POPC   C1B40015   2.163   4.725   6.334
 2874POPC   C2B40016   2.438   4.934   6.632
 2874POPC   C3B40017   2.487   4.788   7.035
 2874POPC   C4B40018   2.246   4.797   7.402
 2875POPC   NC340019   9.993  33.674   5.332
 2875POPC   PO440020   9.938  34.354   5.549
 2875POPC   GL140021   9.931  34.109   5.931
 2875POPC   GL240022   9.967  33.732   5.871
 2875POPC   C1A40023  10.061  33.966   6.342
 2875POPC   D2A40024   9.794  33.978   6.666
 2875POPC   C3A40025   9.996  34.091   7.006
 2875POPC   C4A40026   9.870  33.991   7.372
 2875POPC   C1B40027   9.603  33.769   6.195
 2875POPC   C2B40028   9.476  33.580   6.607
 2875POPC   C3B40029   9.685  33.608   7.010
 2875POPC   C4B40030   9.873  33.331   7.268
 2876POPC   NC340031  24.773  13.043   5.363
 2876POPC   PO440032  24.460  12.511   5.594
 2876POPC   GL140033  24.386  12.702   5.993
 2876POPC   GL240034  24.192  12.995   5.892
 2876POPC   C1A40035  24.584  12.774   6.441
 2876POPC   D2A40036  25.001  12.970   6.575
 2876POPC   C3A40037  24.945  13.013   7.012
 2876POPC   C4A40038  24.575  12.760   7.096
 2876POPC   C1B40039  24.104  12.935   6.354
 2876POPC   C2B40040  24.178  12.905   6.818
 2876POPC   C3B40041  24.165  12.967   7.299
 2876POPC   C4B40042  24.066  13.078   7.750
 2877POPC   NC340043  23.613  15.015   4.934
 2877POPC   PO440044  23.640  15.398   5.441
 2877POPC   GL140045  23.630  15.112   5.810
 2877POPC   GL240046  23.407  14.841   5.876
 2877POPC   C1A40047  23.571  15.217   6.258
 2877POPC   D2A40048  23.791  15.200   6.666
 2877POPC   C3A40049  23.697  15.396   7.075
 2877POPC   C4A40050  23.685  15.358   7.528
 2877POPC   C1B40051  23.526  14.721   6.321
 2877POPC   C2B40052  23.770  14.691   6.745
 2877POPC   C3B40053  23.990  14.946   7.074
 2877POPC   C4B40054  24.162  15.252   7.375
 2878POPC   NC340055  34.929  34.927   5.470
 2878POPC   PO440056  34.311  34.641   5.310
 2878POPC   GL140057  34.467  34.543   5.722
 2878POPC   GL240058  34.560  34.843   5.810
 2878POPC   C1A40059  34.568  34.417   6.149
 2878POPC   D2A40060  34.346  34.491   6.544
 2878POPC   C3A40061  34.467  34.726   6.878
 2878POPC   C4A40062  34.532  34.446   7.197
 2878POPC   C1B40063  34.865  34.829   6.133
 2878POPC   C2B40064  34.880  34.664   6.562
 2878POPC   C3B40065  34.961  34.731   6.997
 2878POPC   C4B40066  34.836  34.833   7.380
 2879POPC   NC340067   6.013  15.424   5.455
 2879POPC   PO440068   5.865  14.781   5.495
 2879POPC   GL140069   6.014  15.071   5.823
 2879POPC   GL240070   5.710  15.294   5.895
 2879POPC   C1A40071   6.050  15.170   6.268
 2879POPC   D2A40072   6.237  15.157   6.685
 2879POPC   C3A40073   5.931  14.966   6.944
 2879POPC   C4A40074   5.932  14.740   7.291
 2879POPC   C1B40075   5.542  15.614   6.230
 2879POPC   C2B40076   5.430  15.587   6.697
 2879POPC   C3B40077   5.684  15.448   7.074
 2879POPC   C4B40078   6.159  15.370   7.165
 2880POPC   NC340079  14.548  44.739   5.557
 2880POPC   PO440080  13.833  44.765   5.341
 2880POPC   GL140081  13.978  44.931   5.791
 2880POPC   GL240082  14.331  44.988   5.935
 2880POPC   C1A40083  13.987  44.988   6.285
 2880POPC   D2A40084  14.314   0.021   6.601
 2880POPC   C3A40085  14.224  44.878   7.006
 2880POPC   C4A40086  14.017  44.622   7.318
 2880POPC   C1B40087  14.461  44.660   6.259
 2880POPC   C2B40088  14.555  44.518   6.695
 2880POPC   C3B40089  14.474  44.424   7.139
 2880POPC   C4B40090  14.520  44.527   7.574
 2881POPC   NC340091  20.860  23.441   5.469
 2881POPC   PO440092  20.216  23.486   5.487
 2881POPC   GL140093  20.437  23.737   5.787
 2881POPC   GL240094  20.793  23.881   5.811
 2881POPC   C1A40095  20.515  23.709   6.227
 2881POPC   D2A40096  20.695  23.930   6.555
 2881POPC   C3A40097  20.509  23.755   6.922
 2881POPC   C4A40098  20.429  23.541   7.311
 2881POPC   C1B40099  21.026  23.711   6.197
 2881POPC   C2B40100  21.103  23.613   6.659
 2881POPC   C3B40101  20.973  23.583   7.096
 2881POPC   C4B40102  20.906  23.520   7.545
 2882POPC   NC340103  40.661   9.179   5.409
 2882POPC   PO440104  41.128   8.646   5.285
 2882POPC   GL140105  41.012   8.867   5.707
 2882POPC   GL240106  40.688   8.958   5.876
 2882POPC   C1A40107  41.069   8.845   6.196
 2882POPC   D2A40108  41.143   8.945   6.643
 2882POPC   C3A40109  41.019   8.683   7.011
 2882POPC   C4A40110  40.747   8.902   7.294
 2882POPC   C1B40111  40.724   9.172   6.326
 2882POPC   C2B40112  40.516   9.266   6.690
 2882POPC   C3B40113  40.579   9.392   7.111
 2882POPC   C4B40114  40.454   9.253   7.513
 2883POPC   NC340115  44.872  20.671   5.551
 2883POPC   PO440116  44.331  20.364   5.359
 2883POPC   GL140117  44.347  20.487   5.793
 2883POPC   GL240118  44.532  20.774   5.967
 2883POPC   C1A40119  44.502  20.321   6.190
 2883POPC   D2A40120  44.769  20.557   6.473
 2883POPC   C3A40121  44.668  20.495   6.900
 2883POPC   C4A40122  44.495  20.839   7.084
 2883POPC   C1B40123  44.939  20.953   6.147
 2883POPC   C2B40124   0.108  20.978   6.548
 2883POPC   C3B40125   0.024  21.083   6.963
 2883POPC   C4B40126  44.969  20.827   7.342
 2884POPC   NC340127  42.655  27.557   5.292
 2884POPC   PO440128  42.055  27.786   5.252
 2884POPC   GL140129  42.305  27.688   5.661
 2884POPC   GL240130  42.396  27.353   5.712
 2884POPC   C1A40131  42.309  27.714   6.128
 2884POPC   D2A40132  42.036  27.590   6.515
 2884POPC   C3A40133  42.210  27.516   6.960
 2884POPC   C4A40134  42.576  27.672   7.227
 2884POPC   C1B40135  42.261  27.203   6.131
 2884POPC   C2B40136  42.477  27.086   6.547
 2884POPC   C3B40137  42.585  27.132   6.973
 2884POPC   C4B40138  42.647  27.196   7.392
 2885POPC   NC340139   7.631   1.078   5.736
 2885POPC   PO440140   7.008   1.282   5.531
 2885POPC   GL140141   7.203   1.302   5.906
 2885POPC   GL240142   7.131   0.933   5.886
 2885POPC   C1A40143   7.404   1.426   6.327
 2885POPC   D2A40144   7.594   1.434   6.774
 2885POPC   C3A40145   7.739   1.017   6.915
 2885POPC   C4A40146   7.870   0.833   7.293
 2885POPC   C1B40147   7.024   1.030   6.295
 2885POPC   C2B40148   7.267   1.038   6.671
 2885POPC   C3B40149   7.249   0.973   7.091
 2885POPC   C4B40150   7.416   1.314   7.331
 2886POPC   NC340151  24.716  11.086   5.398
 2886POPC   PO440152  25.236  11.417   5.175
 2886POPC   GL140153  25.361  11.204   5.561
 2886POPC   GL240154  25.071  11.235   5.754
 2886POPC   C1A40155  25.491  11.190   6.028
 2886POPC   D2A40156  25.338  11.193   6.472
 2886POPC   C3A40157  25.512  11.166   6.905
 2886POPC   C4A40158  25.402  10.883   7.245
 2886POPC   C1B40159  25.070  11.478   6.123
 2886POPC   C2B40160  24.819  11.559   6.462
 2886POPC   C3B40161  24.879  11.625   6.904
 2886POPC   C4B40162  25.091  11.651   7.295
 2887POPC   NC340163  15.988   3.345   5.225
 2887POPC   PO440164  16.133   2.658   5.317
 2887POPC   GL140165  16.179   2.581   5.809
 2887POPC   GL240166  15.900   2.691   5.910
 2887POPC   C1A40167  16.269   2.694   6.277
 2887POPC   D2A40168  15.996   2.686   6.694
 2887POPC   C3A40169  16.165   2.462   7.052
 2887POPC   C4A40170  16.481   2.750   7.149
 2887POPC   C1B40171  15.804   2.911   6.281
 2887POPC   C2B40172  15.839   3.279   6.568
 2887POPC   C3B40173  15.683   3.262   6.990
 2887POPC   C4B40174  15.665   2.855   7.130
 2888POPC   NC340175  25.760  23.231   5.414
 2888POPC   PO440176  26.280  22.863   5.380
 2888POPC   GL140177  26.160  23.048   5.749
 2888POPC   GL240178  26.377  23.317   5.840
 2888POPC   C1A40179  26.064  22.915   6.199
 2888POPC   D2A40180  25.758  22.908   6.547
 2888POPC   C3A40181  25.887  22.724   6.928
 2888POPC   C4A40182  26.130  22.753   7.290
 2888POPC   C1B40183  26.015  23.407   6.069
 2888POPC   C2B40184  25.917  23.383   6.480
 2888POPC   C3B40185  26.014  23.243   6.883
 2888POPC   C4B40186  25.751  23.144   7.199
 2889POPC   NC340187  36.987  39.443   5.424
 2889POPC   PO440188  37.137  38.805   5.257
 2889POPC   GL140189  37.184  39.063   5.714
 2889POPC   GL240190  37.233  39.435   5.867
 2889POPC   C1A40191  37.005  39.124   6.182
 2889POPC   D2A40192  36.790  39.173   6.632
 2889POPC   C3A40193  36.966  39.197   7.069
 2889POPC   C4A40194  36.919  39.023   7.507
 2889POPC   C1B40195  37.092  39.613   6.252
 2889POPC   C2B40196  36.758  39.672   6.510
 2889POPC   C3B40197  36.731  39.635   6.908
 2889POPC   C4B40198  37.089  39.709   7.154
 2890POPC   NC340199  43.941  17.805   5.467
 2890POPC   PO440200  44.154  18.500   5.518
 2890POPC   GL140201  43.839  18.320   5.772
 2890POPC   GL240202  43.533  18.512   5.865
 2890POPC   C1A40203  43.743  18.127   6.163
 2890POPC   D2A40204  43.769  18.345   6.548
 2890POPC   C3A40205  43.745  18.094   6.895
 2890POPC   C4A40206  43.844  18.195   7.303
 2890POPC   C1B40207  43.348  18.458   6.242
 2890POPC   C2B40208  43.165  18.567   6.632
 2890POPC   C3B40209  43.423  18.476   6.976
 2890POPC   C4B40210  43.521  18.607   7.388
 2891POPC   NC340211   1.682   7.499   5.602
 2891POPC   PO440212   2.273   7.189   5.515
 2891POPC   GL140213   2.118   7.281   5.892
 2891POPC   GL240214   2.227   7.608   5.864
 2891POPC   C1A40215   1.970   7.303   6.330
 2891POPC   D2A40216   1.989   7.544   6.728
 2891POPC   C3A40217   1.987   7.296   7.135
 2891POPC   C4A40218   1.821   7.387   7.569
 2891POPC   C1B40219   2.426   7.529   6.267
 2891POPC   C2B40220   2.503   7.483   6.702
 2891POPC   C3B40221   2.371   7.670   7.095
 2891POPC   C4B40222   2.409   7.524   7.530
 2892POPC   NC340223   9.728   4.608   5.655
 2892POPC   PO440224   9.717   4.034   5.496
 2892POPC   GL140225   9.522   4.066   5.905
 2892POPC   GL240226   9.287   4.361   5.875
 2892POPC   C1A40227   9.623   3.918   6.336
 2892POPC   D2A40228   9.698   4.178   6.697
 2892POPC   C3A40229   9.936   4.139   7.071
 2892POPC   C4A40230  10.195   4.148   7.455
 2892POPC   C1B40231   9.352   4.380   6.338
 2892POPC   C2B40232   9.348   4.524   6.802
 2892POPC   C3B40233   9.466   4.481   7.248
 2892POPC   C4B40234   9.535   4.434   7.702
 2893POPC   NC340235   2.898  30.884   5.288
 2893POPC   PO440236   2.475  30.437   5.468
 2893POPC   GL140237   2.810  30.618   5.751
 2893POPC   GL240238   2.852  30.976   5.794
 2893POPC   C1A40239   2.780  30.665   6.207
 2893POPC   D2A40240   2.933  30.508   6.592
 2893POPC   C3A40241   2.763  30.551   6.988
 2893POPC   C4A40242   2.662  30.675   7.370
 2893POPC   C1B40243   2.908  31.176   6.183
 2893POPC   C2B40244   3.005  31.008   6.558
 2893POPC   C3B40245   2.859  31.061   6.955
 2893POPC   C4B40246   3.049  31.009   7.303
 2894POPC   NC340247  17.844  29.208   5.440
 2894POPC   PO440248  17.161  29.519   5.459
 2894POPC   GL140249  17.364  29.402   5.862
 2894POPC   GL240250  17.568  29.073   5.862
 2894POPC   C1A40251  17.573  29.361   6.296
 2894POPC   D2A40252  17.793  29.493   6.676
 2894POPC   C3A40253  17.500  29.484   6.999
 2894POPC   C4A40254  17.047  29.478   7.021
 2894POPC   C1B40255  17.211  29.011   6.169
 2894POPC   C2B40256  17.149  29.189   6.598
 2894POPC   C3B40257  17.270  29.005   6.994
 2894POPC   C4B40258  17.677  29.024   7.164
 2895POPC   NC340259  15.318   0.014   5.232
 2895POPC   PO440260  14.967  44.509   5.528
 2895POPC   GL140261  15.168  44.529   5.914
 2895POPC   GL240262  15.354  44.785   5.783
 2895POPC   C1A40263  15.244  44.748   6.331
 2895POPC   D2A40264  15.045  44.935   6.706
 2895POPC   C3A40265  14.973  44.638   7.062
 2895POPC   C4A40266  15.019  44.619   7.533
 2895POPC   C1B40267  15.642  44.533   6.099
 2895POPC   C2B40268  15.609  44.398   6.538
 2895POPC   C3B40269  15.706  44.327   6.964
 2895POPC   C4B40270  15.445  44.525   7.258
 2896POPC   NC340271  23.226  42.240   5.235
 2896POPC   PO440272  23.854  42.368   5.365
 2896POPC   GL140273  23.648  42.272   5.738
 2896POPC   GL240274  23.722  42.560   5.948
 2896POPC   C1A40275  23.554  42.105   6.152
 2896POPC   D2A40276  23.722  41.955   6.544
 2896POPC   C3A40277  23.568  42.218   6.888
 2896POPC   C4A40278  23.771  42.360   7.264
 2896POPC   C1B40279  23.773  42.523   6.397
 2896POPC   C2B40280  23.796  42.653   6.810
 2896POPC   C3B40281  23.559  42.813   7.135
 2896POPC   C4B40282  23.641  42.767   7.584
 2897POPC   NC340283  10.586  32.775   5.671
 2897POPC   PO440284  10.354  33.391   5.472
 2897POPC   GL140285  10.394  33.269   5.850
 2897POPC   GL240286  10.737  33.384   5.837
 2897POPC   C1A40287  10.343  33.251   6.286
 2897POPC   D2A40288  10.593  33.211   6.643
 2897POPC   C3A40289  10.400  33.212   7.023
 2897POPC   C4A40290  10.560  32.909   7.291
 2897POPC   C1B40291  10.866  33.164   6.188
 2897POPC   C2B40292  11.109  33.010   6.524
 2897POPC   C3B40293  10.952  32.867   6.906
 2897POPC   C4B40294  11.055  33.027   7.291
 2898POPC   NC340295   7.758  21.823   5.491
 2898POPC   PO440296   7.150  21.441   5.366
 2898POPC   GL140297   7.239  21.416   5.820
 2898POPC   GL240298   6.933  21.215   5.875
 2898POPC   C1A40299   7.567  21.316   6.194
 2898POPC   D2A40300   7.790  21.405   6.622
 2898POPC   C3A40301   7.633  21.215   7.024
 2898POPC   C4A40302   7.258  21.314   7.281
 2898POPC   C1B40303   7.090  21.169   6.325
 2898POPC   C2B40304   7.146  21.127   6.806
 2898POPC   C3B40305   6.833  21.065   7.160
 2898POPC   C4B40306   6.940  21.164   7.636
 2899POPC   NC340307   8.671  12.012   5.469
 2899POPC   PO440308   9.405  12.163   5.388
 2899POPC   GL140309   9.078  12.226   5.725
 2899POPC   GL240310   9.047  11.892   5.867
 2899POPC   C1A40311   8.785  12.244   6.124
 2899POPC   D2A40312   8.905  12.121   6.556
 2899POPC   C3A40313   8.721  12.100   6.985
 2899POPC   C4A40314   8.838  12.093   7.423
 2899POPC   C1B40315   9.185  11.747   6.302
 2899POPC   C2B40316   9.312  11.839   6.726
 2899POPC   C3B40317   9.238  11.934   7.151
 2899POPC   C4B40318   9.146  11.707   7.547
 2900POPC   NC340319  32.965   1.032   5.222
 2900POPC   PO440320  32.780   1.639   5.354
 2900POPC   GL140321  32.827   1.430   5.777
 2900POPC   GL240322  32.880   1.056   5.752
 2900POPC   C1A40323  33.073   1.341   6.170
 2900POPC   D2A40324  33.227   1.252   6.622
 2900POPC   C3A40325  32.957   1.281   7.002
 2900POPC   C4A40326  32.884   1.439   7.404
 2900POPC   C1B40327  32.890   0.861   6.172
 2900POPC   C2B40328  32.768   0.956   6.611
 2900POPC   C3B40329  32.778   0.803   7.053
 2900POPC   C4B40330  32.960   0.911   7.469
 2901POPC   NC340331  38.215   9.138   5.425
 2901POPC   PO440332  38.763   8.758   5.488
 2901POPC   GL140333  38.624   9.028   5.799
 2901POPC   GL240334  38.361   8.867   5.865
 2901POPC   C1A40335  38.606   9.061   6.273
 2901POPC   D2A40336  38.819   9.196   6.652
 2901POPC   C3A40337  38.726   8.967   7.025
 2901POPC   C4A40338  38.349   9.092   7.170
 2901POPC   C1B40339  38.309   8.614   6.225
 2901POPC   C2B40340  38.189   8.755   6.624
 2901POPC   C3B40341  38.065   8.662   7.041
 2901POPC   C4B40342  38.195   8.714   7.453
 2902POPC   NC340343  13.910  35.787   5.645
 2902POPC   PO440344  14.294  36.191   5.194
 2902POPC   GL140345  14.371  36.035   5.672
 2902POPC   GL240346  14.120  36.203   5.902
 2902POPC   C1A40347  14.533  35.980   6.157
 2902POPC   D2A40348  14.735  35.882   6.610
 2902POPC   C3A40349  14.572  35.836   7.073
 2902POPC   C4A40350  14.373  35.934   7.525
 2902POPC   C1B40351  14.256  36.406   6.311
 2902POPC   C2B40352  14.457  36.312   6.729
 2902POPC   C3B40353  14.281  36.267   7.142
 2902POPC   C4B40354  14.075  36.371   7.550
 2903POPC   NC340355  13.255  41.739   5.344
 2903POPC   PO440356  12.654  41.358   5.293
 2903POPC   GL140357  12.771  41.479   5.730
 2903POPC   GL240358  12.910  41.817   5.760
 2903POPC   C1A40359  12.593  41.407   6.162
 2903POPC   D2A40360  12.821  41.370   6.557
 2903POPC   C3A40361  12.661  41.381   6.963
 2903POPC   C4A40362  12.876  41.374   7.369
 2903POPC   C1B40363  13.004  41.695   6.183
 2903POPC   C2B40364  12.937  41.870   6.603
 2903POPC   C3B40365  12.920  41.805   7.047
 2903POPC   C4B40366  12.952  41.893   7.490
 2904POPC   NC340367  15.187  24.218   5.376
 2904POPC   PO440368  15.345  24.909   5.468
 2904POPC   GL140369  15.183  24.627   5.762
 2904POPC   GL240370  14.853  24.460   5.734
 2904POPC   C1A40371  15.359  24.499   6.159
 2904POPC   D2A40372  15.237  24.339   6.564
 2904POPC   C3A40373  15.385  24.441   6.975
 2904POPC   C4A40374  15.260  24.099   7.242
 2904POPC   C1B40375  14.868  24.676   6.164
 2904POPC   C2B40376  14.762  24.588   6.623
 2904POPC   C3B40377  14.873  24.287   6.948
 2904POPC   C4B40378  14.984  24.502   7.332
 2905POPC   NC340379   8.526  32.453   5.424
 2905POPC   PO440380   9.130  32.159   5.454
 2905POPC   GL140381   8.905  32.345   5.779
 2905POPC   GL240382   8.816  32.023   5.861
 2905POPC   C1A40383   8.961  32.377   6.231
 2905POPC   D2A40384   9.030  32.075   6.597
 2905POPC   C3A40385   9.048  32.270   7.013
 2905POPC   C4A40386   9.294  32.455   7.285
 2905POPC   C1B40387   8.632  32.001   6.245
 2905POPC   C2B40388   8.475  31.922   6.629
 2905POPC   C3B40389   8.687  31.928   6.988
 2905POPC   C4B40390   8.607  32.176   7.329
 2906POPC   NC340391  42.356   8.419   4.951
 2906POPC   PO440392  42.455   7.911   5.485
 2906POPC   GL140393  42.284   8.119   5.805
 2906POPC   GL240394  41.909   8.048   5.791
 2906POPC   C1A40395  42.429   8.222   6.171
 2906POPC   D2A40396  42.577   8.291   6.580
 2906POPC   C3A40397  42.337   8.365   6.926
 2906POPC   C4A40398  42.526   8.440   7.344
 2906POPC   C1B40399  41.940   8.380   6.116
 2906POPC   C2B40400  41.941   8.432   6.564
 2906POPC   C3B40401  41.901   8.625   6.987
 2906POPC   C4B40402  42.026   8.502   7.363
 2907POPC   NC340403  17.682   1.151   5.326
 2907POPC   PO440404  17.086   0.892   5.327
 2907POPC   GL140405  17.295   1.078   5.726
 2907POPC   GL240406  17.637   1.166   5.818
 2907POPC   C1A40407  17.303   1.172   6.182
 2907POPC   D2A40408  17.489   0.987   6.537
 2907POPC   C3A40409  17.373   1.092   6.925
 2907POPC   C4A40410  17.630   1.093   7.294
 2907POPC   C1B40411  17.715   1.496   6.105
 2907POPC   C2B40412  17.544   1.527   6.510
 2907POPC   C3B40413  17.673   1.480   6.923
 2907POPC   C4B40414  17.325   1.495   7.250
 2908POPC   NC340415  43.426  24.286   5.408
 2908POPC   PO440416  42.918  24.789   5.364
 2908POPC   GL140417  43.197  24.627   5.739
 2908POPC   GL240418  43.205  24.274   5.854
 2908POPC   C1A40419  43.235  24.608   6.229
 2908POPC   D2A40420  43.470  24.503   6.648
 2908POPC   C3A40421  43.270  24.607   7.070
 2908POPC   C4A40422  42.902  24.860   7.234
 2908POPC   C1B40423  42.919  24.155   6.186
 2908POPC   C2B40424  42.933  24.006   6.603
 2908POPC   C3B40425  43.205  24.139   6.866
 2908POPC   C4B40426  43.185  24.149   7.298
 2909POPC   NC340427  19.488  42.536   5.551
 2909POPC   PO440428  19.010  42.218   5.241
 2909POPC   GL140429  18.997  42.378   5.682
 2909POPC   GL240430  19.244  42.164   5.818
 2909POPC   C1A40431  18.916  42.343   6.162
 2909POPC   D2A40432  19.101  42.107   6.540
 2909POPC   C3A40433  19.116  42.267   6.955
 2909POPC   C4A40434  18.912  42.172   7.319
 2909POPC   C1B40435  19.420  42.450   6.179
 2909POPC   C2B40436  19.471  42.483   6.619
 2909POPC   C3B40437  19.501  42.673   7.032
 2909POPC   C4B40438  19.314  42.504   7.405
 2910POPC   NC340439  20.925  25.108   5.338
 2910POPC   PO440440  20.339  24.934   5.335
 2910POPC   GL140441  20.511  25.132   5.743
 2910POPC   GL240442  20.707  25.454   5.683
 2910POPC   C1A40443  20.379  25.289   6.190
 2910POPC   D2A40444  20.225  25.541   6.564
 2910POPC   C3A40445  20.314  25.303   6.902
 2910POPC   C4A40446  20.557  25.249   7.206
 2910POPC   C1B40447  20.895  25.423   6.077
 2910POPC   C2B40448  20.984  25.174   6.421
 2910POPC   C3B40449  20.876  25.312   6.835
 2910POPC   C4B40450  20.996  25.597   7.204
 2911POPC   NC340451  18.390  16.419   5.281
 2911POPC   PO440452  17.887  16.016   5.183
 2911POPC   GL140453  18.155  15.917   5.586
 2911POPC   GL240454  18.500  15.808   5.648
 2911POPC   C1A40455  18.173  15.944   6.066
 2911POPC   D2A40456  18.477  16.023   6.442
 2911POPC   C3A40457  18.337  16.048   6.895
 2911POPC   C4A40458  18.246  16.320   7.264
 2911POPC   C1B40459  18.578  15.636   6.083
 2911POPC   C2B40460  18.492  15.519   6.504
 2911POPC   C3B40461  18.675  15.606   6.880
 2911POPC   C4B40462  18.394  15.650   7.222
 2912POPC   NC340463  20.310  30.133   5.458
 2912POPC   PO440464  20.778  29.670   5.546
 2912POPC   GL140465  20.571  29.818   5.872
 2912POPC   GL240466  20.667  30.137   5.860
 2912POPC   C1A40467  20.696  29.774   6.307
 2912POPC   D2A40468  20.808  29.527   6.666
 2912POPC   C3A40469  20.503  29.625   6.915
 2912POPC   C4A40470  20.529  29.929   7.148
 2912POPC   C1B40471  20.325  30.144   6.186
 2912POPC   C2B40472  20.408  30.097   6.635
 2912POPC   C3B40473  20.836  30.076   6.785
 2912POPC   C4B40474  20.989  30.129   7.216
 2913POPC   NC340475  10.140  21.668   5.552
 2913POPC   PO440476   9.635  21.197   5.294
 2913POPC   GL140477   9.769  21.304   5.727
 2913POPC   GL240478  10.075  21.242   5.812
 2913POPC   C1A40479   9.780  21.435   6.219
 2913POPC   D2A40480   9.955  21.308   6.614
 2913POPC   C3A40481   9.874  21.444   7.029
 2913POPC   C4A40482   9.912  21.572   7.483
 2913POPC   C1B40483  10.171  21.068   6.197
 2913POPC   C2B40484  10.246  20.882   6.589
 2913POPC   C3B40485  10.328  21.114   6.951
 2913POPC   C4B40486  10.116  21.108   7.294
 2914POPC   NC340487  18.724   3.649   5.516
 2914POPC   PO440488  19.221   3.229   5.423
 2914POPC   GL140489  19.083   3.425   5.802
 2914POPC   GL240490  18.777   3.233   5.859
 2914POPC   C1A40491  19.210   3.529   6.228
 2914POPC   D2A40492  19.026   3.269   6.587
 2914POPC   C3A40493  19.144   3.520   6.974
 2914POPC   C4A40494  19.283   3.448   7.383
 2914POPC   C1B40495  18.724   3.451   6.204
 2914POPC   C2B40496  18.759   3.688   6.615
 2914POPC   C3B40497  18.637   3.471   6.997
 2914POPC   C4B40498  18.811   3.614   7.387
 2915POPC   NC340499  25.854  42.066   5.274
 2915POPC   PO440500  26.225  41.488   5.258
 2915POPC   GL140501  26.095  41.738   5.627
 2915POPC   GL240502  26.058  41.460   5.836
 2915POPC   C1A40503  26.220  41.944   6.038
 2915POPC   D2A40504  26.246  41.896   6.509
 2915POPC   C3A40505  25.973  41.855   6.873
 2915POPC   C4A40506  26.131  41.791   7.305
 2915POPC   C1B40507  25.898  41.579   6.239
 2915POPC   C2B40508  26.046  41.401   6.614
 2915POPC   C3B40509  25.995  41.353   7.042
 2915POPC   C4B40510  25.971  41.328   7.481
 2916POPC   NC340511  41.489   4.434   5.278
 2916POPC   PO440512  42.115   4.258   5.165
 2916POPC   GL140513  41.863   4.284   5.619
 2916POPC   GL240514  41.588   4.039   5.599
 2916POPC   C1A40515  41.652   4.451   6.026
 2916POPC   D2A40516  41.290   4.408   6.350
 2916POPC   C3A40517  41.250   4.295   6.822
 2916POPC   C4A40518  41.477   4.308   7.238
 2916POPC   C1B40519  41.513   3.959   6.031
 2916POPC   C2B40520  41.442   3.926   6.475
 2916POPC   C3B40521  41.565   3.900   6.916
 2916POPC   C4B40522  41.641   3.837   7.371
 2917POPC   NC340523  12.009  22.651   5.499
 2917POPC   PO440524  12.346  23.329   5.479
 2917POPC   GL140525  12.192  23.093   5.840
 2917POPC   GL240526  12.079  22.761   5.974
 2917POPC   C1A40527  12.363  23.050   6.261
 2917POPC   D2A40528  12.209  22.838   6.605
 2917POPC   C3A40529  12.362  23.068   6.952
 2917POPC   C4A40530  12.232  22.893   7.307
 2917POPC   C1B40531  11.810  22.901   6.280
 2917POPC   C2B40532  11.598  22.850   6.630
 2917POPC   C3B40533  11.838  22.920   6.971
 2917POPC   C4B40534  11.750  22.722   7.320
 2918POPC   NC340535  38.024  15.917   5.301
 2918POPC   PO440536  38.617  15.762   5.408
 2918POPC   GL140537  38.588  16.075   5.733
 2918POPC   GL240538  38.838  15.879   5.892
 2918POPC   C1A40539  38.405  16.074   6.156
 2918POPC   D2A40540  38.237  15.699   6.375
 2918POPC   C3A40541  38.054  15.787   6.758
 2918POPC   C4A40542  38.266  15.895   7.129
 2918POPC   C1B40543  38.775  15.768   6.301
 2918POPC   C2B40544  38.586  15.941   6.663
 2918POPC   C3B40545  38.766  15.758   6.995
 2918POPC   C4B40546  39.048  15.752   7.318
 2919POPC   NC340547   6.643  44.889   5.241
 2919POPC   PO440548   6.509   0.529   5.419
 2919POPC   GL140549   6.520   0.472   5.804
 2919POPC   GL240550   6.628   0.108   5.750
 2919POPC   C1A40551   6.676   0.634   6.220
 2919POPC   D2A40552   6.556   0.528   6.671
 2919POPC   C3A40553   6.568   0.724   7.113
 2919POPC   C4A40554   6.594   0.831   7.592
 2919POPC   C1B40555   6.464   0.172   6.189
 2919POPC   C2B40556   6.361   0.053   6.586
 2919POPC   C3B40557   6.372   0.168   6.979
 2919POPC   C4B40558   6.634   0.227   7.292
 2920POPC   NC340559   1.707  20.184   5.369
 2920POPC   PO440560   1.891  20.875   5.488
 2920POPC   GL140561   1.920  20.638   5.846
 2920POPC   GL240562   1.951  20.265   5.797
 2920POPC   C1A40563   1.834  20.631   6.287
 2920POPC   D2A40564   1.973  20.624   6.710
 2920POPC   C3A40565   1.802  20.582   7.091
 2920POPC   C4A40566   2.099  20.823   7.247
 2920POPC   C1B40567   2.245  20.314   6.109
 2920POPC   C2B40568   2.190  20.202   6.528
 2920POPC   C3B40569   2.184  20.225   6.993
 2920POPC   C4B40570   1.848  20.083   7.231
 2921POPC   NC340571  37.102  10.690   5.628
 2921POPC   PO440572  36.538  10.392   5.393
 2921POPC   GL140573  36.632  10.339   5.837
 2921POPC   GL240574  36.969  10.195   5.864
 2921POPC   C1A40575  36.588  10.628   6.211
 2921POPC   D2A40576  36.845  10.787   6.549
 2921POPC   C3A40577  36.903  10.572   6.937
 2921POPC   C4A40578  36.669  10.382   7.308
 2921POPC   C1B40579  37.025  10.391   6.219
 2921POPC   C2B40580  36.775  10.263   6.531
 2921POPC   C3B40581  36.811  10.068   6.880
 2921POPC   C4B40582  37.157  10.177   7.162
 2922POPC   NC340583  16.942  14.577   5.402
 2922POPC   PO440584  16.851  13.926   5.310
 2922POPC   GL140585  16.577  13.995   5.709
 2922POPC   GL240586  16.838  14.233   5.794
 2922POPC   C1A40587  16.489  14.175   6.173
 2922POPC   D2A40588  16.775  14.346   6.504
 2922POPC   C3A40589  16.722  14.229   6.940
 2922POPC   C4A40590  16.334  14.260   7.164
 2922POPC   C1B40591  16.730  14.605   6.042
 2922POPC   C2B40592  16.402  14.692   6.354
 2922POPC   C3B40593  16.425  14.664   6.809
 2922POPC   C4B40594  16.670  14.690   7.196
 2923POPC   NC340595  23.242  13.593   5.471
 2923POPC   PO440596  22.796  14.085   5.560
 2923POPC   GL140597  23.014  13.907   5.872
 2923POPC   GL240598  23.038  13.539   5.952
 2923POPC   C1A40599  23.031  13.933   6.297
 2923POPC   D2A40600  22.961  13.668   6.623
 2923POPC   C3A40601  22.738  13.754   6.992
 2923POPC   C4A40602  23.084  13.785   7.209
 2923POPC   C1B40603  23.285  13.269   6.229
 2923POPC   C2B40604  23.496  13.373   6.610
 2923POPC   C3B40605  23.364  13.365   7.024
 2923POPC   C4B40606  23.288  13.024   7.299
 2924POPC   NC340607  27.548  27.658   5.362
 2924POPC   PO440608  27.452  27.050   5.487
 2924POPC   GL140609  27.543  27.396   5.811
 2924POPC   GL240610  27.299  27.700   5.817
 2924POPC   C1A40611  27.636  27.628   6.202
 2924POPC   D2A40612  27.484  27.706   6.618
 2924POPC   C3A40613  27.664  27.555   6.999
 2924POPC   C4A40614  27.560  27.231   7.280
 2924POPC   C1B40615  27.125  27.780   6.234
 2924POPC   C2B40616  27.031  27.913   6.683
 2924POPC   C3B40617  27.272  27.904   7.068
 2924POPC   C4B40618  27.431  27.705   7.446
 2925POPC   NC340619  39.967  31.653   5.375
 2925POPC   PO440620  40.494  31.123   5.374
 2925POPC   GL140621  40.222  31.352   5.725
 2925POPC   GL240622  39.856  31.243   5.816
 2925POPC   C1A40623  40.068  31.563   6.148
 2925POPC   D2A40624  39.838  31.740   6.521
 2925POPC   C3A40625  39.999  31.579   6.932
 2925POPC   C4A40626  40.375  31.684   7.215
 2925POPC   C1B40627  39.603  31.330   6.247
 2925POPC   C2B40628  39.542  31.379   6.747
 2925POPC   C3B40629  39.524  31.350   7.227
 2925POPC   C4B40630  39.729  31.247   7.685
 2926POPC   NC340631  10.813  12.647   5.424
 2926POPC   PO440632  11.471  12.898   5.328
 2926POPC   GL140633  11.207  12.898   5.682
 2926POPC   GL240634  11.242  12.570   5.704
 2926POPC   C1A40635  11.164  12.972   6.119
 2926POPC   D2A40636  11.234  13.160   6.501
 2926POPC   C3A40637  11.245  12.891   6.853
 2926POPC   C4A40638  11.334  12.904   7.262
 2926POPC   C1B40639  11.479  12.583   6.079
 2926POPC   C2B40640  11.539  12.756   6.470
 2926POPC   C3B40641  11.650  12.571   6.875
 2926POPC   C4B40642  11.480  12.406   7.273
 2927POPC   NC340643  19.332  14.078   5.139
 2927POPC   PO440644  18.919  14.493   5.457
 2927POPC   GL140645  19.036  14.575   5.861
 2927POPC   GL240646  18.819  14.871   5.822
 2927POPC   C1A40647  19.348  14.509   6.222
 2927POPC   D2A40648  19.566  14.517   6.633
 2927POPC   C3A40649  19.342  14.250   6.933
 2927POPC   C4A40650  19.021  14.076   7.244
 2927POPC   C1B40651  18.915  14.805   6.282
 2927POPC   C2B40652  18.999  14.538   6.654
 2927POPC   C3B40653  18.959  14.572   7.109
 2927POPC   C4B40654  19.047  14.847   7.447
 2928POPC   NC340655   0.918  36.422   5.645
 2928POPC   PO440656   1.361  35.946   5.447
 2928POPC   GL140657   1.254  36.045   5.808
 2928POPC   GL240658   1.443  36.306   5.888
 2928POPC   C1A40659   1.195  35.916   6.213
 2928POPC   D2A40660   1.152  36.083   6.649
 2928POPC   C3A40661   1.433  36.039   7.017
 2928POPC   C4A40662   1.199  35.950   7.404
 2928POPC   C1B40663   1.257  36.427   6.274
 2928POPC   C2B40664   1.353  36.564   6.705
 2928POPC   C3B40665   1.340  36.589   7.169
 2928POPC   C4B40666   1.159  36.447   7.548
 2929POPC   NC340667  44.214   0.006   5.460
 2929POPC   PO440668  43.671   0.422   5.524
 2929POPC   GL140669  43.947   0.285   5.813
 2929POPC   GL240670  43.984   0.619   5.922
 2929POPC   C1A40671  44.015   0.232   6.261
 2929POPC   D2A40672  43.972   0.587   6.568
 2929POPC   C3A40673  44.044   0.427   7.009
 2929POPC   C4A40674  43.756   0.132   7.246
 2929POPC   C1B40675  43.586   0.500   6.149
 2929POPC   C2B40676  43.426   0.652   6.525
 2929POPC   C3B40677  43.559   0.549   6.888
 2929POPC   C4B40678  43.408   0.533   7.241
 2930POPC   NC340679  38.410  17.473   5.340
 2930POPC   PO440680  38.894  17.770   5.694
 2930POPC   GL140681  38.512  17.662   5.859
 2930POPC   GL240682  38.335  17.321   5.814
 2930POPC   C1A40683  38.423  17.845   6.249
 2930POPC   D2A40684  38.136  17.963   6.563
 2930POPC   C3A40685  38.375  17.891   6.915
 2930POPC   C4A40686  38.584  17.670   7.187
 2930POPC   C1B40687  38.174  17.404   6.201
 2930POPC   C2B40688  38.326  17.463   6.613
 2930POPC   C3B40689  38.205  17.332   7.023
 2930POPC   C4B40690  38.365  16.958   7.254
 2931POPC   NC340691  28.120   8.549   5.022
 2931POPC   PO440692  28.278   9.027   5.514
 2931POPC   GL140693  28.037   8.944   5.925
 2931POPC   GL240694  28.161   9.258   6.064
 2931POPC   C1A40695  27.962   8.942   6.387
 2931POPC   D2A40696  28.168   9.266   6.637
 2931POPC   C3A40697  28.217   9.119   7.064
 2931POPC   C4A40698  28.369   8.752   7.225
 2931POPC   C1B40699  28.508   9.016   6.245
 2931POPC   C2B40700  28.819   9.141   6.571
 2931POPC   C3B40701  28.801   9.032   7.025
 2931POPC   C4B40702  28.615   9.174   7.408
 2932POPC   NC340703  33.268  35.268   5.613
 2932POPC   PO440704  33.863  35.534   5.350
 2932POPC   GL140705  33.817  35.487   5.790
 2932POPC   GL240706  33.973  35.140   5.770
 2932POPC   C1A40707  33.710  35.630   6.267
 2932POPC   D2A40708  33.753  35.764   6.688
 2932POPC   C3A40709  33.652  35.484   7.040
 2932POPC   C4A40710  33.670  35.594   7.481
 2932POPC   C1B40711  33.874  35.176   6.183
 2932POPC   C2B40712  33.661  35.222   6.576
 2932POPC   C3B40713  33.595  34.899   6.830
 2932POPC   C4B40714  33.683  35.010   7.206
 2933POPC   NC340715  18.847  28.096   5.607
 2933POPC   PO440716  18.131  28.000   5.511
 2933POPC   GL140717  18.032  28.127   5.866
 2933POPC   GL240718  18.340  28.302   5.891
 2933POPC   C1A40719  17.998  28.307   6.262
 2933POPC   D2A40720  18.082  28.527   6.650
 2933POPC   C3A40721  18.052  28.323   7.037
 2933POPC   C4A40722  18.059  28.258   7.451
 2933POPC   C1B40723  18.567  28.214   6.248
 2933POPC   C2B40724  18.629  28.402   6.628
 2933POPC   C3B40725  18.823  28.356   7.027
 2933POPC   C4B40726  18.533  28.397   7.378
 2934POPC   NC340727  10.524  44.930   5.583
 2934POPC   PO440728  10.703  44.335   5.374
 2934POPC   GL140729  10.668  44.476   5.799
 2934POPC   GL240730  10.320  44.461   5.827
 2934POPC   C1A40731  10.592  44.679   6.224
 2934POPC   D2A40732  10.431  44.835   6.618
 2934POPC   C3A40733  10.490  44.615   6.975
 2934POPC   C4A40734  10.719  44.356   7.271
 2934POPC   C1B40735  10.212  44.323   6.239
 2934POPC   C2B40736  10.322  44.130   6.635
 2934POPC   C3B40737  10.237  44.077   7.077
 2934POPC   C4B40738  10.278  44.216   7.508
 2935POPC   NC340739   4.015   1.335   5.381
 2935POPC   PO440740   4.679   1.332   5.536
 2935POPC   GL140741   4.408   1.411   5.809
 2935POPC   GL240742   4.299   1.089   5.803
 2935POPC   C1A40743   4.164   1.447   6.154
 2935POPC   D2A40744   4.301   1.324   6.543
 2935POPC   C3A40745   4.236   1.569   6.902
 2935POPC   C4A40746   4.457   1.582   7.282
 2935POPC   C1B40747   4.212   0.935   6.210
 2935POPC   C2B40748   4.302   0.813   6.616
 2935POPC   C3B40749   4.139   1.035   6.942
 2935POPC   C4B40750   4.299   1.106   7.299
 2936POPC   NC340751  30.959  12.349   5.100
 2936POPC   PO440752  30.644  11.788   5.359
 2936POPC   GL140753  30.751  11.990   5.718
 2936POPC   GL240754  30.439  12.092   5.744
 2936POPC   C1A40755  30.935  12.083   6.145
 2936POPC   D2A40756  31.165  12.096   6.564
 2936POPC   C3A40757  30.914  12.166   6.920
 2936POPC   C4A40758  30.574  12.238   7.179
 2936POPC   C1B40759  30.488  11.820   6.125
 2936POPC   C2B40760  30.667  11.892   6.548
 2936POPC   C3B40761  30.589  11.769   6.969
 2936POPC   C4B40762  30.211  11.855   7.162
 2937POPC   NC340763  43.974  16.376   5.312
 2937POPC   PO440764  43.650  16.915   5.306
 2937POPC   GL140765  43.833  16.747   5.681
 2937POPC   GL240766  43.547  16.547   5.750
 2937POPC   C1A40767  44.031  16.861   6.075
 2937POPC   D2A40768  44.036  16.735   6.500
 2937POPC   C3A40769  44.179  16.993   6.832
 2937POPC   C4A40770  44.217  16.789   7.234
 2937POPC   C1B40771  43.528  16.557   6.205
 2937POPC   C2B40772  43.534  16.795   6.599
 2937POPC   C3B40773  43.761  16.728   6.980
 2937POPC   C4B40774  43.728  16.925   7.374
 2938POPC   NC340775  36.443  13.228   5.559
 2938POPC   PO440776  35.777  13.203   5.618
 2938POPC   GL140777  36.050  12.937   5.804
 2938POPC   GL240778  36.350  12.726   5.786
 2938POPC   C1A40779  36.214  13.022   6.184
 2938POPC   D2A40780  36.005  12.910   6.541
 2938POPC   C3A40781  36.193  13.027   6.899
 2938POPC   C4A40782  35.908  13.153   7.198
 2938POPC   C1B40783  36.143  12.541   6.195
 2938POPC   C2B40784  36.015  12.391   6.600
 2938POPC   C3B40785  35.937  12.596   6.977
 2938POPC   C4B40786  36.179  12.725   7.299
 2939POPC   NC340787  37.469  32.871   5.428
 2939POPC   PO440788  37.935  33.383   5.377
 2939POPC   GL140789  37.794  33.193   5.745
 2939POPC   GL240790  37.985  32.909   5.662
 2939POPC   C1A40791  37.608  33.185   6.183
 2939POPC   D2A40792  37.842  33.127   6.570
 2939POPC   C3A40793  37.608  33.067   6.964
 2939POPC   C4A40794  37.823  33.290   7.283
 2939POPC   C1B40795  37.962  32.823   6.096
 2939POPC   C2B40796  37.993  32.634   6.502
 2939POPC   C3B40797  38.060  32.826   6.948
 2939POPC   C4B40798  37.930  32.692   7.374
 2940POPC   NC340799  13.190  36.467   5.512
 2940POPC   PO440800  12.643  36.109   5.262
 2940POPC   GL140801  12.771  36.068   5.718
 2940POPC   GL240802  12.709  36.411   5.753
 2940POPC   C1A40803  12.964  36.044   6.165
 2940POPC   D2A40804  13.034  36.230   6.621
 2940POPC   C3A40805  13.028  36.045   7.075
 2940POPC   C4A40806  13.099  36.227   7.539
 2940POPC   C1B40807  12.471  36.219   6.085
 2940POPC   C2B40808  12.528  36.099   6.494
 2940POPC   C3B40809  12.584  36.265   6.893
 2940POPC   C4B40810  12.661  36.308   7.303
 2941POPC   NC340811  13.095  27.058   5.286
 2941POPC   PO440812  13.207  26.409   5.444
 2941POPC   GL140813  13.054  26.663   5.775
 2941POPC   GL240814  13.100  27.016   5.795
 2941POPC   C1A40815  13.217  26.713   6.213
 2941POPC   D2A40816  13.053  26.825   6.602
 2941POPC   C3A40817  13.249  26.785   6.983
 2941POPC   C4A40818  13.003  26.605   7.310
 2941POPC   C1B40819  13.082  27.214   6.230
 2941POPC   C2B40820  12.946  27.319   6.693
 2941POPC   C3B40821  12.885  27.171   7.141
 2941POPC   C4B40822  12.923  27.428   7.522
 2942POPC   NC340823  30.020  38.116   5.551
 2942POPC   PO440824  29.428  38.225   5.280
 2942POPC   GL140825  29.596  38.436   5.707
 2942POPC   GL240826  29.858  38.692   5.879
 2942POPC   C1A40827  29.550  38.403   6.194
 2942POPC   D2A40828  29.551  38.374   6.654
 2942POPC   C3A40829  29.783  38.626   6.930
 2942POPC   C4A40830  29.800  38.399   7.318
 2942POPC   C1B40831  30.042  38.486   6.265
 2942POPC   C2B40832  30.140  38.330   6.680
 2942POPC   C3B40833  30.279  38.459   7.098
 2942POPC   C4B40834  30.234  38.339   7.572
 2943POPC   NC340835  37.384  29.729   5.680
 2943POPC   PO440836  37.556  30.189   5.103
 2943POPC   GL140837  37.809  30.120   5.586
 2943POPC   GL240838  37.939  29.772   5.633
 2943POPC   C1A40839  37.823  30.150   6.083
 2943POPC   D2A40840  37.503  29.964   6.426
 2943POPC   C3A40841  37.581  29.920   6.903
 2943POPC   C4A40842  37.760  30.192   7.227
 2943POPC   C1B40843  37.967  29.659   6.098
 2943POPC   C2B40844  37.987  29.823   6.542
 2943POPC   C3B40845  38.086  29.722   6.957
 2943POPC   C4B40846  37.924  29.695   7.365
 2944POPC   NC340847  40.879  30.850   5.319
 2944POPC   PO440848  41.072  31.526   5.341
 2944POPC   GL140849  40.923  31.391   5.772
 2944POPC   GL240850  40.748  31.077   5.810
 2944POPC   C1A40851  40.982  31.282   6.243
 2944POPC   D2A40852  40.853  31.183   6.685
 2944POPC   C3A40853  40.852  31.568   6.953
 2944POPC   C4A40854  40.924  31.665   7.411
 2944POPC   C1B40855  40.473  31.240   6.158
 2944POPC   C2B40856  40.414  31.449   6.552
 2944POPC   C3B40857  40.380  31.244   6.931
 2944POPC   C4B40858  40.638  31.210   7.240
 2945POPC   NC340859  17.605  41.323   5.332
 2945POPC   PO440860  17.379  41.872   5.461
 2945POPC   GL140861  17.382  41.592   5.783
 2945POPC   GL240862  17.704  41.604   5.787
 2945POPC   C1A40863  17.376  41.465   6.234
 2945POPC   D2A40864  17.226  41.703   6.606
 2945POPC   C3A40865  17.458  41.577   6.962
 2945POPC   C4A40866  17.415  41.370   7.380
 2945POPC   C1B40867  17.905  41.567   6.180
 2945POPC   C2B40868  17.883  41.469   6.618
 2945POPC   C3B40869  17.940  41.743   6.973
 2945POPC   C4B40870  17.759  41.710   7.360
 2946POPC   NC340871  24.778  14.005   5.636
 2946POPC   PO440872  24.380  14.138   5.149
 2946POPC   GL140873  24.259  14.302   5.622
 2946POPC   GL240874  24.544  14.477   5.791
 2946POPC   C1A40875  24.310  14.185   6.122
 2946POPC   D2A40876  24.684  14.160   6.453
 2946POPC   C3A40877  24.679  14.126   6.944
 2946POPC   C4A40878  24.330  14.323   7.157
 2946POPC   C1B40879  24.555  14.617   6.259
 2946POPC   C2B40880  24.555  14.575   6.733
 2946POPC   C3B40881  24.716  14.697   7.149
 2946POPC   C4B40882  24.877  14.857   7.574
 2947POPC   NC340883   2.424  35.776   5.111
 2947POPC   PO440884   2.611  35.204   5.489
 2947POPC   GL140885   2.909  35.419   5.801
 2947POPC   GL240886   2.646  35.381   6.000
 2947POPC   C1A40887   2.984  35.628   6.246
 2947POPC   D2A40888   2.717  35.476   6.605
 2947POPC   C3A40889   2.826  35.645   6.984
 2947POPC   C4A40890   3.038  35.617   7.351
 2947POPC   C1B40891   2.811  35.086   6.281
 2947POPC   C2B40892   2.689  34.978   6.709
 2947POPC   C3B40893   2.924  35.147   7.069
 2947POPC   C4B40894   2.704  35.246   7.443
 2948POPC   NC340895  34.669  23.686   5.346
 2948POPC   PO440896  35.059  24.130   5.348
 2948POPC   GL140897  34.929  23.836   5.773
 2948POPC   GL240898  34.577  23.681   5.852
 2948POPC   C1A40899  34.892  23.572   6.224
 2948POPC   D2A40900  34.679  23.581   6.661
 2948POPC   C3A40901  34.803  23.395   7.076
 2948POPC   C4A40902  34.713  23.505   7.511
 2948POPC   C1B40903  34.335  23.523   6.257
 2948POPC   C2B40904  34.173  23.519   6.718
 2948POPC   C3B40905  34.358  23.665   7.139
 2948POPC   C4B40906  34.250  23.725   7.595
 2949POPC   NC340907   1.728   8.489   5.472
 2949POPC   PO440908   2.142   9.079   5.370
 2949POPC   GL140909   2.121   8.802   5.731
 2949POPC   GL240910   2.373   8.528   5.749
 2949POPC   C1A40911   1.925   8.927   6.136
 2949POPC   D2A40912   2.053   9.191   6.498
 2949POPC   C3A40913   1.815   9.140   6.879
 2949POPC   C4A40914   1.892   9.240   7.281
 2949POPC   C1B40915   2.270   8.574   6.202
 2949POPC   C2B40916   2.097   8.696   6.629
 2949POPC   C3B40917   1.897   8.642   7.046
 2949POPC   C4B40918   1.794   8.762   7.484
 2950POPC   NC340919  15.272   1.477   5.188
 2950POPC   PO440920  14.668   1.109   5.334
 2950POPC   GL140921  14.872   1.266   5.723
 2950POPC   GL240922  15.257   1.266   5.753
 2950POPC   C1A40923  14.946   1.257   6.169
 2950POPC   D2A40924  14.850   1.354   6.578
 2950POPC   C3A40925  15.186   1.263   6.882
 2950POPC   C4A40926  15.090   1.168   7.310
 2950POPC   C1B40927  15.403   1.481   6.171
 2950POPC   C2B40928  15.278   1.678   6.580
 2950POPC   C3B40929  15.478   1.670   7.006
 2950POPC   C4B40930  15.567   1.337   7.262
 2951POPC   NC340931  16.971  10.631   5.516
 2951POPC   PO440932  17.442  10.235   5.409
 2951POPC   GL140933  17.396  10.466   5.818
 2951POPC   GL240934  17.239  10.789   5.900
 2951POPC   C1A40935  17.450  10.278   6.252
 2951POPC   D2A40936  17.630  10.107   6.629
 2951POPC   C3A40937  17.513  10.279   6.997
 2951POPC   C4A40938  17.629  10.702   7.160
 2951POPC   C1B40939  17.356  10.759   6.333
 2951POPC   C2B40940  17.277  10.781   6.756
 2951POPC   C3B40941  17.098  10.571   7.091
 2951POPC   C4B40942  17.205  10.607   7.524
 2952POPC   NC340943  28.048  12.790   5.489
 2952POPC   PO440944  27.417  12.928   5.335
 2952POPC   GL140945  27.561  12.749   5.712
 2952POPC   GL240946  27.736  13.046   5.792
 2952POPC   C1A40947  27.735  12.609   6.116
 2952POPC   D2A40948  27.972  12.636   6.495
 2952POPC   C3A40949  27.824  12.460   6.889
 2952POPC   C4A40950  27.822  12.678   7.265
 2952POPC   C1B40951  27.420  13.091   6.095
 2952POPC   C2B40952  27.561  12.963   6.480
 2952POPC   C3B40953  27.671  12.982   6.891
 2952POPC   C4B40954  27.516  13.079   7.307
 2953POPC   NC340955  43.576  41.124   5.443
 2953POPC   PO440956  44.012  40.641   5.534
 2953POPC   GL140957  44.072  40.932   5.865
 2953POPC   GL240958  43.741  40.870   5.914
 2953POPC   C1A40959  44.066  40.896   6.319
 2953POPC   D2A40960  44.015  40.623   6.676
 2953POPC   C3A40961  43.778  40.860   6.999
 2953POPC   C4A40962  43.904  41.103   7.318
 2953POPC   C1B40963  43.493  40.678   6.255
 2953POPC   C2B40964  43.396  40.674   6.689
 2953POPC   C3B40965  43.439  40.494   7.118
 2953POPC   C4B40966  43.613  40.718   7.508
 2954POPC   NC340967  41.397  16.534   5.021
 2954POPC   PO440968  41.727  16.779   5.587
 2954POPC   GL140969  41.635  16.872   5.929
 2954POPC   GL240970  41.286  16.900   5.935
 2954POPC   C1A40971  41.802  16.785   6.307
 2954POPC   D2A40972  41.671  16.944   6.669
 2954POPC   C3A40973  41.663  16.665   6.982
 2954POPC   C4A40974  41.648  16.883   7.370
 2954POPC   C1B40975  41.275  16.671   6.308
 2954POPC   C2B40976  41.210  16.662   6.727
 2954POPC   C3B40977  41.173  16.797   7.133
 2954POPC   C4B40978  41.272  16.578   7.490
 2955POPC   NC340979  28.058  32.488   5.649
 2955POPC   PO440980  28.677  32.159   5.524
 2955POPC   GL140981  28.529  32.038   5.902
 2955POPC   GL240982  28.408  32.357   5.981
 2955POPC   C1A40983  28.533  32.052   6.358
 2955POPC   D2A40984  28.484  32.409   6.632
 2955POPC   C3A40985  28.520  32.273   7.051
 2955POPC   C4A40986  28.212  32.027   7.248
 2955POPC   C1B40987  28.091  32.426   6.297
 2955POPC   C2B40988  27.927  32.550   6.678
 2955POPC   C3B40989  27.990  32.465   7.100
 2955POPC   C4B40990  28.257  32.502   7.445
 2956POPC   NC340991  24.482   0.040   5.384
 2956POPC   PO440992  24.868  44.504   5.184
 2956POPC   GL140993  24.571  44.551   5.614
 2956POPC   GL240994  24.306  44.792   5.815
 2956POPC   C1A40995  24.641  44.564   6.101
 2956POPC   D2A40996  24.422  44.641   6.506
 2956POPC   C3A40997  24.602  44.466   6.891
 2956POPC   C4A40998  24.696  44.504   7.354
 2956POPC   C1B40999  24.094  44.497   6.112
 2956POPC   C2B41000  23.878  44.557   6.521
 2956POPC   C3B41001  24.079  44.642   6.899
 2956POPC   C4B41002  24.215  44.469   7.269
 2957POPC   NC341003  37.945  36.185   5.302
 2957POPC   PO441004  37.442  35.780   5.227
 2957POPC   GL141005  37.726  36.003   5.693
 2957POPC   GL241006  37.530  36.246   5.876
 2957POPC   C1A41007  37.853  35.939   6.176
 2957POPC   D2A41008  37.693  35.781   6.623
 2957POPC   C3A41009  37.498  35.995   7.014
 2957POPC   C4A41010  37.413  35.751   7.409
 2957POPC   C1B41011  37.715  36.426   6.252
 2957POPC   C2B41012  37.940  36.229   6.591
 2957POPC   C3B41013  38.022  36.123   6.983
 2957POPC   C4B41014  37.827  36.395   7.242
 2958POPC   NC341015  33.598  10.039   5.478
 2958POPC   PO441016  34.251   9.947   5.528
 2958POPC   GL141017  33.930   9.699   5.741
 2958POPC   GL241018  33.794   9.954   5.959
 2958POPC   C1A41019  33.820   9.495   6.132
 2958POPC   D2A41020  33.689   9.667   6.520
 2958POPC   C3A41021  33.988   9.645   6.855
 2958POPC   C4A41022  33.847   9.586   7.236
 2958POPC   C1B41023  34.116   9.899   6.317
 2958POPC   C2B41024  34.020  10.124   6.722
 2958POPC   C3B41025  33.677  10.052   7.060
 2958POPC   C4B41026  33.705  10.015   7.543
 2959POPC   NC341027   8.147   7.273   5.331
 2959POPC   PO441028   8.153   7.942   5.417
 2959POPC   GL141029   8.058   7.645   5.692
 2959POPC   GL241030   8.344   7.466   5.784
 2959POPC   C1A41031   7.909   7.390   6.059
 2959POPC   D2A41032   7.946   7.341   6.532
 2959POPC   C3A41033   8.057   7.469   6.968
 2959POPC   C4A41034   7.851   7.318   7.343
 2959POPC   C1B41035   8.241   7.751   6.167
 2959POPC   C2B41036   8.337   7.742   6.631
 2959POPC   C3B41037   8.481   7.762   7.107
 2959POPC   C4B41038   8.525   7.795   7.592
 2960POPC   NC341039  11.245   1.475   5.486
 2960POPC   PO441040  11.122   0.833   5.435
 2960POPC   GL141041  11.372   1.011   5.746
 2960POPC   GL241042  11.547   1.309   5.826
 2960POPC   C1A41043  11.362   0.991   6.167
 2960POPC   D2A41044  11.327   1.234   6.525
 2960POPC   C3A41045  11.460   1.020   6.878
 2960POPC   C4A41046  11.359   1.073   7.300
 2960POPC   C1B41047  11.742   1.388   6.204
 2960POPC   C2B41048  11.792   1.448   6.640
 2960POPC   C3B41049  11.687   1.445   7.081
 2960POPC   C4B41050  11.698   1.387   7.557
 2961POPC   NC341051   5.582  27.898   5.409
 2961POPC   PO441052   5.443  28.568   5.382
 2961POPC   GL141053   5.373  28.405   5.818
 2961POPC   GL241054   5.322  28.052   5.907
 2961POPC   C1A41055   5.189  28.561   6.212
 2961POPC   D2A41056   4.839  28.469   6.549
 2961POPC   C3A41057   4.898  28.467   7.029
 2961POPC   C4A41058   5.081  28.481   7.483
 2961POPC   C1B41059   5.223  28.092   6.356
 2961POPC   C2B41060   5.305  28.352   6.720
 2961POPC   C3B41061   5.323  28.185   7.138
 2961POPC   C4B41062   5.368  27.931   7.504
 2962POPC   NC341063  13.881  32.542   5.526
 2962POPC   PO441064  13.235  32.314   5.483
 2962POPC   GL141065  13.519  32.301   5.827
 2962POPC   GL241066  13.743  32.041   5.929
 2962POPC   C1A41067  13.478  32.457   6.234
 2962POPC   D2A41068  13.457  32.689   6.617
 2962POPC   C3A41069  13.541  32.442   6.931
 2962POPC   C4A41070  13.394  32.358   7.298
 2962POPC   C1B41071  13.857  32.118   6.358
 2962POPC   C2B41072  13.840  32.051   6.793
 2962POPC   C3B41073  13.999  32.300   7.156
 2962POPC   C4B41074  13.828  32.436   7.537
 2963POPC   NC341075   8.707  42.036   5.522
 2963POPC   PO441076   8.884  41.424   5.294
 2963POPC   GL141077   8.885  41.543   5.752
 2963POPC   GL241078   8.566  41.666   5.829
 2963POPC   C1A41079   9.049  41.399   6.189
 2963POPC   D2A41080   9.251  41.228   6.604
 2963POPC   C3A41081   9.052  41.400   6.993
 2963POPC   C4A41082   8.728  41.353   7.272
 2963POPC   C1B41083   8.701  41.774   6.246
 2963POPC   C2B41084   8.646  41.650   6.664
 2963POPC   C3B41085   8.752  41.816   7.054
 2963POPC   C4B41086   8.867  41.850   7.471
 2964POPC   NC341087   5.598  42.672   5.034
 2964POPC   PO441088   6.037  42.985   5.526
 2964POPC   GL141089   5.860  43.231   5.854
 2964POPC   GL241090   5.993  43.573   5.835
 2964POPC   C1A41091   5.650  43.470   6.186
 2964POPC   D2A41092   5.454  43.418   6.588
 2964POPC   C3A41093   5.795  43.311   6.890
 2964POPC   C4A41094   5.888  43.133   7.310
 2964POPC   C1B41095   6.242  43.476   6.226
 2964POPC   C2B41096   6.317  43.561   6.654
 2964POPC   C3B41097   6.299  43.352   7.066
 2964POPC   C4B41098   6.339  43.296   7.508
 2965POPC   NC341099  10.057  21.348   5.171
 2965POPC   PO441100  10.610  21.632   5.420
 2965POPC   GL141101  10.552  21.450   5.815
 2965POPC   GL241102  10.341  21.659   5.993
 2965POPC   C1A41103  10.642  21.348   6.256
 2965POPC   D2A41104  10.895  21.538   6.578
 2965POPC   C3A41105  10.747  21.421   6.949
 2965POPC   C4A41106  10.612  21.327   7.353
 2965POPC   C1B41107  10.231  21.682   6.378
 2965POPC   C2B41108  10.318  21.620   6.777
 2965POPC   C3B41109  10.299  21.694   7.185
 2965POPC   C4B41110  10.394  21.768   7.618
 2966POPC   NC341111  15.551  30.331   5.644
 2966POPC   PO441112  15.964  30.831   5.429
 2966POPC   GL141113  15.935  30.639   5.825
 2966POPC   GL241114  16.132  30.360   5.877
 2966POPC   C1A41115  15.805  30.667   6.255
 2966POPC   D2A41116  15.863  30.989   6.547
 2966POPC   C3A41117  15.845  30.925   6.985
 2966POPC   C4A41118  15.920  30.820   7.411
 2966POPC   C1B41119  16.330  30.320   6.294
 2966POPC   C2B41120  16.105  30.498   6.663
 2966POPC   C3B41121  16.100  30.460   7.113
 2966POPC   C4B41122  16.144  30.382   7.574
 2967POPC   NC341123  12.970  32.042   5.189
 2967POPC   PO441124  12.711  31.464   5.429
 2967POPC   GL141125  12.907  31.405   5.824
 2967POPC   GL241126  12.845  31.772   5.841
 2967POPC   C1A41127  12.900  31.181   6.231
 2967POPC   D2A41128  13.068  31.289   6.637
 2967POPC   C3A41129  12.762  31.290   6.963
 2967POPC   C4A41130  12.767  31.383   7.388
 2967POPC   C1B41131  12.914  31.739   6.272
 2967POPC   C2B41132  12.792  31.981   6.639
 2967POPC   C3B41133  12.872  31.790   7.040
 2967POPC   C4B41134  13.210  31.465   7.117
 2968POPC   NC341135  30.382  29.428   5.503
 2968POPC   PO441136  31.009  29.513   5.548
 2968POPC   GL141137  30.720  29.454   5.907
 2968POPC   GL241138  30.653  29.094   5.934
 2968POPC   C1A41139  30.542  29.433   6.339
 2968POPC   D2A41140  30.779  29.432   6.728
 2968POPC   C3A41141  30.632  29.220   7.072
 2968POPC   C4A41142  30.523  29.370   7.480
 2968POPC   C1B41143  30.441  28.930   6.320
 2968POPC   C2B41144  30.275  29.050   6.724
 2968POPC   C3B41145  30.299  28.859   7.138
 2968POPC   C4B41146  30.625  28.586   7.326
 2969POPC   NC341147  25.697  24.339   5.023
 2969POPC   PO441148  26.235  24.413   5.481
 2969POPC   GL141149  25.969  24.614   5.802
 2969POPC   GL241150  26.208  24.709   5.969
 2969POPC   C1A41151  25.801  24.379   6.175
 2969POPC   D2A41152  25.955  24.211   6.564
 2969POPC   C3A41153  25.773  24.239   6.935
 2969POPC   C4A41154  25.698  24.362   7.317
 2969POPC   C1B41155  26.162  24.659   6.408
 2969POPC   C2B41156  26.166  24.576   6.835
 2969POPC   C3B41157  26.201  24.475   7.252
 2969POPC   C4B41158  26.351  24.741   7.607
 2970POPC   NC341159  32.076  33.468   5.383
 2970POPC   PO441160  32.500  33.976   5.385
 2970POPC   GL141161  32.203  33.892   5.779
 2970POPC   GL241162  31.984  33.588   5.854
 2970POPC   C1A41163  32.098  33.897   6.250
 2970POPC   D2A41164  32.006  34.023   6.693
 2970POPC   C3A41165  32.268  33.863   7.039
 2970POPC   C4A41166  32.391  33.919   7.466
 2970POPC   C1B41167  31.760  33.475   6.211
 2970POPC   C2B41168  31.742  33.590   6.610
 2970POPC   C3B41169  31.900  33.487   7.018
 2970POPC   C4B41170  31.980  33.624   7.441
 2971POPC   NC341171   7.433  22.696   5.487
 2971POPC   PO441172   7.083  23.336   5.407
 2971POPC   GL141173   7.281  23.056   5.801
 2971POPC   GL241174   7.091  22.729   5.850
 2971POPC   C1A41175   7.557  22.817   6.148
 2971POPC   D2A41176   7.783  22.666   6.566
 2971POPC   C3A41177   7.688  22.800   7.014
 2971POPC   C4A41178   7.576  22.490   7.336
 2971POPC   C1B41179   7.150  22.560   6.236
 2971POPC   C2B41180   7.279  22.785   6.609
 2971POPC   C3B41181   7.210  22.634   7.018
 2971POPC   C4B41182   7.233  22.848   7.439
 2972POPC   NC341183  43.202  20.951   5.526
 2972POPC   PO441184  43.076  20.302   5.473
 2972POPC   GL141185  42.905  20.449   5.801
 2972POPC   GL241186  43.211  20.593   5.881
 2972POPC   C1A41187  42.871  20.389   6.226
 2972POPC   D2A41188  43.176  20.444   6.552
 2972POPC   C3A41189  43.063  20.276   6.970
 2972POPC   C4A41190  42.912  20.416   7.381
 2972POPC   C1B41191  43.526  20.571   6.153
 2972POPC   C2B41192  43.649  20.672   6.523
 2972POPC   C3B41193  43.562  20.458   6.888
 2972POPC   C4B41194  43.416  20.536   7.269
 2973POPC   NC341195  11.248  13.309   5.378
 2973POPC   PO441196  11.004  13.993   5.460
 2973POPC   GL141197  11.255  13.696   5.715
 2973POPC   GL241198  11.069  13.399   5.839
 2973POPC   C1A41199  11.508  13.635   6.065
 2973POPC   D2A41200  11.250  13.657   6.403
 2973POPC   C3A41201  11.278  13.788   6.832
 2973POPC   C4A41202  10.986  13.751   7.222
 2973POPC   C1B41203  10.845  13.381   6.213
 2973POPC   C2B41204  10.835  13.512   6.638
 2973POPC   C3B41205  11.076  13.339   6.956
 2973POPC   C4B41206  11.479  13.443   7.174
 2974POPC   NC341207  15.777  13.500   5.165
 2974POPC   PO441208  15.289  13.905   5.495
 2974POPC   GL141209  15.056  13.692   5.781
 2974POPC   GL241210  15.324  13.471   5.842
 2974POPC   C1A41211  14.983  13.619   6.212
 2974POPC   D2A41212  15.116  13.440   6.592
 2974POPC   C3A41213  15.023  13.667   6.921
 2974POPC   C4A41214  15.141  13.695   7.280
 2974POPC   C1B41215  15.496  13.510   6.250
 2974POPC   C2B41216  15.511  13.738   6.648
 2974POPC   C3B41217  15.600  13.584   7.041
 2974POPC   C4B41218  15.608  13.725   7.466
 2975POPC   NC341219  10.679  19.608   5.480
 2975POPC   PO441220  10.275  20.168   5.510
 2975POPC   GL141221  10.547  20.003   5.825
 2975POPC   GL241222  10.485  19.663   5.933
 2975POPC   C1A41223  10.521  20.044   6.273
 2975POPC   D2A41224  10.637  19.880   6.666
 2975POPC   C3A41225  10.445  20.020   7.048
 2975POPC   C4A41226  10.785  19.962   7.317
 2975POPC   C1B41227  10.691  19.523   6.282
 2975POPC   C2B41228  10.518  19.373   6.666
 2975POPC   C3B41229  10.611  19.534   7.072
 2975POPC   C4B41230  10.715  19.481   7.506
 2976POPC   NC341231  12.520   0.476   5.300
 2976POPC   PO441232  11.895   0.302   5.444
 2976POPC   GL141233  12.065   0.506   5.808
 2976POPC   GL241234  12.317   0.803   5.762
 2976POPC   C1A41235  11.883   0.455   6.234
 2976POPC   D2A41236  11.757   0.523   6.670
 2976POPC   C3A41237  12.036   0.540   7.023
 2976POPC   C4A41238  11.946   0.559   7.455
 2976POPC   C1B41239  12.319   0.706   6.240
 2976POPC   C2B41240  12.260   0.333   6.570
 2976POPC   C3B41241  12.308   0.109   6.995
 2976POPC   C4B41242  12.367   0.285   7.436
 2977POPC   NC341243  13.404  25.650   5.495
 2977POPC   PO441244  13.750  25.135   5.097
 2977POPC   GL141245  13.716  25.229   5.594
 2977POPC   GL241246  13.562  25.033   5.897
 2977POPC   C1A41247  13.778  25.486   6.013
 2977POPC   D2A41248  13.559  25.321   6.406
 2977POPC   C3A41249  13.632  25.346   6.855
 2977POPC   C4A41250  13.722  25.054   7.160
 2977POPC   C1B41251  13.245  24.965   6.246
 2977POPC   C2B41252  13.088  24.992   6.681
 2977POPC   C3B41253  13.213  25.125   7.091
 2977POPC   C4B41254  13.449  25.432   7.347
 2978POPC   NC341255  16.573  32.389   5.454
 2978POPC   PO441256  16.937  31.751   5.457
 2978POPC   GL141257  16.864  32.129   5.805
 2978POPC   GL241258  16.506  32.221   5.936
 2978POPC   C1A41259  16.938  32.428   6.202
 2978POPC   D2A41260  17.059  32.418   6.681
 2978POPC   C3A41261  16.869  32.269   7.073
 2978POPC   C4A41262  16.755  31.874   7.241
 2978POPC   C1B41263  16.428  32.552   6.246
 2978POPC   C2B41264  16.465  32.752   6.681
 2978POPC   C3B41265  16.431  32.605   7.073
 2978POPC   C4B41266  16.328  32.181   7.190
 2979POPC   NC341267  40.542  29.306   5.513
 2979POPC   PO441268  41.104  28.973   5.440
 2979POPC   GL141269  40.925  29.125   5.826
 2979POPC   GL241270  41.017  29.456   5.864
 2979POPC   C1A41271  40.746  29.056   6.247
 2979POPC   D2A41272  40.711  28.765   6.592
 2979POPC   C3A41273  40.796  28.882   6.991
 2979POPC   C4A41274  40.659  28.829   7.413
 2979POPC   C1B41275  40.898  29.561   6.311
 2979POPC   C2B41276  40.735  29.333   6.711
 2979POPC   C3B41277  40.583  29.297   7.184
 2979POPC   C4B41278  40.435  29.395   7.627
 2980POPC   NC341279  25.808  24.221   5.543
 2980POPC   PO441280  26.192  23.650   5.448
 2980POPC   GL141281  26.090  23.870   5.792
 2980POPC   GL241282  26.396  23.822   5.957
 2980POPC   C1A41283  25.957  23.879   6.196
 2980POPC   D2A41284  26.205  23.778   6.553
 2980POPC   C3A41285  25.979  23.757   6.938
 2980POPC   C4A41286  26.047  23.981   7.296
 2980POPC   C1B41287  26.328  24.220   6.144
 2980POPC   C2B41288  26.470  24.238   6.551
 2980POPC   C3B41289  26.410  24.093   6.951
 2980POPC   C4B41290  26.591  23.927   7.329
 2981POPC   NC341291  44.449   3.191   5.550
 2981POPC   PO441292  44.819   2.713   5.252
 2981POPC   GL141293  44.603   2.690   5.704
 2981POPC   GL241294  44.901   2.645   5.927
 2981POPC   C1A41295  44.456   2.681   6.188
 2981POPC   D2A41296  44.493   2.911   6.600
 2981POPC   C3A41297  44.662   2.709   6.965
 2981POPC   C4A41298  44.572   2.883   7.356
 2981POPC   C1B41299  44.881   2.967   6.279
 2981POPC   C2B41300   0.004   2.989   6.673
 2981POPC   C3B41301  44.933   3.166   7.044
 2981POPC   C4B41302   0.032   3.057   7.473
 2982POPC   NC341303  42.019  35.399   5.442
 2982POPC   PO441304  41.389  35.604   5.229
 2982POPC   GL141305  41.432  35.371   5.640
 2982POPC   GL241306  41.383  35.634   5.866
 2982POPC   C1A41307  41.431  35.147   6.071
 2982POPC   D2A41308  41.691  34.984   6.397
 2982POPC   C3A41309  41.663  35.105   6.834
 2982POPC   C4A41310  41.468  35.175   7.213
 2982POPC   C1B41311  41.089  35.493   6.184
 2982POPC   C2B41312  41.261  35.338   6.554
 2982POPC   C3B41313  41.092  35.353   6.940
 2982POPC   C4B41314  41.145  35.556   7.291
 2983POPC   NC341315   6.523   9.300   5.441
 2983POPC   PO441316   6.935   8.871   5.609
 2983POPC   GL141317   6.643   8.691   5.877
 2983POPC   GL241318   6.471   8.998   5.949
 2983POPC   C1A41319   6.564   8.588   6.322
 2983POPC   D2A41320   6.765   8.510   6.731
 2983POPC   C3A41321   6.702   8.864   6.948
 2983POPC   C4A41322   6.345   8.879   7.236
 2983POPC   C1B41323   6.838   9.025   6.272
 2983POPC   C2B41324   6.922   9.274   6.673
 2983POPC   C3B41325   6.807   9.355   7.106
 2983POPC   C4B41326   6.807   8.999   7.420
 2984POPC   NC341327  26.395  30.943   5.421
 2984POPC   PO441328  26.270  31.698   5.393
 2984POPC   GL141329  26.291  31.400   5.741
 2984POPC   GL241330  26.023  31.114   5.771
 2984POPC   C1A41331  26.213  31.479   6.167
 2984POPC   D2A41332  26.091  31.626   6.551
 2984POPC   C3A41333  26.294  31.432   6.886
 2984POPC   C4A41334  26.240  31.640   7.265
 2984POPC   C1B41335  25.766  31.211   6.149
 2984POPC   C2B41336  25.706  31.291   6.593
 2984POPC   C3B41337  25.779  31.471   6.989
 2984POPC   C4B41338  25.596  31.181   7.224
 2985POPC   NC341339  18.674  38.005   5.500
 2985POPC   PO441340  18.091  37.819   5.237
 2985POPC   GL141341  18.157  37.995   5.636
 2985POPC   GL241342  18.343  37.716   5.760
 2985POPC   C1A41343  18.202  38.104   6.095
 2985POPC   D2A41344  18.026  38.010   6.504
 2985POPC   C3A41345  18.222  37.979   6.905
 2985POPC   C4A41346  18.368  37.761   7.241
 2985POPC   C1B41347  18.185  37.589   6.160
 2985POPC   C2B41348  18.362  37.595   6.567
 2985POPC   C3B41349  18.259  37.383   6.926
 2985POPC   C4B41350  18.546  37.226   7.175
 2986POPC   NC341351  10.920   3.339   5.355
 2986POPC   PO441352  10.193   3.275   5.360
 2986POPC   GL141353  10.335   3.344   5.802
 2986POPC   GL241354  10.417   3.685   5.819
 2986POPC   C1A41355  10.564   3.392   6.230
 2986POPC   D2A41356  10.344   3.335   6.618
 2986POPC   C3A41357  10.536   3.383   6.996
 2986POPC   C4A41358  10.423   3.504   7.402
 2986POPC   C1B41359  10.403   3.893   6.236
 2986POPC   C2B41360  10.578   3.775   6.657
 2986POPC   C3B41361  10.506   3.919   7.081
 2986POPC   C4B41362  10.693   4.031   7.490
 2987POPC   NC341363  34.725  22.002   5.249
 2987POPC   PO441364  35.089  22.442   5.545
 2987POPC   GL141365  34.794  22.196   5.851
 2987POPC   GL241366  34.708  21.858   5.815
 2987POPC   C1A41367  34.520  22.160   6.258
 2987POPC   D2A41368  34.512  22.358   6.683
 2987POPC   C3A41369  34.449  22.237   7.126
 2987POPC   C4A41370  34.360  22.474   7.516
 2987POPC   C1B41371  34.866  21.801   6.263
 2987POPC   C2B41372  34.749  21.874   6.714
 2987POPC   C3B41373  34.765  21.832   7.179
 2987POPC   C4B41374  34.909  22.122   7.518
 2988POPC   NC341375   6.487  42.939   5.407
 2988POPC   PO441376   6.658  43.595   5.168
 2988POPC   GL141377   6.718  43.364   5.616
 2988POPC   GL241378   6.389  43.252   5.787
 2988POPC   C1A41379   6.767  43.262   6.092
 2988POPC   D2A41380   6.772  43.038   6.486
 2988POPC   C3A41381   6.777  43.253   6.870
 2988POPC   C4A41382   6.761  43.079   7.283
 2988POPC   C1B41383   6.264  42.971   6.157
 2988POPC   C2B41384   6.267  43.057   6.599
 2988POPC   C3B41385   6.427  42.867   6.937
 2988POPC   C4B41386   6.273  42.797   7.320
 2989POPC   NC341387  38.094  42.598   5.579
 2989POPC   PO441388  38.180  43.244   5.498
 2989POPC   GL141389  38.136  43.003   5.930
 2989POPC   GL241390  38.358  42.718   6.016
 2989POPC   C1A41391  38.234  43.030   6.426
 2989POPC   D2A41392  38.333  42.947   6.894
 2989POPC   C3A41393  38.454  43.282   7.184
 2989POPC   C4A41394  38.744  43.294   7.571
 2989POPC   C1B41395  38.712  42.935   6.265
 2989POPC   C2B41396  38.826  42.868   6.726
 2989POPC   C3B41397  38.794  42.914   7.195
 2989POPC   C4B41398  38.861  42.792   7.653
 2990POPC   NC341399   0.380  18.976   5.316
 2990POPC   PO441400   0.986  18.986   5.520
 2990POPC   GL141401   0.711  18.928   5.860
 2990POPC   GL241402   0.393  19.128   5.821
 2990POPC   C1A41403   0.577  18.982   6.295
 2990POPC   D2A41404   0.437  19.297   6.604
 2990POPC   C3A41405   0.314  19.121   7.015
 2990POPC   C4A41406   0.547  18.892   7.338
 2990POPC   C1B41407   0.084  19.070   6.174
 2990POPC   C2B41408   0.126  18.881   6.579
 2990POPC   C3B41409   0.041  18.684   6.975
 2990POPC   C4B41410  44.899  18.643   7.414
 2991POPC   NC341411  35.432  43.668   5.193
 2991POPC   PO441412  34.944  43.904   5.443
 2991POPC   GL141413  35.024  43.861   5.876
 2991POPC   GL241414  35.138  43.542   5.888
 2991POPC   C1A41415  35.151  43.843   6.330
 2991POPC   D2A41416  35.415  43.634   6.638
 2991POPC   C3A41417  35.510  43.812   7.035
 2991POPC   C4A41418  35.789  43.956   7.384
 2991POPC   C1B41419  34.797  43.494   6.219
 2991POPC   C2B41420  34.905  43.469   6.669
 2991POPC   C3B41421  34.997  43.727   7.069
 2991POPC   C4B41422  34.822  43.676   7.513
 2992POPC   NC341423  37.896  37.773   5.433
 2992POPC   PO441424  37.265  37.484   5.444
 2992POPC   GL141425  37.547  37.574   5.834
 2992POPC   GL241426  37.894  37.755   5.926
 2992POPC   C1A41427  37.534  37.799   6.269
 2992POPC   D2A41428  37.708  38.015   6.648
 2992POPC   C3A41429  37.414  37.985   6.993
 2992POPC   C4A41430  37.421  37.659   7.280
 2992POPC   C1B41431  38.077  37.766   6.342
 2992POPC   C2B41432  38.084  37.531   6.740
 2992POPC   C3B41433  37.866  37.711   7.065
 2992POPC   C4B41434  37.870  38.128   7.201
 2993POPC   NC341435  13.270  15.923   5.366
 2993POPC   PO441436  13.990  15.994   5.372
 2993POPC   GL141437  13.710  16.022   5.697
 2993POPC   GL241438  13.515  15.731   5.774
 2993POPC   C1A41439  13.785  16.221   6.082
 2993POPC   D2A41440  13.592  16.341   6.458
 2993POPC   C3A41441  13.752  16.162   6.852
 2993POPC   C4A41442  13.534  16.209   7.243
 2993POPC   C1B41443  13.380  15.899   6.146
 2993POPC   C2B41444  13.351  15.877   6.583
 2993POPC   C3B41445  13.352  15.808   7.010
 2993POPC   C4B41446  13.770  15.649   7.067
 2994POPC   NC341447  42.802  18.612   5.487
 2994POPC   PO441448  43.243  18.158   5.287
 2994POPC   GL141449  43.155  18.178   5.729
 2994POPC   GL241450  43.462  17.971   5.752
 2994POPC   C1A41451  42.875  18.286   6.122
 2994POPC   D2A41452  42.758  18.184   6.574
 2994POPC   C3A41453  42.752  18.492   6.947
 2994POPC   C4A41454  43.024  18.469   7.315
 2994POPC   C1B41455  43.271  17.947   6.172
 2994POPC   C2B41456  43.306  18.087   6.587
 2994POPC   C3B41457  43.098  18.087   6.954
 2994POPC   C4B41458  43.352  18.077   7.293
 2995POPC   NC341459  22.432  28.976   5.226
 2995POPC   PO441460  22.158  29.548   5.527
 2995POPC   GL141461  22.348  29.235   5.809
 2995POPC   GL241462  22.494  28.902   5.711
 2995POPC   C1A41463  22.254  29.231   6.258
 2995POPC   D2A41464  22.022  29.253   6.640
 2995POPC   C3A41465  22.161  28.995   6.953
 2995POPC   C4A41466  21.955  28.766   7.263
 2995POPC   C1B41467  22.236  28.747   6.050
 2995POPC   C2B41468  22.399  28.586   6.445
 2995POPC   C3B41469  22.564  28.667   6.817
 2995POPC   C4B41470  22.437  28.603   7.217
 2996POPC   NC341471  31.165   6.119   5.412
 2996POPC   PO441472  31.754   5.830   5.331
 2996POPC   GL141473  31.524   5.753   5.752
 2996POPC   GL241474  31.249   5.935   5.914
 2996POPC   C1A41475  31.674   5.739   6.189
 2996POPC   D2A41476  31.537   5.879   6.573
 2996POPC   C3A41477  31.756   5.802   6.919
 2996POPC   C4A41478  31.573   5.915   7.245
 2996POPC   C1B41479  31.078   5.862   6.362
 2996POPC   C2B41480  31.118   6.012   6.838
 2996POPC   C3B41481  31.180   6.221   7.262
 2996POPC   C4B41482  31.005   6.188   7.712
 2997POPC   NC341483  27.942  36.889   5.485
 2997POPC   PO441484  28.547  37.245   5.343
 2997POPC   GL141485  28.396  37.052   5.709
 2997POPC   GL241486  28.153  37.297   5.775
 2997POPC   C1A41487  28.510  36.907   6.128
 2997POPC   D2A41488  28.697  36.818   6.537
 2997POPC   C3A41489  28.365  36.709   6.808
 2997POPC   C4A41490  28.353  36.819   7.239
 2997POPC   C1B41491  28.128  37.279   6.196
 2997POPC   C2B41492  28.105  37.106   6.584
 2997POPC   C3B41493  27.972  37.034   6.970
 2997POPC   C4B41494  28.136  37.282   7.278
 2998POPC   NC341495  14.059  12.333   5.532
 2998POPC   PO441496  14.576  12.252   5.057
 2998POPC   GL141497  14.619  12.039   5.543
 2998POPC   GL241498  14.305  11.980   5.778
 2998POPC   C1A41499  14.739  11.934   6.023
 2998POPC   D2A41500  14.778  11.779   6.471
 2998POPC   C3A41501  14.539  11.932   6.848
 2998POPC   C4A41502  14.724  11.969   7.265
 2998POPC   C1B41503  14.408  12.330   6.137
 2998POPC   C2B41504  14.342  12.466   6.594
 2998POPC   C3B41505  14.207  12.370   7.017
 2998POPC   C4B41506  14.240  12.107   7.387
 2999POPC   NC341507  11.464  19.310   5.010
 2999POPC   PO441508  11.158  19.824   5.445
 2999POPC   GL141509  11.028  19.752   5.879
 2999POPC   GL241510  11.405  19.697   5.945
 2999POPC   C1A41511  11.054  19.943   6.316
 2999POPC   D2A41512  11.387  19.833   6.649
 2999POPC   C3A41513  11.276  19.915   7.081
 2999POPC   C4A41514  11.232  19.829   7.538
 2999POPC   C1B41515  11.204  19.468   6.288
 2999POPC   C2B41516  11.033  19.462   6.735
 2999POPC   C3B41517  11.101  19.451   7.208
 2999POPC   C4B41518  11.146  19.357   7.737
 3000POPC   NC341519  24.996  11.825   5.334
 3000POPC   PO441520  25.410  12.231   5.729
 3000POPC   GL141521  25.156  11.940   5.890
 3000POPC   GL241522  25.325  11.688   5.709
 3000POPC   C1A41523  25.200  11.930   6.360
 3000POPC   D2A41524  25.298  12.137   6.767
 3000POPC   C3A41525  24.993  12.116   7.128
 3000POPC   C4A41526  24.982  12.163   7.597
 3000POPC   C1B41527  25.586  11.690   6.104
 3000POPC   C2B41528  25.572  11.642   6.556
 3000POPC   C3B41529  25.447  11.688   6.954
 3000POPC   C4B41530  25.483  12.010   7.257
 3001POPC   NC341531  44.713  29.223   5.276
 3001POPC   PO441532   0.032  29.352   5.778
 3001POPC   GL141533  44.589  29.260   5.770
 3001POPC   GL241534  44.398  29.535   5.582
 3001POPC   C1A41535  44.429  29.072   6.138
 3001POPC   D2A41536  44.570  29.219   6.536
 3001POPC   C3A41537  44.515  28.998   6.891
 3001POPC   C4A41538  44.527  28.883   7.283
 3001POPC   C1B41539  44.304  29.579   6.049
 3001POPC   C2B41540  44.321  29.658   6.491
 3001POPC   C3B41541  44.320  29.493   6.933
 3001POPC   C4B41542  44.436  29.394   7.355
 3002POPC   NC341543  14.769  15.040   5.414
 3002POPC   PO441544  14.046  14.996   5.350
 3002POPC   GL141545  14.292  15.199   5.724
 3002POPC   GL241546  14.563  15.003   5.875
 3002POPC   C1A41547  14.371  15.345   6.180
 3002POPC   D2A41548  14.457  15.193   6.595
 3002POPC   C3A41549  14.378  15.461   6.953
 3002POPC   C4A41550  14.327  15.279   7.354
 3002POPC   C1B41551  14.697  14.807   6.260
 3002POPC   C2B41552  14.769  14.779   6.684
 3002POPC   C3B41553  14.606  14.974   7.031
 3002POPC   C4B41554  14.598  14.879   7.475
 3003POPC   NC341555  17.297  13.900   5.437
 3003POPC   PO441556  17.932  13.737   5.400
 3003POPC   GL141557  17.592  13.670   5.795
 3003POPC   GL241558  17.357  13.349   5.836
 3003POPC   C1A41559  17.393  13.703   6.232
 3003POPC   D2A41560  17.256  13.844   6.653
 3003POPC   C3A41561  17.471  13.710   7.026
 3003POPC   C4A41562  17.845  13.539   7.280
 3003POPC   C1B41563  17.669  13.295   6.174
 3003POPC   C2B41564  17.693  13.465   6.605
 3003POPC   C3B41565  17.576  13.226   6.978
 3003POPC   C4B41566  17.360  13.318   7.381
 3004POPC   NC341567  41.566   8.753   5.398
 3004POPC   PO441568  41.840   9.331   5.486
 3004POPC   GL141569  41.839   8.967   5.774
 3004POPC   GL241570  41.503   8.885   5.910
 3004POPC   C1A41571  41.900   8.904   6.220
 3004POPC   D2A41572  41.685   9.000   6.614
 3004POPC   C3A41573  41.902   9.152   6.986
 3004POPC   C4A41574  41.887   8.980   7.394
 3004POPC   C1B41575  41.501   8.605   6.315
 3004POPC   C2B41576  41.466   8.559   6.756
 3004POPC   C3B41577  41.475   8.881   7.086
 3004POPC   C4B41578  41.268   8.918   7.460
 3005POPC   NC341579  22.368  14.660   5.395
 3005POPC   PO441580  21.817  14.287   5.589
 3005POPC   GL141581  22.153  14.452   5.823
 3005POPC   GL241582  22.347  14.153   5.896
 3005POPC   C1A41583  22.148  14.621   6.234
 3005POPC   D2A41584  21.776  14.636   6.523
 3005POPC   C3A41585  21.863  14.669   6.943
 3005POPC   C4A41586  21.927  14.300   7.136
 3005POPC   C1B41587  22.214  14.115   6.346
 3005POPC   C2B41588  22.250  14.383   6.739
 3005POPC   C3B41589  22.428  14.328   7.189
 3005POPC   C4B41590  22.501  14.589   7.575
 3006POPC   NC341591  22.267  12.443   5.395
 3006POPC   PO441592  22.075  11.806   5.347
 3006POPC   GL141593  22.178  11.984   5.762
 3006POPC   GL241594  22.456  12.247   5.817
 3006POPC   C1A41595  21.967  11.906   6.133
 3006POPC   D2A41596  22.020  12.112   6.522
 3006POPC   C3A41597  21.860  11.978   6.907
 3006POPC   C4A41598  21.758  12.179   7.306
 3006POPC   C1B41599  22.456  12.058   6.210
 3006POPC   C2B41600  22.499  11.859   6.584
 3006POPC   C3B41601  22.377  12.031   6.931
 3006POPC   C4B41602  22.505  12.063   7.294
 3007POPC   NC341603  14.802   0.668   5.541
 3007POPC   PO441604  15.431   0.462   5.333
 3007POPC   GL141605  15.372   0.408   5.761
 3007POPC   GL241606  15.442   0.772   5.799
 3007POPC   C1A41607  15.210   0.246   6.175
 3007POPC   D2A41608  15.305   0.428   6.590
 3007POPC   C3A41609  15.323   0.267   7.009
 3007POPC   C4A41610  15.043   0.100   7.323
 3007POPC   C1B41611  15.145   0.771   6.140
 3007POPC   C2B41612  15.065   0.883   6.560
 3007POPC   C3B41613  15.156   0.752   6.976
 3007POPC   C4B41614  15.033   0.638   7.360
 3008POPC   NC341615  26.333  41.007   5.286
 3008POPC   PO441616  25.916  40.540   5.196
 3008POPC   GL141617  26.058  40.560   5.642
 3008POPC   GL241618  26.074  40.896   5.774
 3008POPC   C1A41619  25.935  40.458   6.063
 3008POPC   D2A41620  25.810  40.533   6.483
 3008POPC   C3A41621  25.960  40.471   6.919
 3008POPC   C4A41622  26.005  40.853   7.165
 3008POPC   C1B41623  25.964  40.970   6.218
 3008POPC   C2B41624  26.164  40.887   6.635
 3008POPC   C3B41625  26.428  41.079   6.949
 3008POPC   C4B41626  26.451  41.339   7.324
 3009POPC   NC341627  39.746  26.792   5.567
 3009POPC   PO441628  40.396  26.525   5.492
 3009POPC   GL141629  40.249  26.729   5.926
 3009POPC   GL241630  39.923  26.658   5.997
 3009POPC   C1A41631  40.123  26.989   6.312
 3009POPC   D2A41632  39.768  26.996   6.598
 3009POPC   C3A41633  39.908  26.945   7.025
 3009POPC   C4A41634  39.835  27.267   7.315
 3009POPC   C1B41635  39.821  26.535   6.364
 3009POPC   C2B41636  40.120  26.599   6.661
 3009POPC   C3B41637  40.065  26.417   6.984
 3009POPC   C4B41638  39.900  26.533   7.356
 3010POPC   NC341639  33.244   1.644   5.540
 3010POPC   PO441640  33.203   2.198   5.139
 3010POPC   GL141641  33.032   2.296   5.687
 3010POPC   GL241642  32.676   2.303   5.777
 3010POPC   C1A41643  33.155   2.127   6.162
 3010POPC   D2A41644  33.069   1.760   6.465
 3010POPC   C3A41645  33.216   1.720   6.888
 3010POPC   C4A41646  33.056   1.886   7.257
 3010POPC   C1B41647  32.719   2.383   6.225
 3010POPC   C2B41648  32.963   2.245   6.616
 3010POPC   C3B41649  33.163   2.303   7.004
 3010POPC   C4B41650  32.997   2.541   7.334
 3011POPC   NC341651  25.764  41.200   5.493
 3011POPC   PO441652  25.307  41.722   5.389
 3011POPC   GL141653  25.158  41.515   5.774
 3011POPC   GL241654  25.298  41.171   5.776
 3011POPC   C1A41655  25.139  41.648   6.223
 3011POPC   D2A41656  25.235  41.951   6.563
 3011POPC   C3A41657  25.270  41.894   7.014
 3011POPC   C4A41658  25.617  41.655   7.230
 3011POPC   C1B41659  25.486  41.228   6.191
 3011POPC   C2B41660  25.473  41.468   6.590
 3011POPC   C3B41661  25.232  41.393   6.963
 3011POPC   C4B41662  25.388  41.220   7.361
 3012POPC   NC341663  23.298  30.206   5.609
 3012POPC   PO441664  23.800  29.830   5.373
 3012POPC   GL141665  23.866  29.872   5.833
 3012POPC   GL241666  23.786  30.221   5.925
 3012POPC   C1A41667  23.738  29.834   6.301
 3012POPC   D2A41668  23.632  30.125   6.689
 3012POPC   C3A41669  23.626  30.024   7.176
 3012POPC   C4A41670  23.467  30.141   7.629
 3012POPC   C1B41671  24.030  30.256   6.328
 3012POPC   C2B41672  24.134  30.056   6.732
 3012POPC   C3B41673  24.121  30.262   7.128
 3012POPC   C4B41674  23.928  30.315   7.524
 3013POPC   NC341675  26.210  44.282   5.662
 3013POPC   PO441676  25.830  44.573   5.205
 3013POPC   GL141677  25.862  44.652   5.688
 3013POPC   GL241678  26.158  44.827   5.742
 3013POPC   C1A41679  25.977  44.528   6.171
 3013POPC   D2A41680  26.204  44.665   6.571
 3013POPC   C3A41681  26.182  44.508   6.999
 3013POPC   C4A41682  25.861  44.375   7.256
 3013POPC   C1B41683  26.377  44.866   6.121
 3013POPC   C2B41684  26.362   0.129   6.484
 3013POPC   C3B41685  26.349   0.022   6.956
 3013POPC   C4B41686  26.227  44.913   7.420
 3014POPC   NC341687  28.914  15.414   5.579
 3014POPC   PO441688  28.395  15.048   5.456
 3014POPC   GL141689  28.315  15.181   5.885
 3014POPC   GL241690  28.645  15.147   5.931
 3014POPC   C1A41691  28.350  15.350   6.347
 3014POPC   D2A41692  28.109  15.458   6.727
 3014POPC   C3A41693  28.290  15.467   7.144
 3014POPC   C4A41694  28.733  15.365   7.263
 3014POPC   C1B41695  28.577  14.913   6.282
 3014POPC   C2B41696  28.719  15.086   6.595
 3014POPC   C3B41697  28.483  15.088   6.884
 3014POPC   C4B41698  28.458  14.920   7.258
 3015POPC   NC341699  29.991  30.276   5.337
 3015POPC   PO441700  29.414  29.946   5.514
 3015POPC   GL141701  29.727  30.159   5.775
 3015POPC   GL241702  30.066  29.991   5.785
 3015POPC   C1A41703  29.916  30.305   6.171
 3015POPC   D2A41704  29.997  30.152   6.579
 3015POPC   C3A41705  29.712  30.140   6.939
 3015POPC   C4A41706  30.009  29.907   7.143
 3015POPC   C1B41707  30.112  29.789   6.224
 3015POPC   C2B41708  30.062  29.515   6.629
 3015POPC   C3B41709  30.143  29.406   7.083
 3015POPC   C4B41710  30.012  29.248   7.488
 3016POPC   NC341711  30.499  14.741   5.439
 3016POPC   PO441712  30.697  14.064   5.354
 3016POPC   GL141713  30.779  14.273   5.776
 3016POPC   GL241714  30.487  14.487   5.876
 3016POPC   C1A41715  30.772  14.292   6.255
 3016POPC   D2A41716  30.857  14.579   6.613
 3016POPC   C3A41717  30.822  14.340   7.007
 3016POPC   C4A41718  30.668  13.924   7.078
 3016POPC   C1B41719  30.408  14.777   6.236
 3016POPC   C2B41720  30.408  14.800   6.692
 3016POPC   C3B41721  30.435  14.659   7.107
 3016POPC   C4B41722  30.329  14.773   7.520
 3017POPC   NC341723  42.826  23.313   5.487
 3017POPC   PO441724  43.250  23.846   5.400
 3017POPC   GL141725  43.113  23.774   5.822
 3017POPC   GL241726  43.153  23.440   5.862
 3017POPC   C1A41727  43.251  23.756   6.283
 3017POPC   D2A41728  43.420  23.657   6.708
 3017POPC   C3A41729  43.094  23.690   7.048
 3017POPC   C4A41730  42.714  23.930   7.132
 3017POPC   C1B41731  42.826  23.494   6.184
 3017POPC   C2B41732  42.973  23.418   6.599
 3017POPC   C3B41733  43.240  23.230   6.933
 3017POPC   C4B41734  43.133  23.257   7.368
 3018POPC   NC341735  16.939   7.653   5.169
 3018POPC   PO441736  16.563   7.807   5.755
 3018POPC   GL141737  16.699   7.466   5.968
 3018POPC   GL241738  16.953   7.332   5.803
 3018POPC   C1A41739  16.767   7.517   6.374
 3018POPC   D2A41740  16.640   7.824   6.624
 3018POPC   C3A41741  16.815   7.670   6.986
 3018POPC   C4A41742  16.815   7.696   7.421
 3018POPC   C1B41743  16.978   7.092   6.228
 3018POPC   C2B41744  17.115   7.228   6.641
 3018POPC   C3B41745  17.353   7.139   6.994
 3018POPC   C4B41746  17.187   6.986   7.384
 3019POPC   NC341747  11.948  42.578   5.164
 3019POPC   PO441748  11.396  42.278   5.459
 3019POPC   GL141749  11.208  42.263   5.823
 3019POPC   GL241750  11.330  42.609   5.866
 3019POPC   C1A41751  11.062  42.339   6.232
 3019POPC   D2A41752  10.970  42.160   6.606
 3019POPC   C3A41753  10.892  42.505   6.880
 3019POPC   C4A41754  11.097  42.431   7.241
 3019POPC   C1B41755  11.531  42.576   6.276
 3019POPC   C2B41756  11.389  42.476   6.694
 3019POPC   C3B41757  11.579  42.497   7.082
 3019POPC   C4B41758  11.938  42.660   7.184
 3020POPC   NC341759  24.817  13.823   5.146
 3020POPC   PO441760  24.351  13.266   5.359
 3020POPC   GL141761  24.371  13.469   5.736
 3020POPC   GL241762  24.272  13.800   5.646
 3020POPC   C1A41763  24.426  13.355   6.173
 3020POPC   D2A41764  24.752  13.418   6.478
 3020POPC   C3A41765  24.575  13.342   6.862
 3020POPC   C4A41766  24.736  13.621   7.147
 3020POPC   C1B41767  24.079  13.741   6.075
 3020POPC   C2B41768  24.345  13.779   6.469
 3020POPC   C3B41769  24.271  13.829   6.905
 3020POPC   C4B41770  24.060  13.896   7.287
 3021POPC   NC341771   3.265  31.655   5.587
 3021POPC   PO441772   3.967  31.365   5.389
 3021POPC   GL141773   3.729  31.284   5.737
 3021POPC   GL241774   3.723  31.616   5.820
 3021POPC   C1A41775   3.445  31.271   6.114
 3021POPC   D2A41776   3.228  31.456   6.486
 3021POPC   C3A41777   3.334  31.251   6.889
 3021POPC   C4A41778   3.454  31.357   7.305
 3021POPC   C1B41779   3.502  31.776   6.180
 3021POPC   C2B41780   3.351  31.962   6.555
 3021POPC   C3B41781   3.448  31.763   6.934
 3021POPC   C4B41782   3.450  31.883   7.335
 3022POPC   NC341783  41.717  12.910   5.409
 3022POPC   PO441784  41.157  12.902   5.403
 3022POPC   GL141785  41.220  12.837   5.874
 3022POPC   GL241786  41.570  12.781   5.921
 3022POPC   C1A41787  41.307  12.929   6.348
 3022POPC   D2A41788  41.349  12.702   6.771
 3022POPC   C3A41789  41.351  12.946   7.150
 3022POPC   C4A41790  41.495  13.361   7.257
 3022POPC   C1B41791  41.592  12.510   6.304
 3022POPC   C2B41792  41.808  12.461   6.712
 3022POPC   C3B41793  41.729  12.460   7.150
 3022POPC   C4B41794  41.479  12.589   7.474
 3023POPC   NC341795  10.166  15.438   5.591
 3023POPC   PO441796  10.549  14.850   5.458
 3023POPC   GL141797  10.577  15.096   5.825
 3023POPC   GL241798  10.927  15.207   5.867
 3023POPC   C1A41799  10.520  15.364   6.214
 3023POPC   D2A41800  10.375  15.565   6.618
 3023POPC   C3A41801  10.456  15.326   6.977
 3023POPC   C4A41802  10.250  15.060   7.259
 3023POPC   C1B41803  10.834  14.948   6.233
 3023POPC   C2B41804  10.601  15.001   6.592
 3023POPC   C3B41805  10.600  14.830   6.974
 3023POPC   C4B41806  10.807  14.946   7.359
 3024POPC   NC341807  31.810   9.530   5.659
 3024POPC   PO441808  31.187   9.789   5.457
 3024POPC   GL141809  31.419   9.820   5.847
 3024POPC   GL241810  31.416   9.498   5.974
 3024POPC   C1A41811  31.335   9.871   6.317
 3024POPC   D2A41812  31.518   9.717   6.724
 3024POPC   C3A41813  31.211   9.554   6.984
 3024POPC   C4A41814  31.048   9.566   7.377
 3024POPC   C1B41815  31.779   9.639   6.275
 3024POPC   C2B41816  31.938   9.428   6.614
 3024POPC   C3B41817  31.777   9.224   6.974
 3024POPC   C4B41818  31.459   9.238   7.297
 3025POPC   NC341819  43.760  38.059   5.437
 3025POPC   PO441820  43.944  37.337   5.384
 3025POPC   GL141821  43.829  37.598   5.705
 3025POPC   GL241822  44.189  37.681   5.747
 3025POPC   C1A41823  43.634  37.636   6.121
 3025POPC   D2A41824  43.856  37.621   6.553
 3025POPC   C3A41825  43.710  37.747   6.976
 3025POPC   C4A41826  43.880  38.106   7.235
 3025POPC   C1B41827  44.105  37.432   6.124
 3025POPC   C2B41828  44.121  37.183   6.519
 3025POPC   C3B41829  44.214  37.386   6.912
 3025POPC   C4B41830  44.145  37.652   7.254
 3026POPC   NC341831   9.391  13.356   5.400
 3026POPC   PO441832  10.097  13.575   5.414
 3026POPC   GL141833   9.797  13.708   5.765
 3026POPC   GL241834   9.592  13.438   5.878
 3026POPC   C1A41835   9.931  13.923   6.133
 3026POPC   D2A41836  10.046  13.700   6.507
 3026POPC   C3A41837   9.730  13.748   6.801
 3026POPC   C4A41838   9.790  13.811   7.239
 3026POPC   C1B41839   9.401  13.798   6.126
 3026POPC   C2B41840   9.277  13.966   6.561
 3026POPC   C3B41841   9.303  13.908   7.019
 3026POPC   C4B41842   9.378  13.505   7.190
 3027POPC   NC341843  41.209  35.978   5.480
 3027POPC   PO441844  40.657  36.296   5.548
 3027POPC   GL141845  40.605  35.942   5.805
 3027POPC   GL241846  40.869  35.710   5.787
 3027POPC   C1A41847  40.640  35.971   6.221
 3027POPC   D2A41848  40.474  36.124   6.585
 3027POPC   C3A41849  40.705  36.065   6.923
 3027POPC   C4A41850  40.636  35.917   7.308
 3027POPC   C1B41851  41.127  36.009   6.104
 3027POPC   C2B41852  41.087  36.110   6.529
 3027POPC   C3B41853  41.176  35.878   6.896
 3027POPC   C4B41854  41.139  36.059   7.298
 3028POPC   NC341855  32.664   5.338   5.719
 3028POPC   PO441856  33.285   5.050   5.519
 3028POPC   GL141857  33.003   4.982   5.888
 3028POPC   GL241858  32.811   4.658   5.863
 3028POPC   C1A41859  32.985   5.191   6.306
 3028POPC   D2A41860  33.202   5.294   6.669
 3028POPC   C3A41861  32.922   5.228   6.980
 3028POPC   C4A41862  32.827   5.230   7.398
 3028POPC   C1B41863  32.784   4.723   6.312
 3028POPC   C2B41864  33.018   4.807   6.694
 3028POPC   C3B41865  32.972   4.758   7.170
 3028POPC   C4B41866  32.708   4.773   7.600
 3029POPC   NC341867  40.194  32.692   5.465
 3029POPC   PO441868  40.178  32.042   5.475
 3029POPC   GL141869  40.045  32.317   5.794
 3029POPC   GL241870  39.752  32.484   5.674
 3029POPC   C1A41871  39.932  32.220   6.210
 3029POPC   D2A41872  40.058  32.357   6.587
 3029POPC   C3A41873  40.032  32.089   6.923
 3029POPC   C4A41874  40.122  32.125   7.357
 3029POPC   C1B41875  39.637  32.624   6.069
 3029POPC   C2B41876  39.646  32.692   6.513
 3029POPC   C3B41877  39.801  32.639   6.931
 3029POPC   C4B41878  39.649  32.314   7.189
 3030POPC   NC341879  39.364  38.067   5.320
 3030POPC   PO441880  39.020  38.687   5.507
 3030POPC   GL141881  39.267  38.555   5.858
 3030POPC   GL241882  39.534  38.819   5.912
 3030POPC   C1A41883  39.192  38.326   6.274
 3030POPC   D2A41884  39.456  38.155   6.596
 3030POPC   C3A41885  39.384  38.306   7.028
 3030POPC   C4A41886  39.626  38.622   7.235
 3030POPC   C1B41887  39.268  38.838   6.282
 3030POPC   C2B41888  39.415  38.687   6.663
 3030POPC   C3B41889  39.193  38.807   7.001
 3030POPC   C4B41890  39.137  38.715   7.396
 3031POPC   NC341891   9.822   2.921   5.286
 3031POPC   PO441892  10.119   2.435   5.553
 3031POPC   GL141893   9.770   2.534   5.842
 3031POPC   GL241894   9.604   2.848   5.742
 3031POPC   C1A41895   9.669   2.399   6.287
 3031POPC   D2A41896   9.357   2.345   6.634
 3031POPC   C3A41897   9.478   2.525   7.035
 3031POPC   C4A41898   9.893   2.688   7.138
 3031POPC   C1B41899   9.702   2.932   6.169
 3031POPC   C2B41900   9.543   2.844   6.565
 3031POPC   C3B41901   9.565   3.057   6.965
 3031POPC   C4B41902   9.420   2.959   7.370
 3032POPC   NC341903   7.704   8.355   4.983
 3032POPC   PO441904   7.238   7.933   5.438
 3032POPC   GL141905   7.195   8.043   5.844
 3032POPC   GL241906   7.465   8.189   5.828
 3032POPC   C1A41907   7.239   7.923   6.277
 3032POPC   D2A41908   7.062   8.095   6.634
 3032POPC   C3A41909   7.271   8.089   7.017
 3032POPC   C4A41910   7.058   8.171   7.356
 3032POPC   C1B41911   7.546   8.349   6.195
 3032POPC   C2B41912   7.542   8.293   6.611
 3032POPC   C3B41913   7.615   8.457   7.014
 3032POPC   C4B41914   7.795   8.162   7.232
 3033POPC   NC341915  17.364  26.801   5.428
 3033POPC   PO441916  17.918  27.033   5.369
 3033POPC   GL141917  17.722  26.826   5.806
 3033POPC   GL241918  17.376  26.606   5.918
 3033POPC   C1A41919  17.619  26.838   6.265
 3033POPC   D2A41920  17.412  26.790   6.667
 3033POPC   C3A41921  17.657  26.860   7.001
 3033POPC   C4A41922  17.585  26.843   7.389
 3033POPC   C1B41923  17.277  26.413   6.321
 3033POPC   C2B41924  17.067  26.406   6.720
 3033POPC   C3B41925  17.166  26.512   7.155
 3033POPC   C4B41926  17.313  26.351   7.586
 3034POPC   NC341927   7.537   5.138   5.357
 3034POPC   PO441928   6.979   5.453   5.538
 3034POPC   GL141929   7.219   5.180   5.785
 3034POPC   GL241930   7.245   4.844   5.819
 3034POPC   C1A41931   7.420   5.233   6.159
 3034POPC   D2A41932   7.545   5.062   6.547
 3034POPC   C3A41933   7.471   5.258   6.930
 3034POPC   C4A41934   7.357   5.145   7.326
 3034POPC   C1B41935   7.303   4.673   6.252
 3034POPC   C2B41936   7.569   4.565   6.623
 3034POPC   C3B41937   7.543   4.743   7.053
 3034POPC   C4B41938   7.297   4.662   7.443
 3035POPC   NC341939   3.052  17.025   5.449
 3035POPC   PO441940   2.767  16.449   5.466
 3035POPC   GL141941   2.735  16.742   5.785
 3035POPC   GL241942   2.540  17.026   5.821
 3035POPC   C1A41943   2.554  16.660   6.182
 3035POPC   D2A41944   2.705  16.810   6.549
 3035POPC   C3A41945   2.800  16.478   6.811
 3035POPC   C4A41946   2.819  16.536   7.242
 3035POPC   C1B41947   2.433  17.157   6.232
 3035POPC   C2B41948   2.250  17.054   6.631
 3035POPC   C3B41949   2.472  16.877   6.994
 3035POPC   C4B41950   2.938  16.983   7.017
 3036POPC   NC341951  28.968  32.676   5.520
 3036POPC   PO441952  29.395  33.168   5.262
 3036POPC   GL141953  29.417  33.116   5.739
 3036POPC   GL241954  29.263  32.818   5.921
 3036POPC   C1A41955  29.457  33.249   6.176
 3036POPC   D2A41956  29.471  33.474   6.602
 3036POPC   C3A41957  29.314  33.263   6.940
 3036POPC   C4A41958  29.188  32.918   7.146
 3036POPC   C1B41959  28.997  33.055   6.249
 3036POPC   C2B41960  28.958  33.006   6.666
 3036POPC   C3B41961  28.815  32.680   6.901
 3036POPC   C4B41962  28.718  32.682   7.323
 3037POPC   NC341963  42.709  33.349   5.437
 3037POPC   PO441964  42.953  32.705   5.443
 3037POPC   GL141965  43.139  32.933   5.748
 3037POPC   GL241966  43.198  33.294   5.665
 3037POPC   C1A41967  43.213  32.949   6.178
 3037POPC   D2A41968  43.470  32.946   6.542
 3037POPC   C3A41969  43.299  32.972   6.962
 3037POPC   C4A41970  43.321  32.856   7.410
 3037POPC   C1B41971  43.024  33.407   6.084
 3037POPC   C2B41972  43.165  33.372   6.519
 3037POPC   C3B41973  43.319  33.542   6.914
 3037POPC   C4B41974  43.264  33.358   7.304
 3038POPC   NC341975  30.818   6.692   5.207
 3038POPC   PO441976  30.308   6.229   5.591
 3038POPC   GL141977  30.475   6.521   5.839
 3038POPC   GL241978  30.786   6.655   5.724
 3038POPC   C1A41979  30.499   6.578   6.254
 3038POPC   D2A41980  30.637   6.704   6.628
 3038POPC   C3A41981  30.968   6.524   6.881
 3038POPC   C4A41982  30.823   6.596   7.278
 3038POPC   C1B41983  30.889   6.886   6.134
 3038POPC   C2B41984  31.081   6.920   6.565
 3038POPC   C3B41985  30.940   7.024   7.015
 3038POPC   C4B41986  30.923   7.040   7.515
 3039POPC   NC341987  33.426  16.580   5.195
 3039POPC   PO441988  33.893  16.950   5.516
 3039POPC   GL141989  33.898  16.703   5.890
 3039POPC   GL241990  33.801  16.365   5.726
 3039POPC   C1A41991  34.047  16.656   6.320
 3039POPC   D2A41992  34.041  16.527   6.764
 3039POPC   C3A41993  33.887  16.760   7.116
 3039POPC   C4A41994  33.833  16.765   7.545
 3039POPC   C1B41995  33.522  16.463   6.106
 3039POPC   C2B41996  33.561  16.686   6.490
 3039POPC   C3B41997  33.523  16.507   6.871
 3039POPC   C4B41998  33.436  16.604   7.272
 3040POPC   NC341999   3.644   4.708   5.507
 3040POPC   PO442000   3.656   4.094   5.231
 3040POPC   GL142001   3.391   4.150   5.675
 3040POPC   GL242002   3.316   4.484   5.832
 3040POPC   C1A42003   3.450   4.145   6.193
 3040POPC   D2A42004   3.809   4.313   6.504
 3040POPC   C3A42005   3.795   4.264   6.973
 3040POPC   C4A42006   3.451   4.146   7.222
 3040POPC   C1B42007   3.265   4.610   6.291
 3040POPC   C2B42008   3.375   4.479   6.739
 3040POPC   C3B42009   3.520   4.677   7.136
 3040POPC   C4B42010   3.332   4.852   7.527
 3041POPC   NC342011  33.247  31.077   5.389
 3041POPC   PO442012  33.096  31.731   5.459
 3041POPC   GL142013  32.979  31.600   5.835
 3041POPC   GL242014  32.959  31.264   5.834
 3041POPC   C1A42015  33.030  31.564   6.274
 3041POPC   D2A42016  33.293  31.667   6.562
 3041POPC   C3A42017  33.140  31.567   6.948
 3041POPC   C4A42018  33.385  31.452   7.287
 3041POPC   C1B42019  33.053  31.034   6.219
 3041POPC   C2B42020  33.281  31.137   6.602
 3041POPC   C3B42021  33.241  31.055   7.043
 3041POPC   C4B42022  32.934  31.221   7.404
 3042POPC   NC342023  34.871   7.933   5.167
 3042POPC   PO442024  34.876   8.466   5.546
 3042POPC   GL142025  34.568   8.159   5.774
 3042POPC   GL242026  34.485   7.786   5.827
 3042POPC   C1A42027  34.293   8.257   6.124
 3042POPC   D2A42028  34.410   8.481   6.502
 3042POPC   C3A42029  34.308   8.297   6.892
 3042POPC   C4A42030  34.382   8.322   7.298
 3042POPC   C1B42031  34.599   7.863   6.252
 3042POPC   C2B42032  34.409   7.837   6.655
 3042POPC   C3B42033  34.591   7.882   7.063
 3042POPC   C4B42034  34.956   8.001   7.265
 3043POPC   NC342035  32.477  37.833   5.368
 3043POPC   PO442036  31.973  37.499   5.129
 3043POPC   GL142037  32.111  37.536   5.613
 3043POPC   GL242038  32.435  37.539   5.763
 3043POPC   C1A42039  32.101  37.729   6.090
 3043POPC   D2A42040  32.144  38.035   6.470
 3043POPC   C3A42041  32.216  37.894   6.908
 3043POPC   C4A42042  31.975  37.726   7.244
 3043POPC   C1B42043  32.511  37.428   6.159
 3043POPC   C2B42044  32.465  37.584   6.531
 3043POPC   C3B42045  32.692  37.560   6.891
 3043POPC   C4B42046  32.478  37.580   7.239
 3044POPC   NC342047  35.539  36.439   5.352
 3044POPC   PO442048  35.191  37.108   5.409
 3044POPC   GL142049  35.382  37.016   5.815
 3044POPC   GL242050  35.555  36.701   5.809
 3044POPC   C1A42051  35.408  36.961   6.273
 3044POPC   D2A42052  35.185  36.770   6.618
 3044POPC   C3A42053  35.172  36.978   7.012
 3044POPC   C4A42054  35.080  36.906   7.448
 3044POPC   C1B42055  35.512  36.449   6.196
 3044POPC   C2B42056  35.588  36.256   6.604
 3044POPC   C3B42057  35.442  36.493   6.958
 3044POPC   C4B42058  35.534  36.744   7.287
 3045POPC   NC342059  35.827  14.566   5.329
 3045POPC   PO442060  36.297  14.062   5.499
 3045POPC   GL142061  36.300  14.345   5.871
 3045POPC   GL242062  35.996  14.300   6.073
 3045POPC   C1A42063  36.357  14.520   6.320
 3045POPC   D2A42064  36.033  14.433   6.648
 3045POPC   C3A42065  36.136  14.584   7.047
 3045POPC   C4A42066  36.271  14.433   7.424
 3045POPC   C1B42067  35.612  14.393   6.339
 3045POPC   C2B42068  35.477  14.211   6.637
 3045POPC   C3B42069  35.676  14.185   6.974
 3045POPC   C4B42070  35.770  14.371   7.319
 3046POPC   NC342071  30.536   4.518   5.478
 3046POPC   PO442072  31.025   4.072   5.398
 3046POPC   GL142073  30.930   4.321   5.781
 3046POPC   GL242074  30.955   4.693   5.745
 3046POPC   C1A42075  30.696   4.278   6.186
 3046POPC   D2A42076  30.404   4.451   6.499
 3046POPC   C3A42077  30.479   4.304   6.941
 3046POPC   C4A42078  30.767   4.197   7.226
 3046POPC   C1B42079  31.070   4.645   6.208
 3046POPC   C2B42080  30.936   4.483   6.645
 3046POPC   C3B42081  31.168   4.439   7.062
 3046POPC   C4B42082  31.077   4.479   7.534
 3047POPC   NC342083  37.566  16.983   5.554
 3047POPC   PO442084  37.793  16.328   5.376
 3047POPC   GL142085  37.835  16.535   5.795
 3047POPC   GL242086  38.006  16.878   5.808
 3047POPC   C1A42087  37.581  16.569   6.189
 3047POPC   D2A42088  37.600  16.804   6.594
 3047POPC   C3A42089  37.344  16.972   6.941
 3047POPC   C4A42090  37.464  16.862   7.367
 3047POPC   C1B42091  37.954  16.939   6.230
 3047POPC   C2B42092  38.124  16.850   6.645
 3047POPC   C3B42093  37.887  16.885   7.035
 3047POPC   C4B42094  37.868  17.170   7.380
 3048POPC   NC342095   0.006  36.314   5.251
 3048POPC   PO442096  44.897  37.031   5.375
 3048POPC   GL142097  44.980  37.035   5.824
 3048POPC   GL242098  44.676  37.242   5.811
 3048POPC   C1A42099  44.967  36.936   6.298
 3048POPC   D2A42100  44.562  36.717   6.480
 3048POPC   C3A42101  44.600  36.582   6.899
 3048POPC   C4A42102  44.964  36.740   7.107
 3048POPC   C1B42103  44.528  37.168   6.210
 3048POPC   C2B42104  44.648  37.197   6.641
 3048POPC   C3B42105  44.587  37.074   7.061
 3048POPC   C4B42106  44.489  37.101   7.496
 3049POPC   NC342107  14.382  23.537   5.329
 3049POPC   PO442108  14.610  23.973   5.758
 3049POPC   GL142109  14.226  23.780   5.851
 3049POPC   GL242110  14.212  23.417   5.803
 3049POPC   C1A42111  14.192  23.888   6.287
 3049POPC   D2A42112  14.531  23.949   6.611
 3049POPC   C3A42113  14.397  23.970   7.045
 3049POPC   C4A42114  14.485  23.704   7.433
 3049POPC   C1B42115  14.107  23.370   6.232
 3049POPC   C2B42116  14.133  23.535   6.658
 3049POPC   C3B42117  14.332  23.431   7.030
 3049POPC   C4B42118  14.147  23.300   7.422
 3050POPC   NC342119  35.355  18.858   5.269
 3050POPC   PO442120  35.832  19.253   5.482
 3050POPC   GL142121  35.598  18.947   5.762
 3050POPC   GL242122  35.273  18.727   5.752
 3050POPC   C1A42123  35.416  19.038   6.167
 3050POPC   D2A42124  35.193  19.216   6.508
 3050POPC   C3A42125  35.397  19.165   6.880
 3050POPC   C4A42126  35.240  19.164   7.262
 3050POPC   C1B42127  35.158  18.604   6.170
 3050POPC   C2B42128  35.315  18.721   6.603
 3050POPC   C3B42129  35.068  18.757   6.995
 3050POPC   C4B42130  35.095  18.734   7.461
 3051POPC   NC342131  24.618  28.162   5.382
 3051POPC   PO442132  24.425  28.762   5.477
 3051POPC   GL142133  24.518  28.465   5.790
 3051POPC   GL242134  24.237  28.220   5.761
 3051POPC   C1A42135  24.680  28.425   6.206
 3051POPC   D2A42136  24.376  28.313   6.522
 3051POPC   C3A42137  24.471  28.179   6.916
 3051POPC   C4A42138  24.399  28.256   7.364
 3051POPC   C1B42139  24.129  28.533   6.122
 3051POPC   C2B42140  23.934  28.568   6.558
 3051POPC   C3B42141  24.129  28.592   6.945
 3051POPC   C4B42142  24.172  28.772   7.351
 3052POPC   NC342143  11.197  36.233   5.229
 3052POPC   PO442144  11.745  36.578   5.345
 3052POPC   GL142145  11.514  36.294   5.667
 3052POPC   GL242146  11.156  36.289   5.737
 3052POPC   C1A42147  11.459  36.141   6.121
 3052POPC   D2A42148  11.552  35.795   6.373
 3052POPC   C3A42149  11.346  35.699   6.787
 3052POPC   C4A42150  11.386  35.892   7.200
 3052POPC   C1B42151  10.995  36.306   6.140
 3052POPC   C2B42152  11.081  36.062   6.487
 3052POPC   C3B42153  11.033  36.122   6.904
 3052POPC   C4B42154  10.826  36.009   7.272
 3053POPC   NC342155  30.416  40.891   5.568
 3053POPC   PO442156  30.898  40.405   5.418
 3053POPC   GL142157  30.859  40.728   5.735
 3053POPC   GL242158  30.567  40.505   5.853
 3053POPC   C1A42159  30.822  41.023   6.141
 3053POPC   D2A42160  30.726  41.247   6.570
 3053POPC   C3A42161  30.671  41.001   6.977
 3053POPC   C4A42162  30.491  40.614   7.161
 3053POPC   C1B42163  30.862  40.522   6.186
 3053POPC   C2B42164  30.881  40.705   6.587
 3053POPC   C3B42165  30.987  40.572   6.992
 3053POPC   C4B42166  30.884  40.330   7.313
 3054POPC   NC342167  27.193  10.686   5.331
 3054POPC   PO442168  26.555  10.464   5.447
 3054POPC   GL142169  26.907  10.463   5.715
 3054POPC   GL242170  27.073  10.806   5.810
 3054POPC   C1A42171  26.917  10.371   6.146
 3054POPC   D2A42172  26.604  10.418   6.471
 3054POPC   C3A42173  26.799  10.429   6.873
 3054POPC   C4A42174  26.605  10.341   7.255
 3054POPC   C1B42175  27.267  10.736   6.198
 3054POPC   C2B42176  27.205  10.541   6.574
 3054POPC   C3B42177  27.166  10.822   6.916
 3054POPC   C4B42178  27.036  10.632   7.284
 3055POPC   NC342179  17.319  11.549   5.325
 3055POPC   PO442180  17.339  10.878   5.317
 3055POPC   GL142181  17.618  11.035   5.669
 3055POPC   GL242182  17.521  11.373   5.783
 3055POPC   C1A42183  17.776  11.072   6.121
 3055POPC   D2A42184  17.698  11.059   6.581
 3055POPC   C3A42185  17.430  11.336   6.831
 3055POPC   C4A42186  17.637  11.347   7.222
 3055POPC   C1B42187  17.280  11.226   6.165
 3055POPC   C2B42188  17.006  11.237   6.525
 3055POPC   C3B42189  16.952  11.128   6.936
 3055POPC   C4B42190  17.228  11.036   7.234
 3056POPC   NC342191  33.145  11.691   5.373
 3056POPC   PO442192  33.300  11.042   5.190
 3056POPC   GL142193  33.212  11.234   5.678
 3056POPC   GL242194  33.033  11.498   5.850
 3056POPC   C1A42195  33.187  11.122   6.157
 3056POPC   D2A42196  33.160  11.374   6.554
 3056POPC   C3A42197  33.283  11.199   6.954
 3056POPC   C4A42198  33.138  11.253   7.394
 3056POPC   C1B42199  32.784  11.553   6.235
 3056POPC   C2B42200  32.647  11.354   6.633
 3056POPC   C3B42201  32.835  11.444   7.004
 3056POPC   C4B42202  32.702  11.534   7.397
 3057POPC   NC342203  18.284  14.038   5.355
 3057POPC   PO442204  18.186  14.679   5.241
 3057POPC   GL142205  18.390  14.499   5.607
 3057POPC   GL242206  18.281  14.812   5.775
 3057POPC   C1A42207  18.235  14.216   5.980
 3057POPC   D2A42208  18.067  14.312   6.393
 3057POPC   C3A42209  18.187  14.268   6.837
 3057POPC   C4A42210  18.014  14.523   7.174
 3057POPC   C1B42211  18.482  14.617   6.123
 3057POPC   C2B42212  18.494  14.601   6.563
 3057POPC   C3B42213  18.435  14.735   6.982
 3057POPC   C4B42214  18.537  14.683   7.424
 3058POPC   NC342215  24.442   9.320   5.135
 3058POPC   PO442216  24.818   8.970   5.558
 3058POPC   GL142217  24.693   9.009   5.936
 3058POPC   GL242218  24.490   8.723   5.924
 3058POPC   C1A42219  24.589   9.174   6.329
 3058POPC   D2A42220  24.775   9.286   6.701
 3058POPC   C3A42221  24.544   9.173   7.087
 3058POPC   C4A42222  24.550   8.989   7.506
 3058POPC   C1B42223  24.693   8.667   6.323
 3058POPC   C2B42224  24.586   8.792   6.737
 3058POPC   C3B42225  24.563   8.632   7.145
 3058POPC   C4B42226  24.267   8.549   7.485
 3059POPC   NC342227  15.134  36.576   5.307
 3059POPC   PO442228  15.181  35.930   5.362
 3059POPC   GL142229  15.172  36.021   5.817
 3059POPC   GL242230  15.291  36.363   5.774
 3059POPC   C1A42231  15.118  36.131   6.277
 3059POPC   D2A42232  14.984  36.378   6.625
 3059POPC   C3A42233  14.900  36.249   7.043
 3059POPC   C4A42234  14.908  36.030   7.422
 3059POPC   C1B42235  15.584  36.283   6.096
 3059POPC   C2B42236  15.605  36.055   6.484
 3059POPC   C3B42237  15.395  36.153   6.841
 3059POPC   C4B42238  15.412  36.233   7.236
 3060POPC   NC342239  30.883  38.325   5.401
 3060POPC   PO442240  30.215  38.540   5.522
 3060POPC   GL142241  30.390  38.555   5.905
 3060POPC   GL242242  30.722  38.543   5.835
 3060POPC   C1A42243  30.564  38.530   6.332
 3060POPC   D2A42244  30.843  38.709   6.627
 3060POPC   C3A42245  30.836  38.422   6.973
 3060POPC   C4A42246  30.705  38.473   7.372
 3060POPC   C1B42247  30.886  38.190   6.070
 3060POPC   C2B42248  30.873  38.142   6.515
 3060POPC   C3B42249  31.018  37.948   6.915
 3060POPC   C4B42250  31.080  38.067   7.315
 3061POPC   NC342251  31.458  42.176   5.279
 3061POPC   PO442252  31.044  42.827   5.361
 3061POPC   GL142253  31.228  42.546   5.682
 3061POPC   GL242254  31.530  42.339   5.749
 3061POPC   C1A42255  31.146  42.404   6.111
 3061POPC   D2A42256  31.250  42.163   6.471
 3061POPC   C3A42257  31.105  42.296   6.849
 3061POPC   C4A42258  31.351  42.384   7.190
 3061POPC   C1B42259  31.657  42.329   6.179
 3061POPC   C2B42260  31.856  42.368   6.572
 3061POPC   C3B42261  31.828  42.247   6.999
 3061POPC   C4B42262  31.830  42.503   7.376
 3062POPC   NC342263  39.490  38.733   5.412
 3062POPC   PO442264  39.375  39.351   5.193
 3062POPC   GL142265  39.327  39.235   5.650
 3062POPC   GL242266  39.018  39.379   5.827
 3062POPC   C1A42267  39.417  39.303   6.115
 3062POPC   D2A42268  39.226  39.325   6.531
 3062POPC   C3A42269  39.495  39.180   6.841
 3062POPC   C4A42270  39.396  39.245   7.252
 3062POPC   C1B42271  38.803  39.389   6.247
 3062POPC   C2B42272  38.832  39.659   6.648
 3062POPC   C3B42273  39.062  39.610   7.045
 3062POPC   C4B42274  38.979  39.622   7.510
 3063POPC   NC342275  42.771   7.544   5.427
 3063POPC   PO442276  43.332   7.204   5.425
 3063POPC   GL142277  43.153   7.130   5.805
 3063POPC   GL242278  42.820   7.180   5.813
 3063POPC   C1A42279  43.120   6.892   6.185
 3063POPC   D2A42280  42.905   6.876   6.568
 3063POPC   C3A42281  42.979   7.219   6.810
 3063POPC   C4A42282  43.188   7.209   7.185
 3063POPC   C1B42283  42.887   7.338   6.283
 3063POPC   C2B42284  43.148   7.623   6.563
 3063POPC   C3B42285  43.109   7.693   7.003
 3063POPC   C4B42286  42.742   7.491   7.201
 3064POPC   NC342287  27.945   5.349   5.261
 3064POPC   PO442288  27.643   4.725   5.444
 3064POPC   GL142289  27.758   4.979   5.797
 3064POPC   GL242290  27.782   4.708   5.984
 3064POPC   C1A42291  27.698   5.147   6.221
 3064POPC   D2A42292  27.633   4.918   6.628
 3064POPC   C3A42293  27.383   5.150   6.905
 3064POPC   C4A42294  27.502   5.440   7.229
 3064POPC   C1B42295  27.391   4.678   6.254
 3064POPC   C2B42296  27.133   4.768   6.628
 3064POPC   C3B42297  27.157   4.720   7.063
 3064POPC   C4B42298  27.405   4.944   7.371
 3065POPC   NC342299  17.003   1.364   5.401
 3065POPC   PO442300  16.409   1.034   5.476
 3065POPC   GL142301  16.559   1.073   5.870
 3065POPC   GL242302  16.831   0.881   5.806
 3065POPC   C1A42303  16.434   1.141   6.302
 3065POPC   D2A42304  16.542   1.054   6.733
 3065POPC   C3A42305  16.423   1.342   7.020
 3065POPC   C4A42306  16.559   1.432   7.404
 3065POPC   C1B42307  16.883   0.889   6.278
 3065POPC   C2B42308  17.000   1.205   6.609
 3065POPC   C3B42309  16.913   1.221   7.077
 3065POPC   C4B42310  17.047   1.073   7.489
 3066POPC   NC342311  38.605  43.062   5.520
 3066POPC   PO442312  39.176  42.931   5.326
 3066POPC   GL142313  39.334  42.881   5.768
 3066POPC   GL242314  39.477  43.208   5.887
 3066POPC   C1A42315  39.249  42.907   6.243
 3066POPC   D2A42316  39.234  43.197   6.593
 3066POPC   C3A42317  39.281  43.022   6.998
 3066POPC   C4A42318  39.243  43.083   7.455
 3066POPC   C1B42319  39.627  43.383   6.296
 3066POPC   C2B42320  39.613  43.552   6.740
 3066POPC   C3B42321  39.366  43.511   7.131
 3066POPC   C4B42322  39.225  43.571   7.578
 3067POPC   NC342323   6.315  32.286   5.486
 3067POPC   PO442324   7.097  32.429   5.417
 3067POPC   GL142325   6.907  32.271   5.843
 3067POPC   GL242326   6.650  32.063   5.798
 3067POPC   C1A42327   6.646  32.245   6.257
 3067POPC   D2A42328   6.413  32.456   6.560
 3067POPC   C3A42329   6.663  32.504   6.920
 3067POPC   C4A42330   6.501  32.381   7.292
 3067POPC   C1B42331   6.317  31.890   6.094
 3067POPC   C2B42332   6.200  31.969   6.539
 3067POPC   C3B42333   6.494  32.013   6.896
 3067POPC   C4B42334   6.625  31.888   7.328
 3068POPC   NC342335   6.530  16.273   5.410
 3068POPC   PO442336   6.753  16.949   5.331
 3068POPC   GL142337   6.542  16.733   5.663
 3068POPC   GL242338   6.753  16.507   5.845
 3068POPC   C1A42339   6.449  16.853   6.108
 3068POPC   D2A42340   6.763  16.878   6.452
 3068POPC   C3A42341   6.638  17.082   6.822
 3068POPC   C4A42342   6.431  16.919   7.168
 3068POPC   C1B42343   6.553  16.375   6.258
 3068POPC   C2B42344   6.411  16.515   6.691
 3068POPC   C3B42345   6.632  16.455   7.102
 3068POPC   C4B42346   6.954  16.467   7.465
 3069POPC   NC342347  35.157  39.030   5.215
 3069POPC   PO442348  35.776  39.243   5.429
 3069POPC   GL142349  35.557  39.369   5.771
 3069POPC   GL242350  35.231  39.258   5.674
 3069POPC   C1A42351  35.370  39.354   6.174
 3069POPC   D2A42352  35.421  39.190   6.552
 3069POPC   C3A42353  35.334  39.396   6.895
 3069POPC   C4A42354  35.408  39.204   7.265
 3069POPC   C1B42355  35.126  38.931   5.967
 3069POPC   C2B42356  35.003  38.912   6.394
 3069POPC   C3B42357  35.049  38.887   6.836
 3069POPC   C4B42358  34.903  39.164   7.153
 3070POPC   NC342359  34.297  38.350   5.236
 3070POPC   PO442360  33.627  38.382   5.388
 3070POPC   GL142361  33.976  38.395   5.737
 3070POPC   GL242362  34.080  38.752   5.889
 3070POPC   C1A42363  33.837  38.407   6.180
 3070POPC   D2A42364  33.783  38.660   6.554
 3070POPC   C3A42365  33.775  38.430   6.918
 3070POPC   C4A42366  33.682  38.424   7.342
 3070POPC   C1B42367  34.137  38.933   6.296
 3070POPC   C2B42368  33.972  39.128   6.662
 3070POPC   C3B42369  33.904  38.908   7.032
 3070POPC   C4B42370  34.130  38.634   7.323
 3071POPC   NC342371  31.820  19.220   5.364
 3071POPC   PO442372  31.312  18.888   5.437
 3071POPC   GL142373  31.605  18.927   5.795
 3071POPC   GL242374  31.640  19.275   5.840
 3071POPC   C1A42375  31.488  18.987   6.249
 3071POPC   D2A42376  31.269  18.852   6.647
 3071POPC   C3A42377  31.500  18.981   7.029
 3071POPC   C4A42378  31.398  19.258   7.376
 3071POPC   C1B42379  31.772  19.413   6.234
 3071POPC   C2B42380  31.816  19.220   6.645
 3071POPC   C3B42381  31.883  19.322   7.097
 3071POPC   C4B42382  31.864  19.093   7.454
 3072POPC   NC342383  29.633  34.293   5.595
 3072POPC   PO442384  30.153  34.524   5.198
 3072POPC   GL142385  30.119  34.624   5.672
 3072POPC   GL242386  30.131  34.341   5.867
 3072POPC   C1A42387  29.871  34.721   6.080
 3072POPC   D2A42388  29.650  34.711   6.499
 3072POPC   C3A42389  29.890  34.843   6.891
 3072POPC   C4A42390  29.877  34.803   7.337
 3072POPC   C1B42391  29.979  34.265   6.314
 3072POPC   C2B42392  29.903  34.333   6.761
 3072POPC   C3B42393  29.743  34.340   7.171
 3072POPC   C4B42394  30.032  34.338   7.501
 3073POPC   NC342395  26.739  31.744   5.329
 3073POPC   PO442396  26.913  31.051   5.437
 3073POPC   GL142397  26.831  31.394   5.703
 3073POPC   GL242398  27.124  31.525   5.872
 3073POPC   C1A42399  26.714  31.340   6.126
 3073POPC   D2A42400  26.626  31.549   6.497
 3073POPC   C3A42401  26.826  31.488   6.879
 3073POPC   C4A42402  26.656  31.317   7.268
 3073POPC   C1B42403  27.062  31.779   6.263
 3073POPC   C2B42404  26.960  32.030   6.658
 3073POPC   C3B42405  27.179  31.951   7.061
 3073POPC   C4B42406  27.141  31.544   7.296
 3074POPC   NC342407   1.416   6.290   5.410
 3074POPC   PO442408   1.155   5.608   5.341
 3074POPC   GL142409   1.240   5.686   5.762
 3074POPC   GL242410   1.162   6.020   5.877
 3074POPC   C1A42411   1.225   5.556   6.184
 3074POPC   D2A42412   0.994   5.511   6.585
 3074POPC   C3A42413   1.161   5.608   6.995
 3074POPC   C4A42414   1.463   5.844   7.233
 3074POPC   C1B42415   1.003   5.982   6.323
 3074POPC   C2B42416   1.145   6.077   6.721
 3074POPC   C3B42417   0.881   6.048   7.077
 3074POPC   C4B42418   0.994   5.821   7.435
 3075POPC   NC342419   4.161  35.156   5.517
 3075POPC   PO442420   3.953  35.760   5.645
 3075POPC   GL142421   4.212  35.557   5.881
 3075POPC   GL242422   4.447  35.267   5.914
 3075POPC   C1A42423   4.106  35.423   6.270
 3075POPC   D2A42424   4.356  35.341   6.591
 3075POPC   C3A42425   4.229  35.542   6.964
 3075POPC   C4A42426   4.220  35.130   7.169
 3075POPC   C1B42427   4.619  35.579   6.192
 3075POPC   C2B42428   4.817  35.643   6.577
 3075POPC   C3B42429   4.706  35.420   6.941
 3075POPC   C4B42430   4.557  35.463   7.351
 3076POPC   NC342431  19.467  30.654   5.594
 3076POPC   PO442432  20.102  30.575   5.388
 3076POPC   GL142433  19.953  30.798   5.788
 3076POPC   GL242434  19.644  31.032   5.855
 3076POPC   C1A42435  20.013  30.673   6.239
 3076POPC   D2A42436  20.024  30.976   6.620
 3076POPC   C3A42437  20.204  30.843   7.025
 3076POPC   C4A42438  19.933  30.658   7.335
 3076POPC   C1B42439  19.608  30.981   6.290
 3076POPC   C2B42440  19.494  30.875   6.695
 3076POPC   C3B42441  19.695  30.989   7.037
 3076POPC   C4B42442  19.682  31.079   7.436
 3077POPC   NC342443  10.689  35.758   5.516
 3077POPC   PO442444  10.811  36.467   5.416
 3077POPC   GL142445  10.634  36.220   5.796
 3077POPC   GL242446  10.729  35.907   5.995
 3077POPC   C1A42447  10.505  36.321   6.240
 3077POPC   D2A42448  10.563  36.063   6.613
 3077POPC   C3A42449  10.502  36.288   6.997
 3077POPC   C4A42450  10.326  36.091   7.355
 3077POPC   C1B42451  10.299  35.842   6.176
 3077POPC   C2B42452  10.196  35.651   6.581
 3077POPC   C3B42453  10.317  35.690   7.009
 3077POPC   C4B42454  10.520  35.616   7.399
 3078POPC   NC342455   6.715  30.381   5.550
 3078POPC   PO442456   6.457  30.996   5.357
 3078POPC   GL142457   6.457  30.782   5.754
 3078POPC   GL242458   6.816  30.824   5.799
 3078POPC   C1A42459   6.572  30.573   6.177
 3078POPC   D2A42460   6.552  30.346   6.570
 3078POPC   C3A42461   6.452  30.545   6.957
 3078POPC   C4A42462   6.336  30.405   7.376
 3078POPC   C1B42463   7.034  30.780   6.193
 3078POPC   C2B42464   6.841  30.795   6.610
 3078POPC   C3B42465   6.969  30.749   7.059
 3078POPC   C4B42466   6.820  30.939   7.451
 3079POPC   NC342467  39.301  18.874   5.347
 3079POPC   PO442468  39.657  19.305   5.684
 3079POPC   GL142469  39.254  19.185   5.796
 3079POPC   GL242470  39.135  18.825   5.828
 3079POPC   C1A42471  39.122  19.228   6.186
 3079POPC   D2A42472  39.305  19.132   6.567
 3079POPC   C3A42473  39.369  19.421   6.875
 3079POPC   C4A42474  39.221  19.254   7.252
 3079POPC   C1B42475  39.335  18.762   6.204
 3079POPC   C2B42476  39.624  18.699   6.533
 3079POPC   C3B42477  39.560  18.878   6.935
 3079POPC   C4B42478  39.291  18.739   7.243
 3080POPC   NC342479  40.169  25.325   5.337
 3080POPC   PO442480  39.559  24.998   5.217
 3080POPC   GL142481  39.894  25.029   5.690
 3080POPC   GL242482  40.151  25.341   5.837
 3080POPC   C1A42483  40.206  24.940   6.103
 3080POPC   D2A42484  40.328  25.306   6.416
 3080POPC   C3A42485  40.025  25.428   6.780
 3080POPC   C4A42486  40.015  25.238   7.218
 3080POPC   C1B42487  39.847  25.343   6.189
 3080POPC   C2B42488  39.621  25.645   6.444
 3080POPC   C3B42489  39.527  25.712   6.870
 3080POPC   C4B42490  39.564  25.472   7.234
 3081POPC   NC342491   4.860  21.506   5.251
 3081POPC   PO442492   5.095  20.956   5.542
 3081POPC   GL142493   5.008  21.369   5.739
 3081POPC   GL242494   5.323  21.573   5.739
 3081POPC   C1A42495   4.945  21.631   6.119
 3081POPC   D2A42496   5.131  21.789   6.526
 3081POPC   C3A42497   4.925  21.769   6.871
 3081POPC   C4A42498   4.777  21.437   7.108
 3081POPC   C1B42499   5.347  21.324   6.138
 3081POPC   C2B42500   5.440  21.401   6.550
 3081POPC   C3B42501   5.273  21.346   6.929
 3081POPC   C4B42502   5.268  21.618   7.244
 3082POPC   NC342503   1.489  34.467   5.098
 3082POPC   PO442504   1.262  34.267   5.699
 3082POPC   GL142505   1.086  34.624   5.812
 3082POPC   GL242506   1.417  34.758   5.658
 3082POPC   C1A42507   0.968  34.555   6.263
 3082POPC   D2A42508   1.148  34.711   6.643
 3082POPC   C3A42509   0.892  34.691   7.005
 3082POPC   C4A42510   0.884  34.515   7.445
 3082POPC   C1B42511   1.433  34.770   6.145
 3082POPC   C2B42512   1.537  34.424   6.438
 3082POPC   C3B42513   1.536  34.465   6.897
 3082POPC   C4B42514   1.535  34.838   7.178
 3083POPC   NC342515  11.944  34.284   5.055
 3083POPC   PO442516  12.063  33.678   5.301
 3083POPC   GL142517  12.080  33.655   5.765
 3083POPC   GL242518  11.744  33.724   5.888
 3083POPC   C1A42519  12.369  33.723   6.147
 3083POPC   D2A42520  12.270  33.930   6.549
 3083POPC   C3A42521  12.305  33.779   6.994
 3083POPC   C4A42522  12.171  33.947   7.404
 3083POPC   C1B42523  11.887  33.669   6.295
 3083POPC   C2B42524  11.980  33.515   6.684
 3083POPC   C3B42525  11.746  33.616   7.039
 3083POPC   C4B42526  11.680  33.791   7.429
 3084POPC   NC342527   3.084  15.417   5.270
 3084POPC   PO442528   2.392  15.523   5.428
 3084POPC   GL142529   2.714  15.321   5.750
 3084POPC   GL242530   2.877  14.968   5.801
 3084POPC   C1A42531   2.659  15.337   6.202
 3084POPC   D2A42532   2.664  15.047   6.563
 3084POPC   C3A42533   2.609  15.237   6.988
 3084POPC   C4A42534   2.769  14.950   7.294
 3084POPC   C1B42535   3.107  15.138   6.128
 3084POPC   C2B42536   3.079  15.339   6.502
 3084POPC   C3B42537   3.090  15.111   6.870
 3084POPC   C4B42538   3.256  15.169   7.219
 3085POPC   NC342539  16.145  27.502   5.421
 3085POPC   PO442540  15.555  27.383   5.692
 3085POPC   GL142541  15.926  27.521   5.905
 3085POPC   GL242542  16.083  27.196   5.856
 3085POPC   C1A42543  16.035  27.669   6.358
 3085POPC   D2A42544  15.792  27.794   6.744
 3085POPC   C3A42545  15.987  27.847   7.143
 3085POPC   C4A42546  16.299  27.795   7.406
 3085POPC   C1B42547  15.887  27.172   6.269
 3085POPC   C2B42548  16.005  27.228   6.682
 3085POPC   C3B42549  15.925  27.353   7.099
 3085POPC   C4B42550  15.964  27.449   7.546
 3086POPC   NC342551  44.253  28.427   4.989
 3086POPC   PO442552  44.435  28.059   5.506
 3086POPC   GL142553  44.282  28.345   5.853
 3086POPC   GL242554  44.555  28.548   5.990
 3086POPC   C1A42555  44.130  28.526   6.269
 3086POPC   D2A42556  44.180  28.649   6.706
 3086POPC   C3A42557  44.498  28.456   6.963
 3086POPC   C4A42558  44.567  28.389   7.404
 3086POPC   C1B42559  44.653  28.322   6.377
 3086POPC   C2B42560  44.739  28.046   6.757
 3086POPC   C3B42561  44.966  28.238   7.121
 3086POPC   C4B42562   0.035  28.171   7.574
 3087POPC   NC342563   1.265  42.477   5.070
 3087POPC   PO442564   0.822  42.034   5.251
 3087POPC   GL142565   1.023  42.227   5.725
 3087POPC   GL242566   1.141  42.578   5.778
 3087POPC   C1A42567   1.344  42.302   6.142
 3087POPC   D2A42568   1.403  42.526   6.572
 3087POPC   C3A42569   1.232  42.423   6.987
 3087POPC   C4A42570   1.341  42.515   7.414
 3087POPC   C1B42571   0.873  42.519   6.189
 3087POPC   C2B42572   0.743  42.641   6.640
 3087POPC   C3B42573   0.913  42.874   6.971
 3087POPC   C4B42574   1.225  42.961   7.197
 3088POPC   NC342575  28.687  24.417   5.170
 3088POPC   PO442576  28.143  24.635   5.511
 3088POPC   GL142577  28.160  24.483   5.874
 3088POPC   GL242578  28.031  24.807   5.989
 3088POPC   C1A42579  28.307  24.380   6.276
 3088POPC   D2A42580  28.375  24.107   6.627
 3088POPC   C3A42581  28.267  24.282   7.043
 3088POPC   C4A42582  28.429  24.397   7.463
 3088POPC   C1B42583  28.064  24.822   6.431
 3088POPC   C2B42584  28.366  24.676   6.737
 3088POPC   C3B42585  28.603  24.740   7.129
 3088POPC   C4B42586  28.574  24.940   7.542
 3089POPC   NC342587  13.901   4.206   5.403
 3089POPC   PO442588  13.269   4.298   5.447
 3089POPC   GL142589  13.404   4.061   5.779
 3089POPC   GL242590  13.712   4.268   5.875
 3089POPC   C1A42591  13.512   3.896   6.167
 3089POPC   D2A42592  13.791   4.005   6.470
 3089POPC   C3A42593  13.694   4.134   6.884
 3089POPC   C4A42594  13.979   4.470   7.099
 3089POPC   C1B42595  13.529   4.402   6.259
 3089POPC   C2B42596  13.489   4.544   6.660
 3089POPC   C3B42597  13.434   4.565   7.101
 3089POPC   C4B42598  13.209   4.862   7.376
 3090POPC   NC342599  10.539   2.584   5.681
 3090POPC   PO442600  11.115   2.918   5.468
 3090POPC   GL142601  10.984   2.731   5.870
 3090POPC   GL242602  10.669   2.962   5.985
 3090POPC   C1A42603  10.802   2.573   6.296
 3090POPC   D2A42604  10.514   2.832   6.579
 3090POPC   C3A42605  10.409   2.735   7.008
 3090POPC   C4A42606  10.653   2.677   7.380
 3090POPC   C1B42607  10.220   2.994   6.199
 3090POPC   C2B42608  10.020   2.966   6.644
 3090POPC   C3B42609  10.081   3.147   7.068
 3090POPC   C4B42610  10.251   2.994   7.476
 3091POPC   NC342611  29.029  31.823   5.548
 3091POPC   PO442612  29.386  32.394   5.502
 3091POPC   GL142613  29.235  32.250   5.888
 3091POPC   GL242614  28.915  32.408   5.960
 3091POPC   C1A42615  29.117  32.027   6.272
 3091POPC   D2A42616  28.975  32.146   6.687
 3091POPC   C3A42617  29.212  31.941   7.000
 3091POPC   C4A42618  29.048  31.934   7.399
 3091POPC   C1B42619  29.045  32.557   6.377
 3091POPC   C2B42620  29.293  32.546   6.776
 3091POPC   C3B42621  29.167  32.412   7.215
 3091POPC   C4B42622  29.161  32.363   7.683
 3092POPC   NC342623  38.428  20.833   5.344
 3092POPC   PO442624  38.918  20.333   5.307
 3092POPC   GL142625  38.604  20.524   5.729
 3092POPC   GL242626  38.332  20.822   5.840
 3092POPC   C1A42627  38.464  20.512   6.197
 3092POPC   D2A42628  38.604  20.383   6.618
 3092POPC   C3A42629  38.364  20.546   6.898
 3092POPC   C4A42630  38.364  20.744   7.280
 3092POPC   C1B42631  38.205  21.024   6.281
 3092POPC   C2B42632  38.231  21.052   6.774
 3092POPC   C3B42633  38.072  21.136   7.185
 3092POPC   C4B42634  38.242  21.065   7.656
 3093POPC   NC342635   1.193   7.134   5.286
 3093POPC   PO442636   0.733   7.633   5.425
 3093POPC   GL142637   1.018   7.423   5.744
 3093POPC   GL242638   1.296   7.566   5.918
 3093POPC   C1A42639   0.935   7.422   6.234
 3093POPC   D2A42640   1.005   7.709   6.604
 3093POPC   C3A42641   1.076   7.578   7.036
 3093POPC   C4A42642   0.988   7.167   7.171
 3093POPC   C1B42643   1.455   7.405   6.330
 3093POPC   C2B42644   1.508   7.386   6.795
 3093POPC   C3B42645   1.570   7.620   7.182
 3093POPC   C4B42646   1.298   7.516   7.523
 3094POPC   NC342647   4.030   4.004   5.484
 3094POPC   PO442648   4.444   3.567   5.553
 3094POPC   GL142649   4.132   3.654   5.882
 3094POPC   GL242650   3.762   3.796   5.863
 3094POPC   C1A42651   4.225   3.500   6.301
 3094POPC   D2A42652   4.338   3.290   6.667
 3094POPC   C3A42653   4.325   3.510   7.068
 3094POPC   C4A42654   4.376   3.299   7.469
 3094POPC   C1B42655   3.880   3.866   6.286
 3094POPC   C2B42656   4.044   3.870   6.714
 3094POPC   C3B42657   3.806   3.758   7.085
 3094POPC   C4B42658   3.899   3.498   7.425
 3095POPC   NC342659  23.226  22.500   5.570
 3095POPC   PO442660  22.634  22.264   5.348
 3095POPC   GL142661  22.762  22.359   5.778
 3095POPC   GL242662  22.973  22.086   5.797
 3095POPC   C1A42663  22.776  22.423   6.252
 3095POPC   D2A42664  22.645  22.505   6.681
 3095POPC   C3A42665  22.870  22.321   7.018
 3095POPC   C4A42666  23.272  22.490   7.130
 3095POPC   C1B42667  22.842  21.938   6.208
 3095POPC   C2B42668  22.716  21.967   6.647
 3095POPC   C3B42669  22.788  21.758   7.052
 3095POPC   C4B42670  22.990  21.686   7.466
 3096POPC   NC342671  34.769   3.576   5.361
 3096POPC   PO442672  34.433   4.091   5.425
 3096POPC   GL142673  34.624   3.880   5.769
 3096POPC   GL242674  34.462   3.568   5.792
 3096POPC   C1A42675  34.607   3.828   6.222
 3096POPC   D2A42676  34.431   3.640   6.592
 3096POPC   C3A42677  34.694   3.590   6.957
 3096POPC   C4A42678  34.514   3.506   7.357
 3096POPC   C1B42679  34.742   3.350   6.093
 3096POPC   C2B42680  34.763   3.243   6.547
 3096POPC   C3B42681  34.678   3.070   6.981
 3096POPC   C4B42682  34.765   3.042   7.434
 3097POPC   NC342683  10.549  38.706   5.704
 3097POPC   PO442684  10.234  38.354   5.200
 3097POPC   GL142685  10.248  38.305   5.712
 3097POPC   GL242686  10.014  38.061   5.893
 3097POPC   C1A42687  10.284  38.363   6.205
 3097POPC   D2A42688  10.632  38.312   6.533
 3097POPC   C3A42689  10.659  38.558   6.929
 3097POPC   C4A42690  10.683  38.293   7.318
 3097POPC   C1B42691   9.979  37.950   6.300
 3097POPC   C2B42692  10.007  38.189   6.661
 3097POPC   C3B42693  10.258  38.267   6.985
 3097POPC   C4B42694  10.269  38.612   7.266
 3098POPC   NC342695  10.719  39.408   5.267
 3098POPC   PO442696  10.074  39.326   5.262
 3098POPC   GL142697  10.387  39.239   5.655
 3098POPC   GL242698  10.764  39.243   5.764
 3098POPC   C1A42699  10.353  39.229   6.144
 3098POPC   D2A42700  10.475  39.051   6.568
 3098POPC   C3A42701  10.318  39.225   6.981
 3098POPC   C4A42702  10.500  39.201   7.405
 3098POPC   C1B42703  10.880  39.106   6.198
 3098POPC   C2B42704  10.914  39.326   6.622
 3098POPC   C3B42705  10.961  39.167   7.060
 3098POPC   C4B42706  10.977  39.428   7.429
 3099POPC   NC342707  42.209  40.274   5.530
 3099POPC   PO442708  42.062  39.589   5.555
 3099POPC   GL142709  42.355  39.686   5.930
 3099POPC   GL242710  42.617  39.926   5.776
 3099POPC   C1A42711  42.321  39.761   6.413
 3099POPC   D2A42712  42.012  39.885   6.757
 3099POPC   C3A42713  42.194  40.044   7.173
 3099POPC   C4A42714  42.185  39.812   7.575
 3099POPC   C1B42715  42.594  40.152   6.172
 3099POPC   C2B42716  42.693  40.188   6.598
 3099POPC   C3B42717  42.668  40.048   7.013
 3099POPC   C4B42718  42.646  39.975   7.452
 3100POPC   NC342719   7.165  36.129   5.390
 3100POPC   PO442720   7.803  36.187   5.546
 3100POPC   GL142721   7.441  36.200   5.853
 3100POPC   GL242722   7.298  35.857   5.784
 3100POPC   C1A42723   7.431  36.216   6.333
 3100POPC   D2A42724   7.629  36.016   6.706
 3100POPC   C3A42725   7.604  36.158   7.129
 3100POPC   C4A42726   7.531  36.025   7.577
 3100POPC   C1B42727   7.342  35.721   6.168
 3100POPC   C2B42728   7.185  35.803   6.541
 3100POPC   C3B42729   7.195  35.877   6.937
 3100POPC   C4B42730   7.446  35.671   7.209
 3101POPC   NC342731  34.284  40.320   5.509
 3101POPC   PO442732  34.510  40.994   5.388
 3101POPC   GL142733  34.522  40.722   5.752
 3101POPC   GL242734  34.188  40.726   5.833
 3101POPC   C1A42735  34.700  40.620   6.174
 3101POPC   D2A42736  35.010  40.646   6.513
 3101POPC   C3A42737  34.834  40.542   6.922
 3101POPC   C4A42738  34.744  40.628   7.353
 3101POPC   C1B42739  34.194  40.545   6.236
 3101POPC   C2B42740  34.398  40.555   6.639
 3101POPC   C3B42741  34.310  40.449   7.076
 3101POPC   C4B42742  34.226  40.736   7.406
 3102POPC   NC342743  18.856  27.965   5.060
 3102POPC   PO442744  18.892  28.523   5.390
 3102POPC   GL142745  18.993  28.611   5.798
 3102POPC   GL242746  18.719  28.641   5.942
 3102POPC   C1A42747  19.092  28.324   6.164
 3102POPC   D2A42748  19.047  28.097   6.524
 3102POPC   C3A42749  19.347  28.123   6.822
 3102POPC   C4A42750  19.276  28.169   7.228
 3102POPC   C1B42751  18.878  28.765   6.342
 3102POPC   C2B42752  18.924  28.812   6.783
 3102POPC   C3B42753  19.099  28.749   7.177
 3102POPC   C4B42754  19.008  28.473   7.543
 3103POPC   NC342755  39.499  11.666   5.422
 3103POPC   PO442756  38.780  11.712   5.455
 3103POPC   GL142757  39.046  11.900   5.788
 3103POPC   GL242758  39.376  12.080   5.777
 3103POPC   C1A42759  39.154  11.844   6.227
 3103POPC   D2A42760  39.143  12.082   6.596
 3103POPC   C3A42761  39.067  11.865   6.970
 3103POPC   C4A42762  39.269  11.699   7.316
 3103POPC   C1B42763  39.623  12.041   6.184
 3103POPC   C2B42764  39.589  11.836   6.580
 3103POPC   C3B42765  39.562  11.964   7.007
 3103POPC   C4B42766  39.775  12.263   7.244
 3104POPC   NC342767  12.854  40.118   5.317
 3104POPC   PO442768  13.218  39.663   5.598
 3104POPC   GL142769  13.003  39.871   5.871
 3104POPC   GL242770  12.690  39.980   5.774
 3104POPC   C1A42771  12.988  40.029   6.259
 3104POPC   D2A42772  12.947  40.126   6.651
 3104POPC   C3A42773  13.071  39.899   6.988
 3104POPC   C4A42774  13.106  39.844   7.408
 3104POPC   C1B42775  12.489  39.981   6.161
 3104POPC   C2B42776  12.474  39.889   6.584
 3104POPC   C3B42777  12.583  40.035   6.988
 3104POPC   C4B42778  12.367  40.149   7.309
 3105POPC   NC342779  33.139   2.610   5.303
 3105POPC   PO442780  33.084   3.175   5.372
 3105POPC   GL142781  33.022   2.859   5.730
 3105POPC   GL242782  32.718   2.810   5.858
 3105POPC   C1A42783  33.124   2.686   6.155
 3105POPC   D2A42784  33.342   2.589   6.554
 3105POPC   C3A42785  33.233   2.802   6.954
 3105POPC   C4A42786  32.855   2.989   7.060
 3105POPC   C1B42787  32.662   2.921   6.265
 3105POPC   C2B42788  32.842   2.754   6.605
 3105POPC   C3B42789  32.687   2.521   6.948
 3105POPC   C4B42790  32.523   2.749   7.349
 3106POPC   NC342791  35.808  40.529   5.243
 3106POPC   PO442792  36.453  40.788   5.403
 3106POPC   GL142793  36.159  40.713   5.706
 3106POPC   GL242794  36.235  41.025   5.878
 3106POPC   C1A42795  35.922  40.698   6.112
 3106POPC   D2A42796  35.808  40.870   6.515
 3106POPC   C3A42797  36.041  40.862   6.917
 3106POPC   C4A42798  35.978  40.638   7.296
 3106POPC   C1B42799  36.252  41.057   6.345
 3106POPC   C2B42800  36.414  41.177   6.767
 3106POPC   C3B42801  36.385  41.269   7.225
 3106POPC   C4B42802  36.261  41.077   7.652
 3107POPC   NC342803   1.119  31.364   5.118
 3107POPC   PO442804   0.813  31.295   5.709
 3107POPC   GL142805   0.969  31.541   6.014
 3107POPC   GL242806   1.256  31.690   5.936
 3107POPC   C1A42807   1.097  31.657   6.419
 3107POPC   D2A42808   1.250  31.436   6.770
 3107POPC   C3A42809   0.890  31.370   7.023
 3107POPC   C4A42810   0.845  31.205   7.439
 3107POPC   C1B42811   1.592  31.771   6.242
 3107POPC   C2B42812   1.749  31.585   6.637
 3107POPC   C3B42813   1.626  31.654   7.042
 3107POPC   C4B42814   1.668  32.077   7.156
 3108POPC   NC342815  11.182  43.346   5.409
 3108POPC   PO442816  11.787  42.980   5.402
 3108POPC   GL142817  11.601  43.070   5.802
 3108POPC   GL242818  11.236  43.115   5.850
 3108POPC   C1A42819  11.612  43.082   6.242
 3108POPC   D2A42820  11.729  42.933   6.639
 3108POPC   C3A42821  11.645  43.211   6.976
 3108POPC   C4A42822  11.663  43.072   7.398
 3108POPC   C1B42823  11.116  42.907   6.237
 3108POPC   C2B42824  11.206  42.952   6.671
 3108POPC   C3B42825  11.269  42.902   7.120
 3108POPC   C4B42826  11.169  43.072   7.560
 3109POPC   NC342827  22.055  16.383   5.169
 3109POPC   PO442828  21.853  15.783   5.427
 3109POPC   GL142829  21.890  15.738   5.859
 3109POPC   GL242830  22.023  16.083   5.926
 3109POPC   C1A42831  22.115  15.692   6.261
 3109POPC   D2A42832  22.320  15.887   6.619
 3109POPC   C3A42833  22.166  15.716   7.010
 3109POPC   C4A42834  22.035  15.865   7.403
 3109POPC   C1B42835  22.064  16.261   6.376
 3109POPC   C2B42836  22.048  16.285   6.855
 3109POPC   C3B42837  21.999  16.361   7.304
 3109POPC   C4B42838  21.928  16.244   7.756
 3110POPC   NC342839  16.948  23.489   5.608
 3110POPC   PO442840  16.719  24.092   5.424
 3110POPC   GL142841  16.711  23.886   5.860
 3110POPC   GL242842  16.539  23.544   5.916
 3110POPC   C1A42843  16.731  23.815   6.320
 3110POPC   D2A42844  16.442  23.666   6.657
 3110POPC   C3A42845  16.594  23.852   7.025
 3110POPC   C4A42846  17.024  23.872   7.034
 3110POPC   C1B42847  16.778  23.315   6.259
 3110POPC   C2B42848  16.884  23.438   6.681
 3110POPC   C3B42849  16.863  23.375   7.088
 3110POPC   C4B42850  17.223  23.188   7.325
 3111POPC   NC342851  28.568  33.392   5.484
 3111POPC   PO442852  28.245  32.823   5.398
 3111POPC   GL142853  28.489  32.845   5.792
 3111POPC   GL242854  28.493  33.194   5.958
 3111POPC   C1A42855  28.563  32.764   6.240
 3111POPC   D2A42856  28.446  33.022   6.580
 3111POPC   C3A42857  28.322  32.819   6.941
 3111POPC   C4A42858  28.233  32.986   7.333
 3111POPC   C1B42859  28.659  33.453   6.311
 3111POPC   C2B42860  28.685  33.445   6.786
 3111POPC   C3B42861  28.685  33.151   7.116
 3111POPC   C4B42862  28.654  33.113   7.583
 3112POPC   NC342863   0.725  30.491   5.405
 3112POPC   PO442864   0.186  30.848   5.329
 3112POPC   GL142865   0.271  30.679   5.757
 3112POPC   GL242866   0.240  30.341   5.859
 3112POPC   C1A42867   0.209  30.691   6.219
 3112POPC   D2A42868   0.286  30.428   6.606
 3112POPC   C3A42869   0.239  30.668   6.996
 3112POPC   C4A42870   0.575  30.919   7.148
 3112POPC   C1B42871   0.647  30.459   6.126
 3112POPC   C2B42872   0.848  30.397   6.570
 3112POPC   C3B42873   0.827  30.511   7.018
 3112POPC   C4B42874   0.554  30.431   7.345
 3113POPC   NC342875  27.336  33.676   5.141
 3113POPC   PO442876  27.958  33.501   5.411
 3113POPC   GL142877  27.750  33.727   5.762
 3113POPC   GL242878  27.397  33.742   5.769
 3113POPC   C1A42879  27.817  33.911   6.171
 3113POPC   D2A42880  28.009  33.970   6.582
 3113POPC   C3A42881  27.790  33.840   6.942
 3113POPC   C4A42882  27.737  33.997   7.379
 3113POPC   C1B42883  27.489  33.506   6.172
 3113POPC   C2B42884  27.386  33.523   6.623
 3113POPC   C3B42885  27.263  33.737   7.002
 3113POPC   C4B42886  27.413  33.618   7.381
 3114POPC   NC342887  27.442  42.234   5.371
 3114POPC   PO442888  28.035  42.042   5.469
 3114POPC   GL142889  27.823  42.351   5.754
 3114POPC   GL242890  27.464  42.310   5.859
 3114POPC   C1A42891  27.804  42.452   6.205
 3114POPC   D2A42892  27.955  42.319   6.605
 3114POPC   C3A42893  27.691  42.345   6.968
 3114POPC   C4A42894  27.422  42.041   7.195
 3114POPC   C1B42895  27.297  42.631   6.081
 3114POPC   C2B42896  27.394  42.692   6.482
 3114POPC   C3B42897  27.214  42.556   6.833
 3114POPC   C4B42898  27.312  42.572   7.221
 3115POPC   NC342899  23.057   0.703   5.352
 3115POPC   PO442900  22.649   0.174   5.099
 3115POPC   GL142901  22.726   0.159   5.623
 3115POPC   GL242902  23.023   0.272   5.789
 3115POPC   C1A42903  22.679   0.267   6.136
 3115POPC   D2A42904  22.823   0.572   6.496
 3115POPC   C3A42905  22.800   0.437   6.932
 3115POPC   C4A42906  22.568   0.092   7.130
 3115POPC   C1B42907  23.156   0.577   6.089
 3115POPC   C2B42908  23.308   0.767   6.485
 3115POPC   C3B42909  23.229   0.764   6.917
 3115POPC   C4B42910  23.150   0.538   7.291
 3116POPC   NC342911  18.727  42.640   5.304
 3116POPC   PO442912  18.279  42.183   5.505
 3116POPC   GL142913  18.241  42.530   5.769
 3116POPC   GL242914  17.880  42.523   5.757
 3116POPC   C1A42915  18.413  42.531   6.207
 3116POPC   D2A42916  18.578  42.261   6.570
 3116POPC   C3A42917  18.566  42.445   7.014
 3116POPC   C4A42918  18.451  42.367   7.449
 3116POPC   C1B42919  18.000  42.210   6.110
 3116POPC   C2B42920  18.016  42.383   6.520
 3116POPC   C3B42921  17.996  42.285   6.937
 3116POPC   C4B42922  18.018  42.134   7.345
 3117POPC   NC342923  26.336  14.657   5.437
 3117POPC   PO442924  25.955  14.044   5.430
 3117POPC   GL142925  26.034  14.289   5.811
 3117POPC   GL242926  26.307  14.400   5.863
 3117POPC   C1A42927  26.194  14.101   6.242
 3117POPC   D2A42928  25.939  14.153   6.619
 3117POPC   C3A42929  26.109  14.197   7.019
 3117POPC   C4A42930  26.130  13.998   7.394
 3117POPC   C1B42931  26.080  14.594   6.247
 3117POPC   C2B42932  25.904  14.677   6.658
 3117POPC   C3B42933  25.941  14.782   7.099
 3117POPC   C4B42934  25.957  14.517   7.467
 3118POPC   NC342935  17.586  34.601   5.281
 3118POPC   PO442936  17.565  33.973   5.299
 3118POPC   GL142937  17.426  34.303   5.678
 3118POPC   GL242938  17.726  34.490   5.843
 3118POPC   C1A42939  17.356  34.267   6.143
 3118POPC   D2A42940  17.703  34.215   6.467
 3118POPC   C3A42941  17.596  34.202   6.928
 3118POPC   C4A42942  17.353  34.422   7.222
 3118POPC   C1B42943  17.578  34.704   6.263
 3118POPC   C2B42944  17.516  34.661   6.723
 3118POPC   C3B42945  17.779  34.673   7.094
 3118POPC   C4B42946  17.818  34.893   7.486
 3119POPC   NC342947  42.451  36.412   5.349
 3119POPC   PO442948  42.120  35.831   5.331
 3119POPC   GL142949  42.232  36.099   5.709
 3119POPC   GL242950  42.032  36.415   5.669
 3119POPC   C1A42951  42.356  36.061   6.162
 3119POPC   D2A42952  42.531  36.250   6.564
 3119POPC   C3A42953  42.636  36.044   6.964
 3119POPC   C4A42954  42.453  35.716   7.194
 3119POPC   C1B42955  42.067  36.491   6.124
 3119POPC   C2B42956  42.005  36.262   6.515
 3119POPC   C3B42957  42.100  36.084   6.926
 3119POPC   C4B42958  42.041  36.279   7.329
 3120POPC   NC342959   8.886  21.009   5.454
 3120POPC   PO442960   8.870  20.360   5.483
 3120POPC   GL142961   8.952  20.625   5.837
 3120POPC   GL242962   9.309  20.672   5.813
 3120POPC   C1A42963   8.865  20.500   6.260
 3120POPC   D2A42964   9.093  20.251   6.586
 3120POPC   C3A42965   8.990  20.411   6.993
 3120POPC   C4A42966   8.685  20.704   7.192
 3120POPC   C1B42967   9.362  20.584   6.269
 3120POPC   C2B42968   9.140  20.770   6.621
 3120POPC   C3B42969   9.164  20.879   7.045
 3120POPC   C4B42970   9.001  21.220   7.254
 3121POPC   NC342971  33.451  12.583   5.574
 3121POPC   PO442972  34.056  12.259   5.459
 3121POPC   GL142973  33.722  12.022   5.731
 3121POPC   GL242974  33.485  11.726   5.780
 3121POPC   C1A42975  33.787  11.890   6.172
 3121POPC   D2A42976  33.675  12.182   6.487
 3121POPC   C3A42977  33.794  12.112   6.923
 3121POPC   C4A42978  33.765  12.304   7.332
 3121POPC   C1B42979  33.300  11.740   6.212
 3121POPC   C2B42980  33.490  11.735   6.627
 3121POPC   C3B42981  33.316  11.692   7.008
 3121POPC   C4B42982  33.511  11.890   7.285
 3122POPC   NC342983  29.590   9.701   5.498
 3122POPC   PO442984  30.126  10.055   5.274
 3122POPC   GL142985  29.983   9.944   5.722
 3122POPC   GL242986  29.758  10.209   5.791
 3122POPC   C1A42987  30.012   9.644   6.124
 3122POPC   D2A42988  29.853   9.429   6.515
 3122POPC   C3A42989  29.940   9.638   6.897
 3122POPC   C4A42990  30.217   9.502   7.235
 3122POPC   C1B42991  29.759  10.076   6.213
 3122POPC   C2B42992  29.900  10.101   6.621
 3122POPC   C3B42993  29.745  10.126   7.026
 3122POPC   C4B42994  29.928   9.899   7.344
 3123POPC   NC342995   6.402  22.240   5.461
 3123POPC   PO442996   7.052  22.435   5.426
 3123POPC   GL142997   6.746  22.349   5.828
 3123POPC   GL242998   6.392  22.218   5.951
 3123POPC   C1A42999   6.741  22.272   6.297
 3123POPC   D2A43000   6.836  22.537   6.638
 3123POPC   C3A43001   6.739  22.348   6.986
 3123POPC   C4A43002   6.501  22.465   7.319
 3123POPC   C1B43003   6.368  21.913   6.271
 3123POPC   C2B43004   6.161  21.878   6.656
 3123POPC   C3B43005   6.291  21.759   7.063
 3123POPC   C4B43006   6.620  21.956   7.286
 3124POPC   NC343007  35.657   7.541   5.381
 3124POPC   PO443008  35.009   7.198   5.531
 3124POPC   GL143009  35.259   7.262   5.942
 3124POPC   GL243010  35.346   7.572   6.046
 3124POPC   C1A43011  35.528   7.175   6.341
 3124POPC   D2A43012  35.621   7.406   6.716
 3124POPC   C3A43013  35.563   7.108   7.029
 3124POPC   C4A43014  35.313   7.155   7.380
 3124POPC   C1B43015  35.118   7.829   6.346
 3124POPC   C2B43016  35.079   7.765   6.771
 3124POPC   C3B43017  35.354   7.733   7.100
 3124POPC   C4B43018  35.261   7.636   7.539
 3125POPC   NC343019  21.413  10.886   5.573
 3125POPC   PO443020  21.120  11.521   5.426
 3125POPC   GL143021  21.384  11.435   5.813
 3125POPC   GL243022  21.765  11.437   5.733
 3125POPC   C1A43023  21.252  11.284   6.241
 3125POPC   D2A43024  21.222  11.485   6.661
 3125POPC   C3A43025  21.071  11.445   7.092
 3125POPC   C4A43026  21.332  11.492   7.456
 3125POPC   C1B43027  21.837  11.351   6.145
 3125POPC   C2B43028  21.679  11.227   6.534
 3125POPC   C3B43029  21.688  11.477   6.873
 3125POPC   C4B43030  21.778  11.391   7.268
 3126POPC   NC343031  11.532  37.702   5.203
 3126POPC   PO443032  12.237  37.572   5.301
 3126POPC   GL143033  12.158  37.590   5.748
 3126POPC   GL243034  11.845  37.401   5.804
 3126POPC   C1A43035  12.266  37.573   6.194
 3126POPC   D2A43036  12.214  37.820   6.550
 3126POPC   C3A43037  12.218  37.617   6.949
 3126POPC   C4A43038  12.156  37.725   7.392
 3126POPC   C1B43039  11.849  37.292   6.259
 3126POPC   C2B43040  11.877  37.308   6.722
 3126POPC   C3B43041  11.855  37.340   7.188
 3126POPC   C4B43042  11.780  37.428   7.643
 3127POPC   NC343043  43.176  25.690   5.379
 3127POPC   PO443044  42.818  26.103   5.037
 3127POPC   GL143045  42.811  25.887   5.609
 3127POPC   GL243046  42.999  26.123   5.777
 3127POPC   C1A43047  42.730  25.875   6.098
 3127POPC   D2A43048  42.931  25.840   6.490
 3127POPC   C3A43049  42.863  26.029   6.909
 3127POPC   C4A43050  42.987  25.897   7.342
 3127POPC   C1B43051  43.239  26.106   6.162
 3127POPC   C2B43052  43.399  26.009   6.587
 3127POPC   C3B43053  43.380  25.888   6.998
 3127POPC   C4B43054  43.418  26.189   7.312
 3128POPC   NC343055   1.703   1.779   5.610
 3128POPC   PO443056   1.054   1.849   5.456
 3128POPC   GL143057   1.262   1.943   5.810
 3128POPC   GL243058   1.409   2.246   5.723
 3128POPC   C1A43059   1.203   1.887   6.226
 3128POPC   D2A43060   0.926   1.888   6.567
 3128POPC   C3A43061   1.180   1.908   6.912
 3128POPC   C4A43062   1.003   2.206   7.172
 3128POPC   C1B43063   1.543   2.298   6.153
 3128POPC   C2B43064   1.607   2.069   6.529
 3128POPC   C3B43065   1.593   2.193   6.914
 3128POPC   C4B43066   1.547   1.983   7.295
 3129POPC   NC343067  19.540  19.548   5.616
 3129POPC   PO443068  20.091  19.520   5.568
 3129POPC   GL143069  19.972  19.712   5.965
 3129POPC   GL243070  19.698  19.940   5.942
 3129POPC   C1A43071  19.940  19.863   6.407
 3129POPC   D2A43072  19.864  20.045   6.803
 3129POPC   C3A43073  19.910  19.705   7.099
 3129POPC   C4A43074  19.776  19.698   7.537
 3129POPC   C1B43075  19.466  19.729   6.298
 3129POPC   C2B43076  19.483  19.696   6.776
 3129POPC   C3B43077  19.443  19.944   7.164
 3129POPC   C4B43078  19.418  20.099   7.583
 3130POPC   NC343079  18.935   0.978   5.004
 3130POPC   PO443080  18.696   1.286   5.580
 3130POPC   GL143081  18.847   1.079   5.917
 3130POPC   GL243082  19.056   1.380   5.974
 3130POPC   C1A43083  18.913   1.126   6.357
 3130POPC   D2A43084  18.780   1.400   6.616
 3130POPC   C3A43085  19.033   1.309   6.926
 3130POPC   C4A43086  19.061   1.014   7.263
 3130POPC   C1B43087  19.360   1.464   6.278
 3130POPC   C2B43088  19.485   1.504   6.681
 3130POPC   C3B43089  19.285   1.763   6.991
 3130POPC   C4B43090  19.056   1.606   7.340
 3131POPC   NC343091   8.259   0.905   5.448
 3131POPC   PO443092   7.820   1.451   5.536
 3131POPC   GL143093   8.207   1.326   5.795
 3131POPC   GL243094   8.139   1.003   5.933
 3131POPC   C1A43095   8.451   1.290   6.232
 3131POPC   D2A43096   8.553   1.204   6.687
 3131POPC   C3A43097   8.276   1.404   7.007
 3131POPC   C4A43098   7.901   1.375   7.232
 3131POPC   C1B43099   8.226   0.777   6.321
 3131POPC   C2B43100   8.128   0.666   6.763
 3131POPC   C3B43101   8.350   0.886   7.084
 3131POPC   C4B43102   8.274   1.097   7.477
 3132POPC   NC343103  33.202  36.452   5.458
 3132POPC   PO443104  32.926  35.869   5.252
 3132POPC   GL143105  32.993  35.970   5.745
 3132POPC   GL243106  33.250  36.174   5.907
 3132POPC   C1A43107  32.772  35.953   6.167
 3132POPC   D2A43108  32.795  35.738   6.577
 3132POPC   C3A43109  32.745  36.029   6.922
 3132POPC   C4A43110  33.041  36.159   7.236
 3132POPC   C1B43111  33.102  36.307   6.341
 3132POPC   C2B43112  32.971  36.480   6.744
 3132POPC   C3B43113  32.965  36.649   7.158
 3132POPC   C4B43114  33.282  36.519   7.511
 3133POPC   NC343115  34.437  19.153   5.209
 3133POPC   PO443116  34.921  18.699   5.253
 3133POPC   GL143117  34.786  18.960   5.632
 3133POPC   GL243118  34.415  18.972   5.742
 3133POPC   C1A43119  34.877  19.050   6.084
 3133POPC   D2A43120  34.824  18.844   6.501
 3133POPC   C3A43121  34.712  19.117   6.855
 3133POPC   C4A43122  34.724  19.046   7.310
 3133POPC   C1B43123  34.305  19.294   6.077
 3133POPC   C2B43124  34.272  19.383   6.542
 3133POPC   C3B43125  34.160  19.166   6.959
 3133POPC   C4B43126  34.245  19.201   7.410
 3134POPC   NC343127  35.524  21.498   5.149
 3134POPC   PO443128  35.138  21.080   5.513
 3134POPC   GL143129  35.279  21.209   5.863
 3134POPC   GL243130  35.516  21.449   5.723
 3134POPC   C1A43131  35.475  21.129   6.251
 3134POPC   D2A43132  35.602  21.323   6.630
 3134POPC   C3A43133  35.427  21.162   6.996
 3134POPC   C4A43134  35.436  21.062   7.411
 3134POPC   C1B43135  35.325  21.622   6.129
 3134POPC   C2B43136  35.132  21.441   6.501
 3134POPC   C3B43137  35.132  21.582   6.912
 3134POPC   C4B43138  35.232  21.651   7.325
 3135POPC   NC343139  41.661  17.198   5.378
 3135POPC   PO443140  41.134  17.670   5.269
 3135POPC   GL143141  41.446  17.712   5.658
 3135POPC   GL243142  41.433  17.375   5.801
 3135POPC   C1A43143  41.675  17.701   6.105
 3135POPC   D2A43144  41.519  17.637   6.571
 3135POPC   C3A43145  41.725  17.395   6.943
 3135POPC   C4A43146  41.782  17.622   7.323
 3135POPC   C1B43147  41.509  17.235   6.245
 3135POPC   C2B43148  41.215  17.188   6.570
 3135POPC   C3B43149  41.219  17.399   6.947
 3135POPC   C4B43150  41.346  17.293   7.339
 3136POPC   NC343151  12.469  38.877   5.446
 3136POPC   PO443152  12.690  39.470   5.143
 3136POPC   GL143153  12.738  39.474   5.637
 3136POPC   GL243154  12.587  39.197   5.818
 3136POPC   C1A43155  12.719  39.539   6.145
 3136POPC   D2A43156  12.915  39.617   6.562
 3136POPC   C3A43157  12.773  39.440   6.959
 3136POPC   C4A43158  13.024  39.122   7.189
 3136POPC   C1B43159  12.625  38.989   6.244
 3136POPC   C2B43160  12.498  38.818   6.661
 3136POPC   C3B43161  12.602  38.838   7.109
 3136POPC   C4B43162  12.461  39.127   7.432
 3137POPC   NC343163  13.902   1.824   5.409
 3137POPC   PO443164  13.252   1.890   5.439
 3137POPC   GL143165  13.526   1.904   5.796
 3137POPC   GL243166  13.749   2.192   5.760
 3137POPC   C1A43167  13.538   2.015   6.226
 3137POPC   D2A43168  13.496   2.207   6.622
 3137POPC   C3A43169  13.436   1.895   6.893
 3137POPC   C4A43170  13.590   1.744   7.223
 3137POPC   C1B43171  14.017   2.196   6.124
 3137POPC   C2B43172  14.060   2.269   6.563
 3137POPC   C3B43173  13.892   2.142   6.973
 3137POPC   C4B43174  13.869   2.136   7.415
 3138POPC   NC343175  41.742  33.597   5.376
 3138POPC   PO443176  41.525  32.933   5.373
 3138POPC   GL143177  41.573  33.008   5.798
 3138POPC   GL243178  41.940  33.051   5.823
 3138POPC   C1A43179  41.318  33.150   6.156
 3138POPC   D2A43180  41.263  33.221   6.602
 3138POPC   C3A43181  41.433  32.984   6.986
 3138POPC   C4A43182  41.558  33.085   7.439
 3138POPC   C1B43183  41.795  32.961   6.263
 3138POPC   C2B43184  41.809  33.177   6.670
 3138POPC   C3B43185  41.952  33.179   7.119
 3138POPC   C4B43186  42.049  32.955   7.548
 3139POPC   NC343187  39.008  16.038   5.427
 3139POPC   PO443188  39.553  15.617   5.107
 3139POPC   GL143189  39.546  16.046   5.545
 3139POPC   GL243190  39.247  16.184   5.837
 3139POPC   C1A43191  39.651  16.074   6.082
 3139POPC   D2A43192  39.319  15.957   6.445
 3139POPC   C3A43193  39.434  15.776   6.876
 3139POPC   C4A43194  39.559  15.810   7.307
 3139POPC   C1B43195  38.938  16.274   6.215
 3139POPC   C2B43196  38.961  16.323   6.689
 3139POPC   C3B43197  39.165  16.183   7.090
 3139POPC   C4B43198  38.947  16.199   7.535
 3140POPC   NC343199   4.481  41.090   5.411
 3140POPC   PO443200   4.119  41.625   5.579
 3140POPC   GL143201   4.425  41.506   5.823
 3140POPC   GL243202   4.264  41.187   5.893
 3140POPC   C1A43203   4.550  41.777   6.164
 3140POPC   D2A43204   4.676  41.714   6.590
 3140POPC   C3A43205   4.441  41.911   6.872
 3140POPC   C4A43206   4.464  41.826   7.275
 3140POPC   C1B43207   4.152  41.468   6.277
 3140POPC   C2B43208   4.254  41.428   6.715
 3140POPC   C3B43209   4.405  41.327   7.103
 3140POPC   C4B43210   4.189  41.451   7.452
 3141POPC   NC343211  18.942  16.954   5.489
 3141POPC   PO443212  18.744  17.583   5.491
 3141POPC   GL143213  18.927  17.351   5.859
 3141POPC   GL243214  19.232  17.183   5.886
 3141POPC   C1A43215  18.771  17.009   6.144
 3141POPC   D2A43216  18.857  16.915   6.594
 3141POPC   C3A43217  18.785  17.178   6.993
 3141POPC   C4A43218  18.988  17.420   7.360
 3141POPC   C1B43219  19.098  17.321   6.362
 3141POPC   C2B43220  19.012  17.588   6.752
 3141POPC   C3B43221  19.225  17.797   7.139
 3141POPC   C4B43222  19.473  17.629   7.522
 3142POPC   NC343223   5.226  39.553   5.260
 3142POPC   PO443224   4.886  39.040   5.481
 3142POPC   GL143225   5.146  39.207   5.777
 3142POPC   GL243226   5.407  39.454   5.728
 3142POPC   C1A43227   5.067  39.187   6.195
 3142POPC   D2A43228   4.902  39.048   6.569
 3142POPC   C3A43229   4.835  39.318   6.912
 3142POPC   C4A43230   5.045  39.216   7.262
 3142POPC   C1B43231   5.562  39.286   6.109
 3142POPC   C2B43232   5.408  39.437   6.500
 3142POPC   C3B43233   5.562  39.493   6.873
 3142POPC   C4B43234   5.524  39.396   7.270
 3143POPC   NC343235  14.718  41.970   5.701
 3143POPC   PO443236  14.457  41.429   5.269
 3143POPC   GL143237  14.428  41.311   5.719
 3143POPC   GL243238  14.659  41.505   5.951
 3143POPC   C1A43239  14.211  41.381   6.121
 3143POPC   D2A43240  14.375  41.380   6.541
 3143POPC   C3A43241  14.224  41.544   6.943
 3143POPC   C4A43242  14.354  41.507   7.385
 3143POPC   C1B43243  14.543  41.804   6.305
 3143POPC   C2B43244  14.623  41.789   6.735
 3143POPC   C3B43245  14.502  41.959   7.123
 3143POPC   C4B43246  14.578  41.957   7.584
 3144POPC   NC343247  39.948   9.234   5.399
 3144POPC   PO443248  40.139   8.670   5.401
 3144POPC   GL143249  40.102   8.907   5.789
 3144POPC   GL243250  40.274   9.244   5.817
 3144POPC   C1A43251  39.772   8.950   6.144
 3144POPC   D2A43252  39.630   8.770   6.538
 3144POPC   C3A43253  39.698   8.939   6.952
 3144POPC   C4A43254  39.711   8.750   7.356
 3144POPC   C1B43255  40.248   9.061   6.244
 3144POPC   C2B43256  40.022   9.154   6.605
 3144POPC   C3B43257  40.173   9.088   7.039
 3144POPC   C4B43258  40.246   8.794   7.335
 3145POPC   NC343259  20.896  10.473   5.100
 3145POPC   PO443260  21.453  10.426   5.434
 3145POPC   GL143261  21.255  10.493   5.853
 3145POPC   GL243262  21.572  10.575   5.945
 3145POPC   C1A43263  21.206  10.316   6.260
 3145POPC   D2A43264  21.388  10.279   6.684
 3145POPC   C3A43265  21.189  10.532   7.028
 3145POPC   C4A43266  21.323  10.453   7.470
 3145POPC   C1B43267  21.444  10.803   6.272
 3145POPC   C2B43268  21.264  10.913   6.646
 3145POPC   C3B43269  21.424  11.065   7.019
 3145POPC   C4B43270  21.296  10.970   7.417
 3146POPC   NC343271  42.624  44.773   5.461
 3146POPC   PO443272  42.025  44.460   5.429
 3146POPC   GL143273  42.178  44.666   5.787
 3146POPC   GL243274  42.171   0.039   5.771
 3146POPC   C1A43275  42.452  44.615   6.165
 3146POPC   D2A43276  42.668  44.608   6.576
 3146POPC   C3A43277  42.577  44.307   6.918
 3146POPC   C4A43278  42.198  44.189   7.156
 3146POPC   C1B43279  41.991  44.887   6.196
 3146POPC   C2B43280  42.135  44.668   6.594
 3146POPC   C3B43281  42.332  44.762   6.978
 3146POPC   C4B43282  42.172   0.021   7.263
 3147POPC   NC343283   3.745  41.862   5.421
 3147POPC   PO443284   3.323  41.323   5.262
 3147POPC   GL143285   3.375  41.573   5.648
 3147POPC   GL243286   3.703  41.507   5.830
 3147POPC   C1A43287   3.300  41.570   6.107
 3147POPC   D2A43288   3.550  41.503   6.450
 3147POPC   C3A43289   3.274  41.462   6.781
 3147POPC   C4A43290   3.413  41.730   7.067
 3147POPC   C1B43291   3.802  41.149   6.101
 3147POPC   C2B43292   3.833  41.087   6.548
 3147POPC   C3B43293   3.767  41.332   6.923
 3147POPC   C4B43294   3.690  41.415   7.367
 3148POPC   NC343295  20.074  33.908   5.277
 3148POPC   PO443296  19.589  33.433   5.367
 3148POPC   GL143297  19.674  33.690   5.732
 3148POPC   GL243298  19.982  33.882   5.810
 3148POPC   C1A43299  19.577  33.801   6.172
 3148POPC   D2A43300  19.781  33.898   6.565
 3148POPC   C3A43301  19.649  33.738   6.968
 3148POPC   C4A43302  19.848  33.943   7.371
 3148POPC   C1B43303  20.063  33.560   6.169
 3148POPC   C2B43304  20.177  33.454   6.634
 3148POPC   C3B43305  20.129  33.594   7.096
 3148POPC   C4B43306  20.134  33.547   7.595
 3149POPC   NC343307  43.753  43.473   5.058
 3149POPC   PO443308  44.098  42.957   5.438
 3149POPC   GL143309  44.168  43.072   5.830
 3149POPC   GL243310  44.280  43.417   5.795
 3149POPC   C1A43311  43.807  43.026   6.131
 3149POPC   D2A43312  43.683  43.197   6.508
 3149POPC   C3A43313  43.735  42.888   6.825
 3149POPC   C4A43314  43.615  43.031   7.219
 3149POPC   C1B43315  44.140  43.411   6.217
 3149POPC   C2B43316  44.166  43.303   6.615
 3149POPC   C3B43317  43.951  43.360   6.981
 3149POPC   C4B43318  44.138  43.067   7.263
 3150POPC   NC343319  12.059  33.210   5.263
 3150POPC   PO443320  12.436  32.832   5.557
 3150POPC   GL143321  12.273  33.156   5.819
 3150POPC   GL243322  12.013  32.924   5.928
 3150POPC   C1A43323  12.166  33.256   6.270
 3150POPC   D2A43324  11.856  33.002   6.506
 3150POPC   C3A43325  11.854  33.085   6.937
 3150POPC   C4A43326  12.132  33.317   7.153
 3150POPC   C1B43327  12.368  32.807   6.199
 3150POPC   C2B43328  12.575  32.908   6.558
 3150POPC   C3B43329  12.374  32.927   6.931
 3150POPC   C4B43330  12.366  32.654   7.259
 3151POPC   NC343331  30.735  44.972   5.144
 3151POPC   PO443332  30.492  44.419   5.400
 3151POPC   GL143333  30.686  44.496   5.787
 3151POPC   GL243334  30.999  44.608   5.747
 3151POPC   C1A43335  30.665  44.385   6.197
 3151POPC   D2A43336  30.754  44.630   6.537
 3151POPC   C3A43337  30.764  44.504   6.907
 3151POPC   C4A43338  30.460  44.641   7.147
 3151POPC   C1B43339  30.887  44.908   6.107
 3151POPC   C2B43340  31.079   0.002   6.543
 3151POPC   C3B43341  30.962   0.001   6.989
 3151POPC   C4B43342  30.900  44.725   7.365
 3152POPC   NC343343  24.179  11.246   5.653
 3152POPC   PO443344  24.708  11.543   5.558
 3152POPC   GL143345  24.577  11.456   5.956
 3152POPC   GL243346  24.631  11.116   5.988
 3152POPC   C1A43347  24.301  11.352   6.311
 3152POPC   D2A43348  24.426  11.347   6.727
 3152POPC   C3A43349  24.480  11.014   7.016
 3152POPC   C4A43350  24.434  11.045   7.482
 3152POPC   C1B43351  24.615  10.966   6.428
 3152POPC   C2B43352  24.902  11.094   6.716
 3152POPC   C3B43353  24.985  11.167   7.128
 3152POPC   C4B43354  24.926  10.897   7.453
 3153POPC   NC343355  15.099  13.117   5.532
 3153POPC   PO443356  15.457  12.476   5.425
 3153POPC   GL143357  15.368  12.701   5.827
 3153POPC   GL243358  15.530  13.010   5.950
 3153POPC   C1A43359  15.298  12.681   6.283
 3153POPC   D2A43360  15.258  12.949   6.649
 3153POPC   C3A43361  15.289  12.751   7.043
 3153POPC   C4A43362  14.943  12.839   7.321
 3153POPC   C1B43363  15.098  13.125   6.168
 3153POPC   C2B43364  14.720  13.176   6.444
 3153POPC   C3B43365  14.784  13.189   6.902
 3153POPC   C4B43366  15.211  13.233   7.103
 3154POPC   NC343367  31.817  12.499   5.591
 3154POPC   PO443368  31.885  11.733   5.546
 3154POPC   GL143369  31.973  12.075   5.808
 3154POPC   GL243370  32.303  12.211   5.829
 3154POPC   C1A43371  31.959  12.311   6.196
 3154POPC   D2A43372  32.277  12.301   6.490
 3154POPC   C3A43373  32.156  12.216   6.912
 3154POPC   C4A43374  32.206  12.395   7.316
 3154POPC   C1B43375  32.257  11.866   6.174
 3154POPC   C2B43376  32.401  11.803   6.576
 3154POPC   C3B43377  32.356  11.663   6.967
 3154POPC   C4B43378  32.408  11.936   7.258
 3155POPC   NC343379  30.207  35.748   5.477
 3155POPC   PO443380  29.826  36.176   5.134
 3155POPC   GL143381  30.004  36.282   5.624
 3155POPC   GL243382  29.789  36.387   5.909
 3155POPC   C1A43383  30.083  36.027   6.053
 3155POPC   D2A43384  29.968  36.146   6.438
 3155POPC   C3A43385  30.134  35.884   6.762
 3155POPC   C4A43386  30.054  35.912   7.176
 3155POPC   C1B43387  29.600  36.599   6.261
 3155POPC   C2B43388  29.525  36.838   6.647
 3155POPC   C3B43389  29.672  36.746   7.081
 3155POPC   C4B43390  29.918  36.411   7.327
 3156POPC   NC343391  17.329  38.999   5.635
 3156POPC   PO443392  17.787  39.409   5.373
 3156POPC   GL143393  17.670  39.367   5.810
 3156POPC   GL243394  17.339  39.512   5.801
 3156POPC   C1A43395  17.609  39.298   6.273
 3156POPC   D2A43396  17.465  39.136   6.681
 3156POPC   C3A43397  17.592  39.225   7.096
 3156POPC   C4A43398  18.029  39.275   7.261
 3156POPC   C1B43399  17.221  39.715   6.179
 3156POPC   C2B43400  17.350  39.647   6.593
 3156POPC   C3B43401  17.220  39.601   7.021
 3156POPC   C4B43402  17.266  39.705   7.447
 3157POPC   NC343403  22.534  13.721   5.667
 3157POPC   PO443404  21.944  13.592   5.386
 3157POPC   GL143405  21.992  13.829   5.759
 3157POPC   GL243406  22.184  13.642   6.008
 3157POPC   C1A43407  21.785  13.873   6.163
 3157POPC   D2A43408  22.006  13.634   6.483
 3157POPC   C3A43409  21.992  13.895   6.803
 3157POPC   C4A43410  22.017  13.823   7.204
 3157POPC   C1B43411  22.513  13.650   6.337
 3157POPC   C2B43412  22.487  13.409   6.722
 3157POPC   C3B43413  22.341  13.430   7.168
 3157POPC   C4B43414  22.471  13.374   7.619
 3158POPC   NC343415  13.360   3.094   5.587
 3158POPC   PO443416  13.991   3.042   5.682
 3158POPC   GL143417  13.761   3.349   5.957
 3158POPC   GL243418  13.432   3.513   5.858
 3158POPC   C1A43419  13.695   3.490   6.395
 3158POPC   D2A43420  13.390   3.720   6.660
 3158POPC   C3A43421  13.573   3.614   7.055
 3158POPC   C4A43422  13.979   3.454   7.227
 3158POPC   C1B43423  13.237   3.372   6.253
 3158POPC   C2B43424  13.374   3.200   6.681
 3158POPC   C3B43425  13.173   3.254   7.107
 3158POPC   C4B43426  13.195   3.562   7.439
 3159POPC   NC343427  25.783  33.113   5.457
 3159POPC   PO443428  26.413  32.913   5.453
 3159POPC   GL143429  26.387  33.012   5.889
 3159POPC   GL243430  26.097  33.184   5.858
 3159POPC   C1A43431  26.158  32.836   6.264
 3159POPC   D2A43432  26.004  32.636   6.644
 3159POPC   C3A43433  26.151  32.853   6.988
 3159POPC   C4A43434  26.356  32.696   7.322
 3159POPC   C1B43435  25.867  33.261   6.243
 3159POPC   C2B43436  25.789  33.104   6.666
 3159POPC   C3B43437  25.693  33.055   7.103
 3159POPC   C4B43438  25.623  33.303   7.477
 3160POPC   NC343439  33.032  37.051   5.360
 3160POPC   PO443440  32.852  36.489   5.754
 3160POPC   GL143441  32.929  36.882   5.870
 3160POPC   GL243442  32.676  37.091   5.780
 3160POPC   C1A43443  32.935  37.157   6.238
 3160POPC   D2A43444  33.169  37.200   6.617
 3160POPC   C3A43445  33.064  37.151   7.036
 3160POPC   C4A43446  33.363  36.982   7.331
 3160POPC   C1B43447  32.488  36.909   6.181
 3160POPC   C2B43448  32.579  36.944   6.630
 3160POPC   C3B43449  32.567  37.091   7.061
 3160POPC   C4B43450  32.548  37.169   7.530
 3161POPC   NC343451   5.650   8.813   5.415
 3161POPC   PO443452   6.065   9.308   5.382
 3161POPC   GL143453   6.102   9.380   5.815
 3161POPC   GL243454   5.813   9.148   5.846
 3161POPC   C1A43455   6.084   9.280   6.258
 3161POPC   D2A43456   5.747   9.126   6.518
 3161POPC   C3A43457   5.800   9.258   6.931
 3161POPC   C4A43458   5.990   9.228   7.306
 3161POPC   C1B43459   5.707   8.795   6.112
 3161POPC   C2B43460   5.485   8.627   6.468
 3161POPC   C3B43461   5.465   8.851   6.856
 3161POPC   C4B43462   5.659   8.838   7.267
 3162POPC   NC343463  21.018  30.807   5.335
 3162POPC   PO443464  21.528  30.314   5.397
 3162POPC   GL143465  21.310  30.589   5.696
 3162POPC   GL243466  21.576  30.795   5.874
 3162POPC   C1A43467  21.144  30.676   6.115
 3162POPC   D2A43468  21.377  30.766   6.501
 3162POPC   C3A43469  21.174  30.788   6.883
 3162POPC   C4A43470  21.070  30.615   7.261
 3162POPC   C1B43471  21.546  30.369   6.106
 3162POPC   C2B43472  21.445  30.263   6.536
 3162POPC   C3B43473  21.599  30.507   6.905
 3162POPC   C4B43474  21.890  30.467   7.233
 3163POPC   NC343475   5.685  14.190   5.337
 3163POPC   PO443476   6.361  14.254   5.595
 3163POPC   GL143477   5.970  14.308   5.742
 3163POPC   GL243478   6.011  14.573   5.970
 3163POPC   C1A43479   5.737  14.173   6.110
 3163POPC   D2A43480   5.822  14.489   6.459
 3163POPC   C3A43481   5.820  14.413   6.909
 3163POPC   C4A43482   5.532  14.443   7.272
 3163POPC   C1B43483   6.235  14.243   6.228
 3163POPC   C2B43484   6.296  14.102   6.628
 3163POPC   C3B43485   6.284  14.236   7.047
 3163POPC   C4B43486   5.965  14.184   7.364
 3164POPC   NC343487  18.134  30.164   5.419
 3164POPC   PO443488  18.375  30.777   5.245
 3164POPC   GL143489  18.270  30.801   5.713
 3164POPC   GL243490  18.120  30.492   5.795
 3164POPC   C1A43491  18.220  30.768   6.197
 3164POPC   D2A43492  18.207  30.526   6.595
 3164POPC   C3A43493  18.250  30.745   7.015
 3164POPC   C4A43494  18.579  31.031   7.152
 3164POPC   C1B43495  17.946  30.325   6.170
 3164POPC   C2B43496  17.718  30.485   6.518
 3164POPC   C3B43497  17.842  30.383   6.924
 3164POPC   C4B43498  18.016  30.418   7.346
 3165POPC   NC343499   6.045   5.816   5.316
 3165POPC   PO443500   6.130   6.404   5.703
 3165POPC   GL143501   5.911   6.011   5.834
 3165POPC   GL243502   6.022   5.678   5.793
 3165POPC   C1A43503   5.788   5.823   6.228
 3165POPC   D2A43504   6.063   6.002   6.532
 3165POPC   C3A43505   5.885   6.060   6.914
 3165POPC   C4A43506   5.649   5.799   7.192
 3165POPC   C1B43507   6.227   5.546   6.131
 3165POPC   C2B43508   6.070   5.460   6.525
 3165POPC   C3B43509   6.040   5.584   6.891
 3165POPC   C4B43510   6.162   5.395   7.201
 3166POPC   NC343511  32.327  18.397   5.427
 3166POPC   PO443512  31.794  18.013   5.423
 3166POPC   GL143513  31.964  18.148   5.813
 3166POPC   GL243514  32.004  18.528   5.818
 3166POPC   C1A43515  32.199  17.940   6.166
 3166POPC   D2A43516  32.485  18.106   6.471
 3166POPC   C3A43517  32.399  17.951   6.867
 3166POPC   C4A43518  32.340  18.052   7.277
 3166POPC   C1B43519  32.102  18.430   6.260
 3166POPC   C2B43520  32.124  18.364   6.711
 3166POPC   C3B43521  32.449  18.479   7.006
 3166POPC   C4B43522  32.325  18.572   7.429
 3167POPC   NC343523  44.145  30.331   5.275
 3167POPC   PO443524  43.658  29.807   5.352
 3167POPC   GL143525  43.834  29.995   5.758
 3167POPC   GL243526  44.223  30.033   5.777
 3167POPC   C1A43527  43.597  30.055   6.169
 3167POPC   D2A43528  43.389  30.202   6.533
 3167POPC   C3A43529  43.587  30.072   6.920
 3167POPC   C4A43530  43.725  30.018   7.346
 3167POPC   C1B43531  44.088  30.177   6.216
 3167POPC   C2B43532  44.113  30.062   6.678
 3167POPC   C3B43533  44.184  29.965   7.120
 3167POPC   C4B43534  44.173  30.005   7.590
 3168POPC   NC343535  20.225   5.754   5.560
 3168POPC   PO443536  19.588   5.615   5.446
 3168POPC   GL143537  19.616   5.835   5.857
 3168POPC   GL243538  19.659   6.182   5.820
 3168POPC   C1A43539  19.777   5.722   6.282
 3168POPC   D2A43540  19.931   5.512   6.652
 3168POPC   C3A43541  19.761   5.699   6.985
 3168POPC   C4A43542  19.999   5.896   7.316
 3168POPC   C1B43543  19.946   6.201   6.201
 3168POPC   C2B43544  19.943   6.066   6.648
 3168POPC   C3B43545  19.876   6.297   7.030
 3168POPC   C4B43546  19.879   6.672   7.283
 3169POPC   NC343547  11.576  16.879   5.366
 3169POPC   PO443548  12.199  16.800   5.268
 3169POPC   GL143549  12.056  16.672   5.688
 3169POPC   GL243550  11.718  16.690   5.874
 3169POPC   C1A43551  12.197  16.720   6.113
 3169POPC   D2A43552  12.102  17.027   6.437
 3169POPC   C3A43553  12.135  16.919   6.890
 3169POPC   C4A43554  12.336  16.533   7.052
 3169POPC   C1B43555  11.587  16.918   6.281
 3169POPC   C2B43556  11.595  16.748   6.702
 3169POPC   C3B43557  11.736  16.681   7.121
 3169POPC   C4B43558  11.890  17.053   7.366
 3170POPC   NC343559  36.653   9.186   5.153
 3170POPC   PO443560  36.986   8.654   5.437
 3170POPC   GL143561  37.115   9.044   5.703
 3170POPC   GL243562  36.969   8.840   5.963
 3170POPC   C1A43563  37.058   9.309   6.127
 3170POPC   D2A43564  36.983   9.020   6.469
 3170POPC   C3A43565  36.897   9.124   6.890
 3170POPC   C4A43566  36.948   8.889   7.244
 3170POPC   C1B43567  36.795   8.499   6.227
 3170POPC   C2B43568  36.514   8.457   6.590
 3170POPC   C3B43569  36.509   8.608   7.015
 3170POPC   C4B43570  36.297   8.506   7.384
 3171POPC   NC343571  29.955  38.937   5.439
 3171POPC   PO443572  29.794  39.607   5.575
 3171POPC   GL143573  29.790  39.266   5.871
 3171POPC   GL243574  30.106  39.189   5.866
 3171POPC   C1A43575  29.908  39.188   6.331
 3171POPC   D2A43576  30.069  39.355   6.703
 3171POPC   C3A43577  29.783  39.309   7.079
 3171POPC   C4A43578  29.641  39.532   7.457
 3171POPC   C1B43579  30.340  38.976   6.199
 3171POPC   C2B43580  30.215  38.838   6.622
 3171POPC   C3B43581  30.192  38.981   7.054
 3171POPC   C4B43582  30.342  38.833   7.454
 3172POPC   NC343583  26.394  13.183   5.474
 3172POPC   PO443584  26.556  12.568   5.405
 3172POPC   GL143585  26.739  12.567   5.836
 3172POPC   GL243586  27.036  12.780   5.743
 3172POPC   C1A43587  26.734  12.626   6.321
 3172POPC   D2A43588  26.802  12.935   6.665
 3172POPC   C3A43589  26.686  12.747   7.090
 3172POPC   C4A43590  26.431  12.727   7.473
 3172POPC   C1B43591  27.212  12.602   6.133
 3172POPC   C2B43592  27.213  12.623   6.592
 3172POPC   C3B43593  27.187  12.849   6.984
 3172POPC   C4B43594  27.085  12.839   7.429
 3173POPC   NC343595  30.561  37.379   5.416
 3173POPC   PO443596  31.098  37.917   5.377
 3173POPC   GL143597  30.758  37.826   5.686
 3173POPC   GL243598  30.519  38.090   5.699
 3173POPC   C1A43599  30.649  37.657   6.120
 3173POPC   D2A43600  30.828  37.630   6.561
 3173POPC   C3A43601  30.676  37.558   7.004
 3173POPC   C4A43602  30.391  37.446   7.341
 3173POPC   C1B43603  30.366  38.087   6.121
 3173POPC   C2B43604  30.354  37.879   6.497
 3173POPC   C3B43605  30.506  38.019   6.856
 3173POPC   C4B43606  30.539  38.009   7.255
 3174POPC   NC343607   2.438  18.609   5.434
 3174POPC   PO443608   2.151  19.154   5.467
 3174POPC   GL143609   1.884  18.987   5.756
 3174POPC   GL243610   1.725  19.260   5.849
 3174POPC   C1A43611   1.737  18.841   6.154
 3174POPC   D2A43612   1.946  18.888   6.513
 3174POPC   C3A43613   1.822  18.652   6.859
 3174POPC   C4A43614   2.090  18.713   7.179
 3174POPC   C1B43615   2.003  19.296   6.175
 3174POPC   C2B43616   1.920  19.404   6.585
 3174POPC   C3B43617   1.975  19.160   6.945
 3174POPC   C4B43618   1.648  19.045   7.182
 3175POPC   NC343619  43.420  21.857   5.614
 3175POPC   PO443620  42.749  22.149   5.496
 3175POPC   GL143621  42.821  21.947   5.871
 3175POPC   GL243622  43.108  22.137   5.908
 3175POPC   C1A43623  42.876  21.955   6.332
 3175POPC   D2A43624  42.962  21.630   6.650
 3175POPC   C3A43625  42.962  21.804   7.055
 3175POPC   C4A43626  42.843  22.152   7.310
 3175POPC   C1B43627  43.374  22.143   6.251
 3175POPC   C2B43628  43.270  22.069   6.651
 3175POPC   C3B43629  43.232  22.241   7.013
 3175POPC   C4B43630  43.423  22.097   7.348
 3176POPC   NC343631  29.522  13.289   5.578
 3176POPC   PO443632  29.042  13.603   5.222
 3176POPC   GL143633  29.084  13.627   5.665
 3176POPC   GL243634  29.075  13.316   5.855
 3176POPC   C1A43635  29.056  13.738   6.131
 3176POPC   D2A43636  29.415  13.842   6.411
 3176POPC   C3A43637  29.339  13.810   6.866
 3176POPC   C4A43638  29.443  13.740   7.300
 3176POPC   C1B43639  29.196  13.226   6.289
 3176POPC   C2B43640  29.109  13.355   6.721
 3176POPC   C3B43641  29.128  13.341   7.179
 3176POPC   C4B43642  28.887  13.481   7.528
 3177POPC   NC343643  44.049   1.687   5.388
 3177POPC   PO443644  43.720   2.283   5.209
 3177POPC   GL143645  43.796   2.078   5.629
 3177POPC   GL243646  44.125   2.179   5.744
 3177POPC   C1A43647  43.833   1.883   6.079
 3177POPC   D2A43648  43.548   1.936   6.427
 3177POPC   C3A43649  43.576   1.957   6.893
 3177POPC   C4A43650  43.890   1.866   7.202
 3177POPC   C1B43651  44.045   2.330   6.200
 3177POPC   C2B43652  43.958   2.190   6.648
 3177POPC   C3B43653  43.862   2.364   7.088
 3177POPC   C4B43654  44.114   2.227   7.488
 3178POPC   NC343655  38.706  10.556   5.360
 3178POPC   PO443656  38.121  10.268   5.545
 3178POPC   GL143657  38.248  10.564   5.847
 3178POPC   GL243658  38.571  10.630   5.837
 3178POPC   C1A43659  38.309  10.620   6.288
 3178POPC   D2A43660  38.195  10.384   6.650
 3178POPC   C3A43661  38.391  10.607   6.960
 3178POPC   C4A43662  38.281  10.792   7.342
 3178POPC   C1B43663  38.771  10.425   6.150
 3178POPC   C2B43664  38.726  10.354   6.575
 3178POPC   C3B43665  38.880  10.469   6.972
 3178POPC   C4B43666  38.800  10.784   7.232
 3179POPC   NC343667  25.826  30.145   5.221
 3179POPC   PO443668  26.400  29.787   5.489
 3179POPC   GL143669  26.363  29.644   5.926
 3179POPC   GL243670  26.046  29.822   5.990
 3179POPC   C1A43671  26.239  29.612   6.376
 3179POPC   D2A43672  25.818  29.832   6.510
 3179POPC   C3A43673  25.843  29.909   6.947
 3179POPC   C4A43674  26.203  29.719   7.112
 3179POPC   C1B43675  25.983  30.221   6.234
 3179POPC   C2B43676  25.847  30.345   6.631
 3179POPC   C3B43677  25.987  30.414   7.034
 3179POPC   C4B43678  25.758  30.715   7.191
 3180POPC   NC343679  36.287   5.480   5.710
 3180POPC   PO443680  35.950   4.967   5.423
 3180POPC   GL143681  35.905   5.161   5.851
 3180POPC   GL243682  36.230   5.047   5.985
 3180POPC   C1A43683  35.941   5.329   6.292
 3180POPC   D2A43684  36.144   5.067   6.630
 3180POPC   C3A43685  36.070   5.203   7.037
 3180POPC   C4A43686  35.760   5.427   7.330
 3180POPC   C1B43687  36.329   4.669   6.229
 3180POPC   C2B43688  36.308   4.573   6.664
 3180POPC   C3B43689  36.472   4.803   7.010
 3180POPC   C4B43690  36.447   4.725   7.460
 3181POPC   NC343691  27.855  12.354   5.004
 3181POPC   PO443692  27.331  12.009   5.370
 3181POPC   GL143693  27.557  11.976   5.737
 3181POPC   GL243694  27.601  11.661   5.882
 3181POPC   C1A43695  27.433  12.142   6.120
 3181POPC   D2A43696  27.578  12.265   6.491
 3181POPC   C3A43697  27.355  12.212   6.868
 3181POPC   C4A43698  27.355  12.438   7.249
 3181POPC   C1B43699  27.721  11.787   6.340
 3181POPC   C2B43700  27.693  11.832   6.806
 3181POPC   C3B43701  27.735  12.050   7.231
 3181POPC   C4B43702  28.083  11.940   7.560
 3182POPC   NC343703   7.421  21.076   5.428
 3182POPC   PO443704   7.226  20.445   5.394
 3182POPC   GL143705   7.461  20.623   5.777
 3182POPC   GL243706   7.348  20.923   5.908
 3182POPC   C1A43707   7.659  20.726   6.251
 3182POPC   D2A43708   7.438  20.656   6.677
 3182POPC   C3A43709   7.593  20.699   7.130
 3182POPC   C4A43710   7.583  21.008   7.519
 3182POPC   C1B43711   7.152  20.674   6.213
 3182POPC   C2B43712   6.930  20.733   6.578
 3182POPC   C3B43713   7.020  20.626   6.977
 3182POPC   C4B43714   7.153  20.761   7.374
 3183POPC   NC343715  43.864  39.845   5.173
 3183POPC   PO443716  43.968  39.209   5.197
 3183POPC   GL143717  44.006  39.366   5.640
 3183POPC   GL243718  44.004  39.687   5.726
 3183POPC   C1A43719  44.142  39.227   6.084
 3183POPC   D2A43720  43.948  39.154   6.502
 3183POPC   C3A43721  44.151  39.100   6.913
 3183POPC   C4A43722  43.865  39.069   7.233
 3183POPC   C1B43723  43.894  39.673   6.178
 3183POPC   C2B43724  44.000  39.667   6.610
 3183POPC   C3B43725  43.930  39.557   7.028
 3183POPC   C4B43726  43.748  39.535   7.449
 3184POPC   NC343727  14.747  38.193   5.448
 3184POPC   PO443728  15.391  38.504   5.374
 3184POPC   GL143729  15.226  38.594   5.771
 3184POPC   GL243730  15.170  38.237   5.841
 3184POPC   C1A43731  15.447  38.546   6.170
 3184POPC   D2A43732  15.357  38.370   6.569
 3184POPC   C3A43733  15.212  38.597   6.956
 3184POPC   C4A43734  15.402  38.812   7.271
 3184POPC   C1B43735  14.971  38.153   6.239
 3184POPC   C2B43736  15.027  37.988   6.634
 3184POPC   C3B43737  15.288  38.076   6.991
 3184POPC   C4B43738  15.144  38.260   7.342
 3185POPC   NC343739  16.344   3.008   5.572
 3185POPC   PO443740  16.887   2.587   5.491
 3185POPC   GL143741  17.002   2.734   5.848
 3185POPC   GL243742  16.652   2.813   5.908
 3185POPC   C1A43743  16.936   2.637   6.276
 3185POPC   D2A43744  16.699   2.712   6.628
 3185POPC   C3A43745  16.967   2.628   6.950
 3185POPC   C4A43746  16.945   2.832   7.314
 3185POPC   C1B43747  16.711   3.117   6.188
 3185POPC   C2B43748  16.884   3.206   6.553
 3185POPC   C3B43749  16.763   3.143   6.944
 3185POPC   C4B43750  16.693   3.268   7.339
 3186POPC   NC343751  34.940  35.665   5.556
 3186POPC   PO443752  34.414  36.143   5.628
 3186POPC   GL143753  34.666  36.122   5.965
 3186POPC   GL243754  34.811  35.855   5.985
 3186POPC   C1A43755  34.619  36.105   6.386
 3186POPC   D2A43756  34.460  35.858   6.689
 3186POPC   C3A43757  34.513  36.154   6.961
 3186POPC   C4A43758  34.370  36.230   7.338
 3186POPC   C1B43759  34.665  35.611   6.300
 3186POPC   C2B43760  34.938  35.725   6.595
 3186POPC   C3B43761  34.865  35.696   6.998
 3186POPC   C4B43762  34.857  36.004   7.298
 3187POPC   NC343763  20.784  39.251   5.451
 3187POPC   PO443764  20.156  39.560   5.456
 3187POPC   GL143765  20.350  39.287   5.777
 3187POPC   GL243766  20.636  39.369   5.921
 3187POPC   C1A43767  20.320  39.112   6.237
 3187POPC   D2A43768  20.475  39.273   6.625
 3187POPC   C3A43769  20.417  39.157   7.065
 3187POPC   C4A43770  20.552  38.962   7.464
 3187POPC   C1B43771  20.815  39.579   6.247
 3187POPC   C2B43772  20.666  39.741   6.623
 3187POPC   C3B43773  20.777  39.558   6.991
 3187POPC   C4B43774  20.574  39.581   7.352
 3188POPC   NC343775  26.587   9.997   5.485
 3188POPC   PO443776  27.202  10.170   5.285
 3188POPC   GL143777  27.056   9.952   5.724
 3188POPC   GL243778  26.933   9.579   5.712
 3188POPC   C1A43779  26.751   9.875   6.131
 3188POPC   D2A43780  26.449   9.937   6.517
 3188POPC   C3A43781  26.690   9.935   6.918
 3188POPC   C4A43782  27.178   9.991   6.956
 3188POPC   C1B43783  26.709   9.361   6.079
 3188POPC   C2B43784  26.768   9.483   6.543
 3188POPC   C3B43785  26.893   9.485   6.991
 3188POPC   C4B43786  26.582   9.533   7.325
 3189POPC   NC343787  20.532  19.495   5.507
 3189POPC   PO443788  20.923  20.065   5.466
 3189POPC   GL143789  20.722  19.861   5.815
 3189POPC   GL243790  20.384  19.947   5.726
 3189POPC   C1A43791  20.732  19.692   6.266
 3189POPC   D2A43792  20.897  19.620   6.712
 3189POPC   C3A43793  20.683  19.774   7.100
 3189POPC   C4A43794  20.699  20.069   7.462
 3189POPC   C1B43795  20.361  20.027   6.180
 3189POPC   C2B43796  20.407  19.927   6.656
 3189POPC   C3B43797  20.286  20.086   7.085
 3189POPC   C4B43798  19.885  20.146   7.313
 3190POPC   NC343799  20.598  32.627   5.369
 3190POPC   PO443800  20.385  33.331   5.462
 3190POPC   GL143801  20.512  33.051   5.818
 3190POPC   GL243802  20.608  32.681   5.863
 3190POPC   C1A43803  20.454  33.156   6.252
 3190POPC   D2A43804  20.420  32.944   6.646
 3190POPC   C3A43805  20.502  33.189   6.995
 3190POPC   C4A43806  20.891  33.231   7.194
 3190POPC   C1B43807  20.744  32.723   6.280
 3190POPC   C2B43808  20.760  32.553   6.698
 3190POPC   C3B43809  20.712  32.730   7.126
 3190POPC   C4B43810  20.974  32.794   7.497
 3191POPC   NC343811  10.075  31.348   4.984
 3191POPC   PO443812   9.721  31.580   5.367
 3191POPC   GL143813   9.897  31.557   5.823
 3191POPC   GL243814   9.793  31.797   6.053
 3191POPC   C1A43815   9.999  31.423   6.292
 3191POPC   D2A43816   9.774  31.346   6.697
 3191POPC   C3A43817   9.990  31.208   7.072
 3191POPC   C4A43818  10.106  31.432   7.431
 3191POPC   C1B43819   9.524  31.663   6.367
 3191POPC   C2B43820   9.398  31.689   6.777
 3191POPC   C3B43821   9.702  31.633   7.135
 3191POPC   C4B43822   9.613  31.500   7.549
 3192POPC   NC343823  25.816  16.100   4.956
 3192POPC   PO443824  26.029  15.748   5.315
 3192POPC   GL143825  25.973  15.751   5.783
 3192POPC   GL243826  25.736  15.492   5.781
 3192POPC   C1A43827  26.051  15.777   6.270
 3192POPC   D2A43828  26.046  15.922   6.742
 3192POPC   C3A43829  26.288  15.728   7.089
 3192POPC   C4A43830  26.676  15.888   7.324
 3192POPC   C1B43831  25.605  15.522   6.202
 3192POPC   C2B43832  25.662  15.627   6.620
 3192POPC   C3B43833  25.644  15.734   7.058
 3192POPC   C4B43834  25.752  15.613   7.486
 3193POPC   NC343835  22.532  11.912   5.408
 3193POPC   PO443836  23.085  11.661   5.271
 3193POPC   GL143837  22.951  11.900   5.696
 3193POPC   GL243838  22.684  11.784   5.865
 3193POPC   C1A43839  22.939  12.189   6.068
 3193POPC   D2A43840  23.160  12.282   6.444
 3193POPC   C3A43841  22.880  12.191   6.764
 3193POPC   C4A43842  22.938  12.252   7.173
 3193POPC   C1B43843  22.865  11.693   6.259
 3193POPC   C2B43844  22.894  11.536   6.687
 3193POPC   C3B43845  23.013  11.761   7.043
 3193POPC   C4B43846  22.942  11.853   7.473
 3194POPC   NC343847  11.542   9.778   5.055
 3194POPC   PO443848  11.491   9.482   5.382
 3194POPC   GL143849  11.487   9.668   5.827
 3194POPC   GL243850  11.334  10.005   5.858
 3194POPC   C1A43851  11.474   9.683   6.322
 3194POPC   D2A43852  11.334   9.482   6.733
 3194POPC   C3A43853  11.417   9.625   7.187
 3194POPC   C4A43854  11.531   9.952   7.514
 3194POPC   C1B43855  11.224  10.124   6.298
 3194POPC   C2B43856  11.079   9.969   6.707
 3194POPC   C3B43857  11.206  10.099   7.122
 3194POPC   C4B43858  11.150  10.336   7.518
 3195POPC   NC343859   6.911   9.982   5.372
 3195POPC   PO443860   6.366   9.716   5.534
 3195POPC   GL143861   6.730   9.709   5.785
 3195POPC   GL243862   6.852   9.346   5.822
 3195POPC   C1A43863   6.817   9.898   6.254
 3195POPC   D2A43864   6.808  10.118   6.659
 3195POPC   C3A43865   6.622   9.860   6.973
 3195POPC   C4A43866   6.775   9.820   7.365
 3195POPC   C1B43867   6.565   9.449   6.166
 3195POPC   C2B43868   6.479   9.586   6.557
 3195POPC   C3B43869   6.311   9.410   6.911
 3195POPC   C4B43870   6.382   9.527   7.309
 3196POPC   NC343871  21.620  23.433   5.337
 3196POPC   PO443872  21.122  23.900   5.405
 3196POPC   GL143873  21.304  23.980   5.779
 3196POPC   GL243874  21.338  23.620   5.771
 3196POPC   C1A43875  21.452  23.984   6.177
 3196POPC   D2A43876  21.572  23.748   6.494
 3196POPC   C3A43877  21.553  23.833   6.882
 3196POPC   C4A43878  21.857  23.624   7.052
 3196POPC   C1B43879  21.452  23.432   6.134
 3196POPC   C2B43880  21.489  23.261   6.560
 3196POPC   C3B43881  21.434  23.340   6.987
 3196POPC   C4B43882  21.241  23.197   7.351
 3197POPC   NC343883  14.299  24.284   5.650
 3197POPC   PO443884  14.573  24.857   5.466
 3197POPC   GL143885  14.432  24.724   5.882
 3197POPC   GL243886  14.061  24.748   5.829
 3197POPC   C1A43887  14.492  24.355   6.265
 3197POPC   D2A43888  14.273  24.379   6.695
 3197POPC   C3A43889  14.450  24.512   7.098
 3197POPC   C4A43890  14.595  24.219   7.447
 3197POPC   C1B43891  14.152  24.700   6.296
 3197POPC   C2B43892  14.103  24.875   6.709
 3197POPC   C3B43893  13.930  24.608   7.033
 3197POPC   C4B43894  13.929  24.296   7.334
 3198POPC   NC343895  12.832  21.366   5.202
 3198POPC   PO443896  13.450  21.209   5.369
 3198POPC   GL143897  13.047  21.152   5.626
 3198POPC   GL243898  12.904  21.466   5.735
 3198POPC   C1A43899  12.875  21.135   6.091
 3198POPC   D2A43900  12.986  21.386   6.481
 3198POPC   C3A43901  12.819  21.293   6.868
 3198POPC   C4A43902  12.958  21.061   7.218
 3198POPC   C1B43903  12.742  21.667   6.143
 3198POPC   C2B43904  12.687  21.865   6.575
 3198POPC   C3B43905  12.570  21.727   7.010
 3198POPC   C4B43906  12.651  21.444   7.349
 3199POPC   NC343907  21.064  41.727   5.451
 3199POPC   PO443908  20.506  41.321   5.483
 3199POPC   GL143909  20.473  41.460   5.891
 3199POPC   GL243910  20.706  41.728   5.832
 3199POPC   C1A43911  20.550  41.570   6.329
 3199POPC   D2A43912  20.440  41.767   6.749
 3199POPC   C3A43913  20.517  41.571   7.159
 3199POPC   C4A43914  20.693  41.399   7.582
 3199POPC   C1B43915  20.935  41.878   6.175
 3199POPC   C2B43916  20.872  42.006   6.594
 3199POPC   C3B43917  20.848  41.949   7.050
 3199POPC   C4B43918  20.912  41.849   7.513
 3200POPC   NC343919  19.019  31.684   5.405
 3200POPC   PO443920  19.744  31.817   5.575
 3200POPC   GL143921  19.337  31.579   5.817
 3200POPC   GL243922  18.901  31.520   5.856
 3200POPC   C1A43923  19.202  31.265   6.144
 3200POPC   D2A43924  19.109  31.372   6.556
 3200POPC   C3A43925  19.026  31.022   6.842
 3200POPC   C4A43926  19.215  30.998   7.245
 3200POPC   C1B43927  18.667  31.466   6.252
 3200POPC   C2B43928  18.622  31.392   6.692
 3200POPC   C3B43929  18.851  31.464   7.053
 3200POPC   C4B43930  18.537  31.496   7.378
 3201POPC   NC343931   7.081  11.535   5.203
 3201POPC   PO443932   6.514  11.248   5.300
 3201POPC   GL143933   6.661  11.492   5.660
 3201POPC   GL243934   6.981  11.491   5.717
 3201POPC   C1A43935   6.599  11.428   6.124
 3201POPC   D2A43936   6.542  11.055   6.421
 3201POPC   C3A43937   6.657  11.102   6.848
 3201POPC   C4A43938   6.738  11.091   7.289
 3201POPC   C1B43939   7.110  11.552   6.133
 3201POPC   C2B43940   6.933  11.499   6.561
 3201POPC   C3B43941   6.929  11.508   7.026
 3201POPC   C4B43942   7.118  11.446   7.415
 3202POPC   NC343943  10.973  44.715   5.198
 3202POPC   PO443944  11.517  44.420   5.495
 3202POPC   GL143945  11.205  44.520   5.864
 3202POPC   GL243946  11.028  44.848   5.731
 3202POPC   C1A43947  11.210  44.462   6.360
 3202POPC   D2A43948  11.448  44.705   6.712
 3202POPC   C3A43949  11.526  44.668   7.171
 3202POPC   C4A43950  11.541  44.819   7.598
 3202POPC   C1B43951  10.959   0.033   6.152
 3202POPC   C2B43952  10.955  44.877   6.596
 3202POPC   C3B43953  11.007  44.710   7.017
 3202POPC   C4B43954  10.745  44.871   7.353
 3203POPC   NC343955  31.702  11.209   5.473
 3203POPC   PO443956  31.110  11.333   5.384
 3203POPC   GL143957  31.308  11.436   5.768
 3203POPC   GL243958  31.060  11.636   5.900
 3203POPC   C1A43959  31.445  11.232   6.168
 3203POPC   D2A43960  31.608  11.150   6.578
 3203POPC   C3A43961  31.416  11.261   6.955
 3203POPC   C4A43962  31.439  11.488   7.337
 3203POPC   C1B43963  31.227  11.677   6.266
 3203POPC   C2B43964  31.470  11.648   6.607
 3203POPC   C3B43965  31.230  11.738   6.938
 3203POPC   C4B43966  31.075  11.867   7.288
 3204POPC   NC343967  29.706  32.050   5.513
 3204POPC   PO443968  30.092  32.588   5.434
 3204POPC   GL143969  30.064  32.564   5.850
 3204POPC   GL243970  29.707  32.537   5.856
 3204POPC   C1A43971  30.041  32.325   6.211
 3204POPC   D2A43972  30.058  32.033   6.517
 3204POPC   C3A43973  30.224  32.182   6.873
 3204POPC   C4A43974  30.086  32.137   7.255
 3204POPC   C1B43975  29.555  32.495   6.278
 3204POPC   C2B43976  29.807  32.492   6.666
 3204POPC   C3B43977  29.698  32.413   7.084
 3204POPC   C4B43978  29.578  32.124   7.427
 3205POPC   NC343979  30.341  22.886   5.388
 3205POPC   PO443980  30.926  22.678   5.349
 3205POPC   GL143981  30.676  22.666   5.771
 3205POPC   GL243982  30.458  22.931   5.906
 3205POPC   C1A43983  30.446  22.503   6.171
 3205POPC   D2A43984  30.328  22.408   6.604
 3205POPC   C3A43985  30.509  22.646   6.919
 3205POPC   C4A43986  30.361  22.993   7.130
 3205POPC   C1B43987  30.652  22.924   6.362
 3205POPC   C2B43988  30.659  23.169   6.760
 3205POPC   C3B43989  30.811  23.249   7.201
 3205POPC   C4B43990  31.009  23.117   7.608
 3206POPC   NC343991  29.232  38.628   5.209
 3206POPC   PO443992  28.750  38.174   5.218
 3206POPC   GL143993  29.022  38.270   5.579
 3206POPC   GL243994  28.806  38.183   5.817
 3206POPC   C1A43995  29.138  38.548   5.934
 3206POPC   D2A43996  29.057  38.451   6.388
 3206POPC   C3A43997  28.963  38.527   6.826
 3206POPC   C4A43998  29.289  38.500   7.122
 3206POPC   C1B43999  28.816  38.002   6.193
 3206POPC   C2B44000  28.713  38.127   6.606
 3206POPC   C3B44001  28.673  38.106   7.023
 3206POPC   C4B44002  28.954  38.111   7.326
 3207POPC   NC344003  17.668  15.684   4.931
 3207POPC   PO444004  17.155  15.856   5.402
 3207POPC   GL144005  17.283  15.847   5.821
 3207POPC   GL244006  16.965  16.004   5.915
 3207POPC   C1A44007  17.631  15.945   6.161
 3207POPC   D2A44008  17.932  15.966   6.555
 3207POPC   C3A44009  17.828  16.186   6.982
 3207POPC   C4A44010  17.742  16.215   7.456
 3207POPC   C1B44011  17.108  15.765   6.290
 3207POPC   C2B44012  17.487  15.638   6.538
 3207POPC   C3B44013  17.663  15.705   6.955
 3207POPC   C4B44014  17.379  15.931   7.228
 3208POPC   NC344015   3.175  43.408   5.373
 3208POPC   PO444016   3.791  43.074   5.523
 3208POPC   GL144017   3.420  43.127   5.767
 3208POPC   GL244018   3.328  42.782   5.756
 3208POPC   C1A44019   3.343  43.269   6.215
 3208POPC   D2A44020   3.284  43.031   6.631
 3208POPC   C3A44021   3.390  43.086   7.079
 3208POPC   C4A44022   3.502  43.329   7.462
 3208POPC   C1B44023   3.590  42.827   6.156
 3208POPC   C2B44024   3.745  42.764   6.580
 3208POPC   C3B44025   3.663  42.663   7.014
 3208POPC   C4B44026   3.856  42.975   7.309
 3209POPC   NC344027  28.519  44.355   5.461
 3209POPC   PO444028  28.758  43.681   5.429
 3209POPC   GL144029  28.583  43.851   5.792
 3209POPC   GL244030  28.293  43.971   5.766
 3209POPC   C1A44031  28.610  44.111   6.166
 3209POPC   D2A44032  28.469  44.239   6.575
 3209POPC   C3A44033  28.487  44.061   6.990
 3209POPC   C4A44034  28.202  43.984   7.348
 3209POPC   C1B44035  28.215  43.794   6.168
 3209POPC   C2B44036  28.100  43.879   6.591
 3209POPC   C3B44037  28.189  43.646   6.976
 3209POPC   C4B44038  28.110  43.467   7.388
 3210POPC   NC344039   5.437  37.997   5.481
 3210POPC   PO444040   6.090  37.909   5.194
 3210POPC   GL144041   5.846  37.710   5.614
 3210POPC   GL244042   5.997  37.397   5.836
 3210POPC   C1A44043   5.754  37.778   6.087
 3210POPC   D2A44044   5.805  37.770   6.572
 3210POPC   C3A44045   5.697  37.548   7.000
 3210POPC   C4A44046   5.523  37.716   7.438
 3210POPC   C1B44047   6.099  37.225   6.249
 3210POPC   C2B44048   6.210  37.408   6.659
 3210POPC   C3B44049   6.153  37.787   6.947
 3210POPC   C4B44050   6.027  37.797   7.331
 3211POPC   NC344051   7.087  21.909   5.461
 3211POPC   PO444052   7.660  22.296   5.460
 3211POPC   GL144053   7.524  22.380   5.860
 3211POPC   GL244054   7.231  22.206   5.861
 3211POPC   C1A44055   7.625  22.306   6.259
 3211POPC   D2A44056   7.877  22.148   6.594
 3211POPC   C3A44057   7.718  22.093   7.017
 3211POPC   C4A44058   7.513  21.714   7.099
 3211POPC   C1B44059   7.191  22.039   6.275
 3211POPC   C2B44060   7.305  22.248   6.672
 3211POPC   C3B44061   7.200  22.128   7.090
 3211POPC   C4B44062   7.011  22.292   7.438
 3212POPC   NC344063  10.658  38.191   5.316
 3212POPC   PO444064  10.176  37.851   5.473
 3212POPC   GL144065  10.507  37.861   5.741
 3212POPC   GL244066  10.472  37.534   5.843
 3212POPC   C1A44067  10.532  37.910   6.186
 3212POPC   D2A44068  10.405  37.834   6.607
 3212POPC   C3A44069  10.690  37.950   6.937
 3212POPC   C4A44070  10.379  37.812   7.186
 3212POPC   C1B44071  10.725  37.411   6.192
 3212POPC   C2B44072  10.698  37.252   6.587
 3212POPC   C3B44073  10.610  37.417   6.972
 3212POPC   C4B44074  10.548  37.402   7.419
 3213POPC   NC344075  20.015  29.374   5.485
 3213POPC   PO444076  19.842  28.696   5.651
 3213POPC   GL144077  19.934  29.018   5.870
 3213POPC   GL244078  19.614  29.174   5.777
 3213POPC   C1A44079  19.999  28.984   6.317
 3213POPC   D2A44080  19.760  28.918   6.698
 3213POPC   C3A44081  19.960  28.832   7.106
 3213POPC   C4A44082  19.946  28.807   7.577
 3213POPC   C1B44083  19.643  29.344   6.194
 3213POPC   C2B44084  19.875  29.431   6.580
 3213POPC   C3B44085  19.820  29.342   6.997
 3213POPC   C4B44086  20.016  29.261   7.381
 3214POPC   NC344087   5.212   8.407   4.986
 3214POPC   PO444088   5.346   7.819   5.373
 3214POPC   GL144089   5.095   8.099   5.690
 3214POPC   GL244090   4.704   8.034   5.709
 3214POPC   C1A44091   5.169   8.143   6.164
 3214POPC   D2A44092   5.447   8.102   6.553
 3214POPC   C3A44093   5.285   7.830   6.883
 3214POPC   C4A44094   5.066   7.940   7.242
 3214POPC   C1B44095   4.658   7.922   6.150
 3214POPC   C2B44096   4.889   7.894   6.535
 3214POPC   C3B44097   4.943   8.225   6.812
 3214POPC   C4B44098   4.851   8.399   7.212
 3215POPC   NC344099  14.875  11.436   5.447
 3215POPC   PO444100  14.235  11.132   5.319
 3215POPC   GL144101  14.389  11.447   5.662
 3215POPC   GL244102  14.618  11.220   5.859
 3215POPC   C1A44103  14.375  11.574   6.121
 3215POPC   D2A44104  14.464  11.385   6.531
 3215POPC   C3A44105  14.175  11.380   6.885
 3215POPC   C4A44106  14.361  11.591   7.214
 3215POPC   C1B44107  14.621  10.964   6.265
 3215POPC   C2B44108  14.481  10.916   6.735
 3215POPC   C3B44109  14.474  11.042   7.185
 3215POPC   C4B44110  14.679  10.900   7.616
 3216POPC   NC344111  44.560  42.839   5.497
 3216POPC   PO444112  44.954  43.412   5.325
 3216POPC   GL144113  44.788  43.247   5.725
 3216POPC   GL244114  44.927  42.921   5.829
 3216POPC   C1A44115  44.599  43.174   6.148
 3216POPC   D2A44116  44.680  43.366   6.554
 3216POPC   C3A44117  44.543  43.162   6.942
 3216POPC   C4A44118  44.674  43.363   7.279
 3216POPC   C1B44119   0.016  42.867   6.226
 3216POPC   C2B44120  44.799  42.857   6.623
 3216POPC   C3B44121  44.898  42.804   7.079
 3216POPC   C4B44122  44.683  42.903   7.476
 3217POPC   NC344123  41.424   6.937   5.549
 3217POPC   PO444124  41.536   7.581   5.270
 3217POPC   GL144125  41.476   7.720   5.697
 3217POPC   GL244126  41.306   7.393   5.775
 3217POPC   C1A44127  41.619   7.625   6.145
 3217POPC   D2A44128  41.887   7.494   6.499
 3217POPC   C3A44129  41.770   7.608   6.934
 3217POPC   C4A44130  41.734   7.385   7.317
 3217POPC   C1B44131  41.241   7.253   6.214
 3217POPC   C2B44132  41.381   7.439   6.608
 3217POPC   C3B44133  41.315   7.398   7.045
 3217POPC   C4B44134  41.199   7.320   7.479
 3218POPC   NC344135  37.051  35.514   5.285
 3218POPC   PO444136  36.496  35.649   5.618
 3218POPC   GL144137  36.875  35.528   5.795
 3218POPC   GL244138  36.847  35.171   5.749
 3218POPC   C1A44139  36.997  35.382   6.211
 3218POPC   D2A44140  36.873  35.515   6.593
 3218POPC   C3A44141  36.990  35.284   6.943
 3218POPC   C4A44142  36.975  35.537   7.282
 3218POPC   C1B44143  36.658  34.971   6.158
 3218POPC   C2B44144  36.578  35.107   6.584
 3218POPC   C3B44145  36.579  34.959   6.972
 3218POPC   C4B44146  36.941  34.878   7.259
 3219POPC   NC344147  11.457  29.823   5.455
 3219POPC   PO444148  10.867  30.183   5.373
 3219POPC   GL144149  11.171  30.143   5.771
 3219POPC   GL244150  11.186  29.811   5.895
 3219POPC   C1A44151  11.444  30.120   6.180
 3219POPC   D2A44152  11.426  29.781   6.521
 3219POPC   C3A44153  11.409  29.928   6.956
 3219POPC   C4A44154  11.112  30.191   7.156
 3219POPC   C1B44155  10.979  29.909   6.286
 3219POPC   C2B44156  10.950  29.891   6.746
 3219POPC   C3B44157  10.948  29.713   7.165
 3219POPC   C4B44158  10.963  29.744   7.634
 3220POPC   NC344159  34.252  39.337   5.392
 3220POPC   PO444160  34.987  39.489   5.250
 3220POPC   GL144161  34.733  39.400   5.623
 3220POPC   GL244162  34.674  39.038   5.654
 3220POPC   C1A44163  34.847  39.358   6.065
 3220POPC   D2A44164  34.975  39.425   6.495
 3220POPC   C3A44165  34.724  39.561   6.805
 3220POPC   C4A44166  34.524  39.566   7.182
 3220POPC   C1B44167  34.593  38.929   6.093
 3220POPC   C2B44168  34.541  39.141   6.537
 3220POPC   C3B44169  34.421  39.054   6.974
 3220POPC   C4B44170  34.622  38.730   7.234
 3221POPC   NC344171  19.948  33.185   5.560
 3221POPC   PO444172  19.533  32.756   5.303
 3221POPC   GL144173  19.709  32.741   5.757
 3221POPC   GL244174  20.086  32.749   5.785
 3221POPC   C1A44175  19.787  33.025   6.160
 3221POPC   D2A44176  19.687  33.373   6.474
 3221POPC   C3A44177  19.792  33.223   6.885
 3221POPC   C4A44178  19.630  32.932   7.179
 3221POPC   C1B44179  20.193  32.703   6.217
 3221POPC   C2B44180  19.945  32.770   6.609
 3221POPC   C3B44181  20.099  32.805   7.027
 3221POPC   C4B44182  20.097  33.143   7.298
 3222POPC   NC344183  38.290  27.551   5.316
 3222POPC   PO444184  38.940  27.439   5.236
 3222POPC   GL144185  38.776  27.606   5.667
 3222POPC   GL244186  38.410  27.532   5.800
 3222POPC   C1A44187  38.706  27.873   6.047
 3222POPC   D2A44188  38.474  27.820   6.447
 3222POPC   C3A44189  38.688  27.765   6.847
 3222POPC   C4A44190  38.848  27.676   7.263
 3222POPC   C1B44191  38.576  27.384   6.173
 3222POPC   C2B44192  38.605  27.288   6.622
 3222POPC   C3B44193  38.554  27.318   7.062
 3222POPC   C4B44194  38.181  27.126   7.252
 3223POPC   NC344195  16.293  16.952   5.259
 3223POPC   PO444196  16.102  16.416   5.566
 3223POPC   GL144197  16.112  16.583   5.937
 3223POPC   GL244198  16.246  16.902   5.789
 3223POPC   C1A44199  15.841  16.552   6.307
 3223POPC   D2A44200  15.609  16.690   6.675
 3223POPC   C3A44201  15.798  16.772   7.043
 3223POPC   C4A44202  16.127  16.507   7.197
 3223POPC   C1B44203  16.079  16.995   6.217
 3223POPC   C2B44204  16.083  16.901   6.637
 3223POPC   C3B44205  16.242  16.999   7.062
 3223POPC   C4B44206  16.066  17.060   7.461
 3224POPC   NC344207   0.592  29.572   5.151
 3224POPC   PO444208   0.376  30.151   5.408
 3224POPC   GL144209   0.511  29.911   5.788
 3224POPC   GL244210   0.243  29.780   5.974
 3224POPC   C1A44211   0.608  29.970   6.257
 3224POPC   D2A44212   0.773  29.853   6.636
 3224POPC   C3A44213   0.571  30.086   6.932
 3224POPC   C4A44214   0.636  29.920   7.317
 3224POPC   C1B44215   0.101  30.062   6.251
 3224POPC   C2B44216   0.174  29.924   6.646
 3224POPC   C3B44217   0.157  29.828   7.065
 3224POPC   C4B44218   0.109  30.206   7.202
 3225POPC   NC344219  42.845   2.282   5.461
 3225POPC   PO444220  42.238   1.910   5.553
 3225POPC   GL144221  42.577   2.015   5.837
 3225POPC   GL244222  42.656   1.688   5.924
 3225POPC   C1A44223  42.628   2.036   6.300
 3225POPC   D2A44224  42.391   1.967   6.672
 3225POPC   C3A44225  42.468   2.005   7.102
 3225POPC   C4A44226  42.136   2.208   7.358
 3225POPC   C1B44227  42.260   1.687   6.198
 3225POPC   C2B44228  42.053   1.591   6.609
 3225POPC   C3B44229  42.042   1.752   7.061
 3225POPC   C4B44230  41.899   1.768   7.509
 3226POPC   NC344231   1.058  19.429   5.456
 3226POPC   PO444232   1.569  18.937   5.349
 3226POPC   GL144233   1.386  18.839   5.781
 3226POPC   GL244234   1.245  19.113   5.901
 3226POPC   C1A44235   1.237  18.762   6.225
 3226POPC   D2A44236   1.422  18.852   6.600
 3226POPC   C3A44237   1.253  18.742   6.992
 3226POPC   C4A44238   1.436  18.639   7.395
 3226POPC   C1B44239   0.959  19.315   6.154
 3226POPC   C2B44240   0.992  19.177   6.546
 3226POPC   C3B44241   0.822  19.073   6.914
 3226POPC   C4B44242   1.025  19.118   7.278
 3227POPC   NC344243  33.511   5.439   5.690
 3227POPC   PO444244  33.827   5.896   5.276
 3227POPC   GL144245  33.734   5.978   5.779
 3227POPC   GL244246  33.716   6.347   5.887
 3227POPC   C1A44247  33.729   5.716   6.245
 3227POPC   D2A44248  33.548   5.670   6.665
 3227POPC   C3A44249  33.806   5.802   6.974
 3227POPC   C4A44250  34.072   5.615   7.257
 3227POPC   C1B44251  33.980   6.157   6.187
 3227POPC   C2B44252  33.928   6.098   6.582
 3227POPC   C3B44253  34.077   6.285   6.939
 3227POPC   C4B44254  34.010   6.139   7.334
 3228POPC   NC344255  18.817   5.068   5.435
 3228POPC   PO444256  19.400   4.789   5.495
 3228POPC   GL144257  19.047   4.875   5.844
 3228POPC   GL244258  19.020   5.262   5.891
 3228POPC   C1A44259  18.768   4.991   6.231
 3228POPC   D2A44260  18.890   5.225   6.606
 3228POPC   C3A44261  18.744   5.034   6.971
 3228POPC   C4A44262  18.947   5.156   7.334
 3228POPC   C1B44263  19.260   5.066   6.278
 3228POPC   C2B44264  19.343   4.982   6.741
 3228POPC   C3B44265  19.344   4.886   7.184
 3228POPC   C4B44266  19.291   4.890   7.639
 3229POPC   NC344267   5.037  10.134   5.148
 3229POPC   PO444268   5.017  10.650   5.495
 3229POPC   GL144269   4.926  10.350   5.822
 3229POPC   GL244270   5.261  10.380   5.969
 3229POPC   C1A44271   4.880  10.167   6.259
 3229POPC   D2A44272   5.077  10.420   6.590
 3229POPC   C3A44273   4.870  10.470   6.995
 3229POPC   C4A44274   5.040  10.451   7.385
 3229POPC   C1B44275   5.414  10.048   6.216
 3229POPC   C2B44276   5.303   9.942   6.597
 3229POPC   C3B44277   5.323  10.178   6.984
 3229POPC   C4B44278   5.385  10.070   7.402
 3230POPC   NC344279   2.556   8.844   5.358
 3230POPC   PO444280   3.225   8.898   5.206
 3230POPC   GL144281   2.970   8.882   5.670
 3230POPC   GL244282   2.656   9.111   5.771
 3230POPC   C1A44283   2.877   8.809   6.122
 3230POPC   D2A44284   3.103   8.894   6.521
 3230POPC   C3A44285   2.910   8.827   6.904
 3230POPC   C4A44286   2.722   9.030   7.199
 3230POPC   C1B44287   2.450   9.088   6.180
 3230POPC   C2B44288   2.515   9.021   6.631
 3230POPC   C3B44289   2.306   9.215   6.990
 3230POPC   C4B44290   2.398   9.361   7.431
 3231POPC   NC344291  21.947  26.558   5.423
 3231POPC   PO444292  22.417  26.094   5.108
 3231POPC   GL144293  22.231  26.078   5.585
 3231POPC   GL244294  22.395  26.271   5.873
 3231POPC   C1A44295  22.201  25.818   5.998
 3231POPC   D2A44296  22.154  25.714   6.456
 3231POPC   C3A44297  22.302  26.004   6.792
 3231POPC   C4A44298  22.254  26.016   7.229
 3231POPC   C1B44299  22.007  26.316   6.094
 3231POPC   C2B44300  21.947  26.256   6.527
 3231POPC   C3B44301  21.901  26.277   6.972
 3231POPC   C4B44302  21.995  26.461   7.413
 3232POPC   NC344303  14.689   4.836   5.323
 3232POPC   PO444304  14.253   4.480   5.488
 3232POPC   GL144305  14.380   4.828   5.742
 3232POPC   GL244306  14.730   4.855   5.861
 3232POPC   C1A44307  14.296   4.899   6.178
 3232POPC   D2A44308  14.491   4.898   6.587
 3232POPC   C3A44309  14.280   5.042   6.976
 3232POPC   C4A44310  14.068   4.921   7.369
 3232POPC   C1B44311  14.722   5.196   6.214
 3232POPC   C2B44312  14.586   5.409   6.627
 3232POPC   C3B44313  14.648   5.426   7.083
 3232POPC   C4B44314  14.518   5.178   7.422
 3233POPC   NC344315   4.851   3.804   5.562
 3233POPC   PO444316   4.956   3.154   5.417
 3233POPC   GL144317   5.132   3.391   5.773
 3233POPC   GL244318   4.793   3.351   5.894
 3233POPC   C1A44319   5.180   3.389   6.251
 3233POPC   D2A44320   4.902   3.359   6.663
 3233POPC   C3A44321   5.107   3.367   7.106
 3233POPC   C4A44322   5.358   3.476   7.513
 3233POPC   C1B44323   4.727   3.650   6.233
 3233POPC   C2B44324   4.566   3.755   6.639
 3233POPC   C3B44325   4.695   3.920   7.025
 3233POPC   C4B44326   4.638   3.747   7.432
 3234POPC   NC344327  10.969  21.206   5.555
 3234POPC   PO444328  11.595  21.462   5.384
 3234POPC   GL144329  11.419  21.387   5.782
 3234POPC   GL244330  11.402  21.735   5.870
 3234POPC   C1A44331  11.196  21.372   6.183
 3234POPC   D2A44332  11.442  21.323   6.545
 3234POPC   C3A44333  11.262  21.182   6.914
 3234POPC   C4A44334  11.118  21.370   7.279
 3234POPC   C1B44335  11.717  21.877   6.196
 3234POPC   C2B44336  11.818  21.684   6.608
 3234POPC   C3B44337  11.612  21.687   7.019
 3234POPC   C4B44338  11.720  21.715   7.499
 3235POPC   NC344339   2.097   4.645   5.159
 3235POPC   PO444340   1.665   4.224   5.445
 3235POPC   GL144341   1.758   4.212   5.870
 3235POPC   GL244342   2.117   4.129   5.889
 3235POPC   C1A44343   1.832   4.322   6.288
 3235POPC   D2A44344   2.025   4.349   6.660
 3235POPC   C3A44345   1.968   4.590   6.988
 3235POPC   C4A44346   1.820   4.403   7.359
 3235POPC   C1B44347   2.372   4.237   6.281
 3235POPC   C2B44348   2.514   4.258   6.742
 3235POPC   C3B44349   2.226   4.163   7.125
 3235POPC   C4B44350   2.266   4.330   7.587
 3236POPC   NC344351   9.404  15.666   5.626
 3236POPC   PO444352   9.787  15.154   5.555
 3236POPC   GL144353   9.737  15.089   5.964
 3236POPC   GL244354   9.614  14.746   5.915
 3236POPC   C1A44355   9.720  15.488   6.224
 3236POPC   D2A44356   9.845  15.728   6.597
 3236POPC   C3A44357   9.952  15.379   6.875
 3236POPC   C4A44358   9.770  15.263   7.253
 3236POPC   C1B44359   9.365  14.812   6.288
 3236POPC   C2B44360   9.448  14.989   6.723
 3236POPC   C3B44361   9.605  14.763   7.094
 3236POPC   C4B44362   9.848  14.822   7.475
 3237POPC   NC344363  27.697  35.647   5.308
 3237POPC   PO444364  27.890  35.103   5.556
 3237POPC   GL144365  27.755  35.421   5.858
 3237POPC   GL244366  27.519  35.694   5.806
 3237POPC   C1A44367  27.828  35.638   6.263
 3237POPC   D2A44368  27.624  35.720   6.669
 3237POPC   C3A44369  27.575  35.349   6.990
 3237POPC   C4A44370  27.654  35.302   7.461
 3237POPC   C1B44371  27.228  35.925   6.105
 3237POPC   C2B44372  27.109  35.880   6.549
 3237POPC   C3B44373  27.218  35.793   6.972
 3237POPC   C4B44374  27.214  35.522   7.346
 3238POPC   NC344375  32.015  13.273   5.492
 3238POPC   PO444376  32.264  12.580   5.450
 3238POPC   GL144377  32.268  12.867   5.795
 3238POPC   GL244378  32.495  13.153   5.696
 3238POPC   C1A44379  32.188  12.791   6.251
 3238POPC   D2A44380  32.026  12.931   6.652
 3238POPC   C3A44381  32.209  12.815   7.033
 3238POPC   C4A44382  32.064  12.872   7.473
 3238POPC   C1B44383  32.614  13.073   6.126
 3238POPC   C2B44384  32.519  13.159   6.561
 3238POPC   C3B44385  32.680  12.996   6.942
 3238POPC   C4B44386  32.577  12.952   7.385
 3239POPC   NC344387  27.417  11.548   5.403
 3239POPC   PO444388  28.100  11.373   5.425
 3239POPC   GL144389  27.919  11.160   5.775
 3239POPC   GL244390  27.542  11.138   5.721
 3239POPC   C1A44391  27.827  11.332   6.175
 3239POPC   D2A44392  27.585  11.346   6.560
 3239POPC   C3A44393  27.788  11.283   6.948
 3239POPC   C4A44394  27.971  11.601   7.194
 3239POPC   C1B44395  27.327  11.232   6.107
 3239POPC   C2B44396  27.079  11.318   6.471
 3239POPC   C3B44397  27.183  11.379   6.903
 3239POPC   C4B44398  27.376  11.234   7.251
 3240POPC   NC344399  39.400   1.166   5.363
 3240POPC   PO444400  38.992   1.551   5.315
 3240POPC   GL144401  39.129   1.389   5.756
 3240POPC   GL244402  39.180   1.027   5.827
 3240POPC   C1A44403  39.385   1.345   6.179
 3240POPC   D2A44404  39.410   1.147   6.628
 3240POPC   C3A44405  39.472   1.358   7.060
 3240POPC   C4A44406  39.330   1.397   7.506
 3240POPC   C1B44407  39.010   1.000   6.281
 3240POPC   C2B44408  38.924   0.966   6.750
 3240POPC   C3B44409  39.058   1.094   7.160
 3240POPC   C4B44410  39.283   0.906   7.472
 3241POPC   NC344411  13.173  14.274   5.592
 3241POPC   PO444412  13.724  14.394   5.239
 3241POPC   GL144413  13.684  14.434   5.685
 3241POPC   GL244414  13.547  14.730   5.790
 3241POPC   C1A44415  13.583  14.358   6.142
 3241POPC   D2A44416  13.474  14.546   6.540
 3241POPC   C3A44417  13.343  14.329   6.957
 3241POPC   C4A44418  13.640  14.053   7.204
 3241POPC   C1B44419  13.694  14.920   6.130
 3241POPC   C2B44420  13.619  15.053   6.516
 3241POPC   C3B44421  13.569  14.862   6.928
 3241POPC   C4B44422  13.728  14.581   7.202
 3242POPC   NC344423  23.430  40.977   5.366
 3242POPC   PO444424  22.807  40.953   5.438
 3242POPC   GL144425  23.086  41.146   5.721
 3242POPC   GL244426  22.997  40.865   5.928
 3242POPC   C1A44427  23.391  41.139   6.085
 3242POPC   D2A44428  23.189  40.929   6.424
 3242POPC   C3A44429  23.216  40.963   6.911
 3242POPC   C4A44430  23.023  40.743   7.290
 3242POPC   C1B44431  22.946  40.518   6.213
 3242POPC   C2B44432  22.677  40.404   6.550
 3242POPC   C3B44433  22.747  40.453   6.987
 3242POPC   C4B44434  22.669  40.337   7.427
 3243POPC   NC344435   2.809  33.312   5.468
 3243POPC   PO444436   2.439  32.851   5.510
 3243POPC   GL144437   2.633  33.007   5.876
 3243POPC   GL244438   2.751  33.340   5.975
 3243POPC   C1A44439   2.580  33.000   6.309
 3243POPC   D2A44440   2.620  33.173   6.695
 3243POPC   C3A44441   2.794  32.947   6.943
 3243POPC   C4A44442   2.712  32.968   7.323
 3243POPC   C1B44443   3.062  33.273   6.295
 3243POPC   C2B44444   3.219  33.269   6.741
 3243POPC   C3B44445   3.172  33.199   7.206
 3243POPC   C4B44446   3.071  33.114   7.654
 3244POPC   NC344447   4.809  22.430   5.371
 3244POPC   PO444448   5.154  21.856   5.329
 3244POPC   GL144449   5.034  22.035   5.723
 3244POPC   GL244450   5.138  22.401   5.764
 3244POPC   C1A44451   5.057  22.117   6.162
 3244POPC   D2A44452   5.379  22.252   6.445
 3244POPC   C3A44453   5.302  22.161   6.887
 3244POPC   C4A44454   5.061  22.125   7.268
 3244POPC   C1B44455   5.052  22.609   6.184
 3244POPC   C2B44456   4.989  22.518   6.646
 3244POPC   C3B44457   5.123  22.632   7.071
 3244POPC   C4B44458   5.023  22.574   7.503
 3245POPC   NC344459  16.667  22.665   5.144
 3245POPC   PO444460  16.888  23.107   5.386
 3245POPC   GL144461  16.862  23.015   5.828
 3245POPC   GL244462  16.514  23.004   5.925
 3245POPC   C1A44463  16.885  22.805   6.240
 3245POPC   D2A44464  16.707  22.940   6.648
 3245POPC   C3A44465  16.955  22.870   7.019
 3245POPC   C4A44466  17.025  22.729   7.449
 3245POPC   C1B44467  16.382  22.729   6.279
 3245POPC   C2B44468  16.450  22.475   6.647
 3245POPC   C3B44469  16.519  22.613   7.082
 3245POPC   C4B44470  16.344  22.858   7.443
 3246POPC   NC344471  41.054   7.519   5.310
 3246POPC   PO444472  40.498   7.143   5.504
 3246POPC   GL144473  40.677   7.521   5.763
 3246POPC   GL244474  40.969   7.772   5.804
 3246POPC   C1A44475  40.566   7.652   6.196
 3246POPC   D2A44476  40.272   7.629   6.556
 3246POPC   C3A44477  40.436   7.619   6.975
 3246POPC   C4A44478  40.520   7.984   7.220
 3246POPC   C1B44479  41.072   7.748   6.278
 3246POPC   C2B44480  40.861   7.443   6.589
 3246POPC   C3B44481  40.824   7.306   7.021
 3246POPC   C4B44482  40.920   7.671   7.242
 3247POPC   NC344483  41.719  35.919   5.106
 3247POPC   PO444484  41.337  36.446   5.414
 3247POPC   GL144485  41.543  36.244   5.785
 3247POPC   GL244486  41.738  35.943   5.672
 3247POPC   C1A44487  41.556  36.356   6.233
 3247POPC   D2A44488  41.420  36.622   6.566
 3247POPC   C3A44489  41.320  36.381   6.913
 3247POPC   C4A44490  41.609  36.102   7.131
 3247POPC   C1B44491  41.791  35.910   6.150
 3247POPC   C2B44492  41.603  35.926   6.608
 3247POPC   C3B44493  41.625  35.623   6.996
 3247POPC   C4B44494  41.942  35.758   7.334
 3248POPC   NC344495  19.328   9.607   5.148
 3248POPC   PO444496  18.849   9.147   5.406
 3248POPC   GL144497  19.097   9.151   5.798
 3248POPC   GL244498  19.442   9.257   5.708
 3248POPC   C1A44499  19.101   8.905   6.186
 3248POPC   D2A44500  18.978   8.751   6.568
 3248POPC   C3A44501  19.125   8.897   6.984
 3248POPC   C4A44502  19.091   9.181   7.311
 3248POPC   C1B44503  19.394   9.326   6.180
 3248POPC   C2B44504  19.264   9.216   6.617
 3248POPC   C3B44505  19.506   9.267   7.039
 3248POPC   C4B44506  19.509   9.269   7.563
 3249POPC   NC344507  12.455  20.464   5.427
 3249POPC   PO444508  11.833  20.520   5.147
 3249POPC   GL144509  12.024  20.705   5.575
 3249POPC   GL244510  11.875  20.455   5.770
 3249POPC   C1A44511  12.055  20.848   6.053
 3249POPC   D2A44512  12.222  20.719   6.485
 3249POPC   C3A44513  12.055  20.739   6.870
 3249POPC   C4A44514  12.008  20.896   7.260
 3249POPC   C1B44515  11.944  20.347   6.207
 3249POPC   C2B44516  12.198  20.158   6.538
 3249POPC   C3B44517  12.479  20.357   6.846
 3249POPC   C4B44518  12.342  20.464   7.260
 3250POPC   NC344519   8.711  11.293   5.202
 3250POPC   PO444520   8.207  11.772   5.405
 3250POPC   GL144521   8.159  11.418   5.750
 3250POPC   GL244522   7.928  11.121   5.653
 3250POPC   C1A44523   8.277  11.239   6.172
 3250POPC   D2A44524   8.318  11.435   6.583
 3250POPC   C3A44525   8.350  11.244   7.009
 3250POPC   C4A44526   8.450  11.439   7.394
 3250POPC   C1B44527   7.786  11.110   6.096
 3250POPC   C2B44528   7.825  11.341   6.460
 3250POPC   C3B44529   7.870  11.372   6.859
 3250POPC   C4B44530   7.942  11.494   7.244
 3251POPC   NC344531   0.947  37.917   5.404
 3251POPC   PO444532   1.488  37.493   5.440
 3251POPC   GL144533   1.328  37.539   5.864
 3251POPC   GL244534   1.287  37.877   5.939
 3251POPC   C1A44535   1.109  37.465   6.242
 3251POPC   D2A44536   1.114  37.746   6.601
 3251POPC   C3A44537   1.171  37.594   7.015
 3251POPC   C4A44538   0.957  37.353   7.324
 3251POPC   C1B44539   1.569  37.749   6.289
 3251POPC   C2B44540   1.634  37.732   6.743
 3251POPC   C3B44541   1.448  38.029   7.036
 3251POPC   C4B44542   1.001  38.131   7.173
 3252POPC   NC344543  40.789  39.345   5.435
 3252POPC   PO444544  40.626  38.748   5.384
 3252POPC   GL144545  40.777  38.958   5.787
 3252POPC   GL244546  40.833  39.333   5.914
 3252POPC   C1A44547  40.972  38.946   6.190
 3252POPC   D2A44548  40.736  39.081   6.542
 3252POPC   C3A44549  40.955  38.976   6.918
 3252POPC   C4A44550  41.062  39.075   7.321
 3252POPC   C1B44551  40.897  39.583   6.237
 3252POPC   C2B44552  40.677  39.575   6.602
 3252POPC   C3B44553  40.871  39.483   6.952
 3252POPC   C4B44554  40.619  39.304   7.235
 3253POPC   NC344555  42.304  31.295   5.521
 3253POPC   PO444556  42.699  31.816   5.567
 3253POPC   GL144557  42.304  31.692   5.848
 3253POPC   GL244558  42.352  31.340   6.022
 3253POPC   C1A44559  42.057  31.719   6.258
 3253POPC   D2A44560  42.222  31.884   6.664
 3253POPC   C3A44561  42.339  31.522   6.927
 3253POPC   C4A44562  42.155  31.397   7.295
 3253POPC   C1B44563  42.365  30.949   6.291
 3253POPC   C2B44564  42.651  30.853   6.630
 3253POPC   C3B44565  42.825  31.104   7.000
 3253POPC   C4B44566  42.619  31.197   7.396
 3254POPC   NC344567  20.369   7.768   5.447
 3254POPC   PO444568  20.191   7.118   5.462
 3254POPC   GL144569  20.466   7.294   5.799
 3254POPC   GL244570  20.671   7.595   5.842
 3254POPC   C1A44571  20.349   7.468   6.203
 3254POPC   D2A44572  20.317   7.680   6.594
 3254POPC   C3A44573  20.194   7.438   6.931
 3254POPC   C4A44574  20.398   7.311   7.346
 3254POPC   C1B44575  20.836   7.485   6.301
 3254POPC   C2B44576  20.697   7.364   6.766
 3254POPC   C3B44577  20.868   7.421   7.216
 3254POPC   C4B44578  21.060   7.623   7.592
 3255POPC   NC344579  26.438  11.382   5.312
 3255POPC   PO444580  27.125  11.165   5.346
 3255POPC   GL144581  27.015  11.341   5.722
 3255POPC   GL244582  26.896  11.627   5.553
 3255POPC   C1A44583  26.784  11.151   6.085
 3255POPC   D2A44584  26.832  10.882   6.465
 3255POPC   C3A44585  26.722  11.164   6.819
 3255POPC   C4A44586  26.853  11.108   7.232
 3255POPC   C1B44587  26.650  11.641   5.955
 3255POPC   C2B44588  26.719  11.709   6.417
 3255POPC   C3B44589  26.502  11.673   6.816
 3255POPC   C4B44590  26.638  11.571   7.210
 3256POPC   NC344591  23.357  10.493   5.449
 3256POPC   PO444592  22.750  10.415   5.629
 3256POPC   GL144593  22.716  10.610   5.972
 3256POPC   GL244594  22.931  10.827   5.906
 3256POPC   C1A44595  22.812  10.671   6.394
 3256POPC   D2A44596  22.548  10.780   6.724
 3256POPC   C3A44597  22.695  10.665   7.106
 3256POPC   C4A44598  22.794  10.274   7.260
 3256POPC   C1B44599  23.187  10.437   6.097
 3256POPC   C2B44600  23.223  10.342   6.512
 3256POPC   C3B44601  23.141  10.574   6.866
 3256POPC   C4B44602  23.212  10.606   7.284
 3257POPC   NC344603  19.540  38.610   4.940
 3257POPC   PO444604  19.833  38.392   5.481
 3257POPC   GL144605  19.707  38.637   5.829
 3257POPC   GL244606  19.869  38.370   6.006
 3257POPC   C1A44607  19.762  38.828   6.237
 3257POPC   D2A44608  19.807  38.560   6.605
 3257POPC   C3A44609  19.919  38.428   7.044
 3257POPC   C4A44610  20.002  38.327   7.499
 3257POPC   C1B44611  19.477  38.399   6.225
 3257POPC   C2B44612  19.291  38.674   6.535
 3257POPC   C3B44613  19.418  38.547   6.942
 3257POPC   C4B44614  19.542  38.512   7.387
 3258POPC   NC344615  35.304  30.260   5.444
 3258POPC   PO444616  35.732  29.791   5.518
 3258POPC   GL144617  35.289  29.751   5.767
 3258POPC   GL244618  35.143  30.078   5.897
 3258POPC   C1A44619  35.161  29.693   6.242
 3258POPC   D2A44620  35.250  29.975   6.645
 3258POPC   C3A44621  35.395  29.845   7.088
 3258POPC   C4A44622  35.123  29.631   7.393
 3258POPC   C1B44623  34.909  30.140   6.268
 3258POPC   C2B44624  34.799  30.254   6.697
 3258POPC   C3B44625  34.919  30.022   7.065
 3258POPC   C4B44626  35.080  30.154   7.489
 3259POPC   NC344627  32.496  20.106   5.411
 3259POPC   PO444628  32.080  19.597   5.375
 3259POPC   GL144629  32.121  19.624   5.812
 3259POPC   GL244630  32.470  19.718   5.797
 3259POPC   C1A44631  32.015  19.855   6.210
 3259POPC   D2A44632  32.196  19.770   6.604
 3259POPC   C3A44633  32.002  19.808   6.978
 3259POPC   C4A44634  32.147  19.715   7.375
 3259POPC   C1B44635  32.517  19.829   6.201
 3259POPC   C2B44636  32.621  20.062   6.592
 3259POPC   C3B44637  32.502  19.978   7.030
 3259POPC   C4B44638  32.811  20.145   7.271
 3260POPC   NC344639   0.658  43.910   5.427
 3260POPC   PO444640   0.178  44.291   5.376
 3260POPC   GL144641   0.318  44.088   5.790
 3260POPC   GL244642   0.689  44.124   5.898
 3260POPC   C1A44643   0.334  43.857   6.215
 3260POPC   D2A44644   0.354  43.958   6.670
 3260POPC   C3A44645   0.183  43.795   7.040
 3260POPC   C4A44646   0.180  44.137   7.359
 3260POPC   C1B44647   0.844  43.770   6.169
 3260POPC   C2B44648   0.737  43.623   6.574
 3260POPC   C3B44649   0.749  43.801   6.973
 3260POPC   C4B44650   0.583  43.721   7.354
 3261POPC   NC344651  29.299  35.238   5.519
 3261POPC   PO444652  29.239  34.535   5.490
 3261POPC   GL144653  29.110  34.460   5.884
 3261POPC   GL244654  29.375  34.695   5.994
 3261POPC   C1A44655  28.976  34.612   6.294
 3261POPC   D2A44656  29.095  34.899   6.603
 3261POPC   C3A44657  28.874  34.745   6.947
 3261POPC   C4A44658  28.871  34.662   7.358
 3261POPC   C1B44659  29.435  34.291   6.245
 3261POPC   C2B44660  29.405  34.274   6.684
 3261POPC   C3B44661  29.404  34.659   6.958
 3261POPC   C4B44662  29.384  34.663   7.396
 3262POPC   NC344663  35.066  13.026   5.383
 3262POPC   PO444664  34.395  13.105   5.211
 3262POPC   GL144665  34.614  13.000   5.631
 3262POPC   GL244666  34.566  12.670   5.752
 3262POPC   C1A44667  34.622  13.044   6.119
 3262POPC   D2A44668  34.311  13.069   6.498
 3262POPC   C3A44669  34.480  12.996   6.929
 3262POPC   C4A44670  34.951  13.018   6.969
 3262POPC   C1B44671  34.671  12.513   6.182
 3262POPC   C2B44672  34.627  12.624   6.614
 3262POPC   C3B44673  34.680  12.528   7.060
 3262POPC   C4B44674  34.487  12.475   7.485
 3263POPC   NC344675   1.303  31.219   5.671
 3263POPC   PO444676   1.165  30.648   5.301
 3263POPC   GL144677   1.192  30.715   5.764
 3263POPC   GL244678   1.552  30.725   5.717
 3263POPC   C1A44679   1.118  30.762   6.261
 3263POPC   D2A44680   0.953  30.918   6.706
 3263POPC   C3A44681   1.235  30.990   7.074
 3263POPC   C4A44682   1.475  30.779   7.366
 3263POPC   C1B44683   1.549  30.506   6.095
 3263POPC   C2B44684   1.540  30.545   6.553
 3263POPC   C3B44685   1.314  30.471   6.917
 3263POPC   C4B44686   1.074  30.056   7.050
 3264POPC   NC344687   4.588  39.449   5.472
 3264POPC   PO444688   4.087  38.953   5.398
 3264POPC   GL144689   4.217  39.196   5.753
 3264POPC   GL244690   4.585  39.170   5.896
 3264POPC   C1A44691   4.180  39.331   6.179
 3264POPC   D2A44692   4.463  39.348   6.538
 3264POPC   C3A44693   4.311  39.360   6.967
 3264POPC   C4A44694   4.470  39.439   7.384
 3264POPC   C1B44695   4.746  38.781   6.089
 3264POPC   C2B44696   4.577  38.672   6.475
 3264POPC   C3B44697   4.512  38.868   6.891
 3264POPC   C4B44698   4.634  38.926   7.328
 3265POPC   NC344699   0.871  40.035   5.386
 3265POPC   PO444700   1.532  40.155   5.530
 3265POPC   GL144701   1.162  40.080   5.802
 3265POPC   GL244702   0.860  40.278   5.867
 3265POPC   C1A44703   1.104  39.967   6.217
 3265POPC   D2A44704   1.396  40.018   6.546
 3265POPC   C3A44705   1.267  39.869   6.915
 3265POPC   C4A44706   1.162  39.800   7.297
 3265POPC   C1B44707   0.672  40.273   6.277
 3265POPC   C2B44708   0.840  40.070   6.654
 3265POPC   C3B44709   0.773  40.152   7.088
 3265POPC   C4B44710   0.632  40.560   7.206
 3266POPC   NC344711  15.805  24.993   5.507
 3266POPC   PO444712  16.096  24.481   5.183
 3266POPC   GL144713  16.037  24.475   5.651
 3266POPC   GL244714  15.692  24.551   5.731
 3266POPC   C1A44715  15.983  24.387   6.108
 3266POPC   D2A44716  16.184  24.508   6.483
 3266POPC   C3A44717  16.022  24.478   6.891
 3266POPC   C4A44718  16.218  24.734   7.159
 3266POPC   C1B44719  15.747  24.833   6.131
 3266POPC   C2B44720  15.671  24.676   6.546
 3266POPC   C3B44721  15.697  24.857   6.945
 3266POPC   C4B44722  15.756  24.641   7.321
 3267POPC   NC344723  24.797  20.762   5.328
 3267POPC   PO444724  24.713  20.214   5.405
 3267POPC   GL144725  24.631  20.378   5.848
 3267POPC   GL244726  24.801  20.704   5.855
 3267POPC   C1A44727  24.668  20.363   6.330
 3267POPC   D2A44728  24.380  20.334   6.680
 3267POPC   C3A44729  24.458  20.508   7.087
 3267POPC   C4A44730  24.534  20.246   7.461
 3267POPC   C1B44731  24.475  20.797   6.144
 3267POPC   C2B44732  24.454  20.818   6.585
 3267POPC   C3B44733  24.613  21.002   6.984
 3267POPC   C4B44734  24.574  20.901   7.412
 3268POPC   NC344735  11.273   2.409   5.463
 3268POPC   PO444736  11.129   1.795   5.161
 3268POPC   GL144737  11.278   1.940   5.647
 3268POPC   GL244738  11.013   1.783   5.816
 3268POPC   C1A44739  11.283   2.087   6.138
 3268POPC   D2A44740  10.979   2.099   6.520
 3268POPC   C3A44741  11.165   2.034   6.962
 3268POPC   C4A44742  11.565   2.207   7.122
 3268POPC   C1B44743  11.271   1.591   6.151
 3268POPC   C2B44744  11.380   1.743   6.589
 3268POPC   C3B44745  11.189   1.512   6.956
 3268POPC   C4B44746  11.041   1.461   7.379
 3269POPC   NC344747  28.892  18.368   5.391
 3269POPC   PO444748  28.293  18.091   5.366
 3269POPC   GL144749  28.517  18.200   5.752
 3269POPC   GL244750  28.726  17.921   5.880
 3269POPC   C1A44751  28.365  18.365   6.165
 3269POPC   D2A44752  28.357  18.246   6.629
 3269POPC   C3A44753  28.137  18.484   6.974
 3269POPC   C4A44754  28.156  18.418   7.425
 3269POPC   C1B44755  28.779  18.111   6.319
 3269POPC   C2B44756  28.825  18.071   6.780
 3269POPC   C3B44757  28.548  18.221   7.137
 3269POPC   C4B44758  28.665  18.403   7.538
 3270POPC   NC344759   5.584   5.421   5.625
 3270POPC   PO444760   5.093   4.997   5.356
 3270POPC   GL144761   5.168   5.120   5.790
 3270POPC   GL244762   5.327   4.810   5.833
 3270POPC   C1A44763   5.270   5.263   6.240
 3270POPC   D2A44764   5.497   5.516   6.567
 3270POPC   C3A44765   5.211   5.382   6.897
 3270POPC   C4A44766   5.179   5.220   7.317
 3270POPC   C1B44767   5.287   4.747   6.253
 3270POPC   C2B44768   5.105   4.829   6.641
 3270POPC   C3B44769   5.297   4.786   7.049
 3270POPC   C4B44770   5.051   4.743   7.395
 3271POPC   NC344771  24.420  32.364   5.356
 3271POPC   PO444772  25.040  31.960   5.279
 3271POPC   GL144773  24.681  31.952   5.614
 3271POPC   GL244774  24.343  31.943   5.673
 3271POPC   C1A44775  24.664  31.888   6.104
 3271POPC   D2A44776  24.539  31.961   6.568
 3271POPC   C3A44777  24.620  32.284   6.856
 3271POPC   C4A44778  24.669  32.291   7.294
 3271POPC   C1B44779  24.336  32.266   6.014
 3271POPC   C2B44780  24.254  32.370   6.480
 3271POPC   C3B44781  24.075  32.299   6.921
 3271POPC   C4B44782  23.885  32.557   7.265
 3272POPC   NC344783  43.025  39.738   5.380
 3272POPC   PO444784  43.586  40.192   5.319
 3272POPC   GL144785  43.172  40.051   5.743
 3272POPC   GL244786  43.080  39.716   5.870
 3272POPC   C1A44787  43.119  40.093   6.205
 3272POPC   D2A44788  43.193  40.233   6.632
 3272POPC   C3A44789  43.177  40.038   7.045
 3272POPC   C4A44790  43.088  40.215   7.428
 3272POPC   C1B44791  42.817  39.681   6.227
 3272POPC   C2B44792  42.976  39.759   6.640
 3272POPC   C3B44793  42.912  39.607   7.045
 3272POPC   C4B44794  43.048  39.601   7.476
 3273POPC   NC344795   9.832  20.770   5.238
 3273POPC   PO444796   9.574  20.199   5.254
 3273POPC   GL144797   9.768  20.404   5.669
 3273POPC   GL244798   9.809  20.787   5.729
 3273POPC   C1A44799   9.893  20.500   6.132
 3273POPC   D2A44800   9.899  20.492   6.584
 3273POPC   C3A44801   9.520  20.500   6.835
 3273POPC   C4A44802   9.756  20.415   7.178
 3273POPC   C1B44803   9.643  20.968   6.087
 3273POPC   C2B44804   9.631  20.935   6.521
 3273POPC   C3B44805   9.823  20.912   6.907
 3273POPC   C4B44806   9.628  20.910   7.262
 3274POPC   NC344807  31.584   8.596   5.382
 3274POPC   PO444808  31.114   8.086   5.356
 3274POPC   GL144809  31.313   8.328   5.713
 3274POPC   GL244810  31.604   8.119   5.830
 3274POPC   C1A44811  31.490   8.551   6.102
 3274POPC   D2A44812  31.572   8.283   6.456
 3274POPC   C3A44813  31.536   8.370   6.884
 3274POPC   C4A44814  31.831   8.221   7.147
 3274POPC   C1B44815  31.440   7.872   6.172
 3274POPC   C2B44816  31.243   7.904   6.551
 3274POPC   C3B44817  31.429   7.861   6.915
 3274POPC   C4B44818  31.257   7.799   7.261
 3275POPC   NC344819   8.659  13.660   5.466
 3275POPC   PO444820   9.388  13.850   5.413
 3275POPC   GL144821   9.126  13.652   5.716
 3275POPC   GL244822   8.951  13.934   5.792
 3275POPC   C1A44823   8.918  13.532   6.108
 3275POPC   D2A44824   8.688  13.469   6.501
 3275POPC   C3A44825   8.952  13.244   6.808
 3275POPC   C4A44826   8.928  13.299   7.251
 3275POPC   C1B44827   8.626  13.961   6.125
 3275POPC   C2B44828   8.738  14.016   6.565
 3275POPC   C3B44829   8.825  13.753   6.935
 3275POPC   C4B44830   8.923  13.796   7.387
 3276POPC   NC344831  23.350  23.439   5.355
 3276POPC   PO444832  22.794  23.753   5.530
 3276POPC   GL144833  22.986  23.724   5.892
 3276POPC   GL244834  23.320  23.769   5.932
 3276POPC   C1A44835  22.951  23.584   6.296
 3276POPC   D2A44836  23.176  23.716   6.626
 3276POPC   C3A44837  22.912  23.692   6.931
 3276POPC   C4A44838  22.725  23.865   7.256
 3276POPC   C1B44839  23.492  23.464   6.284
 3276POPC   C2B44840  23.196  23.187   6.496
 3276POPC   C3B44841  23.181  23.255   6.933
 3276POPC   C4B44842  23.241  23.538   7.266
 3277POPC   NC344843   5.616  21.839   5.370
 3277POPC   PO444844   5.984  22.410   5.402
 3277POPC   GL144845   5.905  22.124   5.753
 3277POPC   GL244846   5.547  22.087   5.815
 3277POPC   C1A44847   5.898  22.151   6.218
 3277POPC   D2A44848   5.859  22.376   6.613
 3277POPC   C3A44849   6.184  22.311   6.934
 3277POPC   C4A44850   6.111  22.156   7.352
 3277POPC   C1B44851   5.493  21.821   6.162
 3277POPC   C2B44852   5.663  21.849   6.584
 3277POPC   C3B44853   5.779  21.998   6.977
 3277POPC   C4B44854   5.576  21.991   7.347
 3278POPC   NC344855  43.580  33.582   5.005
 3278POPC   PO444856  43.981  34.022   5.343
 3278POPC   GL144857  44.044  33.854   5.766
 3278POPC   GL244858  44.189  33.541   5.819
 3278POPC   C1A44859  43.832  33.774   6.157
 3278POPC   D2A44860  43.812  33.987   6.543
 3278POPC   C3A44861  43.810  33.801   6.948
 3278POPC   C4A44862  43.986  33.984   7.317
 3278POPC   C1B44863  44.326  33.607   6.246
 3278POPC   C2B44864  44.176  33.514   6.669
 3278POPC   C3B44865  44.162  33.449   7.118
 3278POPC   C4B44866  44.316  33.620   7.461
 3279POPC   NC344867   9.002   2.349   5.259
 3279POPC   PO444868   9.395   1.751   5.464
 3279POPC   GL144869   9.239   2.108   5.708
 3279POPC   GL244870   8.867   2.190   5.733
 3279POPC   C1A44871   9.212   2.132   6.175
 3279POPC   D2A44872   9.104   1.874   6.547
 3279POPC   C3A44873   9.200   1.903   6.995
 3279POPC   C4A44874   9.070   1.621   7.351
 3279POPC   C1B44875   8.801   2.420   6.084
 3279POPC   C2B44876   8.742   2.246   6.491
 3279POPC   C3B44877   8.907   2.343   6.888
 3279POPC   C4B44878   9.076   2.283   7.304
 3280POPC   NC344879   8.281   9.781   5.380
 3280POPC   PO444880   7.777   9.392   5.484
 3280POPC   GL144881   8.020   9.610   5.835
 3280POPC   GL244882   7.937   9.912   6.000
 3280POPC   C1A44883   8.119   9.561   6.311
 3280POPC   D2A44884   8.202   9.765   6.731
 3280POPC   C3A44885   7.991   9.796   7.133
 3280POPC   C4A44886   8.214   9.773   7.542
 3280POPC   C1B44887   8.254  10.077   6.316
 3280POPC   C2B44888   8.444  10.222   6.710
 3280POPC   C3B44889   8.316  10.183   7.144
 3280POPC   C4B44890   7.991  10.223   7.494
 3281POPC   NC344891  26.955  28.450   5.502
 3281POPC   PO444892  26.488  28.084   5.584
 3281POPC   GL144893  26.771  28.162   5.904
 3281POPC   GL244894  26.702  28.505   5.941
 3281POPC   C1A44895  26.881  28.238   6.329
 3281POPC   D2A44896  26.721  28.339   6.720
 3281POPC   C3A44897  26.825  28.148   7.112
 3281POPC   C4A44898  26.557  27.935   7.426
 3281POPC   C1B44899  26.524  28.674   6.309
 3281POPC   C2B44900  26.483  28.846   6.724
 3281POPC   C3B44901  26.587  28.646   7.108
 3281POPC   C4B44902  27.028  28.653   7.202
 3282POPC   NC344903  39.334  27.281   4.894
 3282POPC   PO444904  39.290  26.745   5.347
 3282POPC   GL144905  39.258  26.853   5.766
 3282POPC   GL244906  38.923  26.755   5.855
 3282POPC   C1A44907  39.383  26.931   6.197
 3282POPC   D2A44908  39.050  27.039   6.503
 3282POPC   C3A44909  39.056  26.827   6.933
 3282POPC   C4A44910  39.412  26.831   7.281
 3282POPC   C1B44911  39.027  26.550   6.244
 3282POPC   C2B44912  39.161  26.369   6.636
 3282POPC   C3B44913  39.293  26.376   7.066
 3282POPC   C4B44914  39.010  26.440   7.391
 3283POPC   NC344915  24.819  32.988   5.442
 3283POPC   PO444916  24.200  32.774   5.412
 3283POPC   GL144917  24.509  32.725   5.772
 3283POPC   GL244918  24.555  33.067   5.962
 3283POPC   C1A44919  24.623  32.638   6.231
 3283POPC   D2A44920  24.551  32.801   6.670
 3283POPC   C3A44921  24.379  32.684   7.097
 3283POPC   C4A44922  24.323  32.982   7.433
 3283POPC   C1B44923  24.356  33.213   6.391
 3283POPC   C2B44924  24.245  33.441   6.815
 3283POPC   C3B44925  24.206  33.458   7.304
 3283POPC   C4B44926  24.115  33.349   7.762
 3284POPC   NC344927  31.378   4.398   5.348
 3284POPC   PO444928  31.781   3.892   5.498
 3284POPC   GL144929  31.416   4.092   5.764
 3284POPC   GL244930  31.427   4.482   5.833
 3284POPC   C1A44931  31.208   4.136   6.176
 3284POPC   D2A44932  31.457   3.997   6.519
 3284POPC   C3A44933  31.404   3.982   6.968
 3284POPC   C4A44934  31.662   4.131   7.297
 3284POPC   C1B44935  31.623   4.447   6.207
 3284POPC   C2B44936  31.460   4.531   6.593
 3284POPC   C3B44937  31.671   4.503   6.959
 3284POPC   C4B44938  31.538   4.649   7.368
 3285POPC   NC344939  11.216  30.493   5.387
 3285POPC   PO444940  11.160  31.105   5.212
 3285POPC   GL144941  11.212  30.902   5.702
 3285POPC   GL244942  11.512  30.717   5.770
 3285POPC   C1A44943  11.177  30.564   6.128
 3285POPC   D2A44944  11.167  30.328   6.575
 3285POPC   C3A44945  10.988  30.623   6.916
 3285POPC   C4A44946  11.045  30.952   7.252
 3285POPC   C1B44947  11.508  30.953   6.190
 3285POPC   C2B44948  11.398  30.783   6.601
 3285POPC   C3B44949  11.489  30.529   6.982
 3285POPC   C4B44950  11.541  30.754   7.349
 3286POPC   NC344951   5.036  28.773   5.421
 3286POPC   PO444952   5.332  29.377   5.243
 3286POPC   GL144953   5.174  29.277   5.667
 3286POPC   GL244954   4.985  29.547   5.823
 3286POPC   C1A44955   5.050  29.058   6.032
 3286POPC   D2A44956   4.986  28.953   6.439
 3286POPC   C3A44957   5.155  28.996   6.832
 3286POPC   C4A44958   5.009  28.926   7.227
 3286POPC   C1B44959   4.815  29.468   6.231
 3286POPC   C2B44960   4.853  29.389   6.660
 3286POPC   C3B44961   5.015  29.490   7.019
 3286POPC   C4B44962   4.903  29.386   7.402
 3287POPC   NC344963  30.584  31.661   5.273
 3287POPC   PO444964  31.070  31.186   5.141
 3287POPC   GL144965  30.741  31.271   5.593
 3287POPC   GL244966  30.738  31.636   5.756
 3287POPC   C1A44967  30.548  31.282   6.052
 3287POPC   D2A44968  30.688  31.459   6.482
 3287POPC   C3A44969  30.596  31.255   6.897
 3287POPC   C4A44970  30.719  31.163   7.338
 3287POPC   C1B44971  30.542  31.817   6.113
 3287POPC   C2B44972  30.581  31.960   6.543
 3287POPC   C3B44973  30.670  31.770   6.942
 3287POPC   C4B44974  30.468  31.833   7.328
 3288POPC   NC344975  34.757  36.453   5.591
 3288POPC   PO444976  34.363  37.043   5.443
 3288POPC   GL144977  34.500  37.160   5.869
 3288POPC   GL244978  34.883  37.190   5.875
 3288POPC   C1A44979  34.401  36.960   6.282
 3288POPC   D2A44980  34.605  36.599   6.529
 3288POPC   C3A44981  34.784  36.615   6.947
 3288POPC   C4A44982  34.593  36.868   7.259
 3288POPC   C1B44983  34.891  37.028   6.296
 3288POPC   C2B44984  34.714  37.096   6.737
 3288POPC   C3B44985  34.810  37.321   7.146
 3288POPC   C4B44986  34.722  37.225   7.611
 3289POPC   NC344987  27.372   0.631   5.346
 3289POPC   PO444988  27.587   0.027   5.233
 3289POPC   GL144989  27.622   0.306   5.662
 3289POPC   GL244990  27.335   0.219   5.867
 3289POPC   C1A44991  27.690   0.509   6.106
 3289POPC   D2A44992  27.597   0.576   6.546
 3289POPC   C3A44993  27.525   0.190   6.821
 3289POPC   C4A44994  27.678   0.212   7.260
 3289POPC   C1B44995  27.237   0.261   6.322
 3289POPC   C2B44996  27.109   0.494   6.713
 3289POPC   C3B44997  27.241   0.456   7.150
 3289POPC   C4B44998  27.502   0.642   7.466
 3290POPC   NC344999  11.654  21.926   5.449
 3290POPC   PO445000  11.093  22.326   5.355
 3290POPC   GL145001  11.274  22.345   5.786
 3290POPC   GL245002  11.649  22.436   5.807
 3290POPC   C1A45003  11.243  22.088   6.184
 3290POPC   D2A45004  11.323  21.839   6.544
 3290POPC   C3A45005  11.208  22.000   6.935
 3290POPC   C4A45006  11.255  21.859   7.363
 3290POPC   C1B45007  11.494  22.512   6.227
 3290POPC   C2B45008  11.245  22.424   6.589
 3290POPC   C3B45009  11.421  22.492   6.985
 3290POPC   C4B45010  11.622  22.177   7.222
 3291POPC   NC345011  31.116  33.510   5.149
 3291POPC   PO445012  31.729  33.783   5.342
 3291POPC   GL145013  31.664  33.967   5.739
 3291POPC   GL245014  31.478  33.653   5.774
 3291POPC   C1A45015  31.600  33.983   6.215
 3291POPC   D2A45016  31.399  33.973   6.641
 3291POPC   C3A45017  31.625  33.945   7.052
 3291POPC   C4A45018  31.546  33.985   7.508
 3291POPC   C1B45019  31.240  33.587   6.126
 3291POPC   C2B45020  31.211  33.493   6.550
 3291POPC   C3B45021  31.383  33.516   6.952
 3291POPC   C4B45022  31.509  33.495   7.383
 3292POPC   NC345023  44.109  22.032   5.451
 3292POPC   PO445024  43.504  22.310   5.614
 3292POPC   GL145025  43.800  22.096   5.849
 3292POPC   GL245026  44.031  22.395   5.822
 3292POPC   C1A45027  43.771  21.840   6.219
 3292POPC   D2A45028  43.800  22.069   6.606
 3292POPC   C3A45029  43.744  21.905   7.006
 3292POPC   C4A45030  43.930  22.089   7.399
 3292POPC   C1B45031  43.823  22.424   6.229
 3292POPC   C2B45032  43.550  22.512   6.583
 3292POPC   C3B45033  43.690  22.440   7.017
 3292POPC   C4B45034  44.047  22.550   7.238
 3293POPC   NC345035  28.136  13.784   5.421
 3293POPC   PO445036  28.229  13.194   5.637
 3293POPC   GL145037  28.294  13.503   5.923
 3293POPC   GL245038  28.604  13.565   5.803
 3293POPC   C1A45039  28.479  13.825   6.237
 3293POPC   D2A45040  28.569  13.820   6.700
 3293POPC   C3A45041  28.202  13.827   7.013
 3293POPC   C4A45042  28.128  13.894   7.467
 3293POPC   C1B45043  28.703  13.361   6.230
 3293POPC   C2B45044  28.625  13.172   6.641
 3293POPC   C3B45045  28.638  13.408   7.027
 3293POPC   C4B45046  28.364  13.463   7.368
 3294POPC   NC345047  30.146  18.725   5.407
 3294POPC   PO445048  29.845  19.297   5.081
 3294POPC   GL145049  29.989  19.182   5.576
 3294POPC   GL245050  30.306  19.355   5.713
 3294POPC   C1A45051  30.123  18.956   6.021
 3294POPC   D2A45052  30.193  18.774   6.461
 3294POPC   C3A45053  29.962  18.958   6.792
 3294POPC   C4A45054  29.965  18.894   7.222
 3294POPC   C1B45055  30.314  19.426   6.171
 3294POPC   C2B45056  30.380  19.257   6.602
 3294POPC   C3B45057  30.221  19.336   7.020
 3294POPC   C4B45058  29.906  19.386   7.314
 3295POPC   NC345059  20.956  15.438   5.513
 3295POPC   PO445060  20.267  15.237   5.397
 3295POPC   GL145061  20.543  15.191   5.735
 3295POPC   GL245062  20.548  15.526   5.803
 3295POPC   C1A45063  20.690  15.023   6.131
 3295POPC   D2A45064  20.575  14.786   6.524
 3295POPC   C3A45065  20.780  14.943   6.891
 3295POPC   C4A45066  20.713  15.046   7.318
 3295POPC   C1B45067  20.549  15.527   6.207
 3295POPC   C2B45068  20.622  15.319   6.568
 3295POPC   C3B45069  20.649  15.441   6.984
 3295POPC   C4B45070  20.840  15.532   7.381
 3296POPC   NC345071  17.970   0.208   5.496
 3296POPC   PO445072  18.322  44.619   5.389
 3296POPC   GL145073  18.339  44.881   5.757
 3296POPC   GL245074  18.017  44.777   5.799
 3296POPC   C1A45075  18.283  44.957   6.211
 3296POPC   D2A45076  18.525  44.901   6.589
 3296POPC   C3A45077  18.317  44.950   6.966
 3296POPC   C4A45078  18.401  44.734   7.332
 3296POPC   C1B45079  18.098  44.479   6.126
 3296POPC   C2B45080  18.078  44.586   6.557
 3296POPC   C3B45081  18.061  44.507   6.981
 3296POPC   C4B45082  17.898  44.542   7.379
 3297POPC   NC345083  43.503   6.024   5.325
 3297POPC   PO445084  43.013   5.600   5.486
 3297POPC   GL145085  43.163   5.889   5.785
 3297POPC   GL245086  42.830   6.031   5.840
 3297POPC   C1A45087  43.144   6.002   6.244
 3297POPC   D2A45088  43.023   5.935   6.671
 3297POPC   C3A45089  43.368   6.093   6.900
 3297POPC   C4A45090  43.552   5.974   7.298
 3297POPC   C1B45091  42.823   5.619   6.113
 3297POPC   C2B45092  42.812   5.409   6.531
 3297POPC   C3B45093  42.978   5.455   6.935
 3297POPC   C4B45094  43.078   5.815   7.218
 3298POPC   NC345095  12.659  37.539   5.097
 3298POPC   PO445096  13.186  37.669   5.562
 3298POPC   GL145097  12.826  37.706   5.784
 3298POPC   GL245098  12.574  37.865   5.584
 3298POPC   C1A45099  12.794  37.618   6.213
 3298POPC   D2A45100  12.611  37.504   6.592
 3298POPC   C3A45101  12.857  37.470   6.942
 3298POPC   C4A45102  12.605  37.511   7.268
 3298POPC   C1B45103  12.489  37.999   6.037
 3298POPC   C2B45104  12.670  38.045   6.467
 3298POPC   C3B45105  12.608  37.937   6.907
 3298POPC   C4B45106  12.483  38.154   7.283
 3299POPC   NC345107  40.241   7.609   5.454
 3299POPC   PO445108  39.800   7.168   5.546
 3299POPC   GL145109  39.876   7.497   5.815
 3299POPC   GL245110  40.193   7.426   5.926
 3299POPC   C1A45111  39.779   7.434   6.239
 3299POPC   D2A45112  39.906   7.264   6.636
 3299POPC   C3A45113  39.822   7.561   6.901
 3299POPC   C4A45114  39.620   7.533   7.268
 3299POPC   C1B45115  40.272   7.177   6.295
 3299POPC   C2B45116  40.429   7.149   6.714
 3299POPC   C3B45117  40.192   7.191   7.096
 3299POPC   C4B45118  40.328   7.395   7.483
 3300POPC   NC345119   8.430  41.232   5.267
 3300POPC   PO445120   8.152  41.833   5.542
 3300POPC   GL145121   8.102  41.455   5.775
 3300POPC   GL245122   7.790  41.280   5.735
 3300POPC   C1A45123   8.215  41.569   6.207
 3300POPC   D2A45124   8.068  41.660   6.626
 3300POPC   C3A45125   8.286  41.498   7.005
 3300POPC   C4A45126   8.386  41.689   7.390
 3300POPC   C1B45127   7.711  41.513   6.160
 3300POPC   C2B45128   7.567  41.442   6.592
 3300POPC   C3B45129   7.796  41.357   6.974
 3300POPC   C4B45130   7.907  41.503   7.375
 3301POPC   NC345131  24.434  26.236   5.655
 3301POPC   PO445132  24.712  26.718   5.235
 3301POPC   GL145133  24.682  26.696   5.775
 3301POPC   GL245134  24.319  26.778   5.918
 3301POPC   C1A45135  24.676  26.846   6.263
 3301POPC   D2A45136  24.489  26.995   6.695
 3301POPC   C3A45137  24.705  26.851   7.086
 3301POPC   C4A45138  24.824  26.601   7.457
 3301POPC   C1B45139  24.297  26.457   6.249
 3301POPC   C2B45140  24.496  26.444   6.653
 3301POPC   C3B45141  24.277  26.597   6.985
 3301POPC   C4B45142  24.203  26.935   7.197
 3302POPC   NC345143   6.784  15.517   5.457
 3302POPC   PO445144   6.205  15.859   5.406
 3302POPC   GL145145   6.447  15.692   5.791
 3302POPC   GL245146   6.619  16.005   5.859
 3302POPC   C1A45147   6.855  15.634   6.099
 3302POPC   D2A45148   7.053  15.791   6.497
 3302POPC   C3A45149   6.703  16.037   6.644
 3302POPC   C4A45150   6.422  15.825   6.946
 3302POPC   C1B45151   6.991  16.137   6.114
 3302POPC   C2B45152   7.146  16.341   6.476
 3302POPC   C3B45153   7.082  16.329   6.900
 3302POPC   C4B45154   6.874  15.993   7.112
 3303POPC   NC345155  16.349  43.894   5.522
 3303POPC   PO445156  16.921  44.236   5.281
 3303POPC   GL145157  16.768  44.200   5.756
 3303POPC   GL245158  16.476  44.048   5.987
 3303POPC   C1A45159  16.829  44.340   6.179
 3303POPC   D2A45160  16.565  44.324   6.522
 3303POPC   C3A45161  16.658  44.023   6.818
 3303POPC   C4A45162  16.740  44.215   7.183
 3303POPC   C1B45163  16.761  43.851   6.315
 3303POPC   C2B45164  17.075  43.604   6.550
 3303POPC   C3B45165  17.050  43.440   6.971
 3303POPC   C4B45166  16.765  43.693   7.253
 3304POPC   NC345167  35.213  10.494   4.970
 3304POPC   PO445168  35.629  10.791   5.429
 3304POPC   GL145169  35.341  10.578   5.745
 3304POPC   GL245170  35.599  10.332   5.858
 3304POPC   C1A45171  35.255  10.399   6.195
 3304POPC   D2A45172  35.450  10.567   6.573
 3304POPC   C3A45173  35.299  10.433   6.971
 3304POPC   C4A45174  34.972  10.624   7.241
 3304POPC   C1B45175  35.702  10.096   6.241
 3304POPC   C2B45176  35.823  10.229   6.656
 3304POPC   C3B45177  35.915  10.637   6.805
 3304POPC   C4B45178  35.719  10.698   7.170
 3305POPC   NC345179  14.141  27.201   5.530
 3305POPC   PO445180  14.069  27.862   5.470
 3305POPC   GL145181  14.354  27.660   5.789
 3305POPC   GL245182  14.133  27.544   5.952
 3305POPC   C1A45183  14.577  27.618   6.197
 3305POPC   D2A45184  14.421  27.474   6.561
 3305POPC   C3A45185  14.567  27.522   6.972
 3305POPC   C4A45186  14.210  27.385   7.209
 3305POPC   C1B45187  14.126  27.837   6.274
 3305POPC   C2B45188  13.989  27.736   6.676
 3305POPC   C3B45189  14.153  27.873   7.035
 3305POPC   C4B45190  14.543  27.959   7.232
 3306POPC   NC345191  16.222   6.871   5.162
 3306POPC   PO445192  16.135   6.233   5.322
 3306POPC   GL145193  16.256   6.558   5.685
 3306POPC   GL245194  16.060   6.890   5.688
 3306POPC   C1A45195  16.124   6.578   6.165
 3306POPC   D2A45196  15.710   6.726   6.445
 3306POPC   C3A45197  15.667   6.782   6.926
 3306POPC   C4A45198  15.527   6.485   7.279
 3306POPC   C1B45199  15.949   7.046   6.134
 3306POPC   C2B45200  16.157   6.934   6.554
 3306POPC   C3B45201  16.150   6.992   6.987
 3306POPC   C4B45202  15.985   6.721   7.325
 3307POPC   NC345203  36.021  31.955   5.207
 3307POPC   PO445204  36.398  32.398   5.461
 3307POPC   GL145205  36.142  32.221   5.719
 3307POPC   GL245206  36.425  32.180   5.930
 3307POPC   C1A45207  35.902  32.313   6.111
 3307POPC   D2A45208  35.658  32.413   6.491
 3307POPC   C3A45209  35.701  32.155   6.875
 3307POPC   C4A45210  35.683  32.163   7.325
 3307POPC   C1B45211  36.352  32.209   6.358
 3307POPC   C2B45212  36.199  32.078   6.743
 3307POPC   C3B45213  36.166  32.294   7.140
 3307POPC   C4B45214  36.364  32.481   7.536
 3308POPC   NC345215  20.389  35.700   4.954
 3308POPC   PO445216  20.377  35.197   5.343
 3308POPC   GL145217  20.340  35.127   5.829
 3308POPC   GL245218  20.091  34.896   5.967
 3308POPC   C1A45219  20.398  35.293   6.296
 3308POPC   D2A45220  20.343  35.455   6.758
 3308POPC   C3A45221  20.640  35.309   7.087
 3308POPC   C4A45222  20.839  34.927   7.242
 3308POPC   C1B45223  20.391  34.789   6.320
 3308POPC   C2B45224  20.506  34.939   6.733
 3308POPC   C3B45225  20.317  34.869   7.151
 3308POPC   C4B45226  20.474  34.651   7.523
 3309POPC   NC345227  39.877  16.714   5.156
 3309POPC   PO445228  39.286  16.504   5.455
 3309POPC   GL145229  39.040  16.720   5.770
 3309POPC   GL245230  39.324  16.944   5.832
 3309POPC   C1A45231  38.970  16.919   6.199
 3309POPC   D2A45232  39.144  17.144   6.570
 3309POPC   C3A45233  38.927  16.973   6.944
 3309POPC   C4A45234  38.953  16.620   7.213
 3309POPC   C1B45235  39.346  16.576   6.152
 3309POPC   C2B45236  39.442  16.447   6.533
 3309POPC   C3B45237  39.364  16.673   6.885
 3309POPC   C4B45238  39.472  16.568   7.274
 3310POPC   NC345239   9.808  18.184   5.401
 3310POPC   PO445240  10.031  18.778   5.246
 3310POPC   GL145241   9.786  18.633   5.672
 3310POPC   GL245242   9.640  18.282   5.850
 3310POPC   C1A45243   9.623  18.714   6.122
 3310POPC   D2A45244   9.777  18.521   6.511
 3310POPC   C3A45245   9.628  18.528   6.928
 3310POPC   C4A45246   9.852  18.376   7.297
 3310POPC   C1B45247   9.476  17.992   6.170
 3310POPC   C2B45248   9.424  18.131   6.594
 3310POPC   C3B45249   9.568  18.018   6.989
 3310POPC   C4B45250   9.427  18.073   7.417
 3311POPC   NC345251  40.945  25.539   5.421
 3311POPC   PO445252  40.534  25.061   5.433
 3311POPC   GL145253  40.714  25.164   5.789
 3311POPC   GL245254  40.644  25.487   5.895
 3311POPC   C1A45255  40.764  25.062   6.211
 3311POPC   D2A45256  40.909  25.245   6.602
 3311POPC   C3A45257  40.643  25.364   6.953
 3311POPC   C4A45258  40.695  24.996   7.222
 3311POPC   C1B45259  40.999  25.542   6.185
 3311POPC   C2B45260  41.315  25.543   6.566
 3311POPC   C3B45261  41.168  25.480   6.986
 3311POPC   C4B45262  40.951  25.415   7.374
 3312POPC   NC345263  42.426  40.972   5.611
 3312POPC   PO445264  42.696  40.357   5.461
 3312POPC   GL145265  42.602  40.571   5.874
 3312POPC   GL245266  42.749  40.923   5.983
 3312POPC   C1A45267  42.250  40.549   6.177
 3312POPC   D2A45268  42.204  40.307   6.548
 3312POPC   C3A45269  42.386  40.489   6.922
 3312POPC   C4A45270  42.115  40.564   7.273
 3312POPC   C1B45271  42.530  40.947   6.369
 3312POPC   C2B45272  42.161  40.893   6.642
 3312POPC   C3B45273  42.281  40.993   7.054
 3312POPC   C4B45274  42.701  40.944   7.146
 3313POPC   NC345275   4.076  31.812   5.427
 3313POPC   PO445276   4.259  32.406   5.449
 3313POPC   GL145277   4.382  32.065   5.758
 3313POPC   GL245278   4.079  31.994   5.908
 3313POPC   C1A45279   4.505  31.923   6.202
 3313POPC   D2A45280   4.432  32.160   6.561
 3313POPC   C3A45281   4.384  32.075   6.938
 3313POPC   C4A45282   4.325  32.374   7.216
 3313POPC   C1B45283   4.221  32.373   6.167
 3313POPC   C2B45284   4.034  32.538   6.590
 3313POPC   C3B45285   3.912  32.645   7.048
 3313POPC   C4B45286   3.988  32.812   7.500
 3314POPC   NC345287  41.882   2.205   5.462
 3314POPC   PO445288  41.399   1.766   5.144
 3314POPC   GL145289  41.513   1.881   5.616
 3314POPC   GL245290  41.469   2.224   5.788
 3314POPC   C1A45291  41.780   1.892   6.031
 3314POPC   D2A45292  41.951   2.094   6.404
 3314POPC   C3A45293  41.691   1.936   6.736
 3314POPC   C4A45294  41.675   2.074   7.148
 3314POPC   C1B45295  41.440   2.189   6.293
 3314POPC   C2B45296  41.429   2.377   6.752
 3314POPC   C3B45297  41.181   2.170   7.112
 3314POPC   C4B45298  41.000   2.206   7.550
 3315POPC   NC345299  44.903  21.645   5.774
 3315POPC   PO445300   0.353  21.296   5.387
 3315POPC   GL145301   0.229  21.251   5.795
 3315POPC   GL245302   0.539  21.200   5.879
 3315POPC   C1A45303   0.244  21.376   6.251
 3315POPC   D2A45304   0.023  21.496   6.607
 3315POPC   C3A45305   0.265  21.676   6.922
 3315POPC   C4A45306   0.579  21.534   7.233
 3315POPC   C1B45307   0.522  20.956   6.219
 3315POPC   C2B45308   0.606  21.162   6.586
 3315POPC   C3B45309   0.720  21.129   6.975
 3315POPC   C4B45310   0.433  21.035   7.285
 3316POPC   NC345311   7.994  38.246   5.323
 3316POPC   PO445312   8.638  38.510   5.478
 3316POPC   GL145313   8.371  38.445   5.802
 3316POPC   GL245314   7.998  38.363   5.815
 3316POPC   C1A45315   8.331  38.561   6.221
 3316POPC   D2A45316   8.359  38.732   6.622
 3316POPC   C3A45317   8.199  38.447   6.912
 3316POPC   C4A45318   8.399  38.487   7.267
 3316POPC   C1B45319   7.848  38.363   6.255
 3316POPC   C2B45320   7.727  38.338   6.709
 3316POPC   C3B45321   7.803  38.152   7.120
 3316POPC   C4B45322   7.797  38.090   7.604
 3317POPC   NC345323  25.118  26.600   5.433
 3317POPC   PO445324  24.890  27.196   5.639
 3317POPC   GL145325  25.156  26.914   5.893
 3317POPC   GL245326  25.244  26.559   5.913
 3317POPC   C1A45327  25.195  26.834   6.341
 3317POPC   D2A45328  25.036  27.032   6.718
 3317POPC   C3A45329  25.232  26.821   7.065
 3317POPC   C4A45330  25.266  26.857   7.493
 3317POPC   C1B45331  25.412  26.347   6.248
 3317POPC   C2B45332  25.322  26.108   6.604
 3317POPC   C3B45333  25.492  26.135   7.005
 3317POPC   C4B45334  25.627  26.484   7.206
 3318POPC   NC345335  35.361  39.751   5.414
 3318POPC   PO445336  34.835  40.237   5.358
 3318POPC   GL145337  35.010  40.064   5.786
 3318POPC   GL245338  35.168  39.727   5.886
 3318POPC   C1A45339  35.210  40.105   6.219
 3318POPC   D2A45340  35.336  39.783   6.515
 3318POPC   C3A45341  35.136  39.877   6.902
 3318POPC   C4A45342  35.044  39.645   7.255
 3318POPC   C1B45343  35.627  39.793   6.078
 3318POPC   C2B45344  35.806  40.008   6.465
 3318POPC   C3B45345  35.682  39.911   6.894
 3318POPC   C4B45346  35.610  39.669   7.259
 3319POPC   NC345347  12.335  13.816   5.404
 3319POPC   PO445348  11.654  13.553   5.389
 3319POPC   GL145349  11.926  13.712   5.717
 3319POPC   GL245350  12.036  13.385   5.835
 3319POPC   C1A45351  11.990  13.817   6.166
 3319POPC   D2A45352  11.704  13.826   6.513
 3319POPC   C3A45353  11.778  13.834   6.944
 3319POPC   C4A45354  12.080  13.933   7.225
 3319POPC   C1B45355  12.189  13.348   6.279
 3319POPC   C2B45356  12.200  13.324   6.731
 3319POPC   C3B45357  12.025  13.415   7.133
 3319POPC   C4B45358  12.084  13.159   7.511
 3320POPC   NC345359  39.637  29.377   5.344
 3320POPC   PO445360  40.224  28.914   5.478
 3320POPC   GL145361  39.982  29.165   5.727
 3320POPC   GL245362  39.645  29.007   5.779
 3320POPC   C1A45363  40.153  29.267   6.143
 3320POPC   D2A45364  40.260  29.447   6.549
 3320POPC   C3A45365  40.146  29.207   6.923
 3320POPC   C4A45366  40.051  29.433   7.273
 3320POPC   C1B45367  39.623  29.307   6.076
 3320POPC   C2B45368  39.759  29.347   6.488
 3320POPC   C3B45369  39.777  29.554   6.853
 3320POPC   C4B45370  39.496  29.478   7.212
 3321POPC   NC345371  30.107  22.021   5.568
 3321POPC   PO445372  29.443  22.224   5.497
 3321POPC   GL145373  29.696  22.112   5.839
 3321POPC   GL245374  29.711  21.726   5.750
 3321POPC   C1A45375  29.928  22.287   6.229
 3321POPC   D2A45376  30.029  22.016   6.612
 3321POPC   C3A45377  29.838  22.190   6.937
 3321POPC   C4A45378  30.203  22.261   7.152
 3321POPC   C1B45379  29.854  21.792   6.178
 3321POPC   C2B45380  29.572  21.884   6.525
 3321POPC   C3B45381  29.714  21.670   6.924
 3321POPC   C4B45382  29.963  21.823   7.257
 3322POPC   NC345383  18.670  26.638   5.473
 3322POPC   PO445384  19.241  26.892   5.456
 3322POPC   GL145385  19.077  26.795   5.816
 3322POPC   GL245386  18.774  26.993   5.859
 3322POPC   C1A45387  19.135  26.839   6.233
 3322POPC   D2A45388  18.960  26.757   6.617
 3322POPC   C3A45389  19.280  26.697   6.895
 3322POPC   C4A45390  19.250  26.891   7.272
 3322POPC   C1B45391  18.697  26.610   6.142
 3322POPC   C2B45392  18.779  26.298   6.483
 3322POPC   C3B45393  18.662  26.445   6.889
 3322POPC   C4B45394  18.945  26.482   7.208
 3323POPC   NC345395  40.455   3.165   5.241
 3323POPC   PO445396  40.638   3.718   5.459
 3323POPC   GL145397  40.819   3.626   5.909
 3323POPC   GL245398  40.934   3.268   5.918
 3323POPC   C1A45399  40.879   3.672   6.387
 3323POPC   D2A45400  41.035   3.784   6.788
 3323POPC   C3A45401  40.758   3.652   7.158
 3323POPC   C4A45402  40.847   3.690   7.627
 3323POPC   C1B45403  41.007   3.170   6.387
 3323POPC   C2B45404  40.957   3.264   6.851
 3323POPC   C3B45405  40.957   3.218   7.344
 3323POPC   C4B45406  41.071   3.118   7.811
 3324POPC   NC345407  30.198  40.976   5.036
 3324POPC   PO445408  30.091  40.554   5.554
 3324POPC   GL145409  29.836  40.810   5.815
 3324POPC   GL245410  29.676  40.533   5.955
 3324POPC   C1A45411  29.846  40.981   6.269
 3324POPC   D2A45412  30.164  41.137   6.605
 3324POPC   C3A45413  30.156  40.991   7.060
 3324POPC   C4A45414  29.796  40.971   7.343
 3324POPC   C1B45415  29.695  40.506   6.410
 3324POPC   C2B45416  29.845  40.691   6.792
 3324POPC   C3B45417  29.974  40.489   7.180
 3324POPC   C4B45418  29.842  40.384   7.614
 3325POPC   NC345419  33.955   2.087   5.336
 3325POPC   PO445420  33.460   2.053   5.618
 3325POPC   GL145421  33.794   2.014   5.851
 3325POPC   GL245422  33.834   1.693   5.682
 3325POPC   C1A45423  33.779   2.094   6.312
 3325POPC   D2A45424  33.472   2.099   6.646
 3325POPC   C3A45425  33.598   2.005   7.096
 3325POPC   C4A45426  33.562   2.052   7.559
 3325POPC   C1B45427  33.681   1.614   6.148
 3325POPC   C2B45428  33.702   1.644   6.640
 3325POPC   C3B45429  33.704   1.497   7.101
 3325POPC   C4B45430  33.676   1.564   7.562
 3326POPC   NC345431  24.813  25.416   5.447
 3326POPC   PO445432  24.235  25.054   5.351
 3326POPC   GL145433  24.451  25.165   5.759
 3326POPC   GL245434  24.747  25.106   5.874
 3326POPC   C1A45435  24.308  25.135   6.216
 3326POPC   D2A45436  24.275  25.451   6.559
 3326POPC   C3A45437  24.160  25.330   6.976
 3326POPC   C4A45438  24.256  25.482   7.353
 3326POPC   C1B45439  24.760  24.878   6.269
 3326POPC   C2B45440  24.815  24.979   6.710
 3326POPC   C3B45441  24.824  24.986   7.169
 3326POPC   C4B45442  24.663  25.256   7.519
 3327POPC   NC345443   5.270  34.170   5.416
 3327POPC   PO445444   4.748  34.491   5.440
 3327POPC   GL145445   4.962  34.497   5.873
 3327POPC   GL245446   5.231  34.269   5.952
 3327POPC   C1A45447   4.921  34.644   6.322
 3327POPC   D2A45448   4.834  34.974   6.663
 3327POPC   C3A45449   5.152  34.849   6.968
 3327POPC   C4A45450   5.003  34.445   7.203
 3327POPC   C1B45451   5.310  34.227   6.427
 3327POPC   C2B45452   5.343  34.390   6.844
 3327POPC   C3B45453   5.442  34.183   7.269
 3327POPC   C4B45454   5.272  34.323   7.672
 3328POPC   NC345455  33.007  15.741   5.415
 3328POPC   PO445456  33.553  16.113   5.231
 3328POPC   GL145457  33.313  16.195   5.652
 3328POPC   GL245458  32.948  16.152   5.720
 3328POPC   C1A45459  33.262  16.019   6.103
 3328POPC   D2A45460  33.211  16.223   6.509
 3328POPC   C3A45461  33.342  16.037   6.882
 3328POPC   C4A45462  33.320  16.100   7.294
 3328POPC   C1B45463  32.755  16.139   6.121
 3328POPC   C2B45464  32.699  16.322   6.525
 3328POPC   C3B45465  32.813  16.059   6.863
 3328POPC   C4B45466  32.749  16.081   7.288
 3329POPC   NC345467  23.239  15.148   5.456
 3329POPC   PO445468  22.704  15.544   5.745
 3329POPC   GL145469  22.868  15.134   5.854
 3329POPC   GL245470  23.155  15.287   5.945
 3329POPC   C1A45471  22.886  14.797   6.203
 3329POPC   D2A45472  22.687  14.691   6.624
 3329POPC   C3A45473  22.892  14.940   6.953
 3329POPC   C4A45474  23.115  15.302   7.171
 3329POPC   C1B45475  23.059  15.232   6.384
 3329POPC   C2B45476  23.319  15.025   6.694
 3329POPC   C3B45477  23.480  14.932   7.122
 3329POPC   C4B45478  23.329  14.995   7.530
 3330POPC   NC345479  42.562  21.715   5.447
 3330POPC   PO445480  42.138  21.401   5.131
 3330POPC   GL145481  42.227  21.376   5.644
 3330POPC   GL245482  42.573  21.355   5.793
 3330POPC   C1A45483  42.285  21.630   6.100
 3330POPC   D2A45484  42.417  21.820   6.541
 3330POPC   C3A45485  42.445  21.561   6.950
 3330POPC   C4A45486  42.236  21.138   7.071
 3330POPC   C1B45487  42.753  21.472   6.186
 3330POPC   C2B45488  42.599  21.272   6.547
 3330POPC   C3B45489  42.756  21.142   6.941
 3330POPC   C4B45490  42.628  21.226   7.366
 3331POPC   NC345491   5.050  19.369   5.374
 3331POPC   PO445492   5.331  18.725   5.494
 3331POPC   GL145493   5.174  19.033   5.752
 3331POPC   GL245494   4.795  19.028   5.689
 3331POPC   C1A45495   5.298  19.058   6.165
 3331POPC   D2A45496   5.319  18.794   6.518
 3331POPC   C3A45497   5.150  18.952   6.890
 3331POPC   C4A45498   5.267  18.847   7.311
 3331POPC   C1B45499   4.812  19.242   6.091
 3331POPC   C2B45500   4.969  19.278   6.505
 3331POPC   C3B45501   4.730  19.341   6.870
 3331POPC   C4B45502   4.855  19.189   7.251
 3332POPC   NC345503  20.194   1.526   5.513
 3332POPC   PO445504  20.828   1.837   5.338
 3332POPC   GL145505  20.756   1.753   5.781
 3332POPC   GL245506  20.435   1.862   5.811
 3332POPC   C1A45507  20.770   1.820   6.240
 3332POPC   D2A45508  20.577   1.701   6.634
 3332POPC   C3A45509  20.727   1.958   6.976
 3332POPC   C4A45510  20.909   1.860   7.370
 3332POPC   C1B45511  20.246   1.751   6.192
 3332POPC   C2B45512  20.180   2.016   6.537
 3332POPC   C3B45513  20.210   1.958   6.965
 3332POPC   C4B45514  20.375   1.575   7.107
 3333POPC   NC345515  36.845  12.356   5.281
 3333POPC   PO445516  36.848  13.088   5.371
 3333POPC   GL145517  36.883  12.938   5.767
 3333POPC   GL245518  37.123  13.230   5.803
 3333POPC   C1A45519  36.711  12.981   6.177
 3333POPC   D2A45520  36.520  12.801   6.542
 3333POPC   C3A45521  36.767  12.822   6.902
 3333POPC   C4A45522  36.686  12.705   7.317
 3333POPC   C1B45523  37.190  13.131   6.197
 3333POPC   C2B45524  36.974  13.226   6.573
 3333POPC   C3B45525  37.156  13.318   6.960
 3333POPC   C4B45526  37.176  13.069   7.301
 3334POPC   NC345527  27.756   2.175   5.566
 3334POPC   PO445528  27.444   1.531   5.515
 3334POPC   GL145529  27.474   1.810   5.882
 3334POPC   GL245530  27.407   2.184   5.918
 3334POPC   C1A45531  27.659   1.718   6.288
 3334POPC   D2A45532  27.850   1.731   6.693
 3334POPC   C3A45533  27.584   1.810   7.074
 3334POPC   C4A45534  27.714   1.770   7.512
 3334POPC   C1B45535  27.653   2.224   6.264
 3334POPC   C2B45536  27.492   2.115   6.660
 3334POPC   C3B45537  27.524   2.327   7.054
 3334POPC   C4B45538  27.832   2.293   7.383
 3335POPC   NC345539  28.862  21.093   5.463
 3335POPC   PO445540  29.272  21.462   5.186
 3335POPC   GL145541  29.284  21.339   5.661
 3335POPC   GL245542  29.040  21.518   5.741
 3335POPC   C1A45543  29.110  21.164   6.086
 3335POPC   D2A45544  28.852  21.167   6.457
 3335POPC   C3A45545  29.071  21.106   6.863
 3335POPC   C4A45546  29.319  21.386   7.162
 3335POPC   C1B45547  28.895  21.648   6.163
 3335POPC   C2B45548  28.767  21.646   6.594
 3335POPC   C3B45549  28.847  21.531   7.011
 3335POPC   C4B45550  28.995  21.776   7.349
 3336POPC   NC345551  44.340  31.196   5.483
 3336POPC   PO445552  43.601  31.446   5.346
 3336POPC   GL145553  43.812  31.580   5.747
 3336POPC   GL245554  43.916  31.250   5.784
 3336POPC   C1A45555  44.060  31.592   6.186
 3336POPC   D2A45556  44.243  31.610   6.652
 3336POPC   C3A45557  43.937  31.656   7.055
 3336POPC   C4A45558  43.803  31.617   7.573
 3336POPC   C1B45559  43.821  31.125   6.191
 3336POPC   C2B45560  43.875  31.269   6.607
 3336POPC   C3B45561  43.600  31.315   6.933
 3336POPC   C4B45562  43.430  31.369   7.323
 3337POPC   NC345563  33.205  32.836   5.153
 3337POPC   PO445564  32.898  33.336   5.376
 3337POPC   GL145565  33.123  33.354   5.772
 3337POPC   GL245566  33.199  33.039   5.942
 3337POPC   C1A45567  32.939  33.388   6.199
 3337POPC   D2A45568  32.734  33.447   6.570
 3337POPC   C3A45569  32.918  33.284   6.950
 3337POPC   C4A45570  32.737  32.947   7.151
 3337POPC   C1B45571  33.010  32.864   6.315
 3337POPC   C2B45572  33.204  32.922   6.724
 3337POPC   C3B45573  33.228  32.778   7.145
 3337POPC   C4B45574  33.156  32.665   7.578
 3338POPC   NC345575  15.624   1.750   5.582
 3338POPC   PO445576  15.034   1.861   5.326
 3338POPC   GL145577  15.216   2.062   5.688
 3338POPC   GL245578  15.129   1.754   5.846
 3338POPC   C1A45579  15.323   2.136   6.143
 3338POPC   D2A45580  15.091   2.226   6.514
 3338POPC   C3A45581  15.219   2.085   6.889
 3338POPC   C4A45582  15.332   2.089   7.291
 3338POPC   C1B45583  14.909   1.787   6.250
 3338POPC   C2B45584  14.814   1.843   6.715
 3338POPC   C3B45585  14.957   1.654   7.124
 3338POPC   C4B45586  15.148   1.663   7.553
 3339POPC   NC345587  17.096   6.944   5.514
 3339POPC   PO445588  17.531   6.561   5.188
 3339POPC   GL145589  17.593   6.710   5.642
 3339POPC   GL245590  17.616   6.384   5.757
 3339POPC   C1A45591  17.632   6.703   6.145
 3339POPC   D2A45592  17.517   6.894   6.523
 3339POPC   C3A45593  17.569   6.655   6.907
 3339POPC   C4A45594  17.655   6.811   7.261
 3339POPC   C1B45595  17.606   6.201   6.189
 3339POPC   C2B45596  17.456   6.287   6.570
 3339POPC   C3B45597  17.683   6.140   6.925
 3339POPC   C4B45598  17.707   6.312   7.322
 3340POPC   NC345599  21.012  14.620   5.276
 3340POPC   PO445600  20.344  14.541   5.346
 3340POPC   GL145601  20.304  14.400   5.765
 3340POPC   GL245602  20.584  14.154   5.844
 3340POPC   C1A45603  20.342  14.431   6.215
 3340POPC   D2A45604  20.580  14.234   6.539
 3340POPC   C3A45605  20.378  14.277   6.922
 3340POPC   C4A45606  20.443  14.657   7.124
 3340POPC   C1B45607  20.940  14.163   6.153
 3340POPC   C2B45608  21.076  14.362   6.567
 3340POPC   C3B45609  20.912  14.383   7.009
 3340POPC   C4B45610  21.131  14.268   7.416
 3341POPC   NC345611  21.854  42.687   5.404
 3341POPC   PO445612  22.269  43.190   5.469
 3341POPC   GL145613  22.068  43.228   5.854
 3341POPC   GL245614  21.872  42.948   5.871
 3341POPC   C1A45615  21.988  43.354   6.270
 3341POPC   D2A45616  21.863  43.162   6.646
 3341POPC   C3A45617  22.060  43.363   6.996
 3341POPC   C4A45618  21.975  43.327   7.412
 3341POPC   C1B45619  22.098  42.841   6.239
 3341POPC   C2B45620  22.063  42.523   6.545
 3341POPC   C3B45621  21.858  42.501   6.917
 3341POPC   C4B45622  21.818  42.874   7.158
 3342POPC   NC345623   2.336   0.564   4.904
 3342POPC   PO445624   2.164   0.168   5.498
 3342POPC   GL145625   2.073   0.455   5.822
 3342POPC   GL245626   1.714   0.581   5.825
 3342POPC   C1A45627   2.314   0.544   6.192
 3342POPC   D2A45628   2.177   0.579   6.609
 3342POPC   C3A45629   2.301   0.375   6.956
 3342POPC   C4A45630   2.275   0.471   7.374
 3342POPC   C1B45631   1.769   0.412   6.253
 3342POPC   C2B45632   1.686   0.613   6.650
 3342POPC   C3B45633   1.857   0.653   7.082
 3342POPC   C4B45634   1.784   0.357   7.415
 3343POPC   NC345635  10.753  14.394   5.383
 3343POPC   PO445636  11.383  14.644   5.391
 3343POPC   GL145637  11.170  14.413   5.727
 3343POPC   GL245638  10.889  14.643   5.825
 3343POPC   C1A45639  11.327  14.141   6.097
 3343POPC   D2A45640  11.482  14.282   6.511
 3343POPC   C3A45641  11.406  14.399   6.921
 3343POPC   C4A45642  11.363  14.099   7.249
 3343POPC   C1B45643  10.853  14.345   6.143
 3343POPC   C2B45644  10.985  14.095   6.488
 3343POPC   C3B45645  10.959  14.164   6.906
 3343POPC   C4B45646  10.963  14.467   7.242
 3344POPC   NC345647   5.663  32.446   5.406
 3344POPC   PO445648   6.188  32.642   5.759
 3344POPC   GL145649   5.897  32.346   5.867
 3344POPC   GL245650   5.608  32.574   5.896
 3344POPC   C1A45651   5.882  32.303   6.310
 3344POPC   D2A45652   5.900  32.478   6.735
 3344POPC   C3A45653   5.778  32.141   7.038
 3344POPC   C4A45654   6.135  32.026   7.261
 3344POPC   C1B45655   5.385  32.378   6.214
 3344POPC   C2B45656   5.446  32.269   6.628
 3344POPC   C3B45657   5.450  32.532   6.980
 3344POPC   C4B45658   5.498  32.471   7.376
 3345POPC   NC345659  44.064  35.559   5.485
 3345POPC   PO445660  43.719  35.076   5.588
 3345POPC   GL145661  44.066  35.224   5.885
 3345POPC   GL245662  44.138  35.602   5.971
 3345POPC   C1A45663  43.997  35.275   6.324
 3345POPC   D2A45664  43.831  35.450   6.669
 3345POPC   C3A45665  43.917  35.208   7.009
 3345POPC   C4A45666  43.633  35.163   7.316
 3345POPC   C1B45667  44.316  35.691   6.367
 3345POPC   C2B45668  44.319  35.485   6.760
 3345POPC   C3B45669  44.096  35.678   7.130
 3345POPC   C4B45670  44.140  35.952   7.489
 3346POPC   NC345671   4.773  36.160   5.413
 3346POPC   PO445672   5.438  35.857   5.410
 3346POPC   GL145673   5.103  35.915   5.707
 3346POPC   GL245674   5.020  36.230   5.862
 3346POPC   C1A45675   5.090  35.812   6.145
 3346POPC   D2A45676   5.170  36.106   6.486
 3346POPC   C3A45677   5.172  35.944   6.904
 3346POPC   C4A45678   5.166  36.126   7.326
 3346POPC   C1B45679   4.928  36.534   6.163
 3346POPC   C2B45680   4.898  36.624   6.574
 3346POPC   C3B45681   5.011  36.479   6.960
 3346POPC   C4B45682   4.792  36.585   7.328
 3347POPC   NC345683  15.995  17.526   4.824
 3347POPC   PO445684  15.899  17.099   5.436
 3347POPC   GL145685  15.911  17.306   5.848
 3347POPC   GL245686  16.076  17.628   5.873
 3347POPC   C1A45687  15.757  17.386   6.293
 3347POPC   D2A45688  15.642  17.187   6.683
 3347POPC   C3A45689  15.783  17.283   7.082
 3347POPC   C4A45690  15.747  17.535   7.451
 3347POPC   C1B45691  16.257  17.475   6.276
 3347POPC   C2B45692  16.145  17.401   6.723
 3347POPC   C3B45693  16.236  17.509   7.170
 3347POPC   C4B45694  16.593  17.718   7.408
 3348POPC   NC345695   4.722  30.394   5.525
 3348POPC   PO445696   4.434  29.824   5.243
 3348POPC   GL145697   4.428  30.017   5.668
 3348POPC   GL245698   4.109  30.119   5.711
 3348POPC   C1A45699   4.571  29.927   6.093
 3348POPC   D2A45700   4.655  29.855   6.530
 3348POPC   C3A45701   4.534  29.710   6.920
 3348POPC   C4A45702   4.527  29.911   7.281
 3348POPC   C1B45703   4.062  29.976   6.131
 3348POPC   C2B45704   4.106  29.828   6.560
 3348POPC   C3B45705   4.090  30.024   6.956
 3348POPC   C4B45706   4.121  30.246   7.342
 3349POPC   NC345707  28.628  36.005   5.368
 3349POPC   PO445708  28.217  36.522   5.587
 3349POPC   GL145709  28.251  36.106   5.792
 3349POPC   GL245710  28.579  35.927   5.874
 3349POPC   C1A45711  28.216  36.054   6.238
 3349POPC   D2A45712  28.014  36.149   6.613
 3349POPC   C3A45713  28.071  35.846   6.886
 3349POPC   C4A45714  28.204  35.899   7.263
 3349POPC   C1B45715  28.631  36.339   6.107
 3349POPC   C2B45716  28.705  36.294   6.555
 3349POPC   C3B45717  28.462  36.214   6.927
 3349POPC   C4B45718  28.463  36.331   7.358
 3350POPC   NC345719   6.669   0.958   5.488
 3350POPC   PO445720   6.049   0.953   5.458
 3350POPC   GL145721   6.344   0.960   5.892
 3350POPC   GL245722   6.660   1.211   5.933
 3350POPC   C1A45723   6.433   1.065   6.366
 3350POPC   D2A45724   6.745   1.007   6.714
 3350POPC   C3A45725   6.788   1.244   7.082
 3350POPC   C4A45726   6.547   1.318   7.477
 3350POPC   C1B45727   6.872   1.518   6.228
 3350POPC   C2B45728   7.015   1.493   6.652
 3350POPC   C3B45729   7.004   1.743   6.997
 3350POPC   C4B45730   6.975   1.612   7.388
 3351POPC   NC345731  42.052  38.390   5.508
 3351POPC   PO445732  42.728  38.308   5.431
 3351POPC   GL145733  42.468  38.400   5.833
 3351POPC   GL245734  42.208  38.145   5.942
 3351POPC   C1A45735  42.375  38.541   6.286
 3351POPC   D2A45736  42.496  38.312   6.664
 3351POPC   C3A45737  42.460  38.400   7.115
 3351POPC   C4A45738  42.543  38.229   7.564
 3351POPC   C1B45739  41.875  38.362   6.221
 3351POPC   C2B45740  41.770  38.525   6.638
 3351POPC   C3B45741  41.883  38.413   7.068
 3351POPC   C4B45742  42.084  38.164   7.384
 3352POPC   NC345743  33.985  30.803   5.403
 3352POPC   PO445744  33.290  30.542   5.355
 3352POPC   GL145745  33.545  30.782   5.701
 3352POPC   GL245746  33.766  30.550   5.815
 3352POPC   C1A45747  33.643  30.885   6.184
 3352POPC   D2A45748  33.801  30.990   6.611
 3352POPC   C3A45749  33.697  30.804   7.008
 3352POPC   C4A45750  33.750  30.723   7.442
 3352POPC   C1B45751  33.754  30.378   6.263
 3352POPC   C2B45752  33.915  30.471   6.684
 3352POPC   C3B45753  33.837  30.295   7.120
 3352POPC   C4B45754  33.777  30.249   7.598
 3353POPC   NC345755  23.784  11.256   5.077
 3353POPC   PO445756  23.991  11.643   5.502
 3353POPC   GL145757  23.822  11.543   5.878
 3353POPC   GL245758  23.610  11.294   5.752
 3353POPC   C1A45759  23.796  11.579   6.291
 3353POPC   D2A45760  23.952  11.621   6.643
 3353POPC   C3A45761  23.669  11.669   6.929
 3353POPC   C4A45762  23.771  11.454   7.273
 3353POPC   C1B45763  23.764  11.072   6.127
 3353POPC   C2B45764  23.907  11.109   6.518
 3353POPC   C3B45765  23.964  11.187   6.891
 3353POPC   C4B45766  24.009  10.988   7.224
 3354POPC   NC345767   2.287  14.337   5.750
 3354POPC   PO445768   2.076  14.862   5.324
 3354POPC   GL145769   1.907  14.815   5.800
 3354POPC   GL245770   1.816  14.476   5.934
 3354POPC   C1A45771   1.982  14.825   6.305
 3354POPC   D2A45772   2.283  14.527   6.563
 3354POPC   C3A45773   2.344  14.541   7.045
 3354POPC   C4A45774   2.348  14.705   7.488
 3354POPC   C1B45775   1.671  14.447   6.386
 3354POPC   C2B45776   1.834  14.599   6.817
 3354POPC   C3B45777   1.885  14.339   7.205
 3354POPC   C4B45778   1.629  14.083   7.503
 3355POPC   NC345779   4.501  38.631   5.393
 3355POPC   PO445780   4.089  38.023   5.425
 3355POPC   GL145781   4.370  38.224   5.686
 3355POPC   GL245782   4.142  38.540   5.746
 3355POPC   C1A45783   4.438  38.327   6.107
 3355POPC   D2A45784   4.230  38.295   6.504
 3355POPC   C3A45785   4.540  38.331   6.846
 3355POPC   C4A45786   4.269  38.468   7.143
 3355POPC   C1B45787   4.218  38.814   6.105
 3355POPC   C2B45788   4.137  38.954   6.529
 3355POPC   C3B45789   3.964  38.845   6.896
 3355POPC   C4B45790   4.137  38.961   7.266
 3356POPC   NC345791  21.621  30.881   5.381
 3356POPC   PO445792  22.300  31.104   5.202
 3356POPC   GL145793  22.123  30.816   5.596
 3356POPC   GL245794  22.395  30.615   5.751
 3356POPC   C1A45795  21.997  30.607   6.035
 3356POPC   D2A45796  21.859  30.608   6.471
 3356POPC   C3A45797  22.067  30.791   6.853
 3356POPC   C4A45798  22.375  30.565   7.122
 3356POPC   C1B45799  22.396  30.862   6.185
 3356POPC   C2B45800  22.449  31.070   6.588
 3356POPC   C3B45801  22.520  31.036   7.014
 3356POPC   C4B45802  22.296  30.988   7.382
 3357POPC   NC345803  19.387  36.331   5.620
 3357POPC   PO445804  19.028  35.860   5.290
 3357POPC   GL145805  18.958  36.007   5.745
 3357POPC   GL245806  18.893  36.369   5.762
 3357POPC   C1A45807  18.916  35.877   6.207
 3357POPC   D2A45808  18.822  35.711   6.646
 3357POPC   C3A45809  19.110  35.841   6.946
 3357POPC   C4A45810  19.391  35.824   7.293
 3357POPC   C1B45811  19.112  36.347   6.196
 3357POPC   C2B45812  19.193  36.526   6.619
 3357POPC   C3B45813  19.138  36.354   7.017
 3357POPC   C4B45814  18.940  36.123   7.328
 3358POPC   NC345815  15.444  41.422   5.484
 3358POPC   PO445816  16.127  41.522   5.390
 3358POPC   GL145817  15.900  41.528   5.719
 3358POPC   GL245818  15.828  41.200   5.723
 3358POPC   C1A45819  15.955  41.621   6.135
 3358POPC   D2A45820  16.161  41.548   6.512
 3358POPC   C3A45821  16.221  41.784   6.889
 3358POPC   C4A45822  16.166  41.654   7.319
 3358POPC   C1B45823  15.846  41.125   6.174
 3358POPC   C2B45824  15.663  41.336   6.521
 3358POPC   C3B45825  15.820  41.466   6.905
 3358POPC   C4B45826  15.678  41.746   7.163
 3359POPC   NC345827  14.947  20.707   5.117
 3359POPC   PO445828  15.385  20.479   5.575
 3359POPC   GL145829  15.212  20.600   5.940
 3359POPC   GL245830  15.130  20.914   5.828
 3359POPC   C1A45831  14.934  20.553   6.302
 3359POPC   D2A45832  14.954  20.379   6.720
 3359POPC   C3A45833  15.037  20.594   7.095
 3359POPC   C4A45834  15.364  20.688   7.424
 3359POPC   C1B45835  15.068  21.042   6.259
 3359POPC   C2B45836  15.067  20.905   6.672
 3359POPC   C3B45837  15.249  21.047   7.043
 3359POPC   C4B45838  14.949  21.047   7.361
 3360POPC   NC345839   3.282  36.861   5.450
 3360POPC   PO445840   3.828  36.751   5.602
 3360POPC   GL145841   3.517  36.760   5.884
 3360POPC   GL245842   3.517  37.145   5.816
 3360POPC   C1A45843   3.430  36.566   6.286
 3360POPC   D2A45844   3.691  36.708   6.591
 3360POPC   C3A45845   3.568  36.836   6.971
 3360POPC   C4A45846   3.763  36.765   7.313
 3360POPC   C1B45847   3.506  37.102   6.250
 3360POPC   C2B45848   3.549  37.338   6.584
 3360POPC   C3B45849   3.763  37.340   6.963
 3360POPC   C4B45850   3.444  37.262   7.243
 3361POPC   NC345851  24.974  40.608   5.331
 3361POPC   PO445852  25.594  40.780   5.574
 3361POPC   GL145853  25.445  40.583   5.911
 3361POPC   GL245854  25.100  40.703   5.841
 3361POPC   C1A45855  25.348  40.690   6.321
 3361POPC   D2A45856  25.154  41.021   6.573
 3361POPC   C3A45857  25.189  40.889   7.003
 3361POPC   C4A45858  25.521  40.650   7.205
 3361POPC   C1B45859  24.853  40.783   6.203
 3361POPC   C2B45860  24.903  40.551   6.572
 3361POPC   C3B45861  24.804  40.379   6.934
 3361POPC   C4B45862  25.044  40.485   7.260
 3362POPC   NC345863  35.211   6.018   5.481
 3362POPC   PO445864  35.210   5.448   5.235
 3362POPC   GL145865  35.334   5.597   5.744
 3362POPC   GL245866  35.545   5.925   5.833
 3362POPC   C1A45867  35.175   5.826   6.176
 3362POPC   D2A45868  34.850   5.953   6.524
 3362POPC   C3A45869  34.988   5.934   6.982
 3362POPC   C4A45870  35.281   5.709   7.295
 3362POPC   C1B45871  35.764   6.220   6.129
 3362POPC   C2B45872  35.684   6.224   6.588
 3362POPC   C3B45873  35.684   6.015   7.004
 3362POPC   C4B45874  35.605   6.083   7.433
 3363POPC   NC345875   6.496  35.862   5.371
 3363POPC   PO445876   6.827  36.449   5.344
 3363POPC   GL145877   6.569  36.289   5.671
 3363POPC   GL245878   6.806  36.037   5.745
 3363POPC   C1A45879   6.423  36.110   6.082
 3363POPC   D2A45880   6.447  36.231   6.513
 3363POPC   C3A45881   6.584  35.996   6.871
 3363POPC   C4A45882   6.420  35.719   7.179
 3363POPC   C1B45883   6.951  36.138   6.164
 3363POPC   C2B45884   6.973  36.255   6.611
 3363POPC   C3B45885   6.959  36.309   7.052
 3363POPC   C4B45886   7.042  36.073   7.427
 3364POPC   NC345887   5.616  29.009   5.307
 3364POPC   PO445888   6.230  29.181   5.454
 3364POPC   GL145889   5.982  29.398   5.774
 3364POPC   GL245890   5.667  29.403   5.656
 3364POPC   C1A45891   5.983  29.429   6.241
 3364POPC   D2A45892   6.057  29.559   6.730
 3364POPC   C3A45893   5.921  29.248   7.073
 3364POPC   C4A45894   5.863  29.170   7.524
 3364POPC   C1B45895   5.515  29.272   6.060
 3364POPC   C2B45896   5.313  29.343   6.430
 3364POPC   C3B45897   5.481  29.395   6.839
 3364POPC   C4B45898   5.411  29.252   7.267
 3365POPC   NC345899  18.785  28.949   5.224
 3365POPC   PO445900  19.353  29.273   5.340
 3365POPC   GL145901  19.091  29.100   5.669
 3365POPC   GL245902  18.729  29.109   5.721
 3365POPC   C1A45903  19.102  29.168   6.110
 3365POPC   D2A45904  19.295  29.086   6.507
 3365POPC   C3A45905  19.209  29.233   6.926
 3365POPC   C4A45906  19.482  29.075   7.258
 3365POPC   C1B45907  18.587  29.173   6.167
 3365POPC   C2B45908  18.790  29.270   6.587
 3365POPC   C3B45909  18.660  29.194   7.040
 3365POPC   C4B45910  18.696  28.896   7.436
 3366POPC   NC345911  30.202  12.805   5.027
 3366POPC   PO445912  29.966  13.307   5.461
 3366POPC   GL145913  29.981  12.919   5.678
 3366POPC   GL245914  30.188  12.674   5.514
 3366POPC   C1A45915  29.898  12.856   6.124
 3366POPC   D2A45916  30.073  13.080   6.494
 3366POPC   C3A45917  29.985  12.839   6.851
 3366POPC   C4A45918  29.794  12.793   7.248
 3366POPC   C1B45919  30.243  12.512   5.934
 3366POPC   C2B45920  30.270  12.573   6.375
 3366POPC   C3B45921  30.295  12.443   6.798
 3366POPC   C4B45922  30.335  12.693   7.200
 3367POPC   NC345923  41.073  32.710   5.448
 3367POPC   PO445924  40.486  32.961   5.720
 3367POPC   GL145925  40.869  32.987   5.901
 3367POPC   GL245926  40.883  33.370   5.865
 3367POPC   C1A45927  40.947  32.835   6.327
 3367POPC   D2A45928  40.969  32.844   6.766
 3367POPC   C3A45929  40.630  32.894   7.035
 3367POPC   C4A45930  40.720  32.936   7.451
 3367POPC   C1B45931  40.790  33.323   6.303
 3367POPC   C2B45932  40.627  33.306   6.712
 3367POPC   C3B45933  40.922  33.313   7.024
 3367POPC   C4B45934  41.258  33.414   7.205
 3368POPC   NC345935  33.287  39.454   5.158
 3368POPC   PO445936  32.931  38.849   5.236
 3368POPC   GL145937  33.082  39.124   5.590
 3368POPC   GL245938  32.789  39.337   5.723
 3368POPC   C1A45939  33.178  39.085   6.066
 3368POPC   D2A45940  32.919  38.908   6.413
 3368POPC   C3A45941  32.981  38.971   6.851
 3368POPC   C4A45942  33.091  39.085   7.264
 3368POPC   C1B45943  32.802  39.418   6.187
 3368POPC   C2B45944  33.042  39.402   6.580
 3368POPC   C3B45945  32.848  39.445   6.987
 3368POPC   C4B45946  32.582  39.122   7.172
 3369POPC   NC345947  34.129  11.796   5.520
 3369POPC   PO445948  34.832  11.633   5.523
 3369POPC   GL145949  34.852  11.398   5.918
 3369POPC   GL245950  34.639  11.124   5.833
 3369POPC   C1A45951  34.741  11.429   6.348
 3369POPC   D2A45952  34.571  11.579   6.728
 3369POPC   C3A45953  34.754  11.368   7.084
 3369POPC   C4A45954  34.966  11.676   7.318
 3369POPC   C1B45955  34.776  10.922   6.197
 3369POPC   C2B45956  34.603  10.983   6.620
 3369POPC   C3B45957  34.308  11.168   6.885
 3369POPC   C4B45958  34.304  11.238   7.304
 3370POPC   NC345959  40.507  26.984   5.544
 3370POPC   PO445960  41.130  26.650   5.406
 3370POPC   GL145961  40.908  26.740   5.804
 3370POPC   GL245962  40.675  26.478   5.925
 3370POPC   C1A45963  40.902  27.100   6.115
 3370POPC   D2A45964  41.070  27.249   6.521
 3370POPC   C3A45965  40.902  27.165   6.935
 3370POPC   C4A45966  40.916  26.794   7.206
 3370POPC   C1B45967  40.575  26.750   6.318
 3370POPC   C2B45968  40.601  26.754   6.789
 3370POPC   C3B45969  40.396  26.734   7.217
 3370POPC   C4B45970  40.228  26.983   7.534
 3371POPC   NC345971  13.458  33.497   5.365
 3371POPC   PO445972  13.597  32.853   5.330
 3371POPC   GL145973  13.532  32.840   5.770
 3371POPC   GL245974  13.682  33.195   5.818
 3371POPC   C1A45975  13.436  32.968   6.189
 3371POPC   D2A45976  13.618  33.241   6.514
 3371POPC   C3A45977  13.538  33.105   6.916
 3371POPC   C4A45978  13.584  32.826   7.272
 3371POPC   C1B45979  14.003  33.271   6.158
 3371POPC   C2B45980  14.148  33.182   6.601
 3371POPC   C3B45981  14.005  33.293   7.007
 3371POPC   C4B45982  13.773  33.281   7.397
 3372POPC   NC345983   7.540   3.403   5.407
 3372POPC   PO445984   7.191   3.950   5.481
 3372POPC   GL145985   7.378   3.729   5.859
 3372POPC   GL245986   7.634   3.445   5.915
 3372POPC   C1A45987   7.335   3.599   6.310
 3372POPC   D2A45988   7.445   3.342   6.683
 3372POPC   C3A45989   7.305   3.635   6.996
 3372POPC   C4A45990   7.307   3.890   7.369
 3372POPC   C1B45991   7.831   3.702   6.266
 3372POPC   C2B45992   7.748   3.839   6.706
 3372POPC   C3B45993   7.783   3.700   7.146
 3372POPC   C4B45994   7.628   3.252   7.190
 3373POPC   NC345995   3.326  19.995   5.466
 3373POPC   PO445996   3.899  19.903   5.154
 3373POPC   GL145997   3.785  19.768   5.612
 3373POPC   GL245998   3.459  19.530   5.657
 3373POPC   C1A45999   3.876  19.902   6.076
 3373POPC   D2A46000   3.615  20.045   6.433
 3373POPC   C3A46001   3.691  19.925   6.867
 3373POPC   C4A46002   3.422  20.055   7.215
 3373POPC   C1B46003   3.439  19.659   6.094
 3373POPC   C2B46004   3.518  19.559   6.531
 3373POPC   C3B46005   3.313  19.599   6.934
 3373POPC   C4B46006   3.561  19.508   7.269
 3374POPC   NC346007  22.727  26.181   5.500
 3374POPC   PO446008  23.315  26.313   5.147
 3374POPC   GL146009  23.247  26.245   5.704
 3374POPC   GL246010  23.060  25.930   5.808
 3374POPC   C1A46011  23.182  26.132   6.243
 3374POPC   D2A46012  23.074  26.245   6.713
 3374POPC   C3A46013  23.049  26.192   7.202
 3374POPC   C4A46014  22.942  26.342   7.636
 3374POPC   C1B46015  22.713  25.888   6.119
 3374POPC   C2B46016  22.712  25.805   6.562
 3374POPC   C3B46017  22.764  25.823   7.011
 3374POPC   C4B46018  22.685  25.915   7.455
 3375POPC   NC346019  39.581  10.682   5.584
 3375POPC   PO446020  39.090  10.270   5.334
 3375POPC   GL146021  39.078  10.440   5.737
 3375POPC   GL246022  39.073  10.106   5.877
 3375POPC   C1A46023  39.196  10.696   6.107
 3375POPC   D2A46024  39.175  10.638   6.555
 3375POPC   C3A46025  39.324  10.905   6.876
 3375POPC   C4A46026  39.295  10.810   7.283
 3375POPC   C1B46027  39.201  10.197   6.294
 3375POPC   C2B46028  39.188  10.152   6.723
 3375POPC   C3B46029  39.299  10.226   7.150
 3375POPC   C4B46030  39.012  10.350   7.466
 3376POPC   NC346031  21.572  13.894   5.459
 3376POPC   PO446032  20.964  13.448   5.527
 3376POPC   GL146033  21.267  13.653   5.805
 3376POPC   GL246034  21.604  13.508   5.792
 3376POPC   C1A46035  21.299  13.777   6.237
 3376POPC   D2A46036  21.519  13.616   6.602
 3376POPC   C3A46037  21.476  13.824   6.982
 3376POPC   C4A46038  21.150  13.778   7.286
 3376POPC   C1B46039  21.665  13.337   6.184
 3376POPC   C2B46040  21.793  13.159   6.578
 3376POPC   C3B46041  21.847  13.376   6.966
 3376POPC   C4B46042  21.647  13.508   7.335
 3377POPC   NC346043   7.707  13.913   5.637
 3377POPC   PO446044   7.246  13.475   5.404
 3377POPC   GL146045   7.284  13.665   5.751
 3377POPC   GL246046   7.013  13.882   5.753
 3377POPC   C1A46047   7.411  13.448   6.120
 3377POPC   D2A46048   7.257  13.499   6.539
 3377POPC   C3A46049   7.551  13.581   6.854
 3377POPC   C4A46050   7.436  13.647   7.259
 3377POPC   C1B46051   7.152  13.880   6.191
 3377POPC   C2B46052   7.220  14.051   6.609
 3377POPC   C3B46053   7.062  13.802   6.949
 3377POPC   C4B46054   6.868  13.771   7.351
 3378POPC   NC346055  31.370  40.655   5.379
 3378POPC   PO446056  31.219  41.229   5.643
 3378POPC   GL146057  31.351  40.844   5.864
 3378POPC   GL246058  31.287  40.459   5.838
 3378POPC   C1A46059  31.306  40.775   6.284
 3378POPC   D2A46060  31.594  40.845   6.608
 3378POPC   C3A46061  31.569  41.031   7.020
 3378POPC   C4A46062  31.532  40.834   7.391
 3378POPC   C1B46063  31.274  40.232   6.219
 3378POPC   C2B46064  31.296  40.381   6.618
 3378POPC   C3B46065  31.493  40.507   6.989
 3378POPC   C4B46066  31.388  40.300   7.328
 3379POPC   NC346067  10.682  33.724   5.447
 3379POPC   PO446068  10.243  34.053   5.181
 3379POPC   GL146069  10.360  34.025   5.674
 3379POPC   GL246070  10.739  34.086   5.812
 3379POPC   C1A46071  10.444  33.757   6.068
 3379POPC   D2A46072  10.524  33.707   6.507
 3379POPC   C3A46073  10.196  33.649   6.795
 3379POPC   C4A46074  10.255  33.686   7.232
 3379POPC   C1B46075  10.949  34.179   6.236
 3379POPC   C2B46076  10.944  34.029   6.653
 3379POPC   C3B46077  10.746  33.872   7.038
 3379POPC   C4B46078  10.841  33.977   7.483
 3380POPC   NC346079   5.632   3.525   5.475
 3380POPC   PO446080   5.334   4.019   5.588
 3380POPC   GL146081   5.541   3.727   5.929
 3380POPC   GL246082   5.915   3.582   5.887
 3380POPC   C1A46083   5.788   3.848   6.288
 3380POPC   D2A46084   5.671   3.909   6.674
 3380POPC   C3A46085   5.958   3.872   6.980
 3380POPC   C4A46086   5.662   3.884   7.294
 3380POPC   C1B46087   5.759   3.334   6.232
 3380POPC   C2B46088   5.553   3.407   6.619
 3380POPC   C3B46089   5.640   3.438   7.042
 3380POPC   C4B46090   6.061   3.387   7.207
 3381POPC   NC346091  28.336  38.387   5.256
 3381POPC   PO446092  28.184  38.832   5.715
 3381POPC   GL146093  28.360  38.463   5.743
 3381POPC   GL246094  28.659  38.622   5.607
 3381POPC   C1A46095  28.349  38.211   6.094
 3381POPC   D2A46096  28.035  38.196   6.401
 3381POPC   C3A46097  28.215  38.189   6.799
 3381POPC   C4A46098  28.207  38.291   7.226
 3381POPC   C1B46099  28.663  38.607   6.097
 3381POPC   C2B46100  28.489  38.568   6.500
 3381POPC   C3B46101  28.457  38.675   6.931
 3381POPC   C4B46102  28.695  38.559   7.275
 3382POPC   NC346103  13.570  29.554   5.316
 3382POPC   PO446104  13.934  28.982   5.169
 3382POPC   GL146105  13.639  29.063   5.617
 3382POPC   GL246106  13.367  29.363   5.736
 3382POPC   C1A46107  13.620  28.961   6.105
 3382POPC   D2A46108  13.534  29.038   6.592
 3382POPC   C3A46109  13.733  28.893   7.002
 3382POPC   C4A46110  13.932  29.167   7.317
 3382POPC   C1B46111  13.620  29.489   6.087
 3382POPC   C2B46112  13.804  29.457   6.504
 3382POPC   C3B46113  13.667  29.415   6.940
 3382POPC   C4B46114  13.474  29.400   7.376
 3383POPC   NC346115   4.908  29.573   5.312
 3383POPC   PO446116   5.139  30.281   5.325
 3383POPC   GL146117   5.108  30.043   5.704
 3383POPC   GL246118   5.370  30.223   5.876
 3383POPC   C1A46119   5.074  29.929   6.169
 3383POPC   D2A46120   5.169  29.809   6.588
 3383POPC   C3A46121   5.009  30.003   6.926
 3383POPC   C4A46122   5.024  29.889   7.349
 3383POPC   C1B46123   5.503  30.209   6.335
 3383POPC   C2B46124   5.478  30.335   6.785
 3383POPC   C3B46125   5.356  30.257   7.241
 3383POPC   C4B46126   5.450  30.010   7.648
 3384POPC   NC346127   8.893  18.554   5.563
 3384POPC   PO446128   9.320  18.149   5.396
 3384POPC   GL146129   9.126  18.139   5.807
 3384POPC   GL246130   8.760  18.072   5.872
 3384POPC   C1A46131   9.072  18.313   6.222
 3384POPC   D2A46132   8.863  18.201   6.584
 3384POPC   C3A46133   8.837  18.269   6.992
 3384POPC   C4A46134   9.181  18.414   7.159
 3384POPC   C1B46135   8.672  17.834   6.286
 3384POPC   C2B46136   8.597  17.800   6.772
 3384POPC   C3B46137   8.634  17.855   7.230
 3384POPC   C4B46138   8.788  18.170   7.507
 3385POPC   NC346139   2.443  39.333   5.363
 3385POPC   PO446140   1.792  39.243   5.210
 3385POPC   GL146141   2.006  39.382   5.635
 3385POPC   GL246142   2.059  39.064   5.743
 3385POPC   C1A46143   2.173  39.403   6.102
 3385POPC   D2A46144   2.022  39.218   6.480
 3385POPC   C3A46145   2.173  39.325   6.872
 3385POPC   C4A46146   2.160  39.643   7.196
 3385POPC   C1B46147   2.200  38.878   6.131
 3385POPC   C2B46148   2.318  38.794   6.569
 3385POPC   C3B46149   2.431  38.858   7.013
 3385POPC   C4B46150   2.457  39.204   7.311
 3386POPC   NC346151  32.970  32.134   5.283
 3386POPC   PO446152  33.053  32.723   5.583
 3386POPC   GL146153  33.152  32.459   5.936
 3386POPC   GL246154  33.159  32.125   5.785
 3386POPC   C1A46155  33.216  32.295   6.370
 3386POPC   D2A46156  33.037  32.432   6.769
 3386POPC   C3A46157  33.121  32.270   7.184
 3386POPC   C4A46158  32.747  32.453   7.358
 3386POPC   C1B46159  32.860  32.020   6.111
 3386POPC   C2B46160  32.853  31.962   6.584
 3386POPC   C3B46161  32.743  31.922   7.047
 3386POPC   C4B46162  32.967  31.733   7.415
 3387POPC   NC346163  12.218  38.429   5.213
 3387POPC   PO446164  11.725  38.727   5.604
 3387POPC   GL146165  12.099  38.525   5.784
 3387POPC   GL246166  12.140  38.158   5.677
 3387POPC   C1A46167  12.163  38.475   6.256
 3387POPC   D2A46168  12.312  38.329   6.670
 3387POPC   C3A46169  12.179  38.553   7.044
 3387POPC   C4A46170  12.270  38.652   7.478
 3387POPC   C1B46171  11.969  38.027   6.101
 3387POPC   C2B46172  11.783  38.079   6.550
 3387POPC   C3B46173  11.995  38.060   6.973
 3387POPC   C4B46174  11.991  38.211   7.394
 3388POPC   NC346175   7.526  39.929   5.434
 3388POPC   PO446176   7.004  40.254   5.678
 3388POPC   GL146177   7.446  40.285   5.781
 3388POPC   GL246178   7.352  39.956   5.945
 3388POPC   C1A46179   7.725  40.243   6.136
 3388POPC   D2A46180   7.683  39.904   6.436
 3388POPC   C3A46181   7.614  40.072   6.842
 3388POPC   C4A46182   7.387  40.011   7.209
 3388POPC   C1B46183   6.965  39.724   6.090
 3388POPC   C2B46184   6.846  39.696   6.507
 3388POPC   C3B46185   7.113  39.713   6.857
 3388POPC   C4B46186   6.963  39.736   7.253
 3389POPC   NC346187  31.770  17.591   5.629
 3389POPC   PO446188  32.265  17.144   5.430
 3389POPC   GL146189  32.285  17.209   5.830
 3389POPC   GL246190  32.249  17.582   5.817
 3389POPC   C1A46191  32.519  17.353   6.177
 3389POPC   D2A46192  32.390  17.575   6.510
 3389POPC   C3A46193  32.413  17.348   6.867
 3389POPC   C4A46194  32.293  17.554   7.228
 3389POPC   C1B46195  32.001  17.423   6.216
 3389POPC   C2B46196  31.972  17.226   6.639
 3389POPC   C3B46197  31.872  17.303   7.092
 3389POPC   C4B46198  32.053  17.282   7.577
 3390POPC   NC346199   5.804  13.263   5.480
 3390POPC   PO446200   6.005  13.847   5.165
 3390POPC   GL146201   5.896  13.789   5.642
 3390POPC   GL246202   6.179  13.849   5.852
 3390POPC   C1A46203   5.758  13.644   6.109
 3390POPC   D2A46204   5.480  13.508   6.498
 3390POPC   C3A46205   5.564  13.512   6.965
 3390POPC   C4A46206   5.581  13.848   7.299
 3390POPC   C1B46207   6.279  13.586   6.208
 3390POPC   C2B46208   6.059  13.613   6.585
 3390POPC   C3B46209   5.898  13.898   6.875
 3390POPC   C4B46210   6.032  13.640   7.164
 3391POPC   NC346211  16.511  26.710   5.199
 3391POPC   PO446212  15.947  27.095   5.341
 3391POPC   GL146213  16.074  26.717   5.678
 3391POPC   GL246214  16.399  26.739   5.815
 3391POPC   C1A46215  15.909  26.681   6.144
 3391POPC   D2A46216  15.717  26.775   6.565
 3391POPC   C3A46217  15.968  26.772   6.941
 3391POPC   C4A46218  15.881  26.591   7.319
 3391POPC   C1B46219  16.356  26.919   6.231
 3391POPC   C2B46220  16.413  26.878   6.666
 3391POPC   C3B46221  16.362  27.103   7.043
 3391POPC   C4B46222  16.143  26.991   7.431
 3392POPC   NC346223  27.825  34.681   5.394
 3392POPC   PO446224  27.573  34.015   5.361
 3392POPC   GL146225  27.584  34.255   5.773
 3392POPC   GL246226  27.524  34.631   5.831
 3392POPC   C1A46227  27.486  34.292   6.223
 3392POPC   D2A46228  27.434  34.033   6.587
 3392POPC   C3A46229  27.444  34.210   6.999
 3392POPC   C4A46230  27.562  34.519   7.291
 3392POPC   C1B46231  27.667  34.776   6.278
 3392POPC   C2B46232  27.766  34.923   6.738
 3392POPC   C3B46233  27.860  34.911   7.199
 3392POPC   C4B46234  27.695  34.840   7.668
 3393POPC   NC346235   0.452  42.099   5.514
 3393POPC   PO446236   0.048  42.646   5.415
 3393POPC   GL146237   0.266  42.506   5.861
 3393POPC   GL246238   0.355  42.126   5.995
 3393POPC   C1A46239   0.345  42.479   6.339
 3393POPC   D2A46240   0.118  42.484   6.716
 3393POPC   C3A46241   0.302  42.409   7.068
 3393POPC   C4A46242   0.754  42.435   7.165
 3393POPC   C1B46243   0.391  41.847   6.339
 3393POPC   C2B46244   0.415  41.843   6.783
 3393POPC   C3B46245   0.522  41.978   7.209
 3393POPC   C4B46246   0.173  42.007   7.511
 3394POPC   NC346247  10.060  14.782   5.516
 3394POPC   PO446248  10.326  14.196   5.396
 3394POPC   GL146249  10.477  14.278   5.788
 3394POPC   GL246250  10.382  14.620   5.901
 3394POPC   C1A46251  10.380  14.204   6.189
 3394POPC   D2A46252  10.487  14.502   6.512
 3394POPC   C3A46253  10.499  14.344   6.923
 3394POPC   C4A46254  10.618  14.108   7.276
 3394POPC   C1B46255  10.233  14.919   6.222
 3394POPC   C2B46256  10.052  14.861   6.658
 3394POPC   C3B46257  10.094  14.620   7.043
 3394POPC   C4B46258  10.434  14.585   7.388
 3395POPC   NC346259  32.897  33.786   5.216
 3395POPC   PO446260  33.490  34.116   5.388
 3395POPC   GL146261  33.238  33.869   5.665
 3395POPC   GL246262  32.868  33.810   5.736
 3395POPC   C1A46263  33.258  33.782   6.101
 3395POPC   D2A46264  33.082  33.800   6.505
 3395POPC   C3A46265  33.288  33.643   6.889
 3395POPC   C4A46266  33.175  33.677   7.339
 3395POPC   C1B46267  32.647  33.837   6.148
 3395POPC   C2B46268  32.560  33.958   6.583
 3395POPC   C3B46269  32.774  33.790   6.972
 3395POPC   C4B46270  32.702  33.530   7.352
 3396POPC   NC346271  33.321  12.694   5.061
 3396POPC   PO446272  33.063  12.153   5.400
 3396POPC   GL146273  33.068  12.019   5.814
 3396POPC   GL246274  32.729  11.918   5.853
 3396POPC   C1A46275  33.222  12.255   6.160
 3396POPC   D2A46276  33.075  12.370   6.546
 3396POPC   C3A46277  33.284  12.201   6.902
 3396POPC   C4A46278  33.215  12.304   7.334
 3396POPC   C1B46279  32.744  12.066   6.288
 3396POPC   C2B46280  32.913  11.873   6.688
 3396POPC   C3B46281  32.897  11.951   7.149
 3396POPC   C4B46282  32.758  12.026   7.604
 3397POPC   NC346283  39.953  15.707   5.432
 3397POPC   PO446284  40.064  16.405   5.450
 3397POPC   GL146285  40.106  16.120   5.812
 3397POPC   GL246286  40.313  15.812   5.795
 3397POPC   C1A46287  40.157  16.096   6.284
 3397POPC   D2A46288  40.191  16.039   6.748
 3397POPC   C3A46289  39.810  16.174   6.953
 3397POPC   C4A46290  39.850  16.234   7.377
 3397POPC   C1B46291  40.127  15.589   6.159
 3397POPC   C2B46292  39.866  15.698   6.538
 3397POPC   C3B46293  39.943  15.656   6.998
 3397POPC   C4B46294  40.119  15.801   7.409
 3398POPC   NC346295   2.074  44.664   5.255
 3398POPC   PO446296   2.435  44.219   5.669
 3398POPC   GL146297   2.204  44.510   5.928
 3398POPC   GL246298   2.016  44.769   5.772
 3398POPC   C1A46299   2.051  44.579   6.298
 3398POPC   D2A46300   1.829  44.427   6.590
 3398POPC   C3A46301   2.105  44.543   6.888
 3398POPC   C4A46302   2.064  44.517   7.277
 3398POPC   C1B46303   2.209   0.028   6.132
 3398POPC   C2B46304   2.039   0.074   6.543
 3398POPC   C3B46305   1.800   0.174   6.884
 3398POPC   C4B46306   2.031   0.001   7.167
 3399POPC   NC346307  43.585  33.824   5.523
 3399POPC   PO446308  43.002  33.682   5.301
 3399POPC   GL146309  43.084  33.967   5.628
 3399POPC   GL246310  42.870  33.807   5.838
 3399POPC   C1A46311  43.255  34.083   6.051
 3399POPC   D2A46312  43.347  33.852   6.453
 3399POPC   C3A46313  43.353  34.056   6.872
 3399POPC   C4A46314  43.411  33.904   7.298
 3399POPC   C1B46315  42.876  33.846   6.311
 3399POPC   C2B46316  42.915  33.790   6.752
 3399POPC   C3B46317  42.922  33.734   7.213
 3399POPC   C4B46318  42.747  33.642   7.609
 3400POPC   NC346319  11.310  38.621   5.443
 3400POPC   PO446320  10.820  38.321   5.732
 3400POPC   GL146321  11.121  38.538   5.931
 3400POPC   GL246322  11.461  38.387   5.898
 3400POPC   C1A46323  11.091  38.629   6.355
 3400POPC   D2A46324  11.404  38.562   6.649
 3400POPC   C3A46325  11.152  38.533   6.994
 3400POPC   C4A46326  11.216  38.585   7.391
 3400POPC   C1B46327  11.338  38.173   6.290
 3400POPC   C2B46328  11.282  38.072   6.744
 3400POPC   C3B46329  11.552  38.252   7.091
 3400POPC   C4B46330  11.519  38.228   7.569
 3401POPC   NC346331  39.144  27.891   5.394
 3401POPC   PO446332  39.639  27.516   5.170
 3401POPC   GL146333  39.323  27.449   5.600
 3401POPC   GL246334  39.252  27.765   5.858
 3401POPC   C1A46335  39.079  27.330   6.026
 3401POPC   D2A46336  38.975  27.597   6.419
 3401POPC   C3A46337  39.081  27.423   6.847
 3401POPC   C4A46338  39.061  27.217   7.262
 3401POPC   C1B46339  39.500  27.867   6.202
 3401POPC   C2B46340  39.337  27.905   6.600
 3401POPC   C3B46341  39.171  27.927   6.955
 3401POPC   C4B46342  39.469  28.054   7.227
 3402POPC   NC346343  22.781  43.064   5.393
 3402POPC   PO446344  23.148  42.477   5.637
 3402POPC   GL146345  23.039  42.918   5.855
 3402POPC   GL246346  22.750  43.185   5.863
 3402POPC   C1A46347  23.043  43.169   6.266
 3402POPC   D2A46348  22.884  43.021   6.660
 3402POPC   C3A46349  22.666  43.249   6.970
 3402POPC   C4A46350  22.823  43.188   7.357
 3402POPC   C1B46351  22.490  43.305   6.183
 3402POPC   C2B46352  22.374  43.139   6.563
 3402POPC   C3B46353  22.245  42.888   6.892
 3402POPC   C4B46354  22.341  43.002   7.295
 3403POPC   NC346355   5.107  12.483   5.440
 3403POPC   PO446356   5.383  13.082   5.332
 3403POPC   GL146357   5.387  13.045   5.795
 3403POPC   GL246358   5.103  12.803   5.862
 3403POPC   C1A46359   5.322  13.062   6.275
 3403POPC   D2A46360   5.089  12.779   6.586
 3403POPC   C3A46361   4.989  12.928   7.041
 3403POPC   C4A46362   5.064  13.062   7.511
 3403POPC   C1B46363   4.787  12.579   6.146
 3403POPC   C2B46364   4.780  12.353   6.598
 3403POPC   C3B46365   4.672  12.501   7.021
 3403POPC   C4B46366   4.823  12.624   7.450
 3404POPC   NC346367   9.368  43.983   5.440
 3404POPC   PO446368   9.987  43.640   5.435
 3404POPC   GL146369   9.730  43.809   5.794
 3404POPC   GL246370   9.794  44.201   5.773
 3404POPC   C1A46371   9.723  43.630   6.241
 3404POPC   D2A46372  10.044  43.705   6.594
 3404POPC   C3A46373   9.953  43.632   7.048
 3404POPC   C4A46374  10.141  43.725   7.461
 3404POPC   C1B46375   9.733  44.135   6.231
 3404POPC   C2B46376   9.613  43.977   6.662
 3404POPC   C3B46377   9.491  43.845   7.063
 3404POPC   C4B46378   9.739  44.036   7.374
 3405POPC   NC346379  35.723  29.359   5.338
 3405POPC   PO446380  35.139  29.017   5.441
 3405POPC   GL146381  35.412  29.193   5.760
 3405POPC   GL246382  35.731  29.002   5.786
 3405POPC   C1A46383  35.442  29.166   6.226
 3405POPC   D2A46384  35.212  29.126   6.635
 3405POPC   C3A46385  35.379  29.321   7.017
 3405POPC   C4A46386  35.278  29.121   7.404
 3405POPC   C1B46387  35.804  28.755   6.187
 3405POPC   C2B46388  35.776  28.984   6.608
 3405POPC   C3B46389  35.617  28.873   7.021
 3405POPC   C4B46390  35.777  28.980   7.425
 3406POPC   NC346391  10.998  40.703   5.414
 3406POPC   PO446392  10.403  40.829   5.492
 3406POPC   GL146393  10.599  40.695   5.820
 3406POPC   GL246394  10.852  40.947   5.848
 3406POPC   C1A46395  10.468  40.656   6.243
 3406POPC   D2A46396  10.146  40.700   6.549
 3406POPC   C3A46397  10.322  40.931   6.877
 3406POPC   C4A46398  10.743  40.925   7.042
 3406POPC   C1B46399  10.976  40.562   6.123
 3406POPC   C2B46400  10.869  40.428   6.536
 3406POPC   C3B46401  11.076  40.539   6.921
 3406POPC   C4B46402  10.961  40.501   7.322
 3407POPC   NC346403   0.248  37.875   5.359
 3407POPC   PO446404   0.698  37.495   5.402
 3407POPC   GL146405   0.604  37.778   5.755
 3407POPC   GL246406   0.309  37.938   5.852
 3407POPC   C1A46407   0.774  37.845   6.160
 3407POPC   D2A46408   0.625  37.573   6.514
 3407POPC   C3A46409   0.668  37.729   6.919
 3407POPC   C4A46410   0.663  37.764   7.343
 3407POPC   C1B46411   0.286  37.897   6.284
 3407POPC   C2B46412   0.385  38.120   6.672
 3407POPC   C3B46413   0.301  38.063   7.103
 3407POPC   C4B46414   0.148  37.667   7.222
 3408POPC   NC346415  39.594  22.991   5.533
 3408POPC   PO446416  40.142  22.871   5.170
 3408POPC   GL146417  40.096  22.951   5.651
 3408POPC   GL246418  39.906  23.229   5.853
 3408POPC   C1A46419  40.141  22.836   6.109
 3408POPC   D2A46420  40.234  23.019   6.524
 3408POPC   C3A46421  40.116  22.992   6.951
 3408POPC   C4A46422  40.341  23.211   7.310
 3408POPC   C1B46423  39.687  23.044   6.226
 3408POPC   C2B46424  39.747  23.238   6.601
 3408POPC   C3B46425  39.610  23.470   6.927
 3408POPC   C4B46426  39.837  23.308   7.261
 3409POPC   NC346427   8.518  38.938   5.579
 3409POPC   PO446428   8.028  39.341   5.690
 3409POPC   GL146429   8.247  39.148   5.941
 3409POPC   GL246430   8.075  38.856   5.881
 3409POPC   C1A46431   8.426  39.145   6.305
 3409POPC   D2A46432   8.203  39.215   6.679
 3409POPC   C3A46433   8.360  39.422   7.029
 3409POPC   C4A46434   8.263  39.698   7.366
 3409POPC   C1B46435   7.939  38.912   6.299
 3409POPC   C2B46436   7.841  38.831   6.720
 3409POPC   C3B46437   8.077  38.924   7.074
 3409POPC   C4B46438   8.516  38.941   7.091
 3410POPC   NC346439  10.237  23.226   5.458
 3410POPC   PO446440  10.759  22.943   5.220
 3410POPC   GL146441  10.655  22.867   5.663
 3410POPC   GL246442  10.767  22.525   5.717
 3410POPC   C1A46443  10.653  22.923   6.139
 3410POPC   D2A46444  10.369  22.942   6.541
 3410POPC   C3A46445  10.453  23.063   6.990
 3410POPC   C4A46446  10.357  22.947   7.457
 3410POPC   C1B46447  10.895  22.459   6.140
 3410POPC   C2B46448  10.758  22.606   6.532
 3410POPC   C3B46449  10.676  22.575   6.958
 3410POPC   C4B46450  10.963  22.357   7.207
 3411POPC   NC346451  16.515  24.518   5.384
 3411POPC   PO446452  17.112  24.815   5.349
 3411POPC   GL146453  16.765  24.834   5.690
 3411POPC   GL246454  16.854  25.092   5.895
 3411POPC   C1A46455  16.492  24.599   6.040
 3411POPC   D2A46456  16.667  24.336   6.401
 3411POPC   C3A46457  16.544  24.360   6.846
 3411POPC   C4A46458  16.835  24.342   7.192
 3411POPC   C1B46459  16.920  24.790   6.240
 3411POPC   C2B46460  16.765  24.794   6.656
 3411POPC   C3B46461  16.708  24.861   7.083
 3411POPC   C4B46462  16.889  25.165   7.359
 3412POPC   NC346463  36.707  11.056   5.149
 3412POPC   PO446464  37.077  11.508   5.260
 3412POPC   GL146465  37.080  11.297   5.703
 3412POPC   GL246466  37.145  11.517   5.989
 3412POPC   C1A46467  36.862  11.117   6.127
 3412POPC   D2A46468  36.714  11.283   6.555
 3412POPC   C3A46469  36.980  11.143   6.919
 3412POPC   C4A46470  37.201  11.154   7.314
 3412POPC   C1B46471  36.716  11.626   6.148
 3412POPC   C2B46472  36.516  11.787   6.523
 3412POPC   C3B46473  36.672  11.837   6.960
 3412POPC   C4B46474  37.050  11.625   7.096
 3413POPC   NC346475  16.924   9.870   5.439
 3413POPC   PO446476  16.926   9.266   5.149
 3413POPC   GL146477  16.727   9.419   5.614
 3413POPC   GL246478  16.895   9.334   5.924
 3413POPC   C1A46479  16.611   9.733   6.016
 3413POPC   D2A46480  16.698   9.890   6.456
 3413POPC   C3A46481  16.501   9.763   6.850
 3413POPC   C4A46482  16.593   9.876   7.278
 3413POPC   C1B46483  17.124   9.257   6.296
 3413POPC   C2B46484  17.055   9.415   6.709
 3413POPC   C3B46485  16.875   9.496   7.104
 3413POPC   C4B46486  16.949   9.557   7.550
 3414POPC   NC346487  17.839  42.007   5.438
 3414POPC   PO446488  17.458  42.578   5.406
 3414POPC   GL146489  17.373  42.381   5.797
 3414POPC   GL246490  17.561  42.115   5.851
 3414POPC   C1A46491  17.580  42.491   6.195
 3414POPC   D2A46492  17.613  42.725   6.573
 3414POPC   C3A46493  17.498  42.558   6.981
 3414POPC   C4A46494  17.553  42.464   7.422
 3414POPC   C1B46495  17.553  41.943   6.225
 3414POPC   C2B46496  17.667  42.003   6.638
 3414POPC   C3B46497  17.543  42.069   7.069
 3414POPC   C4B46498  17.264  41.910   7.366
 3415POPC   NC346499  40.491  43.467   5.153
 3415POPC   PO446500  40.790  43.965   5.465
 3415POPC   GL146501  40.835  43.917   5.883
 3415POPC   GL246502  40.907  43.534   5.860
 3415POPC   C1A46503  40.907  44.068   6.304
 3415POPC   D2A46504  41.135  44.068   6.687
 3415POPC   C3A46505  40.871  44.091   7.051
 3415POPC   C4A46506  40.999  44.395   7.380
 3415POPC   C1B46507  40.684  43.613   6.231
 3415POPC   C2B46508  40.844  43.656   6.606
 3415POPC   C3B46509  40.645  43.630   6.912
 3415POPC   C4B46510  40.643  43.490   7.268
 3416POPC   NC346511   7.970  12.211   5.399
 3416POPC   PO446512   8.622  12.490   5.485
 3416POPC   GL146513   8.322  12.228   5.807
 3416POPC   GL246514   8.014  11.955   5.846
 3416POPC   C1A46515   8.225  12.264   6.262
 3416POPC   D2A46516   8.438  12.423   6.671
 3416POPC   C3A46517   8.203  12.270   7.065
 3416POPC   C4A46518   8.102  12.365   7.549
 3416POPC   C1B46519   8.318  11.771   6.137
 3416POPC   C2B46520   8.428  11.919   6.570
 3416POPC   C3B46521   8.335  11.763   6.992
 3416POPC   C4B46522   8.356  11.933   7.414
 3417POPC   NC346523  38.240  13.113   5.534
 3417POPC   PO446524  38.701  12.663   5.410
 3417POPC   GL146525  38.619  12.854   5.774
 3417POPC   GL246526  38.525  12.529   5.916
 3417POPC   C1A46527  38.489  13.049   6.173
 3417POPC   D2A46528  38.370  12.800   6.551
 3417POPC   C3A46529  38.145  12.987   6.903
 3417POPC   C4A46530  38.322  12.936   7.295
 3417POPC   C1B46531  38.876  12.724   6.179
 3417POPC   C2B46532  38.865  12.972   6.544
 3417POPC   C3B46533  38.737  12.992   6.985
 3417POPC   C4B46534  38.776  12.657   7.331
 3418POPC   NC346535  35.262  31.941   5.426
 3418POPC   PO446536  35.680  32.378   5.165
 3418POPC   GL146537  35.636  32.336   5.642
 3418POPC   GL246538  35.669  31.988   5.795
 3418POPC   C1A46539  35.399  32.474   6.044
 3418POPC   D2A46540  35.101  32.424   6.423
 3418POPC   C3A46541  35.291  32.506   6.846
 3418POPC   C4A46542  35.302  32.521   7.286
 3418POPC   C1B46543  35.474  31.982   6.251
 3418POPC   C2B46544  35.250  32.010   6.680
 3418POPC   C3B46545  35.105  32.075   7.119
 3418POPC   C4B46546  35.271  31.926   7.519
 3419POPC   NC346547  39.487  34.976   5.393
 3419POPC   PO446548  38.957  34.581   5.267
 3419POPC   GL146549  39.242  34.694   5.724
 3419POPC   GL246550  39.439  34.435   5.906
 3419POPC   C1A46551  39.209  34.776   6.223
 3419POPC   D2A46552  39.266  34.506   6.640
 3419POPC   C3A46553  39.176  34.669   7.065
 3419POPC   C4A46554  39.411  34.590   7.447
 3419POPC   C1B46555  39.142  34.267   6.208
 3419POPC   C2B46556  38.798  34.214   6.510
 3419POPC   C3B46557  38.898  34.247   6.936
 3419POPC   C4B46558  39.002  34.272   7.366
 3420POPC   NC346559  33.135  43.380   5.331
 3420POPC   PO446560  32.730  42.847   5.437
 3420POPC   GL146561  33.040  43.033   5.684
 3420POPC   GL246562  32.824  43.305   5.727
 3420POPC   C1A46563  33.098  43.028   6.124
 3420POPC   D2A46564  33.080  42.794   6.514
 3420POPC   C3A46565  33.069  43.027   6.917
 3420POPC   C4A46566  33.157  42.992   7.385
 3420POPC   C1B46567  32.841  43.482   6.104
 3420POPC   C2B46568  32.903  43.317   6.505
 3420POPC   C3B46569  32.731  43.443   6.870
 3420POPC   C4B46570  32.858  43.396   7.266
 3421POPC   NC346571  32.458  38.988   5.462
 3421POPC   PO446572  32.410  39.654   5.522
 3421POPC   GL146573  32.255  39.372   5.839
 3421POPC   GL246574  31.913  39.224   5.788
 3421POPC   C1A46575  32.280  39.409   6.289
 3421POPC   D2A46576  32.522  39.240   6.626
 3421POPC   C3A46577  32.250  39.407   6.909
 3421POPC   C4A46578  31.899  39.344   7.192
 3421POPC   C1B46579  32.078  38.959   6.155
 3421POPC   C2B46580  32.001  39.049   6.592
 3421POPC   C3B46581  32.142  38.891   6.994
 3421POPC   C4B46582  32.258  38.837   7.439
 3422POPC   NC346583  14.735  30.873   5.443
 3422POPC   PO446584  14.160  30.435   5.386
 3422POPC   GL146585  14.371  30.611   5.693
 3422POPC   GL246586  14.660  30.377   5.663
 3422POPC   C1A46587  14.279  30.911   6.050
 3422POPC   D2A46588  14.094  31.089   6.446
 3422POPC   C3A46589  14.142  30.884   6.865
 3422POPC   C4A46590  14.129  30.527   7.155
 3422POPC   C1B46591  14.549  30.374   6.107
 3422POPC   C2B46592  14.518  30.685   6.454
 3422POPC   C3B46593  14.593  30.645   6.892
 3422POPC   C4B46594  14.577  30.812   7.275
 3423POPC   NC346595   2.074  33.140   5.429
 3423POPC   PO446596   1.565  32.715   5.472
 3423POPC   GL146597   1.780  32.961   5.814
 3423POPC   GL246598   1.839  33.329   5.827
 3423POPC   C1A46599   2.063  32.917   6.167
 3423POPC   D2A46600   2.121  33.093   6.594
 3423POPC   C3A46601   2.215  32.846   6.978
 3423POPC   C4A46602   2.032  32.955   7.388
 3423POPC   C1B46603   1.893  33.424   6.245
 3423POPC   C2B46604   1.822  33.539   6.656
 3423POPC   C3B46605   1.876  33.283   7.026
 3423POPC   C4B46606   2.328  33.303   7.199
 3424POPC   NC346607  41.827  20.577   5.484
 3424POPC   PO446608  41.315  20.842   5.228
 3424POPC   GL146609  41.298  20.573   5.655
 3424POPC   GL246610  41.508  20.307   5.758
 3424POPC   C1A46611  41.254  20.486   6.146
 3424POPC   D2A46612  41.467  20.335   6.543
 3424POPC   C3A46613  41.539  20.619   6.884
 3424POPC   C4A46614  41.283  20.756   7.224
 3424POPC   C1B46615  41.789  20.354   6.133
 3424POPC   C2B46616  41.990  20.350   6.559
 3424POPC   C3B46617  41.864  20.185   6.943
 3424POPC   C4B46618  41.703  20.365   7.297
 3425POPC   NC346619   3.403   7.604   5.186
 3425POPC   PO446620   3.742   7.102   5.476
 3425POPC   GL146621   3.574   7.343   5.845
 3425POPC   GL246622   3.490   7.717   5.736
 3425POPC   C1A46623   3.597   7.243   6.315
 3425POPC   D2A46624   3.895   7.374   6.665
 3425POPC   C3A46625   3.649   7.394   7.031
 3425POPC   C4A46626   3.191   7.298   7.084
 3425POPC   C1B46627   3.525   7.747   6.196
 3425POPC   C2B46628   3.342   7.802   6.618
 3425POPC   C3B46629   3.429   7.944   7.042
 3425POPC   C4B46630   3.797   7.812   7.260
 3426POPC   NC346631  34.918  40.697   5.376
 3426POPC   PO446632  35.498  40.969   5.202
 3426POPC   GL146633  35.391  40.912   5.659
 3426POPC   GL246634  35.143  41.132   5.798
 3426POPC   C1A46635  35.415  40.864   6.134
 3426POPC   D2A46636  35.333  41.073   6.519
 3426POPC   C3A46637  35.484  40.918   6.895
 3426POPC   C4A46638  35.501  40.835   7.310
 3426POPC   C1B46639  34.928  41.082   6.216
 3426POPC   C2B46640  34.857  41.115   6.688
 3426POPC   C3B46641  35.024  40.996   7.103
 3426POPC   C4B46642  35.094  40.930   7.580
 3427POPC   NC346643  13.366  44.103   5.487
 3427POPC   PO446644  13.637  43.581   5.320
 3427POPC   GL146645  13.610  43.633   5.791
 3427POPC   GL246646  13.559  43.979   5.928
 3427POPC   C1A46647  13.424  43.603   6.243
 3427POPC   D2A46648  13.648  43.556   6.625
 3427POPC   C3A46649  13.550  43.897   6.917
 3427POPC   C4A46650  13.392  43.853   7.352
 3427POPC   C1B46651  13.889  43.831   6.202
 3427POPC   C2B46652  13.973  43.999   6.602
 3427POPC   C3B46653  14.092  44.103   6.987
 3427POPC   C4B46654  13.923  43.791   7.253
 3428POPC   NC346655  28.045  33.949   5.373
 3428POPC   PO446656  28.706  33.873   5.432
 3428POPC   GL146657  28.576  33.758   5.848
 3428POPC   GL246658  28.251  33.637   5.791
 3428POPC   C1A46659  28.352  33.873   6.214
 3428POPC   D2A46660  28.532  33.887   6.590
 3428POPC   C3A46661  28.348  33.858   6.957
 3428POPC   C4A46662  28.681  34.027   7.173
 3428POPC   C1B46663  28.053  33.452   6.139
 3428POPC   C2B46664  28.195  33.486   6.557
 3428POPC   C3B46665  28.199  33.351   6.972
 3428POPC   C4B46666  28.039  33.588   7.300
 3429POPC   NC346667   5.306  31.627   5.182
 3429POPC   PO446668   5.427  31.447   5.763
 3429POPC   GL146669   5.069  31.383   5.999
 3429POPC   GL246670   4.883  31.160   5.804
 3429POPC   C1A46671   4.962  31.480   6.417
 3429POPC   D2A46672   4.692  31.709   6.684
 3429POPC   C3A46673   4.909  31.644   7.057
 3429POPC   C4A46674   5.351  31.613   7.146
 3429POPC   C1B46675   4.805  30.958   6.183
 3429POPC   C2B46676   4.991  30.990   6.571
 3429POPC   C3B46677   5.195  31.216   6.883
 3429POPC   C4B46678   5.087  31.213   7.344
 3430POPC   NC346679  33.810   6.347   5.395
 3430POPC   PO446680  34.294   6.775   5.180
 3430POPC   GL146681  34.061   6.917   5.650
 3430POPC   GL246682  33.671   6.847   5.734
 3430POPC   C1A46683  33.988   6.816   6.140
 3430POPC   D2A46684  34.199   6.701   6.553
 3430POPC   C3A46685  34.014   6.796   6.964
 3430POPC   C4A46686  33.788   6.648   7.296
 3430POPC   C1B46687  33.476   6.963   6.170
 3430POPC   C2B46688  33.289   6.973   6.581
 3430POPC   C3B46689  33.444   6.882   6.985
 3430POPC   C4B46690  33.258   6.895   7.367
 3431POPC   NC346691  41.990  32.848   5.320
 3431POPC   PO446692  42.239  33.404   5.500
 3431POPC   GL146693  42.420  33.287   5.863
 3431POPC   GL246694  42.629  32.984   5.800
 3431POPC   C1A46695  42.214  33.259   6.253
 3431POPC   D2A46696  42.263  32.920   6.525
 3431POPC   C3A46697  42.417  33.053   6.903
 3431POPC   C4A46698  42.394  32.795   7.224
 3431POPC   C1B46699  42.697  33.051   6.243
 3431POPC   C2B46700  42.653  33.375   6.546
 3431POPC   C3B46701  42.862  33.300   6.944
 3431POPC   C4B46702  42.742  33.174   7.346
 3432POPC   NC346703  42.042   7.659   5.238
 3432POPC   PO446704  42.537   7.071   5.332
 3432POPC   GL146705  42.325   7.330   5.658
 3432POPC   GL246706  42.494   7.581   5.874
 3432POPC   C1A46707  42.163   7.259   6.091
 3432POPC   D2A46708  42.396   7.407   6.461
 3432POPC   C3A46709  42.196   7.303   6.858
 3432POPC   C4A46710  42.240   7.457   7.243
 3432POPC   C1B46711  42.173   7.767   6.143
 3432POPC   C2B46712  42.189   7.948   6.526
 3432POPC   C3B46713  42.214   7.849   6.914
 3432POPC   C4B46714  42.175   8.021   7.271
 3433POPC   NC346715   8.506   8.204   5.270
 3433POPC   PO446716   9.099   8.252   5.318
 3433POPC   GL146717   8.807   8.230   5.730
 3433POPC   GL246718   8.554   7.944   5.767
 3433POPC   C1A46719   8.854   8.335   6.218
 3433POPC   D2A46720   8.563   8.219   6.578
 3433POPC   C3A46721   8.695   8.267   7.016
 3433POPC   C4A46722   9.118   8.402   7.210
 3433POPC   C1B46723   8.724   7.848   6.241
 3433POPC   C2B46724   8.846   7.824   6.724
 3433POPC   C3B46725   8.990   7.884   7.173
 3433POPC   C4B46726   9.043   7.784   7.616
 3434POPC   NC346727  29.672  18.096   5.614
 3434POPC   PO446728  29.295  18.465   5.153
 3434POPC   GL146729  29.264  18.512   5.685
 3434POPC   GL246730  29.030  18.325   5.897
 3434POPC   C1A46731  29.438  18.509   6.127
 3434POPC   D2A46732  29.162  18.466   6.490
 3434POPC   C3A46733  29.330  18.294   6.861
 3434POPC   C4A46734  29.050  18.306   7.189
 3434POPC   C1B46735  29.264  18.024   6.200
 3434POPC   C2B46736  29.281  17.809   6.604
 3434POPC   C3B46737  29.210  17.827   7.059
 3434POPC   C4B46738  28.838  17.844   7.301
 3435POPC   NC346739  42.776   8.253   5.539
 3435POPC   PO446740  43.181   7.784   5.367
 3435POPC   GL146741  43.165   7.915   5.781
 3435POPC   GL246742  43.007   7.652   5.910
 3435POPC   C1A46743  43.212   8.012   6.238
 3435POPC   D2A46744  43.045   8.108   6.664
 3435POPC   C3A46745  43.264   8.230   7.045
 3435POPC   C4A46746  43.081   8.518   7.390
 3435POPC   C1B46747  42.727   7.819   6.265
 3435POPC   C2B46748  42.666   7.766   6.710
 3435POPC   C3B46749  42.718   8.022   7.084
 3435POPC   C4B46750  43.039   8.019   7.438
 3436POPC   NC346751   5.676   6.417   5.602
 3436POPC   PO446752   6.093   6.634   5.106
 3436POPC   GL146753   6.013   6.891   5.576
 3436POPC   GL246754   5.666   6.887   5.790
 3436POPC   C1A46755   6.112   6.942   6.066
 3436POPC   D2A46756   5.942   6.783   6.469
 3436POPC   C3A46757   5.982   6.810   6.940
 3436POPC   C4A46758   6.121   6.433   7.167
 3436POPC   C1B46759   5.497   6.658   6.207
 3436POPC   C2B46760   5.533   6.521   6.648
 3436POPC   C3B46761   5.597   6.432   7.071
 3436POPC   C4B46762   5.358   6.508   7.423
 3437POPC   NC346763  38.206  33.042   5.219
 3437POPC   PO446764  38.607  32.669   5.572
 3437POPC   GL146765  38.440  32.858   5.938
 3437POPC   GL246766  38.406  33.166   5.838
 3437POPC   C1A46767  38.351  32.975   6.390
 3437POPC   D2A46768  38.530  32.707   6.718
 3437POPC   C3A46769  38.559  32.923   7.084
 3437POPC   C4A46770  38.268  33.070   7.378
 3437POPC   C1B46771  38.676  33.334   6.196
 3437POPC   C2B46772  38.723  33.280   6.678
 3437POPC   C3B46773  38.725  33.399   7.133
 3437POPC   C4B46774  38.720  33.175   7.547
 3438POPC   NC346775   4.171  29.348   5.341
 3438POPC   PO446776   4.768  29.138   5.402
 3438POPC   GL146777   4.584  29.211   5.803
 3438POPC   GL246778   4.458  29.523   5.742
 3438POPC   C1A46779   4.528  29.034   6.233
 3438POPC   D2A46780   4.579  28.923   6.712
 3438POPC   C3A46781   4.546  29.188   7.072
 3438POPC   C4A46782   4.129  29.086   7.305
 3438POPC   C1B46783   4.297  29.504   6.157
 3438POPC   C2B46784   4.362  29.388   6.552
 3438POPC   C3B46785   4.132  29.399   6.884
 3438POPC   C4B46786   4.087  29.609   7.243
 3439POPC   NC346787  17.603  28.044   5.443
 3439POPC   PO446788  17.732  28.740   5.476
 3439POPC   GL146789  17.789  28.583   5.865
 3439POPC   GL246790  17.541  28.331   5.873
 3439POPC   C1A46791  17.733  28.749   6.241
 3439POPC   D2A46792  17.458  28.769   6.562
 3439POPC   C3A46793  17.599  28.588   6.932
 3439POPC   C4A46794  17.324  28.526   7.253
 3439POPC   C1B46795  17.492  28.296   6.312
 3439POPC   C2B46796  17.703  28.173   6.672
 3439POPC   C3B46797  17.563  28.077   7.078
 3439POPC   C4B46798  17.585  28.136   7.497
 3440POPC   NC346799  24.101  10.488   5.452
 3440POPC   PO446800  23.545  10.928   5.314
 3440POPC   GL146801  23.738  10.768   5.702
 3440POPC   GL246802  23.420  10.834   5.828
 3440POPC   C1A46803  23.694  10.543   6.136
 3440POPC   D2A46804  23.882  10.332   6.497
 3440POPC   C3A46805  23.629  10.374   6.867
 3440POPC   C4A46806  23.724  10.566   7.266
 3440POPC   C1B46807  23.302  10.886   6.257
 3440POPC   C2B46808  23.523  10.776   6.571
 3440POPC   C3B46809  23.540  10.909   6.959
 3440POPC   C4B46810  23.539  11.019   7.392
 3441POPC   NC346811   5.973  19.983   5.420
 3441POPC   PO446812   6.133  19.323   5.504
 3441POPC   GL146813   5.921  19.596   5.775
 3441POPC   GL246814   6.161  19.868   5.861
 3441POPC   C1A46815   5.716  19.840   6.120
 3441POPC   D2A46816   5.563  20.076   6.484
 3441POPC   C3A46817   5.581  19.909   6.931
 3441POPC   C4A46818   5.789  19.917   7.371
 3441POPC   C1B46819   6.180  19.684   6.238
 3441POPC   C2B46820   5.914  19.660   6.577
 3441POPC   C3B46821   6.062  19.716   6.978
 3441POPC   C4B46822   6.080  19.508   7.353
 3442POPC   NC346823   5.634  30.176   5.177
 3442POPC   PO446824   6.225  30.177   5.538
 3442POPC   GL146825   6.132  29.892   5.845
 3442POPC   GL246826   5.790  29.907   5.715
 3442POPC   C1A46827   6.068  29.938   6.280
 3442POPC   D2A46828   5.971  30.231   6.607
 3442POPC   C3A46829   6.057  30.121   7.037
 3442POPC   C4A46830   5.997  29.716   7.245
 3442POPC   C1B46831   5.559  29.770   6.052
 3442POPC   C2B46832   5.647  29.730   6.469
 3442POPC   C3B46833   5.649  29.873   6.864
 3442POPC   C4B46834   5.490  29.745   7.229
 3443POPC   NC346835  33.487  30.108   5.450
 3443POPC   PO446836  34.131  30.320   5.494
 3443POPC   GL146837  34.044  30.154   5.915
 3443POPC   GL246838  33.746  29.988   5.892
 3443POPC   C1A46839  34.051  29.912   6.280
 3443POPC   D2A46840  33.828  29.975   6.658
 3443POPC   C3A46841  34.023  29.820   7.030
 3443POPC   C4A46842  34.139  29.929   7.431
 3443POPC   C1B46843  33.568  29.739   6.250
 3443POPC   C2B46844  33.560  29.559   6.695
 3443POPC   C3B46845  33.512  29.853   7.058
 3443POPC   C4B46846  33.587  29.795   7.490
 3444POPC   NC346847   4.059  40.213   5.642
 3444POPC   PO446848   4.196  40.697   5.215
 3444POPC   GL146849   4.306  40.671   5.652
 3444POPC   GL246850   3.987  40.736   5.810
 3444POPC   C1A46851   4.456  40.721   6.087
 3444POPC   D2A46852   4.351  41.024   6.403
 3444POPC   C3A46853   4.241  40.901   6.820
 3444POPC   C4A46854   4.410  40.640   7.154
 3444POPC   C1B46855   3.957  40.657   6.259
 3444POPC   C2B46856   3.738  40.582   6.653
 3444POPC   C3B46857   3.758  40.827   7.010
 3444POPC   C4B46858   4.025  41.008   7.278
 3445POPC   NC346859  29.171  11.616   5.460
 3445POPC   PO446860  29.451  11.012   5.302
 3445POPC   GL146861  29.255  11.173   5.710
 3445POPC   GL246862  29.437  11.429   5.861
 3445POPC   C1A46863  28.987  11.350   6.087
 3445POPC   D2A46864  28.997  11.198   6.526
 3445POPC   C3A46865  28.954  11.440   6.913
 3445POPC   C4A46866  28.796  11.286   7.308
 3445POPC   C1B46867  29.465  11.384   6.317
 3445POPC   C2B46868  29.577  11.423   6.749
 3445POPC   C3B46869  29.418  11.448   7.150
 3445POPC   C4B46870  29.145  11.635   7.387
 3446POPC   NC346871  35.108  17.982   5.605
 3446POPC   PO446872  35.612  18.477   5.398
 3446POPC   GL146873  35.722  18.429   5.805
 3446POPC   GL246874  35.547  18.124   5.885
 3446POPC   C1A46875  35.667  18.559   6.231
 3446POPC   D2A46876  35.570  18.254   6.571
 3446POPC   C3A46877  35.401  18.361   6.980
 3446POPC   C4A46878  35.581  18.764   7.132
 3446POPC   C1B46879  35.209  18.099   6.237
 3446POPC   C2B46880  35.021  18.315   6.576
 3446POPC   C3B46881  34.876  18.269   6.973
 3446POPC   C4B46882  35.039  18.220   7.362
 3447POPC   NC346883  15.592  12.017   5.455
 3447POPC   PO446884  16.256  11.842   5.381
 3447POPC   GL146885  16.116  12.110   5.750
 3447POPC   GL246886  15.832  12.351   5.748
 3447POPC   C1A46887  15.929  12.039   6.157
 3447POPC   D2A46888  15.715  11.804   6.464
 3447POPC   C3A46889  15.847  12.023   6.815
 3447POPC   C4A46890  15.944  11.973   7.204
 3447POPC   C1B46891  15.826  12.547   6.133
 3447POPC   C2B46892  16.015  12.470   6.543
 3447POPC   C3B46893  15.814  12.530   6.924
 3447POPC   C4B46894  15.632  12.372   7.331
 3448POPC   NC346895  42.306  28.154   5.462
 3448POPC   PO446896  42.571  28.722   5.357
 3448POPC   GL146897  42.359  28.606   5.772
 3448POPC   GL246898  42.176  28.332   5.911
 3448POPC   C1A46899  42.473  28.581   6.234
 3448POPC   D2A46900  42.603  28.461   6.652
 3448POPC   C3A46901  42.320  28.579   6.987
 3448POPC   C4A46902  42.212  28.448   7.371
 3448POPC   C1B46903  42.076  28.152   6.308
 3448POPC   C2B46904  42.020  28.251   6.735
 3448POPC   C3B46905  42.166  28.020   7.088
 3448POPC   C4B46906  41.925  27.795   7.411
 3449POPC   NC346907  44.985  35.693   5.638
 3449POPC   PO446908  44.649  36.043   5.150
 3449POPC   GL146909  44.696  36.167   5.640
 3449POPC   GL246910  44.998  36.199   5.817
 3449POPC   C1A46911  44.557  36.073   6.094
 3449POPC   D2A46912  44.349  36.246   6.434
 3449POPC   C3A46913  44.373  36.014   6.785
 3449POPC   C4A46914  44.359  36.191   7.128
 3449POPC   C1B46915  44.903  36.427   6.208
 3449POPC   C2B46916  44.826  36.217   6.597
 3449POPC   C3B46917  44.868  36.137   7.030
 3449POPC   C4B46918   0.010  36.339   7.391
 3450POPC   NC346919   7.766  15.419   5.617
 3450POPC   PO446920   7.299  15.023   5.460
 3450POPC   GL146921   7.466  15.076   5.856
 3450POPC   GL246922   7.259  15.380   5.860
 3450POPC   C1A46923   7.671  15.198   6.246
 3450POPC   D2A46924   7.523  15.507   6.552
 3450POPC   C3A46925   7.648  15.501   6.965
 3450POPC   C4A46926   7.885  15.250   7.209
 3450POPC   C1B46927   7.144  15.255   6.273
 3450POPC   C2B46928   7.138  15.175   6.713
 3450POPC   C3B46929   7.348  15.089   7.116
 3450POPC   C4B46930   7.250  14.791   7.455
 3451POPC   NC346931   9.284  31.727   5.399
 3451POPC   PO446932   8.815  31.241   5.542
 3451POPC   GL146933   9.045  31.543   5.817
 3451POPC   GL246934   9.387  31.551   5.860
 3451POPC   C1A46935   9.041  31.708   6.229
 3451POPC   D2A46936   8.848  31.575   6.607
 3451POPC   C3A46937   8.975  31.481   7.019
 3451POPC   C4A46938   9.227  31.711   7.275
 3451POPC   C1B46939   9.273  31.248   6.198
 3451POPC   C2B46940   9.260  31.217   6.654
 3451POPC   C3B46941   9.418  31.220   7.095
 3451POPC   C4B46942   9.232  31.083   7.488
 3452POPC   NC346943  10.017   0.462   5.456
 3452POPC   PO446944   9.333   0.298   5.470
 3452POPC   GL146945   9.645   0.298   5.825
 3452POPC   GL246946   9.787   0.627   5.887
 3452POPC   C1A46947   9.758   0.256   6.263
 3452POPC   D2A46948   9.552   0.391   6.635
 3452POPC   C3A46949   9.715   0.364   7.068
 3452POPC   C4A46950   9.722   0.541   7.501
 3452POPC   C1B46951  10.019   0.739   6.264
 3452POPC   C2B46952   9.954   0.701   6.712
 3452POPC   C3B46953   9.999   0.805   7.134
 3452POPC   C4B46954  10.178   0.427   7.290
 3453POPC   NC346955   6.096  11.499   5.374
 3453POPC   PO446956   5.660  10.949   5.514
 3453POPC   GL146957   5.716  11.316   5.688
 3453POPC   GL246958   5.450  11.581   5.620
 3453POPC   C1A46959   5.977  11.278   6.051
 3453POPC   D2A46960   5.799  11.164   6.438
 3453POPC   C3A46961   6.125  11.138   6.744
 3453POPC   C4A46962   6.230  11.015   7.131
 3453POPC   C1B46963   5.639  11.650   6.043
 3453POPC   C2B46964   5.589  11.654   6.474
 3453POPC   C3B46965   5.598  11.395   6.846
 3453POPC   C4B46966   5.900  11.414   7.143
 3454POPC   NC346967   1.796   1.072   5.575
 3454POPC   PO446968   2.118   1.616   5.376
 3454POPC   GL146969   2.186   1.381   5.776
 3454POPC   GL246970   2.226   0.979   5.829
 3454POPC   C1A46971   2.007   1.409   6.206
 3454POPC   D2A46972   1.970   1.701   6.589
 3454POPC   C3A46973   1.772   1.585   7.001
 3454POPC   C4A46974   2.077   1.508   7.344
 3454POPC   C1B46975   1.949   0.891   6.183
 3454POPC   C2B46976   1.971   1.044   6.565
 3454POPC   C3B46977   1.713   1.098   6.870
 3454POPC   C4B46978   1.738   1.140   7.286
 3455POPC   NC346979   1.984  37.797   5.346
 3455POPC   PO446980   1.991  37.191   5.060
 3455POPC   GL146981   2.037  37.344   5.572
 3455POPC   GL246982   1.841  37.642   5.813
 3455POPC   C1A46983   2.194  37.388   6.042
 3455POPC   D2A46984   1.992  37.448   6.470
 3455POPC   C3A46985   2.079  37.492   6.915
 3455POPC   C4A46986   1.710  37.452   7.192
 3455POPC   C1B46987   2.106  37.869   6.181
 3455POPC   C2B46988   2.241  37.904   6.633
 3455POPC   C3B46989   2.005  37.986   7.042
 3455POPC   C4B46990   2.072  38.154   7.467
 3456POPC   NC346991   3.722  33.660   5.253
 3456POPC   PO446992   3.114  33.582   5.671
 3456POPC   GL146993   3.340  33.816   5.946
 3456POPC   GL246994   3.663  33.927   5.727
 3456POPC   C1A46995   3.377  33.741   6.398
 3456POPC   D2A46996   3.657  33.551   6.712
 3456POPC   C3A46997   3.523  33.582   7.149
 3456POPC   C4A46998   3.699  33.758   7.534
 3456POPC   C1B46999   3.829  33.930   6.144
 3456POPC   C2B47000   3.854  34.050   6.566
 3456POPC   C3B47001   3.709  34.012   6.980
 3456POPC   C4B47002   3.761  34.239   7.372
 3457POPC   NC347003   2.059  16.995   5.564
 3457POPC   PO447004   1.850  16.408   5.359
 3457POPC   GL147005   1.914  16.568   5.794
 3457POPC   GL247006   1.609  16.759   5.925
 3457POPC   C1A47007   2.041  16.794   6.203
 3457POPC   D2A47008   1.806  16.761   6.584
 3457POPC   C3A47009   1.886  16.993   6.975
 3457POPC   C4A47010   2.156  17.002   7.376
 3457POPC   C1B47011   1.620  16.332   6.129
 3457POPC   C2B47012   1.759  16.192   6.530
 3457POPC   C3B47013   1.753  16.380   6.920
 3457POPC   C4B47014   1.939  16.568   7.240
 3458POPC   NC347015  39.718  23.024   5.011
 3458POPC   PO447016  39.151  23.061   5.418
 3458POPC   GL147017  39.220  22.845   5.836
 3458POPC   GL247018  39.338  23.204   5.897
 3458POPC   C1A47019  39.169  22.608   6.269
 3458POPC   D2A47020  39.000  22.413   6.695
 3458POPC   C3A47021  39.274  22.579   7.031
 3458POPC   C4A47022  39.576  22.942   7.011
 3458POPC   C1B47023  39.049  23.134   6.211
 3458POPC   C2B47024  39.256  23.073   6.612
 3458POPC   C3B47025  39.041  23.060   6.998
 3458POPC   C4B47026  38.960  22.862   7.381
 3459POPC   NC347027  28.290  31.957   5.366
 3459POPC   PO447028  28.496  31.311   5.419
 3459POPC   GL147029  28.347  31.335   5.838
 3459POPC   GL247030  28.232  31.646   5.762
 3459POPC   C1A47031  28.498  31.330   6.308
 3459POPC   D2A47032  28.489  31.321   6.803
 3459POPC   C3A47033  28.566  31.713   7.063
 3459POPC   C4A47034  28.537  31.757   7.532
 3459POPC   C1B47035  28.099  31.617   6.172
 3459POPC   C2B47036  28.213  31.701   6.583
 3459POPC   C3B47037  28.054  31.596   6.979
 3459POPC   C4B47038  28.242  31.375   7.283
 3460POPC   NC347039  19.237   5.931   5.472
 3460POPC   PO447040  18.692   5.522   5.514
 3460POPC   GL147041  18.864   5.797   5.885
 3460POPC   GL247042  19.136   6.077   5.931
 3460POPC   C1A47043  18.938   5.892   6.341
 3460POPC   D2A47044  19.005   5.718   6.701
 3460POPC   C3A47045  18.955   5.893   7.066
 3460POPC   C4A47046  19.033   5.651   7.436
 3460POPC   C1B47047  19.417   6.101   6.268
 3460POPC   C2B47048  19.446   5.981   6.668
 3460POPC   C3B47049  19.407   6.118   7.068
 3460POPC   C4B47050  19.488   5.829   7.379
 3461POPC   NC347051  29.548  36.173   5.508
 3461POPC   PO447052  28.971  36.320   5.269
 3461POPC   GL147053  29.022  36.168   5.716
 3461POPC   GL247054  29.281  36.345   5.888
 3461POPC   C1A47055  28.998  36.004   6.160
 3461POPC   D2A47056  29.110  35.879   6.568
 3461POPC   C3A47057  29.020  36.088   6.942
 3461POPC   C4A47058  28.749  35.880   7.204
 3461POPC   C1B47059  29.495  36.078   6.184
 3461POPC   C2B47060  29.472  36.228   6.582
 3461POPC   C3B47061  29.712  36.239   6.897
 3461POPC   C4B47062  29.472  36.145   7.238
 3462POPC   NC347063  38.774   6.829   5.597
 3462POPC   PO447064  38.240   6.404   5.492
 3462POPC   GL147065  38.393   6.641   5.865
 3462POPC   GL247066  38.138   6.854   5.910
 3462POPC   C1A47067  38.739   6.654   6.224
 3462POPC   D2A47068  38.565   6.594   6.647
 3462POPC   C3A47069  38.765   6.694   7.029
 3462POPC   C4A47070  38.642   6.737   7.476
 3462POPC   C1B47071  38.303   6.910   6.308
 3462POPC   C2B47072  38.169   6.971   6.731
 3462POPC   C3B47073  38.248   6.855   7.138
 3462POPC   C4B47074  38.324   7.233   7.364
 3463POPC   NC347075  36.737  23.532   5.593
 3463POPC   PO447076  36.824  24.119   5.353
 3463POPC   GL147077  37.010  23.947   5.711
 3463POPC   GL247078  37.271  23.681   5.757
 3463POPC   C1A47079  36.867  23.893   6.133
 3463POPC   D2A47080  37.055  23.901   6.513
 3463POPC   C3A47081  36.899  23.741   6.867
 3463POPC   C4A47082  37.110  23.842   7.209
 3463POPC   C1B47083  37.178  23.485   6.192
 3463POPC   C2B47084  37.084  23.299   6.624
 3463POPC   C3B47085  37.144  23.339   7.077
 3463POPC   C4B47086  37.249  23.425   7.482
 3464POPC   NC347087  39.757  36.647   4.934
 3464POPC   PO447088  40.053  36.856   5.504
 3464POPC   GL147089  40.249  37.004   5.900
 3464POPC   GL247090  39.962  36.783   6.020
 3464POPC   C1A47091  40.248  36.982   6.372
 3464POPC   D2A47092  39.856  36.860   6.556
 3464POPC   C3A47093  39.844  37.056   6.910
 3464POPC   C4A47094  40.082  37.186   7.251
 3464POPC   C1B47095  40.133  36.470   6.332
 3464POPC   C2B47096  40.090  36.443   6.761
 3464POPC   C3B47097  40.274  36.734   7.077
 3464POPC   C4B47098  40.173  36.686   7.531
 3465POPC   NC347099  14.389  28.981   5.304
 3465POPC   PO447100  14.708  29.598   5.317
 3465POPC   GL147101  14.518  29.377   5.670
 3465POPC   GL247102  14.569  29.030   5.777
 3465POPC   C1A47103  14.339  29.374   6.107
 3465POPC   D2A47104  14.477  29.232   6.526
 3465POPC   C3A47105  14.174  29.228   6.862
 3465POPC   C4A47106  14.127  29.582   7.144
 3465POPC   C1B47107  14.387  28.842   6.151
 3465POPC   C2B47108  14.416  28.706   6.571
 3465POPC   C3B47109  14.608  28.882   6.948
 3465POPC   C4B47110  14.463  29.037   7.355
 3466POPC   NC347111  25.211   8.779   5.400
 3466POPC   PO447112  24.921   9.358   5.150
 3466POPC   GL147113  25.282   9.264   5.570
 3466POPC   GL247114  25.213   8.989   5.853
 3466POPC   C1A47115  25.433   9.379   6.035
 3466POPC   D2A47116  25.243   9.522   6.437
 3466POPC   C3A47117  25.266   9.230   6.787
 3466POPC   C4A47118  25.058   9.223   7.147
 3466POPC   C1B47119  25.101   9.029   6.293
 3466POPC   C2B47120  25.079   8.773   6.652
 3466POPC   C3B47121  25.077   8.706   7.085
 3466POPC   C4B47122  25.383   8.702   7.381
 3467POPC   NC347123  42.897  41.851   5.545
 3467POPC   PO447124  43.326  41.435   5.176
 3467POPC   GL147125  43.279  41.491   5.661
 3467POPC   GL247126  42.939  41.393   5.824
 3467POPC   C1A47127  43.284  41.642   6.108
 3467POPC   D2A47128  43.303  41.523   6.549
 3467POPC   C3A47129  43.376  41.856   6.885
 3467POPC   C4A47130  43.384  41.726   7.324
 3467POPC   C1B47131  42.799  41.492   6.262
 3467POPC   C2B47132  42.833  41.688   6.672
 3467POPC   C3B47133  43.052  41.492   7.034
 3467POPC   C4B47134  42.949  41.290   7.438
 3468POPC   NC347135  25.312  10.300   5.560
 3468POPC   PO447136  24.671  10.555   5.413
 3468POPC   GL147137  24.945  10.745   5.753
 3468POPC   GL247138  25.338  10.747   5.799
 3468POPC   C1A47139  25.047  10.870   6.190
 3468POPC   D2A47140  24.976  10.559   6.527
 3468POPC   C3A47141  25.035  10.654   6.971
 3468POPC   C4A47142  25.176  10.435   7.334
 3468POPC   C1B47143  25.456  10.553   6.216
 3468POPC   C2B47144  25.480  10.697   6.658
 3468POPC   C3B47145  25.618  10.424   7.001
 3468POPC   C4B47146  25.725  10.022   7.208
 3469POPC   NC347147   7.996  22.567   5.291
 3469POPC   PO447148   8.228  21.891   5.362
 3469POPC   GL147149   8.258  22.051   5.799
 3469POPC   GL247150   8.136  22.354   5.732
 3469POPC   C1A47151   8.221  21.921   6.254
 3469POPC   D2A47152   8.193  21.739   6.682
 3469POPC   C3A47153   8.225  21.972   7.083
 3469POPC   C4A47154   8.000  21.902   7.515
 3469POPC   C1B47155   8.137  22.422   6.189
 3469POPC   C2B47156   8.329  22.378   6.608
 3469POPC   C3B47157   8.065  22.461   6.951
 3469POPC   C4B47158   8.079  22.380   7.371
 3470POPC   NC347159  41.232  18.782   5.227
 3470POPC   PO447160  41.614  19.181   5.451
 3470POPC   GL147161  41.653  18.989   5.830
 3470POPC   GL247162  41.312  19.085   5.968
 3470POPC   C1A47163  41.695  18.905   6.246
 3470POPC   D2A47164  41.411  19.093   6.549
 3470POPC   C3A47165  41.601  19.056   6.953
 3470POPC   C4A47166  41.807  19.315   7.264
 3470POPC   C1B47167  41.555  19.435   6.167
 3470POPC   C2B47168  41.560  19.672   6.570
 3470POPC   C3B47169  41.445  19.553   6.993
 3470POPC   C4B47170  41.352  19.410   7.445
 3471POPC   NC347171  14.243  39.322   5.416
 3471POPC   PO447172  14.875  39.340   5.345
 3471POPC   GL147173  14.616  39.204   5.731
 3471POPC   GL247174  14.771  38.953   5.873
 3471POPC   C1A47175  14.397  39.283   6.160
 3471POPC   D2A47176  14.562  39.254   6.613
 3471POPC   C3A47177  14.354  39.394   7.011
 3471POPC   C4A47178  14.180  39.165   7.358
 3471POPC   C1B47179  14.483  38.794   6.257
 3471POPC   C2B47180  14.402  38.772   6.732
 3471POPC   C3B47181  14.593  38.939   7.133
 3471POPC   C4B47182  14.566  38.912   7.621
 3472POPC   NC347183  24.050  23.915   5.119
 3472POPC   PO447184  24.660  24.030   5.474
 3472POPC   GL147185  24.528  23.930   5.876
 3472POPC   GL247186  24.620  23.596   5.776
 3472POPC   C1A47187  24.447  24.050   6.308
 3472POPC   D2A47188  24.458  23.803   6.677
 3472POPC   C3A47189  24.278  23.981   7.027
 3472POPC   C4A47190  24.476  24.060   7.410
 3472POPC   C1B47191  24.630  23.509   6.193
 3472POPC   C2B47192  24.496  23.297   6.548
 3472POPC   C3B47193  24.458  23.345   6.987
 3472POPC   C4B47194  24.459  23.582   7.338
 3473POPC   NC347195  17.399  37.266   5.433
 3473POPC   PO447196  17.287  37.878   5.197
 3473POPC   GL147197  17.391  37.876   5.637
 3473POPC   GL247198  17.716  37.704   5.588
 3473POPC   C1A47199  17.295  37.659   6.064
 3473POPC   D2A47200  17.179  37.690   6.521
 3473POPC   C3A47201  17.304  37.464   6.879
 3473POPC   C4A47202  17.588  37.496   7.211
 3473POPC   C1B47203  17.759  37.887   6.002
 3473POPC   C2B47204  17.544  38.000   6.376
 3473POPC   C3B47205  17.612  37.886   6.830
 3473POPC   C4B47206  17.857  37.919   7.253
 3474POPC   NC347207   3.490   3.708   5.432
 3474POPC   PO447208   2.927   3.934   5.682
 3474POPC   GL147209   3.239   3.739   5.939
 3474POPC   GL247210   3.364   3.429   5.876
 3474POPC   C1A47211   3.373   3.671   6.360
 3474POPC   D2A47212   3.485   3.948   6.699
 3474POPC   C3A47213   3.286   3.715   7.001
 3474POPC   C4A47214   3.365   3.283   7.080
 3474POPC   C1B47215   3.725   3.356   6.169
 3474POPC   C2B47216   3.844   3.168   6.532
 3474POPC   C3B47217   3.882   3.270   6.942
 3474POPC   C4B47218   3.925   3.014   7.275
 3475POPC   NC347219  21.147  26.703   5.402
 3475POPC   PO447220  21.833  27.013   5.331
 3475POPC   GL147221  21.654  26.986   5.763
 3475POPC   GL247222  21.303  26.879   5.842
 3475POPC   C1A47223  21.677  26.749   6.162
 3475POPC   D2A47224  21.470  26.458   6.458
 3475POPC   C3A47225  21.509  26.607   6.876
 3475POPC   C4A47226  21.744  26.851   7.185
 3475POPC   C1B47227  21.124  26.803   6.255
 3475POPC   C2B47228  21.239  27.019   6.637
 3475POPC   C3B47229  21.292  27.057   7.069
 3475POPC   C4B47230  21.204  26.673   7.280
 3476POPC   NC347231  10.208  43.119   5.418
 3476POPC   PO447232  10.854  42.953   5.359
 3476POPC   GL147233  10.713  43.197   5.735
 3476POPC   GL247234  10.372  43.140   5.905
 3476POPC   C1A47235  10.782  43.311   6.185
 3476POPC   D2A47236  10.626  43.162   6.589
 3476POPC   C3A47237  10.870  43.214   6.964
 3476POPC   C4A47238  10.793  42.885   7.265
 3476POPC   C1B47239  10.308  42.816   6.234
 3476POPC   C2B47240  10.148  42.710   6.653
 3476POPC   C3B47241  10.339  42.927   7.019
 3476POPC   C4B47242  10.304  42.848   7.485
 3477POPC   NC347243  18.449  40.979   5.458
 3477POPC   PO447244  17.797  40.912   5.426
 3477POPC   GL147245  18.068  40.703   5.821
 3477POPC   GL247246  18.426  40.558   5.798
 3477POPC   C1A47247  18.149  40.783   6.291
 3477POPC   D2A47248  18.001  40.952   6.714
 3477POPC   C3A47249  18.283  41.005   7.078
 3477POPC   C4A47250  18.357  41.058   7.518
 3477POPC   C1B47251  18.463  40.388   6.230
 3477POPC   C2B47252  18.423  40.534   6.672
 3477POPC   C3B47253  18.191  40.501   7.079
 3477POPC   C4B47254  18.324  40.527   7.526
 3478POPC   NC347255  16.838  35.901   5.226
 3478POPC   PO447256  16.491  35.324   5.447
 3478POPC   GL147257  16.599  35.162   5.836
 3478POPC   GL247258  16.700  35.459   6.064
 3478POPC   C1A47259  16.599  35.017   6.250
 3478POPC   D2A47260  16.817  35.191   6.585
 3478POPC   C3A47261  16.599  35.248   6.963
 3478POPC   C4A47262  16.572  34.998   7.303
 3478POPC   C1B47263  16.960  35.803   6.271
 3478POPC   C2B47264  17.169  35.801   6.657
 3478POPC   C3B47265  17.072  35.490   6.956
 3478POPC   C4B47266  17.004  35.487   7.367
 3479POPC   NC347267   6.106  12.262   5.520
 3479POPC   PO447268   5.709  11.839   5.243
 3479POPC   GL147269   5.724  12.018   5.724
 3479POPC   GL247270   6.057  12.055   5.971
 3479POPC   C1A47271   5.634  12.128   6.201
 3479POPC   D2A47272   5.827  12.095   6.598
 3479POPC   C3A47273   5.583  11.928   6.939
 3479POPC   C4A47274   5.636  12.260   7.267
 3479POPC   C1B47275   6.093  11.726   6.282
 3479POPC   C2B47276   6.056  11.646   6.720
 3479POPC   C3B47277   6.082  11.930   7.073
 3479POPC   C4B47278   6.154  12.405   7.076
 3480POPC   NC347279  10.915  31.479   5.049
 3480POPC   PO447280  10.682  31.720   5.603
 3480POPC   GL147281  10.356  31.820   5.896
 3480POPC   GL247282  10.131  32.013   5.747
 3480POPC   C1A47283  10.414  31.813   6.348
 3480POPC   D2A47284  10.779  31.857   6.618
 3480POPC   C3A47285  10.745  31.591   6.986
 3480POPC   C4A47286  10.552  31.213   7.177
 3480POPC   C1B47287  10.055  32.160   6.242
 3480POPC   C2B47288   9.957  31.850   6.604
 3480POPC   C3B47289  10.181  31.685   6.977
 3480POPC   C4B47290  10.072  31.939   7.345
 3481POPC   NC347291  37.967  29.973   5.131
 3481POPC   PO447292  38.469  29.590   5.415
 3481POPC   GL147293  38.427  29.775   5.824
 3481POPC   GL247294  38.303  30.101   5.830
 3481POPC   C1A47295  38.406  29.868   6.271
 3481POPC   D2A47296  38.693  29.751   6.540
 3481POPC   C3A47297  38.572  29.588   6.998
 3481POPC   C4A47298  38.443  29.630   7.448
 3481POPC   C1B47299  38.706  30.226   6.088
 3481POPC   C2B47300  38.659  30.346   6.540
 3481POPC   C3B47301  38.458  30.090   6.863
 3481POPC   C4B47302  38.257  30.099   7.264
 3482POPC   NC347303  13.541  37.155   5.371
 3482POPC   PO447304  13.728  36.463   5.350
 3482POPC   GL147305  13.602  36.743   5.690
 3482POPC   GL247306  13.878  36.905   5.736
 3482POPC   C1A47307  13.550  36.731   6.160
 3482POPC   D2A47308  13.457  36.550   6.597
 3482POPC   C3A47309  13.477  36.867   6.892
 3482POPC   C4A47310  13.569  37.107   7.246
 3482POPC   C1B47311  14.061  36.876   6.130
 3482POPC   C2B47312  13.937  36.791   6.544
 3482POPC   C3B47313  13.972  37.021   6.927
 3482POPC   C4B47314  14.125  36.749   7.208
 3483POPC   NC347315  18.447   8.006   5.400
 3483POPC   PO447316  18.585   8.654   5.603
 3483POPC   GL147317  18.318   8.336   5.841
 3483POPC   GL247318  18.345   7.947   5.874
 3483POPC   C1A47319  18.305   8.229   6.287
 3483POPC   D2A47320  18.503   8.184   6.687
 3483POPC   C3A47321  18.301   8.352   7.016
 3483POPC   C4A47322  18.504   8.361   7.372
 3483POPC   C1B47323  18.201   7.723   6.229
 3483POPC   C2B47324  18.128   7.853   6.657
 3483POPC   C3B47325  18.077   7.917   7.096
 3483POPC   C4B47326  17.758   8.028   7.368
 3484POPC   NC347327  44.293   7.522   5.502
 3484POPC   PO447328  44.945   7.444   5.343
 3484POPC   GL147329  44.774   7.311   5.751
 3484POPC   GL247330  44.719   7.637   5.884
 3484POPC   C1A47331  44.688   7.230   6.199
 3484POPC   D2A47332  44.496   7.438   6.496
 3484POPC   C3A47333  44.762   7.435   6.809
 3484POPC   C4A47334  44.623   7.277   7.156
 3484POPC   C1B47335  44.805   7.796   6.330
 3484POPC   C2B47336  44.591   7.904   6.756
 3484POPC   C3B47337  44.493   7.774   7.211
 3484POPC   C4B47338  44.422   7.782   7.677
 3485POPC   NC347339   6.647  13.010   5.385
 3485POPC   PO447340   6.792  12.367   5.358
 3485POPC   GL147341   6.651  12.631   5.721
 3485POPC   GL247342   6.350  12.566   5.891
 3485POPC   C1A47343   6.655  12.941   6.088
 3485POPC   D2A47344   6.748  12.797   6.498
 3485POPC   C3A47345   6.695  12.862   6.924
 3485POPC   C4A47346   6.821  12.838   7.376
 3485POPC   C1B47347   6.243  12.740   6.314
 3485POPC   C2B47348   6.364  13.156   6.500
 3485POPC   C3B47349   6.347  13.270   6.940
 3485POPC   C4B47350   6.310  12.923   7.242
 3486POPC   NC347351  12.955  35.785   5.351
 3486POPC   PO447352  12.848  35.131   5.251
 3486POPC   GL147353  12.813  35.289   5.688
 3486POPC   GL247354  12.993  35.590   5.814
 3486POPC   C1A47355  12.879  35.188   6.147
 3486POPC   D2A47356  13.058  35.180   6.586
 3486POPC   C3A47357  12.801  35.326   6.945
 3486POPC   C4A47358  12.458  35.174   7.169
 3486POPC   C1B47359  13.266  35.542   6.165
 3486POPC   C2B47360  13.444  35.508   6.572
 3486POPC   C3B47361  13.261  35.540   6.985
 3486POPC   C4B47362  13.071  35.410   7.393
 3487POPC   NC347363  23.925  24.711   5.372
 3487POPC   PO447364  23.663  24.108   5.466
 3487POPC   GL147365  23.544  24.262   5.860
 3487POPC   GL247366  23.856  24.433   5.863
 3487POPC   C1A47367  23.459  24.289   6.320
 3487POPC   D2A47368  23.271  24.522   6.683
 3487POPC   C3A47369  23.501  24.539   7.073
 3487POPC   C4A47370  23.462  24.839   7.431
 3487POPC   C1B47371  23.981  24.327   6.279
 3487POPC   C2B47372  23.927  24.500   6.698
 3487POPC   C3B47373  24.060  24.449   7.129
 3487POPC   C4B47374  23.970  24.142   7.450
 3488POPC   NC347375  42.062   3.872   5.421
 3488POPC   PO447376  42.487   3.363   5.411
 3488POPC   GL147377  42.451   3.566   5.797
 3488POPC   GL247378  42.165   3.416   5.883
 3488POPC   C1A47379  42.566   3.299   6.169
 3488POPC   D2A47380  42.588   3.372   6.606
 3488POPC   C3A47381  42.281   3.414   6.929
 3488POPC   C4A47382  42.513   3.404   7.292
 3488POPC   C1B47383  42.257   3.666   6.296
 3488POPC   C2B47384  41.997   3.769   6.664
 3488POPC   C3B47385  42.060   3.855   7.092
 3488POPC   C4B47386  42.120   3.664   7.471
 3489POPC   NC347387  10.569   1.759   5.366
 3489POPC   PO447388  10.873   2.269   5.673
 3489POPC   GL147389  10.552   1.999   5.906
 3489POPC   GL247390  10.364   1.663   5.837
 3489POPC   C1A47391  10.481   1.956   6.367
 3489POPC   D2A47392  10.517   2.310   6.664
 3489POPC   C3A47393  10.723   2.285   7.059
 3489POPC   C4A47394  10.613   2.206   7.508
 3489POPC   C1B47395  10.705   1.548   6.132
 3489POPC   C2B47396  10.903   1.583   6.506
 3489POPC   C3B47397  10.714   1.777   6.828
 3489POPC   C4B47398  10.694   1.798   7.230
 3490POPC   NC347399  31.634  43.702   5.503
 3490POPC   PO447400  31.380  44.320   5.425
 3490POPC   GL147401  31.289  44.144   5.834
 3490POPC   GL247402  31.353  43.785   5.944
 3490POPC   C1A47403  31.517  44.161   6.239
 3490POPC   D2A47404  31.474  43.854   6.546
 3490POPC   C3A47405  31.472  43.993   6.951
 3490POPC   C4A47406  31.312  43.844   7.305
 3490POPC   C1B47407  31.783  43.732   6.140
 3490POPC   C2B47408  31.896  43.556   6.508
 3490POPC   C3B47409  31.813  43.627   6.901
 3490POPC   C4B47410  31.890  43.780   7.287
 3491POPC   NC347411  23.544   9.659   5.414
 3491POPC   PO447412  23.728  10.239   5.520
 3491POPC   GL147413  23.527  10.051   5.825
 3491POPC   GL247414  23.753   9.768   5.876
 3491POPC   C1A47415  23.546  10.048   6.261
 3491POPC   D2A47416  23.861   9.824   6.540
 3491POPC   C3A47417  23.864   9.931   6.994
 3491POPC   C4A47418  23.536  10.100   7.285
 3491POPC   C1B47419  23.489   9.561   6.204
 3491POPC   C2B47420  23.363   9.713   6.646
 3491POPC   C3B47421  23.447   9.625   7.099
 3491POPC   C4B47422  23.558   9.447   7.521
 3492POPC   NC347423  36.247  19.507   5.375
 3492POPC   PO447424  35.957  20.101   5.429
 3492POPC   GL147425  36.201  19.873   5.798
 3492POPC   GL247426  36.113  19.498   5.900
 3492POPC   C1A47427  36.057  19.833   6.267
 3492POPC   D2A47428  36.025  19.475   6.568
 3492POPC   C3A47429  35.941  19.651   6.981
 3492POPC   C4A47430  36.145  20.009   7.156
 3492POPC   C1B47431  36.396  19.277   6.248
 3492POPC   C2B47432  36.574  19.340   6.678
 3492POPC   C3B47433  36.464  19.626   7.019
 3492POPC   C4B47434  36.209  19.555   7.424
 3493POPC   NC347435   7.995  35.771   5.622
 3493POPC   PO447436   8.564  36.020   5.358
 3493POPC   GL147437   8.462  35.938   5.773
 3493POPC   GL247438   8.256  36.243   5.792
 3493POPC   C1A47439   8.265  35.866   6.197
 3493POPC   D2A47440   8.109  35.927   6.604
 3493POPC   C3A47441   8.277  35.767   7.019
 3493POPC   C4A47442   7.959  35.847   7.335
 3493POPC   C1B47443   8.087  36.347   6.204
 3493POPC   C2B47444   8.273  36.407   6.600
 3493POPC   C3B47445   8.104  36.247   6.996
 3493POPC   C4B47446   8.319  36.199   7.391
 3494POPC   NC347447  43.055  22.508   5.551
 3494POPC   PO447448  43.338  23.109   5.517
 3494POPC   GL147449  43.149  22.909   5.857
 3494POPC   GL247450  43.334  22.626   6.013
 3494POPC   C1A47451  43.001  23.009   6.249
 3494POPC   D2A47452  42.927  22.899   6.677
 3494POPC   C3A47453  43.251  22.734   6.933
 3494POPC   C4A47454  43.198  22.757   7.366
 3494POPC   C1B47455  42.996  22.480   6.284
 3494POPC   C2B47456  42.836  22.385   6.690
 3494POPC   C3B47457  42.776  22.609   7.094
 3494POPC   C4B47458  42.694  22.598   7.548
 3495POPC   NC347459  16.264  41.986   5.384
 3495POPC   PO447460  15.825  42.452   5.179
 3495POPC   GL147461  15.934  42.393   5.620
 3495POPC   GL247462  16.228  42.586   5.713
 3495POPC   C1A47463  15.820  42.169   6.027
 3495POPC   D2A47464  15.928  42.019   6.458
 3495POPC   C3A47465  15.835  42.176   6.852
 3495POPC   C4A47466  15.989  42.138   7.217
 3495POPC   C1B47467  16.107  42.576   6.147
 3495POPC   C2B47468  15.958  42.594   6.569
 3495POPC   C3B47469  16.121  42.638   6.995
 3495POPC   C4B47470  16.182  42.553   7.423
 3496POPC   NC347471  13.653  18.525   5.403
 3496POPC   PO447472  13.158  18.231   5.579
 3496POPC   GL147473  13.339  18.346   5.905
 3496POPC   GL247474  13.633  18.179   5.822
 3496POPC   C1A47475  13.469  18.200   6.309
 3496POPC   D2A47476  13.650  18.144   6.698
 3496POPC   C3A47477  13.450  18.257   7.072
 3496POPC   C4A47478  13.455  18.526   7.407
 3496POPC   C1B47479  13.751  18.578   6.105
 3496POPC   C2B47480  13.886  18.580   6.542
 3496POPC   C3B47481  13.919  18.448   6.983
 3496POPC   C4B47482  13.933  18.013   7.158
 3497POPC   NC347483  16.165  40.441   5.515
 3497POPC   PO447484  15.555  40.050   5.418
 3497POPC   GL147485  15.889  40.095   5.760
 3497POPC   GL247486  15.995  39.760   5.913
 3497POPC   C1A47487  16.088  40.171   6.193
 3497POPC   D2A47488  15.917  39.975   6.577
 3497POPC   C3A47489  16.068  40.041   6.976
 3497POPC   C4A47490  16.113  40.087   7.426
 3497POPC   C1B47491  16.201  39.650   6.318
 3497POPC   C2B47492  16.267  39.582   6.764
 3497POPC   C3B47493  16.269  39.649   7.206
 3497POPC   C4B47494  16.379  39.720   7.653
 3498POPC   NC347495  30.039  19.659   5.368
 3498POPC   PO447496  29.571  20.111   5.594
 3498POPC   GL147497  29.843  19.992   5.913
 3498POPC   GL247498  30.159  19.861   5.845
 3498POPC   C1A47499  29.889  19.734   6.276
 3498POPC   D2A47500  29.919  19.496   6.643
 3498POPC   C3A47501  29.633  19.623   6.971
 3498POPC   C4A47502  29.418  19.547   7.396
 3498POPC   C1B47503  30.351  19.951   6.269
 3498POPC   C2B47504  30.384  19.760   6.665
 3498POPC   C3B47505  30.247  19.849   7.069
 3498POPC   C4B47506  29.957  19.875   7.405
 3499POPC   NC347507  27.149  24.409   5.312
 3499POPC   PO447508  26.754  24.856   5.381
 3499POPC   GL147509  26.653  24.606   5.746
 3499POPC   GL247510  26.917  24.397   5.824
 3499POPC   C1A47511  26.641  24.634   6.218
 3499POPC   D2A47512  26.835  24.565   6.637
 3499POPC   C3A47513  26.644  24.584   7.028
 3499POPC   C4A47514  26.715  24.429   7.430
 3499POPC   C1B47515  27.140  24.583   6.217
 3499POPC   C2B47516  27.352  24.519   6.623
 3499POPC   C3B47517  27.154  24.476   7.048
 3499POPC   C4B47518  27.218  24.547   7.499
 3500POPC   NC347519  21.825   8.827   5.334
 3500POPC   PO447520  21.221   8.982   5.480
 3500POPC   GL147521  21.310   9.216   5.871
 3500POPC   GL247522  21.674   9.313   5.864
 3500POPC   C1A47523  21.183   9.061   6.307
 3500POPC   D2A47524  21.332   8.884   6.698
 3500POPC   C3A47525  21.261   9.054   7.108
 3500POPC   C4A47526  21.263   8.763   7.461
 3500POPC   C1B47527  21.665   9.175   6.311
 3500POPC   C2B47528  21.539   9.349   6.704
 3500POPC   C3B47529  21.751   9.278   7.091
 3500POPC   C4B47530  21.642   9.103   7.456
 3501POPC   NC347531  33.755  39.869   5.336
 3501POPC   PO447532  33.901  40.592   5.411
 3501POPC   GL147533  33.835  40.333   5.812
 3501POPC   GL247534  34.002  39.999   5.853
 3501POPC   C1A47535  33.812  40.195   6.274
 3501POPC   D2A47536  33.607  40.103   6.662
 3501POPC   C3A47537  33.780  40.272   7.065
 3501POPC   C4A47538  33.535  40.238   7.430
 3501POPC   C1B47539  33.879  39.676   6.199
 3501POPC   C2B47540  33.684  39.579   6.624
 3501POPC   C3B47541  33.659  39.764   7.059
 3501POPC   C4B47542  33.847  39.860   7.472
 3502POPC   NC347543  39.847  40.264   5.567
 3502POPC   PO447544  40.297  39.692   5.377
 3502POPC   GL147545  40.054  39.710   5.766
 3502POPC   GL247546  39.698  39.621   5.689
 3502POPC   C1A47547  40.084  39.983   6.137
 3502POPC   D2A47548  39.821  40.093   6.508
 3502POPC   C3A47549  39.980  39.931   6.877
 3502POPC   C4A47550  40.119  40.017   7.257
 3502POPC   C1B47551  39.634  39.766   6.125
 3502POPC   C2B47552  39.677  39.581   6.541
 3502POPC   C3B47553  39.563  39.661   6.966
 3502POPC   C4B47554  39.675  39.660   7.381
 3503POPC   NC347555  40.949  15.706   5.352
 3503POPC   PO447556  40.992  16.403   5.313
 3503POPC   GL147557  40.929  16.237   5.721
 3503POPC   GL247558  40.823  15.893   5.806
 3503POPC   C1A47559  41.023  16.235   6.164
 3503POPC   D2A47560  40.816  16.394   6.540
 3503POPC   C3A47561  40.924  16.308   7.009
 3503POPC   C4A47562  40.983  15.886   7.180
 3503POPC   C1B47563  40.630  15.890   6.232
 3503POPC   C2B47564  40.688  15.902   6.699
 3503POPC   C3B47565  40.492  15.678   7.048
 3503POPC   C4B47566  40.548  15.522   7.479
 3504POPC   NC347567  18.051  12.053   5.507
 3504POPC   PO447568  18.610  12.333   5.311
 3504POPC   GL147569  18.431  12.280   5.792
 3504POPC   GL247570  18.044  12.194   5.965
 3504POPC   C1A47571  18.498  12.043   6.192
 3504POPC   D2A47572  18.670  11.886   6.583
 3504POPC   C3A47573  18.379  11.930   6.926
 3504POPC   C4A47574  18.094  11.993   7.275
 3504POPC   C1B47575  18.014  12.085   6.390
 3504POPC   C2B47576  17.860  11.994   6.799
 3504POPC   C3B47577  17.724  12.277   7.099
 3504POPC   C4B47578  17.890  12.429   7.479
 3505POPC   NC347579  14.674  43.791   5.267
 3505POPC   PO447580  14.091  44.033   5.447
 3505POPC   GL147581  14.353  43.690   5.680
 3505POPC   GL247582  14.753  43.654   5.759
 3505POPC   C1A47583  14.387  43.698   6.112
 3505POPC   D2A47584  14.449  44.012   6.431
 3505POPC   C3A47585  14.449  43.792   6.814
 3505POPC   C4A47586  14.481  43.872   7.230
 3505POPC   C1B47587  14.878  43.869   6.128
 3505POPC   C2B47588  14.896  43.813   6.570
 3505POPC   C3B47589  14.824  44.120   6.900
 3505POPC   C4B47590  14.905  44.186   7.319
 3506POPC   NC347591  36.541  41.598   5.068
 3506POPC   PO447592  37.123  41.477   5.397
 3506POPC   GL147593  37.101  41.605   5.793
 3506POPC   GL247594  36.880  41.362   5.859
 3506POPC   C1A47595  37.055  41.684   6.211
 3506POPC   D2A47596  36.840  41.610   6.591
 3506POPC   C3A47597  37.080  41.669   6.980
 3506POPC   C4A47598  36.767  41.612   7.293
 3506POPC   C1B47599  37.210  41.190   6.126
 3506POPC   C2B47600  37.086  41.162   6.549
 3506POPC   C3B47601  36.881  41.207   6.970
 3506POPC   C4B47602  37.164  41.267   7.322
 3507POPC   NC347603  19.294  14.795   5.484
 3507POPC   PO447604  18.921  15.279   5.425
 3507POPC   GL147605  19.226  15.201   5.787
 3507POPC   GL247606  18.966  15.340   5.956
 3507POPC   C1A47607  19.359  15.027   6.217
 3507POPC   D2A47608  19.208  14.990   6.681
 3507POPC   C3A47609  19.279  15.240   7.076
 3507POPC   C4A47610  19.427  15.165   7.507
 3507POPC   C1B47611  18.935  15.316   6.371
 3507POPC   C2B47612  18.716  15.074   6.650
 3507POPC   C3B47613  18.815  15.063   7.038
 3507POPC   C4B47614  18.866  15.387   7.323
 3508POPC   NC347615  30.410  36.590   5.422
 3508POPC   PO447616  30.909  37.030   5.432
 3508POPC   GL147617  30.592  36.968   5.737
 3508POPC   GL247618  30.815  36.731   5.857
 3508POPC   C1A47619  30.463  37.003   6.184
 3508POPC   D2A47620  30.468  36.820   6.625
 3508POPC   C3A47621  30.542  37.049   7.040
 3508POPC   C4A47622  30.814  37.193   7.426
 3508POPC   C1B47623  30.794  36.525   6.239
 3508POPC   C2B47624  30.960  36.619   6.626
 3508POPC   C3B47625  30.785  36.572   7.025
 3508POPC   C4B47626  30.860  36.701   7.419
 3509POPC   NC347627   5.294  41.947   5.344
 3509POPC   PO447628   4.760  41.504   5.391
 3509POPC   GL147629   4.930  41.700   5.790
 3509POPC   GL247630   5.235  41.877   5.939
 3509POPC   C1A47631   4.970  41.505   6.217
 3509POPC   D2A47632   4.837  41.219   6.566
 3509POPC   C3A47633   4.893  41.423   6.973
 3509POPC   C4A47634   4.990  41.768   7.239
 3509POPC   C1B47635   5.468  41.591   6.245
 3509POPC   C2B47636   5.312  41.519   6.635
 3509POPC   C3B47637   5.484  41.696   6.983
 3509POPC   C4B47638   5.444  41.555   7.367
 3510POPC   NC347639  18.630   9.845   5.424
 3510POPC   PO447640  18.091  10.226   5.408
 3510POPC   GL147641  18.325  10.056   5.811
 3510POPC   GL247642  18.099   9.821   5.945
 3510POPC   C1A47643  18.460  10.015   6.304
 3510POPC   D2A47644  18.463   9.712   6.709
 3510POPC   C3A47645  18.435   9.885   7.171
 3510POPC   C4A47646  18.547   9.983   7.660
 3510POPC   C1B47647  18.371   9.538   6.183
 3510POPC   C2B47648  18.255   9.243   6.461
 3510POPC   C3B47649  18.007   9.337   6.793
 3510POPC   C4B47650  18.270   9.397   7.136
 3511POPC   NC347651  24.968  22.810   4.972
 3511POPC   PO447652  25.278  23.250   5.371
 3511POPC   GL147653  25.025  23.249   5.790
 3511POPC   GL247654  25.134  23.520   5.923
 3511POPC   C1A47655  25.014  23.180   6.299
 3511POPC   D2A47656  25.244  22.858   6.582
 3511POPC   C3A47657  25.382  22.811   7.035
 3511POPC   C4A47658  25.606  22.702   7.425
 3511POPC   C1B47659  25.480  23.351   6.184
 3511POPC   C2B47660  25.434  23.329   6.637
 3511POPC   C3B47661  25.258  23.300   7.041
 3511POPC   C4B47662  25.105  23.498   7.383
 3512POPC   NC347663  20.857   8.628   5.486
 3512POPC   PO447664  20.490   9.172   5.347
 3512POPC   GL147665  20.500   8.966   5.751
 3512POPC   GL247666  20.260   8.718   5.921
 3512POPC   C1A47667  20.394   9.152   6.149
 3512POPC   D2A47668  20.286   8.991   6.518
 3512POPC   C3A47669  20.459   8.968   6.934
 3512POPC   C4A47670  20.427   9.308   7.204
 3512POPC   C1B47671  20.612   8.688   6.223
 3512POPC   C2B47672  20.824   8.745   6.635
 3512POPC   C3B47673  20.866   8.683   7.093
 3512POPC   C4B47674  20.576   8.635   7.450
 3513POPC   NC347675  33.407  23.063   5.548
 3513POPC   PO447676  33.413  22.414   5.307
 3513POPC   GL147677  33.612  22.505   5.744
 3513POPC   GL247678  33.671  22.824   5.908
 3513POPC   C1A47679  33.923  22.468   6.143
 3513POPC   D2A47680  34.043  22.582   6.568
 3513POPC   C3A47681  33.749  22.772   6.863
 3513POPC   C4A47682  33.541  22.798   7.228
 3513POPC   C1B47683  33.619  22.845   6.361
 3513POPC   C2B47684  33.739  23.217   6.633
 3513POPC   C3B47685  33.737  23.281   7.091
 3513POPC   C4B47686  33.857  23.241   7.533
 3514POPC   NC347687  40.123  27.692   5.348
 3514POPC   PO447688  40.080  27.111   5.672
 3514POPC   GL147689  40.040  27.532   5.818
 3514POPC   GL247690  39.750  27.734   5.723
 3514POPC   C1A47691  39.988  27.678   6.215
 3514POPC   D2A47692  40.050  27.431   6.567
 3514POPC   C3A47693  40.158  27.662   6.897
 3514POPC   C4A47694  39.925  27.809   7.214
 3514POPC   C1B47695  39.595  27.392   6.028
 3514POPC   C2B47696  39.465  27.401   6.451
 3514POPC   C3B47697  39.622  27.538   6.849
 3514POPC   C4B47698  39.429  27.559   7.228
 3515POPC   NC347699  31.755  31.520   5.334
 3515POPC   PO447700  31.164  31.514   5.538
 3515POPC   GL147701  31.454  31.365   5.867
 3515POPC   GL247702  31.190  31.524   6.052
 3515POPC   C1A47703  31.592  31.261   6.265
 3515POPC   D2A47704  31.419  31.488   6.594
 3515POPC   C3A47705  31.573  31.480   7.011
 3515POPC   C4A47706  31.421  31.701   7.351
 3515POPC   C1B47707  31.026  31.144   6.173
 3515POPC   C2B47708  31.062  31.111   6.610
 3515POPC   C3B47709  31.075  31.378   6.992
 3515POPC   C4B47710  31.227  31.240   7.394
 3516POPC   NC347711  42.825  16.091   5.504
 3516POPC   PO447712  43.095  15.571   5.321
 3516POPC   GL147713  43.062  15.708   5.770
 3516POPC   GL247714  43.179  16.066   5.877
 3516POPC   C1A47715  43.018  15.701   6.225
 3516POPC   D2A47716  42.718  15.762   6.538
 3516POPC   C3A47717  42.905  15.996   6.831
 3516POPC   C4A47718  43.076  15.871   7.179
 3516POPC   C1B47719  43.058  16.295   6.258
 3516POPC   C2B47720  43.174  16.413   6.693
 3516POPC   C3B47721  42.986  16.429   7.119
 3516POPC   C4B47722  42.658  16.201   7.327
 3517POPC   NC347723  13.356  32.540   5.094
 3517POPC   PO447724  12.687  32.413   5.168
 3517POPC   GL147725  12.727  32.245   5.653
 3517POPC   GL247726  12.635  32.508   5.900
 3517POPC   C1A47727  12.987  32.230   6.101
 3517POPC   D2A47728  12.996  32.497   6.506
 3517POPC   C3A47729  13.017  32.321   6.957
 3517POPC   C4A47730  12.922  32.275   7.426
 3517POPC   C1B47731  12.522  32.341   6.324
 3517POPC   C2B47732  12.559  32.444   6.781
 3517POPC   C3B47733  12.525  32.169   7.120
 3517POPC   C4B47734  12.313  32.215   7.507
 3518POPC   NC347735  34.237  16.592   5.528
 3518POPC   PO447736  34.818  16.951   5.307
 3518POPC   GL147737  34.636  16.892   5.733
 3518POPC   GL247738  34.301  17.021   5.810
 3518POPC   C1A47739  34.719  16.628   6.107
 3518POPC   D2A47740  34.513  16.566   6.515
 3518POPC   C3A47741  34.708  16.506   6.894
 3518POPC   C4A47742  34.536  16.535   7.303
 3518POPC   C1B47743  34.482  17.059   6.212
 3518POPC   C2B47744  34.407  17.045   6.615
 3518POPC   C3B47745  34.353  16.878   6.981
 3518POPC   C4B47746  34.321  16.965   7.419
 3519POPC   NC347747  23.468  21.339   5.414
 3519POPC   PO447748  23.908  21.675   5.158
 3519POPC   GL147749  23.853  21.632   5.626
 3519POPC   GL247750  24.004  21.863   5.859
 3519POPC   C1A47751  23.783  21.378   6.010
 3519POPC   D2A47752  23.850  21.227   6.436
 3519POPC   C3A47753  23.595  21.424   6.782
 3519POPC   C4A47754  23.367  21.466   7.185
 3519POPC   C1B47755  23.747  21.843   6.254
 3519POPC   C2B47756  23.684  21.935   6.698
 3519POPC   C3B47757  23.807  21.752   7.137
 3519POPC   C4B47758  23.865  21.767   7.611
 3520POPC   NC347759  22.764  23.301   5.705
 3520POPC   PO447760  23.114  22.859   5.288
 3520POPC   GL147761  22.977  22.842   5.801
 3520POPC   GL247762  22.681  22.852   5.957
 3520POPC   C1A47763  23.163  22.732   6.204
 3520POPC   D2A47764  23.153  22.696   6.662
 3520POPC   C3A47765  22.893  22.843   7.002
 3520POPC   C4A47766  23.083  23.036   7.393
 3520POPC   C1B47767  22.750  22.930   6.412
 3520POPC   C2B47768  22.713  23.257   6.721
 3520POPC   C3B47769  22.719  23.299   7.172
 3520POPC   C4B47770  22.609  23.111   7.581
 3521POPC   NC347771  38.367   8.506   5.519
 3521POPC   PO447772  38.503   7.922   5.197
 3521POPC   GL147773  38.592   8.039   5.662
 3521POPC   GL247774  38.793   8.331   5.770
 3521POPC   C1A47775  38.461   8.108   6.138
 3521POPC   D2A47776  38.226   8.217   6.568
 3521POPC   C3A47777  38.228   8.018   7.019
 3521POPC   C4A47778  38.230   7.948   7.504
 3521POPC   C1B47779  38.826   8.598   6.140
 3521POPC   C2B47780  38.721   8.645   6.597
 3521POPC   C3B47781  38.511   8.462   6.959
 3521POPC   C4B47782  38.536   8.342   7.412
 3522POPC   NC347783   4.963   7.625   5.531
 3522POPC   PO447784   5.237   7.036   5.234
 3522POPC   GL147785   5.135   7.072   5.685
 3522POPC   GL247786   4.755   7.093   5.801
 3522POPC   C1A47787   5.140   7.033   6.122
 3522POPC   D2A47788   5.205   7.330   6.472
 3522POPC   C3A47789   5.109   7.193   6.886
 3522POPC   C4A47790   5.244   7.417   7.257
 3522POPC   C1B47791   4.803   7.420   6.145
 3522POPC   C2B47792   4.722   7.413   6.580
 3522POPC   C3B47793   4.818   7.595   6.972
 3522POPC   C4B47794   4.706   7.634   7.425
 3523POPC   NC347795  39.393  21.092   5.319
 3523POPC   PO447796  39.188  21.761   5.232
 3523POPC   GL147797  39.215  21.472   5.622
 3523POPC   GL247798  39.557  21.376   5.732
 3523POPC   C1A47799  39.170  21.325   6.066
 3523POPC   D2A47800  39.258  21.424   6.482
 3523POPC   C3A47801  38.985  21.395   6.846
 3523POPC   C4A47802  39.043  21.362   7.280
 3523POPC   C1B47803  39.696  21.269   6.171
 3523POPC   C2B47804  39.664  21.146   6.608
 3523POPC   C3B47805  39.511  21.371   6.960
 3523POPC   C4B47806  39.642  21.198   7.344
 3524POPC   NC347807  43.894   0.761   5.293
 3524POPC   PO447808  43.772   1.381   5.605
 3524POPC   GL147809  43.908   1.138   5.851
 3524POPC   GL247810  43.595   0.902   5.775
 3524POPC   C1A47811  43.977   1.404   6.255
 3524POPC   D2A47812  43.911   1.641   6.635
 3524POPC   C3A47813  44.027   1.431   7.001
 3524POPC   C4A47814  43.855   1.386   7.414
 3524POPC   C1B47815  43.682   0.984   6.246
 3524POPC   C2B47816  43.659   1.179   6.615
 3524POPC   C3B47817  43.765   1.003   6.956
 3524POPC   C4B47818  43.585   0.990   7.317
 3525POPC   NC347819   6.397  29.608   5.487
 3525POPC   PO447820   6.812  30.069   5.236
 3525POPC   GL147821   6.674  29.939   5.718
 3525POPC   GL247822   6.992  29.999   5.815
 3525POPC   C1A47823   6.572  30.016   6.150
 3525POPC   D2A47824   6.799  29.916   6.559
 3525POPC   C3A47825   6.502  29.908   6.924
 3525POPC   C4A47826   6.441  29.902   7.385
 3525POPC   C1B47827   7.015  30.271   6.187
 3525POPC   C2B47828   7.090  30.364   6.628
 3525POPC   C3B47829   6.884  30.243   7.011
 3525POPC   C4B47830   6.947  29.966   7.373
 3526POPC   NC347831  32.984  22.429   5.531
 3526POPC   PO447832  32.634  21.947   5.457
 3526POPC   GL147833  32.958  21.979   5.805
 3526POPC   GL247834  33.311  22.068   5.741
 3526POPC   C1A47835  32.991  22.109   6.249
 3526POPC   D2A47836  33.056  22.306   6.672
 3526POPC   C3A47837  32.837  22.203   7.033
 3526POPC   C4A47838  32.989  22.262   7.422
 3526POPC   C1B47839  33.462  22.271   6.164
 3526POPC   C2B47840  33.561  22.372   6.613
 3526POPC   C3B47841  33.407  22.310   7.065
 3526POPC   C4B47842  33.476  22.396   7.524
 3527POPC   NC347843  34.436  10.361   5.430
 3527POPC   PO447844  34.986  10.763   5.305
 3527POPC   GL147845  34.787  10.619   5.718
 3527POPC   GL247846  34.407  10.663   5.852
 3527POPC   C1A47847  34.758  10.350   6.090
 3527POPC   D2A47848  34.870  10.506   6.515
 3527POPC   C3A47849  34.807  10.307   6.886
 3527POPC   C4A47850  34.551  10.337   7.234
 3527POPC   C1B47851  34.384  10.618   6.322
 3527POPC   C2B47852  34.340  10.541   6.765
 3527POPC   C3B47853  34.237  10.729   7.156
 3527POPC   C4B47854  34.232  10.564   7.570
 3528POPC   NC347855  23.025  32.001   5.473
 3528POPC   PO447856  23.296  32.586   5.439
 3528POPC   GL147857  23.396  32.272   5.827
 3528POPC   GL247858  23.252  31.934   5.922
 3528POPC   C1A47859  23.363  32.249   6.319
 3528POPC   D2A47860  23.016  32.299   6.626
 3528POPC   C3A47861  22.996  32.271   7.087
 3528POPC   C4A47862  22.653  32.454   7.327
 3528POPC   C1B47863  22.885  32.161   6.114
 3528POPC   C2B47864  22.565  32.104   6.438
 3528POPC   C3B47865  22.521  32.157   6.883
 3528POPC   C4B47866  22.594  31.955   7.278
 3529POPC   NC347867   0.659  28.917   5.388
 3529POPC   PO447868   0.183  29.354   5.188
 3529POPC   GL147869   0.498  29.395   5.618
 3529POPC   GL247870   0.454  29.097   5.818
 3529POPC   C1A47871   0.647  29.492   6.078
 3529POPC   D2A47872   0.415  29.494   6.503
 3529POPC   C3A47873   0.465  29.416   6.984
 3529POPC   C4A47874   0.272  29.130   7.338
 3529POPC   C1B47875   0.541  29.028   6.254
 3529POPC   C2B47876   0.636  28.973   6.691
 3529POPC   C3B47877   0.758  29.017   7.125
 3529POPC   C4B47878   0.929  29.395   7.283
 3530POPC   NC347879   9.832  36.512   5.126
 3530POPC   PO447880   9.594  37.114   5.309
 3530POPC   GL147881   9.620  37.096   5.765
 3530POPC   GL247882   9.647  36.719   5.696
 3530POPC   C1A47883   9.670  37.024   6.253
 3530POPC   D2A47884   9.875  36.812   6.643
 3530POPC   C3A47885   9.840  36.910   7.102
 3530POPC   C4A47886   9.699  37.279   7.349
 3530POPC   C1B47887   9.456  36.589   6.084
 3530POPC   C2B47888   9.376  36.668   6.531
 3530POPC   C3B47889   9.530  36.480   6.914
 3530POPC   C4B47890   9.455  36.604   7.341
 3531POPC   NC347891  35.263  35.521   5.069
 3531POPC   PO447892  35.233  35.256   5.652
 3531POPC   GL147893  35.185  35.508   5.988
 3531POPC   GL247894  34.866  35.319   5.975
 3531POPC   C1A47895  35.409  35.583   6.378
 3531POPC   D2A47896  35.673  35.299   6.618
 3531POPC   C3A47897  35.631  35.311   7.071
 3531POPC   C4A47898  35.528  35.165   7.494
 3531POPC   C1B47899  35.016  35.236   6.409
 3531POPC   C2B47900  35.191  35.352   6.814
 3531POPC   C3B47901  35.098  35.251   7.220
 3531POPC   C4B47902  34.866  35.529   7.490
 3532POPC   NC347903  15.903  25.963   5.466
 3532POPC   PO447904  16.484  26.253   5.283
 3532POPC   GL147905  16.307  26.235   5.732
 3532POPC   GL247906  16.139  25.936   5.898
 3532POPC   C1A47907  16.262  26.322   6.198
 3532POPC   D2A47908  15.881  26.285   6.481
 3532POPC   C3A47909  15.873  26.240   6.928
 3532POPC   C4A47910  15.603  26.179   7.280
 3532POPC   C1B47911  15.906  25.807   6.276
 3532POPC   C2B47912  15.880  25.563   6.664
 3532POPC   C3B47913  15.763  25.737   7.073
 3532POPC   C4B47914  15.920  25.871   7.529
 3533POPC   NC347915   7.777  11.564   5.436
 3533POPC   PO447916   7.536  11.053   5.223
 3533POPC   GL147917   7.318  11.106   5.602
 3533POPC   GL247918   7.475  11.350   5.791
 3533POPC   C1A47919   7.131  11.050   6.024
 3533POPC   D2A47920   7.332  11.183   6.414
 3533POPC   C3A47921   7.176  11.098   6.825
 3533POPC   C4A47922   7.471  11.157   7.141
 3533POPC   C1B47923   7.638  11.637   6.092
 3533POPC   C2B47924   7.447  11.733   6.468
 3533POPC   C3B47925   7.394  11.563   6.813
 3533POPC   C4B47926   7.472  11.695   7.185
 3534POPC   NC347927  39.300  17.853   5.473
 3534POPC   PO447928  39.014  18.494   5.425
 3534POPC   GL147929  39.187  18.226   5.823
 3534POPC   GL247930  39.315  17.854   5.969
 3534POPC   C1A47931  39.406  18.261   6.230
 3534POPC   D2A47932  39.593  18.161   6.578
 3534POPC   C3A47933  39.466  18.374   6.903
 3534POPC   C4A47934  39.480  18.252   7.296
 3534POPC   C1B47935  38.973  17.918   6.287
 3534POPC   C2B47936  39.059  18.108   6.631
 3534POPC   C3B47937  39.204  17.936   6.964
 3534POPC   C4B47938  39.033  17.916   7.337
 3535POPC   NC347939  34.065  21.403   5.384
 3535POPC   PO447940  33.497  21.718   5.387
 3535POPC   GL147941  33.597  21.289   5.637
 3535POPC   GL247942  33.927  21.223   5.828
 3535POPC   C1A47943  33.486  21.245   6.101
 3535POPC   D2A47944  33.571  21.463   6.528
 3535POPC   C3A47945  33.473  21.357   6.933
 3535POPC   C4A47946  33.623  21.168   7.289
 3535POPC   C1B47947  33.941  21.461   6.193
 3535POPC   C2B47948  34.083  21.508   6.614
 3535POPC   C3B47949  33.971  21.495   7.040
 3535POPC   C4B47950  34.075  21.881   7.235
 3536POPC   NC347951   8.273  19.471   5.091
 3536POPC   PO447952   8.019  20.122   5.237
 3536POPC   GL147953   8.200  19.938   5.660
 3536POPC   GL247954   7.983  19.678   5.815
 3536POPC   C1A47955   8.383  19.790   6.090
 3536POPC   D2A47956   8.225  19.829   6.520
 3536POPC   C3A47957   8.403  19.773   6.929
 3536POPC   C4A47958   8.237  19.960   7.335
 3536POPC   C1B47959   7.837  19.856   6.182
 3536POPC   C2B47960   7.719  19.720   6.598
 3536POPC   C3B47961   7.879  19.798   6.998
 3536POPC   C4B47962   7.826  19.724   7.472
 3537POPC   NC347963  16.271  44.887   5.426
 3537POPC   PO447964  15.602  44.646   5.217
 3537POPC   GL147965  15.830  44.728   5.629
 3537POPC   GL247966  15.747   0.075   5.565
 3537POPC   C1A47967  16.093  44.770   6.051
 3537POPC   D2A47968  16.092  44.531   6.445
 3537POPC   C3A47969  16.063  44.711   6.873
 3537POPC   C4A47970  16.182  44.433   7.207
 3537POPC   C1B47971  15.678   0.064   6.025
 3537POPC   C2B47972  15.723  44.927   6.448
 3537POPC   C3B47973  15.545  44.824   6.839
 3537POPC   C4B47974  15.700  44.981   7.228
 3538POPC   NC347975  37.432  17.656   5.433
 3538POPC   PO447976  37.955  17.227   5.442
 3538POPC   GL147977  37.821  17.450   5.768
 3538POPC   GL247978  38.024  17.742   5.684
 3538POPC   C1A47979  37.653  17.354   6.171
 3538POPC   D2A47980  37.826  17.284   6.603
 3538POPC   C3A47981  37.604  17.441   6.954
 3538POPC   C4A47982  37.401  17.409   7.354
 3538POPC   C1B47983  37.909  17.845   6.103
 3538POPC   C2B47984  37.642  17.772   6.460
 3538POPC   C3B47985  37.305  17.851   6.728
 3538POPC   C4B47986  37.520  17.998   7.072
 3539POPC   NC347987  43.010  42.727   5.379
 3539POPC   PO447988  43.515  43.147   5.287
 3539POPC   GL147989  43.301  43.327   5.658
 3539POPC   GL247990  43.032  43.092   5.754
 3539POPC   C1A47991  43.311  43.272   6.126
 3539POPC   D2A47992  43.269  42.929   6.433
 3539POPC   C3A47993  43.270  43.111   6.834
 3539POPC   C4A47994  43.118  43.118   7.222
 3539POPC   C1B47995  42.828  43.050   6.159
 3539POPC   C2B47996  42.817  43.183   6.594
 3539POPC   C3B47997  42.683  42.991   7.004
 3539POPC   C4B47998  42.703  43.135   7.501
 3540POPC   NC347999  30.202   2.185   5.341
 3540POPC   PO448000  29.557   1.920   5.274
 3540POPC   GL148001  29.862   1.955   5.649
 3540POPC   GL248002  29.655   2.197   5.807
 3540POPC   C1A48003  30.071   1.924   6.098
 3540POPC   D2A48004  30.042   2.015   6.559
 3540POPC   C3A48005  30.269   1.939   6.979
 3540POPC   C4A48006  30.354   2.029   7.440
 3540POPC   C1B48007  29.748   2.322   6.227
 3540POPC   C2B48008  29.629   2.306   6.646
 3540POPC   C3B48009  29.798   2.234   7.053
 3540POPC   C4B48010  29.767   2.605   7.288
 3541POPC   NC348011  36.291  30.409   5.384
 3541POPC   PO448012  35.744  30.787   5.435
 3541POPC   GL148013  35.896  30.964   5.785
 3541POPC   GL248014  36.227  30.851   5.791
 3541POPC   C1A48015  35.884  30.796   6.189
 3541POPC   D2A48016  36.020  30.558   6.546
 3541POPC   C3A48017  36.062  30.786   6.929
 3541POPC   C4A48018  36.203  30.834   7.345
 3541POPC   C1B48019  36.330  30.541   6.099
 3541POPC   C2B48020  36.531  30.579   6.501
 3541POPC   C3B48021  36.433  30.437   6.896
 3541POPC   C4B48022  36.600  30.508   7.240
 3542POPC   NC348023  21.490  15.568   5.214
 3542POPC   PO448024  21.228  15.002   5.420
 3542POPC   GL148025  21.437  15.099   5.788
 3542POPC   GL248026  21.134  15.177   5.924
 3542POPC   C1A48027  21.511  14.952   6.220
 3542POPC   D2A48028  21.636  15.120   6.655
 3542POPC   C3A48029  21.585  15.034   7.148
 3542POPC   C4A48030  21.598  14.988   7.580
 3542POPC   C1B48031  21.040  15.404   6.275
 3542POPC   C2B48032  21.110  15.331   6.707
 3542POPC   C3B48033  21.146  15.263   7.092
 3542POPC   C4B48034  21.370  15.504   7.367
 3543POPC   NC348035  35.447  23.897   5.386
 3543POPC   PO448036  34.972  23.377   5.495
 3543POPC   GL148037  35.269  23.462   5.852
 3543POPC   GL248038  35.456  23.773   5.869
 3543POPC   C1A48039  35.400  23.524   6.301
 3543POPC   D2A48040  35.572  23.493   6.718
 3543POPC   C3A48041  35.309  23.522   7.065
 3543POPC   C4A48042  35.202  23.363   7.462
 3543POPC   C1B48043  35.205  23.976   6.200
 3543POPC   C2B48044  35.134  23.815   6.636
 3543POPC   C3B48045  34.920  23.883   7.031
 3543POPC   C4B48046  35.087  23.867   7.436
 3544POPC   NC348047   5.103  23.366   5.381
 3544POPC   PO448048   5.072  22.784   5.234
 3544POPC   GL148049   5.087  22.905   5.662
 3544POPC   GL248050   4.760  22.765   5.775
 3544POPC   C1A48051   5.218  23.075   6.073
 3544POPC   D2A48052   5.057  23.007   6.503
 3544POPC   C3A48053   5.162  23.161   6.889
 3544POPC   C4A48054   5.024  23.100   7.308
 3544POPC   C1B48055   4.595  22.869   6.195
 3544POPC   C2B48056   4.548  23.072   6.600
 3544POPC   C3B48057   4.697  22.909   6.982
 3544POPC   C4B48058   4.570  22.783   7.396
 3545POPC   NC348059  26.881   3.503   5.448
 3545POPC   PO448060  26.852   4.117   5.506
 3545POPC   GL148061  27.002   3.824   5.889
 3545POPC   GL248062  27.058   3.427   5.933
 3545POPC   C1A48063  27.005   3.723   6.344
 3545POPC   D2A48064  27.055   3.357   6.593
 3545POPC   C3A48065  26.935   3.408   7.029
 3545POPC   C4A48066  26.868   3.764   7.292
 3545POPC   C1B48067  26.681   3.343   6.216
 3545POPC   C2B48068  26.561   3.299   6.684
 3545POPC   C3B48069  26.439   3.518   7.080
 3545POPC   C4B48070  26.410   3.772   7.508
 3546POPC   NC348071  26.522  23.295   5.355
 3546POPC   PO448072  27.147  23.021   5.525
 3546POPC   GL148073  26.902  23.087   5.850
 3546POPC   GL248074  26.639  22.869   5.782
 3546POPC   C1A48075  27.076  23.137   6.258
 3546POPC   D2A48076  26.966  23.309   6.637
 3546POPC   C3A48077  27.049  23.140   7.017
 3546POPC   C4A48078  26.959  22.952   7.423
 3546POPC   C1B48079  26.563  23.027   6.228
 3546POPC   C2B48080  26.471  23.136   6.666
 3546POPC   C3B48081  26.558  22.963   7.100
 3546POPC   C4B48082  26.609  22.555   7.366
 3547POPC   NC348083  13.900  30.821   5.399
 3547POPC   PO448084  13.242  30.617   5.408
 3547POPC   GL148085  13.495  30.732   5.730
 3547POPC   GL248086  13.388  31.083   5.797
 3547POPC   C1A48087  13.685  30.532   6.084
 3547POPC   D2A48088  13.763  30.707   6.483
 3547POPC   C3A48089  13.716  30.501   6.854
 3547POPC   C4A48090  13.661  30.324   7.246
 3547POPC   C1B48091  13.711  31.080   6.090
 3547POPC   C2B48092  13.577  31.203   6.497
 3547POPC   C3B48093  13.660  31.051   6.886
 3547POPC   C4B48094  13.661  30.842   7.257
 3548POPC   NC348095  19.721  12.418   5.430
 3548POPC   PO448096  20.042  13.033   5.511
 3548POPC   GL148097  19.806  12.952   5.900
 3548POPC   GL248098  19.598  12.611   5.889
 3548POPC   C1A48099  19.996  13.050   6.317
 3548POPC   D2A48100  20.178  12.771   6.605
 3548POPC   C3A48101  20.011  12.807   6.993
 3548POPC   C4A48102  20.074  13.199   7.182
 3548POPC   C1B48103  19.699  12.624   6.331
 3548POPC   C2B48104  19.600  12.897   6.673
 3548POPC   C3B48105  19.505  12.917   7.110
 3548POPC   C4B48106  19.439  12.556   7.347
 3549POPC   NC348107   4.106  15.915   5.608
 3549POPC   PO448108   4.735  16.104   5.513
 3549POPC   GL148109   4.549  15.977   5.896
 3549POPC   GL248110   4.573  15.668   5.792
 3549POPC   C1A48111   4.233  15.959   6.273
 3549POPC   D2A48112   4.007  15.725   6.611
 3549POPC   C3A48113   3.926  15.944   6.992
 3549POPC   C4A48114   4.220  16.268   7.156
 3549POPC   C1B48115   4.495  15.509   6.192
 3549POPC   C2B48116   4.529  15.648   6.602
 3549POPC   C3B48117   4.382  15.698   7.003
 3549POPC   C4B48118   4.556  15.909   7.312
 3550POPC   NC348119  11.393  31.361   5.527
 3550POPC   PO448120  11.194  31.851   5.166
 3550POPC   GL148121  11.184  31.823   5.689
 3550POPC   GL248122  11.518  31.797   5.837
 3550POPC   C1A48123  11.144  31.808   6.184
 3550POPC   D2A48124  11.215  31.560   6.585
 3550POPC   C3A48125  11.257  31.687   7.029
 3550POPC   C4A48126  11.043  31.453   7.382
 3550POPC   C1B48127  11.607  31.533   6.222
 3550POPC   C2B48128  11.624  31.268   6.628
 3550POPC   C3B48129  11.471  31.186   7.068
 3550POPC   C4B48130  11.454  31.211   7.547
 3551POPC   NC348131  26.808  32.711   5.307
 3551POPC   PO448132  27.386  32.985   5.235
 3551POPC   GL148133  27.150  32.882   5.667
 3551POPC   GL248134  26.864  33.110   5.700
 3551POPC   C1A48135  26.810  32.748   6.036
 3551POPC   D2A48136  26.637  32.986   6.419
 3551POPC   C3A48137  26.680  32.888   6.892
 3551POPC   C4A48138  26.912  32.793   7.312
 3551POPC   C1B48139  27.044  33.188   6.136
 3551POPC   C2B48140  27.094  33.108   6.605
 3551POPC   C3B48141  26.983  33.291   7.005
 3551POPC   C4B48142  27.033  33.291   7.432
 3552POPC   NC348143   5.269   4.456   5.455
 3552POPC   PO448144   4.620   4.210   5.469
 3552POPC   GL148145   4.842   4.459   5.793
 3552POPC   GL248146   5.148   4.331   5.946
 3552POPC   C1A48147   4.810   4.532   6.260
 3552POPC   D2A48148   5.085   4.314   6.575
 3552POPC   C3A48149   4.944   4.395   7.010
 3552POPC   C4A48150   4.917   4.275   7.462
 3552POPC   C1B48151   5.163   3.947   6.204
 3552POPC   C2B48152   5.171   3.787   6.593
 3552POPC   C3B48153   5.249   3.965   6.964
 3552POPC   C4B48154   5.112   3.846   7.318
 3553POPC   NC348155  36.736  37.405   5.361
 3553POPC   PO448156  36.697  36.661   5.457
 3553POPC   GL148157  36.690  36.797   5.866
 3553POPC   GL248158  37.036  36.890   5.975
 3553POPC   C1A48159  36.599  36.567   6.215
 3553POPC   D2A48160  36.543  36.754   6.623
 3553POPC   C3A48161  36.911  36.997   6.759
 3553POPC   C4A48162  37.210  36.868   7.107
 3553POPC   C1B48163  36.734  37.129   6.257
 3553POPC   C2B48164  36.621  37.425   6.590
 3553POPC   C3B48165  36.558  37.330   7.019
 3553POPC   C4B48166  36.720  36.969   7.230
 3554POPC   NC348167  20.053  41.292   5.553
 3554POPC   PO448168  19.598  41.742   5.411
 3554POPC   GL148169  19.774  41.598   5.860
 3554POPC   GL248170  19.741  41.237   5.973
 3554POPC   C1A48171  19.943  41.661   6.323
 3554POPC   D2A48172  19.775  41.424   6.705
 3554POPC   C3A48173  19.802  41.598   7.131
 3554POPC   C4A48174  19.826  41.583   7.576
 3554POPC   C1B48175  20.137  41.204   6.217
 3554POPC   C2B48176  20.270  41.287   6.635
 3554POPC   C3B48177  20.150  41.211   7.036
 3554POPC   C4B48178  20.210  41.295   7.440
 3555POPC   NC348179  27.433  37.997   5.435
 3555POPC   PO448180  27.788  37.363   5.428
 3555POPC   GL148181  27.749  37.704   5.717
 3555POPC   GL248182  27.464  37.585   5.826
 3555POPC   C1A48183  27.676  37.906   6.158
 3555POPC   D2A48184  27.876  37.626   6.498
 3555POPC   C3A48185  27.798  37.567   6.965
 3555POPC   C4A48186  27.985  37.771   7.342
 3555POPC   C1B48187  27.325  37.548   6.242
 3555POPC   C2B48188  27.384  37.729   6.648
 3555POPC   C3B48189  27.297  37.682   7.072
 3555POPC   C4B48190  27.350  37.405   7.390
 3556POPC   NC348191  15.819  31.932   4.982
 3556POPC   PO448192  15.933  32.466   5.413
 3556POPC   GL148193  15.993  32.252   5.825
 3556POPC   GL248194  16.073  31.922   5.752
 3556POPC   C1A48195  16.051  32.182   6.277
 3556POPC   D2A48196  16.235  32.280   6.666
 3556POPC   C3A48197  15.890  32.260   6.923
 3556POPC   C4A48198  15.823  32.251   7.340
 3556POPC   C1B48199  15.984  31.705   6.164
 3556POPC   C2B48200  15.977  31.815   6.657
 3556POPC   C3B48201  15.897  31.789   7.139
 3556POPC   C4B48202  15.874  31.859   7.640
 3557POPC   NC348203  11.131  22.779   5.438
 3557POPC   PO448204  11.730  22.975   5.654
 3557POPC   GL148205  11.350  22.883   5.905
 3557POPC   GL248206  11.066  23.105   5.852
 3557POPC   C1A48207  11.155  22.882   6.334
 3557POPC   D2A48208  11.094  22.874   6.795
 3557POPC   C3A48209  11.366  23.053   7.086
 3557POPC   C4A48210  11.273  22.769   7.394
 3557POPC   C1B48211  10.946  23.334   6.228
 3557POPC   C2B48212  10.783  23.248   6.614
 3557POPC   C3B48213  10.928  23.299   7.023
 3557POPC   C4B48214  10.841  22.969   7.305
 3558POPC   NC348215  32.693  12.579   5.250
 3558POPC   PO448216  33.193  12.978   5.414
 3558POPC   GL148217  32.916  12.848   5.737
 3558POPC   GL248218  32.924  12.509   5.744
 3558POPC   C1A48219  33.030  12.777   6.193
 3558POPC   D2A48220  33.094  12.915   6.616
 3558POPC   C3A48221  33.049  12.658   6.967
 3558POPC   C4A48222  33.057  12.795   7.371
 3558POPC   C1B48223  32.608  12.537   6.074
 3558POPC   C2B48224  32.639  12.650   6.522
 3558POPC   C3B48225  32.651  12.352   6.876
 3558POPC   C4B48226  32.706  12.431   7.311
 3559POPC   NC348227   5.061  38.041   4.920
 3559POPC   PO448228   5.197  37.587   5.443
 3559POPC   GL148229   5.149  37.791   5.860
 3559POPC   GL248230   4.799  37.855   5.816
 3559POPC   C1A48231   5.269  37.767   6.325
 3559POPC   D2A48232   5.310  37.834   6.793
 3559POPC   C3A48233   5.191  37.486   7.092
 3559POPC   C4A48234   5.119  37.407   7.561
 3559POPC   C1B48235   4.808  37.514   6.148
 3559POPC   C2B48236   4.864  37.533   6.601
 3559POPC   C3B48237   4.809  37.785   6.940
 3559POPC   C4B48238   4.688  37.486   7.253
 3560POPC   NC348239  29.118  20.128   5.508
 3560POPC   PO448240  29.335  20.828   5.493
 3560POPC   GL148241  29.215  20.733   5.830
 3560POPC   GL248242  28.892  20.619   5.713
 3560POPC   C1A48243  29.347  20.576   6.234
 3560POPC   D2A48244  29.384  20.361   6.636
 3560POPC   C3A48245  29.382  20.699   6.911
 3560POPC   C4A48246  29.248  20.885   7.305
 3560POPC   C1B48247  28.850  20.723   6.163
 3560POPC   C2B48248  28.961  20.669   6.584
 3560POPC   C3B48249  28.883  20.627   7.016
 3560POPC   C4B48250  29.094  20.331   7.241
 3561POPC   NC348251  32.140  44.099   5.217
 3561POPC   PO448252  32.087  43.597   5.592
 3561POPC   GL148253  32.360  43.793   5.862
 3561POPC   GL248254  32.366  44.118   5.695
 3561POPC   C1A48255  32.360  43.751   6.307
 3561POPC   D2A48256  32.405  43.924   6.730
 3561POPC   C3A48257  32.310  43.658   7.052
 3561POPC   C4A48258  32.409  43.685   7.504
 3561POPC   C1B48259  32.039  44.186   6.051
 3561POPC   C2B48260  31.953  44.065   6.498
 3561POPC   C3B48261  31.965  44.158   6.929
 3561POPC   C4B48262  32.233  44.154   7.270
 3562POPC   NC348263  43.349   4.211   5.505
 3562POPC   PO448264  42.742   4.455   5.344
 3562POPC   GL148265  42.913   4.266   5.776
 3562POPC   GL248266  43.230   4.470   5.921
 3562POPC   C1A48267  42.930   4.243   6.261
 3562POPC   D2A48268  42.749   4.395   6.663
 3562POPC   C3A48269  42.905   4.182   7.019
 3562POPC   C4A48270  43.312   4.064   7.112
 3562POPC   C1B48271  43.309   4.652   6.336
 3562POPC   C2B48272  43.275   4.473   6.758
 3562POPC   C3B48273  43.507   4.529   7.136
 3562POPC   C4B48274  43.380   4.789   7.448
 3563POPC   NC348275  39.787  14.256   5.165
 3563POPC   PO448276  39.345  14.855   5.346
 3563POPC   GL148277  39.728  14.667   5.649
 3563POPC   GL248278  39.805  14.279   5.693
 3563POPC   C1A48279  39.986  14.589   6.075
 3563POPC   D2A48280  40.127  14.316   6.467
 3563POPC   C3A48281  40.208  14.447   6.924
 3563POPC   C4A48282  40.063  14.680   7.343
 3563POPC   C1B48283  39.930  14.001   6.068
 3563POPC   C2B48284  39.781  13.975   6.505
 3563POPC   C3B48285  39.758  14.132   6.927
 3563POPC   C4B48286  40.055  14.122   7.270
 3564POPC   NC348287  29.773  28.762   5.072
 3564POPC   PO448288  29.547  28.292   5.433
 3564POPC   GL148289  29.741  28.344   5.863
 3564POPC   GL248290  29.619  28.596   6.060
 3564POPC   C1A48291  30.007  28.345   6.280
 3564POPC   D2A48292  30.206  28.543   6.664
 3564POPC   C3A48293  30.100  28.375   7.098
 3564POPC   C4A48294  30.283  28.245   7.511
 3564POPC   C1B48295  29.808  28.800   6.442
 3564POPC   C2B48296  29.823  28.840   6.917
 3564POPC   C3B48297  29.864  28.747   7.366
 3564POPC   C4B48298  29.822  28.403   7.655
 3565POPC   NC348299  27.813  41.621   5.481
 3565POPC   PO448300  27.116  41.915   5.363
 3565POPC   GL148301  27.399  41.807   5.770
 3565POPC   GL248302  27.756  41.881   5.908
 3565POPC   C1A48303  27.517  41.488   6.129
 3565POPC   D2A48304  27.740  41.328   6.525
 3565POPC   C3A48305  27.506  41.389   6.917
 3565POPC   C4A48306  27.442  41.499   7.338
 3565POPC   C1B48307  27.679  41.950   6.357
 3565POPC   C2B48308  27.722  41.854   6.823
 3565POPC   C3B48309  27.886  41.810   7.257
 3565POPC   C4B48310  28.056  41.986   7.643
 3566POPC   NC348311   5.011  15.724   5.443
 3566POPC   PO448312   5.358  16.352   5.425
 3566POPC   GL148313   5.118  16.159   5.817
 3566POPC   GL248314   5.188  15.804   5.899
 3566POPC   C1A48315   5.154  16.245   6.255
 3566POPC   D2A48316   5.004  16.361   6.678
 3566POPC   C3A48317   5.246  16.384   7.027
 3566POPC   C4A48318   5.165  16.217   7.409
 3566POPC   C1B48319   4.904  15.802   6.224
 3566POPC   C2B48320   4.986  15.864   6.634
 3566POPC   C3B48321   4.998  15.903   7.057
 3566POPC   C4B48322   5.261  15.636   7.346
 3567POPC   NC348323   9.377  14.986   5.441
 3567POPC   PO448324   8.770  15.065   5.579
 3567POPC   GL148325   8.877  15.289   5.917
 3567POPC   GL248326   9.216  15.143   5.899
 3567POPC   C1A48327   8.716  15.288   6.349
 3567POPC   D2A48328   8.589  15.278   6.822
 3567POPC   C3A48329   8.836  15.215   7.214
 3567POPC   C4A48330   8.677  15.393   7.637
 3567POPC   C1B48331   9.235  15.312   6.299
 3567POPC   C2B48332   9.083  15.408   6.691
 3567POPC   C3B48333   9.283  15.424   7.051
 3567POPC   C4B48334   9.304  15.084   7.324
 3568POPC   NC348335  15.650  43.738   5.196
 3568POPC   PO448336  15.914  44.190   5.565
 3568POPC   GL148337  15.723  43.984   5.843
 3568POPC   GL248338  15.739  43.662   5.707
 3568POPC   C1A48339  15.851  44.055   6.257
 3568POPC   D2A48340  16.200  43.951   6.516
 3568POPC   C3A48341  16.127  43.988   6.957
 3568POPC   C4A48342  16.338  43.964   7.361
 3568POPC   C1B48343  15.758  43.559   6.156
 3568POPC   C2B48344  15.677  43.684   6.595
 3568POPC   C3B48345  15.651  43.515   7.008
 3568POPC   C4B48346  15.926  43.659   7.302
 3569POPC   NC348347  25.711  29.256   5.461
 3569POPC   PO448348  25.132  28.980   5.341
 3569POPC   GL148349  25.303  29.131   5.752
 3569POPC   GL248350  25.611  28.968   5.881
 3569POPC   C1A48351  25.246  29.236   6.182
 3569POPC   D2A48352  24.989  29.133   6.542
 3569POPC   C3A48353  25.087  29.362   6.907
 3569POPC   C4A48354  24.940  29.297   7.304
 3569POPC   C1B48355  25.588  28.880   6.305
 3569POPC   C2B48356  25.524  29.094   6.664
 3569POPC   C3B48357  25.598  28.884   7.027
 3569POPC   C4B48358  25.410  29.110   7.317
 3570POPC   NC348359   3.392  10.139   5.373
 3570POPC   PO448360   3.821  10.659   5.290
 3570POPC   GL148361   3.843  10.452   5.679
 3570POPC   GL248362   3.507  10.529   5.781
 3570POPC   C1A48363   3.856  10.482   6.155
 3570POPC   D2A48364   3.758  10.707   6.524
 3570POPC   C3A48365   3.679  10.532   6.928
 3570POPC   C4A48366   3.358  10.701   7.151
 3570POPC   C1B48367   3.396  10.254   6.160
 3570POPC   C2B48368   3.347  10.285   6.622
 3570POPC   C3B48369   3.163  10.245   7.031
 3570POPC   C4B48370   3.040  10.241   7.450
 3571POPC   NC348371  28.852  10.127   5.384
 3571POPC   PO448372  28.969   9.548   5.474
 3571POPC   GL148373  29.002   9.844   5.823
 3571POPC   GL248374  29.342   9.933   5.886
 3571POPC   C1A48375  29.015   9.860   6.287
 3571POPC   D2A48376  29.015   9.645   6.684
 3571POPC   C3A48377  28.883   9.879   7.033
 3571POPC   C4A48378  28.960   9.511   7.264
 3571POPC   C1B48379  29.486   9.656   6.207
 3571POPC   C2B48380  29.501   9.783   6.644
 3571POPC   C3B48381  29.384   9.763   7.084
 3571POPC   C4B48382  29.470   9.941   7.499
 3572POPC   NC348383   4.098  30.110   5.081
 3572POPC   PO448384   3.619  29.933   5.488
 3572POPC   GL148385   3.574  30.087   5.918
 3572POPC   GL248386   3.318  30.378   5.834
 3572POPC   C1A48387   3.619  29.953   6.379
 3572POPC   D2A48388   3.402  29.762   6.743
 3572POPC   C3A48389   3.629  29.842   7.125
 3572POPC   C4A48390   3.754  29.869   7.550
 3572POPC   C1B48391   3.289  30.326   6.278
 3572POPC   C2B48392   3.356  30.261   6.725
 3572POPC   C3B48393   3.179  30.135   7.135
 3572POPC   C4B48394   3.294  30.075   7.593
 3573POPC   NC348395  39.191  25.379   5.344
 3573POPC   PO448396  39.790  25.501   5.534
 3573POPC   GL148397  39.465  25.370   5.813
 3573POPC   GL248398  39.319  25.041   5.703
 3573POPC   C1A48399  39.172  25.521   6.147
 3573POPC   D2A48400  38.951  25.325   6.507
 3573POPC   C3A48401  39.091  25.431   6.938
 3573POPC   C4A48402  39.144  25.201   7.328
 3573POPC   C1B48403  39.229  25.018   6.130
 3573POPC   C2B48404  39.431  25.172   6.499
 3573POPC   C3B48405  39.486  25.066   6.916
 3573POPC   C4B48406  39.583  24.923   7.310
 3574POPC   NC348407  41.970  18.806   5.463
 3574POPC   PO448408  42.568  18.891   5.194
 3574POPC   GL148409  42.401  19.006   5.682
 3574POPC   GL248410  42.502  18.778   5.951
 3574POPC   C1A48411  42.142  19.184   6.096
 3574POPC   D2A48412  41.915  19.290   6.527
 3574POPC   C3A48413  42.155  19.245   6.917
 3574POPC   C4A48414  42.310  19.331   7.353
 3574POPC   C1B48415  42.170  18.685   6.237
 3574POPC   C2B48416  42.009  18.801   6.650
 3574POPC   C3B48417  42.241  18.735   7.030
 3574POPC   C4B48418  42.309  18.444   7.364
 3575POPC   NC348419  42.401  37.506   5.200
 3575POPC   PO448420  42.254  36.845   5.398
 3575POPC   GL148421  42.318  36.822   5.826
 3575POPC   GL248422  42.547  36.537   5.843
 3575POPC   C1A48423  42.236  37.014   6.223
 3575POPC   D2A48424  42.355  37.244   6.620
 3575POPC   C3A48425  42.264  37.046   7.035
 3575POPC   C4A48426  42.092  36.781   7.336
 3575POPC   C1B48427  42.629  36.684   6.264
 3575POPC   C2B48428  42.438  36.742   6.658
 3575POPC   C3B48429  42.413  36.509   7.034
 3575POPC   C4B48430  42.495  36.464   7.483
 3576POPC   NC348431   9.889  19.909   5.424
 3576POPC   PO448432  10.296  19.327   5.544
 3576POPC   GL148433   9.990  19.612   5.835
 3576POPC   GL248434   9.642  19.804   5.836
 3576POPC   C1A48435   9.885  19.775   6.267
 3576POPC   D2A48436  10.103  19.988   6.615
 3576POPC   C3A48437   9.924  19.933   7.034
 3576POPC   C4A48438   9.835  19.615   7.348
 3576POPC   C1B48439   9.517  20.143   6.066
 3576POPC   C2B48440   9.570  20.098   6.510
 3576POPC   C3B48441   9.414  19.988   6.919
 3576POPC   C4B48442   9.322  20.186   7.308
 3577POPC   NC348443   7.047  36.831   5.197
 3577POPC   PO448444   7.703  36.909   5.207
 3577POPC   GL148445   7.555  36.705   5.646
 3577POPC   GL248446   7.175  36.661   5.706
 3577POPC   C1A48447   7.643  36.645   6.130
 3577POPC   D2A48448   7.765  36.524   6.600
 3577POPC   C3A48449   7.552  36.694   6.982
 3577POPC   C4A48450   7.352  36.532   7.342
 3577POPC   C1B48451   7.147  36.861   6.144
 3577POPC   C2B48452   7.199  36.771   6.602
 3577POPC   C3B48453   6.995  36.815   7.019
 3577POPC   C4B48454   7.086  37.003   7.427
 3578POPC   NC348455  22.929   1.621   4.998
 3578POPC   PO448456  22.903   1.127   5.272
 3578POPC   GL148457  23.024   1.074   5.746
 3578POPC   GL248458  23.090   1.411   5.923
 3578POPC   C1A48459  22.952   1.032   6.230
 3578POPC   D2A48460  22.706   1.121   6.607
 3578POPC   C3A48461  22.847   1.079   7.032
 3578POPC   C4A48462  22.752   0.831   7.390
 3578POPC   C1B48463  22.898   1.550   6.354
 3578POPC   C2B48464  22.854   1.567   6.840
 3578POPC   C3B48465  23.022   1.515   7.259
 3578POPC   C4B48466  23.033   1.481   7.730
 3579POPC   NC348467  34.739  42.119   5.545
 3579POPC   PO448468  34.266  42.495   5.290
 3579POPC   GL148469  34.225  42.437   5.759
 3579POPC   GL248470  34.281  42.102   5.850
 3579POPC   C1A48471  34.302  42.460   6.250
 3579POPC   D2A48472  34.334  42.685   6.682
 3579POPC   C3A48473  34.448  42.521   7.127
 3579POPC   C4A48474  34.732  42.699   7.485
 3579POPC   C1B48475  34.411  41.951   6.270
 3579POPC   C2B48476  34.426  42.069   6.714
 3579POPC   C3B48477  34.492  41.912   7.136
 3579POPC   C4B48478  34.273  42.009   7.539
 3580POPC   NC348479  40.992  19.742   5.372
 3580POPC   PO448480  40.632  20.256   5.135
 3580POPC   GL148481  40.560  19.930   5.602
 3580POPC   GL248482  40.813  19.722   5.844
 3580POPC   C1A48483  40.416  19.881   6.096
 3580POPC   D2A48484  40.632  19.736   6.487
 3580POPC   C3A48485  40.445  19.838   6.885
 3580POPC   C4A48486  40.554  19.973   7.261
 3580POPC   C1B48487  41.044  19.536   6.195
 3580POPC   C2B48488  41.057  19.468   6.641
 3580POPC   C3B48489  40.954  19.720   7.022
 3580POPC   C4B48490  41.023  19.816   7.455
 3581POPC   NC348491  18.289  37.405   5.330
 3581POPC   PO448492  18.519  36.743   5.397
 3581POPC   GL148493  18.574  36.816   5.818
 3581POPC   GL248494  18.227  36.772   5.880
 3581POPC   C1A48495  18.456  37.084   6.204
 3581POPC   D2A48496  18.157  37.058   6.534
 3581POPC   C3A48497  18.289  36.846   6.889
 3581POPC   C4A48498  18.276  36.800   7.296
 3581POPC   C1B48499  18.109  36.443   6.179
 3581POPC   C2B48500  18.265  36.385   6.595
 3581POPC   C3B48501  18.128  36.372   7.027
 3581POPC   C4B48502  17.946  36.396   7.443
 3582POPC   NC348503   3.362  29.561   5.513
 3582POPC   PO448504   3.775  29.075   5.303
 3582POPC   GL148505   3.689  29.176   5.717
 3582POPC   GL248506   4.022  29.215   5.827
 3582POPC   C1A48507   3.605  29.068   6.188
 3582POPC   D2A48508   3.324  29.143   6.577
 3582POPC   C3A48509   3.333  28.988   7.043
 3582POPC   C4A48510   3.262  29.081   7.505
 3582POPC   C1B48511   3.793  29.539   6.071
 3582POPC   C2B48512   3.763  29.457   6.508
 3582POPC   C3B48513   3.643  29.358   6.917
 3582POPC   C4B48514   3.665  29.326   7.321
 3583POPC   NC348515   4.800   1.570   5.166
 3583POPC   PO448516   5.086   2.201   5.255
 3583POPC   GL148517   5.146   2.086   5.732
 3583POPC   GL248518   5.117   1.727   5.854
 3583POPC   C1A48519   5.065   2.101   6.221
 3583POPC   D2A48520   5.276   1.992   6.626
 3583POPC   C3A48521   5.329   2.288   6.980
 3583POPC   C4A48522   5.200   2.017   7.295
 3583POPC   C1B48523   4.756   1.644   6.184
 3583POPC   C2B48524   4.718   1.649   6.660
 3583POPC   C3B48525   4.940   1.640   7.042
 3583POPC   C4B48526   4.937   1.631   7.508
 3584POPC   NC348527   8.392  39.619   5.711
 3584POPC   PO448528   7.976  40.112   5.489
 3584POPC   GL148529   8.030  39.917   5.907
 3584POPC   GL248530   7.771  39.668   5.975
 3584POPC   C1A48531   8.361  39.998   6.244
 3584POPC   D2A48532   8.506  40.197   6.619
 3584POPC   C3A48533   8.185  40.171   6.917
 3584POPC   C4A48534   7.920  40.081   7.256
 3584POPC   C1B48535   8.079  39.567   6.310
 3584POPC   C2B48536   8.073  39.716   6.723
 3584POPC   C3B48537   7.861  39.608   7.087
 3584POPC   C4B48538   7.809  39.701   7.586
 3585POPC   NC348539   0.814  34.221   5.622
 3585POPC   PO448540   0.704  33.571   5.496
 3585POPC   GL148541   0.518  33.830   5.821
 3585POPC   GL248542   0.338  34.171   5.839
 3585POPC   C1A48543   0.393  33.826   6.237
 3585POPC   D2A48544   0.259  33.636   6.606
 3585POPC   C3A48545   0.622  33.611   6.849
 3585POPC   C4A48546   0.638  33.538   7.288
 3585POPC   C1B48547   0.059  34.214   6.234
 3585POPC   C2B48548   0.065  34.129   6.694
 3585POPC   C3B48549   0.305  33.937   7.040
 3585POPC   C4B48550   0.219  33.879   7.460
 3586POPC   NC348551  21.668  40.893   5.372
 3586POPC   PO448552  21.031  40.590   5.334
 3586POPC   GL148553  21.362  40.609   5.670
 3586POPC   GL248554  21.369  40.948   5.775
 3586POPC   C1A48555  21.593  40.611   6.090
 3586POPC   D2A48556  21.720  40.804   6.482
 3586POPC   C3A48557  21.512  40.738   6.852
 3586POPC   C4A48558  21.684  40.543   7.214
 3586POPC   C1B48559  21.599  41.161   6.112
 3586POPC   C2B48560  21.499  41.279   6.537
 3586POPC   C3B48561  21.202  41.136   6.830
 3586POPC   C4B48562  21.118  40.862   7.192
 3587POPC   NC348563  26.932   2.517   5.498
 3587POPC   PO448564  26.605   3.134   5.447
 3587POPC   GL148565  26.824   2.920   5.856
 3587POPC   GL248566  27.041   2.589   5.970
 3587POPC   C1A48567  26.864   2.889   6.323
 3587POPC   D2A48568  26.693   2.689   6.656
 3587POPC   C3A48569  26.776   2.915   7.004
 3587POPC   C4A48570  26.689   2.842   7.420
 3587POPC   C1B48571  27.205   2.469   6.359
 3587POPC   C2B48572  27.093   2.410   6.773
 3587POPC   C3B48573  27.048   2.524   7.208
 3587POPC   C4B48574  27.030   2.575   7.668
 3588POPC   NC348575  32.730  39.967   5.585
 3588POPC   PO448576  33.273  39.921   5.093
 3588POPC   GL148577  33.326  40.179   5.554
 3588POPC   GL248578  33.032  40.386   5.747
 3588POPC   C1A48579  33.359  40.150   6.047
 3588POPC   D2A48580  33.158  39.865   6.384
 3588POPC   C3A48581  33.191  39.825   6.853
 3588POPC   C4A48582  33.203  39.678   7.295
 3588POPC   C1B48583  32.864  40.272   6.204
 3588POPC   C2B48584  32.874  40.199   6.681
 3588POPC   C3B48585  32.901  40.170   7.145
 3588POPC   C4B48586  32.674  39.935   7.475
 3589POPC   NC348587  29.489  35.626   5.029
 3589POPC   PO448588  28.920  35.478   5.399
 3589POPC   GL148589  29.018  35.576   5.835
 3589POPC   GL248590  29.117  35.224   5.980
 3589POPC   C1A48591  28.849  35.529   6.281
 3589POPC   D2A48592  28.728  35.269   6.640
 3589POPC   C3A48593  28.976  35.248   7.015
 3589POPC   C4A48594  29.198  35.585   7.164
 3589POPC   C1B48595  29.348  35.534   6.210
 3589POPC   C2B48596  29.291  35.417   6.623
 3589POPC   C3B48597  29.496  35.173   6.867
 3589POPC   C4B48598  29.450  35.146   7.276
 3590POPC   NC348599  43.505  30.660   5.578
 3590POPC   PO448600  43.055  30.954   5.207
 3590POPC   GL148601  43.093  30.836   5.773
 3590POPC   GL248602  42.896  30.926   6.117
 3590POPC   C1A48603  43.153  30.501   6.144
 3590POPC   D2A48604  43.124  30.653   6.567
 3590POPC   C3A48605  42.953  30.590   6.948
 3590POPC   C4A48606  42.699  30.694   7.283
 3590POPC   C1B48607  43.345  30.971   6.237
 3590POPC   C2B48608  43.553  30.885   6.662
 3590POPC   C3B48609  43.321  30.917   7.066
 3590POPC   C4B48610  43.085  31.009   7.452
 3591POPC   NC348611  26.484  22.444   5.457
 3591POPC   PO448612  27.119  22.030   5.397
 3591POPC   GL148613  26.929  22.080   5.798
 3591POPC   GL248614  26.904  22.422   5.788
 3591POPC   C1A48615  26.772  22.167   6.243
 3591POPC   D2A48616  26.626  22.353   6.644
 3591POPC   C3A48617  26.734  22.185   7.050
 3591POPC   C4A48618  26.929  21.859   7.192
 3591POPC   C1B48619  26.931  22.661   6.175
 3591POPC   C2B48620  26.868  22.803   6.606
 3591POPC   C3B48621  26.971  22.634   7.002
 3591POPC   C4B48622  27.096  22.434   7.393
 3592POPC   NC348623  12.018  18.782   5.473
 3592POPC   PO448624  11.701  19.401   5.509
 3592POPC   GL148625  11.952  19.092   5.851
 3592POPC   GL248626  12.302  19.126   5.930
 3592POPC   C1A48627  11.997  18.795   6.205
 3592POPC   D2A48628  12.148  18.830   6.649
 3592POPC   C3A48629  11.880  19.075   6.918
 3592POPC   C4A48630  11.738  18.796   7.238
 3592POPC   C1B48631  12.181  19.248   6.330
 3592POPC   C2B48632  12.351  19.333   6.701
 3592POPC   C3B48633  12.358  19.391   7.110
 3592POPC   C4B48634  11.999  19.452   7.308
 3593POPC   NC348635   7.116  33.513   5.606
 3593POPC   PO448636   7.423  34.102   5.490
 3593POPC   GL148637   7.559  33.769   5.801
 3593POPC   GL248638   7.357  33.953   5.955
 3593POPC   C1A48639   7.430  33.554   6.246
 3593POPC   D2A48640   7.064  33.414   6.539
 3593POPC   C3A48641   7.061  33.556   6.988
 3593POPC   C4A48642   7.401  33.535   7.327
 3593POPC   C1B48643   7.582  34.149   6.224
 3593POPC   C2B48644   7.634  33.972   6.594
 3593POPC   C3B48645   7.479  33.888   6.967
 3593POPC   C4B48646   7.648  33.970   7.360
 3594POPC   NC348647  44.875  38.428   5.118
 3594POPC   PO448648  44.546  38.866   5.523
 3594POPC   GL148649  44.712  38.524   5.760
 3594POPC   GL248650   0.014  38.305   5.629
 3594POPC   C1A48651  44.784  38.627   6.195
 3594POPC   D2A48652  44.574  38.489   6.540
 3594POPC   C3A48653  44.638  38.691   6.913
 3594POPC   C4A48654  44.483  38.519   7.307
 3594POPC   C1B48655  44.869  38.120   6.026
 3594POPC   C2B48656  44.833  38.023   6.470
 3594POPC   C3B48657  44.828  38.168   6.882
 3594POPC   C4B48658  44.763  38.043   7.269
 3595POPC   NC348659  39.024   9.149   5.434
 3595POPC   PO448660  39.178   8.547   5.154
 3595POPC   GL148661  39.234   8.648   5.649
 3595POPC   GL248662  39.125   8.986   5.888
 3595POPC   C1A48663  39.368   8.624   6.100
 3595POPC   D2A48664  39.145   8.880   6.426
 3595POPC   C3A48665  39.205   8.818   6.884
 3595POPC   C4A48666  39.169   8.892   7.366
 3595POPC   C1B48667  39.369   9.271   6.192
 3595POPC   C2B48668  39.416   9.257   6.665
 3595POPC   C3B48669  39.124   9.323   7.033
 3595POPC   C4B48670  38.863   9.315   7.410
 3596POPC   NC348671  19.663  36.125   4.929
 3596POPC   PO448672  19.836  36.385   5.552
 3596POPC   GL148673  19.792  36.200   5.912
 3596POPC   GL248674  19.618  35.879   5.766
 3596POPC   C1A48675  19.595  36.325   6.298
 3596POPC   D2A48676  19.395  36.062   6.589
 3596POPC   C3A48677  19.619  36.125   6.962
 3596POPC   C4A48678  19.957  36.358   7.093
 3596POPC   C1B48679  19.688  35.815   6.224
 3596POPC   C2B48680  19.946  36.032   6.554
 3596POPC   C3B48681  20.154  35.928   6.934
 3596POPC   C4B48682  19.922  35.798   7.283
 3597POPC   NC348683  17.819   9.861   5.471
 3597POPC   PO448684  17.220   9.565   5.629
 3597POPC   GL148685  17.232   9.885   5.923
 3597POPC   GL248686  17.571   9.994   5.871
 3597POPC   C1A48687  17.214   9.821   6.382
 3597POPC   D2A48688  17.525   9.620   6.681
 3597POPC   C3A48689  17.343   9.738   7.047
 3597POPC   C4A48690  17.096  10.052   7.239
 3597POPC   C1B48691  17.684   9.795   6.219
 3597POPC   C2B48692  18.003   9.755   6.498
 3597POPC   C3B48693  17.973   9.829   6.946
 3597POPC   C4B48694  17.755   9.839   7.337
 3598POPC   NC348695  39.607  10.773   4.984
 3598POPC   PO448696  39.847  10.342   5.425
 3598POPC   GL148697  39.900  10.433   5.884
 3598POPC   GL248698  39.559  10.281   5.914
 3598POPC   C1A48699  40.130  10.478   6.325
 3598POPC   D2A48700  40.161  10.225   6.725
 3598POPC   C3A48701  40.201  10.410   7.147
 3598POPC   C4A48702  40.298  10.826   7.400
 3598POPC   C1B48703  39.618  10.487   6.301
 3598POPC   C2B48704  39.747  10.573   6.703
 3598POPC   C3B48705  39.704  10.530   7.117
 3598POPC   C4B48706  39.786  10.836   7.403
 3599POPC   NC348707  34.089  37.836   5.610
 3599POPC   PO448708  33.525  37.572   5.576
 3599POPC   GL148709  33.725  37.645   5.916
 3599POPC   GL248710  33.676  37.995   5.872
 3599POPC   C1A48711  33.989  37.369   6.172
 3599POPC   D2A48712  34.236  37.346   6.565
 3599POPC   C3A48713  33.947  37.370   6.899
 3599POPC   C4A48714  33.920  37.616   7.261
 3599POPC   C1B48715  33.389  37.948   6.208
 3599POPC   C2B48716  33.500  38.124   6.588
 3599POPC   C3B48717  33.642  37.938   6.963
 3599POPC   C4B48718  33.514  37.890   7.366
 3600POPC   NC348719   0.714  35.011   5.420
 3600POPC   PO448720   0.069  35.217   5.525
 3600POPC   GL148721   0.382  35.455   5.822
 3600POPC   GL248722   0.683  35.361   5.829
 3600POPC   C1A48723   0.327  35.606   6.250
 3600POPC   D2A48724   0.174  35.378   6.607
 3600POPC   C3A48725   0.178  35.495   7.042
 3600POPC   C4A48726   0.107  35.139   7.328
 3600POPC   C1B48727   0.821  35.533   6.246
 3600POPC   C2B48728   0.657  35.525   6.692
 3600POPC   C3B48729   0.682  35.361   7.136
 3600POPC   C4B48730   0.456  35.466   7.537
 3601POPC   NC348731  14.576  10.727   5.334
 3601POPC   PO448732  15.204  10.440   5.020
 3601POPC   GL148733  15.135  10.543   5.555
 3601POPC   GL248734  15.350  10.370   5.764
 3601POPC   C1A48735  15.126  10.708   6.059
 3601POPC   D2A48736  14.969  10.642   6.500
 3601POPC   C3A48737  15.185  10.682   6.909
 3601POPC   C4A48738  14.995  10.999   7.187
 3601POPC   C1B48739  15.205  10.158   6.133
 3601POPC   C2B48740  15.244  10.217   6.572
 3601POPC   C3B48741  15.272  10.161   7.002
 3601POPC   C4B48742  15.382  10.343   7.374
 3602POPC   NC348743   6.797  35.219   5.348
 3602POPC   PO448744   6.159  35.078   5.404
 3602POPC   GL148745   6.504  35.179   5.759
 3602POPC   GL248746   6.610  35.511   5.729
 3602POPC   C1A48747   6.576  35.244   6.209
 3602POPC   D2A48748   6.356  35.391   6.553
 3602POPC   C3A48749   6.333  35.259   6.970
 3602POPC   C4A48750   6.707  35.119   7.147
 3602POPC   C1B48751   6.841  35.648   6.050
 3602POPC   C2B48752   6.689  35.758   6.432
 3602POPC   C3B48753   6.786  35.531   6.821
 3602POPC   C4B48754   6.906  35.598   7.228
 3603POPC   NC348755  19.443  28.793   5.452
 3603POPC   PO448756  19.870  28.364   5.157
 3603POPC   GL148757  19.710  28.219   5.642
 3603POPC   GL248758  19.432  28.382   5.763
 3603POPC   C1A48759  19.744  28.266   6.139
 3603POPC   D2A48760  19.946  28.448   6.508
 3603POPC   C3A48761  19.896  28.187   6.867
 3603POPC   C4A48762  19.957  28.353   7.263
 3603POPC   C1B48763  19.405  28.715   6.134
 3603POPC   C2B48764  19.352  28.581   6.576
 3603POPC   C3B48765  19.540  28.563   7.001
 3603POPC   C4B48766  19.510  28.581   7.461
 3604POPC   NC348767   8.740  17.023   5.422
 3604POPC   PO448768   9.334  16.642   5.338
 3604POPC   GL148769   9.131  16.804   5.733
 3604POPC   GL248770   8.834  16.686   5.817
 3604POPC   C1A48771   9.100  16.865   6.223
 3604POPC   D2A48772   8.853  16.816   6.634
 3604POPC   C3A48773   9.076  16.846   7.072
 3604POPC   C4A48774   9.001  16.821   7.524
 3604POPC   C1B48775   8.647  16.467   6.159
 3604POPC   C2B48776   8.590  16.302   6.556
 3604POPC   C3B48777   8.514  16.457   6.964
 3604POPC   C4B48778   8.594  16.793   7.234
 3605POPC   NC348779  44.677  32.031   5.464
 3605POPC   PO448780  44.219  32.555   5.360
 3605POPC   GL148781  44.387  32.371   5.755
 3605POPC   GL248782  44.676  32.564   5.958
 3605POPC   C1A48783  44.310  32.283   6.172
 3605POPC   D2A48784  44.540  32.363   6.530
 3605POPC   C3A48785  44.387  32.128   6.880
 3605POPC   C4A48786  44.338  32.264   7.304
 3605POPC   C1B48787  44.916  32.263   6.182
 3605POPC   C2B48788   0.141  32.224   6.573
 3605POPC   C3B48789  44.882  32.249   6.918
 3605POPC   C4B48790  44.789  32.043   7.294
 3606POPC   NC348791  41.097   8.242   5.520
 3606POPC   PO448792  40.615   7.879   5.382
 3606POPC   GL148793  40.601   8.110   5.768
 3606POPC   GL248794  40.686   8.449   5.825
 3606POPC   C1A48795  40.465   8.159   6.176
 3606POPC   D2A48796  40.566   8.240   6.597
 3606POPC   C3A48797  40.793   7.939   6.802
 3606POPC   C4A48798  41.003   8.172   7.146
 3606POPC   C1B48799  40.590   8.653   6.259
 3606POPC   C2B48800  40.618   8.754   6.703
 3606POPC   C3B48801  40.548   8.470   7.076
 3606POPC   C4B48802  40.491   8.373   7.544
 3607POPC   NC348803   1.314  42.001   5.392
 3607POPC   PO448804   0.973  41.418   5.432
 3607POPC   GL148805   1.089  41.671   5.775
 3607POPC   GL248806   1.386  41.863   5.889
 3607POPC   C1A48807   1.188  41.497   6.200
 3607POPC   D2A48808   0.970  41.139   6.426
 3607POPC   C3A48809   1.138  41.218   6.809
 3607POPC   C4A48810   1.153  41.333   7.201
 3607POPC   C1B48811   0.943  41.966   6.150
 3607POPC   C2B48812   0.782  42.131   6.543
 3607POPC   C3B48813   0.958  41.971   6.922
 3607POPC   C4B48814   1.386  41.850   7.110
 3608POPC   NC348815  11.680  35.639   5.457
 3608POPC   PO448816  11.087  35.775   5.281
 3608POPC   GL148817  11.236  35.770   5.759
 3608POPC   GL248818  11.476  35.461   5.895
 3608POPC   C1A48819  11.106  35.620   6.200
 3608POPC   D2A48820  11.364  35.309   6.446
 3608POPC   C3A48821  11.178  35.002   6.719
 3608POPC   C4A48822  11.172  35.156   7.126
 3608POPC   C1B48823  11.519  34.991   6.085
 3608POPC   C2B48824  11.632  34.854   6.507
 3608POPC   C3B48825  11.643  35.116   6.929
 3608POPC   C4B48826  11.587  35.053   7.413
 3609POPC   NC348827  39.432  24.578   5.047
 3609POPC   PO448828  39.882  24.303   5.452
 3609POPC   GL148829  40.166  24.488   5.739
 3609POPC   GL248830  39.893  24.573   5.919
 3609POPC   C1A48831  40.273  24.399   6.178
 3609POPC   D2A48832  40.112  24.180   6.535
 3609POPC   C3A48833  40.210  24.383   6.896
 3609POPC   C4A48834  39.992  24.315   7.255
 3609POPC   C1B48835  39.712  24.833   6.203
 3609POPC   C2B48836  39.897  24.971   6.572
 3609POPC   C3B48837  39.934  24.797   6.972
 3609POPC   C4B48838  40.254  24.758   7.266
 3610POPC   NC348839  19.321  38.691   5.512
 3610POPC   PO448840  19.049  38.104   5.227
 3610POPC   GL148841  19.090  38.261   5.680
 3610POPC   GL248842  19.425  38.152   5.753
 3610POPC   C1A48843  19.024  38.556   6.083
 3610POPC   D2A48844  18.731  38.598   6.477
 3610POPC   C3A48845  18.853  38.671   6.875
 3610POPC   C4A48846  18.999  38.532   7.226
 3610POPC   C1B48847  19.143  38.015   6.122
 3610POPC   C2B48848  19.067  38.211   6.533
 3610POPC   C3B48849  19.187  38.090   6.952
 3610POPC   C4B48850  19.580  38.014   7.198
 3611POPC   NC348851  36.335   5.512   5.094
 3611POPC   PO448852  35.861   5.596   5.577
 3611POPC   GL148853  36.024   5.823   5.942
 3611POPC   GL248854  36.230   5.998   5.705
 3611POPC   C1A48855  36.117   5.860   6.393
 3611POPC   D2A48856  36.447   5.754   6.703
 3611POPC   C3A48857  36.276   5.670   7.104
 3611POPC   C4A48858  36.078   5.933   7.397
 3611POPC   C1B48859  36.316   6.223   6.083
 3611POPC   C2B48860  36.156   6.396   6.462
 3611POPC   C3B48861  36.169   6.173   6.843
 3611POPC   C4B48862  36.491   6.124   7.140
 3612POPC   NC348863  13.979  17.374   5.400
 3612POPC   PO448864  13.309  17.396   5.388
 3612POPC   GL148865  13.587  17.484   5.714
 3612POPC   GL248866  13.673  17.122   5.734
 3612POPC   C1A48867  13.615  17.736   6.105
 3612POPC   D2A48868  13.763  17.683   6.525
 3612POPC   C3A48869  13.601  17.655   6.952
 3612POPC   C4A48870  13.934  17.474   7.166
 3612POPC   C1B48871  13.617  17.223   6.171
 3612POPC   C2B48872  13.437  17.283   6.571
 3612POPC   C3B48873  13.539  17.133   6.972
 3612POPC   C4B48874  13.345  17.194   7.362
 3613POPC   NC348875  13.121  19.283   5.295
 3613POPC   PO448876  12.448  19.057   5.451
 3613POPC   GL148877  12.748  18.904   5.716
 3613POPC   GL248878  13.007  19.100   5.758
 3613POPC   C1A48879  12.784  18.839   6.135
 3613POPC   D2A48880  12.629  18.898   6.513
 3613POPC   C3A48881  12.924  18.884   6.818
 3613POPC   C4A48882  12.799  19.077   7.200
 3613POPC   C1B48883  13.163  19.243   6.159
 3613POPC   C2B48884  13.286  19.133   6.566
 3613POPC   C3B48885  13.252  19.270   6.993
 3613POPC   C4B48886  13.323  19.052   7.401
 3614POPC   NC348887   8.370  21.416   5.346
 3614POPC   PO448888   7.746  21.364   5.554
 3614POPC   GL148889   8.078  21.562   5.816
 3614POPC   GL248890   8.450  21.575   5.846
 3614POPC   C1A48891   8.164  21.416   6.231
 3614POPC   D2A48892   8.197  21.092   6.492
 3614POPC   C3A48893   8.231  21.270   6.871
 3614POPC   C4A48894   8.038  21.504   7.190
 3614POPC   C1B48895   8.607  21.183   6.062
 3614POPC   C2B48896   8.683  20.943   6.440
 3614POPC   C3B48897   8.701  21.069   6.861
 3614POPC   C4B48898   8.494  21.175   7.291
 3615POPC   NC348899  34.360  14.905   5.484
 3615POPC   PO448900  34.964  15.285   5.476
 3615POPC   GL148901  34.666  15.153   5.797
 3615POPC   GL248902  34.470  15.390   5.979
 3615POPC   C1A48903  34.468  14.927   6.151
 3615POPC   D2A48904  34.393  15.141   6.546
 3615POPC   C3A48905  34.414  14.939   6.923
 3615POPC   C4A48906  34.593  14.930   7.344
 3615POPC   C1B48907  34.659  15.697   6.240
 3615POPC   C2B48908  35.018  15.664   6.517
 3615POPC   C3B48909  34.867  15.375   6.791
 3615POPC   C4B48910  34.581  15.390   7.119
 3616POPC   NC348911  19.772  13.404   5.428
 3616POPC   PO448912  19.519  14.054   5.563
 3616POPC   GL148913  19.824  13.788   5.757
 3616POPC   GL248914  20.108  13.942   5.836
 3616POPC   C1A48915  19.991  13.498   6.053
 3616POPC   D2A48916  20.024  13.578   6.468
 3616POPC   C3A48917  19.846  13.335   6.754
 3616POPC   C4A48918  19.598  13.408   7.106
 3616POPC   C1B48919  20.361  13.882   6.222
 3616POPC   C2B48920  20.412  13.785   6.695
 3616POPC   C3B48921  20.127  13.749   7.039
 3616POPC   C4B48922  20.225  13.927   7.453
 3617POPC   NC348923   0.302  31.188   5.667
 3617POPC   PO448924   0.682  31.518   5.201
 3617POPC   GL148925   0.463  31.667   5.708
 3617POPC   GL248926   0.170  31.871   5.718
 3617POPC   C1A48927   0.496  31.487   6.211
 3617POPC   D2A48928   0.379  31.149   6.538
 3617POPC   C3A48929   0.322  31.319   6.953
 3617POPC   C4A48930   0.498  31.563   7.284
 3617POPC   C1B48931   0.294  31.936   6.157
 3617POPC   C2B48932   0.270  31.734   6.590
 3617POPC   C3B48933   0.134  31.795   7.001
 3617POPC   C4B48934  44.946  31.526   7.322
 3618POPC   NC348935  37.396  16.070   5.413
 3618POPC   PO448936  37.775  15.544   5.392
 3618POPC   GL148937  37.779  15.931   5.744
 3618POPC   GL248938  37.482  16.147   5.893
 3618POPC   C1A48939  37.854  15.962   6.196
 3618POPC   D2A48940  37.659  15.622   6.465
 3618POPC   C3A48941  37.531  15.781   6.858
 3618POPC   C4A48942  37.761  16.066   7.119
 3618POPC   C1B48943  37.378  16.065   6.324
 3618POPC   C2B48944  37.618  16.270   6.636
 3618POPC   C3B48945  37.488  16.470   7.013
 3618POPC   C4B48946  37.249  16.144   7.272
 3619POPC   NC348947  33.764  10.957   5.117
 3619POPC   PO448948  33.796  11.478   5.482
 3619POPC   GL148949  33.693  11.201   5.843
 3619POPC   GL248950  33.902  10.897   5.746
 3619POPC   C1A48951  33.656  11.313   6.303
 3619POPC   D2A48952  33.987  11.474   6.594
 3619POPC   C3A48953  33.914  11.568   7.031
 3619POPC   C4A48954  33.626  11.388   7.312
 3619POPC   C1B48955  34.079  11.001   6.156
 3619POPC   C2B48956  33.983  10.892   6.584
 3619POPC   C3B48957  33.821  11.045   6.991
 3619POPC   C4B48958  33.901  10.972   7.457
 3620POPC   NC348959   6.927   4.348   5.423
 3620POPC   PO448960   7.536   4.630   5.432
 3620POPC   GL148961   7.578   4.455   5.869
 3620POPC   GL248962   7.294   4.304   5.823
 3620POPC   C1A48963   7.558   4.181   6.257
 3620POPC   D2A48964   7.292   4.065   6.603
 3620POPC   C3A48965   7.475   4.175   6.969
 3620POPC   C4A48966   7.618   4.306   7.310
 3620POPC   C1B48967   7.051   4.172   6.150
 3620POPC   C2B48968   6.919   4.422   6.504
 3620POPC   C3B48969   7.109   4.544   6.881
 3620POPC   C4B48970   7.034   4.298   7.223
 3621POPC   NC348971  33.211  41.487   5.315
 3621POPC   PO448972  32.791  42.032   5.213
 3621POPC   GL148973  32.887  41.649   5.636
 3621POPC   GL248974  32.627  41.384   5.738
 3621POPC   C1A48975  33.002  41.583   6.065
 3621POPC   D2A48976  33.121  41.440   6.462
 3621POPC   C3A48977  33.083  41.730   6.800
 3621POPC   C4A48978  33.112  41.648   7.209
 3621POPC   C1B48979  32.613  41.254   6.185
 3621POPC   C2B48980  32.738  41.158   6.624
 3621POPC   C3B48981  32.803  41.273   7.065
 3621POPC   C4B48982  32.697  41.374   7.509
 3622POPC   NC348983  43.118  42.165   4.963
 3622POPC   PO448984  43.326  41.997   5.546
 3622POPC   GL148985  43.203  42.122   5.901
 3622POPC   GL248986  43.030  42.379   5.764
 3622POPC   C1A48987  42.930  42.020   6.230
 3622POPC   D2A48988  42.947  42.214   6.602
 3622POPC   C3A48989  42.917  42.081   6.983
 3622POPC   C4A48990  43.167  42.191   7.288
 3622POPC   C1B48991  43.020  42.567   6.159
 3622POPC   C2B48992  42.832  42.687   6.546
 3622POPC   C3B48993  43.074  42.641   6.916
 3622POPC   C4B48994  42.917  42.660   7.314
 3623POPC   NC348995   3.253  20.873   5.623
 3623POPC   PO448996   3.655  20.286   5.610
 3623POPC   GL148997   3.383  20.417   5.934
 3623POPC   GL248998   3.573  20.718   6.005
 3623POPC   C1A48999   3.347  20.496   6.401
 3623POPC   D2A49000   3.372  20.884   6.687
 3623POPC   C3A49001   3.513  20.812   7.124
 3623POPC   C4A49002   3.433  20.514   7.464
 3623POPC   C1B49003   3.871  20.445   6.256
 3623POPC   C2B49004   4.007  20.284   6.687
 3623POPC   C3B49005   3.909  20.289   7.157
 3623POPC   C4B49006   3.897  20.328   7.595
 3624POPC   NC349007   5.058   9.448   5.096
 3624POPC   PO449008   5.173   8.858   5.348
 3624POPC   GL149009   5.303   8.927   5.800
 3624POPC   GL249010   5.310   8.564   5.855
 3624POPC   C1A49011   5.241   9.048   6.275
 3624POPC   D2A49012   4.868   9.171   6.563
 3624POPC   C3A49013   4.881   9.244   7.051
 3624POPC   C4A49014   4.935   9.143   7.519
 3624POPC   C1B49015   4.865   8.539   6.043
 3624POPC   C2B49016   4.725   8.619   6.482
 3624POPC   C3B49017   4.951   8.746   6.847
 3624POPC   C4B49018   5.139   8.797   7.230
 3625POPC   NC349019   7.963   1.848   5.333
 3625POPC   PO449020   8.622   2.013   5.332
 3625POPC   GL149021   8.390   1.832   5.702
 3625POPC   GL249022   8.111   2.050   5.773
 3625POPC   C1A49023   8.170   1.713   6.132
 3625POPC   D2A49024   8.107   1.582   6.559
 3625POPC   C3A49025   7.943   1.862   6.876
 3625POPC   C4A49026   8.043   1.853   7.256
 3625POPC   C1B49027   8.367   2.172   6.092
 3625POPC   C2B49028   8.248   2.103   6.502
 3625POPC   C3B49029   8.423   2.045   6.898
 3625POPC   C4B49030   8.593   2.183   7.259
 3626POPC   NC349031  22.146  19.071   5.194
 3626POPC   PO449032  21.680  18.808   5.294
 3626POPC   GL149033  22.006  18.990   5.663
 3626POPC   GL249034  22.166  18.736   5.853
 3626POPC   C1A49035  22.155  19.194   6.103
 3626POPC   D2A49036  22.346  19.204   6.565
 3626POPC   C3A49037  22.238  19.162   7.037
 3626POPC   C4A49038  21.987  18.962   7.411
 3626POPC   C1B49039  22.380  18.768   6.264
 3626POPC   C2B49040  22.415  18.716   6.705
 3626POPC   C3B49041  22.280  18.660   7.120
 3626POPC   C4B49042  22.481  18.849   7.487
 3627POPC   NC349043   0.809   5.869   5.496
 3627POPC   PO449044   0.326   6.168   5.335
 3627POPC   GL149045   0.333   5.946   5.792
 3627POPC   GL249046   0.645   6.004   5.969
 3627POPC   C1A49047   0.374   5.625   6.184
 3627POPC   D2A49048   0.349   5.684   6.663
 3627POPC   C3A49049   0.531   5.645   7.094
 3627POPC   C4A49050   0.221   5.629   7.456
 3627POPC   C1B49051   0.382   6.106   6.336
 3627POPC   C2B49052   0.420   6.195   6.770
 3627POPC   C3B49053   0.271   6.080   7.153
 3627POPC   C4B49054   0.548   6.036   7.488
 3628POPC   NC349055  24.159  12.101   5.459
 3628POPC   PO449056  24.753  12.223   5.213
 3628POPC   GL149057  24.642  12.045   5.696
 3628POPC   GL249058  24.315  12.173   5.923
 3628POPC   C1A49059  24.731  12.008   6.169
 3628POPC   D2A49060  24.800  12.069   6.642
 3628POPC   C3A49061  24.506  12.289   6.904
 3628POPC   C4A49062  24.570  12.319   7.350
 3628POPC   C1B49063  24.249  11.816   6.123
 3628POPC   C2B49064  24.383  11.831   6.523
 3628POPC   C3B49065  24.399  11.795   6.958
 3628POPC   C4B49066  24.281  11.457   7.207
 3629POPC   NC349067   5.703  12.785   5.145
 3629POPC   PO449068   6.306  12.747   5.158
 3629POPC   GL149069   5.996  12.787   5.594
 3629POPC   GL249070   5.851  12.523   5.864
 3629POPC   C1A49071   5.886  12.995   6.044
 3629POPC   D2A49072   5.851  13.150   6.452
 3629POPC   C3A49073   6.015  12.898   6.793
 3629POPC   C4A49074   5.874  13.134   7.132
 3629POPC   C1B49075   5.544  12.636   6.115
 3629POPC   C2B49076   5.623  12.697   6.506
 3629POPC   C3B49077   5.495  12.945   6.847
 3629POPC   C4B49078   5.467  12.812   7.268
 3630POPC   NC349079  28.463  41.902   5.322
 3630POPC   PO449080  28.204  41.290   5.467
 3630POPC   GL149081  28.260  41.614   5.749
 3630POPC   GL249082  28.633  41.637   5.721
 3630POPC   C1A49083  28.062  41.564   6.161
 3630POPC   D2A49084  28.112  41.731   6.544
 3630POPC   C3A49085  28.208  41.532   6.959
 3630POPC   C4A49086  27.961  41.277   7.257
 3630POPC   C1B49087  28.560  41.724   6.146
 3630POPC   C2B49088  28.586  41.585   6.546
 3630POPC   C3B49089  28.690  41.755   6.912
 3630POPC   C4B49090  28.521  41.863   7.277
 3631POPC   NC349091  28.004  40.865   5.528
 3631POPC   PO449092  27.386  40.973   5.565
 3631POPC   GL149093  27.616  40.717   5.865
 3631POPC   GL249094  27.466  40.424   5.706
 3631POPC   C1A49095  27.860  40.818   6.263
 3631POPC   D2A49096  27.974  40.749   6.720
 3631POPC   C3A49097  27.694  40.921   7.039
 3631POPC   C4A49098  27.270  41.004   7.213
 3631POPC   C1B49099  27.242  40.448   6.119
 3631POPC   C2B49100  27.222  40.710   6.512
 3631POPC   C3B49101  27.357  40.578   6.922
 3631POPC   C4B49102  27.335  40.219   7.156
 3632POPC   NC349103  17.858   7.592   5.558
 3632POPC   PO449104  17.305   7.315   5.299
 3632POPC   GL149105  17.518   7.246   5.716
 3632POPC   GL249106  17.368   7.070   5.943
 3632POPC   C1A49107  17.767   7.301   6.147
 3632POPC   D2A49108  17.603   7.408   6.569
 3632POPC   C3A49109  17.844   7.494   6.918
 3632POPC   C4A49110  17.803   7.528   7.344
 3632POPC   C1B49111  17.273   7.506   6.162
 3632POPC   C2B49112  17.189   7.726   6.568
 3632POPC   C3B49113  17.334   7.671   6.996
 3632POPC   C4B49114  17.286   7.487   7.384
 3633POPC   NC349115  38.405  25.853   5.348
 3633POPC   PO449116  38.649  26.503   5.435
 3633POPC   GL149117  38.599  26.182   5.724
 3633POPC   GL249118  38.246  26.211   5.792
 3633POPC   C1A49119  38.521  25.879   6.083
 3633POPC   D2A49120  38.589  25.678   6.492
 3633POPC   C3A49121  38.529  25.815   6.944
 3633POPC   C4A49122  38.801  25.676   7.320
 3633POPC   C1B49123  38.063  26.097   6.173
 3633POPC   C2B49124  38.187  26.005   6.590
 3633POPC   C3B49125  38.016  26.069   7.014
 3633POPC   C4B49126  38.019  26.125   7.459
 3634POPC   NC349127  16.175  24.069   5.350
 3634POPC   PO449128  15.546  23.922   5.410
 3634POPC   GL149129  15.822  24.017   5.773
 3634POPC   GL249130  16.200  23.992   5.854
 3634POPC   C1A49131  15.786  23.892   6.213
 3634POPC   D2A49132  15.702  23.663   6.598
 3634POPC   C3A49133  15.592  23.969   6.880
 3634POPC   C4A49134  15.774  24.140   7.242
 3634POPC   C1B49135  16.269  24.019   6.313
 3634POPC   C2B49136  16.092  24.011   6.743
 3634POPC   C3B49137  16.092  23.739   7.117
 3634POPC   C4B49138  16.413  23.580   7.441
 3635POPC   NC349139  38.811  24.250   5.474
 3635POPC   PO449140  38.279  24.414   5.180
 3635POPC   GL149141  38.360  24.409   5.708
 3635POPC   GL249142  38.666  24.562   5.837
 3635POPC   C1A49143  38.346  24.645   6.181
 3635POPC   D2A49144  38.663  24.627   6.513
 3635POPC   C3A49145  38.533  24.760   6.888
 3635POPC   C4A49146  38.249  24.700   7.228
 3635POPC   C1B49147  38.848  24.315   6.164
 3635POPC   C2B49148  38.839  24.131   6.575
 3635POPC   C3B49149  38.765  24.300   6.966
 3635POPC   C4B49150  38.703  24.506   7.343
 3636POPC   NC349151  40.189  37.388   5.470
 3636POPC   PO449152  39.510  37.665   5.525
 3636POPC   GL149153  39.870  37.724   5.825
 3636POPC   GL249154  40.154  37.508   5.955
 3636POPC   C1A49155  39.947  37.901   6.238
 3636POPC   D2A49156  40.110  38.011   6.652
 3636POPC   C3A49157  39.753  37.928   6.938
 3636POPC   C4A49158  39.553  37.925   7.346
 3636POPC   C1B49159  39.897  37.348   6.262
 3636POPC   C2B49160  39.938  37.511   6.669
 3636POPC   C3B49161  40.204  37.626   7.007
 3636POPC   C4B49162  40.536  37.419   7.244
 3637POPC   NC349163  42.141   2.993   5.470
 3637POPC   PO449164  42.679   2.708   5.357
 3637POPC   GL149165  42.381   2.599   5.696
 3637POPC   GL249166  42.501   2.909   5.846
 3637POPC   C1A49167  42.243   2.574   6.171
 3637POPC   D2A49168  42.274   2.486   6.646
 3637POPC   C3A49169  42.269   2.884   6.915
 3637POPC   C4A49170  42.170   2.995   7.350
 3637POPC   C1B49171  42.728   2.512   6.046
 3637POPC   C2B49172  42.761   2.493   6.462
 3637POPC   C3B49173  42.746   2.363   6.856
 3637POPC   C4B49174  42.507   2.521   7.201
 3638POPC   NC349175   5.416  30.999   5.701
 3638POPC   PO449176   4.798  30.846   5.413
 3638POPC   GL149177   5.050  30.651   5.813
 3638POPC   GL249178   4.870  30.389   6.002
 3638POPC   C1A49179   5.219  30.640   6.276
 3638POPC   D2A49180   5.489  30.838   6.618
 3638POPC   C3A49181   5.383  30.757   7.061
 3638POPC   C4A49182   5.151  30.692   7.458
 3638POPC   C1B49183   4.836  30.321   6.431
 3638POPC   C2B49184   4.998  30.511   6.788
 3638POPC   C3B49185   4.878  30.840   7.045
 3638POPC   C4B49186   4.669  31.209   6.943
 3639POPC   NC349187  21.207  42.542   5.401
 3639POPC   PO449188  21.485  41.933   5.481
 3639POPC   GL149189  21.436  42.251   5.789
 3639POPC   GL249190  21.470  42.617   5.829
 3639POPC   C1A49191  21.300  42.229   6.199
 3639POPC   D2A49192  21.217  42.383   6.587
 3639POPC   C3A49193  21.316  42.143   6.934
 3639POPC   C4A49194  21.164  42.253   7.329
 3639POPC   C1B49195  21.641  42.610   6.250
 3639POPC   C2B49196  21.519  42.779   6.659
 3639POPC   C3B49197  21.378  42.642   7.075
 3639POPC   C4B49198  21.488  42.610   7.539
 3640POPC   NC349199  29.596  14.311   5.452
 3640POPC   PO449200  30.059  14.799   5.585
 3640POPC   GL149201  29.878  14.527   5.847
 3640POPC   GL249202  30.017  14.203   5.788
 3640POPC   C1A49203  29.658  14.287   6.161
 3640POPC   D2A49204  29.811  14.134   6.554
 3640POPC   C3A49205  29.634  14.240   6.932
 3640POPC   C4A49206  29.780  14.136   7.319
 3640POPC   C1B49207  30.169  14.318   6.226
 3640POPC   C2B49208  30.373  14.253   6.624
 3640POPC   C3B49209  30.216  14.181   7.038
 3640POPC   C4B49210  30.404  14.231   7.457
 3641POPC   NC349211   4.452  37.719   5.445
 3641POPC   PO449212   3.952  37.204   5.187
 3641POPC   GL149213   4.040  37.298   5.668
 3641POPC   GL249214   4.379  37.414   5.846
 3641POPC   C1A49215   3.970  37.419   6.131
 3641POPC   D2A49216   4.355  37.438   6.421
 3641POPC   C3A49217   4.319  37.371   6.864
 3641POPC   C4A49218   4.193  37.559   7.248
 3641POPC   C1B49219   4.369  37.811   6.079
 3641POPC   C2B49220   4.558  37.920   6.469
 3641POPC   C3B49221   4.324  37.884   6.867
 3641POPC   C4B49222   4.474  37.984   7.285
 3642POPC   NC349223  30.472  15.485   5.463
 3642POPC   PO449224  30.970  15.026   5.346
 3642POPC   GL149225  30.874  14.855   5.776
 3642POPC   GL249226  30.633  15.149   5.833
 3642POPC   C1A49227  30.876  14.959   6.234
 3642POPC   D2A49228  30.692  15.198   6.573
 3642POPC   C3A49229  30.819  14.988   6.961
 3642POPC   C4A49230  30.561  15.165   7.265
 3642POPC   C1B49231  30.591  15.495   6.167
 3642POPC   C2B49232  30.387  15.629   6.561
 3642POPC   C3B49233  30.282  15.451   6.946
 3642POPC   C4B49234  30.276  15.625   7.356
 3643POPC   NC349235   2.636   2.530   5.530
 3643POPC   PO449236   2.718   1.872   5.335
 3643POPC   GL149237   2.658   1.731   5.753
 3643POPC   GL249238   2.672   2.087   5.845
 3643POPC   C1A49239   2.823   1.722   6.185
 3643POPC   D2A49240   2.950   2.076   6.451
 3643POPC   C3A49241   2.924   2.065   6.904
 3643POPC   C4A49242   2.905   2.058   7.375
 3643POPC   C1B49243   2.542   2.286   6.222
 3643POPC   C2B49244   2.601   2.437   6.646
 3643POPC   C3B49245   2.486   2.275   7.047
 3643POPC   C4B49246   2.466   2.322   7.463
 3644POPC   NC349247  32.339  11.786   5.525
 3644POPC   PO449248  32.805  11.365   5.415
 3644POPC   GL149249  32.530  11.378   5.793
 3644POPC   GL249250  32.168  11.330   5.710
 3644POPC   C1A49251  32.393  11.223   6.208
 3644POPC   D2A49252  32.062  10.979   6.411
 3644POPC   C3A49253  32.022  10.987   6.862
 3644POPC   C4A49254  32.382  11.170   7.130
 3644POPC   C1B49255  31.933  11.392   6.110
 3644POPC   C2B49256  32.010  11.478   6.542
 3644POPC   C3B49257  31.858  11.522   6.954
 3644POPC   C4B49258  31.882  11.230   7.289
 3645POPC   NC349259  30.710   9.958   5.408
 3645POPC   PO449260  30.727   9.289   5.503
 3645POPC   GL149261  30.930   9.533   5.838
 3645POPC   GL249262  30.917   9.908   5.874
 3645POPC   C1A49263  30.981   9.485   6.287
 3645POPC   D2A49264  30.629   9.485   6.564
 3645POPC   C3A49265  30.685   9.524   7.002
 3645POPC   C4A49266  30.589   9.840   7.308
 3645POPC   C1B49267  30.850  10.035   6.291
 3645POPC   C2B49268  31.004   9.951   6.714
 3645POPC   C3B49269  31.032  10.031   7.156
 3645POPC   C4B49270  31.154  10.089   7.598
 3646POPC   NC349271   1.883   3.118   5.234
 3646POPC   PO449272   2.404   2.781   5.230
 3646POPC   GL149273   2.217   2.787   5.691
 3646POPC   GL249274   2.021   3.042   5.856
 3646POPC   C1A49275   2.229   2.689   6.179
 3646POPC   D2A49276   2.203   2.921   6.594
 3646POPC   C3A49277   2.237   2.727   7.007
 3646POPC   C4A49278   1.926   2.443   7.193
 3646POPC   C1B49279   1.741   2.812   6.211
 3646POPC   C2B49280   1.671   2.623   6.619
 3646POPC   C3B49281   1.704   2.859   7.013
 3646POPC   C4B49282   1.686   2.841   7.462
 3647POPC   NC349283  17.209  44.745   5.136
 3647POPC   PO449284  16.660  44.716   5.598
 3647POPC   GL149285  16.770  44.779   5.951
 3647POPC   GL249286  17.054  44.945   5.963
 3647POPC   C1A49287  16.661  44.919   6.321
 3647POPC   D2A49288  16.865  44.729   6.643
 3647POPC   C3A49289  16.611  44.672   6.987
 3647POPC   C4A49290  16.596   0.084   7.131
 3647POPC   C1B49291  17.223  44.648   6.261
 3647POPC   C2B49292  17.135  44.313   6.577
 3647POPC   C3B49293  17.152  44.445   6.980
 3647POPC   C4B49294  17.105  44.852   7.082
 3648POPC   NC349295   4.194  13.403   5.394
 3648POPC   PO449296   4.659  12.915   5.498
 3648POPC   GL149297   4.273  12.985   5.737
 3648POPC   GL249298   3.986  12.752   5.717
 3648POPC   C1A49299   4.375  12.932   6.168
 3648POPC   D2A49300   4.578  12.815   6.544
 3648POPC   C3A49301   4.415  12.932   6.889
 3648POPC   C4A49302   4.069  12.965   7.120
 3648POPC   C1B49303   4.161  12.491   6.079
 3648POPC   C2B49304   4.275  12.399   6.527
 3648POPC   C3B49305   4.142  12.484   6.962
 3648POPC   C4B49306   3.822  12.571   7.324
 3649POPC   NC349307  14.401   1.035   4.974
 3649POPC   PO449308  14.136   1.426   5.375
 3649POPC   GL149309  14.319   1.319   5.758
 3649POPC   GL249310  14.389   0.989   5.738
 3649POPC   C1A49311  14.454   1.415   6.170
 3649POPC   D2A49312  14.317   1.289   6.579
 3649POPC   C3A49313  14.495   1.482   6.932
 3649POPC   C4A49314  14.309   1.336   7.263
 3649POPC   C1B49315  14.582   0.893   6.144
 3649POPC   C2B49316  14.570   0.855   6.588
 3649POPC   C3B49317  14.724   1.026   6.972
 3649POPC   C4B49318  14.596   0.922   7.380
 3650POPC   NC349319  41.825  22.181   5.366
 3650POPC   PO449320  41.293  21.837   5.381
 3650POPC   GL149321  41.508  22.017   5.780
 3650POPC   GL249322  41.507  22.374   5.760
 3650POPC   C1A49323  41.498  21.963   6.264
 3650POPC   D2A49324  41.478  21.731   6.692
 3650POPC   C3A49325  41.569  22.032   7.013
 3650POPC   C4A49326  41.300  22.313   7.187
 3650POPC   C1B49327  41.700  22.449   6.157
 3650POPC   C2B49328  41.691  22.452   6.591
 3650POPC   C3B49329  41.925  22.396   6.952
 3650POPC   C4B49330  41.886  22.277   7.366
 3651POPC   NC349331  27.574  33.283   5.540
 3651POPC   PO449332  27.612  32.592   5.607
 3651POPC   GL149333  27.679  32.909   5.876
 3651POPC   GL249334  27.999  33.084   5.768
 3651POPC   C1A49335  27.509  32.983   6.300
 3651POPC   D2A49336  27.466  32.770   6.716
 3651POPC   C3A49337  27.343  32.960   7.126
 3651POPC   C4A49338  27.340  32.918   7.601
 3651POPC   C1B49339  28.066  32.941   6.207
 3651POPC   C2B49340  27.917  33.057   6.616
 3651POPC   C3B49341  27.832  32.961   7.035
 3651POPC   C4B49342  27.723  33.214   7.406
 3652POPC   NC349343  12.653  25.025   5.710
 3652POPC   PO449344  13.001  24.547   5.400
 3652POPC   GL149345  13.016  24.710   5.860
 3652POPC   GL249346  12.808  24.411   5.937
 3652POPC   C1A49347  12.812  24.723   6.325
 3652POPC   D2A49348  12.677  24.570   6.729
 3652POPC   C3A49349  12.888  24.719   7.066
 3652POPC   C4A49350  12.973  24.604   7.454
 3652POPC   C1B49351  12.790  24.206   6.377
 3652POPC   C2B49352  12.736  24.066   6.811
 3652POPC   C3B49353  12.600  24.303   7.195
 3652POPC   C4B49354  12.613  24.269   7.649
 3653POPC   NC349355  42.250   6.693   5.359
 3653POPC   PO449356  42.328   6.097   5.429
 3653POPC   GL149357  42.372   6.457   5.797
 3653POPC   GL249358  42.452   6.824   5.800
 3653POPC   C1A49359  42.173   6.621   6.213
 3653POPC   D2A49360  41.915   6.680   6.631
 3653POPC   C3A49361  42.117   6.765   7.018
 3653POPC   C4A49362  42.436   6.512   7.182
 3653POPC   C1B49363  42.562   6.959   6.194
 3653POPC   C2B49364  42.399   6.902   6.595
 3653POPC   C3B49365  42.579   6.982   6.981
 3653POPC   C4B49366  42.459   6.994   7.375
 3654POPC   NC349367   2.333  20.919   5.629
 3654POPC   PO449368   2.829  20.570   5.322
 3654POPC   GL149369   2.866  20.435   5.764
 3654POPC   GL249370   2.811  20.787   5.864
 3654POPC   C1A49371   2.738  20.453   6.225
 3654POPC   D2A49372   2.423  20.655   6.479
 3654POPC   C3A49373   2.460  20.645   6.920
 3654POPC   C4A49374   2.703  20.322   7.080
 3654POPC   C1B49375   3.008  20.868   6.291
 3654POPC   C2B49376   2.931  20.606   6.688
 3654POPC   C3B49377   2.942  20.796   7.103
 3654POPC   C4B49378   2.983  20.795   7.531
 3655POPC   NC349379   0.414  22.485   5.590
 3655POPC   PO449380   0.220  21.903   5.559
 3655POPC   GL149381   0.384  21.743   5.919
 3655POPC   GL249382   0.599  22.012   5.944
 3655POPC   C1A49383   0.238  21.891   6.330
 3655POPC   D2A49384   0.187  22.312   6.486
 3655POPC   C3A49385   0.307  22.317   6.904
 3655POPC   C4A49386   0.473  22.026   7.225
 3655POPC   C1B49387   0.682  22.156   6.361
 3655POPC   C2B49388   0.761  22.127   6.794
 3655POPC   C3B49389   0.843  22.364   7.163
 3655POPC   C4B49390   0.717  22.293   7.607
 3656POPC   NC349391   1.679   0.146   5.532
 3656POPC   PO449392   1.209   0.582   5.419
 3656POPC   GL149393   1.170   0.539   5.856
 3656POPC   GL249394   1.337   0.211   5.940
 3656POPC   C1A49395   1.275   0.572   6.300
 3656POPC   D2A49396   1.280   0.291   6.664
 3656POPC   C3A49397   1.376   0.434   7.094
 3656POPC   C4A49398   1.326   0.609   7.532
 3656POPC   C1B49399   0.942   0.183   6.205
 3656POPC   C2B49400   0.812   0.052   6.621
 3656POPC   C3B49401   0.920   0.198   7.029
 3656POPC   C4B49402   1.049   0.090   7.458
 3657POPC   NC349403   7.165  17.086   5.512
 3657POPC   PO449404   7.678  16.591   5.495
 3657POPC   GL149405   7.452  16.766   5.804
 3657POPC   GL249406   7.524  17.108   5.878
 3657POPC   C1A49407   7.147  16.728   6.124
 3657POPC   D2A49408   7.285  16.842   6.527
 3657POPC   C3A49409   7.087  16.836   6.914
 3657POPC   C4A49410   7.289  16.824   7.293
 3657POPC   C1B49411   7.219  17.253   6.215
 3657POPC   C2B49412   7.096  17.300   6.672
 3657POPC   C3B49413   7.362  17.288   7.050
 3657POPC   C4B49414   7.388  17.264   7.554
 3658POPC   NC349415   6.181  31.385   5.472
 3658POPC   PO449416   5.916  32.023   5.371
 3658POPC   GL149417   5.916  31.805   5.788
 3658POPC   GL249418   5.937  31.435   5.922
 3658POPC   C1A49419   5.757  31.813   6.219
 3658POPC   D2A49420   5.604  31.491   6.497
 3658POPC   C3A49421   5.772  31.639   6.876
 3658POPC   C4A49422   5.825  31.654   7.323
 3658POPC   C1B49423   6.138  31.472   6.354
 3658POPC   C2B49424   6.257  31.539   6.814
 3658POPC   C3B49425   6.171  31.346   7.163
 3658POPC   C4B49426   5.975  31.237   7.566
 3659POPC   NC349427  41.556  39.744   5.487
 3659POPC   PO449428  41.771  40.387   5.433
 3659POPC   GL149429  41.782  40.089   5.824
 3659POPC   GL249430  41.434  39.977   5.914
 3659POPC   C1A49431  41.763  40.059   6.308
 3659POPC   D2A49432  41.467  40.175   6.674
 3659POPC   C3A49433  41.718  40.206   7.060
 3659POPC   C4A49434  41.816  40.172   7.511
 3659POPC   C1B49435  41.398  39.707   6.271
 3659POPC   C2B49436  41.542  39.675   6.704
 3659POPC   C3B49437  41.324  39.824   7.085
 3659POPC   C4B49438  41.371  39.947   7.536
 3660POPC   NC349439  18.049  27.503   5.622
 3660POPC   PO449440  18.638  27.576   5.198
 3660POPC   GL149441  18.593  27.493   5.681
 3660POPC   GL249442  18.482  27.791   5.849
 3660POPC   C1A49443  18.551  27.352   6.156
 3660POPC   D2A49444  18.676  27.256   6.627
 3660POPC   C3A49445  18.365  27.436   6.948
 3660POPC   C4A49446  17.992  27.245   7.197
 3660POPC   C1B49447  18.217  27.814   6.227
 3660POPC   C2B49448  18.219  28.025   6.618
 3660POPC   C3B49449  18.461  28.018   6.958
 3660POPC   C4B49450  18.298  27.849   7.258
 3661POPC   NC349451  31.562  32.726   5.519
 3661POPC   PO449452  31.009  33.077   5.238
 3661POPC   GL149453  31.269  33.172   5.729
 3661POPC   GL249454  31.666  33.145   5.826
 3661POPC   C1A49455  31.352  33.092   6.234
 3661POPC   D2A49456  31.573  33.103   6.676
 3661POPC   C3A49457  31.490  32.850   7.085
 3661POPC   C4A49458  31.085  32.698   7.274
 3661POPC   C1B49459  31.872  32.965   6.208
 3661POPC   C2B49460  32.072  33.107   6.581
 3661POPC   C3B49461  31.995  32.979   6.982
 3661POPC   C4B49462  31.836  33.091   7.383
 3662POPC   NC349463   2.418  30.009   5.321
 3662POPC   PO449464   1.827  30.152   5.366
 3662POPC   GL149465   1.830  30.126   5.855
 3662POPC   GL249466   2.204  30.115   5.844
 3662POPC   C1A49467   1.668  30.067   6.341
 3662POPC   D2A49468   1.539  30.017   6.812
 3662POPC   C3A49469   1.824  30.135   7.156
 3662POPC   C4A49470   2.143  30.076   7.516
 3662POPC   C1B49471   2.105  29.831   6.214
 3662POPC   C2B49472   2.001  29.803   6.682
 3662POPC   C3B49473   2.240  29.825   7.083
 3662POPC   C4B49474   2.396  29.638   7.482
 3663POPC   NC349475   6.506  18.575   5.550
 3663POPC   PO449476   6.941  19.050   5.270
 3663POPC   GL149477   6.849  19.040   5.711
 3663POPC   GL249478   6.961  19.372   5.684
 3663POPC   C1A49479   6.765  18.933   6.176
 3663POPC   D2A49480   6.565  18.897   6.612
 3663POPC   C3A49481   6.715  18.729   6.985
 3663POPC   C4A49482   6.788  18.927   7.352
 3663POPC   C1B49483   6.983  19.404   6.122
 3663POPC   C2B49484   6.768  19.351   6.514
 3663POPC   C3B49485   6.741  19.280   6.966
 3663POPC   C4B49486   6.954  19.411   7.375
 3664POPC   NC349487  27.364   7.987   5.228
 3664POPC   PO449488  27.761   7.462   5.280
 3664POPC   GL149489  27.611   7.496   5.750
 3664POPC   GL249490  27.308   7.323   5.784
 3664POPC   C1A49491  27.818   7.526   6.173
 3664POPC   D2A49492  27.626   7.594   6.557
 3664POPC   C3A49493  27.759   7.419   6.938
 3664POPC   C4A49494  27.409   7.549   7.220
 3664POPC   C1B49495  27.400   7.227   6.239
 3664POPC   C2B49496  27.483   7.084   6.677
 3664POPC   C3B49497  27.375   7.055   7.132
 3664POPC   C4B49498  27.072   7.126   7.449
 3665POPC   NC349499  38.255  28.550   5.326
 3665POPC   PO449500  38.779  28.181   5.393
 3665POPC   GL149501  38.628  28.476   5.720
 3665POPC   GL249502  38.275  28.510   5.837
 3665POPC   C1A49503  38.673  28.459   6.170
 3665POPC   D2A49504  38.342  28.349   6.449
 3665POPC   C3A49505  38.317  28.123   6.845
 3665POPC   C4A49506  38.488  28.039   7.257
 3665POPC   C1B49507  38.254  28.803   6.190
 3665POPC   C2B49508  38.057  28.766   6.574
 3665POPC   C3B49509  38.220  28.610   6.922
 3665POPC   C4B49510  38.443  28.732   7.206
 3666POPC   NC349511  18.090  31.151   5.352
 3666POPC   PO449512  18.557  31.729   5.433
 3666POPC   GL149513  18.326  31.481   5.700
 3666POPC   GL249514  18.097  31.732   5.718
 3666POPC   C1A49515  18.093  31.361   6.074
 3666POPC   D2A49516  18.202  31.203   6.463
 3666POPC   C3A49517  18.098  31.404   6.837
 3666POPC   C4A49518  18.078  31.214   7.241
 3666POPC   C1B49519  18.406  31.859   6.058
 3666POPC   C2B49520  18.369  31.835   6.501
 3666POPC   C3B49521  18.204  31.973   6.883
 3666POPC   C4B49522  18.128  31.735   7.233
 3667POPC   NC349523   5.097   2.689   5.354
 3667POPC   PO449524   4.458   2.633   5.562
 3667POPC   GL149525   4.828   2.824   5.803
 3667POPC   GL249526   5.227   2.886   5.796
 3667POPC   C1A49527   4.963   2.712   6.214
 3667POPC   D2A49528   5.144   2.503   6.555
 3667POPC   C3A49529   4.979   2.670   6.945
 3667POPC   C4A49530   4.981   2.476   7.327
 3667POPC   C1B49531   5.437   2.929   6.201
 3667POPC   C2B49532   5.260   2.993   6.625
 3667POPC   C3B49533   5.407   2.933   7.058
 3667POPC   C4B49534   5.221   2.947   7.490
 3668POPC   NC349535  19.974  16.542   5.547
 3668POPC   PO449536  19.407  16.834   5.493
 3668POPC   GL149537  19.650  16.731   5.871
 3668POPC   GL249538  19.664  16.352   5.890
 3668POPC   C1A49539  19.999  16.721   6.191
 3668POPC   D2A49540  19.902  16.897   6.592
 3668POPC   C3A49541  20.073  16.705   6.953
 3668POPC   C4A49542  20.174  16.780   7.410
 3668POPC   C1B49543  19.578  16.483   6.303
 3668POPC   C2B49544  19.693  16.447   6.686
 3668POPC   C3B49545  19.515  16.608   7.016
 3668POPC   C4B49546  19.695  16.882   7.278
 3669POPC   NC349547  13.444  21.663   5.387
 3669POPC   PO449548  14.097  21.588   5.471
 3669POPC   GL149549  13.799  21.333   5.736
 3669POPC   GL249550  13.437  21.413   5.849
 3669POPC   C1A49551  13.807  21.344   6.189
 3669POPC   D2A49552  13.566  21.429   6.558
 3669POPC   C3A49553  13.823  21.503   6.916
 3669POPC   C4A49554  13.676  21.546   7.314
 3669POPC   C1B49555  13.362  21.097   6.202
 3669POPC   C2B49556  13.263  20.992   6.650
 3669POPC   C3B49557  13.369  21.252   7.014
 3669POPC   C4B49558  13.374  21.174   7.472
 3670POPC   NC349559  36.303  24.413   5.407
 3670POPC   PO449560  35.895  23.757   5.436
 3670POPC   GL149561  36.064  23.544   5.835
 3670POPC   GL249562  35.777  23.359   5.966
 3670POPC   C1A49563  36.402  23.564   6.176
 3670POPC   D2A49564  36.576  23.430   6.591
 3670POPC   C3A49565  36.425  23.583   7.002
 3670POPC   C4A49566  36.329  23.530   7.446
 3670POPC   C1B49567  35.910  23.574   6.334
 3670POPC   C2B49568  36.016  23.751   6.738
 3670POPC   C3B49569  35.886  23.553   7.151
 3670POPC   C4B49570  35.586  23.713   7.465
 3671POPC   NC349571  27.822  28.571   5.165
 3671POPC   PO449572  27.681  29.240   5.290
 3671POPC   GL149573  27.704  29.127   5.729
 3671POPC   GL249574  27.842  29.438   5.885
 3671POPC   C1A49575  27.458  29.055   6.118
 3671POPC   D2A49576  27.278  29.167   6.532
 3671POPC   C3A49577  27.446  28.995   6.931
 3671POPC   C4A49578  27.679  28.933   7.306
 3671POPC   C1B49579  27.617  29.509   6.293
 3671POPC   C2B49580  27.685  29.423   6.751
 3671POPC   C3B49581  27.672  29.435   7.218
 3671POPC   C4B49582  27.743  29.660   7.629
 3672POPC   NC349583   6.934  39.128   5.346
 3672POPC   PO449584   6.408  39.476   5.484
 3672POPC   GL149585   6.729  39.350   5.791
 3672POPC   GL249586   6.723  38.984   5.825
 3672POPC   C1A49587   6.640  39.284   6.238
 3672POPC   D2A49588   6.373  39.383   6.581
 3672POPC   C3A49589   6.602  39.507   6.953
 3672POPC   C4A49590   6.500  39.559   7.394
 3672POPC   C1B49591   6.499  38.772   6.162
 3672POPC   C2B49592   6.336  38.859   6.579
 3672POPC   C3B49593   6.620  38.991   6.911
 3672POPC   C4B49594   6.652  39.076   7.371
 3673POPC   NC349595  38.166  29.260   5.576
 3673POPC   PO449596  38.628  28.880   5.367
 3673POPC   GL149597  38.578  28.985   5.793
 3673POPC   GL249598  38.672  29.312   5.805
 3673POPC   C1A49599  38.729  28.964   6.226
 3673POPC   D2A49600  38.620  28.753   6.619
 3673POPC   C3A49601  38.867  28.892   6.971
 3673POPC   C4A49602  38.685  29.170   7.305
 3673POPC   C1B49603  38.415  29.367   6.165
 3673POPC   C2B49604  38.316  29.411   6.574
 3673POPC   C3B49605  38.353  29.128   6.879
 3673POPC   C4B49606  38.136  29.235   7.220
 3674POPC   NC349607  35.756  25.166   5.514
 3674POPC   PO449608  35.114  25.156   5.558
 3674POPC   GL149609  35.427  25.190   5.906
 3674POPC   GL249610  35.505  25.521   5.826
 3674POPC   C1A49611  35.504  25.222   6.390
 3674POPC   D2A49612  35.393  25.426   6.809
 3674POPC   C3A49613  35.425  25.244   7.259
 3674POPC   C4A49614  35.177  24.974   7.518
 3674POPC   C1B49615  35.698  25.676   6.246
 3674POPC   C2B49616  35.650  25.864   6.690
 3674POPC   C3B49617  35.503  25.795   7.132
 3674POPC   C4B49618  35.379  25.648   7.556
 3675POPC   NC349619  42.345  16.509   5.427
 3675POPC   PO449620  41.971  16.922   5.126
 3675POPC   GL149621  42.179  16.928   5.660
 3675POPC   GL249622  42.507  16.948   5.757
 3675POPC   C1A49623  42.281  16.624   6.081
 3675POPC   D2A49624  42.595  16.759   6.409
 3675POPC   C3A49625  42.578  16.607   6.861
 3675POPC   C4A49626  42.507  16.716   7.279
 3675POPC   C1B49627  42.175  17.102   6.140
 3675POPC   C2B49628  42.192  17.005   6.598
 3675POPC   C3B49629  42.089  16.968   7.028
 3675POPC   C4B49630  42.175  17.238   7.357
 3676POPC   NC349631  17.773  14.894   5.368
 3676POPC   PO449632  17.322  14.355   5.519
 3676POPC   GL149633  17.269  14.482   5.940
 3676POPC   GL249634  17.312  14.141   5.999
 3676POPC   C1A49635  17.446  14.674   6.338
 3676POPC   D2A49636  17.749  14.590   6.693
 3676POPC   C3A49637  17.493  14.408   7.011
 3676POPC   C4A49638  17.167  14.584   7.290
 3676POPC   C1B49639  17.571  14.172   6.355
 3676POPC   C2B49640  17.758  14.001   6.706
 3676POPC   C3B49641  17.821  14.049   7.142
 3676POPC   C4B49642  17.670  14.316   7.490
 3677POPC   NC349643  17.708  38.144   5.281
 3677POPC   PO449644  17.177  38.620   5.436
 3677POPC   GL149645  17.441  38.536   5.824
 3677POPC   GL249646  17.745  38.329   5.753
 3677POPC   C1A49647  17.424  38.760   6.247
 3677POPC   D2A49648  17.153  38.751   6.629
 3677POPC   C3A49649  17.421  38.662   6.992
 3677POPC   C4A49650  17.398  38.226   7.145
 3677POPC   C1B49651  17.821  38.433   6.181
 3677POPC   C2B49652  17.653  38.441   6.589
 3677POPC   C3B49653  17.855  38.329   6.925
 3677POPC   C4B49654  17.820  38.431   7.309
 3678POPC   NC349655  38.791  34.940   5.520
 3678POPC   PO449656  38.369  35.523   5.426
 3678POPC   GL149657  38.362  35.329   5.853
 3678POPC   GL249658  38.399  34.948   5.853
 3678POPC   C1A49659  38.223  35.433   6.284
 3678POPC   D2A49660  38.206  35.739   6.615
 3678POPC   C3A49661  38.353  35.576   7.014
 3678POPC   C4A49662  38.253  35.387   7.421
 3678POPC   C1B49663  38.616  35.084   6.233
 3678POPC   C2B49664  38.478  35.148   6.655
 3678POPC   C3B49665  38.443  35.066   7.074
 3678POPC   C4B49666  38.868  35.083   7.164
 3679POPC   NC349667   3.241  19.199   5.279
 3679POPC   PO449668   3.836  18.959   5.423
 3679POPC   GL149669   3.743  18.994   5.829
 3679POPC   GL249670   3.389  19.008   5.766
 3679POPC   C1A49671   3.818  18.843   6.256
 3679POPC   D2A49672   3.634  19.006   6.633
 3679POPC   C3A49673   3.803  19.091   7.046
 3679POPC   C4A49674   3.921  18.967   7.448
 3679POPC   C1B49675   3.393  19.168   6.207
 3679POPC   C2B49676   3.160  19.222   6.619
 3679POPC   C3B49677   3.297  19.091   7.022
 3679POPC   C4B49678   3.424  18.844   7.363
 3680POPC   NC349679   7.911  17.023   5.506
 3680POPC   PO449680   8.509  16.609   5.432
 3680POPC   GL149681   8.327  16.807   5.821
 3680POPC   GL249682   7.973  16.711   5.937
 3680POPC   C1A49683   8.368  16.874   6.272
 3680POPC   D2A49684   8.063  16.781   6.584
 3680POPC   C3A49685   8.149  16.826   6.989
 3680POPC   C4A49686   8.076  16.483   7.239
 3680POPC   C1B49687   7.904  17.069   6.188
 3680POPC   C2B49688   7.687  17.165   6.557
 3680POPC   C3B49689   7.654  16.918   6.903
 3680POPC   C4B49690   7.777  17.011   7.302
 3681POPC   NC349691   0.653  20.930   5.457
 3681POPC   PO449692   0.261  20.335   5.484
 3681POPC   GL149693   0.553  20.504   5.793
 3681POPC   GL249694   0.308  20.743   5.823
 3681POPC   C1A49695   0.732  20.494   6.236
 3681POPC   D2A49696   0.488  20.647   6.624
 3681POPC   C3A49697   0.643  20.639   7.030
 3681POPC   C4A49698   0.494  20.523   7.446
 3681POPC   C1B49699   0.210  20.476   6.204
 3681POPC   C2B49700   0.169  20.265   6.639
 3681POPC   C3B49701   0.149  20.422   7.077
 3681POPC   C4B49702   0.042  20.366   7.560
 3682POPC   NC349703  36.707  32.011   5.517
 3682POPC   PO449704  37.214  32.475   5.498
 3682POPC   GL149705  36.964  32.368   5.813
 3682POPC   GL249706  37.149  32.053   5.846
 3682POPC   C1A49707  37.104  32.416   6.243
 3682POPC   D2A49708  37.376  32.228   6.539
 3682POPC   C3A49709  37.212  32.162   6.935
 3682POPC   C4A49710  37.028  31.840   7.142
 3682POPC   C1B49711  36.841  31.971   6.169
 3682POPC   C2B49712  36.806  32.106   6.574
 3682POPC   C3B49713  36.647  32.259   6.922
 3682POPC   C4B49714  36.873  32.471   7.196
 3683POPC   NC349715   0.926   6.847   5.665
 3683POPC   PO449716   1.462   6.755   5.280
 3683POPC   GL149717   1.371   6.637   5.779
 3683POPC   GL249718   1.500   6.394   5.967
 3683POPC   C1A49719   1.418   6.798   6.254
 3683POPC   D2A49720   1.386   6.576   6.643
 3683POPC   C3A49721   1.332   6.901   6.935
 3683POPC   C4A49722   1.511   7.091   7.296
 3683POPC   C1B49723   1.058   6.455   6.188
 3683POPC   C2B49724   0.825   6.477   6.590
 3683POPC   C3B49725   0.990   6.540   6.989
 3683POPC   C4B49726   1.347   6.331   7.129
 3684POPC   NC349727   5.705  27.295   4.940
 3684POPC   PO449728   6.009  27.749   5.284
 3684POPC   GL149729   5.939  27.635   5.739
 3684POPC   GL249730   5.807  27.906   5.892
 3684POPC   C1A49731   5.902  27.497   6.195
 3684POPC   D2A49732   5.879  27.609   6.639
 3684POPC   C3A49733   5.910  27.381   7.017
 3684POPC   C4A49734   6.124  27.503   7.394
 3684POPC   C1B49735   5.716  27.989   6.330
 3684POPC   C2B49736   5.484  27.883   6.743
 3684POPC   C3B49737   5.708  27.838   7.129
 3684POPC   C4B49738   5.902  27.954   7.529
 3685POPC   NC349739  27.873   2.894   5.523
 3685POPC   PO449740  27.394   2.528   5.555
 3685POPC   GL149741  27.547   2.686   5.913
 3685POPC   GL249742  27.887   2.541   5.917
 3685POPC   C1A49743  27.370   2.952   6.259
 3685POPC   D2A49744  27.214   2.892   6.696
 3685POPC   C3A49745  27.501   2.840   7.006
 3685POPC   C4A49746  27.650   3.104   7.327
 3685POPC   C1B49747  27.877   2.843   6.247
 3685POPC   C2B49748  27.678   2.628   6.576
 3685POPC   C3B49749  27.956   2.355   6.793
 3685POPC   C4B49750  28.006   2.663   7.105
 3686POPC   NC349751  20.021  34.924   5.442
 3686POPC   PO449752  19.900  34.323   5.255
 3686POPC   GL149753  19.782  34.505   5.652
 3686POPC   GL249754  20.075  34.410   5.811
 3686POPC   C1A49755  19.600  34.545   6.085
 3686POPC   D2A49756  19.635  34.421   6.542
 3686POPC   C3A49757  19.490  34.705   6.901
 3686POPC   C4A49758  19.738  34.875   7.249
 3686POPC   C1B49759  20.082  34.384   6.268
 3686POPC   C2B49760  20.114  34.564   6.708
 3686POPC   C3B49761  19.964  34.443   7.122
 3686POPC   C4B49762  20.005  34.440   7.573
 3687POPC   NC349763  38.114  36.797   5.461
 3687POPC   PO449764  38.768  37.011   5.516
 3687POPC   GL149765  38.472  36.919   5.808
 3687POPC   GL249766  38.516  36.583   5.805
 3687POPC   C1A49767  38.333  36.871   6.215
 3687POPC   D2A49768  38.618  36.948   6.568
 3687POPC   C3A49769  38.391  37.052   6.902
 3687POPC   C4A49770  38.424  36.977   7.336
 3687POPC   C1B49771  38.753  36.588   6.216
 3687POPC   C2B49772  38.853  36.478   6.675
 3687POPC   C3B49773  38.805  36.730   7.061
 3687POPC   C4B49774  38.738  36.651   7.530
 3688POPC   NC349775   5.964  22.875   5.399
 3688POPC   PO449776   5.529  23.381   5.557
 3688POPC   GL149777   5.694  23.022   5.826
 3688POPC   GL249778   5.596  22.660   5.750
 3688POPC   C1A49779   6.025  22.917   6.159
 3688POPC   D2A49780   5.947  22.899   6.623
 3688POPC   C3A49781   6.057  23.084   7.036
 3688POPC   C4A49782   6.047  22.686   7.274
 3688POPC   C1B49783   5.569  22.678   6.223
 3688POPC   C2B49784   5.464  22.720   6.677
 3688POPC   C3B49785   5.577  22.926   7.063
 3688POPC   C4B49786   5.502  23.314   7.250
 3689POPC   NC349787   7.025  43.779   5.472
 3689POPC   PO449788   7.544  44.152   5.492
 3689POPC   GL149789   7.354  43.860   5.850
 3689POPC   GL249790   7.207  43.495   5.853
 3689POPC   C1A49791   7.158  43.961   6.245
 3689POPC   D2A49792   7.128  44.267   6.570
 3689POPC   C3A49793   7.159  44.111   6.986
 3689POPC   C4A49794   7.523  43.897   7.141
 3689POPC   C1B49795   7.181  43.455   6.299
 3689POPC   C2B49796   7.118  43.626   6.720
 3689POPC   C3B49797   7.209  43.438   7.129
 3689POPC   C4B49798   7.188  43.658   7.503
 3690POPC   NC349799  26.264  25.915   5.630
 3690POPC   PO449800  26.781  25.662   5.235
 3690POPC   GL149801  26.805  25.638   5.748
 3690POPC   GL249802  26.514  25.705   6.009
 3690POPC   C1A49803  26.958  25.719   6.225
 3690POPC   D2A49804  27.011  26.070   6.546
 3690POPC   C3A49805  26.957  26.170   6.995
 3690POPC   C4A49806  26.805  25.827   7.231
 3690POPC   C1B49807  26.634  26.159   6.182
 3690POPC   C2B49808  26.662  26.445   6.558
 3690POPC   C3B49809  26.518  26.432   6.984
 3690POPC   C4B49810  26.591  26.270   7.414
 3691POPC   NC349811  40.510  18.807   5.132
 3691POPC   PO449812  40.645  19.426   5.444
 3691POPC   GL149813  40.799  19.191   5.819
 3691POPC   GL249814  40.919  18.816   5.726
 3691POPC   C1A49815  40.600  19.263   6.244
 3691POPC   D2A49816  40.375  19.288   6.637
 3691POPC   C3A49817  40.670  19.300   6.959
 3691POPC   C4A49818  41.097  19.176   7.067
 3691POPC   C1B49819  40.895  18.844   6.190
 3691POPC   C2B49820  40.877  18.971   6.619
 3691POPC   C3B49821  40.781  18.766   7.016
 3691POPC   C4B49822  40.443  18.578   7.215
 3692POPC   NC349823  15.788   0.778   5.411
 3692POPC   PO449824  16.271   0.350   5.438
 3692POPC   GL149825  16.149   0.250   5.838
 3692POPC   GL249826  15.887   0.485   5.840
 3692POPC   C1A49827  16.083   0.279   6.282
 3692POPC   D2A49828  15.898   0.469   6.658
 3692POPC   C3A49829  16.099   0.259   7.019
 3692POPC   C4A49830  16.236   0.484   7.402
 3692POPC   C1B49831  15.628   0.542   6.207
 3692POPC   C2B49832  15.564   0.888   6.476
 3692POPC   C3B49833  15.620   0.950   6.919
 3692POPC   C4B49834  15.766   0.603   7.164
 3693POPC   NC349835   6.333  27.433   5.166
 3693POPC   PO449836   6.958  27.435   5.320
 3693POPC   GL149837   6.672  27.530   5.694
 3693POPC   GL249838   6.887  27.643   5.973
 3693POPC   C1A49839   6.401  27.589   6.102
 3693POPC   D2A49840   6.329  27.403   6.530
 3693POPC   C3A49841   6.345  27.648   6.920
 3693POPC   C4A49842   6.711  27.833   7.072
 3693POPC   C1B49843   6.820  27.365   6.347
 3693POPC   C2B49844   6.784  27.371   6.822
 3693POPC   C3B49845   7.066  27.443   7.195
 3693POPC   C4B49846   7.085  27.362   7.664
 3694POPC   NC349847  39.113  26.356   5.545
 3694POPC   PO449848  38.893  25.728   5.369
 3694POPC   GL149849  39.040  25.890   5.775
 3694POPC   GL249850  39.405  25.908   5.888
 3694POPC   C1A49851  38.992  26.036   6.195
 3694POPC   D2A49852  39.110  25.824   6.561
 3694POPC   C3A49853  39.022  25.963   6.942
 3694POPC   C4A49854  39.261  25.901   7.293
 3694POPC   C1B49855  39.486  26.117   6.320
 3694POPC   C2B49856  39.662  26.192   6.740
 3694POPC   C3B49857  39.716  26.091   7.198
 3694POPC   C4B49858  39.480  26.281   7.586
 3695POPC   NC349859  18.650  44.939   5.343
 3695POPC   PO449860  19.291  44.762   5.483
 3695POPC   GL149861  18.967  44.633   5.744
 3695POPC   GL249862  19.232  44.581   6.020
 3695POPC   C1A49863  18.730  44.695   6.114
 3695POPC   D2A49864  19.021  44.834   6.409
 3695POPC   C3A49865  18.997  44.789   6.831
 3695POPC   C4A49866  18.907  44.657   7.214
 3695POPC   C1B49867  19.479  44.572   6.447
 3695POPC   C2B49868  19.481  44.304   6.839
 3695POPC   C3B49869  19.372  44.365   7.277
 3695POPC   C4B49870  19.562  44.415   7.693
 3696POPC   NC349871   1.773  42.805   5.351
 3696POPC   PO449872   1.968  43.460   5.493
 3696POPC   GL149873   1.952  43.064   5.786
 3696POPC   GL249874   1.639  42.821   5.830
 3696POPC   C1A49875   2.092  43.048   6.243
 3696POPC   D2A49876   2.317  43.092   6.663
 3696POPC   C3A49877   2.056  43.035   7.053
 3696POPC   C4A49878   2.116  43.201   7.483
 3696POPC   C1B49879   1.750  42.655   6.216
 3696POPC   C2B49880   1.872  42.777   6.635
 3696POPC   C3B49881   1.649  42.737   7.011
 3696POPC   C4B49882   1.689  42.933   7.417
 3697POPC   NC349883   3.620  12.584   5.384
 3697POPC   PO449884   3.764  13.230   5.182
 3697POPC   GL149885   3.788  13.238   5.669
 3697POPC   GL249886   3.450  13.205   5.712
 3697POPC   C1A49887   3.867  13.039   6.133
 3697POPC   D2A49888   3.933  12.790   6.563
 3697POPC   C3A49889   3.620  12.822   6.922
 3697POPC   C4A49890   3.306  12.668   7.249
 3697POPC   C1B49891   3.454  13.356   6.158
 3697POPC   C2B49892   3.533  13.223   6.584
 3697POPC   C3B49893   3.276  13.207   6.977
 3697POPC   C4B49894   3.313  13.341   7.384
 3698POPC   NC349895  38.220  31.409   5.517
 3698POPC   PO449896  38.850  31.258   5.389
 3698POPC   GL149897  38.641  31.422   5.781
 3698POPC   GL249898  38.790  31.724   5.804
 3698POPC   C1A49899  38.500  31.328   6.210
 3698POPC   D2A49900  38.787  31.425   6.540
 3698POPC   C3A49901  38.651  31.536   6.957
 3698POPC   C4A49902  38.342  31.429   7.197
 3698POPC   C1B49903  38.479  31.824   6.157
 3698POPC   C2B49904  38.325  31.691   6.559
 3698POPC   C3B49905  38.263  31.875   6.945
 3698POPC   C4B49906  38.347  31.952   7.371
 3699POPC   NC349907  31.748  20.025   5.398
 3699POPC   PO449908  31.141  19.861   5.596
 3699POPC   GL149909  31.277  19.646   5.911
 3699POPC   GL249910  31.624  19.792   5.861
 3699POPC   C1A49911  31.309  19.661   6.339
 3699POPC   D2A49912  31.640  19.734   6.619
 3699POPC   C3A49913  31.434  19.491   6.906
 3699POPC   C4A49914  31.156  19.661   7.182
 3699POPC   C1B49915  31.553  20.070   6.199
 3699POPC   C2B49916  31.594  20.274   6.609
 3699POPC   C3B49917  31.580  20.127   7.039
 3699POPC   C4B49918  31.282  20.119   7.404
 3700POPC   NC349919   3.540  38.352   5.411
 3700POPC   PO449920   3.109  38.791   5.537
 3700POPC   GL149921   3.389  38.782   5.882
 3700POPC   GL249922   3.744  38.923   5.803
 3700POPC   C1A49923   3.272  38.591   6.301
 3700POPC   D2A49924   3.127  38.339   6.663
 3700POPC   C3A49925   3.438  38.207   6.956
 3700POPC   C4A49926   3.342  38.277   7.370
 3700POPC   C1B49927   3.697  38.909   6.280
 3700POPC   C2B49928   3.465  38.961   6.683
 3700POPC   C3B49929   3.381  38.708   7.034
 3700POPC   C4B49930   3.755  38.550   7.267
 3701POPC   NC349931  24.777   1.859   5.312
 3701POPC   PO449932  24.924   2.420   5.531
 3701POPC   GL149933  24.703   2.142   5.776
 3701POPC   GL249934  24.573   2.372   6.030
 3701POPC   C1A49935  24.667   1.828   6.090
 3701POPC   D2A49936  24.808   1.779   6.544
 3701POPC   C3A49937  24.650   2.074   6.869
 3701POPC   C4A49938  24.523   2.260   7.274
 3701POPC   C1B49939  24.418   2.146   6.414
 3701POPC   C2B49940  24.140   2.041   6.791
 3701POPC   C3B49941  24.042   2.039   7.247
 3701POPC   C4B49942  24.139   2.277   7.637
 3702POPC   NC349943  21.832  41.613   5.562
 3702POPC   PO449944  22.479  41.828   5.471
 3702POPC   GL149945  22.272  41.605   5.803
 3702POPC   GL249946  22.373  41.860   6.024
 3702POPC   C1A49947  21.967  41.543   6.162
 3702POPC   D2A49948  21.831  41.674   6.527
 3702POPC   C3A49949  21.921  41.412   6.840
 3702POPC   C4A49950  21.882  41.535   7.247
 3702POPC   C1B49951  22.455  41.468   6.264
 3702POPC   C2B49952  22.442  41.281   6.665
 3702POPC   C3B49953  22.398  41.465   7.051
 3702POPC   C4B49954  22.578  41.837   7.151
 3703POPC   NC349955   8.474  34.927   5.386
 3703POPC   PO449956   8.309  34.295   5.294
 3703POPC   GL149957   8.185  34.510   5.705
 3703POPC   GL249958   8.026  34.864   5.753
 3703POPC   C1A49959   8.224  34.449   6.156
 3703POPC   D2A49960   8.166  34.560   6.585
 3703POPC   C3A49961   8.414  34.311   6.908
 3703POPC   C4A49962   8.302  34.278   7.350
 3703POPC   C1B49963   8.396  34.909   6.035
 3703POPC   C2B49964   8.457  34.980   6.491
 3703POPC   C3B49965   8.487  34.799   6.902
 3703POPC   C4B49966   8.644  34.842   7.290
 3704POPC   NC349967  13.869  26.425   5.317
 3704POPC   PO449968  13.515  27.047   5.471
 3704POPC   GL149969  13.603  27.045   5.935
 3704POPC   GL249970  13.943  27.088   5.996
 3704POPC   C1A49971  13.715  26.779   6.327
 3704POPC   D2A49972  13.705  26.493   6.704
 3704POPC   C3A49973  13.752  26.727   7.081
 3704POPC   C4A49974  14.138  26.865   7.207
 3704POPC   C1B49975  13.789  27.322   6.338
 3704POPC   C2B49976  13.444  27.166   6.595
 3704POPC   C3B49977  13.362  27.293   7.000
 3704POPC   C4B49978  13.715  27.250   7.203
 3705POPC   NC349979  14.893  35.635   5.564
 3705POPC   PO449980  15.169  35.053   5.459
 3705POPC   GL149981  15.259  35.228   5.847
 3705POPC   GL249982  15.403  35.530   5.744
 3705POPC   C1A49983  15.252  35.129   6.285
 3705POPC   D2A49984  15.096  35.226   6.670
 3705POPC   C3A49985  15.368  35.343   6.984
 3705POPC   C4A49986  15.340  35.134   7.380
 3705POPC   C1B49987  15.260  35.637   6.169
 3705POPC   C2B49988  15.222  35.721   6.597
 3705POPC   C3B49989  15.092  35.780   6.995
 3705POPC   C4B49990  15.296  35.692   7.352
 3706POPC   NC349991  33.445  28.202   5.271
 3706POPC   PO449992  33.653  28.692   5.386
 3706POPC   GL149993  33.725  28.523   5.810
 3706POPC   GL249994  33.616  28.169   5.843
 3706POPC   C1A49995  33.802  28.419   6.258
 3706POPC   D2A49996  33.684  28.371   6.662
 3706POPC   C3A49997  33.951  28.434   7.011
 3706POPC   C4A49998  34.174  28.567   7.388
 3706POPC   C1B49999  33.435  28.047   6.269
 3706POPC   C2B50000  33.546  27.872   6.678
 3706POPC   C3B50001  33.532  28.104   7.070
 3706POPC   C4B50002  33.444  28.557   7.086
 3707POPC   NC350003  38.723   7.530   5.332
 3707POPC   PO450004  38.365   6.967   5.462
 3707POPC   GL150005  38.450   7.250   5.787
 3707POPC   GL250006  38.670   7.550   5.848
 3707POPC   C1A50007  38.286   7.415   6.193
 3707POPC   D2A50008  38.328   7.684   6.556
 3707POPC   C3A50009  38.191   7.474   6.914
 3707POPC   C4A50010  37.954   7.632   7.239
 3707POPC   C1B50011  38.764   7.211   6.179
 3707POPC   C2B50012  38.607   7.221   6.618
 3707POPC   C3B50013  38.694   7.515   6.963
 3707POPC   C4B50014  38.618   7.665   7.376
 3708POPC   NC350015   2.677  36.378   5.556
 3708POPC   PO450016   2.837  35.728   5.345
 3708POPC   GL150017   2.838  35.937   5.808
 3708POPC   GL250018   2.493  36.006   5.938
 3708POPC   C1A50019   2.830  36.249   6.200
 3708POPC   D2A50020   3.017  36.402   6.589
 3708POPC   C3A50021   2.958  36.150   6.979
 3708POPC   C4A50022   2.838  36.188   7.420
 3708POPC   C1B50023   2.471  35.781   6.270
 3708POPC   C2B50024   2.637  35.969   6.604
 3708POPC   C3B50025   2.359  35.877   6.903
 3708POPC   C4B50026   2.474  35.885   7.277
 3709POPC   NC350027  29.813  10.394   5.324
 3709POPC   PO450028  30.184  10.956   5.409
 3709POPC   GL150029  29.948  10.702   5.741
 3709POPC   GL250030  29.583  10.722   5.731
 3709POPC   C1A50031  29.975  10.548   6.186
 3709POPC   D2A50032  29.828  10.602   6.619
 3709POPC   C3A50033  30.064  10.545   7.023
 3709POPC   C4A50034  30.156  10.347   7.435
 3709POPC   C1B50035  29.467  10.473   6.111
 3709POPC   C2B50036  29.401  10.306   6.530
 3709POPC   C3B50037  29.428  10.530   6.921
 3709POPC   C4B50038  29.624  10.536   7.329
 3710POPC   NC350039   3.892  37.636   5.284
 3710POPC   PO450040   3.294  37.947   5.312
 3710POPC   GL150041   3.473  37.647   5.644
 3710POPC   GL250042   3.814  37.766   5.780
 3710POPC   C1A50043   3.472  37.613   6.129
 3710POPC   D2A50044   3.407  37.892   6.489
 3710POPC   C3A50045   3.383  37.706   6.886
 3710POPC   C4A50046   3.382  37.786   7.294
 3710POPC   C1B50047   3.890  37.918   6.225
 3710POPC   C2B50048   3.894  37.729   6.646
 3710POPC   C3B50049   3.838  37.871   7.104
 3710POPC   C4B50050   3.776  37.709   7.579
 3711POPC   NC350051  39.225  34.229   5.485
 3711POPC   PO450052  39.023  33.577   5.609
 3711POPC   GL150053  38.997  33.903   5.846
 3711POPC   GL250054  39.351  33.927   5.894
 3711POPC   C1A50055  38.989  33.794   6.264
 3711POPC   D2A50056  39.234  33.939   6.608
 3711POPC   C3A50057  39.032  33.760   6.919
 3711POPC   C4A50058  39.071  33.746   7.328
 3711POPC   C1B50059  39.617  34.042   6.254
 3711POPC   C2B50060  39.706  34.143   6.713
 3711POPC   C3B50061  39.412  34.191   7.069
 3711POPC   C4B50062  39.430  34.083   7.532
 3712POPC   NC350063  28.315  35.174   5.399
 3712POPC   PO450064  28.130  35.822   5.343
 3712POPC   GL150065  28.231  35.572   5.753
 3712POPC   GL250066  28.553  35.378   5.809
 3712POPC   C1A50067  28.347  35.567   6.232
 3712POPC   D2A50068  28.549  35.778   6.628
 3712POPC   C3A50069  28.463  35.516   7.007
 3712POPC   C4A50070  28.067  35.399   7.179
 3712POPC   C1B50071  28.656  35.062   6.153
 3712POPC   C2B50072  28.542  34.810   6.539
 3712POPC   C3B50073  28.396  34.965   6.963
 3712POPC   C4B50074  28.590  35.133   7.338
 3713POPC   NC350075   7.722  41.763   5.349
 3713POPC   PO450076   7.334  41.231   5.498
 3713POPC   GL150077   7.312  41.430   5.878
 3713POPC   GL250078   7.408  41.736   5.792
 3713POPC   C1A50079   7.138  41.372   6.267
 3713POPC   D2A50080   6.960  41.348   6.661
 3713POPC   C3A50081   7.083  41.751   6.798
 3713POPC   C4A50082   7.367  41.609   7.082
 3713POPC   C1B50083   7.314  41.855   6.231
 3713POPC   C2B50084   7.605  41.944   6.587
 3713POPC   C3B50085   7.783  41.896   7.008
 3713POPC   C4B50086   7.550  41.949   7.394
 3714POPC   NC350087  37.484  27.995   5.400
 3714POPC   PO450088  37.797  28.653   5.381
 3714POPC   GL150089  37.680  28.395   5.745
 3714POPC   GL250090  37.900  28.117   5.775
 3714POPC   C1A50091  37.855  28.436   6.191
 3714POPC   D2A50092  37.874  28.263   6.602
 3714POPC   C3A50093  37.742  28.497   6.959
 3714POPC   C4A50094  37.755  28.444   7.394
 3714POPC   C1B50095  37.617  27.975   6.134
 3714POPC   C2B50096  37.486  27.930   6.570
 3714POPC   C3B50097  37.718  27.975   6.996
 3714POPC   C4B50098  37.512  28.003   7.389
 3715POPC   NC350099  44.938  34.697   5.560
 3715POPC   PO450100   0.572  34.552   5.351
 3715POPC   GL150101   0.565  34.664   5.781
 3715POPC   GL250102   0.346  34.924   5.822
 3715POPC   C1A50103   0.464  34.542   6.188
 3715POPC   D2A50104   0.570  34.260   6.537
 3715POPC   C3A50105   0.462  34.414   6.958
 3715POPC   C4A50106   0.085  34.355   7.201
 3715POPC   C1B50107   0.438  35.087   6.212
 3715POPC   C2B50108   0.627  34.893   6.556
 3715POPC   C3B50109   0.441  34.960   6.931
 3715POPC   C4B50110   0.488  34.800   7.324
 3716POPC   NC350111  37.675  18.407   5.272
 3716POPC   PO450112  37.101  17.952   5.292
 3716POPC   GL150113  37.244  18.027   5.753
 3716POPC   GL250114  37.613  18.170   5.775
 3716POPC   C1A50115  37.307  18.190   6.192
 3716POPC   D2A50116  37.554  18.272   6.583
 3716POPC   C3A50117  37.590  18.487   6.973
 3716POPC   C4A50118  37.349  18.390   7.359
 3716POPC   C1B50119  37.862  18.362   6.171
 3716POPC   C2B50120  38.022  18.464   6.639
 3716POPC   C3B50121  38.015  18.214   7.046
 3716POPC   C4B50122  37.816  18.217   7.470
 3717POPC   NC350123  27.453  22.674   5.546
 3717POPC   PO450124  27.696  23.197   5.147
 3717POPC   GL150125  27.731  23.106   5.653
 3717POPC   GL250126  27.460  22.992   5.929
 3717POPC   C1A50127  27.867  23.201   6.117
 3717POPC   D2A50128  27.537  23.227   6.451
 3717POPC   C3A50129  27.628  23.237   6.929
 3717POPC   C4A50130  27.835  23.061   7.336
 3717POPC   C1B50131  27.466  22.739   6.304
 3717POPC   C2B50132  27.362  22.840   6.736
 3717POPC   C3B50133  27.467  22.737   7.175
 3717POPC   C4B50134  27.534  22.574   7.616
 3718POPC   NC350135  36.494  40.313   5.429
 3718POPC   PO450136  35.822  40.032   5.333
 3718POPC   GL150137  36.034  39.926   5.756
 3718POPC   GL250138  36.260  40.195   5.866
 3718POPC   C1A50139  36.174  39.776   6.197
 3718POPC   D2A50140  36.328  39.934   6.602
 3718POPC   C3A50141  36.222  39.823   7.039
 3718POPC   C4A50142  35.942  40.050   7.302
 3718POPC   C1B50143  36.411  40.541   6.124
 3718POPC   C2B50144  36.240  40.578   6.533
 3718POPC   C3B50145  36.177  40.338   6.906
 3718POPC   C4B50146  36.362  40.313   7.311
 3719POPC   NC350147  42.990   6.943   5.291
 3719POPC   PO450148  43.403   6.476   5.204
 3719POPC   GL150149  43.306   6.632   5.636
 3719POPC   GL250150  42.942   6.649   5.745
 3719POPC   C1A50151  43.325   6.441   6.064
 3719POPC   D2A50152  43.152   6.438   6.509
 3719POPC   C3A50153  43.265   6.686   6.899
 3719POPC   C4A50154  43.285   6.402   7.289
 3719POPC   C1B50155  42.766   6.489   6.146
 3719POPC   C2B50156  42.632   6.419   6.580
 3719POPC   C3B50157  42.874   6.372   6.960
 3719POPC   C4B50158  42.902   6.716   7.274
 3720POPC   NC350159  27.953  15.152   5.490
 3720POPC   PO450160  27.373  15.245   5.160
 3720POPC   GL150161  27.474  15.142   5.670
 3720POPC   GL250162  27.756  15.174   5.947
 3720POPC   C1A50163  27.325  14.933   6.077
 3720POPC   D2A50164  27.316  14.873   6.540
 3720POPC   C3A50165  27.487  15.122   6.891
 3720POPC   C4A50166  27.532  15.129   7.346
 3720POPC   C1B50167  28.027  14.913   6.229
 3720POPC   C2B50168  28.073  14.803   6.684
 3720POPC   C3B50169  27.970  15.078   7.047
 3720POPC   C4B50170  27.770  15.529   7.121
 3721POPC   NC350171  36.928   6.210   5.493
 3721POPC   PO450172  36.600   5.666   5.427
 3721POPC   GL150173  36.716   5.877   5.833
 3721POPC   GL250174  37.093   5.878   5.859
 3721POPC   C1A50175  36.814   6.169   6.202
 3721POPC   D2A50176  36.689   6.232   6.660
 3721POPC   C3A50177  36.982   6.092   7.003
 3721POPC   C4A50178  36.837   5.717   7.251
 3721POPC   C1B50179  37.400   5.693   6.170
 3721POPC   C2B50180  37.513   5.674   6.628
 3721POPC   C3B50181  37.295   5.661   7.036
 3721POPC   C4B50182  37.335   5.809   7.467
 3722POPC   NC350183   6.440   6.565   5.396
 3722POPC   PO450184   7.043   6.375   5.298
 3722POPC   GL150185   6.776   6.370   5.723
 3722POPC   GL250186   6.560   6.699   5.867
 3722POPC   C1A50187   6.878   6.445   6.155
 3722POPC   D2A50188   6.874   6.718   6.527
 3722POPC   C3A50189   6.943   6.640   6.981
 3722POPC   C4A50190   6.973   6.971   7.320
 3722POPC   C1B50191   6.409   6.586   6.310
 3722POPC   C2B50192   6.432   6.621   6.772
 3722POPC   C3B50193   6.486   6.763   7.200
 3722POPC   C4B50194   6.277   6.638   7.625
 3723POPC   NC350195  38.867  26.931   5.364
 3723POPC   PO450196  38.205  27.094   5.423
 3723POPC   GL150197  38.274  27.010   5.848
 3723POPC   GL250198  38.412  26.690   5.844
 3723POPC   C1A50199  38.416  26.924   6.280
 3723POPC   D2A50200  38.651  26.713   6.574
 3723POPC   C3A50201  38.517  26.841   6.936
 3723POPC   C4A50202  38.668  26.906   7.334
 3723POPC   C1B50203  38.525  26.394   6.187
 3723POPC   C2B50204  38.673  26.193   6.576
 3723POPC   C3B50205  38.661  26.343   7.003
 3723POPC   C4B50206  38.338  26.515   7.283
 3724POPC   NC350207  30.834  11.452   5.024
 3724POPC   PO450208  30.187  11.492   5.046
 3724POPC   GL150209  30.349  11.408   5.554
 3724POPC   GL250210  30.699  11.367   5.668
 3724POPC   C1A50211  30.395  11.307   6.054
 3724POPC   D2A50212  30.738  11.405   6.396
 3724POPC   C3A50213  30.643  11.291   6.834
 3724POPC   C4A50214  30.429  11.325   7.248
 3724POPC   C1B50215  30.953  11.127   6.037
 3724POPC   C2B50216  31.076  10.974   6.523
 3724POPC   C3B50217  31.010  10.969   7.018
 3724POPC   C4B50218  30.948  11.366   7.262
 3725POPC   NC350219  26.987  12.379   5.407
 3725POPC   PO450220  26.505  11.883   5.277
 3725POPC   GL150221  26.666  12.074   5.664
 3725POPC   GL250222  27.028  12.058   5.797
 3725POPC   C1A50223  26.656  12.135   6.122
 3725POPC   D2A50224  26.992  12.193   6.423
 3725POPC   C3A50225  26.851  12.341   6.828
 3725POPC   C4A50226  26.624  12.097   7.125
 3725POPC   C1B50227  27.139  11.726   6.091
 3725POPC   C2B50228  27.254  11.780   6.522
 3725POPC   C3B50229  26.993  11.844   6.861
 3725POPC   C4B50230  27.159  11.913   7.258
 3726POPC   NC350231  32.466  41.772   5.429
 3726POPC   PO450232  32.092  41.241   5.571
 3726POPC   GL150233  32.154  41.429   5.977
 3726POPC   GL250234  32.293  41.747   5.913
 3726POPC   C1A50235  31.999  41.693   6.338
 3726POPC   D2A50236  32.086  41.773   6.778
 3726POPC   C3A50237  32.243  41.374   6.983
 3726POPC   C4A50238  32.196  41.396   7.386
 3726POPC   C1B50239  32.531  41.771   6.304
 3726POPC   C2B50240  32.584  41.637   6.723
 3726POPC   C3B50241  32.586  41.736   7.157
 3726POPC   C4B50242  32.832  42.086   7.160
 3727POPC   NC350243  29.867  11.243   5.244
 3727POPC   PO450244  29.649  11.836   5.463
 3727POPC   GL150245  29.908  11.596   5.752
 3727POPC   GL250246  29.891  11.223   5.753
 3727POPC   C1A50247  29.951  11.539   6.199
 3727POPC   D2A50248  30.263  11.547   6.517
 3727POPC   C3A50249  30.113  11.434   6.877
 3727POPC   C4A50250  29.910  11.440   7.240
 3727POPC   C1B50251  29.784  11.026   6.133
 3727POPC   C2B50252  29.937  11.095   6.547
 3727POPC   C3B50253  29.790  10.994   6.986
 3727POPC   C4B50254  29.612  11.055   7.410
 3728POPC   NC350255  19.422  10.082   5.565
 3728POPC   PO450256  18.976   9.882   5.094
 3728POPC   GL150257  19.084   9.643   5.595
 3728POPC   GL250258  18.778   9.565   5.814
 3728POPC   C1A50259  19.146   9.753   6.102
 3728POPC   D2A50260  19.038   9.682   6.551
 3728POPC   C3A50261  18.887   9.985   6.853
 3728POPC   C4A50262  18.915  10.011   7.298
 3728POPC   C1B50263  18.840   9.334   6.224
 3728POPC   C2B50264  18.730   9.199   6.659
 3728POPC   C3B50265  18.846   9.476   6.985
 3728POPC   C4B50266  19.249   9.686   7.098
 3729POPC   NC350267  38.192  38.482   5.413
 3729POPC   PO450268  38.304  37.889   5.627
 3729POPC   GL150269  38.329  38.323   5.884
 3729POPC   GL250270  38.437  38.693   5.811
 3729POPC   C1A50271  38.239  38.559   6.272
 3729POPC   D2A50272  38.227  38.811   6.673
 3729POPC   C3A50273  38.142  38.560   7.046
 3729POPC   C4A50274  38.394  38.343   7.349
 3729POPC   C1B50275  38.741  38.566   6.165
 3729POPC   C2B50276  38.746  38.437   6.627
 3729POPC   C3B50277  38.717  38.628   7.070
 3729POPC   C4B50278  38.644  38.770   7.537
 3730POPC   NC350279  23.267  20.426   5.667
 3730POPC   PO450280  23.116  21.053   5.476
 3730POPC   GL150281  22.902  20.983   5.872
 3730POPC   GL250282  22.878  20.658   5.958
 3730POPC   C1A50283  22.804  21.073   6.324
 3730POPC   D2A50284  23.042  21.058   6.748
 3730POPC   C3A50285  22.829  20.914   7.152
 3730POPC   C4A50286  22.830  20.466   7.309
 3730POPC   C1B50287  23.129  20.686   6.344
 3730POPC   C2B50288  23.077  20.554   6.797
 3730POPC   C3B50289  23.281  20.680   7.182
 3730POPC   C4B50290  23.604  20.801   7.458
 3731POPC   NC350291   6.015   7.891   5.283
 3731POPC   PO450292   5.655   8.445   5.137
 3731POPC   GL150293   5.680   8.253   5.601
 3731POPC   GL250294   6.037   8.122   5.739
 3731POPC   C1A50295   5.678   8.277   6.091
 3731POPC   D2A50296   5.961   8.293   6.481
 3731POPC   C3A50297   5.766   8.421   6.878
 3731POPC   C4A50298   5.373   8.348   7.087
 3731POPC   C1B50299   6.006   7.881   6.143
 3731POPC   C2B50300   6.117   7.794   6.588
 3731POPC   C3B50301   6.226   7.795   6.987
 3731POPC   C4B50302   5.968   8.084   7.207
 3732POPC   NC350303  13.294  43.249   5.305
 3732POPC   PO450304  13.906  42.873   5.482
 3732POPC   GL150305  13.655  43.106   5.759
 3732POPC   GL250306  13.618  42.817   5.918
 3732POPC   C1A50307  13.747  43.211   6.220
 3732POPC   D2A50308  13.917  43.033   6.618
 3732POPC   C3A50309  13.604  43.052   6.926
 3732POPC   C4A50310  13.564  43.426   7.108
 3732POPC   C1B50311  13.937  42.702   6.220
 3732POPC   C2B50312  13.968  42.509   6.652
 3732POPC   C3B50313  13.986  42.750   7.075
 3732POPC   C4B50314  13.996  43.150   7.327
 3733POPC   NC350315  38.624  30.816   5.312
 3733POPC   PO450316  38.252  30.278   5.332
 3733POPC   GL150317  38.375  30.580   5.689
 3733POPC   GL250318  38.404  30.956   5.745
 3733POPC   C1A50319  38.346  30.568   6.145
 3733POPC   D2A50320  38.118  30.611   6.530
 3733POPC   C3A50321  38.330  30.577   6.927
 3733POPC   C4A50322  38.609  30.497   7.264
 3733POPC   C1B50323  38.709  30.912   6.025
 3733POPC   C2B50324  38.670  30.893   6.487
 3733POPC   C3B50325  38.533  31.044   6.897
 3733POPC   C4B50326  38.280  30.943   7.287
 3734POPC   NC350327  34.011  35.933   5.530
 3734POPC   PO450328  33.653  36.495   5.531
 3734POPC   GL150329  33.875  36.306   5.873
 3734POPC   GL250330  33.728  35.995   5.937
 3734POPC   C1A50331  34.120  36.169   6.239
 3734POPC   D2A50332  34.083  36.186   6.671
 3734POPC   C3A50333  33.969  36.068   7.073
 3734POPC   C4A50334  33.703  36.405   7.247
 3734POPC   C1B50335  33.614  36.166   6.355
 3734POPC   C2B50336  33.362  36.101   6.759
 3734POPC   C3B50337  33.483  35.947   7.161
 3734POPC   C4B50338  33.501  36.066   7.627
 3735POPC   NC350339  25.615  13.732   5.539
 3735POPC   PO450340  26.185  13.538   5.241
 3735POPC   GL150341  26.049  13.501   5.709
 3735POPC   GL250342  26.030  13.790   5.874
 3735POPC   C1A50343  26.074  13.398   6.180
 3735POPC   D2A50344  26.108  13.685   6.535
 3735POPC   C3A50345  26.120  13.579   6.915
 3735POPC   C4A50346  25.870  13.360   7.188
 3735POPC   C1B50347  25.744  13.825   6.220
 3735POPC   C2B50348  25.607  13.749   6.681
 3735POPC   C3B50349  25.726  13.859   7.111
 3735POPC   C4B50350  25.722  13.740   7.574
 3736POPC   NC350351  33.538  13.299   5.453
 3736POPC   PO450352  33.919  13.835   5.163
 3736POPC   GL150353  33.995  13.829   5.681
 3736POPC   GL250354  33.876  13.488   5.836
 3736POPC   C1A50355  34.057  13.845   6.149
 3736POPC   D2A50356  34.006  13.499   6.472
 3736POPC   C3A50357  33.840  13.502   6.914
 3736POPC   C4A50358  33.898  13.817   7.226
 3736POPC   C1B50359  33.574  13.640   6.195
 3736POPC   C2B50360  33.422  13.636   6.591
 3736POPC   C3B50361  33.362  13.721   7.004
 3736POPC   C4B50362  33.499  13.540   7.363
 3737POPC   NC350363  20.046  14.778   5.072
 3737POPC   PO450364  19.700  15.110   5.554
 3737POPC   GL150365  19.753  15.256   5.947
 3737POPC   GL250366  20.073  15.355   5.887
 3737POPC   C1A50367  19.763  15.274   6.377
 3737POPC   D2A50368  19.697  15.018   6.692
 3737POPC   C3A50369  19.772  15.226   7.053
 3737POPC   C4A50370  19.630  15.608   7.197
 3737POPC   C1B50371  20.223  15.133   6.261
 3737POPC   C2B50372  20.181  15.142   6.719
 3737POPC   C3B50373  20.252  15.136   7.149
 3737POPC   C4B50374  20.354  15.446   7.448
 3738POPC   NC350375  22.979  28.740   5.461
 3738POPC   PO450376  22.777  29.281   5.234
 3738POPC   GL150377  22.860  29.288   5.711
 3738POPC   GL250378  22.976  28.977   5.908
 3738POPC   C1A50379  22.889  29.406   6.165
 3738POPC   D2A50380  23.054  29.268   6.576
 3738POPC   C3A50381  22.947  29.482   6.986
 3738POPC   C4A50382  23.035  29.322   7.434
 3738POPC   C1B50383  22.696  28.965   6.294
 3738POPC   C2B50384  22.563  29.174   6.690
 3738POPC   C3B50385  22.664  29.071   7.135
 3738POPC   C4B50386  22.789  28.853   7.512
 3739POPC   NC350387  15.932   9.889   5.318
 3739POPC   PO450388  16.263   9.370   5.417
 3739POPC   GL150389  15.989   9.565   5.714
 3739POPC   GL250390  16.190   9.898   5.784
 3739POPC   C1A50391  15.922   9.642   6.143
 3739POPC   D2A50392  16.172   9.569   6.482
 3739POPC   C3A50393  16.032   9.528   6.884
 3739POPC   C4A50394  16.093   9.796   7.238
 3739POPC   C1B50395  16.228  10.040   6.263
 3739POPC   C2B50396  16.069  10.037   6.724
 3739POPC   C3B50397  15.780  10.163   7.090
 3739POPC   C4B50398  15.842  10.216   7.561
 3740POPC   NC350399  41.905  34.147   5.084
 3740POPC   PO450400  41.393  33.924   5.390
 3740POPC   GL150401  41.583  33.869   5.766
 3740POPC   GL250402  41.688  34.215   5.769
 3740POPC   C1A50403  41.681  33.518   6.048
 3740POPC   D2A50404  41.765  33.650   6.445
 3740POPC   C3A50405  41.528  33.612   6.809
 3740POPC   C4A50406  41.675  33.687   7.206
 3740POPC   C1B50407  41.532  34.129   6.194
 3740POPC   C2B50408  41.391  34.071   6.609
 3740POPC   C3B50409  41.550  34.178   7.022
 3740POPC   C4B50410  41.732  34.374   7.383
 3741POPC   NC350411  35.952  33.429   5.473
 3741POPC   PO450412  36.510  33.937   5.408
 3741POPC   GL150413  36.236  33.919   5.824
 3741POPC   GL250414  36.154  33.596   5.914
 3741POPC   C1A50415  36.086  34.042   6.232
 3741POPC   D2A50416  36.193  33.672   6.512
 3741POPC   C3A50417  36.176  33.795   6.922
 3741POPC   C4A50418  36.277  33.761   7.343
 3741POPC   C1B50419  35.799  33.643   6.189
 3741POPC   C2B50420  35.695  33.774   6.627
 3741POPC   C3B50421  35.712  33.664   7.099
 3741POPC   C4B50422  35.821  33.941   7.449
 3742POPC   NC350423  34.171  13.472   5.380
 3742POPC   PO450424  33.744  12.884   5.359
 3742POPC   GL150425  33.724  12.968   5.801
 3742POPC   GL250426  33.380  13.011   5.891
 3742POPC   C1A50427  33.723  13.162   6.217
 3742POPC   D2A50428  33.589  13.131   6.641
 3742POPC   C3A50429  33.941  12.910   6.835
 3742POPC   C4A50430  34.111  12.625   7.133
 3742POPC   C1B50431  33.524  12.694   6.234
 3742POPC   C2B50432  33.510  12.612   6.672
 3742POPC   C3B50433  33.540  12.672   7.077
 3742POPC   C4B50434  33.654  13.050   7.240
 3743POPC   NC350435   2.702  20.980   5.124
 3743POPC   PO450436   2.993  21.310   5.608
 3743POPC   GL150437   2.658  21.266   5.862
 3743POPC   GL250438   2.675  21.546   6.016
 3743POPC   C1A50439   2.550  21.079   6.247
 3743POPC   D2A50440   2.679  21.048   6.705
 3743POPC   C3A50441   2.792  21.383   7.012
 3743POPC   C4A50442   3.103  21.708   7.070
 3743POPC   C1B50443   2.792  21.479   6.423
 3743POPC   C2B50444   2.424  21.487   6.663
 3743POPC   C3B50445   2.360  21.679   7.041
 3743POPC   C4B50446   2.504  21.656   7.469
 3744POPC   NC350447  19.154  33.572   5.478
 3744POPC   PO450448  18.927  34.185   5.436
 3744POPC   GL150449  18.821  33.899   5.768
 3744POPC   GL250450  18.667  33.561   5.694
 3744POPC   C1A50451  19.029  33.787   6.190
 3744POPC   D2A50452  19.256  33.802   6.602
 3744POPC   C3A50453  19.101  33.920   7.037
 3744POPC   C4A50454  19.361  33.848   7.413
 3744POPC   C1B50455  18.533  33.676   6.130
 3744POPC   C2B50456  18.601  33.502   6.554
 3744POPC   C3B50457  18.820  33.508   6.964
 3744POPC   C4B50458  18.895  33.661   7.434
 3745POPC   NC350459  25.946  38.284   5.687
 3745POPC   PO450460  26.203  37.777   5.883
 3745POPC   GL150461  26.300  38.212   6.067
 3745POPC   GL250462  26.258  38.591   5.957
 3745POPC   C1A50463  26.178  38.464   6.437
 3745POPC   D2A50464  25.887  38.707   6.701
 3745POPC   C3A50465  26.069  38.708   7.111
 3745POPC   C4A50466  26.229  38.316   7.287
 3745POPC   C1B50467  25.994  38.896   6.218
 3745POPC   C2B50468  25.833  39.202   6.549
 3745POPC   C3B50469  25.786  39.164   7.010
 3745POPC   C4B50470  25.560  38.901   7.334
 3746POPC   NC350471  33.268  37.976   5.549
 3746POPC   PO450472  32.837  37.871   5.049
 3746POPC   GL150473  32.912  37.595   5.525
 3746POPC   GL250474  33.138  37.336   5.765
 3746POPC   C1A50475  32.929  37.694   6.015
 3746POPC   D2A50476  32.972  37.649   6.452
 3746POPC   C3A50477  33.123  37.860   6.817
 3746POPC   C4A50478  33.040  37.751   7.241
 3746POPC   C1B50479  33.372  37.419   6.192
 3746POPC   C2B50480  33.516  37.571   6.620
 3746POPC   C3B50481  33.465  37.453   7.094
 3746POPC   C4B50482  33.551  37.415   7.580
 3747POPC   NC350483   1.074  15.600   5.599
 3747POPC   PO450484   1.158  16.266   5.408
 3747POPC   GL150485   0.970  16.082   5.768
 3747POPC   GL250486   1.334  15.994   5.838
 3747POPC   C1A50487   1.018  15.983   6.227
 3747POPC   D2A50488   1.233  16.077   6.631
 3747POPC   C3A50489   1.008  15.920   7.013
 3747POPC   C4A50490   1.083  15.541   7.269
 3747POPC   C1B50491   1.503  15.805   6.257
 3747POPC   C2B50492   1.589  15.739   6.731
 3747POPC   C3B50493   1.492  16.001   7.115
 3747POPC   C4B50494   1.530  16.323   7.419
 3748POPC   NC350495  27.804  32.797   5.234
 3748POPC   PO450496  27.866  32.129   5.429
 3748POPC   GL150497  27.718  32.185   5.890
 3748POPC   GL250498  27.995  32.052   5.958
 3748POPC   C1A50499  27.554  32.432   6.285
 3748POPC   D2A50500  27.445  32.251   6.711
 3748POPC   C3A50501  27.481  32.459   7.138
 3748POPC   C4A50502  27.256  32.427   7.536
 3748POPC   C1B50503  27.810  31.992   6.374
 3748POPC   C2B50504  27.907  32.049   6.789
 3748POPC   C3B50505  27.712  32.003   7.158
 3748POPC   C4B50506  27.784  32.239   7.525
 3749POPC   NC350507  40.196  30.777   5.400
 3749POPC   PO450508  39.585  30.596   5.533
 3749POPC   GL150509  39.950  30.617   5.835
 3749POPC   GL250510  40.244  30.868   5.884
 3749POPC   C1A50511  40.170  30.493   6.213
 3749POPC   D2A50512  39.984  30.597   6.583
 3749POPC   C3A50513  40.164  30.441   6.912
 3749POPC   C4A50514  40.006  30.369   7.320
 3749POPC   C1B50515  39.995  30.982   6.220
 3749POPC   C2B50516  39.981  31.195   6.578
 3749POPC   C3B50517  39.897  31.059   6.991
 3749POPC   C4B50518  40.190  30.841   7.217
 3750POPC   NC350519  32.110   0.653   5.405
 3750POPC   PO450520  32.664   0.243   5.467
 3750POPC   GL150521  32.384   0.395   5.784
 3750POPC   GL250522  32.465   0.730   5.823
 3750POPC   C1A50523  32.086   0.286   6.127
 3750POPC   D2A50524  31.946   0.130   6.528
 3750POPC   C3A50525  32.188   0.150   6.877
 3750POPC   C4A50526  32.176   0.299   7.260
 3750POPC   C1B50527  32.409   0.668   6.279
 3750POPC   C2B50528  32.376   0.611   6.738
 3750POPC   C3B50529  32.267   0.762   7.130
 3750POPC   C4B50530  32.503   0.634   7.517
 3751POPC   NC350531   8.263   2.372   5.414
 3751POPC   PO450532   8.743   2.739   5.352
 3751POPC   GL150533   8.459   2.636   5.791
 3751POPC   GL250534   8.057   2.590   5.812
 3751POPC   C1A50535   8.310   2.649   6.257
 3751POPC   D2A50536   8.289   2.948   6.594
 3751POPC   C3A50537   8.581   2.775   6.889
 3751POPC   C4A50538   8.511   2.668   7.294
 3751POPC   C1B50539   7.874   2.334   6.127
 3751POPC   C2B50540   7.868   2.431   6.544
 3751POPC   C3B50541   8.144   2.512   6.850
 3751POPC   C4B50542   8.117   2.344   7.215
 3752POPC   NC350543   9.438  11.710   5.590
 3752POPC   PO450544   9.972  11.959   5.215
 3752POPC   GL150545   9.900  11.972   5.706
 3752POPC   GL250546   9.584  12.097   5.854
 3752POPC   C1A50547   9.900  11.946   6.195
 3752POPC   D2A50548   9.735  12.088   6.588
 3752POPC   C3A50549   9.800  11.829   6.950
 3752POPC   C4A50550  10.046  11.785   7.311
 3752POPC   C1B50551   9.315  12.208   6.180
 3752POPC   C2B50552   9.333  12.394   6.553
 3752POPC   C3B50553   9.454  12.369   6.954
 3752POPC   C4B50554   9.676  12.171   7.284
 3753POPC   NC350555   2.546  44.654   5.595
 3753POPC   PO450556   3.257  44.460   5.537
 3753POPC   GL150557   3.000  44.647   5.846
 3753POPC   GL250558   2.829  44.358   5.965
 3753POPC   C1A50559   2.698  44.793   6.204
 3753POPC   D2A50560   2.441  44.734   6.574
 3753POPC   C3A50561   2.522  44.905   6.991
 3753POPC   C4A50562   2.901  44.902   7.285
 3753POPC   C1B50563   2.507  44.299   6.295
 3753POPC   C2B50564   2.579  44.132   6.676
 3753POPC   C3B50565   2.476  44.186   7.079
 3753POPC   C4B50566   2.566  44.520   7.326
 3754POPC   NC350567  42.289  26.906   5.460
 3754POPC   PO450568  42.565  26.289   5.505
 3754POPC   GL150569  42.346  26.519   5.779
 3754POPC   GL250570  42.005  26.571   5.833
 3754POPC   C1A50571  42.374  26.718   6.173
 3754POPC   D2A50572  42.287  26.591   6.575
 3754POPC   C3A50573  42.642  26.626   6.824
 3754POPC   C4A50574  42.430  26.661   7.197
 3754POPC   C1B50575  41.871  26.671   6.248
 3754POPC   C2B50576  41.980  27.022   6.528
 3754POPC   C3B50577  42.096  26.995   6.939
 3754POPC   C4B50578  41.908  26.768   7.251
 3755POPC   NC350579   2.551   0.454   5.552
 3755POPC   PO450580   2.877  44.847   5.361
 3755POPC   GL150581   2.905   0.146   5.730
 3755POPC   GL250582   3.010   0.557   5.742
 3755POPC   C1A50583   2.780   0.291   6.146
 3755POPC   D2A50584   2.554   0.229   6.520
 3755POPC   C3A50585   2.810   0.316   6.866
 3755POPC   C4A50586   2.773   0.391   7.293
 3755POPC   C1B50587   2.801   0.803   6.125
 3755POPC   C2B50588   2.579   0.892   6.546
 3755POPC   C3B50589   2.598   0.804   7.023
 3755POPC   C4B50590   2.716   0.867   7.494
 3756POPC   NC350591  36.120  29.624   5.695
 3756POPC   PO450592  36.611  30.036   5.395
 3756POPC   GL150593  36.403  30.113   5.789
 3756POPC   GL250594  36.040  30.161   5.750
 3756POPC   C1A50595  36.263  30.037   6.197
 3756POPC   D2A50596  36.314  30.058   6.593
 3756POPC   C3A50597  36.135  29.728   6.817
 3756POPC   C4A50598  36.025  29.750   7.239
 3756POPC   C1B50599  35.808  30.281   6.123
 3756POPC   C2B50600  35.792  30.101   6.546
 3756POPC   C3B50601  35.956  30.216   6.952
 3756POPC   C4B50602  35.732  30.177   7.317
 3757POPC   NC350603  30.915  39.215   5.456
 3757POPC   PO450604  30.297  39.239   5.361
 3757POPC   GL150605  30.544  39.011   5.713
 3757POPC   GL250606  30.608  39.333   5.895
 3757POPC   C1A50607  30.848  38.952   6.112
 3757POPC   D2A50608  30.814  39.292   6.443
 3757POPC   C3A50609  30.574  39.173   6.769
 3757POPC   C4A50610  30.700  38.898   7.095
 3757POPC   C1B50611  30.372  39.514   6.248
 3757POPC   C2B50612  30.533  39.735   6.606
 3757POPC   C3B50613  30.800  39.596   6.927
 3757POPC   C4B50614  30.560  39.351   7.274
 3758POPC   NC350615  12.864  29.514   5.424
 3758POPC   PO450616  13.130  28.958   5.518
 3758POPC   GL150617  13.006  29.054   5.916
 3758POPC   GL250618  12.861  29.402   5.926
 3758POPC   C1A50619  13.195  29.230   6.270
 3758POPC   D2A50620  13.075  29.268   6.691
 3758POPC   C3A50621  13.253  29.092   7.042
 3758POPC   C4A50622  13.088  29.060   7.457
 3758POPC   C1B50623  12.794  29.578   6.363
 3758POPC   C2B50624  12.725  29.598   6.824
 3758POPC   C3B50625  12.739  29.251   7.124
 3758POPC   C4B50626  12.646  29.296   7.580
 3759POPC   NC350627  36.006  16.466   5.402
 3759POPC   PO450628  36.223  15.804   5.462
 3759POPC   GL150629  35.923  15.960   5.746
 3759POPC   GL250630  36.069  16.247   5.890
 3759POPC   C1A50631  35.910  15.824   6.169
 3759POPC   D2A50632  36.222  15.816   6.468
 3759POPC   C3A50633  35.991  15.988   6.769
 3759POPC   C4A50634  35.789  15.902   7.142
 3759POPC   C1B50635  36.150  16.321   6.353
 3759POPC   C2B50636  36.147  16.463   6.793
 3759POPC   C3B50637  36.183  16.229   7.175
 3759POPC   C4B50638  36.351  16.364   7.566
 3760POPC   NC350639  40.154   6.918   5.718
 3760POPC   PO450640  39.794   6.435   5.449
 3760POPC   GL150641  39.983   6.438   5.840
 3760POPC   GL250642  40.293   6.392   5.823
 3760POPC   C1A50643  39.823   6.407   6.250
 3760POPC   D2A50644  39.622   6.237   6.605
 3760POPC   C3A50645  39.776   6.464   6.928
 3760POPC   C4A50646  39.884   6.742   7.218
 3760POPC   C1B50647  40.304   6.611   6.259
 3760POPC   C2B50648  40.101   6.768   6.647
 3760POPC   C3B50649  40.334   6.697   7.035
 3760POPC   C4B50650  40.430   6.290   7.238
 3761POPC   NC350651  24.120  30.768   5.518
 3761POPC   PO450652  23.441  30.621   5.449
 3761POPC   GL150653  23.671  30.716   5.813
 3761POPC   GL250654  23.510  30.997   5.985
 3761POPC   C1A50655  23.922  30.757   6.184
 3761POPC   D2A50656  23.820  30.903   6.575
 3761POPC   C3A50657  23.762  30.604   6.895
 3761POPC   C4A50658  23.975  30.742   7.238
 3761POPC   C1B50659  23.297  30.961   6.387
 3761POPC   C2B50660  23.389  30.972   6.834
 3761POPC   C3B50661  23.431  31.064   7.247
 3761POPC   C4B50662  23.604  31.062   7.655
 3762POPC   NC350663  42.119   8.223   5.350
 3762POPC   PO450664  41.528   8.283   5.433
 3762POPC   GL150665  41.512   8.379   5.829
 3762POPC   GL250666  41.205   8.460   5.935
 3762POPC   C1A50667  41.484   8.114   6.192
 3762POPC   D2A50668  41.685   7.959   6.556
 3762POPC   C3A50669  41.743   8.140   6.981
 3762POPC   C4A50670  41.460   8.389   7.249
 3762POPC   C1B50671  40.978   8.294   6.250
 3762POPC   C2B50672  41.181   8.179   6.608
 3762POPC   C3B50673  41.306   7.872   6.883
 3762POPC   C4B50674  41.413   7.844   7.312
 3763POPC   NC350675  35.600  34.916   5.511
 3763POPC   PO450676  35.038  34.444   5.425
 3763POPC   GL150677  35.204  34.350   5.795
 3763POPC   GL250678  35.272  34.704   5.844
 3763POPC   C1A50679  35.096  34.380   6.205
 3763POPC   D2A50680  35.418  34.431   6.506
 3763POPC   C3A50681  35.321  34.360   6.933
 3763POPC   C4A50682  35.620  34.382   7.295
 3763POPC   C1B50683  35.380  34.888   6.245
 3763POPC   C2B50684  35.334  34.897   6.687
 3763POPC   C3B50685  35.448  34.835   7.116
 3763POPC   C4B50686  35.302  34.706   7.540
 3764POPC   NC350687  12.764  44.680   5.280
 3764POPC   PO450688  13.049  44.291   5.744
 3764POPC   GL150689  13.045  44.770   5.756
 3764POPC   GL250690  12.728  44.882   5.748
 3764POPC   C1A50691  13.029  44.955   6.187
 3764POPC   D2A50692  12.838  44.677   6.548
 3764POPC   C3A50693  13.134  44.407   6.822
 3764POPC   C4A50694  13.200  44.309   7.258
 3764POPC   C1B50695  12.512  44.911   6.157
 3764POPC   C2B50696  12.329  44.805   6.563
 3764POPC   C3B50697  12.466  44.594   6.958
 3764POPC   C4B50698  12.469  44.771   7.398
 3765POPC   NC350699  31.636  38.981   5.359
 3765POPC   PO450700  31.566  39.660   5.445
 3765POPC   GL150701  31.350  39.361   5.697
 3765POPC   GL250702  31.421  39.029   5.804
 3765POPC   C1A50703  31.196  39.349   6.118
 3765POPC   D2A50704  31.344  39.288   6.540
 3765POPC   C3A50705  31.106  39.140   6.880
 3765POPC   C4A50706  31.050  39.334   7.285
 3765POPC   C1B50707  31.576  38.987   6.195
 3765POPC   C2B50708  31.526  38.813   6.583
 3765POPC   C3B50709  31.621  38.990   6.935
 3765POPC   C4B50710  31.453  39.045   7.293
 3766POPC   NC350711   8.982  19.511   5.289
 3766POPC   PO450712   8.611  18.940   5.565
 3766POPC   GL150713   8.792  19.297   5.752
 3766POPC   GL250714   9.119  19.199   5.658
 3766POPC   C1A50715   8.716  19.417   6.184
 3766POPC   D2A50716   8.534  19.165   6.526
 3766POPC   C3A50717   8.771  19.142   6.909
 3766POPC   C4A50718   8.809  18.769   7.175
 3766POPC   C1B50719   9.185  19.225   6.096
 3766POPC   C2B50720   9.159  19.136   6.529
 3766POPC   C3B50721   9.244  18.904   6.915
 3766POPC   C4B50722   9.169  19.126   7.276
 3767POPC   NC350723  12.267  41.633   5.234
 3767POPC   PO450724  11.664  41.465   5.378
 3767POPC   GL150725  11.974  41.629   5.727
 3767POPC   GL250726  12.341  41.784   5.730
 3767POPC   C1A50727  12.109  41.578   6.182
 3767POPC   D2A50728  12.206  41.266   6.534
 3767POPC   C3A50729  12.152  41.420   6.972
 3767POPC   C4A50730  11.927  41.716   7.242
 3767POPC   C1B50731  12.521  41.935   6.138
 3767POPC   C2B50732  12.447  41.743   6.551
 3767POPC   C3B50733  12.412  41.870   6.959
 3767POPC   C4B50734  12.448  41.695   7.349
 3768POPC   NC350735   4.887  20.569   5.401
 3768POPC   PO450736   5.509  20.584   5.233
 3768POPC   GL150737   5.258  20.510   5.766
 3768POPC   GL250738   4.935  20.642   5.903
 3768POPC   C1A50739   5.206  20.362   6.207
 3768POPC   D2A50740   4.865  20.531   6.480
 3768POPC   C3A50741   4.948  20.371   6.889
 3768POPC   C4A50742   5.189  20.478   7.251
 3768POPC   C1B50743   4.944  20.994   6.228
 3768POPC   C2B50744   4.839  21.116   6.672
 3768POPC   C3B50745   4.965  20.948   7.079
 3768POPC   C4B50746   5.051  20.857   7.548
 3769POPC   NC350747  27.212   1.130   5.530
 3769POPC   PO450748  26.612   1.368   5.249
 3769POPC   GL150749  26.746   1.270   5.693
 3769POPC   GL250750  27.003   1.534   5.817
 3769POPC   C1A50751  26.738   1.016   6.115
 3769POPC   D2A50752  26.795   0.915   6.584
 3769POPC   C3A50753  26.679   1.181   6.931
 3769POPC   C4A50754  26.783   1.162   7.365
 3769POPC   C1B50755  27.249   1.411   6.213
 3769POPC   C2B50756  27.382   1.490   6.672
 3769POPC   C3B50757  27.083   1.483   7.015
 3769POPC   C4B50758  26.692   1.703   7.155
 3770POPC   NC350759  34.478   9.586   5.342
 3770POPC   PO450760  34.878  10.130   5.353
 3770POPC   GL150761  34.720   9.852   5.741
 3770POPC   GL250762  34.432   9.575   5.832
 3770POPC   C1A50763  34.665   9.830   6.194
 3770POPC   D2A50764  34.817   9.905   6.580
 3770POPC   C3A50765  34.478   9.924   6.873
 3770POPC   C4A50766  34.467   9.713   7.228
 3770POPC   C1B50767  34.326   9.416   6.200
 3770POPC   C2B50768  34.455   9.484   6.604
 3770POPC   C3B50769  34.318   9.265   6.957
 3770POPC   C4B50770  34.259   9.262   7.376
 3771POPC   NC350771  41.081  23.933   5.498
 3771POPC   PO450772  40.532  23.552   5.558
 3771POPC   GL150773  40.777  23.708   5.865
 3771POPC   GL250774  41.099  23.548   5.840
 3771POPC   C1A50775  40.713  23.586   6.266
 3771POPC   D2A50776  40.632  23.381   6.609
 3771POPC   C3A50777  40.740  23.594   6.978
 3771POPC   C4A50778  40.863  24.023   7.163
 3771POPC   C1B50779  41.168  23.767   6.213
 3771POPC   C2B50780  41.035  23.837   6.607
 3771POPC   C3B50781  41.237  23.716   6.955
 3771POPC   C4B50782  41.123  23.655   7.374
 3772POPC   NC350783  22.639  21.171   5.441
 3772POPC   PO450784  22.159  20.766   5.510
 3772POPC   GL150785  22.390  20.863   5.891
 3772POPC   GL250786  22.442  21.213   5.925
 3772POPC   C1A50787  22.495  20.671   6.316
 3772POPC   D2A50788  22.529  20.849   6.745
 3772POPC   C3A50789  22.377  20.651   7.143
 3772POPC   C4A50790  22.380  20.438   7.572
 3772POPC   C1B50791  22.280  21.135   6.339
 3772POPC   C2B50792  22.137  21.199   6.762
 3772POPC   C3B50793  22.019  21.031   7.172
 3772POPC   C4B50794  21.919  20.637   7.398
 3773POPC   NC350795  26.947  41.133   5.590
 3773POPC   PO450796  26.677  40.623   5.224
 3773POPC   GL150797  26.878  40.628   5.654
 3773POPC   GL250798  26.552  40.681   5.739
 3773POPC   C1A50799  26.885  40.809   6.121
 3773POPC   D2A50800  26.676  40.909   6.514
 3773POPC   C3A50801  26.886  40.819   6.895
 3773POPC   C4A50802  26.749  40.898   7.309
 3773POPC   C1B50803  26.391  40.650   6.149
 3773POPC   C2B50804  26.310  40.386   6.500
 3773POPC   C3B50805  26.468  40.532   6.884
 3773POPC   C4B50806  26.366  40.524   7.304
 3774POPC   NC350807  40.495  41.982   5.350
 3774POPC   PO450808  39.902  41.599   5.447
 3774POPC   GL150809  39.957  41.654   5.880
 3774POPC   GL250810  40.281  41.766   5.793
 3774POPC   C1A50811  40.166  41.495   6.241
 3774POPC   D2A50812  40.441  41.432   6.550
 3774POPC   C3A50813  40.182  41.474   6.913
 3774POPC   C4A50814  40.291  41.379   7.298
 3774POPC   C1B50815  40.294  41.997   6.181
 3774POPC   C2B50816  40.210  41.910   6.602
 3774POPC   C3B50817  40.279  42.148   6.966
 3774POPC   C4B50818  40.265  41.908   7.324
 3775POPC   NC350819   8.004  44.169   5.449
 3775POPC   PO450820   8.276  43.481   5.372
 3775POPC   GL150821   8.098  43.449   5.814
 3775POPC   GL250822   7.729  43.446   5.807
 3775POPC   C1A50823   8.202  43.659   6.252
 3775POPC   D2A50824   8.417  44.026   6.519
 3775POPC   C3A50825   8.377  43.995   6.962
 3775POPC   C4A50826   8.029  43.738   7.122
 3775POPC   C1B50827   7.657  43.642   6.200
 3775POPC   C2B50828   7.622  43.738   6.620
 3775POPC   C3B50829   7.886  44.047   6.767
 3775POPC   C4B50830   7.967  44.250   7.164
 3776POPC   NC350831   1.552  16.082   5.247
 3776POPC   PO450832   1.512  15.488   5.558
 3776POPC   GL150833   1.805  15.770   5.825
 3776POPC   GL250834   2.092  16.023   5.774
 3776POPC   C1A50835   2.012  15.823   6.248
 3776POPC   D2A50836   2.097  15.713   6.662
 3776POPC   C3A50837   2.010  15.914   7.034
 3776POPC   C4A50838   2.192  15.572   7.248
 3776POPC   C1B50839   2.167  16.301   6.170
 3776POPC   C2B50840   2.257  16.495   6.610
 3776POPC   C3B50841   2.357  16.374   7.054
 3776POPC   C4B50842   2.376  16.566   7.504
 3777POPC   NC350843   7.261  12.399   5.247
 3777POPC   PO450844   7.363  11.764   5.519
 3777POPC   GL150845   7.360  12.099   5.831
 3777POPC   GL250846   7.078  12.349   5.823
 3777POPC   C1A50847   7.647  12.152   6.198
 3777POPC   D2A50848   7.932  11.869   6.470
 3777POPC   C3A50849   7.842  11.904   6.910
 3777POPC   C4A50850   7.845  11.976   7.369
 3777POPC   C1B50851   7.137  12.538   6.235
 3777POPC   C2B50852   7.101  12.484   6.696
 3777POPC   C3B50853   7.335  12.288   7.051
 3777POPC   C4B50854   7.704  12.484   7.244
 3778POPC   NC350855  38.607  37.534   5.502
 3778POPC   PO450856  37.923  37.286   5.494
 3778POPC   GL150857  38.254  37.386   5.876
 3778POPC   GL250858  38.531  37.669   6.009
 3778POPC   C1A50859  38.366  37.347   6.339
 3778POPC   D2A50860  38.550  37.665   6.582
 3778POPC   C3A50861  38.581  37.523   6.992
 3778POPC   C4A50862  38.228  37.420   7.236
 3778POPC   C1B50863  38.497  38.076   6.283
 3778POPC   C2B50864  38.211  38.193   6.628
 3778POPC   C3B50865  38.322  37.974   6.980
 3778POPC   C4B50866  38.735  37.959   7.207
 3779POPC   NC350867  43.987  42.531   5.296
 3779POPC   PO450868  43.569  42.185   5.019
 3779POPC   GL150869  43.800  42.153   5.536
 3779POPC   GL250870  43.589  42.430   5.664
 3779POPC   C1A50871  43.953  42.233   5.993
 3779POPC   D2A50872  43.969  42.522   6.393
 3779POPC   C3A50873  44.070  42.389   6.844
 3779POPC   C4A50874  43.932  42.599   7.225
 3779POPC   C1B50875  43.527  42.547   6.096
 3779POPC   C2B50876  43.433  42.396   6.512
 3779POPC   C3B50877  43.525  42.392   6.950
 3779POPC   C4B50878  43.690  42.131   7.265
 3780POPC   NC350879  20.275  38.401   5.585
 3780POPC   PO450880  20.749  38.792   5.491
 3780POPC   GL150881  20.545  38.809   5.894
 3780POPC   GL250882  20.178  38.808   5.865
 3780POPC   C1A50883  20.695  38.788   6.345
 3780POPC   D2A50884  20.765  38.881   6.790
 3780POPC   C3A50885  20.875  38.576   7.094
 3780POPC   C4A50886  21.002  38.710   7.484
 3780POPC   C1B50887  20.221  38.612   6.275
 3780POPC   C2B50888  20.272  38.773   6.690
 3780POPC   C3B50889  20.373  38.652   7.093
 3780POPC   C4B50890  20.513  38.439   7.461
 3781POPC   NC350891  41.763  30.461   5.580
 3781POPC   PO450892  41.487  29.894   5.366
 3781POPC   GL150893  41.356  29.827   5.768
 3781POPC   GL250894  41.417  30.151   5.854
 3781POPC   C1A50895  41.463  29.696   6.183
 3781POPC   D2A50896  41.749  29.677   6.547
 3781POPC   C3A50897  41.589  29.832   6.926
 3781POPC   C4A50898  41.231  29.758   7.199
 3781POPC   C1B50899  41.736  30.140   6.178
 3781POPC   C2B50900  41.836  30.270   6.587
 3781POPC   C3B50901  41.732  30.357   7.030
 3781POPC   C4B50902  41.574  30.104   7.358
 3782POPC   NC350903  15.993  29.621   5.547
 3782POPC   PO450904  15.639  29.070   5.477
 3782POPC   GL150905  15.797  29.019   5.892
 3782POPC   GL250906  16.038  29.239   5.885
 3782POPC   C1A50907  15.634  29.170   6.283
 3782POPC   D2A50908  15.471  29.235   6.701
 3782POPC   C3A50909  15.694  28.951   6.952
 3782POPC   C4A50910  15.850  29.136   7.336
 3782POPC   C1B50911  16.355  29.390   6.161
 3782POPC   C2B50912  16.381  29.229   6.541
 3782POPC   C3B50913  16.183  29.173   6.940
 3782POPC   C4B50914  16.366  29.118   7.330
 3783POPC   NC350915  19.562  26.164   5.376
 3783POPC   PO450916  20.097  26.434   5.695
 3783POPC   GL150917  19.808  26.173   5.867
 3783POPC   GL250918  19.982  25.866   5.949
 3783POPC   C1A50919  19.841  26.228   6.332
 3783POPC   D2A50920  19.773  26.149   6.760
 3783POPC   C3A50921  20.105  25.973   7.002
 3783POPC   C4A50922  20.111  26.373   7.186
 3783POPC   C1B50923  19.560  25.845   6.166
 3783POPC   C2B50924  19.436  25.813   6.590
 3783POPC   C3B50925  19.495  25.817   7.029
 3783POPC   C4B50926  19.774  25.893   7.373
 3784POPC   NC350927  32.550   8.293   5.188
 3784POPC   PO450928  31.917   8.246   5.346
 3784POPC   GL150929  31.977   8.452   5.712
 3784POPC   GL250930  32.320   8.290   5.724
 3784POPC   C1A50931  31.972   8.349   6.145
 3784POPC   D2A50932  32.203   8.496   6.508
 3784POPC   C3A50933  32.268   8.315   6.891
 3784POPC   C4A50934  32.261   8.471   7.322
 3784POPC   C1B50935  32.471   8.227   6.160
 3784POPC   C2B50936  32.432   7.922   6.502
 3784POPC   C3B50937  32.546   7.810   6.921
 3784POPC   C4B50938  32.325   7.970   7.262
 3785POPC   NC350939  41.861   9.719   5.257
 3785POPC   PO450940  42.433   9.556   5.209
 3785POPC   GL150941  42.297   9.680   5.657
 3785POPC   GL250942  42.525   9.473   5.856
 3785POPC   C1A50943  42.370   9.881   6.101
 3785POPC   D2A50944  42.225   9.726   6.516
 3785POPC   C3A50945  42.262   9.834   6.962
 3785POPC   C4A50946  41.971   9.790   7.325
 3785POPC   C1B50947  42.694   9.522   6.299
 3785POPC   C2B50948  42.703   9.745   6.687
 3785POPC   C3B50949  42.732   9.670   7.122
 3785POPC   C4B50950  42.959   9.772   7.521
 3786POPC   NC350951  13.922  11.476   5.445
 3786POPC   PO450952  13.317  11.475   5.476
 3786POPC   GL150953  13.528  11.578   5.850
 3786POPC   GL250954  13.878  11.650   5.916
 3786POPC   C1A50955  13.659  11.321   6.242
 3786POPC   D2A50956  13.416  11.175   6.617
 3786POPC   C3A50957  13.544  11.137   7.062
 3786POPC   C4A50958  13.409  11.355   7.466
 3786POPC   C1B50959  13.601  11.821   6.280
 3786POPC   C2B50960  13.669  11.649   6.660
 3786POPC   C3B50961  13.554  11.635   7.055
 3786POPC   C4B50962  13.880  11.503   7.354
 3787POPC   NC350963  33.339  22.640   4.907
 3787POPC   PO450964  33.025  22.867   5.417
 3787POPC   GL150965  33.162  22.751   5.870
 3787POPC   GL250966  33.229  23.068   6.027
 3787POPC   C1A50967  33.144  22.651   6.309
 3787POPC   D2A50968  32.925  22.815   6.669
 3787POPC   C3A50969  33.051  22.675   7.064
 3787POPC   C4A50970  33.095  22.743   7.479
 3787POPC   C1B50971  33.242  23.176   6.451
 3787POPC   C2B50972  33.307  23.084   6.879
 3787POPC   C3B50973  33.239  23.203   7.321
 3787POPC   C4B50974  33.323  23.423   7.719
 3788POPC   NC350975  12.963   1.530   5.494
 3788POPC   PO450976  12.673   0.917   5.320
 3788POPC   GL150977  12.773   1.089   5.729
 3788POPC   GL250978  12.548   1.378   5.755
 3788POPC   C1A50979  13.004   1.069   6.134
 3788POPC   D2A50980  13.104   0.959   6.551
 3788POPC   C3A50981  12.815   1.065   6.888
 3788POPC   C4A50982  12.817   1.080   7.314
 3788POPC   C1B50983  12.730   1.561   6.128
 3788POPC   C2B50984  12.885   1.427   6.505
 3788POPC   C3B50985  12.990   1.543   6.890
 3788POPC   C4B50986  12.662   1.553   7.192
 3789POPC   NC350987  44.344   4.516   5.730
 3789POPC   PO450988  43.999   4.167   5.318
 3789POPC   GL150989  43.883   4.058   5.730
 3789POPC   GL250990  43.762   4.387   5.826
 3789POPC   C1A50991  44.100   4.044   6.144
 3789POPC   D2A50992  44.213   4.245   6.564
 3789POPC   C3A50993  43.948   4.123   6.923
 3789POPC   C4A50994  43.795   4.041   7.336
 3789POPC   C1B50995  43.822   4.609   6.236
 3789POPC   C2B50996  43.796   4.597   6.696
 3789POPC   C3B50997  44.014   4.609   7.095
 3789POPC   C4B50998  43.867   4.627   7.541
 3790POPC   NC350999  38.282  13.833   5.470
 3790POPC   PO451000  38.722  13.337   5.539
 3790POPC   GL151001  38.795  13.544   5.920
 3790POPC   GL251002  38.698  13.882   5.914
 3790POPC   C1A51003  38.671  13.535   6.329
 3790POPC   D2A51004  38.476  13.312   6.635
 3790POPC   C3A51005  38.500  13.500   7.012
 3790POPC   C4A51006  38.128  13.435   7.218
 3790POPC   C1B51007  38.324  13.873   6.165
 3790POPC   C2B51008  38.379  13.906   6.605
 3790POPC   C3B51009  38.157  13.902   6.994
 3790POPC   C4B51010  38.331  13.853   7.418
 3791POPC   NC351011  20.716  17.161   5.290
 3791POPC   PO451012  20.736  17.695   5.382
 3791POPC   GL151013  20.537  17.408   5.734
 3791POPC   GL251014  20.762  17.163   5.850
 3791POPC   C1A51015  20.398  17.394   6.209
 3791POPC   D2A51016  20.552  17.497   6.668
 3791POPC   C3A51017  20.550  17.597   7.146
 3791POPC   C4A51018  20.706  17.616   7.593
 3791POPC   C1B51019  20.854  17.190   6.340
 3791POPC   C2B51020  20.849  17.105   6.803
 3791POPC   C3B51021  20.887  17.212   7.240
 3791POPC   C4B51022  20.931  17.151   7.683
 3792POPC   NC351023   5.686  18.400   5.457
 3792POPC   PO451024   6.327  18.138   5.553
 3792POPC   GL151025   6.096  18.303   5.893
 3792POPC   GL251026   5.726  18.270   5.934
 3792POPC   C1A51027   6.001  18.306   6.333
 3792POPC   D2A51028   5.677  18.419   6.605
 3792POPC   C3A51029   5.817  18.307   7.015
 3792POPC   C4A51030   6.039  18.233   7.418
 3792POPC   C1B51031   5.599  17.990   6.288
 3792POPC   C2B51032   5.570  17.937   6.740
 3792POPC   C3B51033   5.787  17.804   7.123
 3792POPC   C4B51034   5.670  17.914   7.598
 3793POPC   NC351035  40.255  42.797   5.524
 3793POPC   PO451036  40.849  43.131   5.243
 3793POPC   GL151037  40.704  43.074   5.666
 3793POPC   GL251038  41.030  42.944   5.732
 3793POPC   C1A51039  40.765  43.124   6.137
 3793POPC   D2A51040  40.562  43.239   6.541
 3793POPC   C3A51041  40.772  43.137   6.910
 3793POPC   C4A51042  40.640  42.986   7.292
 3793POPC   C1B51043  41.103  42.683   6.105
 3793POPC   C2B51044  41.243  42.642   6.539
 3793POPC   C3B51045  41.062  42.720   6.922
 3793POPC   C4B51046  40.975  42.552   7.292
 3794POPC   NC351047  39.391  30.186   5.431
 3794POPC   PO451048  39.963  29.742   5.289
 3794POPC   GL151049  39.863  29.684   5.737
 3794POPC   GL251050  39.814  30.052   5.736
 3794POPC   C1A51051  39.939  29.745   6.206
 3794POPC   D2A51052  40.081  30.068   6.521
 3794POPC   C3A51053  40.153  29.927   6.955
 3794POPC   C4A51054  39.795  29.912   7.234
 3794POPC   C1B51055  39.736  30.215   6.134
 3794POPC   C2B51056  39.583  30.262   6.539
 3794POPC   C3B51057  39.631  30.373   6.967
 3794POPC   C4B51058  39.498  30.363   7.409
 3795POPC   NC351059  36.359  36.983   5.529
 3795POPC   PO451060  35.977  36.493   5.487
 3795POPC   GL151061  36.058  36.760   5.866
 3795POPC   GL251062  35.901  37.117   5.857
 3795POPC   C1A51063  36.234  36.935   6.243
 3795POPC   D2A51064  36.190  37.143   6.659
 3795POPC   C3A51065  36.253  36.907   7.031
 3795POPC   C4A51066  36.016  36.887   7.394
 3795POPC   C1B51067  35.818  37.259   6.303
 3795POPC   C2B51068  35.638  37.145   6.747
 3795POPC   C3B51069  35.641  37.219   7.218
 3795POPC   C4B51070  35.919  37.359   7.579
 3796POPC   NC351071   0.510  17.099   5.065
 3796POPC   PO451072   0.624  17.677   5.348
 3796POPC   GL151073   0.432  17.707   5.757
 3796POPC   GL251074   0.360  17.374   5.745
 3796POPC   C1A51075   0.524  17.717   6.232
 3796POPC   D2A51076   0.381  17.621   6.664
 3796POPC   C3A51077   0.575  17.617   7.044
 3796POPC   C4A51078   0.645  17.666   7.470
 3796POPC   C1B51079   0.592  17.236   6.077
 3796POPC   C2B51080   0.473  17.164   6.479
 3796POPC   C3B51081   0.606  17.145   6.880
 3796POPC   C4B51082   0.509  17.062   7.287
 3797POPC   NC351083   7.656  39.074   5.658
 3797POPC   PO451084   7.200  39.527   5.384
 3797POPC   GL151085   7.298  39.444   5.817
 3797POPC   GL251086   7.210  39.111   5.895
 3797POPC   C1A51087   7.380  39.457   6.279
 3797POPC   D2A51088   7.705  39.322   6.585
 3797POPC   C3A51089   7.573  39.178   6.995
 3797POPC   C4A51090   7.431  39.483   7.287
 3797POPC   C1B51091   7.028  38.948   6.270
 3797POPC   C2B51092   7.003  39.229   6.627
 3797POPC   C3B51093   7.047  39.246   7.048
 3797POPC   C4B51094   7.074  38.873   7.183
 3798POPC   NC351095   1.831  40.451   5.694
 3798POPC   PO451096   1.944  41.041   5.406
 3798POPC   GL151097   1.845  40.958   5.844
 3798POPC   GL251098   2.142  40.812   5.924
 3798POPC   C1A51099   1.799  40.732   6.273
 3798POPC   D2A51100   1.956  40.829   6.638
 3798POPC   C3A51101   1.856  40.591   6.951
 3798POPC   C4A51102   1.982  40.684   7.329
 3798POPC   C1B51103   2.124  41.133   6.253
 3798POPC   C2B51104   2.390  41.099   6.615
 3798POPC   C3B51105   2.388  40.921   7.037
 3798POPC   C4B51106   2.365  40.984   7.476
 3799POPC   NC351107  27.647   7.055   5.476
 3799POPC   PO451108  27.858   6.446   5.393
 3799POPC   GL151109  27.664   6.634   5.755
 3799POPC   GL251110  27.941   6.807   5.821
 3799POPC   C1A51111  27.545   6.572   6.178
 3799POPC   D2A51112  27.373   6.354   6.548
 3799POPC   C3A51113  27.419   6.603   6.893
 3799POPC   C4A51114  27.511   6.583   7.325
 3799POPC   C1B51115  27.842   6.979   6.227
 3799POPC   C2B51116  27.860   6.746   6.627
 3799POPC   C3B51117  27.849   6.868   7.064
 3799POPC   C4B51118  27.911   6.800   7.520
 3800POPC   NC351119   5.661  23.824   5.484
 3800POPC   PO451120   6.312  23.970   5.359
 3800POPC   GL151121   6.070  23.840   5.766
 3800POPC   GL251122   5.974  23.482   5.849
 3800POPC   C1A51123   5.762  23.857   6.136
 3800POPC   D2A51124   5.814  23.806   6.578
 3800POPC   C3A51125   5.615  24.016   6.953
 3800POPC   C4A51126   5.511  23.820   7.355
 3800POPC   C1B51127   5.722  23.336   6.250
 3800POPC   C2B51128   5.663  23.317   6.719
 3800POPC   C3B51129   5.880  23.579   7.039
 3800POPC   C4B51130   6.069  23.504   7.429
 3801POPC   NC351131  41.446  42.291   5.365
 3801POPC   PO451132  41.968  42.606   5.713
 3801POPC   GL151133  41.665  42.342   5.847
 3801POPC   GL251134  41.798  42.076   5.687
 3801POPC   C1A51135  41.430  42.251   6.213
 3801POPC   D2A51136  41.195  42.132   6.576
 3801POPC   C3A51137  41.320  42.287   6.993
 3801POPC   C4A51138  41.639  42.393   7.272
 3801POPC   C1B51139  41.879  41.809   6.035
 3801POPC   C2B51140  41.646  41.796   6.418
 3801POPC   C3B51141  41.640  41.910   6.839
 3801POPC   C4B51142  41.897  41.953   7.219
 3802POPC   NC351143   4.128  35.656   5.240
 3802POPC   PO451144   4.365  36.321   5.247
 3802POPC   GL151145   4.313  36.142   5.690
 3802POPC   GL251146   4.583  35.919   5.822
 3802POPC   C1A51147   4.195  36.045   6.152
 3802POPC   D2A51148   4.326  35.850   6.522
 3802POPC   C3A51149   4.249  36.051   6.891
 3802POPC   C4A51150   4.195  35.977   7.312
 3802POPC   C1B51151   4.689  36.098   6.252
 3802POPC   C2B51152   4.717  36.133   6.708
 3802POPC   C3B51153   4.698  35.925   7.115
 3802POPC   C4B51154   4.675  36.127   7.511
 3803POPC   NC351155  38.114  26.583   5.426
 3803POPC   PO451156  37.424  26.848   5.377
 3803POPC   GL151157  37.741  26.901   5.741
 3803POPC   GL251158  37.905  26.623   5.901
 3803POPC   C1A51159  37.890  27.058   6.189
 3803POPC   D2A51160  38.073  27.053   6.655
 3803POPC   C3A51161  37.742  27.100   6.999
 3803POPC   C4A51162  37.487  26.858   7.292
 3803POPC   C1B51163  38.052  26.582   6.321
 3803POPC   C2B51164  38.185  26.508   6.743
 3803POPC   C3B51165  37.892  26.598   7.082
 3803POPC   C4B51166  37.920  26.655   7.539
 3804POPC   NC351167  13.971  41.398   5.363
 3804POPC   PO451168  13.631  41.955   5.197
 3804POPC   GL151169  13.683  41.712   5.633
 3804POPC   GL251170  13.381  41.552   5.797
 3804POPC   C1A51171  13.854  41.742   6.082
 3804POPC   D2A51172  13.864  41.490   6.497
 3804POPC   C3A51173  13.719  41.628   6.905
 3804POPC   C4A51174  13.848  41.504   7.294
 3804POPC   C1B51175  13.451  41.440   6.204
 3804POPC   C2B51176  13.322  41.540   6.595
 3804POPC   C3B51177  13.207  41.369   6.962
 3804POPC   C4B51178  13.336  41.612   7.289
 3805POPC   NC351179  26.568  37.924   5.660
 3805POPC   PO451180  27.099  37.647   5.459
 3805POPC   GL151181  26.982  37.723   5.876
 3805POPC   GL251182  27.099  38.035   5.862
 3805POPC   C1A51183  26.793  37.602   6.272
 3805POPC   D2A51184  26.667  37.450   6.692
 3805POPC   C3A51185  26.745  37.713   7.065
 3805POPC   C4A51186  26.926  37.684   7.457
 3805POPC   C1B51187  27.095  38.011   6.314
 3805POPC   C2B51188  26.984  38.074   6.772
 3805POPC   C3B51189  27.088  38.109   7.237
 3805POPC   C4B51190  27.096  38.079   7.727
 3806POPC   NC351191  44.793  27.785   5.532
 3806POPC   PO451192  44.357  27.374   5.538
 3806POPC   GL151193  44.417  27.678   5.878
 3806POPC   GL251194  44.642  27.991   5.968
 3806POPC   C1A51195  44.624  27.589   6.276
 3806POPC   D2A51196  44.692  27.283   6.604
 3806POPC   C3A51197  44.729  27.486   6.999
 3806POPC   C4A51198  44.622  27.355   7.426
 3806POPC   C1B51199  44.290  27.995   6.242
 3806POPC   C2B51200  44.249  28.138   6.632
 3806POPC   C3B51201  44.311  27.983   7.078
 3806POPC   C4B51202  44.669  27.880   7.316
 3807POPC   NC351203  12.877  30.271   5.391
 3807POPC   PO451204  12.459  29.694   5.430
 3807POPC   GL151205  12.585  30.018   5.737
 3807POPC   GL251206  12.902  29.904   5.768
 3807POPC   C1A51207  12.724  30.094   6.197
 3807POPC   D2A51208  12.970  30.015   6.589
 3807POPC   C3A51209  12.784  30.066   7.031
 3807POPC   C4A51210  12.561  29.869   7.387
 3807POPC   C1B51211  13.180  29.775   6.108
 3807POPC   C2B51212  13.341  29.673   6.519
 3807POPC   C3B51213  13.224  29.681   6.966
 3807POPC   C4B51214  13.008  29.611   7.350
 3808POPC   NC351215   5.376  17.468   5.554
 3808POPC   PO451216   4.746  17.801   5.411
 3808POPC   GL151217   4.925  17.732   5.806
 3808POPC   GL251218   4.879  17.380   5.867
 3808POPC   C1A51219   5.206  17.671   6.165
 3808POPC   D2A51220   5.320  17.529   6.571
 3808POPC   C3A51221   5.103  17.768   6.887
 3808POPC   C4A51222   4.876  17.648   7.248
 3808POPC   C1B51223   4.740  17.181   6.235
 3808POPC   C2B51224   5.003  17.122   6.593
 3808POPC   C3B51225   5.071  17.265   6.990
 3808POPC   C4B51226   4.670  17.174   7.261
 3809POPC   NC351227  24.097  25.461   5.538
 3809POPC   PO451228  23.598  25.097   5.334
 3809POPC   GL151229  23.779  25.139   5.785
 3809POPC   GL251230  24.029  24.914   5.821
 3809POPC   C1A51231  23.843  25.366   6.239
 3809POPC   D2A51232  23.756  25.525   6.716
 3809POPC   C3A51233  23.487  25.295   7.076
 3809POPC   C4A51234  23.454  25.386   7.560
 3809POPC   C1B51235  23.868  24.832   6.227
 3809POPC   C2B51236  23.919  25.019   6.625
 3809POPC   C3B51237  23.852  24.916   7.052
 3809POPC   C4B51238  23.876  25.139   7.410
 3810POPC   NC351239  27.240  13.346   5.358
 3810POPC   PO451240  27.677  13.897   5.321
 3810POPC   GL151241  27.498  13.734   5.680
 3810POPC   GL251242  27.794  13.547   5.756
 3810POPC   C1A51243  27.393  13.663   6.131
 3810POPC   D2A51244  27.310  13.882   6.532
 3810POPC   C3A51245  27.664  13.946   6.827
 3810POPC   C4A51246  27.721  14.077   7.256
 3810POPC   C1B51247  27.840  13.381   6.196
 3810POPC   C2B51248  27.624  13.454   6.607
 3810POPC   C3B51249  27.506  13.512   7.044
 3810POPC   C4B51250  27.711  13.563   7.431
 3811POPC   NC351251  41.706  36.845   5.483
 3811POPC   PO451252  41.409  37.440   5.397
 3811POPC   GL151253  41.319  37.200   5.773
 3811POPC   GL251254  41.299  36.813   5.814
 3811POPC   C1A51255  41.230  37.135   6.208
 3811POPC   D2A51256  41.473  37.147   6.576
 3811POPC   C3A51257  41.356  36.965   6.973
 3811POPC   C4A51258  41.700  37.084   7.229
 3811POPC   C1B51259  41.671  36.863   6.145
 3811POPC   C2B51260  41.912  36.787   6.542
 3811POPC   C3B51261  41.868  36.568   6.918
 3811POPC   C4B51262  41.611  36.587   7.264
 3812POPC   NC351263  31.736  35.810   5.408
 3812POPC   PO451264  31.181  36.200   5.385
 3812POPC   GL151265  31.516  36.177   5.736
 3812POPC   GL251266  31.381  35.856   5.777
 3812POPC   C1A51267  31.737  36.277   6.179
 3812POPC   D2A51268  31.910  36.261   6.649
 3812POPC   C3A51269  31.545  36.283   6.995
 3812POPC   C4A51270  31.362  36.455   7.393
 3812POPC   C1B51271  31.550  35.777   6.158
 3812POPC   C2B51272  31.562  35.906   6.598
 3812POPC   C3B51273  31.705  35.798   7.034
 3812POPC   C4B51274  31.624  35.511   7.420
 3813POPC   NC351275   2.656   3.174   5.289
 3813POPC   PO451276   3.076   2.653   5.463
 3813POPC   GL151277   2.996   2.928   5.827
 3813POPC   GL251278   2.670   2.782   5.957
 3813POPC   C1A51279   2.945   3.032   6.286
 3813POPC   D2A51280   2.732   2.937   6.672
 3813POPC   C3A51281   2.869   3.023   7.104
 3813POPC   C4A51282   2.555   2.851   7.434
 3813POPC   C1B51283   2.984   2.510   6.122
 3813POPC   C2B51284   3.115   2.582   6.505
 3813POPC   C3B51285   3.101   2.577   6.897
 3813POPC   C4B51286   2.902   2.536   7.252
 3814POPC   NC351287  22.819  42.102   5.665
 3814POPC   PO451288  22.886  42.542   5.177
 3814POPC   GL151289  22.666  42.578   5.713
 3814POPC   GL251290  22.375  42.790   5.788
 3814POPC   C1A51291  22.818  42.373   6.223
 3814POPC   D2A51292  22.874  42.238   6.679
 3814POPC   C3A51293  23.154  42.538   6.927
 3814POPC   C4A51294  23.286  42.483   7.373
 3814POPC   C1B51295  22.605  42.819   6.194
 3814POPC   C2B51296  22.565  42.631   6.608
 3814POPC   C3B51297  22.683  42.677   7.081
 3814POPC   C4B51298  22.872  42.719   7.516
 3815POPC   NC351299  28.208  37.572   5.341
 3815POPC   PO451300  27.908  38.225   5.361
 3815POPC   GL151301  28.178  37.985   5.657
 3815POPC   GL251302  28.509  37.798   5.686
 3815POPC   C1A51303  28.149  37.755   6.045
 3815POPC   D2A51304  28.386  37.789   6.414
 3815POPC   C3A51305  28.287  37.662   6.819
 3815POPC   C4A51306  28.469  37.678   7.209
 3815POPC   C1B51307  28.625  37.497   6.044
 3815POPC   C2B51308  28.569  37.304   6.468
 3815POPC   C3B51309  28.503  37.206   6.911
 3815POPC   C4B51310  28.667  37.221   7.336
 3816POPC   NC351311  34.846   5.273   5.463
 3816POPC   PO451312  34.280   4.921   5.517
 3816POPC   GL151313  34.479   5.204   5.856
 3816POPC   GL251314  34.816   5.361   5.962
 3816POPC   C1A51315  34.447   5.276   6.313
 3816POPC   D2A51316  34.533   5.406   6.729
 3816POPC   C3A51317  34.355   5.190   7.090
 3816POPC   C4A51318  34.386   4.998   7.513
 3816POPC   C1B51319  34.865   4.995   6.224
 3816POPC   C2B51320  34.778   4.960   6.698
 3816POPC   C3B51321  34.812   4.946   7.183
 3816POPC   C4B51322  35.098   4.788   7.546
 3817POPC   NC351323  36.778  33.521   5.362
 3817POPC   PO451324  37.231  34.103   5.353
 3817POPC   GL151325  37.077  34.110   5.835
 3817POPC   GL251326  36.707  34.126   5.876
 3817POPC   C1A51327  37.071  33.995   6.326
 3817POPC   D2A51328  37.162  34.009   6.807
 3817POPC   C3A51329  36.996  33.652   7.036
 3817POPC   C4A51330  36.579  33.436   6.987
 3817POPC   C1B51331  36.574  33.926   6.233
 3817POPC   C2B51332  36.681  33.809   6.644
 3817POPC   C3B51333  36.632  33.992   7.042
 3817POPC   C4B51334  36.764  33.847   7.442
 3818POPC   NC351335  34.573  32.085   5.287
 3818POPC   PO451336  33.970  32.214   5.509
 3818POPC   GL151337  34.294  32.018   5.718
 3818POPC   GL251338  34.427  32.348   5.799
 3818POPC   C1A51339  34.526  31.890   6.094
 3818POPC   D2A51340  34.768  32.018   6.475
 3818POPC   C3A51341  34.530  32.107   6.851
 3818POPC   C4A51342  34.539  32.140   7.282
 3818POPC   C1B51343  34.405  32.365   6.276
 3818POPC   C2B51344  34.609  32.580   6.654
 3818POPC   C3B51345  34.815  32.509   7.077
 3818POPC   C4B51346  34.557  32.598   7.477
 3819POPC   NC351347   0.059  19.918   5.415
 3819POPC   PO451348   0.636  19.628   5.389
 3819POPC   GL151349   0.383  19.689   5.776
 3819POPC   GL251350   0.282  20.031   5.896
 3819POPC   C1A51351   0.234  19.566   6.190
 3819POPC   D2A51352   0.149  19.758   6.586
 3819POPC   C3A51353   0.447  19.728   6.888
 3819POPC   C4A51354   0.627  19.475   7.205
 3819POPC   C1B51355   0.515  20.010   6.289
 3819POPC   C2B51356   0.707  20.171   6.662
 3819POPC   C3B51357   0.615  20.151   7.083
 3819POPC   C4B51358   0.311  20.006   7.321
 3820POPC   NC351359  12.885  32.695   5.489
 3820POPC   PO451360  12.983  33.351   5.349
 3820POPC   GL151361  12.817  33.144   5.742
 3820POPC   GL251362  13.154  33.184   5.818
 3820POPC   C1A51363  12.898  32.904   6.157
 3820POPC   D2A51364  13.094  33.060   6.556
 3820POPC   C3A51365  13.094  32.838   6.950
 3820POPC   C4A51366  12.808  32.928   7.243
 3820POPC   C1B51367  13.290  33.457   6.143
 3820POPC   C2B51368  13.229  33.566   6.582
 3820POPC   C3B51369  13.099  33.398   6.958
 3820POPC   C4B51370  13.261  33.226   7.323
 3821POPC   NC351371  16.745  28.141   5.242
 3821POPC   PO451372  16.585  28.747   5.480
 3821POPC   GL151373  16.676  28.444   5.798
 3821POPC   GL251374  17.017  28.301   5.730
 3821POPC   C1A51375  16.527  28.472   6.239
 3821POPC   D2A51376  16.574  28.301   6.661
 3821POPC   C3A51377  16.647  28.532   7.047
 3821POPC   C4A51378  16.635  28.233   7.389
 3821POPC   C1B51379  17.048  28.510   6.171
 3821POPC   C2B51380  17.094  28.414   6.648
 3821POPC   C3B51381  17.035  28.175   7.044
 3821POPC   C4B51382  17.098  28.128   7.506
 3822POPC   NC351383   5.581   7.352   5.260
 3822POPC   PO451384   6.107   7.528   5.554
 3822POPC   GL151385   5.934   7.366   5.874
 3822POPC   GL251386   5.564   7.391   5.817
 3822POPC   C1A51387   6.034   7.393   6.309
 3822POPC   D2A51388   5.667   7.572   6.567
 3822POPC   C3A51389   5.740   7.638   7.002
 3822POPC   C4A51390   5.750   7.302   7.242
 3822POPC   C1B51391   5.619   7.147   6.231
 3822POPC   C2B51392   5.584   7.062   6.694
 3822POPC   C3B51393   5.481   6.915   7.105
 3822POPC   C4B51394   5.418   7.017   7.569
 3823POPC   NC351395   3.851   5.378   5.289
 3823POPC   PO451396   3.245   4.991   5.390
 3823POPC   GL151397   3.401   5.037   5.819
 3823POPC   GL251398   3.754   5.179   5.768
 3823POPC   C1A51399   3.365   5.111   6.282
 3823POPC   D2A51400   3.298   4.996   6.725
 3823POPC   C3A51401   3.648   5.145   6.939
 3823POPC   C4A51402   3.763   5.110   7.333
 3823POPC   C1B51403   3.799   4.874   6.112
 3823POPC   C2B51404   3.721   4.815   6.511
 3823POPC   C3B51405   3.954   4.726   6.809
 3823POPC   C4B51406   4.052   4.722   7.176
 3824POPC   NC351407  21.875  29.916   5.448
 3824POPC   PO451408  22.510  30.136   5.332
 3824POPC   GL151409  22.326  30.079   5.764
 3824POPC   GL251410  21.987  30.118   5.904
 3824POPC   C1A51411  22.434  30.311   6.164
 3824POPC   D2A51412  22.348  30.445   6.593
 3824POPC   C3A51413  22.328  30.098   6.916
 3824POPC   C4A51414  22.146  30.035   7.338
 3824POPC   C1B51415  22.160  29.763   6.162
 3824POPC   C2B51416  22.312  29.675   6.592
 3824POPC   C3B51417  22.208  29.567   7.030
 3824POPC   C4B51418  22.260  29.296   7.355
 3825POPC   NC351419  25.467   1.463   5.319
 3825POPC   PO451420  25.269   0.853   5.230
 3825POPC   GL151421  25.234   0.960   5.681
 3825POPC   GL251422  25.487   1.205   5.763
 3825POPC   C1A51423  25.111   0.932   6.148
 3825POPC   D2A51424  25.172   0.888   6.606
 3825POPC   C3A51425  25.033   1.194   6.936
 3825POPC   C4A51426  25.367   1.205   7.144
 3825POPC   C1B51427  25.458   1.308   6.214
 3825POPC   C2B51428  25.376   1.439   6.648
 3825POPC   C3B51429  25.609   1.637   7.018
 3825POPC   C4B51430  25.546   1.547   7.461
 3826POPC   NC351431  20.705  27.599   5.368
 3826POPC   PO451432  20.328  27.109   5.631
 3826POPC   GL151433  20.411  27.517   5.831
 3826POPC   GL251434  20.757  27.680   5.878
 3826POPC   C1A51435  20.356  27.642   6.264
 3826POPC   D2A51436  20.613  27.616   6.620
 3826POPC   C3A51437  20.486  27.342   6.932
 3826POPC   C4A51438  20.470  27.416   7.348
 3826POPC   C1B51439  20.745  27.985   6.201
 3826POPC   C2B51440  20.954  28.056   6.561
 3826POPC   C3B51441  20.818  27.953   6.953
 3826POPC   C4B51442  20.742  27.829   7.369
 3827POPC   NC351443  44.473  37.363   5.345
 3827POPC   PO451444  44.818  37.987   5.264
 3827POPC   GL151445  44.833  37.729   5.653
 3827POPC   GL251446   0.102  37.494   5.647
 3827POPC   C1A51447  44.646  37.662   6.088
 3827POPC   D2A51448  44.424  37.639   6.488
 3827POPC   C3A51449  44.691  37.660   6.864
 3827POPC   C4A51450  44.645  37.538   7.274
 3827POPC   C1B51451   0.117  37.442   6.104
 3827POPC   C2B51452   0.091  37.486   6.556
 3827POPC   C3B51453   0.090  37.228   6.927
 3827POPC   C4B51454  44.999  37.189   7.362
 3828POPC   NC351455  34.048  17.985   5.495
 3828POPC   PO451456  33.546  18.393   5.540
 3828POPC   GL151457  33.840  18.295   5.874
 3828POPC   GL251458  33.778  17.937   5.935
 3828POPC   C1A51459  33.792  18.290   6.330
 3828POPC   D2A51460  33.712  18.062   6.701
 3828POPC   C3A51461  33.835  18.349   7.000
 3828POPC   C4A51462  33.659  18.501   7.368
 3828POPC   C1B51463  34.162  17.987   6.171
 3828POPC   C2B51464  34.212  18.014   6.622
 3828POPC   C3B51465  34.077  17.898   7.065
 3828POPC   C4B51466  34.064  18.202   7.426
 3829POPC   NC351467  29.197  16.163   5.218
 3829POPC   PO451468  29.110  15.492   5.169
 3829POPC   GL151469  29.183  15.824   5.606
 3829POPC   GL251470  29.305  16.101   5.749
 3829POPC   C1A51471  29.165  15.766   6.103
 3829POPC   D2A51472  29.108  15.565   6.507
 3829POPC   C3A51473  29.088  15.823   6.865
 3829POPC   C4A51474  29.071  15.771   7.279
 3829POPC   C1B51475  29.473  16.178   6.133
 3829POPC   C2B51476  29.445  16.015   6.530
 3829POPC   C3B51477  29.474  16.237   6.912
 3829POPC   C4B51478  29.189  16.411   7.209
 3830POPC   NC351479  43.425  32.674   5.362
 3830POPC   PO451480  43.272  32.018   5.429
 3830POPC   GL151481  43.109  32.069   5.837
 3830POPC   GL251482  43.001  32.428   5.927
 3830POPC   C1A51483  43.283  32.038   6.257
 3830POPC   D2A51484  43.528  32.284   6.561
 3830POPC   C3A51485  43.272  32.434   6.919
 3830POPC   C4A51486  43.212  32.301   7.360
 3830POPC   C1B51487  43.086  32.516   6.394
 3830POPC   C2B51488  42.870  32.755   6.740
 3830POPC   C3B51489  42.892  32.701   7.204
 3830POPC   C4B51490  42.987  32.607   7.675
 3831POPC   NC351491   0.239  43.075   5.460
 3831POPC   PO451492   0.734  43.485   5.581
 3831POPC   GL151493   0.642  43.121   5.813
 3831POPC   GL251494   0.324  43.255   5.913
 3831POPC   C1A51495   0.563  42.945   6.239
 3831POPC   D2A51496   0.308  42.946   6.622
 3831POPC   C3A51497   0.410  42.910   7.035
 3831POPC   C4A51498   0.600  43.296   7.064
 3831POPC   C1B51499   0.064  43.405   6.202
 3831POPC   C2B51500   0.204  43.467   6.601
 3831POPC   C3B51501   0.056  43.284   6.938
 3831POPC   C4B51502   0.176  43.339   7.327
 3832POPC   NC351503  36.649  15.841   5.629
 3832POPC   PO451504  37.082  16.375   5.542
 3832POPC   GL151505  36.944  16.177   5.926
 3832POPC   GL251506  36.579  16.269   5.930
 3832POPC   C1A51507  36.958  15.790   6.201
 3832POPC   D2A51508  37.129  15.570   6.568
 3832POPC   C3A51509  37.021  15.747   7.000
 3832POPC   C4A51510  37.010  15.753   7.482
 3832POPC   C1B51511  36.672  16.218   6.375
 3832POPC   C2B51512  36.528  16.103   6.798
 3832POPC   C3B51513  36.672  16.068   7.227
 3832POPC   C4B51514  36.844  16.233   7.594
 3833POPC   NC351515   2.940  42.440   5.275
 3833POPC   PO451516   2.272  42.680   5.421
 3833POPC   GL151517   2.502  42.340   5.698
 3833POPC   GL251518   2.777  42.082   5.618
 3833POPC   C1A51519   2.716  42.361   6.107
 3833POPC   D2A51520   2.837  42.360   6.544
 3833POPC   C3A51521   2.632  42.260   6.957
 3833POPC   C4A51522   2.743  42.452   7.369
 3833POPC   C1B51523   3.032  41.985   6.008
 3833POPC   C2B51524   3.211  41.991   6.467
 3833POPC   C3B51525   3.139  42.166   6.920
 3833POPC   C4B51526   3.041  42.007   7.317
 3834POPC   NC351527  44.817   5.170   5.497
 3834POPC   PO451528  44.235   4.925   5.564
 3834POPC   GL151529  44.403   5.259   5.815
 3834POPC   GL251530  44.665   5.056   5.984
 3834POPC   C1A51531  44.435   5.425   6.240
 3834POPC   D2A51532  44.566   5.121   6.555
 3834POPC   C3A51533  44.663   5.300   6.946
 3834POPC   C4A51534  44.510   5.418   7.322
 3834POPC   C1B51535  44.992   4.834   6.257
 3834POPC   C2B51536   0.255   4.779   6.637
 3834POPC   C3B51537   0.002   4.793   7.018
 3834POPC   C4B51538  44.594   4.862   7.208
 3835POPC   NC351539  32.846  13.561   5.437
 3835POPC   PO451540  33.507  13.731   5.586
 3835POPC   GL151541  33.138  13.703   5.841
 3835POPC   GL251542  32.980  13.356   5.870
 3835POPC   C1A51543  33.048  13.799   6.268
 3835POPC   D2A51544  33.058  14.022   6.660
 3835POPC   C3A51545  32.860  13.831   7.007
 3835POPC   C4A51546  33.032  13.792   7.398
 3835POPC   C1B51547  33.121  13.299   6.284
 3835POPC   C2B51548  32.964  13.418   6.711
 3835POPC   C3B51549  33.058  13.308   7.163
 3835POPC   C4B51550  32.833  13.361   7.566
 3836POPC   NC351551  22.262  27.153   5.221
 3836POPC   PO451552  22.424  26.530   5.432
 3836POPC   GL151553  22.364  26.776   5.794
 3836POPC   GL251554  22.177  27.035   5.707
 3836POPC   C1A51555  22.222  26.774   6.232
 3836POPC   D2A51556  21.943  26.758   6.607
 3836POPC   C3A51557  22.199  26.683   6.983
 3836POPC   C4A51558  22.295  26.931   7.358
 3836POPC   C1B51559  22.058  27.236   6.055
 3836POPC   C2B51560  22.184  27.250   6.472
 3836POPC   C3B51561  22.061  27.165   6.883
 3836POPC   C4B51562  22.013  27.352   7.249
 3837POPC   NC351563   4.555  14.984   5.422
 3837POPC   PO451564   4.138  15.465   5.604
 3837POPC   GL151565   4.282  15.162   5.827
 3837POPC   GL251566   4.085  14.903   5.675
 3837POPC   C1A51567   4.305  15.049   6.250
 3837POPC   D2A51568   4.217  15.244   6.623
 3837POPC   C3A51569   4.526  15.214   6.936
 3837POPC   C4A51570   4.311  15.273   7.319
 3837POPC   C1B51571   3.949  14.753   6.082
 3837POPC   C2B51572   3.991  14.775   6.558
 3837POPC   C3B51573   4.112  14.914   7.010
 3837POPC   C4B51574   4.160  14.774   7.439
 3838POPC   NC351575  41.678  37.828   5.371
 3838POPC   PO451576  41.208  38.159   5.537
 3838POPC   GL151577  41.368  37.757   5.792
 3838POPC   GL251578  41.713  37.589   5.819
 3838POPC   C1A51579  41.354  37.635   6.212
 3838POPC   D2A51580  41.125  37.857   6.533
 3838POPC   C3A51581  41.346  37.707   6.874
 3838POPC   C4A51582  41.465  37.534   7.262
 3838POPC   C1B51583  41.834  37.842   6.186
 3838POPC   C2B51584  41.715  37.990   6.606
 3838POPC   C3B51585  41.817  37.870   7.052
 3838POPC   C4B51586  41.841  37.750   7.521
 3839POPC   NC351587   7.007  31.946   5.416
 3839POPC   PO451588   7.683  32.165   5.509
 3839POPC   GL151589   7.462  32.197   5.862
 3839POPC   GL251590   7.255  31.916   5.895
 3839POPC   C1A51591   7.624  32.016   6.254
 3839POPC   D2A51592   7.449  31.832   6.606
 3839POPC   C3A51593   7.655  31.985   6.962
 3839POPC   C4A51594   7.513  32.279   7.229
 3839POPC   C1B51595   7.139  32.145   6.318
 3839POPC   C2B51596   7.011  32.130   6.793
 3839POPC   C3B51597   7.000  32.223   7.281
 3839POPC   C4B51598   7.144  32.386   7.694
 3840POPC   NC351599  28.475   2.114   5.355
 3840POPC   PO451600  28.032   1.760   5.583
 3840POPC   GL151601  28.286   1.918   5.899
 3840POPC   GL251602  28.455   2.259   5.841
 3840POPC   C1A51603  28.300   1.736   6.330
 3840POPC   D2A51604  28.336   1.934   6.735
 3840POPC   C3A51605  28.079   1.947   7.093
 3840POPC   C4A51606  28.204   1.967   7.495
 3840POPC   C1B51607  28.356   2.275   6.285
 3840POPC   C2B51608  28.560   2.395   6.661
 3840POPC   C3B51609  28.413   2.325   7.074
 3840POPC   C4B51610  28.633   2.248   7.428
 3841POPC   NC351611  38.629   4.662   5.441
 3841POPC   PO451612  38.411   4.074   5.274
 3841POPC   GL151613  38.329   4.180   5.733
 3841POPC   GL251614  38.395   4.536   5.883
 3841POPC   C1A51615  38.290   4.118   6.216
 3841POPC   D2A51616  38.557   4.209   6.588
 3841POPC   C3A51617  38.424   4.242   7.033
 3841POPC   C4A51618  38.647   4.220   7.435
 3841POPC   C1B51619  38.396   4.740   6.316
 3841POPC   C2B51620  38.498   4.708   6.773
 3841POPC   C3B51621  38.697   4.679   7.206
 3841POPC   C4B51622  38.652   4.704   7.673
 3842POPC   NC351623  41.049  38.496   4.974
 3842POPC   PO451624  41.610  38.530   5.391
 3842POPC   GL151625  41.560  38.453   5.803
 3842POPC   GL251626  41.697  38.138   5.795
 3842POPC   C1A51627  41.412  38.653   6.198
 3842POPC   D2A51628  41.345  38.852   6.612
 3842POPC   C3A51629  41.446  38.727   7.035
 3842POPC   C4A51630  41.301  38.643   7.451
 3842POPC   C1B51631  41.395  38.141   6.171
 3842POPC   C2B51632  41.304  38.323   6.578
 3842POPC   C3B51633  41.413  38.204   6.983
 3842POPC   C4B51634  41.519  38.135   7.390
 3843POPC   NC351635  10.918  23.750   5.541
 3843POPC   PO451636  11.364  23.323   5.286
 3843POPC   GL151637  11.443  23.428   5.765
 3843POPC   GL251638  11.221  23.634   5.938
 3843POPC   C1A51639  11.468  23.282   6.207
 3843POPC   D2A51640  11.306  23.304   6.609
 3843POPC   C3A51641  11.473  23.599   6.871
 3843POPC   C4A51642  11.529  23.528   7.278
 3843POPC   C1B51643  11.436  23.787   6.338
 3843POPC   C2B51644  11.337  24.067   6.690
 3843POPC   C3B51645  11.368  24.038   7.159
 3843POPC   C4B51646  11.094  24.160   7.522
 3844POPC   NC351647  11.836  42.608   5.665
 3844POPC   PO451648  12.256  42.230   5.265
 3844POPC   GL151649  12.258  42.301   5.742
 3844POPC   GL251650  12.425  42.563   5.901
 3844POPC   C1A51651  12.094  42.296   6.203
 3844POPC   D2A51652  11.923  42.456   6.619
 3844POPC   C3A51653  11.965  42.168   6.960
 3844POPC   C4A51654  12.189  42.158   7.327
 3844POPC   C1B51655  12.580  42.460   6.285
 3844POPC   C2B51656  12.414  42.267   6.622
 3844POPC   C3B51657  12.369  42.504   6.973
 3844POPC   C4B51658  12.412  42.610   7.400
 3845POPC   NC351659  44.692  43.786   5.203
 3845POPC   PO451660  44.663  44.477   5.336
 3845POPC   GL151661  44.748  44.146   5.631
 3845POPC   GL251662  44.524  43.868   5.681
 3845POPC   C1A51663  44.878  44.101   6.067
 3845POPC   D2A51664  44.876  43.860   6.475
 3845POPC   C3A51665  44.744  44.051   6.863
 3845POPC   C4A51666  44.729  43.868   7.276
 3845POPC   C1B51667  44.567  43.695   6.108
 3845POPC   C2B51668  44.360  43.776   6.520
 3845POPC   C3B51669  44.414  43.653   6.925
 3845POPC   C4B51670  44.251  43.602   7.320
 3846POPC   NC351671  18.281  32.128   5.440
 3846POPC   PO451672  18.579  32.729   5.448
 3846POPC   GL151673  18.375  32.564   5.785
 3846POPC   GL251674  18.593  32.290   5.820
 3846POPC   C1A51675  18.286  32.514   6.229
 3846POPC   D2A51676  18.019  32.280   6.498
 3846POPC   C3A51677  17.928  32.425   6.919
 3846POPC   C4A51678  18.059  32.266   7.288
 3846POPC   C1B51679  18.719  32.229   6.259
 3846POPC   C2B51680  18.521  32.311   6.654
 3846POPC   C3B51681  18.491  32.460   7.068
 3846POPC   C4B51682  18.480  32.368   7.535
 3847POPC   NC351683  43.639   7.667   5.328
 3847POPC   PO451684  44.113   7.180   5.214
 3847POPC   GL151685  43.820   7.307   5.645
 3847POPC   GL251686  43.506   7.515   5.791
 3847POPC   C1A51687  43.882   7.413   6.125
 3847POPC   D2A51688  44.000   7.281   6.529
 3847POPC   C3A51689  44.155   7.518   6.878
 3847POPC   C4A51690  44.120   7.202   7.197
 3847POPC   C1B51691  43.390   7.363   6.207
 3847POPC   C2B51692  43.477   7.218   6.657
 3847POPC   C3B51693  43.631   7.453   7.035
 3847POPC   C4B51694  43.506   7.805   7.309
 3848POPC   NC351695   4.105  14.249   5.643
 3848POPC   PO451696   4.602  13.691   5.473
 3848POPC   GL151697   4.368  13.723   5.814
 3848POPC   GL251698   4.511  14.065   5.882
 3848POPC   C1A51699   4.400  13.454   6.193
 3848POPC   D2A51700   4.192  13.223   6.526
 3848POPC   C3A51701   4.167  13.407   6.905
 3848POPC   C4A51702   4.287  13.447   7.298
 3848POPC   C1B51703   4.249  13.949   6.247
 3848POPC   C2B51704   4.391  13.775   6.623
 3848POPC   C3B51705   4.216  13.906   6.983
 3848POPC   C4B51706   3.953  13.838   7.308
 3849POPC   NC351707  41.895  34.595   5.487
 3849POPC   PO451708  41.245  34.643   5.401
 3849POPC   GL151709  41.490  34.702   5.819
 3849POPC   GL251710  41.838  34.909   5.877
 3849POPC   C1A51711  41.323  34.650   6.255
 3849POPC   D2A51712  41.207  34.832   6.673
 3849POPC   C3A51713  41.431  34.695   7.053
 3849POPC   C4A51714  41.438  34.768   7.522
 3849POPC   C1B51715  41.849  34.543   6.171
 3849POPC   C2B51716  41.674  34.514   6.607
 3849POPC   C3B51717  41.928  34.592   6.944
 3849POPC   C4B51718  41.876  34.875   7.272
 3850POPC   NC351719  17.608  35.716   5.553
 3850POPC   PO451720  17.126  36.089   5.559
 3850POPC   GL151721  17.313  36.086   5.979
 3850POPC   GL251722  17.654  36.156   5.932
 3850POPC   C1A51723  17.537  36.084   6.417
 3850POPC   D2A51724  17.872  36.066   6.721
 3850POPC   C3A51725  17.670  36.097   7.121
 3850POPC   C4A51726  17.186  35.984   7.168
 3850POPC   C1B51727  17.396  36.520   6.199
 3850POPC   C2B51728  17.212  36.440   6.637
 3850POPC   C3B51729  17.326  36.481   7.089
 3850POPC   C4B51730  17.471  36.653   7.505
 3851POPC   NC351731  39.931  13.287   5.432
 3851POPC   PO451732  40.273  13.827   5.458
 3851POPC   GL151733  40.188  13.612   5.853
 3851POPC   GL251734  39.844  13.514   5.876
 3851POPC   C1A51735  40.141  13.566   6.317
 3851POPC   D2A51736  39.908  13.516   6.699
 3851POPC   C3A51737  40.101  13.639   7.077
 3851POPC   C4A51738  40.376  13.535   7.447
 3851POPC   C1B51739  39.613  13.566   6.270
 3851POPC   C2B51740  39.397  13.681   6.648
 3851POPC   C3B51741  39.567  13.649   7.051
 3851POPC   C4B51742  39.675  13.213   7.109
 3852POPC   NC351743   1.635  37.036   5.316
 3852POPC   PO451744   2.144  36.562   5.361
 3852POPC   GL151745   2.057  36.833   5.692
 3852POPC   GL251746   1.786  36.647   5.730
 3852POPC   C1A51747   2.124  36.899   6.160
 3852POPC   D2A51748   2.240  36.671   6.571
 3852POPC   C3A51749   2.200  36.805   7.030
 3852POPC   C4A51750   2.191  37.176   7.307
 3852POPC   C1B51751   1.650  36.713   6.136
 3852POPC   C2B51752   1.743  36.853   6.522
 3852POPC   C3B51753   1.798  37.071   6.866
 3852POPC   C4B51754   1.741  36.956   7.283
 3853POPC   NC351755  18.290  25.632   5.595
 3853POPC   PO451756  18.409  26.258   5.381
 3853POPC   GL151757  18.427  26.096   5.751
 3853POPC   GL251758  18.724  25.893   5.715
 3853POPC   C1A51759  18.401  26.194   6.157
 3853POPC   D2A51760  18.274  26.295   6.566
 3853POPC   C3A51761  18.162  26.078   6.910
 3853POPC   C4A51762  18.080  26.152   7.332
 3853POPC   C1B51763  18.581  25.721   6.127
 3853POPC   C2B51764  18.472  25.833   6.521
 3853POPC   C3B51765  18.650  25.932   6.886
 3853POPC   C4B51766  18.577  26.109   7.254
 3854POPC   NC351767  32.638  36.188   5.478
 3854POPC   PO451768  31.998  36.190   5.443
 3854POPC   GL151769  31.979  35.934   5.845
 3854POPC   GL251770  32.350  35.937   5.851
 3854POPC   C1A51771  32.016  35.859   6.306
 3854POPC   D2A51772  32.322  35.893   6.607
 3854POPC   C3A51773  32.227  36.025   7.004
 3854POPC   C4A51774  32.021  36.371   7.145
 3854POPC   C1B51775  32.307  36.244   6.166
 3854POPC   C2B51776  32.516  36.407   6.497
 3854POPC   C3B51777  32.489  36.490   6.917
 3854POPC   C4B51778  32.553  36.330   7.315
 3855POPC   NC351779  18.955  27.240   5.359
 3855POPC   PO451780  19.191  27.888   5.375
 3855POPC   GL151781  19.078  27.654   5.767
 3855POPC   GL251782  19.204  27.320   5.791
 3855POPC   C1A51783  18.957  27.665   6.213
 3855POPC   D2A51784  18.667  27.769   6.556
 3855POPC   C3A51785  18.930  27.763   6.945
 3855POPC   C4A51786  19.121  27.378   7.116
 3855POPC   C1B51787  19.364  27.305   6.191
 3855POPC   C2B51788  19.207  27.209   6.597
 3855POPC   C3B51789  19.511  27.157   6.881
 3855POPC   C4B51790  19.649  27.200   7.268
 3856POPC   NC351791  30.515  32.661   5.581
 3856POPC   PO451792  30.740  32.114   5.231
 3856POPC   GL151793  30.725  32.168   5.702
 3856POPC   GL251794  31.051  32.291   5.817
 3856POPC   C1A51795  30.636  32.324   6.149
 3856POPC   D2A51796  30.927  32.367   6.516
 3856POPC   C3A51797  30.754  32.296   6.932
 3856POPC   C4A51798  30.485  32.472   7.235
 3856POPC   C1B51799  31.050  31.992   6.167
 3856POPC   C2B51800  31.094  31.880   6.621
 3856POPC   C3B51801  31.120  31.974   7.063
 3856POPC   C4B51802  30.949  32.191   7.456
 3857POPC   NC351803  34.802  31.344   5.207
 3857POPC   PO451804  35.521  31.494   5.354
 3857POPC   GL151805  35.385  31.561   5.757
 3857POPC   GL251806  35.716  31.449   5.858
 3857POPC   C1A51807  35.302  31.461   6.180
 3857POPC   D2A51808  35.118  31.538   6.555
 3857POPC   C3A51809  35.264  31.258   6.858
 3857POPC   C4A51810  35.384  31.111   7.270
 3857POPC   C1B51811  35.807  31.587   6.286
 3857POPC   C2B51812  35.623  31.634   6.672
 3857POPC   C3B51813  35.452  31.698   7.059
 3857POPC   C4B51814  35.614  31.555   7.413
 3858POPC   NC351815   3.436   0.886   5.382
 3858POPC   PO451816   3.319   1.455   5.329
 3858POPC   GL151817   3.498   1.276   5.734
 3858POPC   GL251818   3.368   0.947   5.877
 3858POPC   C1A51819   3.646   1.348   6.165
 3858POPC   D2A51820   3.832   1.573   6.533
 3858POPC   C3A51821   3.734   1.391   6.907
 3858POPC   C4A51822   3.433   1.407   7.227
 3858POPC   C1B51823   3.693   0.821   6.180
 3858POPC   C2B51824   3.809   1.022   6.546
 3858POPC   C3B51825   3.638   0.890   6.950
 3858POPC   C4B51826   3.801   1.056   7.337
 3859POPC   NC351827  40.162  18.369   5.421
 3859POPC   PO451828  39.774  17.845   5.457
 3859POPC   GL151829  39.729  18.140   5.808
 3859POPC   GL251830  40.062  18.078   5.846
 3859POPC   C1A51831  39.904  18.399   6.195
 3859POPC   D2A51832  40.105  18.263   6.596
 3859POPC   C3A51833  39.959  18.532   6.913
 3859POPC   C4A51834  39.814  18.649   7.325
 3859POPC   C1B51835  39.911  17.886   6.243
 3859POPC   C2B51836  39.850  17.742   6.675
 3859POPC   C3B51837  40.001  17.893   7.057
 3859POPC   C4B51838  40.086  18.224   7.290
 3860POPC   NC351839  32.782   2.115   5.287
 3860POPC   PO451840  32.129   2.041   5.161
 3860POPC   GL151841  32.209   2.092   5.612
 3860POPC   GL251842  32.455   1.846   5.687
 3860POPC   C1A51843  32.253   2.155   6.092
 3860POPC   D2A51844  32.024   2.093   6.519
 3860POPC   C3A51845  32.220   1.986   6.930
 3860POPC   C4A51846  32.577   2.104   7.211
 3860POPC   C1B51847  32.710   1.875   6.063
 3860POPC   C2B51848  32.572   1.948   6.497
 3860POPC   C3B51849  32.662   1.706   6.892
 3860POPC   C4B51850  32.396   1.613   7.270
 3861POPC   NC351851  31.252  34.136   5.466
 3861POPC   PO451852  31.685  34.535   5.346
 3861POPC   GL151853  31.524  34.725   5.756
 3861POPC   GL251854  31.823  34.916   5.924
 3861POPC   C1A51855  31.380  34.701   6.185
 3861POPC   D2A51856  31.467  34.894   6.594
 3861POPC   C3A51857  31.319  34.671   6.947
 3861POPC   C4A51858  31.181  34.245   7.023
 3861POPC   C1B51859  31.865  34.509   6.140
 3861POPC   C2B51860  31.691  34.413   6.541
 3861POPC   C3B51861  31.796  34.438   6.963
 3861POPC   C4B51862  31.987  34.196   7.314
 3862POPC   NC351863  38.782  21.683   5.419
 3862POPC   PO451864  38.268  21.294   5.300
 3862POPC   GL151865  38.381  21.350   5.753
 3862POPC   GL251866  38.731  21.380   5.823
 3862POPC   C1A51867  38.392  21.546   6.179
 3862POPC   D2A51868  38.656  21.644   6.533
 3862POPC   C3A51869  38.478  21.640   6.942
 3862POPC   C4A51870  38.659  21.712   7.347
 3862POPC   C1B51871  38.724  21.031   6.122
 3862POPC   C2B51872  38.643  20.878   6.531
 3862POPC   C3B51873  38.737  20.937   6.966
 3862POPC   C4B51874  38.557  21.226   7.260
 3863POPC   NC351875  40.971  37.629   5.464
 3863POPC   PO451876  40.342  37.809   5.589
 3863POPC   GL151877  40.536  37.883   5.958
 3863POPC   GL251878  40.902  37.891   5.946
 3863POPC   C1A51879  40.409  37.718   6.348
 3863POPC   D2A51880  40.519  37.448   6.653
 3863POPC   C3A51881  40.726  37.762   6.920
 3863POPC   C4A51882  40.586  37.923   7.337
 3863POPC   C1B51883  40.862  37.524   6.214
 3863POPC   C2B51884  41.016  37.379   6.637
 3863POPC   C3B51885  41.027  37.363   7.098
 3863POPC   C4B51886  40.970  37.470   7.540
 3864POPC   NC351887   9.230   5.166   5.362
 3864POPC   PO451888   9.777   5.031   5.529
 3864POPC   GL151889   9.712   4.997   5.982
 3864POPC   GL251890  10.014   4.823   6.040
 3864POPC   C1A51891   9.650   4.794   6.417
 3864POPC   D2A51892   9.838   4.668   6.828
 3864POPC   C3A51893   9.649   4.937   7.146
 3864POPC   C4A51894   9.375   4.912   7.538
 3864POPC   C1B51895  10.136   4.930   6.464
 3864POPC   C2B51896   9.950   5.178   6.786
 3864POPC   C3B51897  10.084   5.221   7.209
 3864POPC   C4B51898  10.359   4.944   7.480
 3865POPC   NC351899  41.836  15.650   5.421
 3865POPC   PO451900  42.383  16.050   5.392
 3865POPC   GL151901  42.340  15.900   5.792
 3865POPC   GL251902  41.984  15.985   5.889
 3865POPC   C1A51903  42.602  16.039   6.125
 3865POPC   D2A51904  42.596  16.262   6.499
 3865POPC   C3A51905  42.416  16.092   6.870
 3865POPC   C4A51906  42.558  15.744   7.136
 3865POPC   C1B51907  42.104  16.184   6.300
 3865POPC   C2B51908  42.131  16.495   6.641
 3865POPC   C3B51909  42.131  16.450   7.102
 3865POPC   C4B51910  42.231  16.320   7.571
 3866POPC   NC351911  40.345  30.015   5.185
 3866POPC   PO451912  40.880  29.666   5.419
 3866POPC   GL151913  40.606  29.803   5.703
 3866POPC   GL251914  40.864  29.937   5.873
 3866POPC   C1A51915  40.451  29.739   6.127
 3866POPC   D2A51916  40.555  29.881   6.543
 3866POPC   C3A51917  40.918  29.819   6.788
 3866POPC   C4A51918  40.693  29.791   7.184
 3866POPC   C1B51919  41.094  30.041   6.222
 3866POPC   C2B51920  41.339  30.064   6.563
 3866POPC   C3B51921  41.227  30.246   6.953
 3866POPC   C4B51922  40.983  30.193   7.318
 3867POPC   NC351923  26.037   2.846   5.205
 3867POPC   PO451924  25.554   2.916   5.678
 3867POPC   GL151925  25.910   2.676   5.858
 3867POPC   GL251926  26.277   2.676   5.731
 3867POPC   C1A51927  25.985   2.434   6.232
 3867POPC   D2A51928  26.245   2.400   6.615
 3867POPC   C3A51929  26.057   2.564   7.020
 3867POPC   C4A51930  26.022   2.446   7.465
 3867POPC   C1B51931  26.374   2.777   6.210
 3867POPC   C2B51932  26.237   2.908   6.664
 3867POPC   C3B51933  26.282   3.034   7.128
 3867POPC   C4B51934  26.098   3.375   7.421
 3868POPC   NC351935  28.690  40.118   5.429
 3868POPC   PO451936  28.249  39.727   5.738
 3868POPC   GL151937  28.331  40.060   5.998
 3868POPC   GL251938  28.663  40.018   5.918
 3868POPC   C1A51939  28.276  40.083   6.455
 3868POPC   D2A51940  28.322  39.762   6.810
 3868POPC   C3A51941  28.177  39.965   7.186
 3868POPC   C4A51942  27.874  40.247   7.394
 3868POPC   C1B51943  28.701  40.322   6.242
 3868POPC   C2B51944  28.755  40.145   6.638
 3868POPC   C3B51945  28.654  40.089   7.058
 3868POPC   C4B51946  28.606  40.320   7.413
 3869POPC   NC351947  34.595  34.253   5.326
 3869POPC   PO451948  34.830  33.582   5.374
 3869POPC   GL151949  34.620  33.745   5.749
 3869POPC   GL251950  34.304  33.551   5.845
 3869POPC   C1A51951  34.806  33.917   6.143
 3869POPC   D2A51952  34.654  34.089   6.547
 3869POPC   C3A51953  34.832  34.059   6.955
 3869POPC   C4A51954  34.707  33.751   7.245
 3869POPC   C1B51955  34.371  33.625   6.263
 3869POPC   C2B51956  34.400  33.645   6.683
 3869POPC   C3B51957  34.312  33.960   6.969
 3869POPC   C4B51958  34.141  33.872   7.335
 3870POPC   NC351959  15.400  30.295   5.108
 3870POPC   PO451960  15.176  30.927   5.271
 3870POPC   GL151961  15.408  30.838   5.628
 3870POPC   GL251962  15.122  30.627   5.731
 3870POPC   C1A51963  15.367  30.963   6.065
 3870POPC   D2A51964  15.349  31.012   6.522
 3870POPC   C3A51965  15.519  30.625   6.739
 3870POPC   C4A51966  15.561  30.531   7.174
 3870POPC   C1B51967  15.031  30.583   6.178
 3870POPC   C2B51968  15.020  30.631   6.618
 3870POPC   C3B51969  15.079  30.691   7.067
 3870POPC   C4B51970  14.880  30.404   7.356
 3871POPC   NC351971  32.817  10.906   5.311
 3871POPC   PO451972  33.267  10.378   5.532
 3871POPC   GL151973  33.146  10.538   5.913
 3871POPC   GL251974  32.814  10.586   5.826
 3871POPC   C1A51975  33.101  10.604   6.368
 3871POPC   D2A51976  32.954  10.929   6.635
 3871POPC   C3A51977  32.847  10.927   7.084
 3871POPC   C4A51978  32.979  10.771   7.477
 3871POPC   C1B51979  32.769  10.267   6.138
 3871POPC   C2B51980  32.650  10.350   6.546
 3871POPC   C3B51981  32.825  10.451   6.902
 3871POPC   C4B51982  32.757  10.353   7.307
 3872POPC   NC351983  41.123  35.253   5.022
 3872POPC   PO451984  40.624  35.321   5.452
 3872POPC   GL151985  40.585  35.257   5.862
 3872POPC   GL251986  40.603  34.920   5.880
 3872POPC   C1A51987  40.560  35.458   6.254
 3872POPC   D2A51988  40.808  35.661   6.581
 3872POPC   C3A51989  40.617  35.558   6.924
 3872POPC   C4A51990  40.669  35.379   7.307
 3872POPC   C1B51991  40.882  34.989   6.228
 3872POPC   C2B51992  40.772  35.138   6.614
 3872POPC   C3B51993  40.778  34.946   7.008
 3872POPC   C4B51994  40.985  34.965   7.381
 3873POPC   NC351995  37.858   6.383   5.249
 3873POPC   PO451996  37.433   6.975   5.376
 3873POPC   GL151997  37.586   6.878   5.821
 3873POPC   GL251998  37.745   6.573   5.745
 3873POPC   C1A51999  37.547   6.687   6.236
 3873POPC   D2A52000  37.514   6.490   6.627
 3873POPC   C3A52001  37.656   6.726   6.931
 3873POPC   C4A52002  37.395   6.942   7.205
 3873POPC   C1B52003  37.975   6.431   6.125
 3873POPC   C2B52004  38.023   6.534   6.547
 3873POPC   C3B52005  38.020   6.372   6.982
 3873POPC   C4B52006  38.199   6.410   7.390
 3874POPC   NC352007  13.022  41.094   5.453
 3874POPC   PO452008  12.783  40.556   5.414
 3874POPC   GL152009  12.872  40.714   5.823
 3874POPC   GL252010  13.007  40.385   5.870
 3874POPC   C1A52011  12.766  40.928   6.255
 3874POPC   D2A52012  12.571  40.935   6.695
 3874POPC   C3A52013  12.851  40.903   7.090
 3874POPC   C4A52014  12.879  40.902   7.565
 3874POPC   C1B52015  13.118  40.555   6.260
 3874POPC   C2B52016  12.982  40.627   6.659
 3874POPC   C3B52017  13.106  40.443   7.038
 3874POPC   C4B52018  12.856  40.318   7.351
 3875POPC   NC352019  35.125  16.551   5.341
 3875POPC   PO452020  35.591  17.050   5.172
 3875POPC   GL152021  35.399  16.915   5.591
 3875POPC   GL252022  35.116  17.060   5.692
 3875POPC   C1A52023  35.337  16.733   6.035
 3875POPC   D2A52024  35.425  16.826   6.481
 3875POPC   C3A52025  35.243  16.648   6.865
 3875POPC   C4A52026  35.452  16.792   7.243
 3875POPC   C1B52027  34.984  17.120   6.111
 3875POPC   C2B52028  34.914  16.918   6.515
 3875POPC   C3B52029  34.849  17.011   6.942
 3875POPC   C4B52030  34.957  16.781   7.293
 3876POPC   NC352031  29.035  29.437   5.061
 3876POPC   PO452032  29.512  29.048   5.356
 3876POPC   GL152033  29.144  29.088   5.711
 3876POPC   GL252034  29.387  29.130   5.940
 3876POPC   C1A52035  28.874  29.119   6.111
 3876POPC   D2A52036  28.893  29.004   6.581
 3876POPC   C3A52037  29.088  29.302   6.882
 3876POPC   C4A52038  29.093  29.342   7.352
 3876POPC   C1B52039  29.274  28.860   6.281
 3876POPC   C2B52040  29.354  28.753   6.692
 3876POPC   C3B52041  29.265  28.890   7.107
 3876POPC   C4B52042  29.554  29.151   7.303
 3877POPC   NC352043  41.181  21.082   5.604
 3877POPC   PO452044  40.533  21.202   5.561
 3877POPC   GL152045  40.770  21.419   5.822
 3877POPC   GL252046  40.656  21.738   5.709
 3877POPC   C1A52047  40.779  21.327   6.264
 3877POPC   D2A52048  40.578  21.150   6.635
 3877POPC   C3A52049  40.726  21.282   7.037
 3877POPC   C4A52050  40.966  21.408   7.388
 3877POPC   C1B52051  40.432  21.687   6.102
 3877POPC   C2B52052  40.364  21.836   6.497
 3877POPC   C3B52053  40.410  21.656   6.889
 3877POPC   C4B52054  40.567  21.702   7.294
 3878POPC   NC352055  38.850  40.321   5.519
 3878POPC   PO452056  38.696  39.589   5.427
 3878POPC   GL152057  38.544  39.727   5.820
 3878POPC   GL252058  38.523  40.082   5.804
 3878POPC   C1A52059  38.514  39.807   6.249
 3878POPC   D2A52060  38.206  39.881   6.568
 3878POPC   C3A52061  38.412  39.872   6.954
 3878POPC   C4A52062  38.579  39.520   7.176
 3878POPC   C1B52063  38.818  40.207   6.149
 3878POPC   C2B52064  38.673  40.173   6.558
 3878POPC   C3B52065  38.609  40.391   6.926
 3878POPC   C4B52066  38.362  40.308   7.281
 3879POPC   NC352067  15.761  33.123   5.378
 3879POPC   PO452068  16.247  33.408   5.702
 3879POPC   GL152069  16.187  33.057   5.931
 3879POPC   GL252070  16.204  32.729   5.783
 3879POPC   C1A52071  16.214  33.013   6.340
 3879POPC   D2A52072  16.043  33.142   6.718
 3879POPC   C3A52073  16.190  33.188   7.119
 3879POPC   C4A52074  16.009  33.083   7.525
 3879POPC   C1B52075  15.936  32.639   6.146
 3879POPC   C2B52076  15.896  32.665   6.597
 3879POPC   C3B52077  15.919  32.752   7.052
 3879POPC   C4B52078  15.694  32.722   7.430
 3880POPC   NC352079  40.341  33.375   5.593
 3880POPC   PO452080  39.785  32.965   5.457
 3880POPC   GL152081  39.996  32.932   5.871
 3880POPC   GL252082  40.200  33.203   6.074
 3880POPC   C1A52083  40.101  32.735   6.246
 3880POPC   D2A52084  40.175  32.878   6.643
 3880POPC   C3A52085  40.141  33.076   7.009
 3880POPC   C4A52086  40.212  32.993   7.432
 3880POPC   C1B52087  39.795  33.140   6.307
 3880POPC   C2B52088  39.683  33.143   6.755
 3880POPC   C3B52089  39.696  33.216   7.204
 3880POPC   C4B52090  39.597  33.078   7.656
 3881POPC   NC352091  43.449   1.168   5.342
 3881POPC   PO452092  42.828   1.199   5.331
 3881POPC   GL152093  43.088   1.057   5.677
 3881POPC   GL252094  43.068   1.374   5.852
 3881POPC   C1A52095  43.200   0.933   6.096
 3881POPC   D2A52096  43.169   1.088   6.506
 3881POPC   C3A52097  43.255   0.983   6.938
 3881POPC   C4A52098  43.132   1.196   7.379
 3881POPC   C1B52099  42.873   1.428   6.283
 3881POPC   C2B52100  42.746   1.584   6.718
 3881POPC   C3B52101  42.807   1.607   7.199
 3881POPC   C4B52102  42.892   1.561   7.661
 3882POPC   NC352103   4.823   6.867   5.339
 3882POPC   PO452104   5.234   6.520   5.614
 3882POPC   GL152105   4.836   6.562   5.781
 3882POPC   GL252106   4.640   6.249   5.766
 3882POPC   C1A52107   4.831   6.603   6.225
 3882POPC   D2A52108   5.093   6.780   6.558
 3882POPC   C3A52109   5.095   6.600   6.951
 3882POPC   C4A52110   5.014   6.871   7.278
 3882POPC   C1B52111   4.787   6.087   6.161
 3882POPC   C2B52112   4.923   6.212   6.590
 3882POPC   C3B52113   4.716   6.236   6.987
 3882POPC   C4B52114   4.856   6.397   7.385
 3883POPC   NC352115  18.562  14.935   5.348
 3883POPC   PO452116  17.924  15.343   5.382
 3883POPC   GL152117  18.150  15.404   5.760
 3883POPC   GL252118  18.492  15.286   5.725
 3883POPC   C1A52119  18.090  15.453   6.197
 3883POPC   D2A52120  17.961  15.459   6.621
 3883POPC   C3A52121  17.853  15.155   6.957
 3883POPC   C4A52122  17.955  15.396   7.305
 3883POPC   C1B52123  18.491  15.123   6.152
 3883POPC   C2B52124  18.226  15.040   6.520
 3883POPC   C3B52125  18.330  15.239   6.921
 3883POPC   C4B52126  18.421  15.163   7.329
 3884POPC   NC352127  35.106  33.962   5.459
 3884POPC   PO452128  35.758  33.838   5.533
 3884POPC   GL152129  35.466  33.780   5.820
 3884POPC   GL252130  35.136  33.605   5.815
 3884POPC   C1A52131  35.430  34.002   6.188
 3884POPC   D2A52132  35.154  33.989   6.526
 3884POPC   C3A52133  35.243  33.771   6.859
 3884POPC   C4A52134  35.322  33.955   7.250
 3884POPC   C1B52135  35.305  33.510   6.224
 3884POPC   C2B52136  35.585  33.296   6.487
 3884POPC   C3B52137  35.425  33.266   6.890
 3884POPC   C4B52138  35.196  33.467   7.246
 3885POPC   NC352139  25.791  33.960   4.984
 3885POPC   PO452140  26.008  33.517   5.380
 3885POPC   GL152141  26.167  33.680   5.812
 3885POPC   GL252142  26.409  33.939   5.816
 3885POPC   C1A52143  26.033  33.764   6.241
 3885POPC   D2A52144  25.820  33.612   6.626
 3885POPC   C3A52145  25.979  33.496   7.036
 3885POPC   C4A52146  26.061  33.656   7.460
 3885POPC   C1B52147  26.536  33.882   6.267
 3885POPC   C2B52148  26.325  33.766   6.672
 3885POPC   C3B52149  26.317  33.918   7.105
 3885POPC   C4B52150  26.384  34.052   7.532
 3886POPC   NC352151  35.082  13.914   5.393
 3886POPC   PO452152  34.429  13.849   5.266
 3886POPC   GL152153  34.556  13.718   5.695
 3886POPC   GL252154  34.925  13.614   5.781
 3886POPC   C1A52155  34.518  13.581   6.135
 3886POPC   D2A52156  34.541  13.764   6.549
 3886POPC   C3A52157  34.363  13.503   6.840
 3886POPC   C4A52158  34.422  13.400   7.234
 3886POPC   C1B52159  35.044  13.482   6.194
 3886POPC   C2B52160  35.000  13.502   6.629
 3886POPC   C3B52161  34.854  13.542   7.016
 3886POPC   C4B52162  34.738  13.733   7.425
 3887POPC   NC352163  18.884  11.758   5.350
 3887POPC   PO452164  19.131  11.111   5.555
 3887POPC   GL152165  18.935  11.295   5.883
 3887POPC   GL252166  19.254  11.369   6.087
 3887POPC   C1A52167  18.762  11.488   6.238
 3887POPC   D2A52168  18.964  11.446   6.624
 3887POPC   C3A52169  18.806  11.621   7.028
 3887POPC   C4A52170  19.060  11.700   7.415
 3887POPC   C1B52171  19.138  10.939   6.211
 3887POPC   C2B52172  19.283  10.666   6.550
 3887POPC   C3B52173  19.297  10.889   6.926
 3887POPC   C4B52174  19.239  11.342   7.067
 3888POPC   NC352175  38.348  11.568   5.553
 3888POPC   PO452176  38.464  10.962   5.414
 3888POPC   GL152177  38.392  11.120   5.840
 3888POPC   GL252178  38.632  11.380   5.916
 3888POPC   C1A52179  38.318  11.168   6.298
 3888POPC   D2A52180  38.492  11.375   6.670
 3888POPC   C3A52181  38.476  11.171   7.090
 3888POPC   C4A52182  38.646  11.107   7.577
 3888POPC   C1B52183  38.645  11.663   6.258
 3888POPC   C2B52184  38.659  11.875   6.645
 3888POPC   C3B52185  38.608  11.677   7.060
 3888POPC   C4B52186  38.802  11.606   7.454
 3889POPC   NC352187  25.122  42.146   5.528
 3889POPC   PO452188  25.645  42.468   5.393
 3889POPC   GL152189  25.418  42.487   5.767
 3889POPC   GL252190  25.061  42.625   5.779
 3889POPC   C1A52191  25.317  42.295   6.160
 3889POPC   D2A52192  25.045  42.423   6.475
 3889POPC   C3A52193  25.237  42.623   6.799
 3889POPC   C4A52194  25.253  42.398   7.139
 3889POPC   C1B52195  24.844  42.780   6.169
 3889POPC   C2B52196  24.751  42.798   6.648
 3889POPC   C3B52197  24.772  42.585   7.076
 3889POPC   C4B52198  24.985  42.606   7.509
 3890POPC   NC352199  15.027  16.002   5.328
 3890POPC   PO452200  14.699  15.488   5.635
 3890POPC   GL152201  15.017  15.699   5.863
 3890POPC   GL252202  15.198  16.003   5.816
 3890POPC   C1A52203  15.095  15.728   6.285
 3890POPC   D2A52204  14.995  16.023   6.588
 3890POPC   C3A52205  15.236  15.946   6.934
 3890POPC   C4A52206  15.148  15.817   7.326
 3890POPC   C1B52207  15.447  16.281   6.101
 3890POPC   C2B52208  15.456  16.239   6.552
 3890POPC   C3B52209  15.583  16.309   7.006
 3890POPC   C4B52210  15.348  16.271   7.437
 3891POPC   NC352211  36.785  28.044   5.416
 3891POPC   PO452212  37.078  28.681   5.370
 3891POPC   GL152213  36.954  28.443   5.734
 3891POPC   GL252214  37.189  28.155   5.779
 3891POPC   C1A52215  36.831  28.266   6.123
 3891POPC   D2A52216  37.017  28.209   6.528
 3891POPC   C3A52217  36.811  28.298   6.936
 3891POPC   C4A52218  36.715  28.278   7.341
 3891POPC   C1B52219  37.335  28.402   6.130
 3891POPC   C2B52220  37.418  28.489   6.564
 3891POPC   C3B52221  37.306  28.263   6.950
 3891POPC   C4B52222  37.200  28.428   7.338
 3892POPC   NC352223  33.216  16.168   4.906
 3892POPC   PO452224  33.005  16.513   5.370
 3892POPC   GL152225  33.099  16.681   5.741
 3892POPC   GL252226  33.420  16.737   5.698
 3892POPC   C1A52227  33.025  16.576   6.172
 3892POPC   D2A52228  33.066  16.715   6.598
 3892POPC   C3A52229  33.020  16.509   6.983
 3892POPC   C4A52230  33.028  16.885   7.249
 3892POPC   C1B52231  33.365  16.989   6.095
 3892POPC   C2B52232  33.404  17.200   6.514
 3892POPC   C3B52233  33.431  17.029   6.931
 3892POPC   C4B52234  33.525  17.131   7.358
 3893POPC   NC352235   7.294  44.559   5.344
 3893POPC   PO452236   7.938  44.770   5.394
 3893POPC   GL152237   7.808  44.564   5.722
 3893POPC   GL252238   7.506  44.714   5.785
 3893POPC   C1A52239   7.796  44.519   6.155
 3893POPC   D2A52240   7.685  44.768   6.501
 3893POPC   C3A52241   7.563  44.432   6.801
 3893POPC   C4A52242   7.510  44.438   7.246
 3893POPC   C1B52243   7.283  44.595   6.174
 3893POPC   C2B52244   7.196  44.763   6.569
 3893POPC   C3B52245   7.335  44.839   6.965
 3893POPC   C4B52246   7.013  44.581   7.207
 3894POPC   NC352247   6.551  19.309   5.312
 3894POPC   PO452248   6.453  19.966   5.338
 3894POPC   GL152249   6.637  19.756   5.750
 3894POPC   GL252250   6.475  19.425   5.884
 3894POPC   C1A52251   6.697  19.812   6.238
 3894POPC   D2A52252   6.481  19.736   6.662
 3894POPC   C3A52253   6.577  19.751   7.116
 3894POPC   C4A52254   6.287  20.009   7.338
 3894POPC   C1B52255   6.325  19.215   6.289
 3894POPC   C2B52256   6.228  19.268   6.738
 3894POPC   C3B52257   6.310  19.091   7.155
 3894POPC   C4B52258   6.492  19.294   7.533
 3895POPC   NC352259  36.124   4.547   5.388
 3895POPC   PO452260  36.035   3.973   5.491
 3895POPC   GL152261  35.875   4.271   5.821
 3895POPC   GL252262  35.940   4.637   5.858
 3895POPC   C1A52263  35.925   4.322   6.271
 3895POPC   D2A52264  36.132   4.095   6.581
 3895POPC   C3A52265  36.027   4.208   7.001
 3895POPC   C4A52266  36.254   4.253   7.387
 3895POPC   C1B52267  35.854   4.824   6.276
 3895POPC   C2B52268  35.820   4.663   6.721
 3895POPC   C3B52269  36.011   4.685   7.156
 3895POPC   C4B52270  35.935   4.599   7.591
 3896POPC   NC352271   3.553  33.429   5.718
 3896POPC   PO452272   3.581  32.904   5.347
 3896POPC   GL152273   3.486  32.900   5.792
 3896POPC   GL252274   3.167  33.075   5.775
 3896POPC   C1A52275   3.487  32.956   6.272
 3896POPC   D2A52276   3.773  33.022   6.643
 3896POPC   C3A52277   3.655  33.107   7.044
 3896POPC   C4A52278   3.511  32.827   7.326
 3896POPC   C1B52279   3.037  32.755   6.072
 3896POPC   C2B52280   3.035  32.800   6.507
 3896POPC   C3B52281   3.276  32.788   6.880
 3896POPC   C4B52282   3.074  32.616   7.228
 3897POPC   NC352283  22.600  29.666   5.437
 3897POPC   PO452284  23.231  29.763   5.744
 3897POPC   GL152285  22.814  29.918   5.829
 3897POPC   GL252286  22.800  30.275   5.751
 3897POPC   C1A52287  22.664  29.856   6.237
 3897POPC   D2A52288  23.066  29.783   6.459
 3897POPC   C3A52289  23.180  29.948   6.842
 3897POPC   C4A52290  23.072  29.940   7.237
 3897POPC   C1B52291  22.979  30.251   6.190
 3897POPC   C2B52292  22.799  30.201   6.601
 3897POPC   C3B52293  22.800  30.318   7.009
 3897POPC   C4B52294  22.615  30.204   7.400
 3898POPC   NC352295  43.308  34.907   5.432
 3898POPC   PO452296  42.932  34.376   5.370
 3898POPC   GL152297  42.954  34.507   5.759
 3898POPC   GL252298  42.695  34.290   5.834
 3898POPC   C1A52299  43.250  34.613   6.089
 3898POPC   D2A52300  43.399  34.375   6.457
 3898POPC   C3A52301  43.337  34.575   6.860
 3898POPC   C4A52302  43.227  34.660   7.290
 3898POPC   C1B52303  42.851  34.349   6.254
 3898POPC   C2B52304  42.914  34.295   6.675
 3898POPC   C3B52305  42.888  34.236   7.110
 3898POPC   C4B52306  42.547  34.090   7.410
 3899POPC   NC352307   7.208   1.735   5.534
 3899POPC   PO452308   7.773   2.261   5.457
 3899POPC   GL152309   7.572   2.024   5.748
 3899POPC   GL252310   7.244   2.112   5.949
 3899POPC   C1A52311   7.654   1.803   6.071
 3899POPC   D2A52312   7.742   1.932   6.432
 3899POPC   C3A52313   7.412   1.909   6.723
 3899POPC   C4A52314   7.492   1.806   7.154
 3899POPC   C1B52315   7.402   2.316   6.344
 3899POPC   C2B52316   7.436   2.408   6.809
 3899POPC   C3B52317   7.182   2.262   7.125
 3899POPC   C4B52318   7.241   2.058   7.523
 3900POPC   NC352319  26.803  30.030   5.398
 3900POPC   PO452320  27.061  29.393   5.533
 3900POPC   GL152321  26.866  29.734   5.821
 3900POPC   GL252322  26.635  30.067   5.863
 3900POPC   C1A52323  26.871  29.757   6.274
 3900POPC   D2A52324  26.808  30.002   6.644
 3900POPC   C3A52325  26.993  29.848   7.001
 3900POPC   C4A52326  26.846  29.520   7.204
 3900POPC   C1B52327  26.454  30.053   6.253
 3900POPC   C2B52328  26.274  30.054   6.652
 3900POPC   C3B52329  26.443  30.175   7.004
 3900POPC   C4B52330  26.621  29.965   7.307
 3901POPC   NC352331  18.127  24.246   5.377
 3901POPC   PO452332  18.684  24.521   5.438
 3901POPC   GL152333  18.468  24.641   5.857
 3901POPC   GL252334  18.109  24.792   5.796
 3901POPC   C1A52335  18.539  24.461   6.304
 3901POPC   D2A52336  18.637  24.339   6.750
 3901POPC   C3A52337  18.343  24.217   7.068
 3901POPC   C4A52338  18.292  24.297   7.522
 3901POPC   C1B52339  18.038  24.602   6.234
 3901POPC   C2B52340  18.134  24.563   6.721
 3901POPC   C3B52341  18.128  24.662   7.203
 3901POPC   C4B52342  17.938  24.640   7.640
 3902POPC   NC352343  40.674  13.984   5.547
 3902POPC   PO452344  40.913  14.612   5.445
 3902POPC   GL152345  40.532  14.566   5.765
 3902POPC   GL252346  40.318  14.254   5.821
 3902POPC   C1A52347  40.497  14.549   6.224
 3902POPC   D2A52348  40.614  14.325   6.631
 3902POPC   C3A52349  40.937  14.213   6.947
 3902POPC   C4A52350  40.966  14.342   7.365
 3902POPC   C1B52351  40.426  14.000   6.216
 3902POPC   C2B52352  40.325  13.892   6.681
 3902POPC   C3B52353  40.515  13.951   7.105
 3902POPC   C4B52354  40.793  13.862   7.468
 3903POPC   NC352355   4.189   7.128   5.578
 3903POPC   PO452356   4.414   6.477   5.338
 3903POPC   GL152357   4.318   6.659   5.735
 3903POPC   GL252358   3.955   6.676   5.704
 3903POPC   C1A52359   4.316   6.528   6.172
 3903POPC   D2A52360   4.395   6.245   6.531
 3903POPC   C3A52361   4.262   6.497   6.876
 3903POPC   C4A52362   4.575   6.717   7.065
 3903POPC   C1B52363   3.936   6.885   6.122
 3903POPC   C2B52364   4.028   6.888   6.560
 3903POPC   C3B52365   3.975   6.947   6.993
 3903POPC   C4B52366   4.140   6.949   7.404
 3904POPC   NC352367   7.354   6.783   5.388
 3904POPC   PO452368   7.458   6.071   5.502
 3904POPC   GL152369   7.285   6.422   5.810
 3904POPC   GL252370   7.079   6.768   5.802
 3904POPC   C1A52371   7.356   6.473   6.286
 3904POPC   D2A52372   7.355   6.149   6.636
 3904POPC   C3A52373   7.384   6.259   7.064
 3904POPC   C4A52374   7.720   6.460   7.258
 3904POPC   C1B52375   7.149   6.979   6.178
 3904POPC   C2B52376   7.391   6.951   6.572
 3904POPC   C3B52377   7.499   7.136   6.984
 3904POPC   C4B52378   7.561   6.928   7.380
 3905POPC   NC352379  43.426   0.056   5.379
 3905POPC   PO452380  43.249   0.732   5.256
 3905POPC   GL152381  43.180   0.530   5.705
 3905POPC   GL252382  43.083   0.164   5.737
 3905POPC   C1A52383  43.075   0.451   6.170
 3905POPC   D2A52384  42.918   0.650   6.546
 3905POPC   C3A52385  43.017   0.526   6.910
 3905POPC   C4A52386  42.927   0.719   7.293
 3905POPC   C1B52387  43.333   0.020   6.069
 3905POPC   C2B52388  43.391   0.148   6.493
 3905POPC   C3B52389  43.320   0.100   6.919
 3905POPC   C4B52390  43.065   0.178   7.284
 3906POPC   NC352391   6.129  38.204   5.564
 3906POPC   PO452392   6.644  38.715   5.404
 3906POPC   GL152393   6.675  38.458   5.792
 3906POPC   GL252394   6.471  38.195   5.958
 3906POPC   C1A52395   6.872  38.409   6.192
 3906POPC   D2A52396   6.736  38.275   6.568
 3906POPC   C3A52397   6.866  38.521   6.883
 3906POPC   C4A52398   6.620  38.569   7.262
 3906POPC   C1B52399   6.148  38.096   6.276
 3906POPC   C2B52400   6.031  38.221   6.699
 3906POPC   C3B52401   6.172  38.300   7.133
 3906POPC   C4B52402   6.323  38.149   7.524
 3907POPC   NC352403  10.458  12.081   5.252
 3907POPC   PO452404  10.538  11.471   5.491
 3907POPC   GL152405  10.500  11.857   5.762
 3907POPC   GL252406  10.576  12.238   5.738
 3907POPC   C1A52407  10.418  11.908   6.214
 3907POPC   D2A52408  10.201  11.803   6.622
 3907POPC   C3A52409  10.437  11.933   7.016
 3907POPC   C4A52410  10.856  12.058   7.192
 3907POPC   C1B52411  10.209  12.310   5.983
 3907POPC   C2B52412  10.178  12.299   6.456
 3907POPC   C3B52413  10.096  12.317   6.920
 3907POPC   C4B52414  10.473  12.451   7.161
 3908POPC   NC352415  29.119  37.875   5.251
 3908POPC   PO452416  29.326  37.232   5.351
 3908POPC   GL152417  29.327  37.452   5.765
 3908POPC   GL252418  29.036  37.715   5.740
 3908POPC   C1A52419  29.201  37.559   6.205
 3908POPC   D2A52420  28.905  37.663   6.559
 3908POPC   C3A52421  28.933  37.593   7.001
 3908POPC   C4A52422  29.252  37.575   7.305
 3908POPC   C1B52423  29.285  38.018   5.974
 3908POPC   C2B52424  29.299  37.998   6.432
 3908POPC   C3B52425  29.189  38.039   6.864
 3908POPC   C4B52426  29.450  38.039   7.245
 3909POPC   NC352427  41.408  40.726   5.377
 3909POPC   PO452428  41.982  41.024   5.673
 3909POPC   GL152429  41.551  40.899   5.847
 3909POPC   GL252430  41.201  41.004   5.758
 3909POPC   C1A52431  41.489  40.529   6.117
 3909POPC   D2A52432  41.748  40.546   6.486
 3909POPC   C3A52433  41.555  40.660   6.865
 3909POPC   C4A52434  41.782  40.963   7.026
 3909POPC   C1B52435  41.007  40.774   6.111
 3909POPC   C2B52436  41.167  40.645   6.515
 3909POPC   C3B52437  41.037  40.737   6.926
 3909POPC   C4B52438  41.207  40.884   7.306
 3910POPC   NC352439   3.541   9.228   5.102
 3910POPC   PO452440   3.620   8.713   5.618
 3910POPC   GL152441   3.689   8.924   5.977
 3910POPC   GL252442   3.374   8.810   6.066
 3910POPC   C1A52443   3.742   9.023   6.447
 3910POPC   D2A52444   3.520   8.917   6.862
 3910POPC   C3A52445   3.717   8.842   7.295
 3910POPC   C4A52446   3.646   8.630   7.734
 3910POPC   C1B52447   3.339   9.247   6.210
 3910POPC   C2B52448   3.353   9.367   6.605
 3910POPC   C3B52449   3.136   9.309   6.981
 3910POPC   C4B52450   3.231   8.998   7.283
 3911POPC   NC352451  21.702  29.021   5.483
 3911POPC   PO452452  21.083  28.730   5.530
 3911POPC   GL152453  21.109  28.880   5.947
 3911POPC   GL252454  21.341  29.136   5.897
 3911POPC   C1A52455  21.379  28.823   6.323
 3911POPC   D2A52456  21.558  29.041   6.683
 3911POPC   C3A52457  21.360  28.984   7.071
 3911POPC   C4A52458  21.118  28.772   7.328
 3911POPC   C1B52459  21.644  29.313   6.207
 3911POPC   C2B52460  21.622  29.568   6.582
 3911POPC   C3B52461  21.525  29.465   6.976
 3911POPC   C4B52462  21.782  29.229   7.216
 3912POPC   NC352463  20.217  10.730   5.454
 3912POPC   PO452464  19.819  10.270   5.468
 3912POPC   GL152465  19.739  10.463   5.881
 3912POPC   GL252466  19.994  10.731   5.938
 3912POPC   C1A52467  19.763  10.501   6.354
 3912POPC   D2A52468  19.779  10.775   6.724
 3912POPC   C3A52469  19.778  10.678   7.156
 3912POPC   C4A52470  20.096  10.552   7.414
 3912POPC   C1B52471  20.144  10.904   6.342
 3912POPC   C2B52472  20.280  10.875   6.795
 3912POPC   C3B52473  20.208  11.017   7.238
 3912POPC   C4B52474  20.381  10.883   7.658
 3913POPC   NC352475  25.680  11.556   5.199
 3913POPC   PO452476  26.117  11.171   5.577
 3913POPC   GL152477  26.199  11.099   5.971
 3913POPC   GL252478  25.973  10.804   5.894
 3913POPC   C1A52479  26.303  11.414   6.307
 3913POPC   D2A52480  26.072  11.737   6.556
 3913POPC   C3A52481  25.933  11.548   6.953
 3913POPC   C4A52482  26.134  11.295   7.306
 3913POPC   C1B52483  25.819  10.909   6.274
 3913POPC   C2B52484  25.869  11.224   6.519
 3913POPC   C3B52485  26.044  11.073   6.853
 3913POPC   C4B52486  25.900  10.838   7.176
 3914POPC   NC352487  44.134   5.621   5.477
 3914POPC   PO452488  43.877   6.245   5.475
 3914POPC   GL152489  43.656   6.095   5.816
 3914POPC   GL252490  43.683   5.748   5.802
 3914POPC   C1A52491  43.696   6.069   6.242
 3914POPC   D2A52492  44.007   6.095   6.558
 3914POPC   C3A52493  43.887   5.997   6.920
 3914POPC   C4A52494  44.013   6.173   7.274
 3914POPC   C1B52495  43.894   5.576   6.177
 3914POPC   C2B52496  44.026   5.582   6.610
 3914POPC   C3B52497  44.071   5.538   7.059
 3914POPC   C4B52498  43.847   5.572   7.420
 3915POPC   NC352499   8.590  31.635   5.613
 3915POPC   PO452500   8.044  31.234   5.460
 3915POPC   GL152501   8.152  31.357   5.850
 3915POPC   GL252502   8.165  31.702   5.877
 3915POPC   C1A52503   7.949  31.476   6.266
 3915POPC   D2A52504   7.953  31.677   6.648
 3915POPC   C3A52505   7.976  31.435   7.028
 3915POPC   C4A52506   7.832  31.699   7.364
 3915POPC   C1B52507   8.443  31.536   6.248
 3915POPC   C2B52508   8.376  31.398   6.680
 3915POPC   C3B52509   8.466  31.499   7.121
 3915POPC   C4B52510   8.741  31.682   7.455
 3916POPC   NC352511  35.788  13.560   5.330
 3916POPC   PO452512  35.487  14.137   5.297
 3916POPC   GL152513  35.393  13.944   5.773
 3916POPC   GL252514  35.587  13.643   5.841
 3916POPC   C1A52515  35.309  13.932   6.214
 3916POPC   D2A52516  35.468  13.714   6.601
 3916POPC   C3A52517  35.275  13.850   6.939
 3916POPC   C4A52518  35.220  13.767   7.343
 3916POPC   C1B52519  35.556  13.396   6.226
 3916POPC   C2B52520  35.410  13.185   6.617
 3916POPC   C3B52521  35.442  13.382   7.030
 3916POPC   C4B52522  35.719  13.720   7.205
 3917POPC   NC352523  26.357   9.024   5.456
 3917POPC   PO452524  25.701   9.254   5.295
 3917POPC   GL152525  25.741   9.088   5.753
 3917POPC   GL252526  25.986   8.836   5.809
 3917POPC   C1A52527  25.898   9.193   6.230
 3917POPC   D2A52528  26.042   9.047   6.683
 3917POPC   C3A52529  25.771   9.060   7.047
 3917POPC   C4A52530  25.883   8.772   7.404
 3917POPC   C1B52531  26.136   8.744   6.248
 3917POPC   C2B52532  26.157   8.552   6.675
 3917POPC   C3B52533  26.182   8.458   7.121
 3917POPC   C4B52534  26.139   8.375   7.624
 3918POPC   NC352535  14.911  25.176   5.448
 3918POPC   PO452536  15.001  25.813   5.165
 3918POPC   GL152537  15.052  25.658   5.648
 3918POPC   GL252538  15.283  25.361   5.746
 3918POPC   C1A52539  14.927  25.544   6.073
 3918POPC   D2A52540  15.089  25.378   6.460
 3918POPC   C3A52541  14.939  25.497   6.863
 3918POPC   C4A52542  15.081  25.323   7.231
 3918POPC   C1B52543  15.246  25.039   6.100
 3918POPC   C2B52544  15.191  24.865   6.521
 3918POPC   C3B52545  15.069  24.870   6.939
 3918POPC   C4B52546  15.310  24.878   7.278
 3919POPC   NC352547   1.715  18.542   5.542
 3919POPC   PO452548   2.144  18.122   5.281
 3919POPC   GL152549   1.975  18.152   5.761
 3919POPC   GL252550   1.722  17.915   5.931
 3919POPC   C1A52551   1.911  18.333   6.172
 3919POPC   D2A52552   2.185  18.428   6.501
 3919POPC   C3A52553   2.176  18.272   6.917
 3919POPC   C4A52554   2.153  17.930   7.193
 3919POPC   C1B52555   1.688  17.866   6.388
 3919POPC   C2B52556   1.747  17.991   6.831
 3919POPC   C3B52557   1.654  17.749   7.203
 3919POPC   C4B52558   1.454  17.619   7.625
 3920POPC   NC352559  30.304   1.191   5.373
 3920POPC   PO452560  30.955   0.999   5.298
 3920POPC   GL152561  30.782   1.290   5.661
 3920POPC   GL252562  30.439   1.249   5.865
 3920POPC   C1A52563  30.880   1.286   6.123
 3920POPC   D2A52564  30.584   1.225   6.474
 3920POPC   C3A52565  30.779   1.049   6.848
 3920POPC   C4A52566  30.974   1.331   7.133
 3920POPC   C1B52567  30.137   1.397   6.210
 3920POPC   C2B52568  30.192   1.525   6.659
 3920POPC   C3B52569  30.441   1.406   7.050
 3920POPC   C4B52570  30.399   1.538   7.487
 3921POPC   NC352571  15.454  44.320   5.505
 3921POPC   PO452572  15.152  43.743   5.272
 3921POPC   GL152573  15.228  43.893   5.705
 3921POPC   GL252574  15.268  43.609   5.889
 3921POPC   C1A52575  15.332  44.090   6.136
 3921POPC   D2A52576  15.122  44.262   6.494
 3921POPC   C3A52577  15.315  44.003   6.818
 3921POPC   C4A52578  15.401  43.915   7.232
 3921POPC   C1B52579  15.260  43.531   6.325
 3921POPC   C2B52580  15.201  43.461   6.775
 3921POPC   C3B52581  14.953  43.668   7.126
 3921POPC   C4B52582  15.033  43.794   7.589
 3922POPC   NC352583  12.169  32.578   5.274
 3922POPC   PO452584  11.857  31.982   5.504
 3922POPC   GL152585  12.094  32.084   5.849
 3922POPC   GL252586  12.144  32.434   5.776
 3922POPC   C1A52587  12.141  31.930   6.271
 3922POPC   D2A52588  12.272  32.039   6.676
 3922POPC   C3A52589  12.033  32.055   7.054
 3922POPC   C4A52590  11.872  31.965   7.456
 3922POPC   C1B52591  11.986  32.455   6.197
 3922POPC   C2B52592  12.112  32.562   6.582
 3922POPC   C3B52593  11.961  32.584   6.959
 3922POPC   C4B52594  11.883  32.471   7.349
 3923POPC   NC352595   4.463  41.886   5.437
 3923POPC   PO452596   4.956  42.365   5.249
 3923POPC   GL152597   5.094  42.315   5.670
 3923POPC   GL252598   5.180  42.637   5.802
 3923POPC   C1A52599   4.980  42.282   6.120
 3923POPC   D2A52600   5.078  41.994   6.455
 3923POPC   C3A52601   4.929  42.132   6.871
 3923POPC   C4A52602   5.119  42.259   7.287
 3923POPC   C1B52603   5.302  42.718   6.247
 3923POPC   C2B52604   5.398  42.659   6.712
 3923POPC   C3B52605   5.396  42.878   7.114
 3923POPC   C4B52606   5.254  42.687   7.512
 3924POPC   NC352607  19.379  40.554   5.592
 3924POPC   PO452608  18.760  40.644   5.380
 3924POPC   GL152609  18.841  40.878   5.772
 3924POPC   GL252610  19.087  40.708   5.963
 3924POPC   C1A52611  18.677  40.847   6.202
 3924POPC   D2A52612  18.929  40.731   6.552
 3924POPC   C3A52613  18.737  40.874   6.923
 3924POPC   C4A52614  18.807  40.859   7.362
 3924POPC   C1B52615  19.342  40.963   6.227
 3924POPC   C2B52616  19.425  40.946   6.667
 3924POPC   C3B52617  19.218  40.759   7.024
 3924POPC   C4B52618  19.275  40.394   7.298
 3925POPC   NC352619  39.092  39.702   5.231
 3925POPC   PO452620  39.388  40.277   5.436
 3925POPC   GL152621  39.293  40.121   5.829
 3925POPC   GL252622  39.032  39.885   5.749
 3925POPC   C1A52623  39.371  40.280   6.250
 3925POPC   D2A52624  39.497  40.472   6.671
 3925POPC   C3A52625  39.550  40.175   6.999
 3925POPC   C4A52626  39.298  39.983   7.309
 3925POPC   C1B52627  39.129  39.772   6.191
 3925POPC   C2B52628  39.288  39.905   6.592
 3925POPC   C3B52629  39.053  40.112   6.880
 3925POPC   C4B52630  38.803  40.039   7.250
 3926POPC   NC352631  12.231  31.677   5.532
 3926POPC   PO452632  11.792  31.126   5.633
 3926POPC   GL152633  12.076  31.247   5.957
 3926POPC   GL252634  12.416  31.183   5.798
 3926POPC   C1A52635  12.073  31.413   6.408
 3926POPC   D2A52636  11.838  31.730   6.664
 3926POPC   C3A52637  11.783  31.596   7.088
 3926POPC   C4A52638  11.988  31.205   7.198
 3926POPC   C1B52639  12.493  31.494   6.124
 3926POPC   C2B52640  12.555  31.523   6.559
 3926POPC   C3B52641  12.292  31.576   6.902
 3926POPC   C4B52642  12.265  31.655   7.305
 3927POPC   NC352643  25.433  26.123   5.359
 3927POPC   PO452644  24.824  25.841   5.249
 3927POPC   GL152645  25.120  25.768   5.676
 3927POPC   GL252646  25.363  26.028   5.847
 3927POPC   C1A52647  25.103  25.745   6.177
 3927POPC   D2A52648  25.304  25.597   6.559
 3927POPC   C3A52649  25.105  25.783   6.953
 3927POPC   C4A52650  24.911  26.166   7.144
 3927POPC   C1B52651  25.599  25.864   6.216
 3927POPC   C2B52652  25.767  25.843   6.632
 3927POPC   C3B52653  25.606  25.614   6.971
 3927POPC   C4B52654  25.475  25.763   7.347
 3928POPC   NC352655   6.269  39.042   5.409
 3928POPC   PO452656   5.667  39.398   5.247
 3928POPC   GL152657   5.910  39.385   5.671
 3928POPC   GL252658   5.866  39.017   5.755
 3928POPC   C1A52659   5.987  39.574   6.114
 3928POPC   D2A52660   5.904  39.709   6.543
 3928POPC   C3A52661   6.103  39.645   6.954
 3928POPC   C4A52662   6.015  39.446   7.348
 3928POPC   C1B52663   6.098  39.091   6.139
 3928POPC   C2B52664   5.885  39.191   6.524
 3928POPC   C3B52665   5.957  39.144   6.944
 3928POPC   C4B52666   6.209  38.858   7.168
 3929POPC   NC352667  13.592  14.900   5.312
 3929POPC   PO452668  13.157  15.448   5.420
 3929POPC   GL152669  13.441  15.225   5.692
 3929POPC   GL252670  13.783  15.244   5.727
 3929POPC   C1A52671  13.449  15.369   6.123
 3929POPC   D2A52672  13.205  15.395   6.476
 3929POPC   C3A52673  13.373  15.329   6.859
 3929POPC   C4A52674  13.347  15.349   7.265
 3929POPC   C1B52675  13.921  15.553   6.053
 3929POPC   C2B52676  14.004  15.486   6.520
 3929POPC   C3B52677  13.989  15.167   6.844
 3929POPC   C4B52678  13.828  15.170   7.232
 3930POPC   NC352679  15.354  40.462   5.558
 3930POPC   PO452680  15.550  41.034   5.241
 3930POPC   GL152681  15.384  40.965   5.727
 3930POPC   GL252682  15.055  40.858   5.837
 3930POPC   C1A52683  15.455  40.798   6.186
 3930POPC   D2A52684  15.702  40.617   6.522
 3930POPC   C3A52685  15.443  40.551   6.868
 3930POPC   C4A52686  15.350  40.744   7.230
 3930POPC   C1B52687  15.094  41.136   6.240
 3930POPC   C2B52688  15.266  41.012   6.650
 3930POPC   C3B52689  14.967  40.901   6.970
 3930POPC   C4B52690  14.966  41.117   7.360
 3931POPC   NC352691  14.119  14.541   5.408
 3931POPC   PO452692  14.702  14.559   5.632
 3931POPC   GL152693  14.350  14.527   5.907
 3931POPC   GL252694  14.077  14.762   5.859
 3931POPC   C1A52695  14.371  14.395   6.342
 3931POPC   D2A52696  14.670  14.286   6.666
 3931POPC   C3A52697  14.561  14.434   7.070
 3931POPC   C4A52698  14.129  14.287   7.116
 3931POPC   C1B52699  14.176  14.875   6.303
 3931POPC   C2B52700  14.247  14.722   6.748
 3931POPC   C3B52701  14.173  14.798   7.204
 3931POPC   C4B52702  13.970  14.885   7.622
 3932POPC   NC352703  29.289  16.582   5.596
 3932POPC   PO452704  28.898  17.081   5.445
 3932POPC   GL152705  29.074  16.936   5.887
 3932POPC   GL252706  29.115  16.546   6.058
 3932POPC   C1A52707  29.394  16.929   6.224
 3932POPC   D2A52708  29.380  16.615   6.556
 3932POPC   C3A52709  29.374  16.827   6.933
 3932POPC   C4A52710  29.383  16.853   7.352
 3932POPC   C1B52711  28.906  16.795   6.388
 3932POPC   C2B52712  28.899  17.001   6.810
 3932POPC   C3B52713  28.873  16.876   7.242
 3932POPC   C4B52714  28.619  16.959   7.623
 3933POPC   NC352715  14.777  41.800   5.224
 3933POPC   PO452716  15.002  41.314   5.623
 3933POPC   GL152717  15.162  41.582   5.933
 3933POPC   GL252718  15.461  41.421   6.009
 3933POPC   C1A52719  15.041  41.631   6.389
 3933POPC   D2A52720  14.862  41.337   6.709
 3933POPC   C3A52721  14.824  41.542   7.125
 3933POPC   C4A52722  15.009  41.947   7.175
 3933POPC   C1B52723  15.503  41.811   6.240
 3933POPC   C2B52724  15.466  41.874   6.664
 3933POPC   C3B52725  15.279  41.577   6.895
 3933POPC   C4B52726  15.405  41.229   7.121
 3934POPC   NC352727  43.158  27.396   5.386
 3934POPC   PO452728  42.741  27.961   5.519
 3934POPC   GL152729  42.980  27.758   5.834
 3934POPC   GL252730  42.894  27.417   5.806
 3934POPC   C1A52731  43.127  27.717   6.289
 3934POPC   D2A52732  43.297  27.822   6.726
 3934POPC   C3A52733  43.058  27.901   7.098
 3934POPC   C4A52734  43.345  27.893   7.427
 3934POPC   C1B52735  42.731  27.395   6.211
 3934POPC   C2B52736  42.839  27.471   6.662
 3934POPC   C3B52737  43.015  27.400   7.077
 3934POPC   C4B52738  43.019  27.523   7.520
 3935POPC   NC352739  44.264  44.262   5.374
 3935POPC   PO452740  43.713  44.657   5.446
 3935POPC   GL152741  43.738  44.800   5.854
 3935POPC   GL252742  44.088  44.786   5.905
 3935POPC   C1A52743  43.735  44.789   6.325
 3935POPC   D2A52744  43.920  44.597   6.706
 3935POPC   C3A52745  43.752  44.618   7.100
 3935POPC   C4A52746  43.519  44.264   7.219
 3935POPC   C1B52747  44.266  44.754   6.311
 3935POPC   C2B52748  44.212  44.997   6.690
 3935POPC   C3B52749  44.237  44.939   7.102
 3935POPC   C4B52750  44.072  44.791   7.474
 3936POPC   NC352751  17.424  22.012   5.135
 3936POPC   PO452752  17.805  22.273   5.329
 3936POPC   GL152753  17.697  22.142   5.801
 3936POPC   GL252754  17.324  22.161   5.885
 3936POPC   C1A52755  17.601  22.039   6.292
 3936POPC   D2A52756  17.321  22.085   6.683
 3936POPC   C3A52757  17.509  22.036   7.093
 3936POPC   C4A52758  17.940  21.926   7.242
 3936POPC   C1B52759  17.245  22.420   6.279
 3936POPC   C2B52760  16.976  22.490   6.649
 3936POPC   C3B52761  16.994  22.354   7.077
 3936POPC   C4B52762  17.196  22.232   7.472
 3937POPC   NC352763  41.358  16.513   5.587
 3937POPC   PO452764  41.403  15.853   5.390
 3937POPC   GL152765  41.428  16.053   5.833
 3937POPC   GL252766  41.601  16.359   6.029
 3937POPC   C1A52767  41.437  15.946   6.280
 3937POPC   D2A52768  41.214  16.110   6.642
 3937POPC   C3A52769  41.432  16.168   7.023
 3937POPC   C4A52770  41.600  15.779   7.221
 3937POPC   C1B52771  41.652  16.348   6.525
 3937POPC   C2B52772  41.903  16.059   6.823
 3937POPC   C3B52773  42.069  15.957   7.253
 3937POPC   C4B52774  41.832  15.972   7.675
 3938POPC   NC352775  20.134  42.898   5.096
 3938POPC   PO452776  19.948  43.532   5.353
 3938POPC   GL152777  19.930  43.113   5.632
 3938POPC   GL252778  19.587  43.070   5.743
 3938POPC   C1A52779  19.950  42.887   6.096
 3938POPC   D2A52780  20.038  43.135   6.520
 3938POPC   C3A52781  19.952  42.979   6.963
 3938POPC   C4A52782  20.181  42.860   7.348
 3938POPC   C1B52783  19.790  43.366   6.088
 3938POPC   C2B52784  19.742  43.551   6.525
 3938POPC   C3B52785  19.920  43.506   6.926
 3938POPC   C4B52786  20.228  43.541   7.206
 3939POPC   NC352787   0.408  18.084   5.305
 3939POPC   PO452788   0.684  18.656   5.157
 3939POPC   GL152789   0.462  18.547   5.591
 3939POPC   GL252790   0.522  18.225   5.797
 3939POPC   C1A52791   0.303  18.612   6.051
 3939POPC   D2A52792   0.428  18.459   6.487
 3939POPC   C3A52793   0.301  18.235   6.862
 3939POPC   C4A52794   0.362  18.424   7.279
 3939POPC   C1B52795   0.211  18.115   6.155
 3939POPC   C2B52796   0.005  17.907   6.511
 3939POPC   C3B52797   0.000  17.810   6.962
 3939POPC   C4B52798   0.253  17.939   7.310
 3940POPC   NC352799   6.316  24.431   5.469
 3940POPC   PO452800   5.639  24.279   5.383
 3940POPC   GL152801   5.852  24.312   5.767
 3940POPC   GL252802   5.637  24.583   5.863
 3940POPC   C1A52803   6.062  24.261   6.195
 3940POPC   D2A52804   5.924  24.323   6.660
 3940POPC   C3A52805   6.067  24.208   7.103
 3940POPC   C4A52806   5.969  24.449   7.501
 3940POPC   C1B52807   5.614  24.511   6.288
 3940POPC   C2B52808   5.633  24.750   6.657
 3940POPC   C3B52809   5.758  24.700   7.083
 3940POPC   C4B52810   5.741  24.974   7.439
 3941POPC   NC352811  27.480  43.076   5.195
 3941POPC   PO452812  28.122  43.059   5.439
 3941POPC   GL152813  27.712  43.134   5.656
 3941POPC   GL252814  27.612  42.813   5.713
 3941POPC   C1A52815  27.438  43.144   6.065
 3941POPC   D2A52816  27.540  43.178   6.509
 3941POPC   C3A52817  27.278  43.298   6.866
 3941POPC   C4A52818  27.352  43.080   7.264
 3941POPC   C1B52819  27.908  42.950   6.101
 3941POPC   C2B52820  27.918  42.831   6.541
 3941POPC   C3B52821  27.673  42.872   6.907
 3941POPC   C4B52822  27.830  42.778   7.299
 3942POPC   NC352823  39.456   6.114   5.619
 3942POPC   PO452824  38.954   5.717   5.357
 3942POPC   GL152825  38.964   5.910   5.739
 3942POPC   GL252826  39.230   5.711   5.856
 3942POPC   C1A52827  38.943   6.063   6.184
 3942POPC   D2A52828  38.805   6.122   6.613
 3942POPC   C3A52829  39.022   6.155   7.008
 3942POPC   C4A52830  38.907   5.821   7.216
 3942POPC   C1B52831  39.131   5.527   6.249
 3942POPC   C2B52832  39.081   5.679   6.690
 3942POPC   C3B52833  39.368   5.695   7.008
 3942POPC   C4B52834  39.505   5.799   7.382
 3943POPC   NC352835   3.522  17.661   5.275
 3943POPC   PO452836   3.445  17.158   5.657
 3943POPC   GL152837   3.761  17.442   5.848
 3943POPC   GL252838   3.772  17.791   5.711
 3943POPC   C1A52839   3.776  17.449   6.305
 3943POPC   D2A52840   3.440  17.370   6.601
 3943POPC   C3A52841   3.521  17.507   7.005
 3943POPC   C4A52842   3.506  17.236   7.358
 3943POPC   C1B52843   4.044  17.837   6.089
 3943POPC   C2B52844   4.202  17.814   6.552
 3943POPC   C3B52845   3.943  17.821   6.955
 3943POPC   C4B52846   3.834  17.682   7.375
 3944POPC   NC352847  35.943   8.495   5.288
 3944POPC   PO452848  36.342   7.988   5.291
 3944POPC   GL152849  36.303   8.083   5.741
 3944POPC   GL252850  35.960   8.288   5.785
 3944POPC   C1A52851  36.294   8.244   6.175
 3944POPC   D2A52852  36.015   8.249   6.527
 3944POPC   C3A52853  36.190   8.208   6.929
 3944POPC   C4A52854  36.002   7.930   7.203
 3944POPC   C1B52855  35.823   8.557   6.160
 3944POPC   C2B52856  35.589   8.534   6.590
 3944POPC   C3B52857  35.733   8.381   7.031
 3944POPC   C4B52858  35.787   8.479   7.502
 3945POPC   NC352859  39.307  20.416   5.551
 3945POPC   PO452860  38.966  21.045   5.478
 3945POPC   GL152861  39.280  20.918   5.779
 3945POPC   GL252862  39.048  20.702   5.884
 3945POPC   C1A52863  39.360  20.885   6.236
 3945POPC   D2A52864  39.136  20.940   6.605
 3945POPC   C3A52865  39.272  20.933   7.012
 3945POPC   C4A52866  39.352  20.631   7.278
 3945POPC   C1B52867  38.967  20.544   6.278
 3945POPC   C2B52868  39.065  20.188   6.528
 3945POPC   C3B52869  39.080  20.442   6.882
 3945POPC   C4B52870  38.824  20.516   7.252
 3946POPC   NC352871  37.494  20.451   5.377
 3946POPC   PO452872  38.175  20.433   5.440
 3946POPC   GL152873  37.917  20.454   5.827
 3946POPC   GL252874  37.622  20.227   5.805
 3946POPC   C1A52875  37.945  20.557   6.279
 3946POPC   D2A52876  37.810  20.781   6.652
 3946POPC   C3A52877  37.896  20.677   7.073
 3946POPC   C4A52878  37.864  20.763   7.530
 3946POPC   C1B52879  37.423  20.228   6.197
 3946POPC   C2B52880  37.628  20.256   6.597
 3946POPC   C3B52881  37.522  20.343   7.001
 3946POPC   C4B52882  37.309  20.070   7.239
 3947POPC   NC352883  11.800  34.735   5.548
 3947POPC   PO452884  12.315  34.413   5.286
 3947POPC   GL152885  12.150  34.416   5.733
 3947POPC   GL252886  11.843  34.234   5.765
 3947POPC   C1A52887  11.988  34.641   6.142
 3947POPC   D2A52888  12.194  34.729   6.514
 3947POPC   C3A52889  11.958  34.719   6.873
 3947POPC   C4A52890  12.026  34.929   7.218
 3947POPC   C1B52891  11.988  34.136   6.151
 3947POPC   C2B52892  11.905  34.308   6.548
 3947POPC   C3B52893  12.114  34.241   6.922
 3947POPC   C4B52894  12.069  34.429   7.293
 3948POPC   NC352895  44.406  24.054   5.487
 3948POPC   PO452896  44.763  23.644   5.531
 3948POPC   GL152897  44.778  23.883   5.922
 3948POPC   GL252898  44.444  24.025   5.985
 3948POPC   C1A52899   0.036  23.752   6.309
 3948POPC   D2A52900  44.812  23.638   6.736
 3948POPC   C3A52901  44.633  23.985   6.972
 3948POPC   C4A52902  44.889  24.274   7.242
 3948POPC   C1B52903  44.162  23.899   6.294
 3948POPC   C2B52904  44.267  23.721   6.672
 3948POPC   C3B52905  44.380  23.544   7.047
 3948POPC   C4B52906  44.232  23.612   7.442
 3949POPC   NC352907  34.190   7.212   5.220
 3949POPC   PO452908  33.612   7.461   5.435
 3949POPC   GL152909  33.685   7.369   5.850
 3949POPC   GL252910  34.034   7.433   5.864
 3949POPC   C1A52911  33.810   7.319   6.289
 3949POPC   D2A52912  33.783   7.056   6.610
 3949POPC   C3A52913  33.827   7.270   7.023
 3949POPC   C4A52914  33.661   7.169   7.435
 3949POPC   C1B52915  34.101   7.728   6.226
 3949POPC   C2B52916  33.922   7.682   6.654
 3949POPC   C3B52917  34.091   7.720   7.080
 3949POPC   C4B52918  34.277   7.880   7.480
 3950POPC   NC352919  32.285   1.561   5.268
 3950POPC   PO452920  32.492   0.907   5.293
 3950POPC   GL152921  32.399   1.191   5.639
 3950POPC   GL252922  32.199   1.408   5.754
 3950POPC   C1A52923  32.471   1.168   6.128
 3950POPC   D2A52924  32.254   1.069   6.561
 3950POPC   C3A52925  32.431   1.219   6.931
 3950POPC   C4A52926  32.514   1.125   7.355
 3950POPC   C1B52927  32.261   1.639   6.132
 3950POPC   C2B52928  32.231   1.578   6.559
 3950POPC   C3B52929  32.002   1.522   6.895
 3950POPC   C4B52930  31.879   1.671   7.274
 3951POPC   NC352931  28.694  22.772   5.360
 3951POPC   PO452932  29.231  23.142   5.435
 3951POPC   GL152933  29.001  22.858   5.764
 3951POPC   GL252934  29.127  22.509   5.856
 3951POPC   C1A52935  28.972  22.866   6.212
 3951POPC   D2A52936  29.173  22.846   6.607
 3951POPC   C3A52937  28.955  22.753   6.956
 3951POPC   C4A52938  28.818  22.937   7.297
 3951POPC   C1B52939  29.380  22.340   6.190
 3951POPC   C2B52940  29.553  22.444   6.582
 3951POPC   C3B52941  29.350  22.403   6.971
 3951POPC   C4B52942  29.244  22.610   7.351
 3952POPC   NC352943  37.302  22.346   5.046
 3952POPC   PO452944  37.779  21.998   5.385
 3952POPC   GL152945  37.745  22.164   5.803
 3952POPC   GL252946  37.490  22.378   5.899
 3952POPC   C1A52947  37.553  21.949   6.177
 3952POPC   D2A52948  37.695  21.842   6.587
 3952POPC   C3A52949  37.504  21.961   6.971
 3952POPC   C4A52950  37.499  22.301   7.253
 3952POPC   C1B52951  37.695  22.416   6.324
 3952POPC   C2B52952  37.672  22.501   6.788
 3952POPC   C3B52953  37.828  22.681   7.207
 3952POPC   C4B52954  37.621  22.657   7.631
 3953POPC   NC352955  16.844  26.282   5.583
 3953POPC   PO452956  16.923  26.941   5.331
 3953POPC   GL152957  16.916  26.790   5.779
 3953POPC   GL252958  17.159  27.065   5.854
 3953POPC   C1A52959  16.749  26.540   6.204
 3953POPC   D2A52960  16.573  26.323   6.611
 3953POPC   C3A52961  16.642  26.533   7.021
 3953POPC   C4A52962  16.720  26.885   7.299
 3953POPC   C1B52963  17.081  26.921   6.293
 3953POPC   C2B52964  16.923  26.899   6.757
 3953POPC   C3B52965  17.174  27.007   7.129
 3953POPC   C4B52966  17.134  26.831   7.603
 3954POPC   NC352967  41.715  27.789   4.939
 3954POPC   PO452968  41.245  27.642   5.429
 3954POPC   GL152969  41.366  27.882   5.763
 3954POPC   GL252970  41.624  27.610   5.789
 3954POPC   C1A52971  41.586  27.953   6.178
 3954POPC   D2A52972  41.558  28.073   6.596
 3954POPC   C3A52973  41.722  27.802   6.896
 3954POPC   C4A52974  41.458  27.754   7.227
 3954POPC   C1B52975  41.327  27.513   6.122
 3954POPC   C2B52976  41.527  27.480   6.507
 3954POPC   C3B52977  41.441  27.350   6.910
 3954POPC   C4B52978  41.776  27.318   7.205
 3955POPC   NC352979   5.487  10.506   5.518
 3955POPC   PO452980   6.140  10.350   5.336
 3955POPC   GL152981   5.944  10.506   5.790
 3955POPC   GL252982   5.664  10.701   5.965
 3955POPC   C1A52983   5.914  10.262   6.217
 3955POPC   D2A52984   5.767  10.177   6.668
 3955POPC   C3A52985   5.993  10.370   7.042
 3955POPC   C4A52986   6.163  10.597   7.394
 3955POPC   C1B52987   5.568  10.576   6.394
 3955POPC   C2B52988   5.806  10.740   6.741
 3955POPC   C3B52989   5.719  10.914   7.131
 3955POPC   C4B52990   5.560  10.540   7.291
 3956POPC   NC352991  20.419  26.670   5.477
 3956POPC   PO452992  20.908  27.105   5.336
 3956POPC   GL152993  20.799  26.906   5.722
 3956POPC   GL252994  20.823  27.177   5.857
 3956POPC   C1A52995  20.607  26.756   6.139
 3956POPC   D2A52996  20.263  26.640   6.467
 3956POPC   C3A52997  20.342  26.763   6.897
 3956POPC   C4A52998  20.532  26.648   7.302
 3956POPC   C1B52999  20.705  27.267   6.249
 3956POPC   C2B53000  20.700  27.006   6.585
 3956POPC   C3B53001  20.858  26.787   6.915
 3956POPC   C4B53002  20.820  27.046   7.268
 3957POPC   NC353003  31.189  39.925   5.514
 3957POPC   PO453004  31.674  40.331   5.523
 3957POPC   GL153005  31.636  40.045   5.860
 3957POPC   GL253006  31.389  39.801   5.961
 3957POPC   C1A53007  31.732  40.024   6.288
 3957POPC   D2A53008  31.790  40.287   6.627
 3957POPC   C3A53009  31.650  40.020   6.954
 3957POPC   C4A53010  31.791  39.950   7.366
 3957POPC   C1B53011  31.704  39.518   6.181
 3957POPC   C2B53012  31.781  39.528   6.649
 3957POPC   C3B53013  31.453  39.535   6.993
 3957POPC   C4B53014  31.487  39.551   7.441
 3958POPC   NC353015  34.366  33.412   5.370
 3958POPC   PO453016  34.634  32.698   5.354
 3958POPC   GL153017  34.471  32.975   5.669
 3958POPC   GL253018  34.711  33.230   5.734
 3958POPC   C1A53019  34.451  32.965   6.120
 3958POPC   D2A53020  34.532  33.158   6.506
 3958POPC   C3A53021  34.274  33.002   6.807
 3958POPC   C4A53022  34.580  32.940   7.093
 3958POPC   C1B53023  34.803  33.388   6.126
 3958POPC   C2B53024  34.893  33.543   6.535
 3958POPC   C3B53025  34.782  33.379   6.922
 3958POPC   C4B53026  34.354  33.408   7.134
 3959POPC   NC353027  13.021  11.134   5.408
 3959POPC   PO453028  12.734  11.707   5.453
 3959POPC   GL153029  12.971  11.509   5.833
 3959POPC   GL253030  12.861  11.187   5.941
 3959POPC   C1A53031  13.168  11.489   6.259
 3959POPC   D2A53032  13.159  11.695   6.685
 3959POPC   C3A53033  13.098  11.416   7.041
 3959POPC   C4A53034  13.111  10.980   7.268
 3959POPC   C1B53035  13.015  10.979   6.327
 3959POPC   C2B53036  12.953  10.997   6.782
 3959POPC   C3B53037  12.645  11.173   7.099
 3959POPC   C4B53038  12.371  11.447   7.380
 3960POPC   NC353039  11.637  12.388   5.413
 3960POPC   PO453040  10.936  12.157   5.391
 3960POPC   GL153041  11.257  12.066   5.696
 3960POPC   GL253042  10.999  11.998   5.943
 3960POPC   C1A53043  11.503  12.078   6.087
 3960POPC   D2A53044  11.464  12.257   6.510
 3960POPC   C3A53045  11.579  12.060   6.913
 3960POPC   C4A53046  11.347  11.898   7.294
 3960POPC   C1B53047  10.957  12.422   6.085
 3960POPC   C2B53048  11.052  12.598   6.477
 3960POPC   C3B53049  11.130  12.405   6.891
 3960POPC   C4B53050  10.976  12.541   7.284
 3961POPC   NC353051   6.426  13.876   5.363
 3961POPC   PO453052   6.270  13.259   5.573
 3961POPC   GL153053   6.592  13.562   5.761
 3961POPC   GL253054   6.879  13.350   5.782
 3961POPC   C1A53055   6.643  13.926   6.098
 3961POPC   D2A53056   6.749  13.872   6.543
 3961POPC   C3A53057   6.517  13.770   6.961
 3961POPC   C4A53058   6.384  13.910   7.410
 3961POPC   C1B53059   6.815  13.446   6.233
 3961POPC   C2B53060   6.785  13.375   6.694
 3961POPC   C3B53061   6.871  13.304   7.139
 3961POPC   C4B53062   6.827  13.282   7.613
 3962POPC   NC353063  32.341   8.800   5.633
 3962POPC   PO453064  32.571   9.438   5.488
 3962POPC   GL153065  32.509   9.212   5.904
 3962POPC   GL253066  32.135   9.194   5.954
 3962POPC   C1A53067  32.477   8.934   6.297
 3962POPC   D2A53068  32.194   8.981   6.679
 3962POPC   C3A53069  32.268   9.066   7.115
 3962POPC   C4A53070  32.348   9.020   7.570
 3962POPC   C1B53071  31.983   8.847   6.204
 3962POPC   C2B53072  31.739   8.755   6.582
 3962POPC   C3B53073  31.886   8.717   7.011
 3962POPC   C4B53074  31.919   8.817   7.438
 3963POPC   NC353075   0.661   1.627   5.502
 3963POPC   PO453076   0.652   0.933   5.465
 3963POPC   GL153077   0.634   1.205   5.849
 3963POPC   GL253078   0.322   1.426   5.857
 3963POPC   C1A53079   0.634   1.142   6.316
 3963POPC   D2A53080   0.837   1.131   6.743
 3963POPC   C3A53081   0.600   1.245   7.107
 3963POPC   C4A53082   0.657   1.411   7.513
 3963POPC   C1B53083   0.083   1.623   6.209
 3963POPC   C2B53084  44.897   1.463   6.607
 3963POPC   C3B53085   0.095   1.422   7.000
 3963POPC   C4B53086   0.296   1.667   7.271
 3964POPC   NC353087  19.763  27.933   5.240
 3964POPC   PO453088  20.015  27.375   5.134
 3964POPC   GL153089  19.905  27.488   5.613
 3964POPC   GL253090  19.594  27.701   5.696
 3964POPC   C1A53091  19.876  27.503   6.088
 3964POPC   D2A53092  19.886  27.837   6.426
 3964POPC   C3A53093  20.001  27.662   6.807
 3964POPC   C4A53094  20.002  27.555   7.245
 3964POPC   C1B53095  19.444  27.831   6.130
 3964POPC   C2B53096  19.409  27.676   6.585
 3964POPC   C3B53097  19.526  27.688   7.047
 3964POPC   C4B53098  19.703  27.932   7.398
 3965POPC   NC353099  14.377  33.263   5.046
 3965POPC   PO453100  14.453  32.667   5.452
 3965POPC   GL153101  14.293  32.908   5.792
 3965POPC   GL253102  14.011  32.782   5.958
 3965POPC   C1A53103  14.432  32.974   6.218
 3965POPC   D2A53104  14.514  32.811   6.630
 3965POPC   C3A53105  14.489  33.065   7.007
 3965POPC   C4A53106  14.620  32.895   7.409
 3965POPC   C1B53107  13.881  32.810   6.383
 3965POPC   C2B53108  13.938  32.773   6.840
 3965POPC   C3B53109  14.085  32.830   7.254
 3965POPC   C4B53110  13.959  32.883   7.721
 3966POPC   NC353111   2.473  17.841   5.463
 3966POPC   PO453112   3.068  17.752   5.190
 3966POPC   GL153113   2.905  17.533   5.647
 3966POPC   GL253114   3.013  17.223   5.910
 3966POPC   C1A53115   2.732  17.572   6.102
 3966POPC   D2A53116   2.894  17.300   6.470
 3966POPC   C3A53117   2.637  17.358   6.856
 3966POPC   C4A53118   2.588  17.649   7.191
 3966POPC   C1B53119   3.258  17.565   6.138
 3966POPC   C2B53120   3.188  17.839   6.498
 3966POPC   C3B53121   3.055  17.809   6.944
 3966POPC   C4B53122   3.056  17.462   7.232
 3967POPC   NC353123  33.343  40.737   5.494
 3967POPC   PO453124  32.848  41.184   5.314
 3967POPC   GL153125  32.885  40.928   5.688
 3967POPC   GL253126  33.127  41.171   5.792
 3967POPC   C1A53127  33.020  40.781   6.113
 3967POPC   D2A53128  32.914  40.689   6.535
 3967POPC   C3A53129  33.035  40.828   6.946
 3967POPC   C4A53130  33.208  40.586   7.268
 3967POPC   C1B53131  33.405  41.128   6.151
 3967POPC   C2B53132  33.404  40.996   6.570
 3967POPC   C3B53133  33.341  41.251   6.917
 3967POPC   C4B53134  33.385  41.094   7.300
 3968POPC   NC353135  35.039  22.907   5.536
 3968POPC   PO453136  35.695  22.778   5.453
 3968POPC   GL153137  35.458  22.977   5.825
 3968POPC   GL253138  35.488  22.734   6.071
 3968POPC   C1A53139  35.143  23.097   6.197
 3968POPC   D2A53140  35.107  23.276   6.649
 3968POPC   C3A53141  35.136  23.005   7.049
 3968POPC   C4A53142  35.010  22.556   7.252
 3968POPC   C1B53143  35.622  23.084   6.385
 3968POPC   C2B53144  35.610  22.985   6.821
 3968POPC   C3B53145  35.486  22.642   7.092
 3968POPC   C4B53146  35.664  22.553   7.484
 3969POPC   NC353147  28.794  23.574   5.497
 3969POPC   PO453148  28.265  24.019   5.163
 3969POPC   GL153149  28.296  23.927   5.686
 3969POPC   GL253150  28.316  23.556   5.775
 3969POPC   C1A53151  28.197  23.853   6.192
 3969POPC   D2A53152  28.359  23.567   6.581
 3969POPC   C3A53153  28.358  23.774   7.001
 3969POPC   C4A53154  28.575  23.936   7.337
 3969POPC   C1B53155  28.603  23.546   6.130
 3969POPC   C2B53156  28.801  23.301   6.433
 3969POPC   C3B53157  28.852  23.246   6.852
 3969POPC   C4B53158  28.676  23.428   7.172
 3970POPC   NC353159   6.287  17.114   5.343
 3970POPC   PO453160   6.061  16.504   5.392
 3970POPC   GL153161   6.052  16.784   5.755
 3970POPC   GL253162   5.838  16.531   5.874
 3970POPC   C1A53163   5.886  16.996   6.121
 3970POPC   D2A53164   5.727  17.034   6.530
 3970POPC   C3A53165   5.988  16.887   6.863
 3970POPC   C4A53166   5.944  16.805   7.265
 3970POPC   C1B53167   6.046  16.525   6.241
 3970POPC   C2B53168   5.818  16.491   6.598
 3970POPC   C3B53169   5.784  16.397   6.998
 3970POPC   C4B53170   6.153  16.326   7.256
 3971POPC   NC353171  33.197  35.505   5.137
 3971POPC   PO453172  32.856  35.475   5.696
 3971POPC   GL153173  33.022  35.512   6.024
 3971POPC   GL253174  33.339  35.656   5.932
 3971POPC   C1A53175  33.252  35.277   6.289
 3971POPC   D2A53176  33.138  35.039   6.635
 3971POPC   C3A53177  33.193  35.156   7.046
 3971POPC   C4A53178  32.864  35.219   7.341
 3971POPC   C1B53179  33.251  35.810   6.343
 3971POPC   C2B53180  33.263  35.577   6.716
 3971POPC   C3B53181  33.039  35.643   7.083
 3971POPC   C4B53182  33.176  35.697   7.480
 3972POPC   NC353183   8.672   6.433   5.464
 3972POPC   PO453184   8.571   7.034   5.389
 3972POPC   GL153185   8.835   6.816   5.760
 3972POPC   GL253186   9.172   6.626   5.704
 3972POPC   C1A53187   8.913   6.500   6.125
 3972POPC   D2A53188   9.166   6.405   6.518
 3972POPC   C3A53189   9.036   6.625   6.909
 3972POPC   C4A53190   8.714   6.613   7.255
 3972POPC   C1B53191   9.390   6.693   6.140
 3972POPC   C2B53192   9.472   6.811   6.616
 3972POPC   C3B53193   9.531   6.698   7.066
 3972POPC   C4B53194   9.257   6.472   7.362
 3973POPC   NC353195  24.744  30.881   5.358
 3973POPC   PO453196  24.410  30.372   5.479
 3973POPC   GL153197  24.531  30.628   5.832
 3973POPC   GL253198  24.519  30.979   5.789
 3973POPC   C1A53199  24.417  30.620   6.273
 3973POPC   D2A53200  24.255  30.557   6.699
 3973POPC   C3A53201  24.500  30.635   7.067
 3973POPC   C4A53202  24.374  30.553   7.481
 3973POPC   C1B53203  24.305  31.120   6.118
 3973POPC   C2B53204  24.310  31.038   6.543
 3973POPC   C3B53205  24.228  31.050   6.937
 3973POPC   C4B53206  24.414  31.083   7.338
 3974POPC   NC353207  28.573  19.313   5.313
 3974POPC   PO453208  28.688  19.939   5.457
 3974POPC   GL153209  28.719  19.923   5.888
 3974POPC   GL253210  28.688  20.233   5.978
 3974POPC   C1A53211  28.491  19.837   6.291
 3974POPC   D2A53212  28.115  19.769   6.603
 3974POPC   C3A53213  28.187  19.883   7.061
 3974POPC   C4A53214  28.421  19.777   7.453
 3974POPC   C1B53215  28.917  20.208   6.351
 3974POPC   C2B53216  28.927  20.145   6.795
 3974POPC   C3B53217  28.832  19.894   7.172
 3974POPC   C4B53218  28.919  19.679   7.583
 3975POPC   NC353219  26.422  13.830   5.537
 3975POPC   PO453220  26.848  14.417   5.355
 3975POPC   GL153221  26.798  14.477   5.800
 3975POPC   GL253222  26.758  14.132   5.932
 3975POPC   C1A53223  26.598  14.536   6.240
 3975POPC   D2A53224  26.384  14.399   6.618
 3975POPC   C3A53225  26.441  14.574   7.012
 3975POPC   C4A53226  26.818  14.507   7.195
 3975POPC   C1B53227  26.763  14.074   6.401
 3975POPC   C2B53228  26.530  13.918   6.776
 3975POPC   C3B53229  26.614  14.028   7.213
 3975POPC   C4B53230  26.549  13.955   7.708
 3976POPC   NC353231  42.099  23.056   5.654
 3976POPC   PO453232  42.714  22.829   5.531
 3976POPC   GL153233  42.667  22.631   5.910
 3976POPC   GL253234  42.291  22.666   5.935
 3976POPC   C1A53235  42.564  22.749   6.345
 3976POPC   D2A53236  42.476  23.140   6.562
 3976POPC   C3A53237  42.445  23.008   6.996
 3976POPC   C4A53238  42.274  22.652   7.211
 3976POPC   C1B53239  42.055  22.812   6.275
 3976POPC   C2B53240  42.033  22.836   6.702
 3976POPC   C3B53241  41.929  23.107   7.018
 3976POPC   C4B53242  42.067  23.060   7.422
 3977POPC   NC353243   4.766   0.878   5.566
 3977POPC   PO453244   5.180   1.211   5.147
 3977POPC   GL153245   5.251   1.244   5.646
 3977POPC   GL253246   4.968   1.239   5.914
 3977POPC   C1A53247   5.418   1.292   6.108
 3977POPC   D2A53248   5.105   1.340   6.469
 3977POPC   C3A53249   5.148   1.187   6.908
 3977POPC   C4A53250   5.326   1.363   7.285
 3977POPC   C1B53251   4.706   1.070   6.212
 3977POPC   C2B53252   4.789   0.935   6.616
 3977POPC   C3B53253   4.634   1.194   6.918
 3977POPC   C4B53254   4.798   1.210   7.291
 3978POPC   NC353255  43.871  28.728   5.489
 3978POPC   PO453256  43.918  28.166   5.138
 3978POPC   GL153257  43.846  28.152   5.647
 3978POPC   GL253258  43.534  28.264   5.757
 3978POPC   C1A53259  43.821  28.138   6.151
 3978POPC   D2A53260  43.685  28.300   6.563
 3978POPC   C3A53261  43.915  28.281   6.966
 3978POPC   C4A53262  44.089  28.602   7.234
 3978POPC   C1B53263  43.548  28.575   6.146
 3978POPC   C2B53264  43.747  28.800   6.498
 3978POPC   C3B53265  43.669  28.714   6.920
 3978POPC   C4B53266  43.534  28.712   7.340
 3979POPC   NC353267  40.436   4.141   5.460
 3979POPC   PO453268  41.059   4.352   5.430
 3979POPC   GL153269  40.838   4.301   5.770
 3979POPC   GL253270  41.036   4.099   5.996
 3979POPC   C1A53271  40.838   4.562   6.128
 3979POPC   D2A53272  40.820   4.421   6.550
 3979POPC   C3A53273  40.737   4.647   6.896
 3979POPC   C4A53274  41.070   4.618   7.221
 3979POPC   C1B53275  40.637   4.062   6.183
 3979POPC   C2B53276  40.542   4.020   6.645
 3979POPC   C3B53277  40.780   4.155   7.046
 3979POPC   C4B53278  41.153   3.934   7.259
 3980POPC   NC353279  29.664   8.704   5.497
 3980POPC   PO453280  29.841   9.312   5.590
 3980POPC   GL153281  29.692   9.038   5.913
 3980POPC   GL253282  29.985   8.863   5.900
 3980POPC   C1A53283  29.732   8.958   6.355
 3980POPC   D2A53284  29.649   8.946   6.780
 3980POPC   C3A53285  29.907   9.144   7.022
 3980POPC   C4A53286  29.687   9.420   7.305
 3980POPC   C1B53287  30.157   8.660   6.233
 3980POPC   C2B53288  30.071   8.712   6.676
 3980POPC   C3B53289  30.168   8.583   7.070
 3980POPC   C4B53290  30.050   8.670   7.516
 3981POPC   NC353291   1.668   2.778   5.583
 3981POPC   PO453292   1.069   2.836   5.242
 3981POPC   GL153293   1.178   2.957   5.664
 3981POPC   GL253294   1.086   2.644   5.778
 3981POPC   C1A53295   1.269   3.057   6.112
 3981POPC   D2A53296   1.086   3.000   6.528
 3981POPC   C3A53297   1.319   3.177   6.869
 3981POPC   C4A53298   1.255   2.986   7.256
 3981POPC   C1B53299   1.025   2.356   6.123
 3981POPC   C2B53300   1.178   2.339   6.551
 3981POPC   C3B53301   1.218   2.613   6.883
 3981POPC   C4B53302   1.391   2.497   7.259
 3982POPC   NC353303  23.158  24.090   5.535
 3982POPC   PO453304  22.827  24.725   5.487
 3982POPC   GL153305  23.098  24.587   5.781
 3982POPC   GL253306  22.855  24.331   5.870
 3982POPC   C1A53307  23.066  24.640   6.217
 3982POPC   D2A53308  22.761  24.492   6.503
 3982POPC   C3A53309  22.798  24.689   6.881
 3982POPC   C4A53310  23.106  24.887   7.097
 3982POPC   C1B53311  22.970  24.102   6.224
 3982POPC   C2B53312  22.720  23.988   6.570
 3982POPC   C3B53313  22.942  24.191   6.897
 3982POPC   C4B53314  23.010  24.388   7.288
 3983POPC   NC353315   6.523  25.383   5.187
 3983POPC   PO453316   6.660  25.976   5.198
 3983POPC   GL153317   6.624  26.006   5.676
 3983POPC   GL253318   6.280  25.986   5.805
 3983POPC   C1A53319   6.669  25.822   6.133
 3983POPC   D2A53320   6.398  25.739   6.536
 3983POPC   C3A53321   6.528  25.809   6.988
 3983POPC   C4A53322   6.833  26.098   7.176
 3983POPC   C1B53323   6.303  26.171   6.250
 3983POPC   C2B53324   6.398  26.249   6.718
 3983POPC   C3B53325   6.334  26.243   7.184
 3983POPC   C4B53326   6.128  25.891   7.353
 3984POPC   NC353327  44.546   7.067   5.361
 3984POPC   PO453328  44.861   6.517   5.228
 3984POPC   GL153329  44.803   6.671   5.690
 3984POPC   GL253330   0.060   6.410   5.760
 3984POPC   C1A53331  44.587   6.729   6.168
 3984POPC   D2A53332  44.585   6.951   6.640
 3984POPC   C3A53333  44.614   6.767   7.089
 3984POPC   C4A53334  44.613   6.354   7.332
 3984POPC   C1B53335  44.949   6.369   6.191
 3984POPC   C2B53336  44.725   6.455   6.584
 3984POPC   C3B53337  44.964   6.427   6.940
 3984POPC   C4B53338   0.086   6.599   7.302
 3985POPC   NC353339  30.645  10.945   5.261
 3985POPC   PO453340  30.908  10.354   5.526
 3985POPC   GL153341  30.978  10.439   5.936
 3985POPC   GL253342  31.267  10.276   6.018
 3985POPC   C1A53343  30.730  10.698   6.233
 3985POPC   D2A53344  30.457  10.958   6.498
 3985POPC   C3A53345  30.527  10.791   6.930
 3985POPC   C4A53346  30.605  10.383   7.153
 3985POPC   C1B53347  31.147  10.448   6.422
 3985POPC   C2B53348  31.030  10.474   6.851
 3985POPC   C3B53349  31.203  10.496   7.269
 3985POPC   C4B53350  31.296  10.626   7.712
 3986POPC   NC353351  40.188  20.256   5.329
 3986POPC   PO453352  39.802  19.721   5.290
 3986POPC   GL153353  39.812  19.796   5.733
 3986POPC   GL253354  40.061  20.025   5.772
 3986POPC   C1A53355  39.951  19.633   6.150
 3986POPC   D2A53356  40.092  19.716   6.548
 3986POPC   C3A53357  39.889  19.741   6.958
 3986POPC   C4A53358  40.045  19.834   7.353
 3986POPC   C1B53359  39.971  20.141   6.238
 3986POPC   C2B53360  39.986  20.208   6.703
 3986POPC   C3B53361  39.664  20.223   7.040
 3986POPC   C4B53362  39.644  20.266   7.481
 3987POPC   NC353363  27.931  24.220   5.467
 3987POPC   PO453364  27.517  24.700   5.286
 3987POPC   GL153365  27.667  24.570   5.717
 3987POPC   GL253366  27.421  24.441   5.832
 3987POPC   C1A53367  27.785  24.389   6.189
 3987POPC   D2A53368  27.934  24.377   6.633
 3987POPC   C3A53369  27.898  24.668   6.970
 3987POPC   C4A53370  27.941  24.516   7.384
 3987POPC   C1B53371  27.358  24.122   6.172
 3987POPC   C2B53372  27.566  24.050   6.573
 3987POPC   C3B53373  27.605  24.229   7.012
 3987POPC   C4B53374  27.585  24.165   7.459
 3988POPC   NC353375   9.706  35.878   5.380
 3988POPC   PO453376  10.053  36.353   5.489
 3988POPC   GL153377   9.695  36.209   5.792
 3988POPC   GL253378   9.395  35.933   5.760
 3988POPC   C1A53379   9.822  36.280   6.247
 3988POPC   D2A53380  10.119  36.334   6.579
 3988POPC   C3A53381  10.032  36.117   6.930
 3988POPC   C4A53382   9.874  36.325   7.279
 3988POPC   C1B53383   9.545  35.870   6.154
 3988POPC   C2B53384   9.738  35.878   6.573
 3988POPC   C3B53385   9.567  35.947   6.987
 3988POPC   C4B53386   9.687  35.870   7.399
 3989POPC   NC353387  34.162  19.699   5.475
 3989POPC   PO453388  33.600  20.002   5.447
 3989POPC   GL153389  33.746  19.802   5.794
 3989POPC   GL253390  33.397  19.779   5.880
 3989POPC   C1A53391  34.006  19.840   6.182
 3989POPC   D2A53392  33.863  19.707   6.607
 3989POPC   C3A53393  34.106  19.689   6.943
 3989POPC   C4A53394  34.219  19.979   7.231
 3989POPC   C1B53395  33.495  19.837   6.273
 3989POPC   C2B53396  33.355  19.627   6.616
 3989POPC   C3B53397  33.454  19.839   6.961
 3989POPC   C4B53398  33.734  19.888   7.250
 3990POPC   NC353399  44.281   8.423   5.069
 3990POPC   PO453400  44.052   7.894   5.352
 3990POPC   GL153401  43.924   7.812   5.760
 3990POPC   GL253402  44.213   7.747   5.954
 3990POPC   C1A53403  43.697   7.877   6.149
 3990POPC   D2A53404  43.675   7.693   6.573
 3990POPC   C3A53405  43.836   7.929   6.945
 3990POPC   C4A53406  43.770   8.345   7.139
 3990POPC   C1B53407  44.158   7.807   6.400
 3990POPC   C2B53408  44.173   8.177   6.662
 3990POPC   C3B53409  44.274   8.225   7.089
 3990POPC   C4B53410  44.445   8.265   7.503
 3991POPC   NC353411  40.314  36.543   5.709
 3991POPC   PO453412  39.937  36.046   5.410
 3991POPC   GL153413  40.104  36.067   5.801
 3991POPC   GL253414  39.898  36.283   5.923
 3991POPC   C1A53415  40.139  35.952   6.245
 3991POPC   D2A53416  40.165  35.652   6.595
 3991POPC   C3A53417  40.207  35.898   6.966
 3991POPC   C4A53418  40.187  36.250   7.216
 3991POPC   C1B53419  39.688  36.200   6.275
 3991POPC   C2B53420  39.770  36.016   6.658
 3991POPC   C3B53421  39.721  36.190   7.049
 3991POPC   C4B53422  39.775  36.626   7.171
 3992POPC   NC353423  13.857  36.030   5.179
 3992POPC   PO453424  13.323  35.947   5.580
 3992POPC   GL153425  13.514  35.946   5.950
 3992POPC   GL253426  13.611  36.275   5.875
 3992POPC   C1A53427  13.781  35.750   6.271
 3992POPC   D2A53428  13.874  35.800   6.700
 3992POPC   C3A53429  13.524  36.007   6.865
 3992POPC   C4A53430  13.491  36.052   7.284
 3992POPC   C1B53431  13.768  36.264   6.307
 3992POPC   C2B53432  13.929  36.323   6.739
 3992POPC   C3B53433  13.735  36.460   7.118
 3992POPC   C4B53434  13.374  36.610   7.328
 3993POPC   NC353435  28.864   0.956   5.359
 3993POPC   PO453436  29.569   0.922   5.214
 3993POPC   GL153437  29.309   1.059   5.642
 3993POPC   GL253438  29.269   1.445   5.756
 3993POPC   C1A53439  29.172   1.106   6.122
 3993POPC   D2A53440  29.353   1.052   6.536
 3993POPC   C3A53441  29.156   1.010   6.953
 3993POPC   C4A53442  28.730   1.023   7.115
 3993POPC   C1B53443  29.208   1.612   6.237
 3993POPC   C2B53444  29.237   1.554   6.715
 3993POPC   C3B53445  29.018   1.479   7.126
 3993POPC   C4B53446  29.148   1.490   7.590
 3994POPC   NC353447  20.297  15.692   5.392
 3994POPC   PO453448  20.899  15.884   5.707
 3994POPC   GL153449  20.495  16.005   5.982
 3994POPC   GL253450  20.248  16.321   5.928
 3994POPC   C1A53451  20.468  15.990   6.409
 3994POPC   D2A53452  20.810  15.817   6.627
 3994POPC   C3A53453  20.786  16.094   6.965
 3994POPC   C4A53454  20.517  15.881   7.208
 3994POPC   C1B53455  19.997  16.191   6.315
 3994POPC   C2B53456  20.094  16.142   6.799
 3994POPC   C3B53457  20.320  16.329   7.179
 3994POPC   C4B53458  20.258  16.324   7.647
 3995POPC   NC353459  25.666  25.104   5.359
 3995POPC   PO453460  24.986  24.974   5.431
 3995POPC   GL153461  25.214  25.238   5.740
 3995POPC   GL253462  25.487  25.063   5.818
 3995POPC   C1A53463  25.120  25.231   6.204
 3995POPC   D2A53464  25.327  25.083   6.589
 3995POPC   C3A53465  25.193  25.271   6.946
 3995POPC   C4A53466  25.082  25.451   7.324
 3995POPC   C1B53467  25.604  25.328   6.153
 3995POPC   C2B53468  25.805  25.328   6.530
 3995POPC   C3B53469  25.766  25.134   6.911
 3995POPC   C4B53470  25.540  25.216   7.315
 3996POPC   NC353471   7.402  10.641   5.346
 3996POPC   PO453472   7.286  10.094   5.601
 3996POPC   GL153473   7.339  10.438   5.830
 3996POPC   GL253474   7.629  10.283   5.896
 3996POPC   C1A53475   7.478  10.702   6.177
 3996POPC   D2A53476   7.702  10.838   6.553
 3996POPC   C3A53477   7.449  10.673   6.861
 3996POPC   C4A53478   7.415  10.578   7.267
 3996POPC   C1B53479   7.435  10.104   6.281
 3996POPC   C2B53480   7.396  10.159   6.754
 3996POPC   C3B53481   7.551  10.067   7.189
 3996POPC   C4B53482   7.693   9.826   7.575
 3997POPC   NC353483  19.963  25.000   5.588
 3997POPC   PO453484  19.759  25.719   5.489
 3997POPC   GL153485  19.667  25.447   5.850
 3997POPC   GL253486  19.658  25.086   5.972
 3997POPC   C1A53487  19.852  25.432   6.251
 3997POPC   D2A53488  19.843  25.164   6.597
 3997POPC   C3A53489  19.843  25.470   6.915
 3997POPC   C4A53490  19.984  25.423   7.298
 3997POPC   C1B53491  19.417  24.876   6.290
 3997POPC   C2B53492  19.447  24.831   6.743
 3997POPC   C3B53493  19.573  24.884   7.177
 3997POPC   C4B53494  19.363  25.039   7.599
 3998POPC   NC353495  18.085  38.963   5.323
 3998POPC   PO453496  18.526  39.492   5.477
 3998POPC   GL153497  18.453  39.303   5.870
 3998POPC   GL253498  18.362  38.982   5.776
 3998POPC   C1A53499  18.301  39.195   6.293
 3998POPC   D2A53500  18.215  39.173   6.733
 3998POPC   C3A53501  18.493  39.058   7.070
 3998POPC   C4A53502  18.862  39.043   7.319
 3998POPC   C1B53503  17.945  38.938   6.015
 3998POPC   C2B53504  17.876  38.891   6.480
 3998POPC   C3B53505  17.916  38.835   6.966
 3998POPC   C4B53506  18.164  38.797   7.382
 3999POPC   NC353507  14.141  36.697   5.300
 3999POPC   PO453508  14.830  36.967   5.291
 3999POPC   GL153509  14.507  36.921   5.618
 3999POPC   GL253510  14.306  37.188   5.750
 3999POPC   C1A53511  14.574  36.875   6.056
 3999POPC   D2A53512  14.657  36.689   6.415
 3999POPC   C3A53513  14.437  36.823   6.776
 3999POPC   C4A53514  14.650  36.680   7.121
 3999POPC   C1B53515  14.366  37.344   6.130
 3999POPC   C2B53516  14.213  37.219   6.500
 3999POPC   C3B53517  14.376  37.352   6.876
 3999POPC   C4B53518  14.439  37.126   7.227
 4000POPC   NC353519  16.350  11.369   5.492
 4000POPC   PO453520  15.920  10.927   5.462
 4000POPC   GL153521  15.987  11.216   5.852
 4000POPC   GL253522  15.993  11.602   5.803
 4000POPC   C1A53523  15.978  11.154   6.316
 4000POPC   D2A53524  16.008  10.952   6.707
 4000POPC   C3A53525  15.919  11.260   7.049
 4000POPC   C4A53526  15.640  11.595   6.998
 4000POPC   C1B53527  16.229  11.596   6.203
 4000POPC   C2B53528  16.133  11.561   6.649
 4000POPC   C3B53529  16.322  11.681   7.018
 4000POPC   C4B53530  16.208  11.547   7.431
 4001POPC   NC353531   8.192  44.977   5.083
 4001POPC   PO453532   8.429  44.377   5.385
 4001POPC   GL153533   8.337  44.635   5.796
 4001POPC   GL253534   8.540  44.934   5.898
 4001POPC   C1A53535   8.238  44.738   6.262
 4001POPC   D2A53536   8.081  44.489   6.611
 4001POPC   C3A53537   7.935  44.738   6.975
 4001POPC   C4A53538   8.129  44.703   7.348
 4001POPC   C1B53539   8.744  44.851   6.269
 4001POPC   C2B53540   8.604  44.516   6.556
 4001POPC   C3B53541   8.430  44.536   6.964
 4001POPC   C4B53542   8.629  44.686   7.305
 4002POPC   NC353543   9.322  41.647   5.449
 4002POPC   PO453544  10.035  41.388   5.387
 4002POPC   GL153545   9.793  41.435   5.797
 4002POPC   GL253546   9.573  41.734   5.864
 4002POPC   C1A53547   9.710  41.459   6.258
 4002POPC   D2A53548   9.724  41.722   6.632
 4002POPC   C3A53549   9.555  41.493   6.941
 4002POPC   C4A53550   9.656  41.388   7.326
 4002POPC   C1B53551   9.365  41.827   6.266
 4002POPC   C2B53552   9.179  41.749   6.635
 4002POPC   C3B53553   9.254  41.942   7.020
 4002POPC   C4B53554   9.358  41.790   7.401
 4003POPC   NC353555  14.465  30.001   5.305
 4003POPC   PO453556  13.856  29.897   5.436
 4003POPC   GL153557  14.228  30.016   5.762
 4003POPC   GL253558  14.607  29.874   5.791
 4003POPC   C1A53559  14.292  29.901   6.219
 4003POPC   D2A53560  14.200  29.724   6.643
 4003POPC   C3A53561  14.127  30.049   6.948
 4003POPC   C4A53562  14.518  30.181   7.100
 4003POPC   C1B53563  14.756  29.666   6.200
 4003POPC   C2B53564  14.717  29.715   6.668
 4003POPC   C3B53565  14.615  29.448   7.041
 4003POPC   C4B53566  14.529  29.534   7.492
 4004POPC   NC353567  27.860  24.985   5.419
 4004POPC   PO453568  27.380  25.496   5.497
 4004POPC   GL153569  27.426  25.371   5.872
 4004POPC   GL253570  27.532  25.046   5.823
 4004POPC   C1A53571  27.593  25.388   6.284
 4004POPC   D2A53572  27.367  25.412   6.648
 4004POPC   C3A53573  27.633  25.362   7.008
 4004POPC   C4A53574  27.942  25.498   7.290
 4004POPC   C1B53575  27.581  24.849   6.215
 4004POPC   C2B53576  27.610  24.960   6.636
 4004POPC   C3B53577  27.433  24.893   7.033
 4004POPC   C4B53578  27.597  24.876   7.452
 4005POPC   NC353579  12.531  15.560   5.515
 4005POPC   PO453580  12.870  16.071   5.132
 4005POPC   GL153581  12.795  16.033   5.597
 4005POPC   GL253582  12.977  15.761   5.807
 4005POPC   C1A53583  12.755  16.184   6.043
 4005POPC   D2A53584  13.088  16.267   6.371
 4005POPC   C3A53585  13.104  16.246   6.832
 4005POPC   C4A53586  12.757  16.215   7.111
 4005POPC   C1B53587  12.895  15.754   6.293
 4005POPC   C2B53588  12.882  15.774   6.777
 4005POPC   C3B53589  12.896  15.613   7.221
 4005POPC   C4B53590  13.079  15.549   7.641
 4006POPC   NC353591  15.013  38.885   5.366
 4006POPC   PO453592  15.544  39.366   5.447
 4006POPC   GL153593  15.214  39.266   5.750
 4006POPC   GL253594  14.972  39.545   5.819
 4006POPC   C1A53595  15.299  39.052   6.145
 4006POPC   D2A53596  15.362  38.915   6.590
 4006POPC   C3A53597  15.437  39.223   6.966
 4006POPC   C4A53598  15.477  39.326   7.436
 4006POPC   C1B53599  14.893  39.342   6.205
 4006POPC   C2B53600  15.070  39.342   6.616
 4006POPC   C3B53601  14.860  39.496   6.999
 4006POPC   C4B53602  14.805  39.880   7.252
 4007POPC   NC353603  31.984  10.356   5.363
 4007POPC   PO453604  32.639  10.460   5.368
 4007POPC   GL153605  32.301  10.520   5.726
 4007POPC   GL253606  32.344  10.858   5.814
 4007POPC   C1A53607  32.025  10.578   6.113
 4007POPC   D2A53608  32.149  10.475   6.557
 4007POPC   C3A53609  31.922  10.427   6.947
 4007POPC   C4A53610  32.098  10.259   7.329
 4007POPC   C1B53611  32.509  10.726   6.236
 4007POPC   C2B53612  32.477  10.829   6.701
 4007POPC   C3B53613  32.372  10.647   7.111
 4007POPC   C4B53614  32.451  10.649   7.578
 4008POPC   NC353615  18.439  29.553   5.524
 4008POPC   PO453616  18.630  30.100   5.371
 4008POPC   GL153617  18.537  30.174   5.800
 4008POPC   GL253618  18.233  29.966   5.883
 4008POPC   C1A53619  18.468  30.195   6.265
 4008POPC   D2A53620  18.201  29.999   6.594
 4008POPC   C3A53621  18.301  30.143   7.019
 4008POPC   C4A53622  18.156  29.938   7.407
 4008POPC   C1B53623  18.294  29.613   6.170
 4008POPC   C2B53624  18.295  29.429   6.578
 4008POPC   C3B53625  18.347  29.633   6.971
 4008POPC   C4B53626  18.575  29.646   7.371
 4009POPC   NC353627  28.789  28.702   5.384
 4009POPC   PO453628  28.069  28.748   5.515
 4009POPC   GL153629  28.398  28.492   5.772
 4009POPC   GL253630  28.603  28.775   5.846
 4009POPC   C1A53631  28.450  28.226   6.206
 4009POPC   D2A53632  28.382  28.044   6.656
 4009POPC   C3A53633  28.566  28.228   7.027
 4009POPC   C4A53634  28.656  28.060   7.417
 4009POPC   C1B53635  28.296  28.715   6.224
 4009POPC   C2B53636  28.088  28.479   6.564
 4009POPC   C3B53637  28.000  28.577   7.010
 4009POPC   C4B53638  28.181  28.788   7.397
 4010POPC   NC353639  13.553  26.626   5.653
 4010POPC   PO453640  13.709  26.004   5.467
 4010POPC   GL153641  13.864  26.047   5.883
 4010POPC   GL253642  13.868  26.408   5.975
 4010POPC   C1A53643  13.884  25.892   6.330
 4010POPC   D2A53644  13.549  25.806   6.651
 4010POPC   C3A53645  13.680  25.824   7.085
 4010POPC   C4A53646  13.816  26.224   7.184
 4010POPC   C1B53647  13.519  26.274   6.248
 4010POPC   C2B53648  13.244  26.295   6.628
 4010POPC   C3B53649  13.329  26.281   7.081
 4010POPC   C4B53650  13.473  26.535   7.468
 4011POPC   NC353651  38.608  33.442   5.466
 4011POPC   PO453652  38.205  33.924   5.215
 4011POPC   GL153653  38.370  33.895   5.644
 4011POPC   GL253654  38.161  33.626   5.757
 4011POPC   C1A53655  38.471  33.874   6.102
 4011POPC   D2A53656  38.294  34.019   6.502
 4011POPC   C3A53657  38.508  33.846   6.858
 4011POPC   C4A53658  38.563  34.033   7.260
 4011POPC   C1B53659  38.086  33.389   6.136
 4011POPC   C2B53660  38.273  33.471   6.509
 4011POPC   C3B53661  38.244  33.311   6.907
 4011POPC   C4B53662  38.248  33.592   7.238
 4012POPC   NC353663  14.723  41.053   5.369
 4012POPC   PO453664  14.131  40.663   5.383
 4012POPC   GL153665  14.202  40.837   5.816
 4012POPC   GL253666  14.549  40.770   5.773
 4012POPC   C1A53667  14.092  40.919   6.296
 4012POPC   D2A53668  14.050  41.053   6.761
 4012POPC   C3A53669  14.196  40.753   7.099
 4012POPC   C4A53670  14.165  40.296   7.105
 4012POPC   C1B53671  14.590  41.014   6.169
 4012POPC   C2B53672  14.551  40.914   6.637
 4012POPC   C3B53673  14.517  41.134   7.049
 4012POPC   C4B53674  14.490  40.993   7.494
 4013POPC   NC353675   9.151  12.637   5.420
 4013POPC   PO453676   8.885  13.240   5.457
 4013POPC   GL153677   9.057  13.092   5.832
 4013POPC   GL253678   8.922  12.727   5.872
 4013POPC   C1A53679   8.947  13.050   6.285
 4013POPC   D2A53680   8.879  12.631   6.450
 4013POPC   C3A53681   8.958  12.545   6.867
 4013POPC   C4A53682   8.854  12.824   7.133
 4013POPC   C1B53683   9.288  12.713   6.145
 4013POPC   C2B53684   9.376  12.904   6.567
 4013POPC   C3B53685   9.326  12.918   7.020
 4013POPC   C4B53686   9.299  12.996   7.483
 4014POPC   NC353687  10.842  35.324   5.012
 4014POPC   PO453688  10.384  35.409   5.473
 4014POPC   GL153689  10.434  35.413   5.881
 4014POPC   GL253690  10.188  35.192   5.960
 4014POPC   C1A53691  10.595  35.427   6.284
 4014POPC   D2A53692  10.706  35.141   6.594
 4014POPC   C3A53693  10.694  35.316   7.008
 4014POPC   C4A53694  10.743  35.105   7.402
 4014POPC   C1B53695  10.169  35.134   6.381
 4014POPC   C2B53696  10.232  35.175   6.789
 4014POPC   C3B53697  10.203  35.198   7.202
 4014POPC   C4B53698  10.038  35.506   7.430
 4015POPC   NC353699  12.203  17.217   5.538
 4015POPC   PO453700  11.698  17.683   5.369
 4015POPC   GL153701  11.912  17.617   5.861
 4015POPC   GL253702  12.105  17.317   6.016
 4015POPC   C1A53703  11.840  17.562   6.349
 4015POPC   D2A53704  11.725  17.256   6.682
 4015POPC   C3A53705  11.819  17.442   7.053
 4015POPC   C4A53706  11.890  17.868   7.168
 4015POPC   C1B53707  12.360  17.501   6.352
 4015POPC   C2B53708  12.262  17.397   6.756
 4015POPC   C3B53709  12.302  17.387   7.167
 4015POPC   C4B53710  12.379  17.797   7.319
 4016POPC   NC353711  33.151  21.014   5.502
 4016POPC   PO453712  32.800  20.461   5.360
 4016POPC   GL153713  32.754  20.737   5.721
 4016POPC   GL253714  33.078  20.638   5.832
 4016POPC   C1A53715  32.724  20.669   6.191
 4016POPC   D2A53716  32.973  20.615   6.577
 4016POPC   C3A53717  32.797  20.600   6.996
 4016POPC   C4A53718  32.862  20.871   7.348
 4016POPC   C1B53719  33.345  20.681   6.185
 4016POPC   C2B53720  33.505  20.575   6.579
 4016POPC   C3B53721  33.447  20.763   6.961
 4016POPC   C4B53722  33.432  20.623   7.328
 4017POPC   NC353723  44.531  23.242   5.561
 4017POPC   PO453724   0.046  22.742   5.525
 4017POPC   GL153725  44.718  22.851   5.851
 4017POPC   GL253726  44.484  22.609   5.921
 4017POPC   C1A53727  44.510  23.001   6.255
 4017POPC   D2A53728  44.486  23.235   6.665
 4017POPC   C3A53729  44.699  23.139   7.122
 4017POPC   C4A53730  44.939  23.219   7.547
 4017POPC   C1B53731  44.396  22.498   6.325
 4017POPC   C2B53732  44.608  22.443   6.733
 4017POPC   C3B53733  44.782  22.579   7.125
 4017POPC   C4B53734  44.510  22.715   7.420
 4018POPC   NC353735  42.449   4.534   5.014
 4018POPC   PO453736  42.444   4.072   5.587
 4018POPC   GL153737  42.278   4.109   5.932
 4018POPC   GL253738  42.013   3.902   5.921
 4018POPC   C1A53739  42.429   4.133   6.348
 4018POPC   D2A53740  42.500   3.895   6.721
 4018POPC   C3A53741  42.406   4.204   7.001
 4018POPC   C4A53742  42.558   4.608   7.121
 4018POPC   C1B53743  41.918   4.098   6.294
 4018POPC   C2B53744  41.742   4.331   6.598
 4018POPC   C3B53745  41.898   4.340   6.983
 4018POPC   C4B53746  42.106   4.407   7.347
 4019POPC   NC353747  40.135  34.221   5.490
 4019POPC   PO453748  39.560  33.866   5.434
 4019POPC   GL153749  39.863  33.774   5.772
 4019POPC   GL253750  39.827  33.416   5.791
 4019POPC   C1A53751  40.047  33.684   6.209
 4019POPC   D2A53752  40.129  33.398   6.587
 4019POPC   C3A53753  40.118  33.619   6.979
 4019POPC   C4A53754  40.228  34.085   7.040
 4019POPC   C1B53755  39.547  33.542   6.139
 4019POPC   C2B53756  39.658  33.625   6.569
 4019POPC   C3B53757  39.551  33.683   6.985
 4019POPC   C4B53758  39.806  33.920   7.238
 4020POPC   NC353759  43.542  35.332   5.242
 4020POPC   PO453760  42.868  35.178   5.452
 4020POPC   GL153761  43.051  35.415   5.829
 4020POPC   GL253762  43.438  35.517   5.767
 4020POPC   C1A53763  42.847  35.434   6.283
 4020POPC   D2A53764  42.618  35.515   6.718
 4020POPC   C3A53765  42.945  35.581   7.045
 4020POPC   C4A53766  43.141  35.162   7.140
 4020POPC   C1B53767  43.633  35.671   6.187
 4020POPC   C2B53768  43.440  35.765   6.607
 4020POPC   C3B53769  43.498  35.623   7.047
 4020POPC   C4B53770  43.310  35.536   7.451
 4021POPC   NC353771  27.082  34.153   5.541
 4021POPC   PO453772  26.972  34.727   5.429
 4021POPC   GL153773  27.021  34.547   5.880
 4021POPC   GL253774  26.788  34.273   5.947
 4021POPC   C1A53775  27.148  34.663   6.332
 4021POPC   D2A53776  27.316  34.642   6.782
 4021POPC   C3A53777  27.066  34.533   7.183
 4021POPC   C4A53778  26.819  34.836   7.451
 4021POPC   C1B53779  26.990  34.175   6.339
 4021POPC   C2B53780  26.947  34.217   6.795
 4021POPC   C3B53781  26.590  34.397   7.082
 4021POPC   C4B53782  26.336  34.552   7.425
 4022POPC   NC353783   3.296  39.852   5.302
 4022POPC   PO453784   3.985  39.761   5.497
 4022POPC   GL153785   3.633  39.959   5.739
 4022POPC   GL253786   3.431  39.723   5.800
 4022POPC   C1A53787   3.482  40.047   6.177
 4022POPC   D2A53788   3.439  39.821   6.588
 4022POPC   C3A53789   3.456  40.076   6.924
 4022POPC   C4A53790   3.629  40.058   7.322
 4022POPC   C1B53791   3.204  39.615   6.192
 4022POPC   C2B53792   2.932  39.770   6.502
 4022POPC   C3B53793   3.005  39.809   6.894
 4022POPC   C4B53794   3.141  39.923   7.290
 4023POPC   NC353795  36.100  10.713   5.377
 4023POPC   PO453796  35.771  10.147   5.399
 4023POPC   GL153797  36.085  10.391   5.766
 4023POPC   GL253798  36.299  10.731   5.816
 4023POPC   C1A53799  36.031  10.523   6.209
 4023POPC   D2A53800  36.282  10.359   6.511
 4023POPC   C3A53801  36.401  10.469   6.887
 4023POPC   C4A53802  36.224  10.646   7.254
 4023POPC   C1B53803  36.241  11.012   6.160
 4023POPC   C2B53804  36.299  10.901   6.573
 4023POPC   C3B53805  36.515  10.957   6.924
 4023POPC   C4B53806  36.730  10.879   7.295
 4024POPC   NC353807  21.051  16.388   5.112
 4024POPC   PO453808  21.657  16.441   5.370
 4024POPC   GL153809  21.300  16.516   5.703
 4024POPC   GL253810  21.097  16.816   5.579
 4024POPC   C1A53811  21.302  16.380   6.189
 4024POPC   D2A53812  21.590  16.359   6.585
 4024POPC   C3A53813  21.559  16.495   7.030
 4024POPC   C4A53814  21.535  16.475   7.482
 4024POPC   C1B53815  21.024  16.791   6.059
 4024POPC   C2B53816  21.000  16.681   6.539
 4024POPC   C3B53817  21.107  16.732   7.031
 4024POPC   C4B53818  21.356  17.005   7.348
 4025POPC   NC353819  36.499  20.356   5.346
 4025POPC   PO453820  35.937  20.823   5.323
 4025POPC   GL153821  36.228  20.740   5.695
 4025POPC   GL253822  36.449  21.052   5.809
 4025POPC   C1A53823  36.211  20.467   6.107
 4025POPC   D2A53824  35.968  20.339   6.518
 4025POPC   C3A53825  36.139  20.465   6.950
 4025POPC   C4A53826  36.422  20.419   7.345
 4025POPC   C1B53827  36.173  20.976   6.149
 4025POPC   C2B53828  36.220  20.795   6.532
 4025POPC   C3B53829  36.158  20.973   6.908
 4025POPC   C4B53830  36.236  20.867   7.280
 4026POPC   NC353831  33.725   0.654   5.532
 4026POPC   PO453832  33.344   1.159   5.541
 4026POPC   GL153833  33.344   0.826   5.903
 4026POPC   GL253834  33.378   0.450   5.873
 4026POPC   C1A53835  33.351   0.642   6.364
 4026POPC   D2A53836  33.607   0.536   6.767
 4026POPC   C3A53837  33.586   0.477   7.237
 4026POPC   C4A53838  33.860   0.500   7.608
 4026POPC   C1B53839  33.583   0.160   6.191
 4026POPC   C2B53840  33.793   0.083   6.587
 4026POPC   C3B53841  33.949   0.207   6.981
 4026POPC   C4B53842  33.901   0.042   7.364
 4027POPC   NC353843  10.887  36.917   5.321
 4027POPC   PO453844  11.355  37.348   5.455
 4027POPC   GL153845  11.204  37.095   5.766
 4027POPC   GL253846  11.305  36.774   5.602
 4027POPC   C1A53847  11.184  37.143   6.237
 4027POPC   D2A53848  11.123  36.998   6.678
 4027POPC   C3A53849  11.406  37.186   6.966
 4027POPC   C4A53850  11.413  37.173   7.421
 4027POPC   C1B53851  11.359  36.669   6.054
 4027POPC   C2B53852  11.288  36.533   6.484
 4027POPC   C3B53853  11.306  36.582   6.931
 4027POPC   C4B53854  11.188  36.361   7.325
 4028POPC   NC353855  37.341  22.008   5.515
 4028POPC   PO453856  36.869  22.398   5.206
 4028POPC   GL153857  36.964  22.318   5.668
 4028POPC   GL253858  36.854  21.958   5.705
 4028POPC   C1A53859  37.080  22.190   6.125
 4028POPC   D2A53860  37.194  22.024   6.548
 4028POPC   C3A53861  37.099  22.275   6.918
 4028POPC   C4A53862  36.899  22.477   7.252
 4028POPC   C1B53863  36.667  21.887   6.129
 4028POPC   C2B53864  36.791  21.685   6.508
 4028POPC   C3B53865  36.709  21.920   6.863
 4028POPC   C4B53866  36.687  21.818   7.255
 4029POPC   NC353867  10.875  42.429   5.453
 4029POPC   PO453868  10.198  42.666   5.524
 4029POPC   GL153869  10.386  42.264   5.689
 4029POPC   GL253870  10.694  42.200   5.908
 4029POPC   C1A53871  10.259  42.301   6.124
 4029POPC   D2A53872  10.531  42.389   6.479
 4029POPC   C3A53873  10.395  42.343   6.900
 4029POPC   C4A53874  10.537  42.454   7.278
 4029POPC   C1B53875  10.566  41.905   6.276
 4029POPC   C2B53876  10.567  41.890   6.737
 4029POPC   C3B53877  10.800  42.029   7.100
 4029POPC   C4B53878  10.759  42.104   7.554
 4030POPC   NC353879   9.873  16.463   5.245
 4030POPC   PO453880   9.876  15.826   5.538
 4030POPC   GL153881   9.765  16.205   5.740
 4030POPC   GL253882  10.029  16.433   5.855
 4030POPC   C1A53883   9.584  16.160   6.148
 4030POPC   D2A53884   9.665  16.251   6.565
 4030POPC   C3A53885   9.518  16.048   6.881
 4030POPC   C4A53886   9.674  15.742   7.109
 4030POPC   C1B53887  10.181  16.131   6.181
 4030POPC   C2B53888  10.246  16.085   6.628
 4030POPC   C3B53889  10.054  16.118   7.033
 4030POPC   C4B53890  10.203  16.144   7.471
 4031POPC   NC353891  38.098   9.835   5.694
 4031POPC   PO453892  38.662   9.449   5.482
 4031POPC   GL153893  38.582   9.734   5.839
 4031POPC   GL253894  38.576  10.111   5.753
 4031POPC   C1A53895  38.417   9.558   6.256
 4031POPC   D2A53896  38.329   9.395   6.695
 4031POPC   C3A53897  38.567   9.530   7.052
 4031POPC   C4A53898  38.460   9.615   7.490
 4031POPC   C1B53899  38.403  10.097   6.203
 4031POPC   C2B53900  38.436   9.923   6.620
 4031POPC   C3B53901  38.338  10.002   7.038
 4031POPC   C4B53902  38.519  10.265   7.334
 4032POPC   NC353903  19.354  44.301   5.593
 4032POPC   PO453904  19.019  43.709   5.567
 4032POPC   GL153905  19.152  43.954   5.893
 4032POPC   GL253906  18.886  44.180   6.009
 4032POPC   C1A53907  19.335  44.129   6.254
 4032POPC   D2A53908  19.040  44.321   6.548
 4032POPC   C3A53909  19.008  44.136   6.960
 4032POPC   C4A53910  19.050  43.797   7.230
 4032POPC   C1B53911  18.884  43.827   6.328
 4032POPC   C2B53912  18.839  43.653   6.761
 4032POPC   C3B53913  18.750  43.392   7.144
 4032POPC   C4B53914  18.517  43.313   7.559
 4033POPC   NC353915  41.380  14.634   5.450
 4033POPC   PO453916  41.872  14.358   5.571
 4033POPC   GL153917  41.581  14.468   5.900
 4033POPC   GL253918  41.598  14.167   6.079
 4033POPC   C1A53919  41.266  14.536   6.256
 4033POPC   D2A53920  41.102  14.630   6.691
 4033POPC   C3A53921  41.356  14.531   7.085
 4033POPC   C4A53922  41.744  14.666   7.322
 4033POPC   C1B53923  41.787  14.484   6.369
 4033POPC   C2B53924  41.813  14.482   6.829
 4033POPC   C3B53925  41.721  14.167   7.155
 4033POPC   C4B53926  41.352  14.016   7.389
 4034POPC   NC353927  26.488   0.241   5.605
 4034POPC   PO453928  26.953   0.745   5.521
 4034POPC   GL153929  26.862   0.515   5.924
 4034POPC   GL253930  26.837   0.154   5.966
 4034POPC   C1A53931  26.716   0.474   6.351
 4034POPC   D2A53932  26.517   0.507   6.769
 4034POPC   C3A53933  26.776   0.685   7.064
 4034POPC   C4A53934  26.876   0.622   7.465
 4034POPC   C1B53935  26.820  44.957   6.353
 4034POPC   C2B53936  26.819   0.090   6.738
 4034POPC   C3B53937  26.820   0.173   7.159
 4034POPC   C4B53938  26.713   0.133   7.593
 4035POPC   NC353939  27.886   1.340   5.707
 4035POPC   PO453940  27.542   1.026   5.224
 4035POPC   GL153941  27.568   0.919   5.775
 4035POPC   GL253942  27.320   0.735   5.865
 4035POPC   C1A53943  27.629   1.026   6.234
 4035POPC   D2A53944  27.857   1.202   6.590
 4035POPC   C3A53945  27.681   1.082   6.994
 4035POPC   C4A53946  27.488   1.356   7.278
 4035POPC   C1B53947  27.183   0.778   6.278
 4035POPC   C2B53948  27.286   0.983   6.688
 4035POPC   C3B53949  27.197   0.963   7.150
 4035POPC   C4B53950  27.193   0.995   7.631
 4036POPC   NC353951  31.642  18.553   5.423
 4036POPC   PO453952  31.098  18.114   5.352
 4036POPC   GL153953  31.331  18.152   5.727
 4036POPC   GL253954  31.298  18.499   5.805
 4036POPC   C1A53955  31.279  18.142   6.198
 4036POPC   D2A53956  31.538  18.221   6.568
 4036POPC   C3A53957  31.360  18.126   6.977
 4036POPC   C4A53958  31.551  18.168   7.371
 4036POPC   C1B53959  31.614  18.516   6.137
 4036POPC   C2B53960  31.752  18.686   6.560
 4036POPC   C3B53961  31.701  18.509   6.965
 4036POPC   C4B53962  31.812  18.607   7.354
 4037POPC   NC353963  34.111  35.127   5.282
 4037POPC   PO453964  34.858  35.338   5.235
 4037POPC   GL153965  34.518  35.314   5.593
 4037POPC   GL253966  34.417  35.632   5.732
 4037POPC   C1A53967  34.384  35.228   6.058
 4037POPC   D2A53968  34.524  35.048   6.436
 4037POPC   C3A53969  34.608  35.325   6.748
 4037POPC   C4A53970  34.581  35.230   7.152
 4037POPC   C1B53971  34.189  35.680   6.123
 4037POPC   C2B53972  34.150  35.452   6.527
 4037POPC   C3B53973  34.152  35.576   6.971
 4037POPC   C4B53974  34.440  35.709   7.249
 4038POPC   NC353975  23.114  12.952   5.525
 4038POPC   PO453976  22.781  12.329   5.413
 4038POPC   GL153977  22.848  12.605   5.800
 4038POPC   GL253978  22.766  12.950   5.900
 4038POPC   C1A53979  23.071  12.725   6.211
 4038POPC   D2A53980  22.844  12.709   6.590
 4038POPC   C3A53981  23.011  12.735   6.988
 4038POPC   C4A53982  23.334  12.530   7.238
 4038POPC   C1B53983  22.770  13.164   6.304
 4038POPC   C2B53984  22.996  13.183   6.698
 4038POPC   C3B53985  22.859  13.264   7.107
 4038POPC   C4B53986  22.560  12.986   7.258
 4039POPC   NC353987  40.872  27.912   5.463
 4039POPC   PO453988  40.521  27.436   5.390
 4039POPC   GL153989  40.758  27.536   5.787
 4039POPC   GL253990  40.490  27.774   5.846
 4039POPC   C1A53991  40.863  27.656   6.257
 4039POPC   D2A53992  41.129  27.758   6.661
 4039POPC   C3A53993  40.880  27.754   7.050
 4039POPC   C4A53994  40.473  27.954   7.201
 4039POPC   C1B53995  40.429  27.399   6.152
 4039POPC   C2B53996  40.538  27.220   6.557
 4039POPC   C3B53997  40.374  27.199   6.994
 4039POPC   C4B53998  40.300  27.477   7.355
 4040POPC   NC353999  14.850   2.354   5.394
 4040POPC   PO454000  14.678   3.025   5.370
 4040POPC   GL154001  14.548   2.958   5.814
 4040POPC   GL254002  14.527   2.580   5.757
 4040POPC   C1A54003  14.355   3.145   6.232
 4040POPC   D2A54004  14.411   3.286   6.684
 4040POPC   C3A54005  14.612   2.977   6.956
 4040POPC   C4A54006  14.466   2.817   7.367
 4040POPC   C1B54007  14.313   2.622   6.160
 4040POPC   C2B54008  14.243   2.771   6.573
 4040POPC   C3B54009  14.286   2.564   6.932
 4040POPC   C4B54010  14.319   2.329   7.276
 4041POPC   NC354011  16.924  43.086   5.397
 4041POPC   PO454012  16.787  43.705   5.625
 4041POPC   GL154013  16.927  43.321   5.865
 4041POPC   GL254014  16.690  42.999   5.857
 4041POPC   C1A54015  16.817  43.222   6.300
 4041POPC   D2A54016  16.766  43.072   6.712
 4041POPC   C3A54017  16.594  43.256   7.080
 4041POPC   C4A54018  16.803  43.195   7.482
 4041POPC   C1B54019  16.616  42.632   6.134
 4041POPC   C2B54020  16.747  42.431   6.502
 4041POPC   C3B54021  16.658  42.596   6.894
 4041POPC   C4B54022  16.577  42.796   7.245
 4042POPC   NC354023   3.722  30.374   5.523
 4042POPC   PO454024   3.349  30.859   5.226
 4042POPC   GL154025   3.375  30.899   5.677
 4042POPC   GL254026   3.699  30.764   5.868
 4042POPC   C1A54027   3.254  30.806   6.112
 4042POPC   D2A54028   3.460  30.749   6.514
 4042POPC   C3A54029   3.267  30.723   6.919
 4042POPC   C4A54030   3.527  30.867   7.197
 4042POPC   C1B54031   3.816  30.451   6.221
 4042POPC   C2B54032   3.844  30.399   6.695
 4042POPC   C3B54033   3.652  30.359   7.136
 4042POPC   C4B54034   3.717  30.523   7.563
 4043POPC   NC354035  21.612  33.177   5.293
 4043POPC   PO454036  21.014  32.845   5.482
 4043POPC   GL154037  21.029  33.023   5.915
 4043POPC   GL254038  21.155  33.376   5.920
 4043POPC   C1A54039  21.179  32.999   6.361
 4043POPC   D2A54040  21.041  32.955   6.797
 4043POPC   C3A54041  21.281  32.690   7.098
 4043POPC   C4A54042  21.733  32.788   7.129
 4043POPC   C1B54043  21.001  33.480   6.347
 4043POPC   C2B54044  21.225  33.442   6.763
 4043POPC   C3B54045  21.381  33.208   7.162
 4043POPC   C4B54046  21.165  33.244   7.626
 4044POPC   NC354047   6.932  32.942   5.368
 4044POPC   PO454048   6.401  32.654   5.218
 4044POPC   GL154049   6.666  32.682   5.679
 4044POPC   GL254050   6.650  33.062   5.787
 4044POPC   C1A54051   6.789  32.738   6.160
 4044POPC   D2A54052   6.602  32.964   6.555
 4044POPC   C3A54053   6.784  32.992   6.983
 4044POPC   C4A54054   6.851  32.713   7.374
 4044POPC   C1B54055   6.372  33.340   6.062
 4044POPC   C2B54056   6.381  33.450   6.500
 4044POPC   C3B54057   6.238  33.260   6.891
 4044POPC   C4B54058   6.324  32.970   7.249
 4045POPC   NC354059  20.788  12.263   5.511
 4045POPC   PO454060  20.371  11.813   5.451
 4045POPC   GL154061  20.667  11.859   5.822
 4045POPC   GL254062  21.028  11.848   5.814
 4045POPC   C1A54063  20.731  12.159   6.190
 4045POPC   D2A54064  20.578  12.452   6.506
 4045POPC   C3A54065  20.388  12.404   6.911
 4045POPC   C4A54066  20.478  12.200   7.263
 4045POPC   C1B54067  20.961  11.717   6.266
 4045POPC   C2B54068  20.891  11.942   6.684
 4045POPC   C3B54069  20.928  12.006   7.156
 4045POPC   C4B54070  20.831  12.111   7.629
 4046POPC   NC354071  26.628  17.244   5.337
 4046POPC   PO454072  26.822  16.725   5.342
 4046POPC   GL154073  26.712  16.848   5.776
 4046POPC   GL254074  27.017  16.857   5.996
 4046POPC   C1A54075  26.588  16.733   6.227
 4046POPC   D2A54076  26.860  16.705   6.632
 4046POPC   C3A54077  26.840  16.737   7.115
 4046POPC   C4A54078  26.865  16.411   7.473
 4046POPC   C1B54079  26.856  17.141   6.368
 4046POPC   C2B54080  26.824  17.199   6.823
 4046POPC   C3B54081  27.156  17.188   7.127
 4046POPC   C4B54082  27.347  17.401   7.489
 4047POPC   NC354083  24.666   0.864   5.312
 4047POPC   PO454084  24.570   1.460   5.294
 4047POPC   GL154085  24.825   1.275   5.627
 4047POPC   GL254086  24.722   0.931   5.809
 4047POPC   C1A54087  24.845   1.357   6.056
 4047POPC   D2A54088  24.842   1.255   6.478
 4047POPC   C3A54089  24.523   1.163   6.819
 4047POPC   C4A54090  24.578   1.396   7.229
 4047POPC   C1B54091  24.458   1.035   6.185
 4047POPC   C2B54092  24.188   0.822   6.496
 4047POPC   C3B54093  24.054   0.884   6.919
 4047POPC   C4B54094  24.247   1.004   7.303
 4048POPC   NC354095   0.931  35.829   5.344
 4048POPC   PO454096   0.385  36.164   5.474
 4048POPC   GL154097   0.499  36.123   5.886
 4048POPC   GL254098   0.769  35.895   5.890
 4048POPC   C1A54099   0.292  36.119   6.307
 4048POPC   D2A54100   0.243  35.920   6.707
 4048POPC   C3A54101   0.394  36.113   7.092
 4048POPC   C4A54102   0.702  35.865   7.308
 4048POPC   C1B54103   0.790  36.209   6.279
 4048POPC   C2B54104   0.688  36.314   6.704
 4048POPC   C3B54105   0.883  36.320   7.117
 4048POPC   C4B54106   0.664  36.347   7.522
 4049POPC   NC354107  26.493  24.019   5.501
 4049POPC   PO454108  26.843  23.621   5.214
 4049POPC   GL154109  26.789  23.583   5.684
 4049POPC   GL254110  26.920  23.871   5.805
 4049POPC   C1A54111  26.726  23.515   6.170
 4049POPC   D2A54112  26.696  23.727   6.614
 4049POPC   C3A54113  26.579  23.491   7.036
 4049POPC   C4A54114  26.669  23.379   7.532
 4049POPC   C1B54115  26.831  24.052   6.199
 4049POPC   C2B54116  27.045  24.098   6.576
 4049POPC   C3B54117  26.935  24.022   6.970
 4049POPC   C4B54118  27.085  24.083   7.380
 4050POPC   NC354119  37.699  12.329   5.566
 4050POPC   PO454120  37.238  11.908   5.691
 4050POPC   GL154121  37.622  11.915   5.909
 4050POPC   GL254122  37.510  12.259   6.030
 4050POPC   C1A54123  37.754  11.933   6.355
 4050POPC   D2A54124  37.624  11.795   6.785
 4050POPC   C3A54125  37.856  12.037   7.126
 4050POPC   C4A54126  38.039  12.493   7.142
 4050POPC   C1B54127  37.397  12.291   6.457
 4050POPC   C2B54128  37.474  12.284   6.869
 4050POPC   C3B54129  37.344  12.027   7.176
 4050POPC   C4B54130  37.501  11.965   7.568
 4051POPC   NC354131  33.884   5.040   5.318
 4051POPC   PO454132  33.985   5.561   5.688
 4051POPC   GL154133  33.954   5.155   5.859
 4051POPC   GL254134  33.690   4.952   5.792
 4051POPC   C1A54135  33.945   5.150   6.290
 4051POPC   D2A54136  34.026   5.459   6.604
 4051POPC   C3A54137  33.853   5.277   6.937
 4051POPC   C4A54138  33.904   5.084   7.323
 4051POPC   C1B54139  33.464   5.002   6.185
 4051POPC   C2B54140  33.573   4.944   6.614
 4051POPC   C3B54141  33.433   4.984   7.028
 4051POPC   C4B54142  33.408   5.393   7.155
 4052POPC   NC354143  23.989  27.806   5.252
 4052POPC   PO454144  23.644  27.206   5.453
 4052POPC   GL154145  23.761  27.508   5.872
 4052POPC   GL254146  24.097  27.668   5.949
 4052POPC   C1A54147  23.738  27.624   6.365
 4052POPC   D2A54148  23.543  27.430   6.768
 4052POPC   C3A54149  23.448  27.645   7.165
 4052POPC   C4A54150  23.262  27.439   7.517
 4052POPC   C1B54151  24.089  27.268   6.241
 4052POPC   C2B54152  24.030  27.250   6.718
 4052POPC   C3B54153  23.906  27.350   7.173
 4052POPC   C4B54154  24.116  27.266   7.596
 4053POPC   NC354155  35.759   3.622   5.490
 4053POPC   PO454156  35.194   3.443   5.384
 4053POPC   GL154157  35.097   3.606   5.796
 4053POPC   GL254158  35.436   3.528   5.892
 4053POPC   C1A54159  35.111   3.673   6.263
 4053POPC   D2A54160  35.185   3.490   6.688
 4053POPC   C3A54161  35.193   3.746   7.057
 4053POPC   C4A54162  35.142   3.751   7.503
 4053POPC   C1B54163  35.540   3.368   6.304
 4053POPC   C2B54164  35.654   3.276   6.739
 4053POPC   C3B54165  35.510   3.357   7.172
 4053POPC   C4B54166  35.632   3.577   7.563
 4054POPC   NC354167  25.960  27.589   5.128
 4054POPC   PO454168  26.210  27.125   5.524
 4054POPC   GL154169  26.054  27.334   5.891
 4054POPC   GL254170  25.886  27.615   5.797
 4054POPC   C1A54171  26.125  27.612   6.247
 4054POPC   D2A54172  25.938  27.571   6.626
 4054POPC   C3A54173  26.169  27.528   6.987
 4054POPC   C4A54174  25.856  27.445   7.242
 4054POPC   C1B54175  25.715  27.908   6.090
 4054POPC   C2B54176  25.850  28.052   6.472
 4054POPC   C3B54177  25.749  27.980   6.900
 4054POPC   C4B54178  25.550  27.851   7.297
 4055POPC   NC354179  21.628  44.408   5.479
 4055POPC   PO454180  21.040  44.649   5.268
 4055POPC   GL154181  21.242  44.646   5.717
 4055POPC   GL254182  21.268  44.277   5.815
 4055POPC   C1A54183  21.337  44.639   6.185
 4055POPC   D2A54184  21.407  44.867   6.578
 4055POPC   C3A54185  21.343  44.658   6.951
 4055POPC   C4A54186  21.577  44.678   7.334
 4055POPC   C1B54187  21.529  44.154   6.190
 4055POPC   C2B54188  21.394  44.177   6.665
 4055POPC   C3B54189  21.490  44.188   7.122
 4055POPC   C4B54190  21.821  44.256   7.424
 4056POPC   NC354191  37.577  13.978   5.394
 4056POPC   PO454192  37.939  13.478   5.472
 4056POPC   GL154193  37.550  13.581   5.773
 4056POPC   GL254194  37.408  13.935   5.865
 4056POPC   C1A54195  37.504  13.535   6.241
 4056POPC   D2A54196  37.515  13.198   6.585
 4056POPC   C3A54197  37.703  13.346   6.936
 4056POPC   C4A54198  37.523  13.470   7.321
 4056POPC   C1B54199  37.796  13.962   6.075
 4056POPC   C2B54200  37.889  13.823   6.489
 4056POPC   C3B54201  37.656  13.848   6.861
 4056POPC   C4B54202  37.714  13.982   7.271
 4057POPC   NC354203  13.532  31.935   5.441
 4057POPC   PO454204  13.684  31.234   5.418
 4057POPC   GL154205  13.657  31.536   5.762
 4057POPC   GL254206  13.352  31.691   5.858
 4057POPC   C1A54207  13.753  31.592   6.190
 4057POPC   D2A54208  13.945  31.568   6.572
 4057POPC   C3A54209  13.689  31.561   6.916
 4057POPC   C4A54210  13.665  31.356   7.309
 4057POPC   C1B54211  13.377  31.930   6.250
 4057POPC   C2B54212  13.280  31.781   6.650
 4057POPC   C3B54213  13.358  31.946   7.014
 4057POPC   C4B54214  13.663  31.927   7.288
 4058POPC   NC354215  28.126   1.416   5.242
 4058POPC   PO454216  27.983   0.843   5.545
 4058POPC   GL154217  28.303   1.056   5.811
 4058POPC   GL254218  28.402   1.416   5.740
 4058POPC   C1A54219  28.331   1.193   6.251
 4058POPC   D2A54220  28.428   0.964   6.623
 4058POPC   C3A54221  28.197   1.071   6.965
 4058POPC   C4A54222  28.000   1.449   7.151
 4058POPC   C1B54223  28.754   1.418   6.055
 4058POPC   C2B54224  28.834   1.270   6.502
 4058POPC   C3B54225  28.557   1.428   6.851
 4058POPC   C4B54226  28.509   1.676   7.219
 4059POPC   NC354227   2.338  36.892   5.112
 4059POPC   PO454228   2.959  37.136   5.289
 4059POPC   GL154229   2.853  36.990   5.722
 4059POPC   GL254230   2.505  37.123   5.718
 4059POPC   C1A54231   3.033  36.865   6.167
 4059POPC   D2A54232   3.210  36.890   6.618
 4059POPC   C3A54233   3.052  36.876   7.071
 4059POPC   C4A54234   3.038  37.089   7.495
 4059POPC   C1B54235   2.608  37.132   6.177
 4059POPC   C2B54236   2.702  36.978   6.607
 4059POPC   C3B54237   2.618  37.134   7.032
 4059POPC   C4B54238   2.593  36.887   7.407
 4060POPC   NC354239  22.812  26.357   5.040
 4060POPC   PO454240  23.053  26.939   5.292
 4060POPC   GL154241  22.851  26.942   5.687
 4060POPC   GL254242  22.873  26.610   5.738
 4060POPC   C1A54243  22.996  26.959   6.128
 4060POPC   D2A54244  22.998  26.729   6.525
 4060POPC   C3A54245  23.150  26.911   6.895
 4060POPC   C4A54246  22.988  26.692   7.254
 4060POPC   C1B54247  22.782  26.461   6.144
 4060POPC   C2B54248  22.524  26.420   6.517
 4060POPC   C3B54249  22.633  26.383   6.945
 4060POPC   C4B54250  22.521  26.450   7.341
 4061POPC   NC354251  43.118  31.579   5.477
 4061POPC   PO454252  42.668  31.058   5.680
 4061POPC   GL154253  42.926  31.367   5.880
 4061POPC   GL254254  43.336  31.310   5.853
 4061POPC   C1A54255  43.065  31.421   6.283
 4061POPC   D2A54256  43.180  31.228   6.651
 4061POPC   C3A54257  43.126  31.530   6.959
 4061POPC   C4A54258  42.776  31.651   7.183
 4061POPC   C1B54259  43.545  31.577   6.195
 4061POPC   C2B54260  43.580  31.741   6.639
 4061POPC   C3B54261  43.462  31.916   7.067
 4061POPC   C4B54262  43.351  31.841   7.511
 4062POPC   NC354263  19.407  37.710   5.354
 4062POPC   PO454264  18.732  37.528   5.437
 4062POPC   GL154265  18.906  37.639   5.810
 4062POPC   GL254266  19.284  37.603   5.845
 4062POPC   C1A54267  18.685  37.719   6.174
 4062POPC   D2A54268  18.900  37.729   6.531
 4062POPC   C3A54269  18.759  37.681   6.927
 4062POPC   C4A54270  19.041  37.721   7.272
 4062POPC   C1B54271  19.399  37.417   6.277
 4062POPC   C2B54272  19.317  37.533   6.737
 4062POPC   C3B54273  19.494  37.463   7.155
 4062POPC   C4B54274  19.475  37.437   7.603
 4063POPC   NC354275   2.893  33.946   5.458
 4063POPC   PO454276   2.379  33.508   5.419
 4063POPC   GL154277   2.568  33.777   5.798
 4063POPC   GL254278   2.613  34.174   5.829
 4063POPC   C1A54279   2.812  33.811   6.213
 4063POPC   D2A54280   2.857  33.616   6.630
 4063POPC   C3A54281   3.018  33.795   7.013
 4063POPC   C4A54282   3.281  34.055   7.250
 4063POPC   C1B54283   2.506  34.217   6.274
 4063POPC   C2B54284   2.578  34.042   6.699
 4063POPC   C3B54285   2.518  33.943   7.153
 4063POPC   C4B54286   2.376  33.756   7.575
 4064POPC   NC354287  32.113  15.931   5.354
 4064POPC   PO454288  32.665  15.671   5.109
 4064POPC   GL154289  32.551  15.813   5.612
 4064POPC   GL254290  32.345  16.120   5.762
 4064POPC   C1A54291  32.452  15.727   6.069
 4064POPC   D2A54292  32.182  15.856   6.431
 4064POPC   C3A54293  32.112  15.571   6.782
 4064POPC   C4A54294  32.425  15.757   7.046
 4064POPC   C1B54295  32.293  16.365   6.162
 4064POPC   C2B54296  32.184  16.371   6.577
 4064POPC   C3B54297  32.362  16.301   6.971
 4064POPC   C4B54298  32.156  16.395   7.372
 4065POPC   NC354299  39.430  33.418   5.460
 4065POPC   PO454300  38.815  33.086   5.249
 4065POPC   GL154301  38.907  33.095   5.743
 4065POPC   GL254302  38.951  32.782   5.914
 4065POPC   C1A54303  39.185  33.167   6.139
 4065POPC   D2A54304  39.201  33.415   6.521
 4065POPC   C3A54305  39.222  33.286   6.928
 4065POPC   C4A54306  39.192  33.228   7.321
 4065POPC   C1B54307  38.823  32.841   6.305
 4065POPC   C2B54308  39.072  32.901   6.633
 4065POPC   C3B54309  39.061  32.802   7.058
 4065POPC   C4B54310  39.448  32.780   7.271
 4066POPC   NC354311  13.920  10.862   5.065
 4066POPC   PO454312  13.291  10.811   5.247
 4066POPC   GL154313  13.592  10.734   5.627
 4066POPC   GL254314  13.540  11.079   5.738
 4066POPC   C1A54315  13.753  10.447   6.037
 4066POPC   D2A54316  13.886  10.189   6.446
 4066POPC   C3A54317  13.847  10.338   6.900
 4066POPC   C4A54318  13.713  10.548   7.309
 4066POPC   C1B54319  13.472  10.861   6.142
 4066POPC   C2B54320  13.668  10.706   6.538
 4066POPC   C3B54321  13.948  10.857   6.884
 4066POPC   C4B54322  13.965  11.007   7.311
 4067POPC   NC354323   0.291   7.705   5.554
 4067POPC   PO454324   0.515   7.072   5.329
 4067POPC   GL154325   0.277   7.239   5.707
 4067POPC   GL254326   0.545   7.423   5.874
 4067POPC   C1A54327   0.139   7.433   6.134
 4067POPC   D2A54328   0.443   7.510   6.459
 4067POPC   C3A54329   0.242   7.630   6.829
 4067POPC   C4A54330   0.073   7.504   7.223
 4067POPC   C1B54331   0.541   7.091   6.151
 4067POPC   C2B54332   0.641   6.975   6.534
 4067POPC   C3B54333   0.547   7.204   6.884
 4067POPC   C4B54334   0.590   7.510   7.188
 4068POPC   NC354335   5.890  38.191   4.892
 4068POPC   PO454336   5.681  38.434   5.510
 4068POPC   GL154337   5.786  38.314   5.928
 4068POPC   GL254338   6.080  38.551   5.945
 4068POPC   C1A54339   5.608  38.214   6.340
 4068POPC   D2A54340   5.505  38.323   6.763
 4068POPC   C3A54341   5.685  38.089   7.093
 4068POPC   C4A54342   5.784  38.175   7.544
 4068POPC   C1B54343   5.828  38.685   6.294
 4068POPC   C2B54344   5.850  38.695   6.735
 4068POPC   C3B54345   5.756  38.618   7.163
 4068POPC   C4B54346   5.783  38.995   7.421
 4069POPC   NC354347   5.881  20.893   5.182
 4069POPC   PO454348   5.686  20.306   5.608
 4069POPC   GL154349   5.872  20.575   5.842
 4069POPC   GL254350   6.045  20.887   5.696
 4069POPC   C1A54351   5.677  20.654   6.217
 4069POPC   D2A54352   5.843  20.542   6.583
 4069POPC   C3A54353   5.521  20.438   6.854
 4069POPC   C4A54354   5.685  20.387   7.228
 4069POPC   C1B54355   6.166  20.864   6.125
 4069POPC   C2B54356   6.237  20.898   6.569
 4069POPC   C3B54357   5.985  20.885   6.958
 4069POPC   C4B54358   5.868  20.830   7.400
 4070POPC   NC354359   5.934   9.771   5.393
 4070POPC   PO454360   5.297  10.077   5.544
 4070POPC   GL154361   5.700  10.029   5.796
 4070POPC   GL254362   6.094  10.032   5.800
 4070POPC   C1A54363   5.857   9.746   6.143
 4070POPC   D2A54364   5.938   9.658   6.587
 4070POPC   C3A54365   5.630   9.739   6.921
 4070POPC   C4A54366   5.698   9.662   7.336
 4070POPC   C1B54367   6.317   9.931   6.198
 4070POPC   C2B54368   6.271  10.069   6.637
 4070POPC   C3B54369   6.114   9.882   7.037
 4070POPC   C4B54370   6.258   9.987   7.455
 4071POPC   NC354371  33.117  18.451   5.399
 4071POPC   PO454372  32.621  18.041   5.399
 4071POPC   GL154373  32.791  18.229   5.764
 4071POPC   GL254374  32.484  18.260   5.919
 4071POPC   C1A54375  32.904  18.285   6.230
 4071POPC   D2A54376  32.829  18.551   6.622
 4071POPC   C3A54377  33.193  18.487   6.930
 4071POPC   C4A54378  33.380  18.116   7.096
 4071POPC   C1B54379  32.690  17.833   6.086
 4071POPC   C2B54380  32.859  17.754   6.512
 4071POPC   C3B54381  32.917  18.072   6.810
 4071POPC   C4B54382  32.854  18.138   7.246
 4072POPC   NC354383  42.401  22.472   5.487
 4072POPC   PO454384  42.103  21.837   5.466
 4072POPC   GL154385  42.311  22.047   5.782
 4072POPC   GL254386  42.031  22.246   5.829
 4072POPC   C1A54387  42.478  22.237   6.173
 4072POPC   D2A54388  42.280  22.376   6.569
 4072POPC   C3A54389  42.443  22.216   6.981
 4072POPC   C4A54390  42.371  22.203   7.458
 4072POPC   C1B54391  42.007  22.044   6.219
 4072POPC   C2B54392  41.932  21.985   6.641
 4072POPC   C3B54393  42.069  21.899   7.064
 4072POPC   C4B54394  42.075  21.794   7.500
 4073POPC   NC354395  42.451  39.305   5.570
 4073POPC   PO454396  42.089  38.786   5.743
 4073POPC   GL154397  42.256  39.131   6.015
 4073POPC   GL254398  42.656  39.220   6.036
 4073POPC   C1A54399  42.343  39.130   6.447
 4073POPC   D2A54400  42.598  39.377   6.682
 4073POPC   C3A54401  42.384  39.597   6.960
 4073POPC   C4A54402  42.500  39.500   7.330
 4073POPC   C1B54403  42.795  38.858   6.324
 4073POPC   C2B54404  42.706  38.800   6.777
 4073POPC   C3B54405  42.415  38.988   7.092
 4073POPC   C4B54406  42.193  38.769   7.425
 4074POPC   NC354407  16.456  34.795   5.344
 4074POPC   PO454408  17.121  34.559   5.315
 4074POPC   GL154409  16.925  34.505   5.743
 4074POPC   GL254410  16.564  34.616   5.822
 4074POPC   C1A54411  16.994  34.666   6.168
 4074POPC   D2A54412  17.073  34.494   6.567
 4074POPC   C3A54413  17.046  34.768   6.932
 4074POPC   C4A54414  16.962  34.698   7.353
 4074POPC   C1B54415  16.511  34.521   6.270
 4074POPC   C2B54416  16.613  34.709   6.664
 4074POPC   C3B54417  16.561  34.526   7.062
 4074POPC   C4B54418  16.306  34.194   7.252
 4075POPC   NC354419   6.541   7.568   5.440
 4075POPC   PO454420   7.008   7.124   5.394
 4075POPC   GL154421   6.867   7.266   5.813
 4075POPC   GL254422   6.488   7.277   5.858
 4075POPC   C1A54423   6.924   7.460   6.242
 4075POPC   D2A54424   6.963   7.214   6.606
 4075POPC   C3A54425   6.686   7.172   6.934
 4075POPC   C4A54426   6.710   7.486   7.231
 4075POPC   C1B54427   6.605   7.066   6.225
 4075POPC   C2B54428   6.356   7.074   6.555
 4075POPC   C3B54429   6.107   7.306   6.819
 4075POPC   C4B54430   6.249   7.310   7.222
 4076POPC   NC354431  26.144  36.126   5.420
 4076POPC   PO454432  25.641  36.054   5.641
 4076POPC   GL154433  26.026  36.144   5.922
 4076POPC   GL254434  26.304  36.388   5.849
 4076POPC   C1A54435  26.221  36.238   6.336
 4076POPC   D2A54436  26.156  36.510   6.700
 4076POPC   C3A54437  26.021  36.262   7.043
 4076POPC   C4A54438  26.280  35.946   7.268
 4076POPC   C1B54439  26.610  36.533   6.181
 4076POPC   C2B54440  26.671  36.587   6.663
 4076POPC   C3B54441  26.493  36.439   7.081
 4076POPC   C4B54442  26.225  36.400   7.492
 4077POPC   NC354443  20.849  33.320   5.507
 4077POPC   PO454444  21.400  33.562   5.354
 4077POPC   GL154445  21.505  33.741   5.770
 4077POPC   GL254446  21.213  33.917   5.884
 4077POPC   C1A54447  21.479  33.658   6.251
 4077POPC   D2A54448  21.660  33.828   6.655
 4077POPC   C3A54449  21.523  33.729   7.073
 4077POPC   C4A54450  21.568  33.550   7.467
 4077POPC   C1B54451  21.254  34.113   6.306
 4077POPC   C2B54452  21.164  33.991   6.716
 4077POPC   C3B54453  21.237  34.156   7.127
 4077POPC   C4B54454  21.451  34.055   7.519
 4078POPC   NC354455  26.265  32.178   5.427
 4078POPC   PO454456  25.616  32.256   5.400
 4078POPC   GL154457  25.836  32.194   5.830
 4078POPC   GL254458  26.144  31.962   5.880
 4078POPC   C1A54459  25.992  32.269   6.283
 4078POPC   D2A54460  26.030  32.118   6.730
 4078POPC   C3A54461  25.906  32.289   7.148
 4078POPC   C4A54462  25.933  31.966   7.524
 4078POPC   C1B54463  26.443  32.338   6.030
 4078POPC   C2B54464  26.515  32.498   6.456
 4078POPC   C3B54465  26.445  32.421   6.891
 4078POPC   C4B54466  26.367  32.186   7.279
 4079POPC   NC354467  41.375  43.231   5.390
 4079POPC   PO454468  41.762  42.722   5.230
 4079POPC   GL154469  41.523  42.820   5.680
 4079POPC   GL254470  41.626  43.140   5.852
 4079POPC   C1A54471  41.590  42.772   6.183
 4079POPC   D2A54472  41.637  43.018   6.560
 4079POPC   C3A54473  41.601  42.754   6.912
 4079POPC   C4A54474  41.417  42.840   7.309
 4079POPC   C1B54475  41.276  43.189   6.112
 4079POPC   C2B54476  41.115  43.154   6.527
 4079POPC   C3B54477  41.282  43.177   6.956
 4079POPC   C4B54478  41.085  43.226   7.382
 4080POPC   NC354479   2.422  32.393   5.535
 4080POPC   PO454480   3.056  32.071   5.519
 4080POPC   GL154481   2.793  32.183   5.892
 4080POPC   GL254482   2.436  32.061   5.945
 4080POPC   C1A54483   2.871  32.308   6.340
 4080POPC   D2A54484   3.034  32.355   6.766
 4080POPC   C3A54485   2.992  32.080   7.105
 4080POPC   C4A54486   2.578  31.924   7.088
 4080POPC   C1B54487   2.429  32.497   6.184
 4080POPC   C2B54488   2.549  32.603   6.633
 4080POPC   C3B54489   2.608  32.476   7.070
 4080POPC   C4B54490   2.386  32.609   7.441
 4081POPC   NC354491  36.991  29.785   5.241
 4081POPC   PO454492  37.315  30.178   5.668
 4081POPC   GL154493  36.912  29.987   5.822
 4081POPC   GL254494  36.676  29.671   5.850
 4081POPC   C1A54495  36.772  29.972   6.257
 4081POPC   D2A54496  36.807  30.165   6.653
 4081POPC   C3A54497  37.036  29.977   6.985
 4081POPC   C4A54498  37.257  30.279   7.218
 4081POPC   C1B54499  36.494  29.555   6.284
 4081POPC   C2B54500  36.648  29.681   6.716
 4081POPC   C3B54501  36.520  29.934   7.107
 4081POPC   C4B54502  36.460  29.705   7.522
 4082POPC   NC354503  29.684  20.553   5.643
 4082POPC   PO454504  30.044  20.964   5.377
 4082POPC   GL154505  30.148  20.782   5.788
 4082POPC   GL254506  30.152  20.409   5.855
 4082POPC   C1A54507  30.036  20.826   6.219
 4082POPC   D2A54508  29.761  20.702   6.548
 4082POPC   C3A54509  29.906  20.560   6.923
 4082POPC   C4A54510  30.003  20.728   7.329
 4082POPC   C1B54511  29.988  20.309   6.289
 4082POPC   C2B54512  29.942  20.067   6.688
 4082POPC   C3B54513  29.664  20.124   7.048
 4082POPC   C4B54514  29.573  20.455   7.301
 4083POPC   NC354515  30.612  27.575   5.117
 4083POPC   PO454516  30.961  27.889   5.470
 4083POPC   GL154517  30.860  27.611   5.829
 4083POPC   GL254518  30.628  27.878   5.919
 4083POPC   C1A54519  30.714  27.535   6.283
 4083POPC   D2A54520  30.685  27.772   6.685
 4083POPC   C3A54521  30.798  27.573   7.091
 4083POPC   C4A54522  31.084  27.564   7.466
 4083POPC   C1B54523  30.456  28.055   6.304
 4083POPC   C2B54524  30.228  28.029   6.702
 4083POPC   C3B54525  30.391  27.928   7.113
 4083POPC   C4B54526  30.708  27.937   7.459
 4084POPC   NC354527  29.959  24.939   5.311
 4084POPC   PO454528  29.594  25.423   5.148
 4084POPC   GL154529  29.656  25.376   5.634
 4084POPC   GL254530  29.746  25.647   5.870
 4084POPC   C1A54531  29.790  25.154   6.065
 4084POPC   D2A54532  29.963  25.242   6.517
 4084POPC   C3A54533  29.973  25.021   6.951
 4084POPC   C4A54534  30.236  24.890   7.309
 4084POPC   C1B54535  29.597  25.587   6.317
 4084POPC   C2B54536  29.663  25.555   6.777
 4084POPC   C3B54537  30.083  25.518   6.947
 4084POPC   C4B54538  30.310  25.399   7.307
 4085POPC   NC354539  17.007   4.573   5.448
 4085POPC   PO454540  16.491   4.070   5.402
 4085POPC   GL154541  16.607   4.016   5.840
 4085POPC   GL254542  16.869   4.258   5.848
 4085POPC   C1A54543  16.597   4.113   6.311
 4085POPC   D2A54544  16.545   4.155   6.756
 4085POPC   C3A54545  16.721   4.519   6.973
 4085POPC   C4A54546  16.701   4.313   7.360
 4085POPC   C1B54547  17.086   4.087   6.201
 4085POPC   C2B54548  17.030   4.285   6.599
 4085POPC   C3B54549  17.027   4.117   7.000
 4085POPC   C4B54550  17.187   4.234   7.390
 4086POPC   NC354551   0.089  38.819   5.620
 4086POPC   PO454552   0.557  38.224   5.455
 4086POPC   GL154553   0.687  38.306   5.891
 4086POPC   GL254554   0.427  38.527   5.885
 4086POPC   C1A54555   0.738  38.577   6.304
 4086POPC   D2A54556   0.550  38.748   6.722
 4086POPC   C3A54557   0.637  38.546   7.141
 4086POPC   C4A54558   0.556  38.486   7.578
 4086POPC   C1B54559   0.243  38.403   6.248
 4086POPC   C2B54560   0.079  38.530   6.632
 4086POPC   C3B54561   0.132  38.546   7.056
 4086POPC   C4B54562   0.075  38.413   7.426
 4087POPC   NC354563  36.114  38.983   5.585
 4087POPC   PO454564  36.205  38.326   5.546
 4087POPC   GL154565  36.078  38.550   5.862
 4087POPC   GL254566  36.415  38.691   5.884
 4087POPC   C1A54567  35.880  38.470   6.242
 4087POPC   D2A54568  35.931  38.620   6.639
 4087POPC   C3A54569  35.862  38.424   7.010
 4087POPC   C4A54570  36.014  38.095   7.254
 4087POPC   C1B54571  36.197  38.878   6.240
 4087POPC   C2B54572  36.327  38.934   6.655
 4087POPC   C3B54573  36.142  38.855   7.039
 4087POPC   C4B54574  36.209  38.575   7.357
 4088POPC   NC354575  14.165  25.023   5.329
 4088POPC   PO454576  14.597  25.547   5.433
 4088POPC   GL154577  14.530  25.288   5.763
 4088POPC   GL254578  14.207  25.252   5.773
 4088POPC   C1A54579  14.630  25.131   6.146
 4088POPC   D2A54580  14.568  25.327   6.516
 4088POPC   C3A54581  14.601  25.087   6.879
 4088POPC   C4A54582  14.589  25.345   7.238
 4088POPC   C1B54583  14.121  25.171   6.175
 4088POPC   C2B54584  14.039  25.362   6.533
 4088POPC   C3B54585  14.152  25.356   6.957
 4088POPC   C4B54586  14.221  24.983   7.214
 4089POPC   NC354587  31.352  10.226   5.500
 4089POPC   PO454588  31.779  10.757   5.399
 4089POPC   GL154589  31.639  10.562   5.765
 4089POPC   GL254590  31.759  10.237   5.857
 4089POPC   C1A54591  31.511  10.706   6.163
 4089POPC   D2A54592  31.682  10.655   6.545
 4089POPC   C3A54593  31.481  10.742   6.909
 4089POPC   C4A54594  31.489  10.915   7.329
 4089POPC   C1B54595  31.728  10.196   6.309
 4089POPC   C2B54596  31.488  10.218   6.706
 4089POPC   C3B54597  31.536  10.114   7.112
 4089POPC   C4B54598  31.620  10.283   7.506
 4090POPC   NC354599   9.857  13.986   5.366
 4090POPC   PO454600   9.562  14.563   5.440
 4090POPC   GL154601   9.617  14.241   5.769
 4090POPC   GL254602   9.959  14.315   5.778
 4090POPC   C1A54603   9.511  14.290   6.220
 4090POPC   D2A54604   9.628  14.508   6.618
 4090POPC   C3A54605   9.682  14.261   6.990
 4090POPC   C4A54606   9.672  14.343   7.432
 4090POPC   C1B54607   9.970  14.482   6.207
 4090POPC   C2B54608  10.048  14.225   6.582
 4090POPC   C3B54609  10.134  14.011   6.940
 4090POPC   C4B54610  10.130  14.194   7.316
 4091POPC   NC354611  34.629  30.398   5.444
 4091POPC   PO454612  34.386  31.032   5.284
 4091POPC   GL154613  34.541  30.885   5.683
 4091POPC   GL254614  34.310  30.640   5.833
 4091POPC   C1A54615  34.598  30.964   6.144
 4091POPC   D2A54616  34.846  31.103   6.538
 4091POPC   C3A54617  34.896  30.850   6.902
 4091POPC   C4A54618  34.636  30.935   7.269
 4091POPC   C1B54619  34.150  30.714   6.245
 4091POPC   C2B54620  34.405  30.659   6.628
 4091POPC   C3B54621  34.229  30.681   7.047
 4091POPC   C4B54622  34.210  30.462   7.424
 4092POPC   NC354623   1.022  44.471   5.363
 4092POPC   PO454624   1.630  44.723   5.357
 4092POPC   GL154625   1.457  44.702   5.771
 4092POPC   GL254626   1.647  44.496   5.988
 4092POPC   C1A54627   1.199  44.734   6.161
 4092POPC   D2A54628   1.054  44.571   6.557
 4092POPC   C3A54629   1.121  44.751   6.944
 4092POPC   C4A54630   1.170  44.584   7.343
 4092POPC   C1B54631   1.683  44.902   6.190
 4092POPC   C2B54632   1.526  44.848   6.592
 4092POPC   C3B54633   1.625  44.689   7.001
 4092POPC   C4B54634   1.517  44.950   7.307
 4093POPC   NC354635  32.008   2.519   5.206
 4093POPC   PO454636  32.676   2.626   5.379
 4093POPC   GL154637  32.296   2.630   5.630
 4093POPC   GL254638  32.017   2.862   5.609
 4093POPC   C1A54639  32.237   2.686   6.074
 4093POPC   D2A54640  32.345   2.573   6.503
 4093POPC   C3A54641  32.334   2.848   6.850
 4093POPC   C4A54642  32.187   2.469   7.111
 4093POPC   C1B54643  31.898   3.074   6.032
 4093POPC   C2B54644  31.976   3.003   6.478
 4093POPC   C3B54645  31.830   2.783   6.869
 4093POPC   C4B54646  32.020   2.940   7.261
 4094POPC   NC354647  32.059  37.037   5.131
 4094POPC   PO454648  32.711  36.834   5.102
 4094POPC   GL154649  32.397  36.755   5.498
 4094POPC   GL254650  32.172  37.035   5.621
 4094POPC   C1A54651  32.123  36.656   5.928
 4094POPC   D2A54652  32.046  36.684   6.404
 4094POPC   C3A54653  32.116  36.840   6.860
 4094POPC   C4A54654  32.287  36.760   7.297
 4094POPC   C1B54655  32.061  37.192   6.021
 4094POPC   C2B54656  32.127  37.203   6.458
 4094POPC   C3B54657  32.154  37.367   6.872
 4094POPC   C4B54658  32.102  37.221   7.261
 4095POPC   NC354659  36.886  10.096   5.363
 4095POPC   PO454660  36.929   9.472   5.406
 4095POPC   GL154661  36.904   9.689   5.781
 4095POPC   GL254662  36.586   9.837   5.725
 4095POPC   C1A54663  36.966   9.809   6.260
 4095POPC   D2A54664  37.073   9.530   6.638
 4095POPC   C3A54665  37.099   9.676   7.071
 4095POPC   C4A54666  36.770   9.888   7.346
 4095POPC   C1B54667  36.524   9.597   6.097
 4095POPC   C2B54668  36.613   9.408   6.467
 4095POPC   C3B54669  36.623   9.571   6.893
 4095POPC   C4B54670  36.738   9.387   7.299
 4096POPC   NC354671  17.433   8.497   5.376
 4096POPC   PO454672  17.955   8.031   5.555
 4096POPC   GL154673  17.591   8.180   5.848
 4096POPC   GL254674  17.542   8.550   5.862
 4096POPC   C1A54675  17.479   8.074   6.294
 4096POPC   D2A54676  17.627   7.979   6.716
 4096POPC   C3A54677  17.404   8.192   7.044
 4096POPC   C4A54678  17.249   8.014   7.451
 4096POPC   C1B54679  17.838   8.456   6.210
 4096POPC   C2B54680  17.961   8.350   6.634
 4096POPC   C3B54681  17.821   8.513   7.010
 4096POPC   C4B54682  17.639   8.528   7.399
 4097POPC   NC354683  14.591   1.602   5.432
 4097POPC   PO454684  14.213   2.163   5.479
 4097POPC   GL154685  14.327   1.888   5.773
 4097POPC   GL254686  14.687   2.002   5.748
 4097POPC   C1A54687  14.436   1.940   6.190
 4097POPC   D2A54688  14.343   1.789   6.540
 4097POPC   C3A54689  14.367   1.990   6.906
 4097POPC   C4A54690  14.289   1.832   7.311
 4097POPC   C1B54691  14.796   2.293   6.090
 4097POPC   C2B54692  14.586   2.335   6.505
 4097POPC   C3B54693  14.741   2.343   6.905
 4097POPC   C4B54694  14.801   2.118   7.248
 4098POPC   NC354695  36.368  15.406   5.287
 4098POPC   PO454696  36.263  14.725   5.526
 4098POPC   GL154697  36.440  14.884   5.916
 4098POPC   GL254698  36.498  15.218   5.790
 4098POPC   C1A54699  36.390  15.023   6.380
 4098POPC   D2A54700  36.336  15.055   6.842
 4098POPC   C3A54701  35.997  15.071   7.158
 4098POPC   C4A54702  35.928  14.808   7.509
 4098POPC   C1B54703  36.169  15.382   6.094
 4098POPC   C2B54704  35.993  15.361   6.547
 4098POPC   C3B54705  36.100  15.526   6.955
 4098POPC   C4B54706  36.428  15.447   7.261
 4099POPC   NC354707  15.103   5.696   5.076
 4099POPC   PO454708  15.322   6.088   5.438
 4099POPC   GL154709  15.380   5.722   5.689
 4099POPC   GL254710  15.667   5.768   5.890
 4099POPC   C1A54711  15.158   5.527   6.067
 4099POPC   D2A54712  14.917   5.746   6.412
 4099POPC   C3A54713  14.949   5.830   6.871
 4099POPC   C4A54714  15.094   5.671   7.244
 4099POPC   C1B54715  15.385   5.958   6.204
 4099POPC   C2B54716  15.418   5.941   6.664
 4099POPC   C3B54717  15.473   5.980   7.114
 4099POPC   C4B54718  15.241   6.097   7.492
 4100POPC   NC354719  36.091  34.124   5.407
 4100POPC   PO454720  36.055  34.758   5.506
 4100POPC   GL154721  36.128  34.433   5.821
 4100POPC   GL254722  35.783  34.264   5.877
 4100POPC   C1A54723  36.399  34.459   6.185
 4100POPC   D2A54724  36.343  34.648   6.603
 4100POPC   C3A54725  36.226  34.335   6.924
 4100POPC   C4A54726  36.148  34.326   7.373
 4100POPC   C1B54727  35.854  34.593   6.236
 4100POPC   C2B54728  35.829  34.768   6.678
 4100POPC   C3B54729  35.963  34.747   7.112
 4100POPC   C4B54730  35.855  34.757   7.570
 4101POPC   NC354731  33.545  18.848   5.543
 4101POPC   PO454732  34.040  19.253   5.418
 4101POPC   GL154733  33.889  19.141   5.790
 4101POPC   GL254734  33.556  19.311   5.760
 4101POPC   C1A54735  33.962  18.910   6.204
 4101POPC   D2A54736  33.998  18.699   6.632
 4101POPC   C3A54737  33.678  18.838   6.952
 4101POPC   C4A54738  33.733  18.994   7.356
 4101POPC   C1B54739  33.756  19.397   6.191
 4101POPC   C2B54740  33.750  19.218   6.611
 4101POPC   C3B54741  33.684  19.388   7.037
 4101POPC   C4B54742  33.827  19.470   7.492
 4102POPC   NC354743   5.335  44.217   5.485
 4102POPC   PO454744   4.862  43.781   5.419
 4102POPC   GL154745   5.037  43.909   5.816
 4102POPC   GL254746   4.809  44.139   5.901
 4102POPC   C1A54747   5.252  43.801   6.224
 4102POPC   D2A54748   5.363  43.998   6.631
 4102POPC   C3A54749   5.492  43.771   6.958
 4102POPC   C4A54750   5.425  43.901   7.347
 4102POPC   C1B54751   4.736  43.843   6.264
 4102POPC   C2B54752   4.967  43.680   6.628
 4102POPC   C3B54753   4.997  43.808   7.065
 4102POPC   C4B54754   4.863  43.928   7.467
 4103POPC   NC354755  24.826  39.735   5.386
 4103POPC   PO454756  24.335  40.047   5.602
 4103POPC   GL154757  24.570  39.972   5.996
 4103POPC   GL254758  24.888  39.865   5.921
 4103POPC   C1A54759  24.633  40.113   6.446
 4103POPC   D2A54760  24.366  40.149   6.794
 4103POPC   C3A54761  24.529  39.965   7.140
 4103POPC   C4A54762  24.373  39.670   7.430
 4103POPC   C1B54763  24.801  39.644   6.321
 4103POPC   C2B54764  24.746  39.705   6.774
 4103POPC   C3B54765  24.862  39.586   7.224
 4103POPC   C4B54766  24.806  39.625   7.702
 4104POPC   NC354767  15.461  15.144   5.264
 4104POPC   PO454768  14.902  15.406   5.139
 4104POPC   GL154769  15.149  15.278   5.615
 4104POPC   GL254770  15.444  15.378   5.774
 4104POPC   C1A54771  15.087  15.092   6.040
 4104POPC   D2A54772  14.953  15.248   6.452
 4104POPC   C3A54773  15.114  15.104   6.847
 4104POPC   C4A54774  14.951  15.253   7.252
 4104POPC   C1B54775  15.528  15.302   6.238
 4104POPC   C2B54776  15.396  15.503   6.640
 4104POPC   C3B54777  15.394  15.444   7.081
 4104POPC   C4B54778  15.670  15.415   7.402
 4105POPC   NC354779  26.812   7.516   5.178
 4105POPC   PO454780  27.004   8.062   5.538
 4105POPC   GL154781  27.106   7.794   5.865
 4105POPC   GL254782  26.820   7.560   5.864
 4105POPC   C1A54783  27.192   7.688   6.297
 4105POPC   D2A54784  27.137   7.471   6.704
 4105POPC   C3A54785  26.923   7.653   7.079
 4105POPC   C4A54786  26.975   7.636   7.525
 4105POPC   C1B54787  26.738   7.495   6.316
 4105POPC   C2B54788  26.616   7.406   6.756
 4105POPC   C3B54789  26.657   7.198   7.179
 4105POPC   C4B54790  26.643   7.289   7.682
 4106POPC   NC354791  39.547   8.320   5.338
 4106POPC   PO454792  39.053   7.835   5.477
 4106POPC   GL154793  39.253   8.116   5.730
 4106POPC   GL254794  39.595   8.073   5.823
 4106POPC   C1A54795  39.142   8.168   6.165
 4106POPC   D2A54796  39.269   8.397   6.550
 4106POPC   C3A54797  39.216   8.247   6.955
 4106POPC   C4A54798  38.956   8.486   7.181
 4106POPC   C1B54799  39.656   8.221   6.254
 4106POPC   C2B54800  39.623   8.031   6.696
 4106POPC   C3B54801  39.636   8.024   7.159
 4106POPC   C4B54802  39.425   7.857   7.580
 4107POPC   NC354803   4.356  34.301   5.303
 4107POPC   PO454804   3.886  34.789   5.408
 4107POPC   GL154805   4.160  34.582   5.755
 4107POPC   GL254806   4.488  34.743   5.843
 4107POPC   C1A54807   4.131  34.496   6.234
 4107POPC   D2A54808   4.345  34.272   6.610
 4107POPC   C3A54809   4.091  34.328   6.963
 4107POPC   C4A54810   3.928  34.693   7.198
 4107POPC   C1B54811   4.442  34.909   6.293
 4107POPC   C2B54812   4.231  34.792   6.703
 4107POPC   C3B54813   4.450  34.663   7.064
 4107POPC   C4B54814   4.710  34.926   7.200
 4108POPC   NC354815  27.283  29.008   5.373
 4108POPC   PO454816  26.666  28.824   5.533
 4108POPC   GL154817  26.757  29.022   5.923
 4108POPC   GL254818  27.076  28.895   5.840
 4108POPC   C1A54819  26.761  29.174   6.372
 4108POPC   D2A54820  26.627  29.489   6.699
 4108POPC   C3A54821  26.436  29.268   7.040
 4108POPC   C4A54822  26.664  29.062   7.390
 4108POPC   C1B54823  27.048  28.734   6.256
 4108POPC   C2B54824  26.972  28.777   6.674
 4108POPC   C3B54825  26.929  29.091   6.946
 4108POPC   C4B54826  27.180  29.152   7.336
 4109POPC   NC354827  44.999  44.632   5.640
 4109POPC   PO454828   0.630  44.729   5.366
 4109POPC   GL154829   0.485  44.871   5.795
 4109POPC   GL254830   0.163   0.078   5.816
 4109POPC   C1A54831   0.666  44.723   6.213
 4109POPC   D2A54832   0.630  44.321   6.456
 4109POPC   C3A54833   0.570  44.406   6.933
 4109POPC   C4A54834   0.683  44.741   7.261
 4109POPC   C1B54835   0.186  44.890   6.230
 4109POPC   C2B54836   0.301  44.916   6.653
 4109POPC   C3B54837   0.158  44.988   7.051
 4109POPC   C4B54838   0.163  44.630   7.250
 4110POPC   NC354839  32.180   9.388   5.250
 4110POPC   PO454840  31.789   9.941   5.452
 4110POPC   GL154841  32.139   9.894   5.766
 4110POPC   GL254842  32.471  10.035   5.782
 4110POPC   C1A54843  32.299   9.644   6.131
 4110POPC   D2A54844  32.443   9.401   6.482
 4110POPC   C3A54845  32.353   9.580   6.883
 4110POPC   C4A54846  31.967   9.781   7.071
 4110POPC   C1B54847  32.271  10.146   6.181
 4110POPC   C2B54848  32.129   9.955   6.560
 4110POPC   C3B54849  32.348  10.119   6.901
 4110POPC   C4B54850  32.485   9.928   7.249
 4111POPC   NC354851   8.570  15.484   5.508
 4111POPC   PO454852   8.047  15.035   5.626
 4111POPC   GL154853   8.341  15.173   5.974
 4111POPC   GL254854   8.391  15.515   5.987
 4111POPC   C1A54855   8.210  15.312   6.426
 4111POPC   D2A54856   7.914  15.110   6.706
 4111POPC   C3A54857   8.157  14.893   6.998
 4111POPC   C4A54858   8.390  15.045   7.311
 4111POPC   C1B54859   7.988  15.691   6.179
 4111POPC   C2B54860   7.992  15.776   6.598
 4111POPC   C3B54861   8.156  15.543   6.902
 4111POPC   C4B54862   8.372  15.543   7.264
 4112POPC   NC354863  44.426  39.284   5.262
 4112POPC   PO454864  44.995  38.969   5.196
 4112POPC   GL154865  44.845  39.267   5.637
 4112POPC   GL254866  44.506  39.439   5.722
 4112POPC   C1A54867  44.682  39.178   6.109
 4112POPC   D2A54868  44.471  39.035   6.490
 4112POPC   C3A54869  44.645  39.229   6.861
 4112POPC   C4A54870  44.711  39.053   7.266
 4112POPC   C1B54871  44.397  39.664   6.081
 4112POPC   C2B54872  44.494  39.584   6.497
 4112POPC   C3B54873  44.452  39.700   6.935
 4112POPC   C4B54874  44.364  39.448   7.298
 4113POPC   NC354875  15.044  26.137   5.483
 4113POPC   PO454876  15.657  26.253   5.729
 4113POPC   GL154877  15.294  26.105   5.928
 4113POPC   GL254878  15.043  26.365   5.944
 4113POPC   C1A54879  15.264  25.895   6.299
 4113POPC   D2A54880  15.399  25.739   6.675
 4113POPC   C3A54881  15.242  25.865   7.074
 4113POPC   C4A54882  15.410  25.762   7.464
 4113POPC   C1B54883  14.802  26.048   6.125
 4113POPC   C2B54884  14.799  25.824   6.495
 4113POPC   C3B54885  14.859  26.102   6.816
 4113POPC   C4B54886  14.816  26.179   7.227
 4114POPC   NC354887   9.168  40.664   5.553
 4114POPC   PO454888   8.594  40.795   5.198
 4114POPC   GL154889   8.676  40.761   5.673
 4114POPC   GL254890   8.865  41.041   5.747
 4114POPC   C1A54891   8.883  40.662   6.122
 4114POPC   D2A54892   9.097  40.527   6.529
 4114POPC   C3A54893   8.972  40.772   6.883
 4114POPC   C4A54894   8.996  40.696   7.314
 4114POPC   C1B54895   8.538  41.190   6.031
 4114POPC   C2B54896   8.413  41.199   6.480
 4114POPC   C3B54897   8.592  41.114   6.855
 4114POPC   C4B54898   8.514  40.890   7.234
 4115POPC   NC354899  37.559  41.222   5.330
 4115POPC   PO454900  37.722  41.856   5.152
 4115POPC   GL154901  37.824  41.737   5.668
 4115POPC   GL254902  37.694  41.462   5.744
 4115POPC   C1A54903  37.589  41.763   6.129
 4115POPC   D2A54904  37.396  41.769   6.567
 4115POPC   C3A54905  37.617  41.717   6.956
 4115POPC   C4A54906  37.428  41.718   7.375
 4115POPC   C1B54907  37.786  41.251   6.120
 4115POPC   C2B54908  37.606  41.296   6.509
 4115POPC   C3B54909  37.458  41.220   6.903
 4115POPC   C4B54910  37.685  41.284   7.277
 4116POPC   NC354911  30.871  16.256   5.615
 4116POPC   PO454912  30.235  15.881   5.540
 4116POPC   GL154913  30.540  15.918   5.855
 4116POPC   GL254914  30.835  15.697   5.767
 4116POPC   C1A54915  30.511  16.040   6.293
 4116POPC   D2A54916  30.679  16.202   6.691
 4116POPC   C3A54917  30.574  15.960   7.071
 4116POPC   C4A54918  30.591  16.069   7.510
 4116POPC   C1B54919  30.974  15.873   6.152
 4116POPC   C2B54920  30.886  15.741   6.565
 4116POPC   C3B54921  31.064  15.912   6.933
 4116POPC   C4B54922  31.043  15.866   7.375
 4117POPC   NC354923  16.250   4.578   5.395
 4117POPC   PO454924  15.728   4.205   5.454
 4117POPC   GL154925  16.031   4.240   5.756
 4117POPC   GL254926  15.950   4.531   5.904
 4117POPC   C1A54927  16.131   4.008   6.122
 4117POPC   D2A54928  16.116   4.266   6.474
 4117POPC   C3A54929  16.035   4.153   6.921
 4117POPC   C4A54930  16.327   3.998   7.211
 4117POPC   C1B54931  16.380   4.504   6.056
 4117POPC   C2B54932  16.538   4.606   6.475
 4117POPC   C3B54933  16.239   4.606   6.824
 4117POPC   C4B54934  16.261   4.527   7.261
 4118POPC   NC354935  38.333  32.372   5.376
 4118POPC   PO454936  37.919  31.767   5.469
 4118POPC   GL154937  38.305  32.000   5.721
 4118POPC   GL254938  38.662  32.216   5.801
 4118POPC   C1A54939  38.239  32.304   6.091
 4118POPC   D2A54940  38.384  32.224   6.513
 4118POPC   C3A54941  38.160  32.345   6.867
 4118POPC   C4A54942  38.368  32.445   7.197
 4118POPC   C1B54943  38.912  32.078   6.188
 4118POPC   C2B54944  38.794  31.926   6.620
 4118POPC   C3B54945  38.745  32.046   7.056
 4118POPC   C4B54946  38.829  32.040   7.504
 4119POPC   NC354947  17.683  15.745   5.494
 4119POPC   PO454948  17.377  15.181   5.405
 4119POPC   GL154949  17.657  15.181   5.784
 4119POPC   GL254950  17.643  15.483   5.944
 4119POPC   C1A54951  17.783  15.045   6.203
 4119POPC   D2A54952  17.540  15.140   6.568
 4119POPC   C3A54953  17.395  14.911   6.912
 4119POPC   C4A54954  17.606  14.835   7.299
 4119POPC   C1B54955  17.271  15.288   6.158
 4119POPC   C2B54956  17.054  15.342   6.582
 4119POPC   C3B54957  17.168  15.543   6.950
 4119POPC   C4B54958  17.460  15.335   7.227
 4120POPC   NC354959  36.817  31.196   5.423
 4120POPC   PO454960  37.164  31.791   5.338
 4120POPC   GL154961  37.035  31.559   5.742
 4120POPC   GL254962  37.222  31.272   5.846
 4120POPC   C1A54963  36.863  31.449   6.190
 4120POPC   D2A54964  36.949  31.609   6.627
 4120POPC   C3A54965  36.614  31.626   6.943
 4120POPC   C4A54966  36.671  31.551   7.388
 4120POPC   C1B54967  37.146  30.998   6.213
 4120POPC   C2B54968  36.979  31.077   6.627
 4120POPC   C3B54969  37.031  31.272   7.044
 4120POPC   C4B54970  37.322  31.158   7.382
 4121POPC   NC354971   3.853  44.397   5.677
 4121POPC   PO454972   3.341  43.952   5.363
 4121POPC   GL154973   3.569  43.907   5.789
 4121POPC   GL254974   3.677  43.563   5.805
 4121POPC   C1A54975   3.730  43.783   6.254
 4121POPC   D2A54976   3.799  43.876   6.728
 4121POPC   C3A54977   3.406  44.055   6.915
 4121POPC   C4A54978   3.072  43.971   7.244
 4121POPC   C1B54979   3.868  43.286   6.147
 4121POPC   C2B54980   3.761  43.273   6.581
 4121POPC   C3B54981   3.791  43.413   7.000
 4121POPC   C4B54982   3.665  43.759   7.235
 4122POPC   NC354983  18.800  30.537   5.259
 4122POPC   PO454984  19.306  31.067   5.462
 4122POPC   GL154985  19.086  30.865   5.844
 4122POPC   GL254986  18.765  30.666   5.797
 4122POPC   C1A54987  19.154  30.747   6.302
 4122POPC   D2A54988  19.131  30.504   6.693
 4122POPC   C3A54989  19.328  30.521   7.116
 4122POPC   C4A54990  19.061  30.354   7.547
 4122POPC   C1B54991  18.698  30.961   6.167
 4122POPC   C2B54992  18.590  30.870   6.593
 4122POPC   C3B54993  18.649  30.492   6.834
 4122POPC   C4B54994  18.846  30.601   7.162
 4123POPC   NC354995   8.024  18.549   5.389
 4123POPC   PO454996   8.337  17.984   5.463
 4123POPC   GL154997   8.326  18.333   5.751
 4123POPC   GL254998   8.009  18.398   5.903
 4123POPC   C1A54999   8.483  18.399   6.167
 4123POPC   D2A55000   8.367  18.222   6.552
 4123POPC   C3A55001   8.382  18.478   6.866
 4123POPC   C4A55002   8.375  18.327   7.250
 4123POPC   C1B55003   7.930  18.409   6.353
 4123POPC   C2B55004   7.874  18.342   6.789
 4123POPC   C3B55005   7.950  18.590   7.132
 4123POPC   C4B55006   8.063  18.562   7.582
 4124POPC   NC355007  35.620  20.433   5.392
 4124POPC   PO455008  35.031  20.449   5.124
 4124POPC   GL155009  35.174  20.584   5.616
 4124POPC   GL255010  35.513  20.774   5.747
 4124POPC   C1A55011  35.175  20.581   6.082
 4124POPC   D2A55012  35.356  20.347   6.444
 4124POPC   C3A55013  35.285  20.512   6.851
 4124POPC   C4A55014  35.102  20.739   7.167
 4124POPC   C1B55015  35.713  20.679   6.184
 4124POPC   C2B55016  35.701  20.786   6.659
 4124POPC   C3B55017  35.734  20.744   7.134
 4124POPC   C4B55018  35.836  20.825   7.601
 4125POPC   NC355019   2.527  13.903   5.283
 4125POPC   PO455020   2.089  13.924   5.670
 4125POPC   GL155021   2.508  13.859   5.832
 4125POPC   GL255022   2.873  13.867   5.819
 4125POPC   C1A55023   2.586  13.676   6.237
 4125POPC   D2A55024   2.708  13.721   6.679
 4125POPC   C3A55025   2.419  13.541   7.008
 4125POPC   C4A55026   2.326  13.206   7.341
 4125POPC   C1B55027   3.089  13.732   6.243
 4125POPC   C2B55028   3.210  13.654   6.707
 4125POPC   C3B55029   2.958  13.618   7.132
 4125POPC   C4B55030   2.976  13.603   7.629
 4126POPC   NC355031  29.707  13.404   5.046
 4126POPC   PO455032  29.716  13.876   5.407
 4126POPC   GL155033  29.835  13.705   5.765
 4126POPC   GL255034  29.522  13.686   5.916
 4126POPC   C1A55035  29.940  13.840   6.162
 4126POPC   D2A55036  30.057  13.661   6.544
 4126POPC   C3A55037  29.870  13.796   6.930
 4126POPC   C4A55038  29.962  13.660   7.336
 4126POPC   C1B55039  29.681  13.392   6.220
 4126POPC   C2B55040  29.619  13.420   6.638
 4126POPC   C3B55041  29.836  13.302   6.959
 4126POPC   C4B55042  29.623  13.272   7.319
 4127POPC   NC355043  12.488  14.528   5.395
 4127POPC   PO455044  13.173  14.712   5.455
 4127POPC   GL155045  12.852  14.736   5.811
 4127POPC   GL255046  12.699  14.434   5.869
 4127POPC   C1A55047  12.778  14.664   6.288
 4127POPC   D2A55048  12.982  14.420   6.593
 4127POPC   C3A55049  12.790  14.536   6.934
 4127POPC   C4A55050  12.917  14.453   7.310
 4127POPC   C1B55051  12.857  14.120   6.200
 4127POPC   C2B55052  12.822  13.915   6.628
 4127POPC   C3B55053  12.885  14.004   7.060
 4127POPC   C4B55054  12.592  14.009   7.378
 4128POPC   NC355055   0.937  17.377   5.531
 4128POPC   PO455056   1.604  17.134   5.556
 4128POPC   GL155057   1.352  17.395   5.891
 4128POPC   GL255058   1.222  17.767   5.883
 4128POPC   C1A55059   1.287  17.519   6.352
 4128POPC   D2A55060   1.280  17.803   6.745
 4128POPC   C3A55061   1.129  17.700   7.184
 4128POPC   C4A55062   0.946  17.302   7.263
 4128POPC   C1B55063   1.009  17.979   6.277
 4128POPC   C2B55064   0.763  18.024   6.695
 4128POPC   C3B55065   0.761  18.067   7.171
 4128POPC   C4B55066   0.948  18.014   7.636
 4129POPC   NC355067  44.263  19.634   5.045
 4129POPC   PO455068  43.807  20.118   5.270
 4129POPC   GL155069  43.725  19.981   5.768
 4129POPC   GL255070  43.753  19.605   5.774
 4129POPC   C1A55071  43.882  19.824   6.203
 4129POPC   D2A55072  43.759  19.712   6.631
 4129POPC   C3A55073  43.993  19.653   7.020
 4129POPC   C4A55074  44.201  19.927   7.304
 4129POPC   C1B55075  43.495  19.485   6.163
 4129POPC   C2B55076  43.368  19.357   6.600
 4129POPC   C3B55077  43.494  19.464   7.005
 4129POPC   C4B55078  43.629  19.662   7.381
 4130POPC   NC355079  31.215  14.693   5.147
 4130POPC   PO455080  31.557  14.232   5.506
 4130POPC   GL155081  31.350  14.466   5.809
 4130POPC   GL255082  31.652  14.504   6.054
 4130POPC   C1A55083  31.193  14.572   6.210
 4130POPC   D2A55084  31.421  14.720   6.566
 4130POPC   C3A55085  31.246  14.629   6.951
 4130POPC   C4A55086  31.276  14.387   7.325
 4130POPC   C1B55087  31.845  14.177   6.364
 4130POPC   C2B55088  31.959  14.036   6.768
 4130POPC   C3B55089  31.685  14.176   7.080
 4130POPC   C4B55090  31.722  14.240   7.513
 4131POPC   NC355091  22.854  44.075   5.548
 4131POPC   PO455092  23.175  43.443   5.444
 4131POPC   GL155093  23.212  43.757   5.801
 4131POPC   GL255094  23.160  44.137   5.957
 4131POPC   C1A55095  22.953  43.712   6.184
 4131POPC   D2A55096  22.776  43.531   6.548
 4131POPC   C3A55097  22.949  43.687   6.915
 4131POPC   C4A55098  23.103  43.628   7.308
 4131POPC   C1B55099  22.763  44.248   6.208
 4131POPC   C2B55100  22.623  44.073   6.611
 4131POPC   C3B55101  22.749  44.160   7.028
 4131POPC   C4B55102  23.063  44.277   7.323
 4132POPC   NC355103   7.131  34.374   5.746
 4132POPC   PO455104   7.144  34.913   5.349
 4132POPC   GL155105   7.391  34.826   5.782
 4132POPC   GL255106   7.641  34.497   5.778
 4132POPC   C1A55107   7.275  34.774   6.263
 4132POPC   D2A55108   7.072  34.908   6.651
 4132POPC   C3A55109   7.349  34.799   6.920
 4132POPC   C4A55110   7.405  34.392   7.045
 4132POPC   C1B55111   7.760  34.652   6.191
 4132POPC   C2B55112   7.659  34.487   6.605
 4132POPC   C3B55113   7.884  34.268   6.959
 4132POPC   C4B55114   7.830  34.425   7.375
 4133POPC   NC355115  31.063  29.994   5.505
 4133POPC   PO455116  30.341  29.857   5.360
 4133POPC   GL155117  30.585  29.932   5.724
 4133POPC   GL255118  30.606  30.285   5.611
 4133POPC   C1A55119  30.623  29.925   6.204
 4133POPC   D2A55120  30.427  29.858   6.646
 4133POPC   C3A55121  30.541  29.762   7.105
 4133POPC   C4A55122  30.729  29.885   7.523
 4133POPC   C1B55123  30.406  30.349   6.002
 4133POPC   C2B55124  30.461  30.385   6.467
 4133POPC   C3B55125  30.585  30.268   6.907
 4133POPC   C4B55126  30.916  30.282   7.210
 4134POPC   NC355127  27.740  26.686   5.496
 4134POPC   PO455128  27.190  26.435   5.563
 4134POPC   GL155129  27.268  26.778   5.893
 4134POPC   GL255130  27.600  26.885   5.960
 4134POPC   C1A55131  27.284  26.943   6.359
 4134POPC   D2A55132  27.477  27.045   6.776
 4134POPC   C3A55133  27.437  26.758   7.125
 4134POPC   C4A55134  27.315  26.831   7.561
 4134POPC   C1B55135  27.742  26.697   6.364
 4134POPC   C2B55136  27.846  26.673   6.791
 4134POPC   C3B55137  27.953  26.956   7.109
 4134POPC   C4B55138  27.849  26.781   7.484
 4135POPC   NC355139   3.473  34.629   5.269
 4135POPC   PO455140   3.329  33.916   5.309
 4135POPC   GL155141   3.248  34.250   5.704
 4135POPC   GL255142   3.371  34.599   5.801
 4135POPC   C1A55143   3.385  34.249   6.196
 4135POPC   D2A55144   3.316  34.179   6.678
 4135POPC   C3A55145   3.465  34.483   7.031
 4135POPC   C4A55146   3.462  34.623   7.524
 4135POPC   C1B55147   3.554  34.748   6.242
 4135POPC   C2B55148   3.570  34.912   6.710
 4135POPC   C3B55149   3.472  34.980   7.165
 4135POPC   C4B55150   3.786  35.053   7.532
 4136POPC   NC355151  43.792   6.697   5.371
 4136POPC   PO455152  44.280   7.123   5.732
 4136POPC   GL155153  44.140   6.664   5.778
 4136POPC   GL255154  43.782   6.600   5.858
 4136POPC   C1A55155  44.145   6.375   6.135
 4136POPC   D2A55156  44.199   6.589   6.518
 4136POPC   C3A55157  44.263   6.421   6.909
 4136POPC   C4A55158  44.122   6.675   7.266
 4136POPC   C1B55159  43.728   6.682   6.279
 4136POPC   C2B55160  43.648   6.429   6.622
 4136POPC   C3B55161  43.716   6.498   7.022
 4136POPC   C4B55162  43.680   6.946   7.126
 4137POPC   NC355163  26.325  24.942   5.505
 4137POPC   PO455164  25.903  25.476   5.224
 4137POPC   GL155165  25.848  25.479   5.705
 4137POPC   GL255166  25.981  25.155   5.834
 4137POPC   C1A55167  26.023  25.606   6.136
 4137POPC   D2A55168  26.308  25.574   6.478
 4137POPC   C3A55169  26.122  25.555   6.863
 4137POPC   C4A55170  26.021  25.405   7.242
 4137POPC   C1B55171  26.209  25.138   6.229
 4137POPC   C2B55172  26.305  25.092   6.684
 4137POPC   C3B55173  26.279  24.984   7.120
 4137POPC   C4B55174  25.912  24.874   7.337
 4138POPC   NC355175  36.009  18.744   5.473
 4138POPC   PO455176  36.525  19.150   5.433
 4138POPC   GL155177  36.301  19.032   5.795
 4138POPC   GL255178  36.452  18.708   5.803
 4138POPC   C1A55179  35.945  19.061   6.139
 4138POPC   D2A55180  35.769  18.961   6.559
 4138POPC   C3A55181  35.927  19.133   6.947
 4138POPC   C4A55182  36.063  19.059   7.360
 4138POPC   C1B55183  36.346  18.744   6.232
 4138POPC   C2B55184  36.295  18.904   6.628
 4138POPC   C3B55185  36.274  18.752   7.030
 4138POPC   C4B55186  36.484  18.739   7.413
 4139POPC   NC355187  23.204  12.106   5.307
 4139POPC   PO455188  23.779  12.390   5.365
 4139POPC   GL155189  23.682  12.051   5.662
 4139POPC   GL255190  23.445  11.769   5.626
 4139POPC   C1A55191  23.805  12.041   6.063
 4139POPC   D2A55192  23.711  12.083   6.486
 4139POPC   C3A55193  24.021  12.096   6.794
 4139POPC   C4A55194  23.983  11.952   7.225
 4139POPC   C1B55195  23.332  11.861   6.069
 4139POPC   C2B55196  23.303  11.800   6.538
 4139POPC   C3B55197  23.383  12.099   6.895
 4139POPC   C4B55198  23.426  11.948   7.304
 4140POPC   NC355199  29.183  26.330   5.313
 4140POPC   PO455200  28.750  25.710   5.312
 4140POPC   GL155201  28.904  25.990   5.614
 4140POPC   GL255202  29.240  26.019   5.718
 4140POPC   C1A55203  28.910  25.953   6.103
 4140POPC   D2A55204  29.131  25.785   6.512
 4140POPC   C3A55205  29.095  25.982   6.957
 4140POPC   C4A55206  29.127  26.120   7.433
 4140POPC   C1B55207  29.427  26.045   6.156
 4140POPC   C2B55208  29.560  26.035   6.630
 4140POPC   C3B55209  29.572  25.943   7.110
 4140POPC   C4B55210  29.658  26.221   7.468
 4141POPC   NC355211  16.538  31.488   5.329
 4141POPC   PO455212  16.938  31.048   5.490
 4141POPC   GL155213  16.598  31.131   5.724
 4141POPC   GL255214  16.842  31.032   5.991
 4141POPC   C1A55215  16.491  31.370   6.066
 4141POPC   D2A55216  16.718  31.215   6.453
 4141POPC   C3A55217  16.608  31.462   6.784
 4141POPC   C4A55218  16.547  31.384   7.168
 4141POPC   C1B55219  17.211  31.017   6.252
 4141POPC   C2B55220  17.231  30.965   6.677
 4141POPC   C3B55221  17.108  31.354   6.904
 4141POPC   C4B55222  17.042  31.445   7.332
 4142POPC   NC355223   2.899  44.155   5.499
 4142POPC   PO455224   2.676  43.521   5.528
 4142POPC   GL155225   2.822  43.766   5.840
 4142POPC   GL255226   3.142  43.605   5.833
 4142POPC   C1A55227   2.655  43.796   6.255
 4142POPC   D2A55228   2.472  43.605   6.617
 4142POPC   C3A55229   2.743  43.729   6.943
 4142POPC   C4A55230   2.607  43.761   7.352
 4142POPC   C1B55231   3.196  43.773   6.226
 4142POPC   C2B55232   3.388  43.624   6.601
 4142POPC   C3B55233   3.256  43.557   6.986
 4142POPC   C4B55234   3.027  43.461   7.321
 4143POPC   NC355235   0.900   9.048   5.421
 4143POPC   PO455236   1.269   8.545   5.419
 4143POPC   GL155237   1.356   8.763   5.796
 4143POPC   GL255238   1.222   9.115   5.823
 4143POPC   C1A55239   1.269   8.839   6.231
 4143POPC   D2A55240   1.541   9.034   6.470
 4143POPC   C3A55241   1.354   8.918   6.810
 4143POPC   C4A55242   1.435   8.919   7.194
 4143POPC   C1B55243   1.218   9.359   6.248
 4143POPC   C2B55244   1.275   9.417   6.722
 4143POPC   C3B55245   1.257   9.382   7.175
 4143POPC   C4B55246   1.070   9.452   7.590
 4144POPC   NC355247  34.134  14.214   5.386
 4144POPC   PO455248  34.704  14.590   5.455
 4144POPC   GL155249  34.619  14.473   5.884
 4144POPC   GL255250  34.382  14.177   5.897
 4144POPC   C1A55251  34.545  14.456   6.339
 4144POPC   D2A55252  34.448  14.259   6.716
 4144POPC   C3A55253  34.582  14.481   7.088
 4144POPC   C4A55254  34.909  14.549   7.400
 4144POPC   C1B55255  34.784  14.032   6.140
 4144POPC   C2B55256  34.966  14.052   6.583
 4144POPC   C3B55257  34.807  14.036   7.021
 4144POPC   C4B55258  34.380  13.947   7.128
 4145POPC   NC355259  22.522  40.646   5.624
 4145POPC   PO455260  22.097  41.211   5.459
 4145POPC   GL155261  22.174  41.092   5.868
 4145POPC   GL255262  22.522  41.100   5.882
 4145POPC   C1A55263  22.118  41.071   6.313
 4145POPC   D2A55264  22.230  40.818   6.694
 4145POPC   C3A55265  21.943  40.937   7.016
 4145POPC   C4A55266  21.565  41.145   7.192
 4145POPC   C1B55267  22.596  40.893   6.281
 4145POPC   C2B55268  22.759  40.881   6.691
 4145POPC   C3B55269  22.594  40.951   7.076
 4145POPC   C4B55270  22.317  40.666   7.227
 4146POPC   NC355271   1.130  28.137   4.975
 4146POPC   PO455272   1.029  28.636   5.376
 4146POPC   GL155273   1.235  28.483   5.748
 4146POPC   GL255274   1.358  28.727   6.006
 4146POPC   C1A55275   1.039  28.266   6.072
 4146POPC   D2A55276   0.951  28.182   6.496
 4146POPC   C3A55277   0.826  28.493   6.799
 4146POPC   C4A55278   1.003  28.571   7.207
 4146POPC   C1B55279   1.392  28.485   6.402
 4146POPC   C2B55280   1.336  28.409   6.843
 4146POPC   C3B55281   1.518  28.580   7.229
 4146POPC   C4B55282   1.483  28.603   7.697
 4147POPC   NC355283  16.132  38.031   5.414
 4147POPC   PO455284  15.635  37.535   5.398
 4147POPC   GL155285  15.948  37.654   5.720
 4147POPC   GL255286  15.713  37.707   5.947
 4147POPC   C1A55287  16.159  37.769   6.152
 4147POPC   D2A55288  16.034  37.638   6.566
 4147POPC   C3A55289  16.257  37.813   6.892
 4147POPC   C4A55290  16.225  37.768   7.348
 4147POPC   C1B55291  15.634  37.927   6.320
 4147POPC   C2B55292  15.531  37.721   6.696
 4147POPC   C3B55293  15.749  37.766   7.079
 4147POPC   C4B55294  15.753  37.955   7.501
 4148POPC   NC355295  40.095  17.491   5.350
 4148POPC   PO455296  39.583  17.025   5.364
 4148POPC   GL155297  39.631  17.395   5.730
 4148POPC   GL255298  39.975  17.563   5.823
 4148POPC   C1A55299  39.746  17.403   6.226
 4148POPC   D2A55300  39.817  17.217   6.640
 4148POPC   C3A55301  39.918  17.386   7.051
 4148POPC   C4A55302  40.063  17.328   7.458
 4148POPC   C1B55303  40.337  17.602   6.070
 4148POPC   C2B55304  40.242  17.508   6.471
 4148POPC   C3B55305  40.364  17.567   6.887
 4148POPC   C4B55306  40.512  17.560   7.312
 4149POPC   NC355307   5.043  25.988   5.387
 4149POPC   PO455308   4.991  26.588   5.529
 4149POPC   GL155309   5.005  26.253   5.923
 4149POPC   GL255310   4.972  25.853   5.864
 4149POPC   C1A55311   5.126  26.293   6.435
 4149POPC   D2A55312   5.364  25.959   6.719
 4149POPC   C3A55313   5.249  25.920   7.144
 4149POPC   C4A55314   5.132  26.243   7.456
 4149POPC   C1B55315   5.120  25.829   6.284
 4149POPC   C2B55316   4.869  25.870   6.681
 4149POPC   C3B55317   4.803  25.674   7.078
 4149POPC   C4B55318   4.888  25.792   7.489
 4150POPC   NC355319  43.706  36.923   5.438
 4150POPC   PO455320  43.878  36.346   5.501
 4150POPC   GL155321  43.881  36.673   5.846
 4150POPC   GL255322  44.056  37.033   5.804
 4150POPC   C1A55323  44.055  36.716   6.257
 4150POPC   D2A55324  43.920  36.470   6.591
 4150POPC   C3A55325  43.845  36.689   6.970
 4150POPC   C4A55326  44.089  36.966   7.206
 4150POPC   C1B55327  43.716  37.089   6.118
 4150POPC   C2B55328  43.656  36.946   6.545
 4150POPC   C3B55329  43.728  37.200   6.882
 4150POPC   C4B55330  43.594  37.313   7.258
 4151POPC   NC355331   9.223   9.555   5.596
 4151POPC   PO455332   8.730   9.904   5.296
 4151POPC   GL155333   8.692  10.065   5.751
 4151POPC   GL255334   9.042  10.125   5.886
 4151POPC   C1A55335   8.728   9.939   6.226
 4151POPC   D2A55336   8.704   9.751   6.627
 4151POPC   C3A55337   8.762   9.957   7.028
 4151POPC   C4A55338   8.715   9.853   7.444
 4151POPC   C1B55339   9.236   9.918   6.293
 4151POPC   C2B55340   9.205   9.776   6.775
 4151POPC   C3B55341   9.214   9.784   7.259
 4151POPC   C4B55342   9.496  10.020   7.548
 4152POPC   NC355343  28.958  42.754   5.493
 4152POPC   PO455344  29.368  43.244   5.267
 4152POPC   GL155345  29.216  43.176   5.688
 4152POPC   GL255346  29.362  42.835   5.794
 4152POPC   C1A55347  29.095  43.150   6.132
 4152POPC   D2A55348  29.212  42.956   6.519
 4152POPC   C3A55349  29.097  43.143   6.914
 4152POPC   C4A55350  29.423  43.162   7.191
 4152POPC   C1B55351  29.105  42.615   6.118
 4152POPC   C2B55352  28.842  42.590   6.480
 4152POPC   C3B55353  29.035  42.628   6.899
 4152POPC   C4B55354  28.991  42.796   7.294
 4153POPC   NC355355  29.109   2.034   5.267
 4153POPC   PO455356  28.557   1.613   5.267
 4153POPC   GL155357  28.748   1.809   5.685
 4153POPC   GL255358  28.953   2.106   5.733
 4153POPC   C1A55359  28.750   1.940   6.155
 4153POPC   D2A55360  28.790   1.773   6.558
 4153POPC   C3A55361  28.800   2.000   6.957
 4153POPC   C4A55362  29.011   1.927   7.369
 4153POPC   C1B55363  29.237   2.127   6.096
 4153POPC   C2B55364  29.158   2.115   6.524
 4153POPC   C3B55365  29.293   2.049   6.934
 4153POPC   C4B55366  29.343   2.298   7.280
 4154POPC   NC355367  44.460  33.737   5.453
 4154POPC   PO455368  44.947  34.225   5.501
 4154POPC   GL155369  44.902  33.854   5.782
 4154POPC   GL255370  44.558  33.934   5.915
 4154POPC   C1A55371  44.891  33.652   6.206
 4154POPC   D2A55372  44.671  33.768   6.595
 4154POPC   C3A55373  44.655  33.464   6.931
 4154POPC   C4A55374   0.085  33.473   7.104
 4154POPC   C1B55375  44.213  34.118   6.177
 4154POPC   C2B55376  44.289  34.145   6.607
 4154POPC   C3B55377  44.362  33.910   6.976
 4154POPC   C4B55378  44.800  33.907   7.122
 4155POPC   NC355379   7.332   7.494   5.329
 4155POPC   PO455380   7.760   7.023   5.458
 4155POPC   GL155381   7.499   7.286   5.756
 4155POPC   GL255382   7.561   7.678   5.765
 4155POPC   C1A55383   7.413   7.430   6.177
 4155POPC   D2A55384   7.436   7.485   6.597
 4155POPC   C3A55385   7.127   7.608   6.884
 4155POPC   C4A55386   7.202   7.442   7.283
 4155POPC   C1B55387   7.734   7.859   6.187
 4155POPC   C2B55388   7.792   7.828   6.679
 4155POPC   C3B55389   7.609   7.698   7.086
 4155POPC   C4B55390   7.462   7.848   7.511
 4156POPC   NC355391  30.305  33.653   5.224
 4156POPC   PO455392  29.731  33.841   5.475
 4156POPC   GL155393  29.607  33.792   5.868
 4156POPC   GL255394  29.972  33.874   5.914
 4156POPC   C1A55395  29.693  33.821   6.311
 4156POPC   D2A55396  29.954  33.837   6.648
 4156POPC   C3A55397  29.651  33.869   6.950
 4156POPC   C4A55398  29.587  33.569   7.234
 4156POPC   C1B55399  30.239  33.729   6.233
 4156POPC   C2B55400  30.449  33.573   6.589
 4156POPC   C3B55401  30.369  33.676   7.003
 4156POPC   C4B55402  30.120  34.009   7.117
 4157POPC   NC355403  44.621  18.494   5.600
 4157POPC   PO455404   0.023  18.006   5.532
 4157POPC   GL155405  44.680  17.925   5.821
 4157POPC   GL255406  44.326  18.074   5.785
 4157POPC   C1A55407  44.683  18.160   6.202
 4157POPC   D2A55408  44.906  18.409   6.520
 4157POPC   C3A55409  44.769  18.260   6.912
 4157POPC   C4A55410  44.780  18.127   7.325
 4157POPC   C1B55411  44.208  18.335   6.167
 4157POPC   C2B55412  44.380  18.330   6.579
 4157POPC   C3B55413  44.248  18.214   6.962
 4157POPC   C4B55414  44.315  18.310   7.399
 4158POPC   NC355415  29.768   1.508   5.260
 4158POPC   PO455416  29.990   0.887   5.501
 4158POPC   GL155417  29.798   1.186   5.720
 4158POPC   GL255418  29.992   1.465   5.721
 4158POPC   C1A55419  29.687   1.127   6.144
 4158POPC   D2A55420  29.874   1.080   6.552
 4158POPC   C3A55421  29.656   1.272   6.895
 4158POPC   C4A55422  29.952   1.440   7.163
 4158POPC   C1B55423  29.681   1.621   6.005
 4158POPC   C2B55424  29.702   1.595   6.451
 4158POPC   C3B55425  29.713   1.772   6.855
 4158POPC   C4B55426  29.489   1.684   7.240
 4159POPC   NC355427  42.938  41.192   5.112
 4159POPC   PO455428  42.429  41.399   5.435
 4159POPC   GL155429  42.477  41.649   5.807
 4159POPC   GL255430  42.414  41.343   5.965
 4159POPC   C1A55431  42.425  41.871   6.216
 4159POPC   D2A55432  42.140  41.878   6.563
 4159POPC   C3A55433  42.305  41.827   6.957
 4159POPC   C4A55434  42.062  41.470   7.201
 4159POPC   C1B55435  42.234  41.396   6.349
 4159POPC   C2B55436  42.439  41.367   6.729
 4159POPC   C3B55437  42.563  41.438   7.142
 4159POPC   C4B55438  42.427  41.214   7.487
 4160POPC   NC355439   4.404  23.785   5.413
 4160POPC   PO455440   3.887  23.646   5.586
 4160POPC   GL155441   4.269  23.519   5.868
 4160POPC   GL255442   4.549  23.746   5.907
 4160POPC   C1A55443   4.355  23.553   6.350
 4160POPC   D2A55444   4.483  23.831   6.707
 4160POPC   C3A55445   4.303  23.813   7.133
 4160POPC   C4A55446   4.224  23.653   7.563
 4160POPC   C1B55447   4.815  23.847   6.272
 4160POPC   C2B55448   4.956  24.041   6.669
 4160POPC   C3B55449   4.789  24.056   7.079
 4160POPC   C4B55450   4.715  23.809   7.435
 4161POPC   NC355451   2.687   9.818   5.547
 4161POPC   PO455452   3.061   9.398   5.603
 4161POPC   GL155453   2.950   9.545   5.990
 4161POPC   GL255454   2.597   9.574   5.996
 4161POPC   C1A55455   2.858   9.370   6.399
 4161POPC   D2A55456   2.541   9.517   6.672
 4161POPC   C3A55457   2.694   9.565   7.068
 4161POPC   C4A55458   3.014   9.775   7.233
 4161POPC   C1B55459   2.678   9.857   6.332
 4161POPC   C2B55460   2.804   9.979   6.750
 4161POPC   C3B55461   2.628  10.098   7.142
 4161POPC   C4B55462   2.576   9.851   7.526
 4162POPC   NC355463  32.348  40.840   5.471
 4162POPC   PO455464  31.746  40.846   5.179
 4162POPC   GL155465  31.839  40.774   5.684
 4162POPC   GL255466  32.145  40.831   5.928
 4162POPC   C1A55467  31.764  40.568   6.132
 4162POPC   D2A55468  32.051  40.717   6.466
 4162POPC   C3A55469  31.983  40.666   6.927
 4162POPC   C4A55470  32.022  40.936   7.286
 4162POPC   C1B55471  32.489  40.639   6.206
 4162POPC   C2B55472  32.458  40.504   6.665
 4162POPC   C3B55473  32.457  40.869   6.932
 4162POPC   C4B55474  32.525  40.940   7.346
 4163POPC   NC355475  19.047  14.068   5.630
 4163POPC   PO455476  19.295  13.608   5.179
 4163POPC   GL155477  19.159  13.528   5.646
 4163POPC   GL255478  19.336  13.720   5.909
 4163POPC   C1A55479  19.111  13.290   6.102
 4163POPC   D2A55480  19.269  13.289   6.592
 4163POPC   C3A55481  19.030  13.259   7.021
 4163POPC   C4A55482  18.764  13.601   7.222
 4163POPC   C1B55483  19.641  13.846   6.249
 4163POPC   C2B55484  19.614  13.814   6.710
 4163POPC   C3B55485  19.239  13.723   6.957
 4163POPC   C4B55486  19.236  13.602   7.412
 4164POPC   NC355487  35.906  23.213   5.480
 4164POPC   PO455488  36.557  23.120   5.649
 4164POPC   GL155489  36.263  23.049   5.968
 4164POPC   GL255490  35.963  22.885   5.892
 4164POPC   C1A55491  36.186  23.144   6.376
 4164POPC   D2A55492  36.044  23.254   6.758
 4164POPC   C3A55493  36.294  23.104   7.076
 4164POPC   C4A55494  36.466  22.736   7.236
 4164POPC   C1B55495  35.934  22.716   6.311
 4164POPC   C2B55496  36.090  22.747   6.712
 4164POPC   C3B55497  35.983  22.695   7.112
 4164POPC   C4B55498  35.765  23.041   7.329
 4165POPC   NC355499  30.057  17.176   5.489
 4165POPC   PO455500  29.618  17.661   5.351
 4165POPC   GL155501  29.810  17.578   5.741
 4165POPC   GL255502  30.195  17.575   5.792
 4165POPC   C1A55503  29.845  17.663   6.167
 4165POPC   D2A55504  29.949  17.740   6.570
 4165POPC   C3A55505  29.693  17.893   6.881
 4165POPC   C4A55506  29.713  17.711   7.266
 4165POPC   C1B55507  30.206  17.278   6.155
 4165POPC   C2B55508  30.266  17.329   6.609
 4165POPC   C3B55509  30.005  17.401   6.961
 4165POPC   C4B55510  29.785  17.072   7.120
 4166POPC   NC355511  17.162   9.109   5.516
 4166POPC   PO455512  17.816   8.916   5.443
 4166POPC   GL155513  17.611   9.084   5.838
 4166POPC   GL255514  17.676   9.459   5.851
 4166POPC   C1A55515  17.475   8.860   6.245
 4166POPC   D2A55516  17.470   8.533   6.595
 4166POPC   C3A55517  17.329   8.722   6.986
 4166POPC   C4A55518  17.251   9.166   7.109
 4166POPC   C1B55519  17.744   9.299   6.305
 4166POPC   C2B55520  17.535   9.115   6.688
 4166POPC   C3B55521  17.742   9.017   7.091
 4166POPC   C4B55522  17.899   9.231   7.451
 4167POPC   NC355523  39.987  43.749   5.487
 4167POPC   PO455524  40.289  44.260   5.137
 4167POPC   GL155525  40.341  44.077   5.642
 4167POPC   GL255526  40.412  43.674   5.742
 4167POPC   C1A55527  40.404  44.046   6.130
 4167POPC   D2A55528  40.347  43.883   6.585
 4167POPC   C3A55529  39.950  43.966   6.866
 4167POPC   C4A55530  39.809  43.776   7.293
 4167POPC   C1B55531  40.175  43.557   6.152
 4167POPC   C2B55532  40.068  43.367   6.570
 4167POPC   C3B55533  40.153  43.530   7.005
 4167POPC   C4B55534  40.353  43.931   7.184
 4168POPC   NC355535  13.019   2.293   5.427
 4168POPC   PO455536  12.486   1.801   5.434
 4168POPC   GL155537  12.762   1.974   5.750
 4168POPC   GL255538  12.709   2.303   5.938
 4168POPC   C1A55539  13.045   1.973   6.097
 4168POPC   D2A55540  13.089   1.896   6.518
 4168POPC   C3A55541  12.947   2.056   6.923
 4168POPC   C4A55542  13.089   1.857   7.276
 4168POPC   C1B55543  12.528   2.035   6.261
 4168POPC   C2B55544  12.569   1.839   6.669
 4168POPC   C3B55545  12.446   2.001   7.075
 4168POPC   C4B55546  12.656   2.351   7.267
 4169POPC   NC355547   4.307  32.781   5.695
 4169POPC   PO455548   4.009  33.372   5.514
 4169POPC   GL155549   4.035  33.173   5.894
 4169POPC   GL255550   4.404  33.224   5.916
 4169POPC   C1A55551   4.162  33.003   6.314
 4169POPC   D2A55552   4.327  33.224   6.684
 4169POPC   C3A55553   4.163  33.167   7.097
 4169POPC   C4A55554   4.062  33.389   7.467
 4169POPC   C1B55555   4.683  33.046   6.225
 4169POPC   C2B55556   4.790  32.994   6.655
 4169POPC   C3B55557   4.690  33.096   7.068
 4169POPC   C4B55558   4.484  32.833   7.337
 4170POPC   NC355559  12.991  28.525   5.507
 4170POPC   PO455560  12.916  27.878   5.538
 4170POPC   GL155561  13.195  28.188   5.855
 4170POPC   GL255562  13.392  28.566   5.795
 4170POPC   C1A55563  13.227  28.183   6.342
 4170POPC   D2A55564  13.005  28.261   6.751
 4170POPC   C3A55565  12.863  28.152   7.176
 4170POPC   C4A55566  12.856  28.100   7.659
 4170POPC   C1B55567  13.210  28.676   6.207
 4170POPC   C2B55568  13.114  28.754   6.650
 4170POPC   C3B55569  12.938  28.687   7.076
 4170POPC   C4B55570  13.103  28.528   7.454
 4171POPC   NC355571   3.343  21.607   5.567
 4171POPC   PO455572   3.699  21.008   5.549
 4171POPC   GL155573   3.582  21.226   5.897
 4171POPC   GL255574   3.705  21.540   5.929
 4171POPC   C1A55575   3.586  21.277   6.357
 4171POPC   D2A55576   3.800  21.375   6.770
 4171POPC   C3A55577   3.484  21.347   7.121
 4171POPC   C4A55578   3.357  21.131   7.499
 4171POPC   C1B55579   3.733  21.789   6.289
 4171POPC   C2B55580   3.840  21.915   6.664
 4171POPC   C3B55581   3.609  21.848   6.995
 4171POPC   C4B55582   3.877  21.678   7.279
 4172POPC   NC355583  39.758  36.489   5.492
 4172POPC   PO455584  39.242  36.153   5.316
 4172POPC   GL155585  39.417  36.084   5.773
 4172POPC   GL255586  39.394  36.416   5.867
 4172POPC   C1A55587  39.299  35.875   6.209
 4172POPC   D2A55588  39.084  35.967   6.602
 4172POPC   C3A55589  39.297  35.912   6.988
 4172POPC   C4A55590  39.095  35.990   7.410
 4172POPC   C1B55591  39.208  36.376   6.274
 4172POPC   C2B55592  39.383  36.400   6.677
 4172POPC   C3B55593  39.206  36.400   7.073
 4172POPC   C4B55594  39.432  36.358   7.427
 4173POPC   NC355595  10.588   0.764   5.469
 4173POPC   PO455596  10.800   1.399   5.524
 4173POPC   GL155597  10.537   1.166   5.774
 4173POPC   GL255598  10.840   0.975   5.866
 4173POPC   C1A55599  10.334   1.190   6.168
 4173POPC   D2A55600  10.419   1.425   6.552
 4173POPC   C3A55601  10.377   1.232   6.968
 4173POPC   C4A55602  10.524   1.342   7.367
 4173POPC   C1B55603  10.862   1.094   6.304
 4173POPC   C2B55604  10.859   1.133   6.757
 4173POPC   C3B55605  10.875   1.020   7.176
 4173POPC   C4B55606  10.827   1.047   7.647
 4174POPC   NC355607  19.448   8.143   5.341
 4174POPC   PO455608  19.748   7.906   5.889
 4174POPC   GL155609  19.743   8.309   6.062
 4174POPC   GL255610  19.452   8.370   5.845
 4174POPC   C1A55611  19.781   8.275   6.495
 4174POPC   D2A55612  19.774   7.899   6.703
 4174POPC   C3A55613  20.069   7.932   6.984
 4174POPC   C4A55614  20.105   7.728   7.342
 4174POPC   C1B55615  19.316   8.450   6.279
 4174POPC   C2B55616  19.440   8.559   6.712
 4174POPC   C3B55617  19.794   8.354   7.036
 4174POPC   C4B55618  19.743   8.435   7.507
 4175POPC   NC355619  11.874  13.132   5.311
 4175POPC   PO455620  12.173  12.534   5.405
 4175POPC   GL155621  12.093  12.872   5.692
 4175POPC   GL255622  11.735  12.908   5.771
 4175POPC   C1A55623  12.137  12.861   6.125
 4175POPC   D2A55624  11.999  12.902   6.541
 4175POPC   C3A55625  12.194  12.774   6.914
 4175POPC   C4A55626  12.368  12.758   7.334
 4175POPC   C1B55627  11.681  13.153   6.155
 4175POPC   C2B55628  11.704  13.323   6.581
 4175POPC   C3B55629  11.725  13.064   6.943
 4175POPC   C4B55630  11.832  12.798   7.291
 4176POPC   NC355631  43.028   5.152   5.400
 4176POPC   PO455632  43.459   4.674   5.497
 4176POPC   GL155633  43.273   4.973   5.805
 4176POPC   GL255634  43.367   5.328   5.763
 4176POPC   C1A55635  43.045   5.097   6.184
 4176POPC   D2A55636  42.943   4.883   6.612
 4176POPC   C3A55637  42.976   4.911   7.068
 4176POPC   C4A55638  42.776   4.936   7.469
 4176POPC   C1B55639  43.358   5.557   6.159
 4176POPC   C2B55640  43.510   5.714   6.570
 4176POPC   C3B55641  43.528   5.544   6.992
 4176POPC   C4B55642  43.303   5.256   7.266
 4177POPC   NC355643   6.852  37.608   5.340
 4177POPC   PO455644   6.332  37.799   5.657
 4177POPC   GL155645   6.699  37.702   5.853
 4177POPC   GL255646   6.937  37.984   5.839
 4177POPC   C1A55647   6.551  37.583   6.261
 4177POPC   D2A55648   6.512  37.825   6.600
 4177POPC   C3A55649   6.618  37.592   6.961
 4177POPC   C4A55650   6.518  37.640   7.387
 4177POPC   C1B55651   6.979  37.879   6.289
 4177POPC   C2B55652   7.005  37.848   6.747
 4177POPC   C3B55653   6.756  38.065   7.092
 4177POPC   C4B55654   6.799  38.043   7.551
 4178POPC   NC355655  16.613  35.721   5.646
 4178POPC   PO455656  16.639  36.321   5.282
 4178POPC   GL155657  16.686  36.317   5.756
 4178POPC   GL255658  16.474  36.119   5.939
 4178POPC   C1A55659  16.894  36.320   6.186
 4178POPC   D2A55660  16.703  36.169   6.581
 4178POPC   C3A55661  16.770  36.270   7.017
 4178POPC   C4A55662  16.516  36.387   7.381
 4178POPC   C1B55663  16.445  35.822   6.280
 4178POPC   C2B55664  16.642  35.672   6.661
 4178POPC   C3B55665  16.627  35.748   7.079
 4178POPC   C4B55666  16.734  35.940   7.433
 4179POPC   NC355667   7.578  20.144   5.345
 4179POPC   PO455668   7.634  19.536   5.488
 4179POPC   GL155669   7.458  19.775   5.836
 4179POPC   GL255670   7.289  20.074   5.759
 4179POPC   C1A55671   7.297  19.798   6.265
 4179POPC   D2A55672   7.253  19.470   6.579
 4179POPC   C3A55673   7.108  19.636   6.931
 4179POPC   C4A55674   7.403  19.746   7.197
 4179POPC   C1B55675   7.484  20.255   6.120
 4179POPC   C2B55676   7.681  20.231   6.510
 4179POPC   C3B55677   7.443  20.115   6.852
 4179POPC   C4B55678   7.258  20.264   7.223
 4180POPC   NC355679  23.206  14.326   5.440
 4180POPC   PO455680  22.795  14.865   5.381
 4180POPC   GL155681  22.964  14.652   5.721
 4180POPC   GL255682  22.682  14.527   5.817
 4180POPC   C1A55683  23.196  14.403   6.075
 4180POPC   D2A55684  23.102  14.391   6.514
 4180POPC   C3A55685  23.280  14.548   6.860
 4180POPC   C4A55686  23.086  14.619   7.285
 4180POPC   C1B55687  22.680  14.322   6.225
 4180POPC   C2B55688  22.677  14.122   6.629
 4180POPC   C3B55689  22.898  14.233   7.007
 4180POPC   C4B55690  22.871  14.192   7.483
 4181POPC   NC355691   5.725   1.279   5.413
 4181POPC   PO455692   5.522   0.586   5.567
 4181POPC   GL155693   5.738   0.949   5.862
 4181POPC   GL255694   5.959   1.290   5.850
 4181POPC   C1A55695   5.866   1.094   6.306
 4181POPC   D2A55696   5.596   1.165   6.673
 4181POPC   C3A55697   5.817   1.138   7.073
 4181POPC   C4A55698   6.286   1.143   7.033
 4181POPC   C1B55699   5.850   1.604   6.134
 4181POPC   C2B55700   5.761   1.653   6.557
 4181POPC   C3B55701   6.038   1.591   6.908
 4181POPC   C4B55702   6.087   1.515   7.344
 4182POPC   NC355703   2.543  38.287   5.382
 4182POPC   PO455704   2.371  38.883   5.378
 4182POPC   GL155705   2.505  38.633   5.761
 4182POPC   GL255706   2.824  38.447   5.860
 4182POPC   C1A55707   2.343  38.382   6.116
 4182POPC   D2A55708   2.605  38.378   6.471
 4182POPC   C3A55709   2.594  38.340   6.890
 4182POPC   C4A55710   2.934  38.500   7.146
 4182POPC   C1B55711   2.945  38.116   6.206
 4182POPC   C2B55712   2.899  37.878   6.627
 4182POPC   C3B55713   2.975  37.992   7.069
 4182POPC   C4B55714   2.924  37.863   7.530
 4183POPC   NC355715  30.920  20.268   5.521
 4183POPC   PO455716  30.497  19.759   5.453
 4183POPC   GL155717  30.663  19.778   5.885
 4183POPC   GL255718  30.612  20.115   5.881
 4183POPC   C1A55719  30.760  19.632   6.311
 4183POPC   D2A55720  30.938  19.709   6.714
 4183POPC   C3A55721  30.669  19.560   7.073
 4183POPC   C4A55722  30.386  19.557   7.471
 4183POPC   C1B55723  30.870  20.130   6.239
 4183POPC   C2B55724  30.692  20.166   6.636
 4183POPC   C3B55725  30.824  20.075   7.043
 4183POPC   C4B55726  30.817  19.901   7.450
 4184POPC   NC355727  16.285  10.639   5.442
 4184POPC   PO455728  15.689  10.275   5.399
 4184POPC   GL155729  15.849  10.512   5.776
 4184POPC   GL255730  16.159  10.405   5.906
 4184POPC   C1A55731  15.823  10.616   6.248
 4184POPC   D2A55732  15.687  10.451   6.668
 4184POPC   C3A55733  15.714  10.683   7.037
 4184POPC   C4A55734  16.112  10.820   7.208
 4184POPC   C1B55735  16.342  10.562   6.329
 4184POPC   C2B55736  16.258  10.508   6.792
 4184POPC   C3B55737  16.249  10.296   7.213
 4184POPC   C4B55738  16.334  10.112   7.658
 4185POPC   NC355739  29.171  21.863   5.372
 4185POPC   PO455740  28.912  22.375   5.377
 4185POPC   GL155741  28.878  22.071   5.721
 4185POPC   GL255742  29.219  21.961   5.882
 4185POPC   C1A55743  28.846  22.171   6.136
 4185POPC   D2A55744  29.067  22.043   6.492
 4185POPC   C3A55745  28.791  22.056   6.878
 4185POPC   C4A55746  28.887  22.287   7.212
 4185POPC   C1B55747  29.392  21.587   6.131
 4185POPC   C2B55748  29.261  21.491   6.570
 4185POPC   C3B55749  29.243  21.829   6.912
 4185POPC   C4B55750  29.475  21.998   7.268
 4186POPC   NC355751   6.355  17.670   5.577
 4186POPC   PO455752   5.843  17.216   5.493
 4186POPC   GL155753   5.871  17.467   5.825
 4186POPC   GL255754   5.928  17.812   5.830
 4186POPC   C1A55755   5.713  17.484   6.220
 4186POPC   D2A55756   5.859  17.531   6.616
 4186POPC   C3A55757   5.642  17.340   6.936
 4186POPC   C4A55758   5.827  17.297   7.304
 4186POPC   C1B55759   6.111  17.819   6.258
 4186POPC   C2B55760   6.082  17.973   6.702
 4186POPC   C3B55761   6.294  17.852   7.054
 4186POPC   C4B55762   6.145  17.762   7.467
 4187POPC   NC355763   0.672  16.498   5.417
 4187POPC   PO455764   0.176  17.035   5.373
 4187POPC   GL155765   0.485  16.889   5.685
 4187POPC   GL255766   0.290  16.647   5.791
 4187POPC   C1A55767   0.703  16.744   6.085
 4187POPC   D2A55768   0.481  16.658   6.486
 4187POPC   C3A55769   0.665  16.640   6.906
 4187POPC   C4A55770   0.431  16.541   7.251
 4187POPC   C1B55771   0.194  16.909   6.119
 4187POPC   C2B55772   0.032  16.909   6.524
 4187POPC   C3B55773   0.187  16.847   6.932
 4187POPC   C4B55774   0.040  16.906   7.380
 4188POPC   NC355775  13.813  44.297   5.214
 4188POPC   PO455776  13.206  44.480   5.251
 4188POPC   GL155777  13.496  44.559   5.663
 4188POPC   GL255778  13.799  44.399   5.717
 4188POPC   C1A55779  13.538  44.834   6.040
 4188POPC   D2A55780  13.511   0.076   6.451
 4188POPC   C3A55781  13.729  44.891   6.828
 4188POPC   C4A55782  13.500  44.746   7.222
 4188POPC   C1B55783  13.993  44.492   6.118
 4188POPC   C2B55784  14.033  44.534   6.583
 4188POPC   C3B55785  13.696  44.395   6.868
 4188POPC   C4B55786  13.695  44.249   7.266
 4189POPC   NC355787  44.879  25.742   5.386
 4189POPC   PO455788  44.277  25.609   5.465
 4189POPC   GL155789  44.361  25.852   5.860
 4189POPC   GL255790  44.340  26.209   5.913
 4189POPC   C1A55791  44.419  25.870   6.333
 4189POPC   D2A55792  44.341  25.693   6.772
 4189POPC   C3A55793  44.441  25.928   7.130
 4189POPC   C4A55794  44.799  26.162   7.208
 4189POPC   C1B55795  44.225  26.345   6.351
 4189POPC   C2B55796  44.273  26.267   6.792
 4189POPC   C3B55797  44.390  26.464   7.185
 4189POPC   C4B55798  44.562  26.447   7.612
 4190POPC   NC355799  34.976  21.504   5.552
 4190POPC   PO455800  34.423  21.117   5.402
 4190POPC   GL155801  34.482  21.402   5.761
 4190POPC   GL255802  34.800  21.365   5.994
 4190POPC   C1A55803  34.414  21.598   6.191
 4190POPC   D2A55804  34.631  21.399   6.545
 4190POPC   C3A55805  34.476  21.406   6.978
 4190POPC   C4A55806  34.407  21.520   7.403
 4190POPC   C1B55807  34.945  21.026   6.232
 4190POPC   C2B55808  34.912  20.821   6.624
 4190POPC   C3B55809  34.902  21.127   6.914
 4190POPC   C4B55810  34.902  21.284   7.316
 4191POPC   NC355811  23.965  41.845   5.384
 4191POPC   PO455812  23.767  41.244   5.508
 4191POPC   GL155813  23.766  41.469   5.870
 4191POPC   GL255814  23.557  41.742   5.792
 4191POPC   C1A55815  23.793  41.464   6.319
 4191POPC   D2A55816  23.931  41.362   6.717
 4191POPC   C3A55817  23.639  41.250   7.061
 4191POPC   C4A55818  24.002  41.456   7.235
 4191POPC   C1B55819  23.332  41.635   6.212
 4191POPC   C2B55820  23.431  41.533   6.667
 4191POPC   C3B55821  23.623  41.744   7.021
 4191POPC   C4B55822  23.443  41.994   7.340
 4192POPC   NC355823  18.532   4.431   5.339
 4192POPC   PO455824  18.008   4.076   5.294
 4192POPC   GL155825  18.102   4.241   5.702
 4192POPC   GL255826  18.146   4.597   5.683
 4192POPC   C1A55827  18.214   4.242   6.158
 4192POPC   D2A55828  17.993   4.344   6.559
 4192POPC   C3A55829  18.060   4.183   6.979
 4192POPC   C4A55830  18.209   4.266   7.364
 4192POPC   C1B55831  18.397   4.715   6.020
 4192POPC   C2B55832  18.416   4.645   6.459
 4192POPC   C3B55833  18.359   4.612   6.898
 4192POPC   C4B55834  18.527   4.676   7.299
 4193POPC   NC355835  25.461  31.814   5.386
 4193POPC   PO455836  25.089  31.211   5.380
 4193POPC   GL155837  25.177  31.487   5.724
 4193POPC   GL255838  25.548  31.407   5.712
 4193POPC   C1A55839  25.300  31.397   6.171
 4193POPC   D2A55840  25.206  31.129   6.519
 4193POPC   C3A55841  25.220  31.298   6.903
 4193POPC   C4A55842  25.212  31.526   7.271
 4193POPC   C1B55843  25.684  31.725   6.033
 4193POPC   C2B55844  25.584  31.765   6.464
 4193POPC   C3B55845  25.376  31.770   6.833
 4193POPC   C4B55846  25.537  31.917   7.202
 4194POPC   NC355847  18.901  39.268   5.339
 4194POPC   PO455848  18.880  38.603   5.343
 4194POPC   GL155849  18.887  38.924   5.725
 4194POPC   GL255850  18.966  39.312   5.844
 4194POPC   C1A55851  18.740  38.982   6.154
 4194POPC   D2A55852  18.740  39.116   6.605
 4194POPC   C3A55853  19.152  39.088   6.838
 4194POPC   C4A55854  19.343  38.943   7.230
 4194POPC   C1B55855  19.124  39.309   6.275
 4194POPC   C2B55856  19.024  39.561   6.630
 4194POPC   C3B55857  18.839  39.477   6.993
 4194POPC   C4B55858  19.198  39.449   7.226
 4195POPC   NC355859  18.602  25.868   5.198
 4195POPC   PO455860  19.183  25.898   5.368
 4195POPC   GL155861  19.263  26.010   5.767
 4195POPC   GL255862  19.168  25.722   5.889
 4195POPC   C1A55863  19.130  26.304   6.077
 4195POPC   D2A55864  19.312  26.369   6.478
 4195POPC   C3A55865  19.161  26.181   6.845
 4195POPC   C4A55866  19.468  26.291   7.176
 4195POPC   C1B55867  19.033  25.845   6.292
 4195POPC   C2B55868  18.944  25.591   6.640
 4195POPC   C3B55869  19.021  25.648   7.066
 4195POPC   C4B55870  19.071  25.987   7.327
 4196POPC   NC355871   6.963   2.606   5.230
 4196POPC   PO455872   6.309   2.560   5.358
 4196POPC   GL155873   6.509   2.758   5.728
 4196POPC   GL255874   6.882   2.701   5.743
 4196POPC   C1A55875   6.483   2.673   6.176
 4196POPC   D2A55876   6.236   2.442   6.484
 4196POPC   C3A55877   6.297   2.612   6.884
 4196POPC   C4A55878   6.432   2.455   7.272
 4196POPC   C1B55879   7.005   2.610   6.171
 4196POPC   C2B55880   6.953   2.462   6.599
 4196POPC   C3B55881   6.827   2.662   6.977
 4196POPC   C4B55882   6.556   2.959   7.205
 4197POPC   NC355883  38.132  23.988   5.255
 4197POPC   PO455884  38.780  23.736   5.476
 4197POPC   GL155885  38.626  23.694   5.870
 4197POPC   GL255886  38.558  24.003   5.926
 4197POPC   C1A55887  38.708  23.718   6.329
 4197POPC   D2A55888  38.465  23.808   6.743
 4197POPC   C3A55889  38.689  23.814   7.165
 4197POPC   C4A55890  38.621  23.999   7.589
 4197POPC   C1B55891  38.369  24.156   6.330
 4197POPC   C2B55892  38.303  24.305   6.764
 4197POPC   C3B55893  38.327  24.182   7.200
 4197POPC   C4B55894  38.083  24.007   7.533
 4198POPC   NC355895  40.254  20.809   5.558
 4198POPC   PO455896  39.752  20.429   5.425
 4198POPC   GL155897  39.771  20.698   5.794
 4198POPC   GL255898  40.053  20.513   5.898
 4198POPC   C1A55899  39.847  20.774   6.263
 4198POPC   D2A55900  39.615  20.619   6.628
 4198POPC   C3A55901  39.919  20.679   6.924
 4198POPC   C4A55902  39.839  20.720   7.311
 4198POPC   C1B55903  40.325  20.532   6.255
 4198POPC   C2B55904  40.383  20.677   6.656
 4198POPC   C3B55905  40.397  20.408   6.980
 4198POPC   C4B55906  40.135  20.307   7.262
 4199POPC   NC355907  31.619  44.701   5.524
 4199POPC   PO455908  31.125   0.019   5.398
 4199POPC   GL155909  31.338  44.967   5.858
 4199POPC   GL255910  31.471  44.597   5.972
 4199POPC   C1A55911  31.531  44.962   6.282
 4199POPC   D2A55912  31.707  44.685   6.621
 4199POPC   C3A55913  31.710  44.954   6.988
 4199POPC   C4A55914  31.382  44.875   7.279
 4199POPC   C1B55915  31.176  44.529   6.269
 4199POPC   C2B55916  31.194  44.335   6.671
 4199POPC   C3B55917  31.234  44.404   7.131
 4199POPC   C4B55918  31.230  44.319   7.575
 4200POPC   NC355919  37.384  40.248   5.470
 4200POPC   PO455920  36.809  39.953   5.381
 4200POPC   GL155921  36.846  39.814   5.797
 4200POPC   GL255922  37.176  39.950   5.854
 4200POPC   C1A55923  36.649  40.007   6.151
 4200POPC   D2A55924  36.665  40.296   6.488
 4200POPC   C3A55925  36.681  40.162   6.905
 4200POPC   C4A55926  36.682  39.957   7.286
 4200POPC   C1B55927  37.141  40.113   6.279
 4200POPC   C2B55928  37.132  39.979   6.720
 4200POPC   C3B55929  37.147  40.229   7.133
 4200POPC   C4B55930  37.195  40.333   7.580
 4201POPC   NC355931  28.463  11.678   5.421
 4201POPC   PO455932  28.192  12.330   5.375
 4201POPC   GL155933  28.357  12.093   5.712
 4201POPC   GL255934  28.087  11.815   5.745
 4201POPC   C1A55935  28.599  12.089   6.094
 4201POPC   D2A55936  28.586  11.922   6.507
 4201POPC   C3A55937  28.777  12.135   6.838
 4201POPC   C4A55938  28.592  12.018   7.234
 4201POPC   C1B55939  27.971  12.133   6.059
 4201POPC   C2B55940  28.076  12.120   6.499
 4201POPC   C3B55941  28.177  12.041   6.917
 4201POPC   C4B55942  28.195  12.329   7.243
 4202POPC   NC355943  16.548   9.034   5.278
 4202POPC   PO455944  17.040   8.670   5.591
 4202POPC   GL155945  16.890   8.832   5.923
 4202POPC   GL255946  16.580   8.938   5.782
 4202POPC   C1A55947  16.664   8.822   6.303
 4202POPC   D2A55948  16.523   8.746   6.727
 4202POPC   C3A55949  16.827   8.927   7.007
 4202POPC   C4A55950  16.815   9.075   7.438
 4202POPC   C1B55951  16.411   9.254   6.074
 4202POPC   C2B55952  16.607   9.324   6.470
 4202POPC   C3B55953  16.459   9.243   6.871
 4202POPC   C4B55954  16.398   9.384   7.255
 4203POPC   NC355955  25.231  32.359   5.130
 4203POPC   PO455956  25.312  32.940   5.488
 4203POPC   GL155957  25.350  32.977   5.900
 4203POPC   GL255958  25.016  32.842   5.919
 4203POPC   C1A55959  25.605  32.805   6.229
 4203POPC   D2A55960  25.491  32.708   6.616
 4203POPC   C3A55961  25.266  33.014   6.823
 4203POPC   C4A55962  25.194  33.140   7.230
 4203POPC   C1B55963  25.068  32.878   6.358
 4203POPC   C2B55964  25.011  32.585   6.715
 4203POPC   C3B55965  24.891  32.732   7.130
 4203POPC   C4B55966  24.893  32.935   7.587
 4204POPC   NC355967  11.738  40.174   5.493
 4204POPC   PO455968  12.380  40.096   5.229
 4204POPC   GL155969  12.179  39.966   5.651
 4204POPC   GL255970  12.289  39.650   5.793
 4204POPC   C1A55971  12.053  40.203   6.056
 4204POPC   D2A55972  11.873  40.230   6.452
 4204POPC   C3A55973  12.073  40.196   6.856
 4204POPC   C4A55974  11.879  40.038   7.245
 4204POPC   C1B55975  12.056  39.719   6.185
 4204POPC   C2B55976  11.956  39.751   6.609
 4204POPC   C3B55977  12.194  39.710   6.986
 4204POPC   C4B55978  12.452  39.621   7.312
 4205POPC   NC355979  19.342  41.360   5.474
 4205POPC   PO455980  18.685  41.364   5.567
 4205POPC   GL155981  18.998  41.642   5.761
 4205POPC   GL255982  19.269  41.477   5.963
 4205POPC   C1A55983  18.926  41.818   6.164
 4205POPC   D2A55984  18.673  41.717   6.546
 4205POPC   C3A55985  18.869  41.748   6.955
 4205POPC   C4A55986  19.305  41.727   7.023
 4205POPC   C1B55987  18.927  41.299   6.214
 4205POPC   C2B55988  18.991  41.248   6.646
 4205POPC   C3B55989  19.063  41.250   7.071
 4205POPC   C4B55990  18.695  41.341   7.252
 4206POPC   NC355991   4.663   8.922   5.466
 4206POPC   PO455992   3.926   9.034   5.257
 4206POPC   GL155993   4.120   8.887   5.641
 4206POPC   GL255994   4.304   9.174   5.730
 4206POPC   C1A55995   4.173   8.835   6.107
 4206POPC   D2A55996   4.178   8.758   6.567
 4206POPC   C3A55997   4.485   8.965   6.846
 4206POPC   C4A55998   4.590   8.855   7.269
 4206POPC   C1B55999   4.352   9.319   6.156
 4206POPC   C2B56000   4.257   9.348   6.584
 4206POPC   C3B56001   4.013   9.154   6.910
 4206POPC   C4B56002   4.170   9.175   7.319
 4207POPC   NC356003  14.028   2.598   5.554
 4207POPC   PO456004  13.346   2.658   5.443
 4207POPC   GL156005  13.582   2.695   5.830
 4207POPC   GL256006  13.431   2.944   6.068
 4207POPC   C1A56007  13.653   2.522   6.222
 4207POPC   D2A56008  13.468   2.705   6.562
 4207POPC   C3A56009  13.770   2.637   6.823
 4207POPC   C4A56010  13.871   2.602   7.219
 4207POPC   C1B56011  13.831   2.994   6.326
 4207POPC   C2B56012  13.914   3.160   6.733
 4207POPC   C3B56013  13.671   3.076   7.077
 4207POPC   C4B56014  13.389   2.811   7.273
 4208POPC   NC356015   4.069  43.458   5.503
 4208POPC   PO456016   4.555  43.080   5.190
 4208POPC   GL156017   4.399  43.082   5.617
 4208POPC   GL256018   4.188  42.794   5.700
 4208POPC   C1A56019   4.413  43.201   6.067
 4208POPC   D2A56020   4.656  43.305   6.450
 4208POPC   C3A56021   4.604  43.083   6.864
 4208POPC   C4A56022   4.263  43.245   7.155
 4208POPC   C1B56023   4.110  42.781   6.156
 4208POPC   C2B56024   4.201  43.008   6.526
 4208POPC   C3B56025   4.147  42.807   6.910
 4208POPC   C4B56026   4.426  42.769   7.232
 4209POPC   NC356027  32.772  14.545   5.402
 4209POPC   PO456028  33.032  13.963   5.318
 4209POPC   GL156029  32.811  14.148   5.757
 4209POPC   GL256030  32.880  14.545   5.886
 4209POPC   C1A56031  32.784  14.230   6.254
 4209POPC   D2A56032  33.018  14.556   6.520
 4209POPC   C3A56033  33.187  14.436   6.936
 4209POPC   C4A56034  32.883  14.285   7.227
 4209POPC   C1B56035  32.582  14.712   6.228
 4209POPC   C2B56036  32.527  14.689   6.685
 4209POPC   C3B56037  32.828  14.789   6.999
 4209POPC   C4B56038  32.859  14.759   7.432
 4210POPC   NC356039  12.208  36.445   5.327
 4210POPC   PO456040  12.108  35.776   5.389
 4210POPC   GL156041  12.147  35.980   5.742
 4210POPC   GL256042  11.812  35.922   5.846
 4210POPC   C1A56043  12.158  35.834   6.187
 4210POPC   D2A56044  12.015  35.803   6.570
 4210POPC   C3A56045  12.095  36.108   6.822
 4210POPC   C4A56046  12.040  35.919   7.207
 4210POPC   C1B56047  11.946  36.300   6.073
 4210POPC   C2B56048  11.769  36.380   6.463
 4210POPC   C3B56049  11.561  36.166   6.756
 4210POPC   C4B56050  11.701  36.294   7.131
 4211POPC   NC356051  15.488   3.124   5.379
 4211POPC   PO456052  15.260   2.541   5.460
 4211POPC   GL156053  15.124   2.712   5.813
 4211POPC   GL256054  15.441   2.907   5.848
 4211POPC   C1A56055  15.179   2.667   6.245
 4211POPC   D2A56056  14.961   2.723   6.622
 4211POPC   C3A56057  15.187   2.577   6.977
 4211POPC   C4A56058  14.934   2.616   7.309
 4211POPC   C1B56059  15.381   3.152   6.223
 4211POPC   C2B56060  15.404   2.986   6.644
 4211POPC   C3B56061  15.211   3.065   7.040
 4211POPC   C4B56062  15.331   3.098   7.484
 4212POPC   NC356063  13.392  24.790   5.484
 4212POPC   PO456064  13.841  24.277   5.543
 4212POPC   GL156065  13.605  24.489   5.869
 4212POPC   GL256066  13.315  24.308   5.798
 4212POPC   C1A56067  13.659  24.694   6.292
 4212POPC   D2A56068  13.571  24.854   6.714
 4212POPC   C3A56069  13.412  24.643   7.116
 4212POPC   C4A56070  13.491  24.477   7.532
 4212POPC   C1B56071  13.235  24.419   6.247
 4212POPC   C2B56072  13.167  24.442   6.711
 4212POPC   C3B56073  13.107  24.221   7.144
 4212POPC   C4B56074  13.121  24.118   7.612
 4213POPC   NC356075  24.781  31.565   5.297
 4213POPC   PO456076  24.349  31.094   5.288
 4213POPC   GL156077  24.270  31.434   5.620
 4213POPC   GL256078  24.585  31.479   5.761
 4213POPC   C1A56079  24.196  31.631   6.065
 4213POPC   D2A56080  24.440  31.499   6.441
 4213POPC   C3A56081  24.347  31.550   6.887
 4213POPC   C4A56082  24.365  31.912   7.146
 4213POPC   C1B56083  24.802  31.367   6.118
 4213POPC   C2B56084  24.947  31.574   6.522
 4213POPC   C3B56085  24.853  31.732   6.928
 4213POPC   C4B56086  24.701  31.541   7.262
 4214POPC   NC356087  23.699  23.010   5.357
 4214POPC   PO456088  23.223  23.268   5.757
 4214POPC   GL156089  23.490  22.944   5.872
 4214POPC   GL256090  23.759  23.162   5.860
 4214POPC   C1A56091  23.615  22.902   6.336
 4214POPC   D2A56092  23.634  23.155   6.729
 4214POPC   C3A56093  23.541  22.922   7.105
 4214POPC   C4A56094  23.848  22.669   7.326
 4214POPC   C1B56095  24.028  23.167   6.225
 4214POPC   C2B56096  24.086  22.962   6.619
 4214POPC   C3B56097  24.039  23.060   7.056
 4214POPC   C4B56098  24.290  22.934   7.413
 4215POPC   NC356099  27.268  23.417   5.311
 4215POPC   PO456100  27.331  24.051   5.519
 4215POPC   GL156101  27.441  23.746   5.819
 4215POPC   GL256102  27.255  23.458   5.861
 4215POPC   C1A56103  27.689  23.700   6.194
 4215POPC   D2A56104  27.868  23.579   6.576
 4215POPC   C3A56105  27.853  23.786   6.952
 4215POPC   C4A56106  27.789  23.577   7.344
 4215POPC   C1B56107  27.193  23.648   6.289
 4215POPC   C2B56108  27.354  23.628   6.702
 4215POPC   C3B56109  27.365  23.749   7.089
 4215POPC   C4B56110  27.018  23.599   7.268
 4216POPC   NC356111   7.746  30.856   5.464
 4216POPC   PO456112   7.131  30.575   5.497
 4216POPC   GL156113   7.418  30.685   5.821
 4216POPC   GL256114   7.708  30.467   5.825
 4216POPC   C1A56115   7.531  30.964   6.174
 4216POPC   D2A56116   7.361  30.851   6.590
 4216POPC   C3A56117   7.564  30.976   6.978
 4216POPC   C4A56118   7.545  31.129   7.397
 4216POPC   C1B56119   7.503  30.450   6.268
 4216POPC   C2B56120   7.600  30.428   6.723
 4216POPC   C3B56121   7.417  30.497   7.133
 4216POPC   C4B56122   7.349  30.260   7.515
 4217POPC   NC356123   8.099   0.075   5.693
 4217POPC   PO456124   7.807   0.682   5.554
 4217POPC   GL156125   7.962   0.517   5.936
 4217POPC   GL256126   8.326   0.489   5.897
 4217POPC   C1A56127   7.823   0.437   6.362
 4217POPC   D2A56128   7.959   0.171   6.704
 4217POPC   C3A56129   7.920   0.317   7.137
 4217POPC   C4A56130   7.783   0.424   7.578
 4217POPC   C1B56131   8.305   0.254   6.305
 4217POPC   C2B56132   8.504   0.070   6.680
 4217POPC   C3B56133   8.372   0.079   7.104
 4217POPC   C4B56134   8.522   0.103   7.540
 4218POPC   NC356135  19.469   4.317   5.538
 4218POPC   PO456136  18.814   4.117   5.507
 4218POPC   GL156137  19.016   4.285   5.837
 4218POPC   GL256138  19.152   3.950   5.922
 4218POPC   C1A56139  18.847   4.482   6.209
 4218POPC   D2A56140  18.935   4.703   6.599
 4218POPC   C3A56141  18.899   4.527   6.981
 4218POPC   C4A56142  19.001   4.558   7.403
 4218POPC   C1B56143  18.734   3.976   6.175
 4218POPC   C2B56144  18.537   4.159   6.577
 4218POPC   C3B56145  18.647   4.085   7.022
 4218POPC   C4B56146  19.057   4.060   7.267
 4219POPC   NC356147  30.919  44.201   5.442
 4219POPC   PO456148  30.497  43.668   5.367
 4219POPC   GL156149  30.571  43.716   5.810
 4219POPC   GL256150  30.791  43.984   5.876
 4219POPC   C1A56151  30.745  43.581   6.228
 4219POPC   D2A56152  31.049  43.570   6.593
 4219POPC   C3A56153  30.895  43.494   7.023
 4219POPC   C4A56154  30.509  43.706   7.179
 4219POPC   C1B56155  31.012  44.021   6.262
 4219POPC   C2B56156  30.763  44.039   6.614
 4219POPC   C3B56157  30.909  44.009   7.011
 4219POPC   C4B56158  30.770  44.226   7.343
 4220POPC   NC356159  18.459  34.131   5.411
 4220POPC   PO456160  18.062  34.679   5.349
 4220POPC   GL156161  18.270  34.635   5.745
 4220POPC   GL256162  18.610  34.618   5.653
 4220POPC   C1A56163  18.176  34.620   6.188
 4220POPC   D2A56164  17.999  34.615   6.590
 4220POPC   C3A56165  18.106  34.291   6.848
 4220POPC   C4A56166  18.186  34.366   7.260
 4220POPC   C1B56167  18.640  34.405   6.070
 4220POPC   C2B56168  18.518  34.344   6.512
 4220POPC   C3B56169  18.602  34.443   6.965
 4220POPC   C4B56170  18.653  34.704   7.364
 4221POPC   NC356171  34.673  42.719   5.164
 4221POPC   PO456172  34.333  43.276   5.427
 4221POPC   GL156173  34.392  42.951   5.746
 4221POPC   GL256174  34.658  42.702   5.678
 4221POPC   C1A56175  34.353  42.982   6.201
 4221POPC   D2A56176  34.417  43.296   6.502
 4221POPC   C3A56177  34.483  43.154   6.902
 4221POPC   C4A56178  34.810  43.272   7.138
 4221POPC   C1B56179  34.795  42.720   6.116
 4221POPC   C2B56180  34.793  42.933   6.533
 4221POPC   C3B56181  34.861  42.794   6.962
 4221POPC   C4B56182  35.128  42.939   7.325
 4222POPC   NC356183  16.375  39.481   5.701
 4222POPC   PO456184  16.975  39.270   5.516
 4222POPC   GL156185  16.735  39.065   5.856
 4222POPC   GL256186  16.960  38.773   5.933
 4222POPC   C1A56187  16.570  39.201   6.281
 4222POPC   D2A56188  16.458  39.089   6.702
 4222POPC   C3A56189  16.623  39.327   7.042
 4222POPC   C4A56190  16.412  39.216   7.389
 4222POPC   C1B56191  17.089  39.151   6.235
 4222POPC   C2B56192  16.969  39.281   6.658
 4222POPC   C3B56193  17.095  39.104   7.063
 4222POPC   C4B56194  17.221  39.167   7.503
 4223POPC   NC356195   3.201   1.893   5.356
 4223POPC   PO456196   3.712   2.267   5.442
 4223POPC   GL156197   3.511   2.030   5.786
 4223POPC   GL256198   3.258   1.735   5.861
 4223POPC   C1A56199   3.719   1.912   6.168
 4223POPC   D2A56200   3.894   2.118   6.532
 4223POPC   C3A56201   3.817   1.918   6.941
 4223POPC   C4A56202   3.739   2.062   7.390
 4223POPC   C1B56203   3.306   1.698   6.345
 4223POPC   C2B56204   3.308   1.676   6.783
 4223POPC   C3B56205   3.340   1.908   7.150
 4223POPC   C4B56206   3.349   1.802   7.598
 4224POPC   NC356207   8.383  35.690   5.100
 4224POPC   PO456208   7.936  35.336   5.429
 4224POPC   GL156209   8.245  35.341   5.755
 4224POPC   GL256210   7.972  35.445   6.004
 4224POPC   C1A56211   8.440  35.398   6.165
 4224POPC   D2A56212   8.261  35.457   6.574
 4224POPC   C3A56213   8.248  35.238   6.960
 4224POPC   C4A56214   8.151  35.375   7.376
 4224POPC   C1B56215   7.995  35.112   6.283
 4224POPC   C2B56216   7.743  35.010   6.635
 4224POPC   C3B56217   7.872  34.780   6.980
 4224POPC   C4B56218   8.140  34.848   7.306
 4225POPC   NC356219   6.242  33.041   5.475
 4225POPC   PO456220   5.552  32.921   5.473
 4225POPC   GL156221   5.830  33.038   5.833
 4225POPC   GL256222   5.843  33.381   5.819
 4225POPC   C1A56223   5.943  33.040   6.306
 4225POPC   D2A56224   5.654  33.023   6.697
 4225POPC   C3A56225   5.804  32.920   7.115
 4225POPC   C4A56226   6.019  32.544   7.244
 4225POPC   C1B56227   5.591  33.390   6.205
 4225POPC   C2B56228   5.643  33.542   6.646
 4225POPC   C3B56229   5.555  33.401   7.102
 4225POPC   C4B56230   5.676  33.292   7.553
 4226POPC   NC356231   4.159  36.776   5.288
 4226POPC   PO456232   4.640  37.302   5.410
 4226POPC   GL156233   4.444  36.936   5.688
 4226POPC   GL256234   4.650  36.619   5.639
 4226POPC   C1A56235   4.178  36.950   6.117
 4226POPC   D2A56236   3.992  37.101   6.530
 4226POPC   C3A56237   4.092  36.914   6.931
 4226POPC   C4A56238   4.402  36.992   7.254
 4226POPC   C1B56239   4.432  36.508   6.030
 4226POPC   C2B56240   4.368  36.450   6.482
 4226POPC   C3B56241   4.472  36.552   6.910
 4226POPC   C4B56242   4.276  36.488   7.306
 4227POPC   NC356243  41.166  41.669   5.274
 4227POPC   PO456244  40.497  41.441   5.371
 4227POPC   GL156245  40.762  41.655   5.670
 4227POPC   GL256246  40.995  41.461   5.786
 4227POPC   C1A56247  40.677  41.652   6.134
 4227POPC   D2A56248  40.747  41.857   6.526
 4227POPC   C3A56249  40.608  41.739   6.929
 4227POPC   C4A56250  40.738  41.597   7.311
 4227POPC   C1B56251  41.061  41.281   6.208
 4227POPC   C2B56252  41.031  41.155   6.639
 4227POPC   C3B56253  41.086  41.310   7.066
 4227POPC   C4B56254  41.124  41.388   7.542
 4228POPC   NC356255  39.846  12.394   5.674
 4228POPC   PO456256  40.166  12.900   5.273
 4228POPC   GL156257  39.887  12.917   5.768
 4228POPC   GL256258  39.955  12.665   6.088
 4228POPC   C1A56259  39.882  13.135   6.197
 4228POPC   D2A56260  40.048  13.040   6.635
 4228POPC   C3A56261  39.854  12.740   6.930
 4228POPC   C4A56262  39.627  12.729   7.334
 4228POPC   C1B56263  40.345  12.932   6.210
 4228POPC   C2B56264  40.522  12.859   6.572
 4228POPC   C3B56265  40.392  12.843   6.967
 4228POPC   C4B56266  40.164  13.139   7.181
 4229POPC   NC356267  29.610   4.161   5.354
 4229POPC   PO456268  30.082   4.563   5.480
 4229POPC   GL156269  29.853   4.376   5.816
 4229POPC   GL256270  29.725   4.033   5.839
 4229POPC   C1A56271  29.814   4.572   6.221
 4229POPC   D2A56272  30.038   4.808   6.541
 4229POPC   C3A56273  30.042   4.518   6.886
 4229POPC   C4A56274  30.021   4.469   7.360
 4229POPC   C1B56275  29.983   4.071   6.218
 4229POPC   C2B56276  29.970   3.860   6.592
 4229POPC   C3B56277  30.018   3.990   6.992
 4229POPC   C4B56278  29.657   4.203   7.133
 4230POPC   NC356279   6.548   5.291   5.393
 4230POPC   PO456280   6.542   4.579   5.529
 4230POPC   GL156281   6.395   4.908   5.780
 4230POPC   GL256282   6.649   5.179   5.877
 4230POPC   C1A56283   6.287   5.038   6.211
 4230POPC   D2A56284   6.535   5.241   6.532
 4230POPC   C3A56285   6.542   5.136   6.959
 4230POPC   C4A56286   6.331   4.926   7.295
 4230POPC   C1B56287   6.930   5.093   6.224
 4230POPC   C2B56288   7.050   5.285   6.628
 4230POPC   C3B56289   6.987   5.390   7.082
 4230POPC   C4B56290   6.952   5.373   7.557
 4231POPC   NC356291  42.526   1.532   5.463
 4231POPC   PO456292  42.285   0.917   5.447
 4231POPC   GL156293  42.286   1.196   5.814
 4231POPC   GL256294  42.610   1.148   5.815
 4231POPC   C1A56295  42.244   1.179   6.286
 4231POPC   D2A56296  42.191   1.116   6.740
 4231POPC   C3A56297  42.345   1.372   7.018
 4231POPC   C4A56298  42.061   1.299   7.357
 4231POPC   C1B56299  42.694   0.936   6.178
 4231POPC   C2B56300  42.668   1.085   6.595
 4231POPC   C3B56301  42.784   1.128   7.001
 4231POPC   C4B56302  42.600   1.179   7.408
 4232POPC   NC356303  26.139  43.596   5.460
 4232POPC   PO456304  26.439  42.993   5.438
 4232POPC   GL156305  26.356  43.158   5.847
 4232POPC   GL256306  26.019  43.298   5.847
 4232POPC   C1A56307  26.467  42.983   6.259
 4232POPC   D2A56308  26.239  42.850   6.639
 4232POPC   C3A56309  25.989  43.128   6.953
 4232POPC   C4A56310  26.083  43.468   7.234
 4232POPC   C1B56311  25.945  42.991   6.163
 4232POPC   C2B56312  25.724  42.917   6.554
 4232POPC   C3B56313  25.744  42.686   6.922
 4232POPC   C4B56314  25.667  42.652   7.318
 4233POPC   NC356315  25.618  28.186   5.369
 4233POPC   PO456316  25.016  28.019   5.556
 4233POPC   GL156317  25.347  28.209   5.819
 4233POPC   GL256318  25.288  28.578   5.802
 4233POPC   C1A56319  25.470  28.348   6.241
 4233POPC   D2A56320  25.322  28.182   6.624
 4233POPC   C3A56321  25.354  28.294   7.045
 4233POPC   C4A56322  24.941  28.224   7.203
 4233POPC   C1B56323  25.110  28.721   6.220
 4233POPC   C2B56324  25.221  28.685   6.676
 4233POPC   C3B56325  25.112  28.744   7.126
 4233POPC   C4B56326  25.399  28.605   7.461
 4234POPC   NC356327  35.143  14.790   5.418
 4234POPC   PO456328  35.640  14.400   5.724
 4234POPC   GL156329  35.191  14.449   5.845
 4234POPC   GL256330  35.027  14.803   5.904
 4234POPC   C1A56331  35.073  14.461   6.277
 4234POPC   D2A56332  35.255  14.664   6.632
 4234POPC   C3A56333  35.109  14.420   6.923
 4234POPC   C4A56334  35.275  14.251   7.252
 4234POPC   C1B56335  35.364  14.882   6.190
 4234POPC   C2B56336  35.721  14.878   6.498
 4234POPC   C3B56337  35.673  14.722   6.917
 4234POPC   C4B56338  35.357  14.754   7.204
 4235POPC   NC356339  34.978  11.201   5.457
 4235POPC   PO456340  35.510  11.696   5.427
 4235POPC   GL156341  35.347  11.495   5.826
 4235POPC   GL256342  35.320  11.125   5.826
 4235POPC   C1A56343  35.256  11.415   6.293
 4235POPC   D2A56344  35.102  11.440   6.730
 4235POPC   C3A56345  35.342  11.420   7.109
 4235POPC   C4A56346  35.437  11.530   7.524
 4235POPC   C1B56347  35.289  10.907   6.194
 4235POPC   C2B56348  35.113  10.949   6.608
 4235POPC   C3B56349  35.295  10.941   7.019
 4235POPC   C4B56350  35.490  11.024   7.459
 4236POPC   NC356351  39.326  23.679   5.472
 4236POPC   PO456352  39.255  24.300   5.366
 4236POPC   GL156353  39.083  24.003   5.803
 4236POPC   GL256354  39.126  23.658   5.927
 4236POPC   C1A56355  39.248  24.019   6.246
 4236POPC   D2A56356  39.482  23.943   6.625
 4236POPC   C3A56357  39.197  24.034   6.947
 4236POPC   C4A56358  39.068  24.180   7.360
 4236POPC   C1B56359  39.332  23.526   6.327
 4236POPC   C2B56360  39.073  23.572   6.694
 4236POPC   C3B56361  39.135  23.562   7.118
 4236POPC   C4B56362  39.337  23.280   7.349
 4237POPC   NC356363  14.608  32.223   5.497
 4237POPC   PO456364  13.983  32.036   5.497
 4237POPC   GL156365  14.197  32.300   5.866
 4237POPC   GL256366  14.535  32.472   5.931
 4237POPC   C1A56367  14.233  32.473   6.307
 4237POPC   D2A56368  14.236  32.379   6.712
 4237POPC   C3A56369  14.484  32.513   7.053
 4237POPC   C4A56370  14.516  32.118   7.231
 4237POPC   C1B56371  14.627  32.148   6.293
 4237POPC   C2B56372  14.778  32.102   6.745
 4237POPC   C3B56373  14.972  32.306   7.102
 4237POPC   C4B56374  14.825  32.448   7.524
 4238POPC   NC356375  13.598  37.754   5.364
 4238POPC   PO456376  14.018  37.166   5.321
 4238POPC   GL156377  13.850  37.425   5.694
 4238POPC   GL256378  13.778  37.778   5.836
 4238POPC   C1A56379  13.851  37.369   6.146
 4238POPC   D2A56380  13.658  37.216   6.534
 4238POPC   C3A56381  13.553  37.510   6.876
 4238POPC   C4A56382  13.769  37.602   7.253
 4238POPC   C1B56383  13.635  37.867   6.283
 4238POPC   C2B56384  13.770  38.095   6.695
 4238POPC   C3B56385  13.613  38.069   7.132
 4238POPC   C4B56386  13.430  37.869   7.524
 4239POPC   NC356387  40.360   8.270   5.335
 4239POPC   PO456388  39.838   7.889   5.409
 4239POPC   GL156389  40.101   7.977   5.754
 4239POPC   GL256390  40.114   8.319   5.798
 4239POPC   C1A56391  40.041   7.879   6.164
 4239POPC   D2A56392  40.080   8.151   6.515
 4239POPC   C3A56393  40.114   7.995   6.896
 4239POPC   C4A56394  40.059   7.779   7.294
 4239POPC   C1B56395  40.095   8.548   6.172
 4239POPC   C2B56396  40.126   8.655   6.597
 4239POPC   C3B56397  39.885   8.465   6.917
 4239POPC   C4B56398  40.072   8.321   7.271
 4240POPC   NC356399  18.962  15.736   5.424
 4240POPC   PO456400  19.611  16.000   5.494
 4240POPC   GL156401  19.246  16.050   5.737
 4240POPC   GL256402  19.277  15.715   5.811
 4240POPC   C1A56403  18.936  16.002   6.066
 4240POPC   D2A56404  18.972  15.826   6.478
 4240POPC   C3A56405  18.854  16.106   6.819
 4240POPC   C4A56406  18.759  15.985   7.238
 4240POPC   C1B56407  19.373  15.533   6.193
 4240POPC   C2B56408  19.358  15.488   6.636
 4240POPC   C3B56409  19.171  15.730   6.974
 4240POPC   C4B56410  19.188  15.765   7.408
 4241POPC   NC356411   6.324  14.705   5.584
 4241POPC   PO456412   6.888  14.257   5.393
 4241POPC   GL156413   6.851  14.373   5.807
 4241POPC   GL256414   6.580  14.534   5.974
 4241POPC   C1A56415   6.990  14.354   6.209
 4241POPC   D2A56416   6.687  14.398   6.502
 4241POPC   C3A56417   6.804  14.262   6.889
 4241POPC   C4A56418   6.752  14.326   7.298
 4241POPC   C1B56419   6.349  14.747   6.305
 4241POPC   C2B56420   6.261  14.631   6.716
 4241POPC   C3B56421   6.403  14.726   7.131
 4241POPC   C4B56422   6.316  14.513   7.542
 4242POPC   NC356423   7.336   9.140   5.481
 4242POPC   PO456424   7.431   8.461   5.364
 4242POPC   GL156425   7.386   8.691   5.778
 4242POPC   GL256426   7.122   8.549   5.973
 4242POPC   C1A56427   7.349   8.996   6.150
 4242POPC   D2A56428   7.470   9.248   6.522
 4242POPC   C3A56429   7.566   9.056   6.894
 4242POPC   C4A56430   7.257   9.165   7.195
 4242POPC   C1B56431   7.114   8.562   6.376
 4242POPC   C2B56432   7.230   8.698   6.775
 4242POPC   C3B56433   7.151   8.657   7.212
 4242POPC   C4B56434   7.013   8.587   7.647
 4243POPC   NC356435  20.208  10.039   5.345
 4243POPC   PO456436  19.747   9.559   5.350
 4243POPC   GL156437  19.697   9.702   5.786
 4243POPC   GL256438  19.956   9.949   5.837
 4243POPC   C1A56439  19.640   9.808   6.239
 4243POPC   D2A56440  19.540   9.644   6.663
 4243POPC   C3A56441  19.810   9.714   7.019
 4243POPC   C4A56442  20.145   9.734   7.334
 4243POPC   C1B56443  20.198  10.265   6.071
 4243POPC   C2B56444  20.251  10.418   6.524
 4243POPC   C3B56445  20.001  10.300   6.895
 4243POPC   C4B56446  19.777  10.174   7.275
 4244POPC   NC356447  20.539  37.236   4.947
 4244POPC   PO456448  20.528  37.000   5.384
 4244POPC   GL156449  20.347  36.893   5.815
 4244POPC   GL256450  20.137  36.614   5.909
 4244POPC   C1A56451  20.411  36.867   6.293
 4244POPC   D2A56452  20.690  36.744   6.660
 4244POPC   C3A56453  20.569  36.901   7.064
 4244POPC   C4A56454  20.304  37.203   7.264
 4244POPC   C1B56455  20.071  36.480   6.317
 4244POPC   C2B56456  20.215  36.575   6.718
 4244POPC   C3B56457  20.473  36.387   7.034
 4244POPC   C4B56458  20.748  36.513   7.373
 4245POPC   NC356459  22.919   7.469   5.039
 4245POPC   PO456460  23.131   7.180   5.364
 4245POPC   GL156461  23.045   7.342   5.787
 4245POPC   GL256462  23.117   7.684   5.881
 4245POPC   C1A56463  22.891   7.289   6.218
 4245POPC   D2A56464  23.101   7.231   6.614
 4245POPC   C3A56465  22.929   7.247   7.039
 4245POPC   C4A56466  22.732   7.407   7.445
 4245POPC   C1B56467  23.135   7.714   6.346
 4245POPC   C2B56468  22.828   7.669   6.683
 4245POPC   C3B56469  22.906   7.754   7.109
 4245POPC   C4B56470  23.237   7.526   7.357
 4246POPC   NC356471  21.545  11.751   5.413
 4246POPC   PO456472  21.233  12.291   5.621
 4246POPC   GL156473  21.521  11.993   5.848
 4246POPC   GL256474  21.764  12.274   5.816
 4246POPC   C1A56475  21.494  11.749   6.252
 4246POPC   D2A56476  21.406  11.963   6.642
 4246POPC   C3A56477  21.405  11.837   7.085
 4246POPC   C4A56478  21.315  12.011   7.499
 4246POPC   C1B56479  21.587  12.290   6.246
 4246POPC   C2B56480  21.607  12.430   6.649
 4246POPC   C3B56481  21.374  12.349   7.007
 4246POPC   C4B56482  21.372  12.550   7.387
 4247POPC   NC356483  22.359  24.701   5.440
 4247POPC   PO456484  21.967  24.088   5.423
 4247POPC   GL156485  22.050  24.396   5.754
 4247POPC   GL256486  21.893  24.714   5.694
 4247POPC   C1A56487  22.357  24.401   6.116
 4247POPC   D2A56488  22.269  24.300   6.541
 4247POPC   C3A56489  22.458  24.282   6.929
 4247POPC   C4A56490  22.504  24.550   7.255
 4247POPC   C1B56491  22.014  24.793   6.138
 4247POPC   C2B56492  21.894  24.694   6.545
 4247POPC   C3B56493  22.057  24.631   6.945
 4247POPC   C4B56494  22.006  24.439   7.335
 4248POPC   NC356495  30.461  21.154   5.455
 4248POPC   PO456496  30.937  21.703   5.314
 4248POPC   GL156497  30.681  21.627   5.736
 4248POPC   GL256498  30.789  21.275   5.843
 4248POPC   C1A56499  30.483  21.521   6.179
 4248POPC   D2A56500  30.752  21.408   6.528
 4248POPC   C3A56501  30.616  21.345   6.947
 4248POPC   C4A56502  30.464  21.710   7.152
 4248POPC   C1B56503  30.505  21.023   6.111
 4248POPC   C2B56504  30.369  21.088   6.518
 4248POPC   C3B56505  30.229  20.952   6.884
 4248POPC   C4B56506  30.430  20.952   7.277
 4249POPC   NC356507  17.830  42.910   5.391
 4249POPC   PO456508  17.301  43.354   5.273
 4249POPC   GL156509  17.394  43.116   5.666
 4249POPC   GL256510  17.176  42.847   5.776
 4249POPC   C1A56511  17.535  43.020   6.114
 4249POPC   D2A56512  17.294  43.144   6.491
 4249POPC   C3A56513  17.464  43.105   6.894
 4249POPC   C4A56514  17.605  42.953   7.288
 4249POPC   C1B56515  17.115  42.722   6.227
 4249POPC   C2B56516  17.117  42.715   6.699
 4249POPC   C3B56517  17.062  42.908   7.119
 4249POPC   C4B56518  17.158  42.809   7.553
 4250POPC   NC356519  10.731  18.676   5.258
 4250POPC   PO456520  10.230  18.373   5.554
 4250POPC   GL156521  10.474  18.299   5.828
 4250POPC   GL256522  10.288  17.985   5.884
 4250POPC   C1A56523  10.459  18.506   6.208
 4250POPC   D2A56524  10.272  18.459   6.585
 4250POPC   C3A56525  10.452  18.607   6.940
 4250POPC   C4A56526  10.545  18.269   7.191
 4250POPC   C1B56527  10.024  18.154   6.199
 4250POPC   C2B56528   9.934  18.015   6.609
 4250POPC   C3B56529  10.108  18.038   7.019
 4250POPC   C4B56530  10.282  17.906   7.443
 4251POPC   NC356531  35.034   8.901   5.357
 4251POPC   PO456532  34.373   9.131   5.293
 4251POPC   GL156533  34.614   9.107   5.660
 4251POPC   GL256534  34.855   9.355   5.626
 4251POPC   C1A56535  34.527   8.936   6.063
 4251POPC   D2A56536  34.367   8.986   6.482
 4251POPC   C3A56537  34.623   8.870   6.825
 4251POPC   C4A56538  34.508   8.817   7.241
 4251POPC   C1B56539  34.851   9.351   6.082
 4251POPC   C2B56540  35.022   9.426   6.494
 4251POPC   C3B56541  34.890   9.503   6.915
 4251POPC   C4B56542  34.756   9.257   7.236
 4252POPC   NC356543  31.388  31.097   5.461
 4252POPC   PO456544  31.055  30.507   5.495
 4252POPC   GL156545  31.242  30.786   5.840
 4252POPC   GL256546  31.631  30.811   5.830
 4252POPC   C1A56547  31.362  30.785   6.295
 4252POPC   D2A56548  31.601  30.567   6.612
 4252POPC   C3A56549  31.405  30.500   7.008
 4252POPC   C4A56550  31.468  30.827   7.253
 4252POPC   C1B56551  31.883  30.816   6.215
 4252POPC   C2B56552  32.000  31.064   6.536
 4252POPC   C3B56553  31.795  31.018   6.904
 4252POPC   C4B56554  31.974  30.922   7.282
 4253POPC   NC356555  41.978  44.014   5.542
 4253POPC   PO456556  42.645  43.920   5.574
 4253POPC   GL156557  42.638  43.791   5.963
 4253POPC   GL256558  42.873  43.530   5.993
 4253POPC   C1A56559  42.288  43.848   6.268
 4253POPC   D2A56560  41.985  43.570   6.488
 4253POPC   C3A56561  42.008  43.609   6.927
 4253POPC   C4A56562  42.083  43.717   7.346
 4253POPC   C1B56563  42.778  43.663   6.423
 4253POPC   C2B56564  42.488  43.762   6.745
 4253POPC   C3B56565  42.576  43.846   7.155
 4253POPC   C4B56566  42.619  44.151   7.463
 4254POPC   NC356567   4.602  42.629   5.107
 4254POPC   PO456568   4.065  42.220   5.333
 4254POPC   GL156569   4.008  42.158   5.759
 4254POPC   GL256570   3.833  42.442   5.888
 4254POPC   C1A56571   4.244  42.213   6.132
 4254POPC   D2A56572   4.569  42.209   6.454
 4254POPC   C3A56573   4.511  42.447   6.824
 4254POPC   C4A56574   4.578  42.300   7.224
 4254POPC   C1B56575   3.751  42.351   6.280
 4254POPC   C2B56576   4.066  42.362   6.587
 4254POPC   C3B56577   4.083  42.258   6.997
 4254POPC   C4B56578   4.028  42.480   7.329
 4255POPC   NC356579   7.682  14.727   5.496
 4255POPC   PO456580   7.585  14.093   5.232
 4255POPC   GL156581   7.361  14.268   5.660
 4255POPC   GL256582   7.316  14.584   5.809
 4255POPC   C1A56583   7.501  14.263   6.159
 4255POPC   D2A56584   7.607  14.400   6.617
 4255POPC   C3A56585   7.577  14.111   7.011
 4255POPC   C4A56586   7.239  14.117   7.333
 4255POPC   C1B56587   7.345  14.751   6.243
 4255POPC   C2B56588   7.132  14.625   6.640
 4255POPC   C3B56589   7.277  14.528   7.020
 4255POPC   C4B56590   7.696  14.695   7.084
 4256POPC   NC356591  33.252  20.315   5.457
 4256POPC   PO456592  32.826  19.745   5.418
 4256POPC   GL156593  32.929  19.967   5.780
 4256POPC   GL256594  32.716  20.239   5.860
 4256POPC   C1A56595  33.001  19.771   6.209
 4256POPC   D2A56596  32.811  19.563   6.556
 4256POPC   C3A56597  32.955  19.788   6.903
 4256POPC   C4A56598  33.069  19.687   7.307
 4256POPC   C1B56599  33.039  20.266   6.182
 4256POPC   C2B56600  33.189  20.134   6.573
 4256POPC   C3B56601  33.211  20.294   6.974
 4256POPC   C4B56602  33.325  20.136   7.375
 4257POPC   NC356603   2.016  12.231   5.414
 4257POPC   PO456604   2.414  11.809   5.450
 4257POPC   GL156605   2.191  11.937   5.840
 4257POPC   GL256606   1.819  11.944   5.809
 4257POPC   C1A56607   2.182  11.886   6.318
 4257POPC   D2A56608   2.165  11.720   6.747
 4257POPC   C3A56609   2.272  11.987   7.088
 4257POPC   C4A56610   2.172  12.404   7.186
 4257POPC   C1B56611   1.789  12.187   6.242
 4257POPC   C2B56612   1.921  12.196   6.726
 4257POPC   C3B56613   1.719  12.168   7.163
 4257POPC   C4B56614   1.376  12.228   7.492
 4258POPC   NC356615  31.593   7.112   5.571
 4258POPC   PO456616  31.220   6.589   5.395
 4258POPC   GL156617  31.294   6.470   5.792
 4258POPC   GL256618  31.598   6.264   5.706
 4258POPC   C1A56619  31.388   6.753   6.166
 4258POPC   D2A56620  31.582   6.982   6.535
 4258POPC   C3A56621  31.440   6.834   6.941
 4258POPC   C4A56622  31.564   6.933   7.354
 4258POPC   C1B56623  31.553   6.247   6.168
 4258POPC   C2B56624  31.311   6.368   6.513
 4258POPC   C3B56625  31.532   6.312   6.884
 4258POPC   C4B56626  31.642   6.455   7.257
 4259POPC   NC356627  12.857  15.056   5.398
 4259POPC   PO456628  12.362  15.208   5.767
 4259POPC   GL156629  12.695  15.340   5.992
 4259POPC   GL256630  12.984  15.233   5.884
 4259POPC   C1A56631  12.756  15.175   6.399
 4259POPC   D2A56632  12.835  15.266   6.842
 4259POPC   C3A56633  12.525  15.207   7.187
 4259POPC   C4A56634  12.536  15.414   7.605
 4259POPC   C1B56635  13.186  14.939   6.183
 4259POPC   C2B56636  13.131  14.901   6.643
 4259POPC   C3B56637  13.094  14.910   7.097
 4259POPC   C4B56638  12.939  15.102   7.462
 4260POPC   NC356639  16.600   8.253   5.584
 4260POPC   PO456640  17.105   8.282   5.139
 4260POPC   GL156641  17.106   8.192   5.688
 4260POPC   GL256642  16.959   7.986   6.005
 4260POPC   C1A56643  17.129   8.424   6.168
 4260POPC   D2A56644  17.043   8.207   6.577
 4260POPC   C3A56645  16.916   8.333   6.986
 4260POPC   C4A56646  16.624   8.534   7.234
 4260POPC   C1B56647  16.624   8.255   6.259
 4260POPC   C2B56648  16.364   8.257   6.647
 4260POPC   C3B56649  16.463   8.072   7.053
 4260POPC   C4B56650  16.358   7.932   7.465
 4261POPC   NC356651   1.831  43.880   5.266
 4261POPC   PO456652   1.112  43.939   5.302
 4261POPC   GL156653   1.137  43.878   5.731
 4261POPC   GL256654   1.339  44.167   5.752
 4261POPC   C1A56655   1.354  43.714   6.095
 4261POPC   D2A56656   1.297  43.540   6.507
 4261POPC   C3A56657   1.446  43.746   6.907
 4261POPC   C4A56658   1.181  43.813   7.278
 4261POPC   C1B56659   1.135  44.206   6.164
 4261POPC   C2B56660   1.063  44.034   6.587
 4261POPC   C3B56661   1.048  44.224   6.999
 4261POPC   C4B56662   0.801  44.213   7.400
 4262POPC   NC356663  21.635  14.705   5.510
 4262POPC   PO456664  21.168  14.188   5.365
 4262POPC   GL156665  21.311  14.246   5.764
 4262POPC   GL256666  21.222  14.589   5.761
 4262POPC   C1A56667  21.457  14.330   6.189
 4262POPC   D2A56668  21.576  14.138   6.582
 4262POPC   C3A56669  21.433  14.333   6.974
 4262POPC   C4A56670  21.552  14.539   7.351
 4262POPC   C1B56671  21.051  14.669   6.124
 4262POPC   C2B56672  21.075  14.893   6.468
 4262POPC   C3B56673  21.269  14.797   6.834
 4262POPC   C4B56674  21.132  14.779   7.257
 4263POPC   NC356675  17.086  42.212   5.378
 4263POPC   PO456676  16.611  42.740   5.416
 4263POPC   GL156677  16.767  42.412   5.714
 4263POPC   GL256678  16.522  42.157   5.813
 4263POPC   C1A56679  16.983  42.216   6.090
 4263POPC   D2A56680  17.240  42.255   6.485
 4263POPC   C3A56681  17.059  42.172   6.875
 4263POPC   C4A56682  17.003  42.406   7.231
 4263POPC   C1B56683  16.388  42.146   6.260
 4263POPC   C2B56684  16.319  42.255   6.713
 4263POPC   C3B56685  16.505  42.159   7.120
 4263POPC   C4B56686  16.769  41.770   7.071
 4264POPC   NC356687  36.050  39.604   5.336
 4264POPC   PO456688  36.554  39.124   5.511
 4264POPC   GL156689  36.426  39.234   5.902
 4264POPC   GL256690  36.113  39.419   5.834
 4264POPC   C1A56691  36.429  39.332   6.309
 4264POPC   D2A56692  36.292  39.437   6.710
 4264POPC   C3A56693  36.464  39.227   7.064
 4264POPC   C4A56694  36.400  39.026   7.481
 4264POPC   C1B56695  35.895  39.330   6.205
 4264POPC   C2B56696  35.800  39.508   6.593
 4264POPC   C3B56697  35.854  39.300   6.989
 4264POPC   C4B56698  36.078  39.408   7.352
 4265POPC   NC356699  19.677  32.237   5.392
 4265POPC   PO456700  20.290  32.342   5.570
 4265POPC   GL156701  19.912  32.275   5.882
 4265POPC   GL256702  19.571  32.169   5.878
 4265POPC   C1A56703  19.689  32.514   6.241
 4265POPC   D2A56704  19.541  32.432   6.691
 4265POPC   C3A56705  19.844  32.296   7.030
 4265POPC   C4A56706  20.105  31.928   7.156
 4265POPC   C1B56707  19.611  32.009   6.285
 4265POPC   C2B56708  19.406  31.851   6.652
 4265POPC   C3B56709  19.358  32.067   7.025
 4265POPC   C4B56710  19.387  32.484   7.202
 4266POPC   NC356711  30.184  35.186   5.186
 4266POPC   PO456712  29.633  35.594   5.469
 4266POPC   GL156713  29.926  35.320   5.669
 4266POPC   GL256714  29.675  35.175   5.916
 4266POPC   C1A56715  30.193  35.149   6.016
 4266POPC   D2A56716  30.033  35.056   6.433
 4266POPC   C3A56717  29.982  35.377   6.730
 4266POPC   C4A56718  29.900  35.343   7.152
 4266POPC   C1B56719  29.864  35.522   6.184
 4266POPC   C2B56720  29.680  35.746   6.536
 4266POPC   C3B56721  29.626  35.729   6.954
 4266POPC   C4B56722  29.655  35.713   7.423
 4267POPC   NC356723  33.213  38.481   5.174
 4267POPC   PO456724  32.787  38.139   5.520
 4267POPC   GL156725  33.018  38.209   5.932
 4267POPC   GL256726  33.350  38.392   5.859
 4267POPC   C1A56727  33.015  38.249   6.400
 4267POPC   D2A56728  32.796  38.510   6.722
 4267POPC   C3A56729  32.940  38.524   7.121
 4267POPC   C4A56730  33.262  38.253   7.129
 4267POPC   C1B56731  33.354  38.617   6.260
 4267POPC   C2B56732  33.295  38.575   6.703
 4267POPC   C3B56733  33.409  38.755   7.063
 4267POPC   C4B56734  33.570  38.924   7.433
 4268POPC   NC356735  13.838  19.253   5.322
 4268POPC   PO456736  13.325  18.864   5.392
 4268POPC   GL156737  13.474  18.894   5.783
 4268POPC   GL256738  13.499  19.278   5.773
 4268POPC   C1A56739  13.287  18.761   6.188
 4268POPC   D2A56740  13.387  18.612   6.586
 4268POPC   C3A56741  13.438  18.787   6.968
 4268POPC   C4A56742  13.802  18.872   7.238
 4268POPC   C1B56743  13.669  19.118   6.216
 4268POPC   C2B56744  13.779  19.064   6.693
 4268POPC   C3B56745  13.757  19.345   7.063
 4268POPC   C4B56746  13.670  19.453   7.482
 4269POPC   NC356747  23.131  25.088   5.484
 4269POPC   PO456748  22.823  25.723   5.418
 4269POPC   GL156749  22.778  25.459   5.800
 4269POPC   GL256750  22.801  25.074   5.863
 4269POPC   C1A56751  22.908  25.391   6.235
 4269POPC   D2A56752  22.913  25.049   6.542
 4269POPC   C3A56753  22.835  25.280   6.923
 4269POPC   C4A56754  23.015  25.449   7.295
 4269POPC   C1B56755  22.578  24.862   6.187
 4269POPC   C2B56756  22.386  24.829   6.585
 4269POPC   C3B56757  22.403  25.009   7.000
 4269POPC   C4B56758  22.691  25.027   7.352
 4270POPC   NC356759  31.186   9.292   5.447
 4270POPC   PO456760  31.909   9.097   5.497
 4270POPC   GL156761  31.660   8.968   5.830
 4270POPC   GL256762  31.302   8.982   5.852
 4270POPC   C1A56763  31.585   9.135   6.262
 4270POPC   D2A56764  31.380   9.218   6.632
 4270POPC   C3A56765  31.349   8.868   6.934
 4270POPC   C4A56766  31.445   8.728   7.362
 4270POPC   C1B56767  31.108   8.900   6.278
 4270POPC   C2B56768  30.898   9.043   6.688
 4270POPC   C3B56769  30.929   9.101   7.158
 4270POPC   C4B56770  31.093   9.032   7.586
 4271POPC   NC356771   9.718   2.206   5.439
 4271POPC   PO456772  10.110   1.715   5.339
 4271POPC   GL156773   9.864   1.822   5.750
 4271POPC   GL256774  10.046   2.090   5.908
 4271POPC   C1A56775   9.704   1.880   6.194
 4271POPC   D2A56776   9.969   1.986   6.560
 4271POPC   C3A56777   9.718   2.044   6.942
 4271POPC   C4A56778   9.614   1.697   7.236
 4271POPC   C1B56779  10.180   2.386   6.249
 4271POPC   C2B56780  10.029   2.471   6.686
 4271POPC   C3B56781  10.180   2.259   7.064
 4271POPC   C4B56782  10.147   1.831   7.210
 4272POPC   NC356783  28.626  22.040   5.244
 4272POPC   PO456784  28.394  22.609   5.053
 4272POPC   GL156785  28.381  22.399   5.526
 4272POPC   GL256786  28.611  22.516   5.780
 4272POPC   C1A56787  28.269  22.221   5.993
 4272POPC   D2A56788  28.442  22.095   6.440
 4272POPC   C3A56789  28.172  22.139   6.810
 4272POPC   C4A56790  28.258  22.141   7.265
 4272POPC   C1B56791  28.550  22.594   6.201
 4272POPC   C2B56792  28.788  22.470   6.559
 4272POPC   C3B56793  28.517  22.487   6.917
 4272POPC   C4B56794  28.466  22.589   7.312
 4273POPC   NC356795  34.911   1.858   5.156
 4273POPC   PO456796  34.376   2.000   5.220
 4273POPC   GL156797  34.295   2.032   5.744
 4273POPC   GL256798  34.225   1.739   5.993
 4273POPC   C1A56799  34.281   2.165   6.243
 4273POPC   D2A56800  34.141   1.971   6.674
 4273POPC   C3A56801  34.322   2.159   7.045
 4273POPC   C4A56802  34.571   2.522   7.205
 4273POPC   C1B56803  34.470   1.697   6.390
 4273POPC   C2B56804  34.603   1.745   6.840
 4273POPC   C3B56805  34.511   1.744   7.278
 4273POPC   C4B56806  34.504   1.641   7.723
 4274POPC   NC356807  43.763   3.609   5.439
 4274POPC   PO456808  44.498   3.674   5.446
 4274POPC   GL156809  44.255   3.597   5.865
 4274POPC   GL256810  43.912   3.556   5.895
 4274POPC   C1A56811  44.096   3.563   6.346
 4274POPC   D2A56812  44.232   3.692   6.739
 4274POPC   C3A56813  44.023   3.633   7.104
 4274POPC   C4A56814  43.572   3.613   7.082
 4274POPC   C1B56815  43.655   3.294   6.119
 4274POPC   C2B56816  43.611   3.417   6.539
 4274POPC   C3B56817  43.913   3.242   6.787
 4274POPC   C4B56818  43.828   3.169   7.184
 4275POPC   NC356819  34.898  29.437   5.523
 4275POPC   PO456820  34.228  29.365   5.550
 4275POPC   GL156821  34.477  29.387   5.901
 4275POPC   GL256822  34.535  29.048   5.913
 4275POPC   C1A56823  34.774  29.325   6.269
 4275POPC   D2A56824  34.640  29.224   6.692
 4275POPC   C3A56825  34.866  29.316   7.047
 4275POPC   C4A56826  34.774  29.254   7.462
 4275POPC   C1B56827  34.314  29.046   6.337
 4275POPC   C2B56828  34.251  28.877   6.779
 4275POPC   C3B56829  34.442  28.958   7.199
 4275POPC   C4B56830  34.497  28.833   7.668
 4276POPC   NC356831  20.427  30.931   5.491
 4276POPC   PO456832  20.738  30.351   5.395
 4276POPC   GL156833  20.758  30.650   5.772
 4276POPC   GL256834  20.424  30.588   5.902
 4276POPC   C1A56835  20.717  30.960   6.173
 4276POPC   D2A56836  20.558  31.093   6.617
 4276POPC   C3A56837  20.752  31.030   7.040
 4276POPC   C4A56838  20.695  30.876   7.471
 4276POPC   C1B56839  20.708  30.455   6.275
 4276POPC   C2B56840  20.740  30.591   6.712
 4276POPC   C3B56841  20.585  30.470   7.119
 4276POPC   C4B56842  20.182  30.274   7.166
 4277POPC   NC356843  33.103  42.539   5.501
 4277POPC   PO456844  32.646  42.071   5.730
 4277POPC   GL156845  32.898  42.336   5.956
 4277POPC   GL256846  32.774  42.664   5.914
 4277POPC   C1A56847  33.070  42.288   6.392
 4277POPC   D2A56848  33.289  42.411   6.796
 4277POPC   C3A56849  33.345  42.112   7.143
 4277POPC   C4A56850  33.343  41.918   7.575
 4277POPC   C1B56851  32.602  42.541   6.320
 4277POPC   C2B56852  32.745  42.447   6.774
 4277POPC   C3B56853  32.920  42.591   7.161
 4277POPC   C4B56854  32.745  42.731   7.581
 4278POPC   NC356855  13.281  22.380   5.648
 4278POPC   PO456856  13.996  22.435   5.710
 4278POPC   GL156857  13.684  22.196   5.891
 4278POPC   GL256858  13.751  21.853   5.783
 4278POPC   C1A56859  13.434  22.227   6.285
 4278POPC   D2A56860  13.493  22.480   6.658
 4278POPC   C3A56861  13.334  22.251   6.996
 4278POPC   C4A56862  13.429  21.995   7.314
 4278POPC   C1B56863  13.811  21.857   6.248
 4278POPC   C2B56864  13.682  21.961   6.669
 4278POPC   C3B56865  13.872  22.021   7.059
 4278POPC   C4B56866  14.085  21.809   7.420
 4279POPC   NC356867  14.301  42.622   5.498
 4279POPC   PO456868  14.859  42.269   5.364
 4279POPC   GL156869  14.722  42.479   5.818
 4279POPC   GL256870  14.354  42.534   5.994
 4279POPC   C1A56871  14.720  42.405   6.297
 4279POPC   D2A56872  14.507  42.260   6.646
 4279POPC   C3A56873  14.369  42.450   6.971
 4279POPC   C4A56874  14.345  42.365   7.386
 4279POPC   C1B56875  14.170  42.208   6.280
 4279POPC   C2B56876  14.112  41.932   6.613
 4279POPC   C3B56877  13.994  42.075   7.011
 4279POPC   C4B56878  14.076  41.944   7.428
 4280POPC   NC356879  35.827   9.253   5.467
 4280POPC   PO456880  35.517   8.693   5.323
 4280POPC   GL156881  35.507   8.939   5.723
 4280POPC   GL256882  35.159   8.993   5.832
 4280POPC   C1A56883  35.524   8.977   6.173
 4280POPC   D2A56884  35.382   9.015   6.582
 4280POPC   C3A56885  35.682   9.121   6.867
 4280POPC   C4A56886  35.441   9.275   7.208
 4280POPC   C1B56887  35.009   8.843   6.227
 4280POPC   C2B56888  35.034   8.634   6.621
 4280POPC   C3B56889  35.125   8.810   7.023
 4280POPC   C4B56890  35.499   8.789   7.216
 4281POPC   NC356891  35.098  12.029   5.446
 4281POPC   PO456892  35.595  12.418   5.386
 4281POPC   GL156893  35.368  12.340   5.778
 4281POPC   GL256894  35.497  12.008   5.841
 4281POPC   C1A56895  35.171  12.247   6.202
 4281POPC   D2A56896  35.092  11.902   6.528
 4281POPC   C3A56897  35.271  11.900   6.967
 4281POPC   C4A56898  35.421  12.020   7.404
 4281POPC   C1B56899  35.620  11.774   6.229
 4281POPC   C2B56900  35.593  11.614   6.688
 4281POPC   C3B56901  35.776  11.680   7.138
 4281POPC   C4B56902  35.858  11.786   7.609
 4282POPC   NC356903   1.777  21.306   5.320
 4282POPC   PO456904   2.466  21.298   5.378
 4282POPC   GL156905   2.183  21.410   5.735
 4282POPC   GL256906   1.901  21.178   5.884
 4282POPC   C1A56907   2.199  21.438   6.196
 4282POPC   D2A56908   2.106  21.089   6.503
 4282POPC   C3A56909   2.036  21.237   6.912
 4282POPC   C4A56910   2.149  21.320   7.329
 4282POPC   C1B56911   1.632  21.114   6.281
 4282POPC   C2B56912   1.594  20.974   6.732
 4282POPC   C3B56913   1.638  21.079   7.187
 4282POPC   C4B56914   1.748  21.284   7.609
 4283POPC   NC356915  28.359  20.237   5.580
 4283POPC   PO456916  28.458  20.871   5.542
 4283POPC   GL156917  28.412  20.655   5.921
 4283POPC   GL256918  28.092  20.612   5.899
 4283POPC   C1A56919  28.472  20.473   6.371
 4283POPC   D2A56920  28.431  20.166   6.669
 4283POPC   C3A56921  28.495  20.287   7.052
 4283POPC   C4A56922  28.402  20.630   7.258
 4283POPC   C1B56923  27.984  20.576   6.340
 4283POPC   C2B56924  28.119  20.604   6.779
 4283POPC   C3B56925  28.103  20.982   7.073
 4283POPC   C4B56926  27.973  20.890   7.509
 4284POPC   NC356927  31.355  29.200   5.466
 4284POPC   PO456928  31.684  29.730   5.474
 4284POPC   GL156929  31.531  29.400   5.898
 4284POPC   GL256930  31.186  29.200   5.933
 4284POPC   C1A56931  31.545  29.034   6.261
 4284POPC   D2A56932  31.703  28.957   6.721
 4284POPC   C3A56933  31.841  29.318   6.955
 4284POPC   C4A56934  31.469  29.487   7.100
 4284POPC   C1B56935  31.007  29.150   6.326
 4284POPC   C2B56936  31.207  29.086   6.716
 4284POPC   C3B56937  31.117  29.011   7.130
 4284POPC   C4B56938  30.864  29.015   7.510
 4285POPC   NC356939  15.241  33.683   5.321
 4285POPC   PO456940  15.628  34.191   5.641
 4285POPC   GL156941  15.260  33.984   5.761
 4285POPC   GL256942  15.317  33.621   5.824
 4285POPC   C1A56943  15.012  33.869   6.131
 4285POPC   D2A56944  14.875  33.783   6.525
 4285POPC   C3A56945  15.022  33.930   6.929
 4285POPC   C4A56946  15.264  34.148   7.270
 4285POPC   C1B56947  15.299  33.400   6.226
 4285POPC   C2B56948  15.225  33.451   6.657
 4285POPC   C3B56949  15.061  33.360   7.035
 4285POPC   C4B56950  15.278  33.612   7.319
 4286POPC   NC356951  14.253  13.303   5.558
 4286POPC   PO456952  14.304  13.978   5.337
 4286POPC   GL156953  14.519  13.770   5.739
 4286POPC   GL256954  14.611  13.419   5.916
 4286POPC   C1A56955  14.556  13.911   6.176
 4286POPC   D2A56956  14.660  13.746   6.579
 4286POPC   C3A56957  14.558  13.897   6.991
 4286POPC   C4A56958  14.591  13.549   7.234
 4286POPC   C1B56959  14.311  13.438   6.298
 4286POPC   C2B56960  14.251  13.482   6.771
 4286POPC   C3B56961  14.146  13.270   7.162
 4286POPC   C4B56962  14.052  13.168   7.601
 4287POPC   NC356963   7.797  37.481   5.316
 4287POPC   PO456964   7.215  37.894   5.375
 4287POPC   GL156965   7.237  37.582   5.708
 4287POPC   GL256966   7.058  37.262   5.687
 4287POPC   C1A56967   7.422  37.659   6.123
 4287POPC   D2A56968   7.620  37.903   6.445
 4287POPC   C3A56969   7.521  37.748   6.847
 4287POPC   C4A56970   7.560  37.736   7.280
 4287POPC   C1B56971   6.989  37.365   6.116
 4287POPC   C2B56972   7.147  37.378   6.538
 4287POPC   C3B56973   7.124  37.350   6.992
 4287POPC   C4B56974   7.048  37.682   7.267
 4288POPC   NC356975   6.123   3.963   5.193
 4288POPC   PO456976   5.711   4.443   5.316
 4288POPC   GL156977   5.652   4.361   5.786
 4288POPC   GL256978   5.868   4.099   5.837
 4288POPC   C1A56979   5.553   4.299   6.253
 4288POPC   D2A56980   5.543   4.522   6.648
 4288POPC   C3A56981   5.628   4.323   7.014
 4288POPC   C4A56982   5.573   4.412   7.446
 4288POPC   C1B56983   6.058   4.302   6.191
 4288POPC   C2B56984   5.999   4.277   6.594
 4288POPC   C3B56985   6.122   4.472   6.926
 4288POPC   C4B56986   6.079   4.267   7.273
 4289POPC   NC356987  17.101  34.084   5.370
 4289POPC   PO456988  16.617  33.666   5.212
 4289POPC   GL156989  16.716  33.681   5.726
 4289POPC   GL256990  16.888  33.990   5.840
 4289POPC   C1A56991  16.589  33.685   6.189
 4289POPC   D2A56992  16.856  33.719   6.547
 4289POPC   C3A56993  16.815  33.647   6.982
 4289POPC   C4A56994  16.620  33.786   7.346
 4289POPC   C1B56995  16.858  34.142   6.245
 4289POPC   C2B56996  16.670  34.184   6.650
 4289POPC   C3B56997  16.941  34.187   6.986
 4289POPC   C4B56998  16.872  34.217   7.402
 4290POPC   NC356999  18.915  13.172   5.211
 4290POPC   PO457000  19.351  12.684   5.409
 4290POPC   GL157001  19.095  12.738   5.790
 4290POPC   GL257002  18.745  12.689   5.681
 4290POPC   C1A57003  19.167  12.779   6.261
 4290POPC   D2A57004  18.932  12.885   6.649
 4290POPC   C3A57005  19.012  12.739   7.082
 4290POPC   C4A57006  19.120  12.941   7.477
 4290POPC   C1B57007  18.670  12.871   6.115
 4290POPC   C2B57008  18.441  12.902   6.524
 4290POPC   C3B57009  18.507  12.825   6.961
 4290POPC   C4B57010  18.608  12.967   7.381
 4291POPC   NC357011  43.184  40.388   5.403
 4291POPC   PO457012  43.090  41.027   5.503
 4291POPC   GL157013  43.242  40.929   5.874
 4291POPC   GL257014  43.129  40.574   5.883
 4291POPC   C1A57015  43.145  41.073   6.293
 4291POPC   D2A57016  42.930  41.168   6.670
 4291POPC   C3A57017  43.184  40.990   7.016
 4291POPC   C4A57018  43.121  40.760   7.414
 4291POPC   C1B57019  42.945  40.569   6.284
 4291POPC   C2B57020  42.864  40.672   6.680
 4291POPC   C3B57021  42.918  40.491   7.030
 4291POPC   C4B57022  42.649  40.500   7.386
 4292POPC   NC357023  17.275  12.224   5.364
 4292POPC   PO457024  17.733  11.723   5.446
 4292POPC   GL157025  17.588  11.968   5.769
 4292POPC   GL257026  17.761  11.768   6.011
 4292POPC   C1A57027  17.506  12.191   6.184
 4292POPC   D2A57028  17.566  12.392   6.598
 4292POPC   C3A57029  17.256  12.420   6.969
 4292POPC   C4A57030  17.333  12.325   7.409
 4292POPC   C1B57031  17.308  11.722   6.129
 4292POPC   C2B57032  17.186  11.765   6.562
 4292POPC   C3B57033  17.350  11.917   6.955
 4292POPC   C4B57034  17.595  11.849   7.334
 4293POPC   NC357035  20.618  11.376   5.437
 4293POPC   PO457036  20.958  10.739   5.475
 4293POPC   GL157037  20.803  10.993   5.844
 4293POPC   GL257038  20.869  11.358   5.883
 4293POPC   C1A57039  20.749  11.107   6.312
 4293POPC   D2A57040  20.713  11.439   6.635
 4293POPC   C3A57041  20.621  11.205   7.001
 4293POPC   C4A57042  20.791  11.123   7.406
 4293POPC   C1B57043  20.478  11.494   6.118
 4293POPC   C2B57044  20.386  11.829   6.406
 4293POPC   C3B57045  20.403  11.883   6.838
 4293POPC   C4B57046  20.536  11.658   7.207
 4294POPC   NC357047  40.549  23.091   5.410
 4294POPC   PO457048  41.271  23.141   5.396
 4294POPC   GL157049  40.903  23.082   5.779
 4294POPC   GL257050  41.002  22.786   6.032
 4294POPC   C1A57051  40.623  23.095   6.163
 4294POPC   D2A57052  40.716  22.853   6.558
 4294POPC   C3A57053  40.653  23.032   6.952
 4294POPC   C4A57054  40.890  23.203   7.262
 4294POPC   C1B57055  40.581  22.589   6.136
 4294POPC   C2B57056  40.323  22.500   6.507
 4294POPC   C3B57057  40.429  22.575   6.932
 4294POPC   C4B57058  40.899  22.588   7.011
 4295POPC   NC357059  34.564   4.549   5.468
 4295POPC   PO457060  33.917   4.587   5.185
 4295POPC   GL157061  33.750   4.467   5.649
 4295POPC   GL257062  34.093   4.469   5.738
 4295POPC   C1A57063  33.660   4.208   6.091
 4295POPC   D2A57064  33.512   4.091   6.561
 4295POPC   C3A57065  33.745   4.206   6.971
 4295POPC   C4A57066  33.804   4.103   7.388
 4295POPC   C1B57067  33.905   4.650   6.125
 4295POPC   C2B57068  33.832   4.509   6.549
 4295POPC   C3B57069  33.892   4.704   6.973
 4295POPC   C4B57070  34.064   4.589   7.411
 4296POPC   NC357071  15.605  32.145   5.515
 4296POPC   PO457072  14.982  32.378   5.707
 4296POPC   GL157073  15.354  32.244   5.962
 4296POPC   GL257074  15.427  31.882   5.922
 4296POPC   C1A57075  15.519  32.415   6.347
 4296POPC   D2A57076  15.319  32.594   6.698
 4296POPC   C3A57077  15.445  32.481   7.072
 4296POPC   C4A57078  15.323  32.377   7.489
 4296POPC   C1B57079  15.558  31.911   6.358
 4296POPC   C2B57080  15.462  31.981   6.802
 4296POPC   C3B57081  15.421  31.945   7.255
 4296POPC   C4B57082  15.391  31.928   7.755
 4297POPC   NC357083  15.050  43.325   5.462
 4297POPC   PO457084  15.491  42.876   5.402
 4297POPC   GL157085  15.110  42.852   5.694
 4297POPC   GL257086  15.027  43.162   5.936
 4297POPC   C1A57087  15.105  42.709   6.126
 4297POPC   D2A57088  15.084  43.013   6.472
 4297POPC   C3A57089  15.252  42.835   6.853
 4297POPC   C4A57090  15.158  42.756   7.290
 4297POPC   C1B57091  14.769  43.384   6.253
 4297POPC   C2B57092  14.694  43.347   6.703
 4297POPC   C3B57093  14.910  43.155   7.076
 4297POPC   C4B57094  14.887  43.131   7.549
 4298POPC   NC357095   4.251   8.076   5.423
 4298POPC   PO457096   4.536   7.437   5.499
 4298POPC   GL157097   4.381   7.517   5.861
 4298POPC   GL257098   4.015   7.599   5.701
 4298POPC   C1A57099   4.368   7.166   6.203
 4298POPC   D2A57100   4.542   6.908   6.522
 4298POPC   C3A57101   4.411   7.138   6.854
 4298POPC   C4A57102   4.619   7.195   7.218
 4298POPC   C1B57103   3.984   7.513   6.143
 4298POPC   C2B57104   4.295   7.641   6.429
 4298POPC   C3B57105   4.320   7.646   6.857
 4298POPC   C4B57106   4.159   7.434   7.199
 4299POPC   NC357107   3.799  39.329   5.415
 4299POPC   PO457108   3.234  39.414   5.126
 4299POPC   GL157109   3.370  39.256   5.641
 4299POPC   GL257110   3.110  39.227   5.877
 4299POPC   C1A57111   3.632  39.358   6.071
 4299POPC   D2A57112   3.825  39.489   6.504
 4299POPC   C3A57113   3.801  39.333   6.924
 4299POPC   C4A57114   3.635  39.075   7.243
 4299POPC   C1B57115   3.188  39.099   6.259
 4299POPC   C2B57116   3.092  39.304   6.613
 4299POPC   C3B57117   3.294  39.402   6.954
 4299POPC   C4B57118   3.504  39.564   7.292
 4300POPC   NC357119   5.171  33.108   5.311
 4300POPC   PO457120   4.561  33.076   5.451
 4300POPC   GL157121   4.925  33.109   5.758
 4300POPC   GL257122   5.291  33.304   5.763
 4300POPC   C1A57123   5.173  32.864   6.100
 4300POPC   D2A57124   5.217  32.726   6.558
 4300POPC   C3A57125   5.207  32.969   6.968
 4300POPC   C4A57126   5.350  32.952   7.384
 4300POPC   C1B57127   5.084  33.366   6.150
 4300POPC   C2B57128   5.209  33.260   6.545
 4300POPC   C3B57129   5.057  33.442   6.917
 4300POPC   C4B57130   5.038  33.358   7.334
 4301POPC   NC357131  18.349   1.545   5.409
 4301POPC   PO457132  18.400   2.179   5.241
 4301POPC   GL157133  18.346   2.115   5.681
 4301POPC   GL257134  18.137   1.840   5.800
 4301POPC   C1A57135  18.440   2.110   6.117
 4301POPC   D2A57136  18.256   2.234   6.495
 4301POPC   C3A57137  18.328   2.083   6.905
 4301POPC   C4A57138  18.309   2.310   7.284
 4301POPC   C1B57139  18.179   1.680   6.236
 4301POPC   C2B57140  18.298   1.597   6.660
 4301POPC   C3B57141  18.129   1.655   7.065
 4301POPC   C4B57142  18.264   1.811   7.442
 4302POPC   NC357143  28.352  43.460   5.497
 4302POPC   PO457144  28.600  42.839   5.766
 4302POPC   GL157145  28.398  43.163   5.906
 4302POPC   GL257146  28.708  43.343   5.840
 4302POPC   C1A57147  28.292  43.309   6.304
 4302POPC   D2A57148  28.016  43.313   6.646
 4302POPC   C3A57149  28.150  43.098   7.018
 4302POPC   C4A57150  28.570  43.125   7.202
 4302POPC   C1B57151  28.740  43.593   6.207
 4302POPC   C2B57152  28.606  43.731   6.581
 4302POPC   C3B57153  28.747  43.569   6.961
 4302POPC   C4B57154  28.582  43.637   7.339
 4303POPC   NC357155   0.351  37.114   5.391
 4303POPC   PO457156   0.851  36.874   5.662
 4303POPC   GL157157   0.481  36.887   5.851
 4303POPC   GL257158   0.520  37.266   5.844
 4303POPC   C1A57159   0.401  36.636   6.232
 4303POPC   D2A57160   0.216  36.552   6.649
 4303POPC   C3A57161   0.461  36.675   7.021
 4303POPC   C4A57162   0.375  36.772   7.448
 4303POPC   C1B57163   0.665  37.150   6.233
 4303POPC   C2B57164   0.459  37.037   6.586
 4303POPC   C3B57165   0.640  37.203   6.923
 4303POPC   C4B57166   0.478  37.251   7.282
 4304POPC   NC357167  37.492  37.091   5.524
 4304POPC   PO457168  37.716  36.545   5.468
 4304POPC   GL157169  37.625  36.753   5.870
 4304POPC   GL257170  37.923  36.963   5.913
 4304POPC   C1A57171  37.571  36.924   6.300
 4304POPC   D2A57172  37.962  36.998   6.574
 4304POPC   C3A57173  37.913  36.863   7.002
 4304POPC   C4A57174  37.962  36.841   7.436
 4304POPC   C1B57175  37.846  37.330   6.194
 4304POPC   C2B57176  37.619  37.402   6.585
 4304POPC   C3B57177  37.562  37.252   7.008
 4304POPC   C4B57178  37.743  37.290   7.419
 4305POPC   NC357179  39.131  41.551   5.385
 4305POPC   PO457180  39.376  42.151   5.333
 4305POPC   GL157181  39.489  41.776   5.697
 4305POPC   GL257182  39.525  41.368   5.703
 4305POPC   C1A57183  39.288  41.594   6.109
 4305POPC   D2A57184  39.164  41.333   6.499
 4305POPC   C3A57185  39.069  41.561   6.904
 4305POPC   C4A57186  39.352  41.744   7.209
 4305POPC   C1B57187  39.684  41.284   6.135
 4305POPC   C2B57188  39.692  41.535   6.481
 4305POPC   C3B57189  39.665  41.496   6.901
 4305POPC   C4B57190  39.831  41.589   7.306
 4306POPC   NC357191   4.457  31.217   5.516
 4306POPC   PO457192   4.311  30.588   5.184
 4306POPC   GL157193   4.213  30.669   5.679
 4306POPC   GL257194   4.521  30.753   5.823
 4306POPC   C1A57195   4.206  30.856   6.187
 4306POPC   D2A57196   4.532  30.749   6.570
 4306POPC   C3A57197   4.396  30.702   7.011
 4306POPC   C4A57198   4.000  30.731   7.150
 4306POPC   C1B57199   4.366  30.393   6.086
 4306POPC   C2B57200   4.317  30.278   6.503
 4306POPC   C3B57201   4.553  30.238   6.878
 4306POPC   C4B57202   4.796  30.369   7.242
 4307POPC   NC357203  30.115  44.865   5.420
 4307POPC   PO457204  29.799  44.314   5.311
 4307POPC   GL157205  29.890  44.541   5.764
 4307POPC   GL257206  30.223  44.687   5.865
 4307POPC   C1A57207  29.841  44.718   6.213
 4307POPC   D2A57208  29.746  44.613   6.653
 4307POPC   C3A57209  29.969  44.499   7.040
 4307POPC   C4A57210  29.837  44.433   7.471
 4307POPC   C1B57211  30.351  44.783   6.268
 4307POPC   C2B57212  30.221  44.886   6.688
 4307POPC   C3B57213  30.119   0.003   7.089
 4307POPC   C4B57214  30.169  44.827   7.507
 4308POPC   NC357215  43.948  32.845   5.062
 4308POPC   PO457216  43.678  33.394   5.416
 4308POPC   GL157217  43.840  33.183   5.735
 4308POPC   GL257218  43.632  32.966   5.861
 4308POPC   C1A57219  44.025  33.204   6.152
 4308POPC   D2A57220  43.968  33.034   6.532
 4308POPC   C3A57221  44.153  32.983   6.921
 4308POPC   C4A57222  44.123  32.720   7.292
 4308POPC   C1B57223  43.534  33.347   6.126
 4308POPC   C2B57224  43.677  33.466   6.534
 4308POPC   C3B57225  43.732  33.276   6.911
 4308POPC   C4B57226  43.751  33.066   7.254
 4309POPC   NC357227  32.606  44.796   5.543
 4309POPC   PO457228  31.988  44.522   5.312
 4309POPC   GL157229  32.100  44.634   5.745
 4309POPC   GL257230  32.414  44.553   5.943
 4309POPC   C1A57231  31.986  44.707   6.178
 4309POPC   D2A57232  32.221  44.494   6.501
 4309POPC   C3A57233  32.183  44.637   6.906
 4309POPC   C4A57234  31.975  44.606   7.261
 4309POPC   C1B57235  32.537  44.208   6.198
 4309POPC   C2B57236  32.711  44.310   6.601
 4309POPC   C3B57237  32.616  44.376   7.020
 4309POPC   C4B57238  32.501  44.613   7.408
 4310POPC   NC357239  42.306   4.521   5.523
 4310POPC   PO457240  42.573   5.134   5.313
 4310POPC   GL157241  42.238   5.190   5.699
 4310POPC   GL257242  42.080   4.868   5.839
 4310POPC   C1A57243  42.232   5.221   6.203
 4310POPC   D2A57244  42.446   5.020   6.606
 4310POPC   C3A57245  42.514   5.164   7.058
 4310POPC   C4A57246  42.179   5.397   7.273
 4310POPC   C1B57247  42.143   4.556   6.187
 4310POPC   C2B57248  42.231   4.534   6.636
 4310POPC   C3B57249  42.110   4.819   6.981
 4310POPC   C4B57250  42.226   4.888   7.417
 4311POPC   NC357251  41.819  19.579   5.557
 4311POPC   PO457252  41.375  20.034   5.324
 4311POPC   GL157253  41.386  19.814   5.764
 4311POPC   GL257254  41.739  19.883   5.935
 4311POPC   C1A57255  41.331  19.967   6.200
 4311POPC   D2A57256  41.113  19.973   6.602
 4311POPC   C3A57257  41.365  20.060   6.978
 4311POPC   C4A57258  41.557  19.881   7.367
 4311POPC   C1B57259  42.009  19.702   6.239
 4311POPC   C2B57260  42.106  19.809   6.670
 4311POPC   C3B57261  42.048  19.745   7.123
 4311POPC   C4B57262  42.010  19.713   7.564
 4312POPC   NC357263  29.532   0.573   5.524
 4312POPC   PO457264  28.954   0.658   5.694
 4312POPC   GL157265  29.295   0.631   5.988
 4312POPC   GL257266  29.437   0.311   5.945
 4312POPC   C1A57267  29.191   0.500   6.404
 4312POPC   D2A57268  28.902   0.156   6.522
 4312POPC   C3A57269  28.768   0.135   6.956
 4312POPC   C4A57270  29.081   0.004   7.258
 4312POPC   C1B57271  29.543   0.118   6.323
 4312POPC   C2B57272  29.720   0.118   6.739
 4312POPC   C3B57273  29.470   0.301   7.057
 4312POPC   C4B57274  29.440   0.682   7.336
 4313POPC   NC357275  28.312  16.205   5.682
 4313POPC   PO457276  28.899  16.290   5.539
 4313POPC   GL157277  28.760  15.994   5.889
 4313POPC   GL257278  28.549  15.675   5.845
 4313POPC   C1A57279  28.699  15.796   6.335
 4313POPC   D2A57280  28.635  15.592   6.767
 4313POPC   C3A57281  28.594  15.865   7.167
 4313POPC   C4A57282  28.654  15.737   7.631
 4313POPC   C1B57283  28.224  15.797   6.165
 4313POPC   C2B57284  28.273  15.929   6.598
 4313POPC   C3B57285  28.107  15.946   7.012
 4313POPC   C4B57286  28.158  16.299   7.298
 4314POPC   NC357287  26.795  42.233   5.237
 4314POPC   PO457288  27.273  42.675   5.328
 4314POPC   GL157289  27.002  42.502   5.653
 4314POPC   GL257290  26.973  42.155   5.782
 4314POPC   C1A57291  26.721  42.533   6.026
 4314POPC   D2A57292  26.860  42.622   6.441
 4314POPC   C3A57293  26.663  42.518   6.827
 4314POPC   C4A57294  26.802  42.600   7.250
 4314POPC   C1B57295  27.110  42.168   6.236
 4314POPC   C2B57296  27.216  42.063   6.692
 4314POPC   C3B57297  26.955  42.163   7.069
 4314POPC   C4B57298  26.482  42.144   7.133
 4315POPC   NC357299   3.409   9.116   5.584
 4315POPC   PO457300   3.673   9.675   5.199
 4315POPC   GL157301   3.605   9.608   5.632
 4315POPC   GL257302   3.842   9.355   5.634
 4315POPC   C1A57303   3.454   9.736   6.059
 4315POPC   D2A57304   3.175   9.828   6.401
 4315POPC   C3A57305   3.312   9.814   6.823
 4315POPC   C4A57306   3.502   9.871   7.229
 4315POPC   C1B57307   3.848   9.392   6.062
 4315POPC   C2B57308   3.823   9.582   6.429
 4315POPC   C3B57309   3.761   9.588   6.829
 4315POPC   C4B57310   3.613   9.342   7.189
 4316POPC   NC357311   7.922   5.692   5.399
 4316POPC   PO457312   8.458   6.048   5.509
 4316POPC   GL157313   8.277   5.754   5.872
 4316POPC   GL257314   8.013   5.500   5.869
 4316POPC   C1A57315   8.155   5.731   6.335
 4316POPC   D2A57316   7.862   5.951   6.638
 4316POPC   C3A57317   8.038   6.104   7.056
 4316POPC   C4A57318   8.347   5.914   7.367
 4316POPC   C1B57319   7.901   5.299   6.256
 4316POPC   C2B57320   7.875   5.435   6.676
 4316POPC   C3B57321   8.025   5.595   7.049
 4316POPC   C4B57322   7.843   5.798   7.417
 4317POPC   NC357323  37.983  39.459   5.451
 4317POPC   PO457324  37.798  40.115   5.346
 4317POPC   GL157325  37.697  39.859   5.728
 4317POPC   GL257326  38.036  39.849   5.914
 4317POPC   C1A57327  37.577  39.781   6.185
 4317POPC   D2A57328  37.705  39.650   6.624
 4317POPC   C3A57329  37.569  39.906   7.009
 4317POPC   C4A57330  37.467  39.891   7.462
 4317POPC   C1B57331  38.226  40.227   6.177
 4317POPC   C2B57332  38.215  40.407   6.598
 4317POPC   C3B57333  37.995  40.234   6.934
 4317POPC   C4B57334  37.846  40.214   7.351
 4318POPC   NC357335  13.152  39.551   5.163
 4318POPC   PO457336  13.793  39.240   5.269
 4318POPC   GL157337  13.794  39.165   5.734
 4318POPC   GL257338  13.456  39.296   5.889
 4318POPC   C1A57339  13.889  39.346   6.150
 4318POPC   D2A57340  13.818  39.484   6.545
 4318POPC   C3A57341  13.930  39.179   6.854
 4318POPC   C4A57342  13.718  39.020   7.198
 4318POPC   C1B57343  13.425  39.658   6.205
 4318POPC   C2B57344  13.418  39.804   6.614
 4318POPC   C3B57345  13.435  39.542   6.996
 4318POPC   C4B57346  13.355  39.413   7.429
 4319POPC   NC357347  17.380  31.728   5.274
 4319POPC   PO457348  17.800  32.254   5.402
 4319POPC   GL157349  17.784  32.388   5.847
 4319POPC   GL257350  18.040  32.195   5.930
 4319POPC   C1A57351  17.590  32.484   6.274
 4319POPC   D2A57352  17.528  32.215   6.651
 4319POPC   C3A57353  17.410  32.364   7.066
 4319POPC   C4A57354  17.212  32.480   7.437
 4319POPC   C1B57355  17.920  31.863   6.206
 4319POPC   C2B57356  17.804  31.788   6.636
 4319POPC   C3B57357  17.700  31.936   7.076
 4319POPC   C4B57358  17.720  31.736   7.537
 4320POPC   NC357359  11.502  20.175   5.511
 4320POPC   PO457360  11.039  20.745   5.594
 4320POPC   GL157361  11.365  20.615   5.828
 4320POPC   GL257362  11.558  20.884   5.708
 4320POPC   C1A57363  11.291  20.543   6.278
 4320POPC   D2A57364  11.155  20.725   6.682
 4320POPC   C3A57365  11.137  20.422   6.996
 4320POPC   C4A57366  11.346  20.325   7.381
 4320POPC   C1B57367  11.555  20.985   6.154
 4320POPC   C2B57368  11.633  20.817   6.574
 4320POPC   C3B57369  11.563  20.735   7.028
 4320POPC   C4B57370  11.816  20.376   7.162
 4321POPC   NC357371  30.768   8.436   5.381
 4321POPC   PO457372  30.358   7.826   5.379
 4321POPC   GL157373  30.462   8.073   5.753
 4321POPC   GL257374  30.828   8.139   5.795
 4321POPC   C1A57375  30.558   8.050   6.207
 4321POPC   D2A57376  30.738   8.167   6.589
 4321POPC   C3A57377  30.520   8.165   6.966
 4321POPC   C4A57378  30.516   7.827   7.249
 4321POPC   C1B57379  31.077   8.250   6.185
 4321POPC   C2B57380  31.115   8.489   6.603
 4321POPC   C3B57381  31.057   8.235   7.000
 4321POPC   C4B57382  30.904   8.117   7.430
 4322POPC   NC357383  44.156  19.973   5.534
 4322POPC   PO457384  44.640  19.568   5.322
 4322POPC   GL157385  44.671  19.627   5.772
 4322POPC   GL257386  44.309  19.548   5.790
 4322POPC   C1A57387  44.834  19.902   6.156
 4322POPC   D2A57388  44.691  20.044   6.596
 4322POPC   C3A57389  44.913  19.946   7.003
 4322POPC   C4A57390   0.091  19.554   7.203
 4322POPC   C1B57391  44.361  19.692   6.190
 4322POPC   C2B57392  44.252  19.521   6.571
 4322POPC   C3B57393  44.490  19.658   6.889
 4322POPC   C4B57394  44.599  19.625   7.275
 4323POPC   NC357395  18.295   0.815   5.019
 4323POPC   PO457396  18.472   0.336   5.499
 4323POPC   GL157397  18.350   0.392   5.878
 4323POPC   GL257398  18.073   0.590   5.835
 4323POPC   C1A57399  18.364   0.606   6.264
 4323POPC   D2A57400  18.403   0.409   6.648
 4323POPC   C3A57401  18.431   0.620   7.022
 4323POPC   C4A57402  18.390   0.384   7.387
 4323POPC   C1B57403  17.923   0.307   6.161
 4323POPC   C2B57404  17.956   0.136   6.600
 4323POPC   C3B57405  17.997   0.338   7.007
 4323POPC   C4B57406  17.977   0.687   7.336
 4324POPC   NC357407  24.307  42.586   5.342
 4324POPC   PO457408  24.696  41.997   5.464
 4324POPC   GL157409  24.570  42.351   5.742
 4324POPC   GL257410  24.190  42.338   5.763
 4324POPC   C1A57411  24.593  42.323   6.199
 4324POPC   D2A57412  24.728  41.992   6.505
 4324POPC   C3A57413  24.654  42.072   6.942
 4324POPC   C4A57414  24.844  42.130   7.355
 4324POPC   C1B57415  24.070  42.190   6.136
 4324POPC   C2B57416  24.214  42.121   6.531
 4324POPC   C3B57417  24.135  42.282   6.910
 4324POPC   C4B57418  24.322  42.297   7.288
 4325POPC   NC357419  22.270   0.170   5.400
 4325POPC   PO457420  21.908   0.679   5.542
 4325POPC   GL157421  21.951   0.565   5.948
 4325POPC   GL257422  21.997   0.236   5.878
 4325POPC   C1A57423  22.165   0.400   6.328
 4325POPC   D2A57424  22.324   0.250   6.716
 4325POPC   C3A57425  22.313   0.563   7.049
 4325POPC   C4A57426  22.343   1.012   7.136
 4325POPC   C1B57427  21.776   0.070   6.226
 4325POPC   C2B57428  21.952  44.923   6.604
 4325POPC   C3B57429  21.871   0.010   7.023
 4325POPC   C4B57430  22.110   0.188   7.345
 4326POPC   NC357431  39.624  42.841   5.276
 4326POPC   PO457432  40.102  43.307   5.363
 4326POPC   GL157433  40.035  43.202   5.794
 4326POPC   GL257434  39.863  42.882   5.835
 4326POPC   C1A57435  40.256  43.046   6.161
 4326POPC   D2A57436  40.222  42.837   6.544
 4326POPC   C3A57437  40.264  43.051   6.923
 4326POPC   C4A57438  40.132  42.887   7.282
 4326POPC   C1B57439  39.770  42.885   6.246
 4326POPC   C2B57440  39.681  42.920   6.657
 4326POPC   C3B57441  39.779  43.154   6.999
 4326POPC   C4B57442  39.723  43.279   7.401
 4327POPC   NC357443  43.324  25.025   5.421
 4327POPC   PO457444  42.755  25.312   5.411
 4327POPC   GL157445  43.045  25.359   5.735
 4327POPC   GL257446  42.979  25.062   5.891
 4327POPC   C1A57447  43.175  25.592   6.094
 4327POPC   D2A57448  43.253  25.452   6.533
 4327POPC   C3A57449  42.975  25.541   6.902
 4327POPC   C4A57450  43.019  25.384   7.312
 4327POPC   C1B57451  43.372  25.103   6.137
 4327POPC   C2B57452  43.564  25.012   6.565
 4327POPC   C3B57453  43.668  24.903   7.022
 4327POPC   C4B57454  43.414  24.959   7.429
 4328POPC   NC357455   3.365  40.850   5.306
 4328POPC   PO457456   3.733  40.258   5.322
 4328POPC   GL157457   3.521  40.505   5.715
 4328POPC   GL257458   3.469  40.893   5.811
 4328POPC   C1A57459   3.438  40.557   6.199
 4328POPC   D2A57460   3.243  40.430   6.621
 4328POPC   C3A57461   3.358  40.545   7.096
 4328POPC   C4A57462   3.676  40.548   7.448
 4328POPC   C1B57463   3.331  41.059   6.262
 4328POPC   C2B57464   3.297  40.944   6.724
 4328POPC   C3B57465   3.334  41.082   7.177
 4328POPC   C4B57466   3.270  41.256   7.622
 4329POPC   NC357467  35.745  41.248   5.488
 4329POPC   PO457468  36.102  41.692   5.158
 4329POPC   GL157469  36.269  41.471   5.582
 4329POPC   GL257470  35.999  41.499   5.835
 4329POPC   C1A57471  36.436  41.470   6.067
 4329POPC   D2A57472  36.217  41.554   6.472
 4329POPC   C3A57473  36.396  41.690   6.886
 4329POPC   C4A57474  36.228  41.732   7.317
 4329POPC   C1B57475  35.794  41.237   6.144
 4329POPC   C2B57476  35.739  41.377   6.556
 4329POPC   C3B57477  35.956  41.390   6.924
 4329POPC   C4B57478  35.875  41.173   7.305
 4330POPC   NC357479   8.442  20.283   5.320
 4330POPC   PO457480   8.554  20.959   5.125
 4330POPC   GL157481   8.482  20.737   5.617
 4330POPC   GL257482   8.488  20.376   5.810
 4330POPC   C1A57483   8.313  20.762   6.087
 4330POPC   D2A57484   8.115  20.577   6.483
 4330POPC   C3A57485   8.279  20.740   6.869
 4330POPC   C4A57486   8.045  20.935   7.206
 4330POPC   C1B57487   8.413  20.263   6.223
 4330POPC   C2B57488   8.593  20.179   6.614
 4330POPC   C3B57489   8.504  20.262   7.029
 4330POPC   C4B57490   8.207  20.456   7.297
 4331POPC   NC357491   6.409  10.748   5.286
 4331POPC   PO457492   7.014  10.422   5.246
 4331POPC   GL157493   6.681  10.374   5.613
 4331POPC   GL257494   6.868  10.202   5.861
 4331POPC   C1A57495   6.441  10.409   6.057
 4331POPC   D2A57496   6.219  10.611   6.445
 4331POPC   C3A57497   6.422  10.623   6.853
 4331POPC   C4A57498   6.540  10.324   7.173
 4331POPC   C1B57499   7.006  10.414   6.253
 4331POPC   C2B57500   6.913  10.695   6.620
 4331POPC   C3B57501   6.940  10.653   7.074
 4331POPC   C4B57502   7.050  10.222   7.226
 4332POPC   NC357503  42.155  28.911   5.408
 4332POPC   PO457504  42.644  29.420   5.512
 4332POPC   GL157505  42.513  29.102   5.784
 4332POPC   GL257506  42.159  29.200   5.837
 4332POPC   C1A57507  42.452  29.097   6.246
 4332POPC   D2A57508  42.153  29.329   6.510
 4332POPC   C3A57509  42.263  29.517   6.905
 4332POPC   C4A57510  42.313  29.390   7.322
 4332POPC   C1B57511  42.026  28.837   6.099
 4332POPC   C2B57512  42.099  28.760   6.554
 4332POPC   C3B57513  42.106  29.029   6.938
 4332POPC   C4B57514  42.066  28.938   7.369
 4333POPC   NC357515   2.965  37.602   5.336
 4333POPC   PO457516   2.389  37.904   5.581
 4333POPC   GL157517   2.642  37.631   5.785
 4333POPC   GL257518   2.981  37.794   5.807
 4333POPC   C1A57519   2.649  37.651   6.228
 4333POPC   D2A57520   2.505  37.444   6.589
 4333POPC   C3A57521   2.575  37.640   6.961
 4333POPC   C4A57522   2.495  37.948   7.215
 4333POPC   C1B57523   3.046  37.380   5.986
 4333POPC   C2B57524   3.045  37.341   6.410
 4333POPC   C3B57525   3.049  37.332   6.824
 4333POPC   C4B57526   2.995  37.490   7.195
 4334POPC   NC357527  20.966  44.205   5.402
 4334POPC   PO457528  21.611  43.943   5.451
 4334POPC   GL157529  21.539  43.741   5.838
 4334POPC   GL257530  21.190  43.796   5.980
 4334POPC   C1A57531  21.558  43.639   6.275
 4334POPC   D2A57532  21.207  43.722   6.526
 4334POPC   C3A57533  21.384  43.720   6.928
 4334POPC   C4A57534  21.571  43.671   7.335
 4334POPC   C1B57535  21.035  44.170   6.260
 4334POPC   C2B57536  20.958  44.470   6.591
 4334POPC   C3B57537  20.986  44.260   6.987
 4334POPC   C4B57538  21.063  43.917   7.272
 4335POPC   NC357539  31.472  44.952   5.081
 4335POPC   PO457540  31.689   0.467   5.445
 4335POPC   GL157541  31.335   0.487   5.762
 4335POPC   GL257542  31.372   0.841   5.880
 4335POPC   C1A57543  31.217   0.388   6.227
 4335POPC   D2A57544  31.473   0.302   6.652
 4335POPC   C3A57545  31.344   0.391   7.080
 4335POPC   C4A57546  31.389   0.859   7.138
 4335POPC   C1B57547  31.689   0.629   6.153
 4335POPC   C2B57548  31.899   0.651   6.554
 4335POPC   C3B57549  31.824   0.521   6.984
 4335POPC   C4B57550  31.811   0.742   7.402
 4336POPC   NC357551   7.373  42.693   5.460
 4336POPC   PO457552   7.250  41.949   5.350
 4336POPC   GL157553   7.311  42.231   5.701
 4336POPC   GL257554   7.633  42.214   5.604
 4336POPC   C1A57555   7.362  42.375   6.136
 4336POPC   D2A57556   7.189  42.270   6.545
 4336POPC   C3A57557   7.452  42.342   6.886
 4336POPC   C4A57558   7.450  42.447   7.295
 4336POPC   C1B57559   7.755  42.058   6.026
 4336POPC   C2B57560   7.901  42.300   6.377
 4336POPC   C3B57561   7.944  42.365   6.808
 4336POPC   C4B57562   7.947  42.324   7.250
 4337POPC   NC357563  41.600  26.388   5.426
 4337POPC   PO457564  41.138  25.943   5.335
 4337POPC   GL157565  41.431  26.033   5.742
 4337POPC   GL257566  41.573  26.311   5.919
 4337POPC   C1A57567  41.375  25.872   6.161
 4337POPC   D2A57568  41.134  26.014   6.510
 4337POPC   C3A57569  41.377  25.988   6.910
 4337POPC   C4A57570  41.205  25.861   7.306
 4337POPC   C1B57571  41.816  26.100   6.208
 4337POPC   C2B57572  41.991  26.138   6.624
 4337POPC   C3B57573  41.884  26.155   7.083
 4337POPC   C4B57574  41.647  26.062   7.460
 4338POPC   NC357575  17.649   3.950   5.545
 4338POPC   PO457576  17.350   3.447   5.285
 4338POPC   GL157577  17.325   3.591   5.704
 4338POPC   GL257578  17.463   3.282   5.804
 4338POPC   C1A57579  17.464   3.678   6.154
 4338POPC   D2A57580  17.339   3.419   6.524
 4338POPC   C3A57581  17.539   3.483   6.937
 4338POPC   C4A57582  17.835   3.714   7.129
 4338POPC   C1B57583  17.254   3.073   6.134
 4338POPC   C2B57584  17.307   2.891   6.533
 4338POPC   C3B57585  17.277   3.039   6.913
 4338POPC   C4B57586  17.190   3.268   7.242
 4339POPC   NC357587   3.711  15.356   5.451
 4339POPC   PO457588   3.140  14.965   5.358
 4339POPC   GL157589   3.375  15.093   5.706
 4339POPC   GL257590   3.289  15.462   5.751
 4339POPC   C1A57591   3.606  15.117   6.114
 4339POPC   D2A57592   3.440  14.980   6.524
 4339POPC   C3A57593   3.632  15.021   6.909
 4339POPC   C4A57594   3.684  14.922   7.361
 4339POPC   C1B57595   3.484  15.619   6.144
 4339POPC   C2B57596   3.564  15.472   6.553
 4339POPC   C3B57597   3.541  15.536   6.974
 4339POPC   C4B57598   3.823  15.405   7.260
 4340POPC   NC357599  44.953  17.555   5.507
 4340POPC   PO457600  44.301  17.512   5.458
 4340POPC   GL157601  44.556  17.395   5.843
 4340POPC   GL257602  44.880  17.171   5.828
 4340POPC   C1A57603  44.606  17.636   6.255
 4340POPC   D2A57604  44.536  17.817   6.682
 4340POPC   C3A57605  44.553  17.495   6.996
 4340POPC   C4A57606  44.729  17.602   7.372
 4340POPC   C1B57607   0.069  17.402   6.196
 4340POPC   C2B57608  44.914  17.400   6.624
 4340POPC   C3B57609   0.074  17.318   7.023
 4340POPC   C4B57610   0.207  17.445   7.389
 4341POPC   NC357611  11.163   0.538   5.100
 4341POPC   PO457612  10.528   0.320   5.338
 4341POPC   GL157613  10.612   0.376   5.802
 4341POPC   GL257614  10.307   0.557   5.859
 4341POPC   C1A57615  10.462   0.207   6.223
 4341POPC   D2A57616  10.295   0.334   6.623
 4341POPC   C3A57617  10.586   0.195   6.951
 4341POPC   C4A57618  10.711   0.382   7.310
 4341POPC   C1B57619  10.528   0.719   6.186
 4341POPC   C2B57620  10.434   0.883   6.575
 4341POPC   C3B57621  10.489   0.719   6.967
 4341POPC   C4B57622  10.467   0.824   7.395
 4342POPC   NC357623  27.035   1.566   5.236
 4342POPC   PO457624  26.654   2.137   5.426
 4342POPC   GL157625  26.922   2.073   5.825
 4342POPC   GL257626  26.682   1.935   6.049
 4342POPC   C1A57627  27.145   1.956   6.265
 4342POPC   D2A57628  27.001   1.859   6.677
 4342POPC   C3A57629  27.098   2.019   7.082
 4342POPC   C4A57630  26.845   2.104   7.472
 4342POPC   C1B57631  26.713   2.222   6.419
 4342POPC   C2B57632  26.639   2.188   6.879
 4342POPC   C3B57633  26.509   2.421   7.217
 4342POPC   C4B57634  26.503   2.440   7.681
 4343POPC   NC357635  31.032  41.638   5.469
 4343POPC   PO457636  30.489  41.250   5.268
 4343POPC   GL157637  30.662  41.325   5.727
 4343POPC   GL257638  30.944  41.506   5.952
 4343POPC   C1A57639  30.485  41.445   6.151
 4343POPC   D2A57640  30.337  41.630   6.556
 4343POPC   C3A57641  30.410  41.450   6.942
 4343POPC   C4A57642  30.557  41.553   7.324
 4343POPC   C1B57643  30.906  41.888   6.179
 4343POPC   C2B57644  30.775  41.977   6.557
 4343POPC   C3B57645  30.845  41.716   6.871
 4343POPC   C4B57646  30.917  41.918   7.203
 4344POPC   NC357647  21.569  16.088   5.640
 4344POPC   PO457648  21.084  15.787   5.225
 4344POPC   GL157649  21.369  15.630   5.710
 4344POPC   GL257650  21.297  15.874   6.011
 4344POPC   C1A57651  21.534  15.477   6.174
 4344POPC   D2A57652  21.325  15.750   6.541
 4344POPC   C3A57653  21.200  15.780   6.983
 4344POPC   C4A57654  21.195  16.147   7.284
 4344POPC   C1B57655  21.665  15.971   6.260
 4344POPC   C2B57656  21.804  15.889   6.666
 4344POPC   C3B57657  21.661  16.000   7.101
 4344POPC   C4B57658  21.565  15.934   7.569
 4345POPC   NC357659   8.301  19.338   5.614
 4345POPC   PO457660   7.932  18.967   5.200
 4345POPC   GL157661   8.087  18.906   5.720
 4345POPC   GL257662   7.908  19.148   5.892
 4345POPC   C1A57663   8.187  18.845   6.201
 4345POPC   D2A57664   8.060  18.844   6.674
 4345POPC   C3A57665   8.302  18.950   7.088
 4345POPC   C4A57666   8.195  19.045   7.558
 4345POPC   C1B57667   8.109  19.371   6.278
 4345POPC   C2B57668   8.130  19.372   6.757
 4345POPC   C3B57669   8.153  19.421   7.215
 4345POPC   C4B57670   8.311  19.553   7.624
 4346POPC   NC357671  28.599   2.888   5.372
 4346POPC   PO457672  28.102   2.483   5.455
 4346POPC   GL157673  28.337   2.771   5.792
 4346POPC   GL257674  28.633   3.043   5.840
 4346POPC   C1A57675  28.432   2.789   6.240
 4346POPC   D2A57676  28.211   2.785   6.631
 4346POPC   C3A57677  28.476   2.821   6.957
 4346POPC   C4A57678  28.450   2.736   7.368
 4346POPC   C1B57679  28.940   2.987   6.180
 4346POPC   C2B57680  28.785   3.048   6.604
 4346POPC   C3B57681  28.923   3.028   7.041
 4346POPC   C4B57682  28.737   3.135   7.452
 4347POPC   NC357683  37.366  42.163   5.050
 4347POPC   PO457684  37.846  42.224   5.506
 4347POPC   GL157685  37.744  42.229   5.866
 4347POPC   GL257686  37.742  42.588   5.948
 4347POPC   C1A57687  37.948  42.128   6.232
 4347POPC   D2A57688  38.118  42.183   6.638
 4347POPC   C3A57689  37.884  42.158   7.078
 4347POPC   C4A57690  37.569  42.206   7.438
 4347POPC   C1B57691  37.932  42.622   6.357
 4347POPC   C2B57692  37.949  42.624   6.808
 4347POPC   C3B57693  37.630  42.616   7.117
 4347POPC   C4B57694  37.658  42.709   7.556
 4348POPC   NC357695  25.575  43.696   5.331
 4348POPC   PO457696  24.880  43.602   5.386
 4348POPC   GL157697  25.069  43.918   5.690
 4348POPC   GL257698  24.824  44.149   5.849
 4348POPC   C1A57699  25.306  44.162   6.037
 4348POPC   D2A57700  25.306  44.313   6.493
 4348POPC   C3A57701  25.467  44.060   6.870
 4348POPC   C4A57702  25.277  43.917   7.259
 4348POPC   C1B57703  24.881  43.879   6.231
 4348POPC   C2B57704  25.029  43.809   6.676
 4348POPC   C3B57705  25.076  43.532   7.032
 4348POPC   C4B57706  24.942  43.589   7.458
 4349POPC   NC357707   9.191  20.028   5.439
 4349POPC   PO457708   8.577  19.669   5.451
 4349POPC   GL157709   8.786  19.898   5.741
 4349POPC   GL257710   9.101  19.701   5.821
 4349POPC   C1A57711   8.867  19.981   6.184
 4349POPC   D2A57712   8.922  19.725   6.555
 4349POPC   C3A57713   8.902  19.910   6.956
 4349POPC   C4A57714   8.712  19.830   7.349
 4349POPC   C1B57715   9.330  19.698   6.219
 4349POPC   C2B57716   9.470  19.565   6.602
 4349POPC   C3B57717   9.211  19.481   6.920
 4349POPC   C4B57718   9.211  19.675   7.300
 4350POPC   NC357719  37.149  23.841   5.152
 4350POPC   PO457720  37.792  23.682   5.327
 4350POPC   GL157721  37.831  23.597   5.763
 4350POPC   GL257722  38.124  23.795   5.760
 4350POPC   C1A57723  37.681  23.606   6.203
 4350POPC   D2A57724  37.475  23.645   6.618
 4350POPC   C3A57725  37.601  23.594   7.040
 4350POPC   C4A57726  37.739  23.624   7.460
 4350POPC   C1B57727  38.188  23.689   6.200
 4350POPC   C2B57728  37.958  23.906   6.537
 4350POPC   C3B57729  37.953  23.947   6.952
 4350POPC   C4B57730  38.185  23.647   7.167
 4351POPC   NC357731  20.706  44.935   5.123
 4351POPC   PO457732  20.772  44.488   5.709
 4351POPC   GL157733  20.519  44.698   5.964
 4351POPC   GL257734  20.843  44.815   6.107
 4351POPC   C1A57735  20.373  44.877   6.315
 4351POPC   D2A57736  20.482  44.705   6.683
 4351POPC   C3A57737  20.340  44.841   7.064
 4351POPC   C4A57738  20.361  44.682   7.475
 4351POPC   C1B57739  20.799   0.121   6.408
 4351POPC   C2B57740  20.899  44.976   6.792
 4351POPC   C3B57741  20.836  44.721   7.121
 4351POPC   C4B57742  21.133  44.945   7.335
 4352POPC   NC357743  28.156  30.979   5.492
 4352POPC   PO457744  28.612  30.537   5.432
 4352POPC   GL157745  28.374  30.629   5.805
 4352POPC   GL257746  28.575  30.891   5.920
 4352POPC   C1A57747  28.173  30.743   6.241
 4352POPC   D2A57748  28.101  30.757   6.722
 4352POPC   C3A57749  28.393  30.867   7.083
 4352POPC   C4A57750  28.297  30.902   7.532
 4352POPC   C1B57751  28.668  30.526   6.203
 4352POPC   C2B57752  28.721  30.372   6.593
 4352POPC   C3B57753  28.501  30.378   6.970
 4352POPC   C4B57754  28.405  30.419   7.389
 4353POPC   NC357755  14.516  37.362   5.333
 4353POPC   PO457756  14.053  37.806   5.309
 4353POPC   GL157757  14.275  37.716   5.720
 4353POPC   GL257758  14.413  38.022   5.790
 4353POPC   C1A57759  14.166  37.808   6.197
 4353POPC   D2A57760  13.977  37.642   6.583
 4353POPC   C3A57761  14.113  37.791   6.950
 4353POPC   C4A57762  14.327  37.632   7.313
 4353POPC   C1B57763  14.669  37.772   6.074
 4353POPC   C2B57764  14.630  37.664   6.500
 4353POPC   C3B57765  14.619  37.824   6.916
 4353POPC   C4B57766  14.756  37.937   7.317
 4354POPC   NC357767  27.784  30.171   5.439
 4354POPC   PO457768  27.666  30.856   5.499
 4354POPC   GL157769  27.541  30.559   5.816
 4354POPC   GL257770  27.877  30.469   5.849
 4354POPC   C1A57771  27.325  30.575   6.254
 4354POPC   D2A57772  27.266  30.697   6.722
 4354POPC   C3A57773  27.484  30.584   7.128
 4354POPC   C4A57774  27.432  30.556   7.607
 4354POPC   C1B57775  27.762  30.333   6.254
 4354POPC   C2B57776  27.702  30.409   6.668
 4354POPC   C3B57777  27.959  30.362   7.029
 4354POPC   C4B57778  27.915  30.539   7.414
 4355POPC   NC357779  37.741  23.196   5.375
 4355POPC   PO457780  37.424  22.554   5.433
 4355POPC   GL157781  37.654  22.834   5.710
 4355POPC   GL257782  37.915  22.751   5.938
 4355POPC   C1A57783  37.521  23.092   6.061
 4355POPC   D2A57784  37.651  22.931   6.463
 4355POPC   C3A57785  37.537  23.126   6.821
 4355POPC   C4A57786  37.589  23.128   7.255
 4355POPC   C1B57787  38.012  23.179   6.175
 4355POPC   C2B57788  37.944  23.380   6.604
 4355POPC   C3B57789  38.031  23.185   7.020
 4355POPC   C4B57790  38.028  23.206   7.505
 4356POPC   NC357791  30.432  13.302   5.434
 4356POPC   PO457792  30.732  12.763   5.152
 4356POPC   GL157793  30.653  12.826   5.621
 4356POPC   GL257794  30.777  12.493   5.629
 4356POPC   C1A57795  30.447  12.971   6.042
 4356POPC   D2A57796  30.620  12.946   6.480
 4356POPC   C3A57797  30.461  13.078   6.882
 4356POPC   C4A57798  30.665  13.074   7.303
 4356POPC   C1B57799  30.735  12.546   6.077
 4356POPC   C2B57800  30.763  12.445   6.508
 4356POPC   C3B57801  30.752  12.652   6.902
 4356POPC   C4B57802  30.959  12.576   7.258
 4357POPC   NC357803  41.426  28.210   5.062
 4357POPC   PO457804  41.903  28.505   5.484
 4357POPC   GL157805  41.675  28.323   5.843
 4357POPC   GL257806  41.333  28.378   5.920
 4357POPC   C1A57807  41.694  28.477   6.282
 4357POPC   D2A57808  41.583  28.581   6.690
 4357POPC   C3A57809  41.796  28.604   7.056
 4357POPC   C4A57810  41.718  28.221   7.220
 4357POPC   C1B57811  41.230  28.710   6.235
 4357POPC   C2B57812  41.187  28.913   6.646
 4357POPC   C3B57813  41.263  28.711   7.059
 4357POPC   C4B57814  41.320  28.481   7.442
 4358POPC   NC357815   9.841  38.184   5.422
 4358POPC   PO457816  10.100  38.818   5.702
 4358POPC   GL157817   9.786  38.514   5.853
 4358POPC   GL257818   9.495  38.237   5.809
 4358POPC   C1A57819   9.727  38.406   6.266
 4358POPC   D2A57820   9.578  38.633   6.610
 4358POPC   C3A57821   9.898  38.657   6.894
 4358POPC   C4A57822   9.764  38.662   7.283
 4358POPC   C1B57823   9.465  37.982   6.196
 4358POPC   C2B57824   9.560  37.948   6.634
 4358POPC   C3B57825   9.560  38.250   6.991
 4358POPC   C4B57826   9.501  38.250   7.456
 4359POPC   NC357827  13.948   0.220   5.336
 4359POPC   PO457828  14.601   0.236   5.501
 4359POPC   GL157829  14.366   0.485   5.832
 4359POPC   GL257830  14.036   0.595   5.763
 4359POPC   C1A57831  14.346   0.450   6.298
 4359POPC   D2A57832  14.736   0.374   6.598
 4359POPC   C3A57833  14.626   0.514   7.025
 4359POPC   C4A57834  14.205   0.452   7.223
 4359POPC   C1B57835  14.058   0.884   6.124
 4359POPC   C2B57836  14.057   0.836   6.567
 4359POPC   C3B57837  14.229   0.916   6.979
 4359POPC   C4B57838  14.083   0.911   7.413
 4360POPC   NC357839  15.715   2.491   5.456
 4360POPC   PO457840  16.030   1.906   5.409
 4360POPC   GL157841  16.108   2.047   5.820
 4360POPC   GL257842  15.777   2.180   5.860
 4360POPC   C1A57843  15.952   1.866   6.238
 4360POPC   D2A57844  15.687   1.972   6.611
 4360POPC   C3A57845  15.932   1.934   6.991
 4360POPC   C4A57846  16.381   1.863   7.084
 4360POPC   C1B57847  15.787   2.372   6.268
 4360POPC   C2B57848  15.528   2.486   6.585
 4360POPC   C3B57849  15.649   2.361   6.964
 4360POPC   C4B57850  15.722   2.419   7.365
 4361POPC   NC357851   8.462  12.990   5.452
 4361POPC   PO457852   7.786  12.659   5.376
 4361POPC   GL157853   8.106  12.701   5.677
 4361POPC   GL257854   8.059  13.081   5.792
 4361POPC   C1A57855   8.266  12.731   6.086
 4361POPC   D2A57856   7.996  12.948   6.374
 4361POPC   C3A57857   8.037  12.736   6.762
 4361POPC   C4A57858   8.142  12.755   7.176
 4361POPC   C1B57859   8.400  13.220   6.112
 4361POPC   C2B57860   8.494  12.977   6.502
 4361POPC   C3B57861   8.477  13.068   6.914
 4361POPC   C4B57862   8.481  13.061   7.360
 4362POPC   NC357863   9.073  39.674   5.450
 4362POPC   PO457864   8.867  40.281   5.537
 4362POPC   GL157865   9.107  40.042   5.826
 4362POPC   GL257866   8.830  39.834   5.867
 4362POPC   C1A57867   9.199  40.080   6.265
 4362POPC   D2A57868   8.987  40.018   6.653
 4362POPC   C3A57869   9.024  40.233   7.033
 4362POPC   C4A57870   8.633  40.424   7.073
 4362POPC   C1B57871   8.816  39.708   6.261
 4362POPC   C2B57872   8.574  39.673   6.613
 4362POPC   C3B57873   8.620  39.867   7.011
 4362POPC   C4B57874   8.774  39.679   7.394
 4363POPC   NC357875   0.728  20.152   5.443
 4363POPC   PO457876   1.402  19.814   5.405
 4363POPC   GL157877   1.330  19.909   5.850
 4363POPC   GL257878   1.342  19.587   5.889
 4363POPC   C1A57879   1.213  19.758   6.325
 4363POPC   D2A57880   0.872  19.671   6.609
 4363POPC   C3A57881   0.992  19.797   7.021
 4363POPC   C4A57882   1.314  20.004   7.247
 4363POPC   C1B57883   1.471  19.314   6.309
 4363POPC   C2B57884   1.430  19.325   6.792
 4363POPC   C3B57885   1.386  19.485   7.232
 4363POPC   C4B57886   1.156  19.567   7.599
 4364POPC   NC357887  23.447  33.948   5.377
 4364POPC   PO457888  23.871  33.856   5.358
 4364POPC   GL157889  23.694  33.736   5.800
 4364POPC   GL257890  23.389  33.896   5.896
 4364POPC   C1A57891  23.721  33.776   6.291
 4364POPC   D2A57892  23.892  33.828   6.721
 4364POPC   C3A57893  23.764  33.539   7.031
 4364POPC   C4A57894  23.721  33.543   7.475
 4364POPC   C1B57895  23.503  34.229   6.203
 4364POPC   C2B57896  23.544  34.205   6.658
 4364POPC   C3B57897  23.586  34.096   7.113
 4364POPC   C4B57898  23.524  34.406   7.480
 4365POPC   NC357899  28.707   3.767   5.520
 4365POPC   PO457900  28.209   3.224   5.495
 4365POPC   GL157901  28.375   3.478   5.847
 4365POPC   GL257902  28.313   3.810   5.870
 4365POPC   C1A57903  28.677   3.441   6.203
 4365POPC   D2A57904  28.784   3.568   6.648
 4365POPC   C3A57905  28.524   3.355   6.992
 4365POPC   C4A57906  28.159   3.135   7.222
 4365POPC   C1B57907  28.405   3.873   6.283
 4365POPC   C2B57908  28.264   3.716   6.687
 4365POPC   C3B57909  28.284   3.881   7.101
 4365POPC   C4B57910  28.035   3.876   7.481
 4366POPC   NC357911   8.311  23.168   5.564
 4366POPC   PO457912   7.753  22.963   5.303
 4366POPC   GL157913   7.916  22.856   5.775
 4366POPC   GL257914   8.286  22.802   5.898
 4366POPC   C1A57915   8.016  23.004   6.262
 4366POPC   D2A57916   8.225  22.901   6.691
 4366POPC   C3A57917   8.194  22.907   7.170
 4366POPC   C4A57918   7.910  22.825   7.545
 4366POPC   C1B57919   8.544  22.726   6.297
 4366POPC   C2B57920   8.727  22.877   6.725
 4366POPC   C3B57921   8.621  23.220   7.042
 4366POPC   C4B57922   8.514  23.191   7.510
 4367POPC   NC357923  19.869  40.409   5.298
 4367POPC   PO457924  19.608  40.981   5.537
 4367POPC   GL157925  19.948  40.786   5.771
 4367POPC   GL257926  19.760  40.521   5.913
 4367POPC   C1A57927  20.152  40.692   6.192
 4367POPC   D2A57928  19.987  40.850   6.599
 4367POPC   C3A57929  20.235  40.723   6.947
 4367POPC   C4A57930  20.173  40.791   7.391
 4367POPC   C1B57931  19.442  40.432   6.255
 4367POPC   C2B57932  19.435  40.410   6.724
 4367POPC   C3B57933  19.714  40.633   7.018
 4367POPC   C4B57934  19.650  41.087   7.105
 4368POPC   NC357935  43.653  22.769   5.629
 4368POPC   PO457936  44.299  22.835   5.503
 4368POPC   GL157937  44.073  22.948   5.891
 4368POPC   GL257938  43.809  23.221   5.831
 4368POPC   C1A57939  43.952  22.904   6.339
 4368POPC   D2A57940  44.061  22.595   6.685
 4368POPC   C3A57941  44.310  22.847   6.946
 4368POPC   C4A57942  44.108  23.148   7.206
 4368POPC   C1B57943  43.494  23.206   6.155
 4368POPC   C2B57944  43.448  23.015   6.519
 4368POPC   C3B57945  43.729  22.961   6.848
 4368POPC   C4B57946  43.667  22.906   7.247
 4369POPC   NC357947  13.443  34.316   5.762
 4369POPC   PO457948  13.717  34.758   5.207
 4369POPC   GL157949  13.836  34.702   5.681
 4369POPC   GL257950  14.077  34.456   5.671
 4369POPC   C1A57951  13.801  34.721   6.160
 4369POPC   D2A57952  13.525  34.433   6.425
 4369POPC   C3A57953  13.497  34.444   6.900
 4369POPC   C4A57954  13.341  34.608   7.316
 4369POPC   C1B57955  14.131  34.338   6.093
 4369POPC   C2B57956  13.964  34.173   6.476
 4369POPC   C3B57957  14.018  34.338   6.891
 4369POPC   C4B57958  13.840  34.550   7.272
 4370POPC   NC357959  26.794  21.713   5.414
 4370POPC   PO457960  26.334  22.013   5.462
 4370POPC   GL157961  26.510  21.780   5.848
 4370POPC   GL257962  26.837  21.582   5.899
 4370POPC   C1A57963  26.558  21.704   6.307
 4370POPC   D2A57964  26.627  21.811   6.731
 4370POPC   C3A57965  26.682  21.455   6.994
 4370POPC   C4A57966  26.797  21.309   7.408
 4370POPC   C1B57967  27.098  21.773   6.236
 4370POPC   C2B57968  27.135  21.753   6.717
 4370POPC   C3B57969  27.198  21.443   7.080
 4370POPC   C4B57970  27.358  21.228   7.458
 4371POPC   NC357971  19.730   7.250   5.528
 4371POPC   PO457972  19.918   7.851   5.344
 4371POPC   GL157973  20.002   7.502   5.840
 4371POPC   GL257974  19.658   7.308   6.010
 4371POPC   C1A57975  19.893   7.513   6.379
 4371POPC   D2A57976  19.584   7.399   6.696
 4371POPC   C3A57977  19.652   7.569   7.113
 4371POPC   C4A57978  19.746   7.520   7.604
 4371POPC   C1B57979  19.795   7.012   6.381
 4371POPC   C2B57980  19.849   6.970   6.838
 4371POPC   C3B57981  19.931   7.167   7.268
 4371POPC   C4B57982  20.056   7.123   7.721
 4372POPC   NC357983   2.665  40.184   5.565
 4372POPC   PO457984   2.997  39.627   5.567
 4372POPC   GL157985   2.928  39.873   5.865
 4372POPC   GL257986   3.142  40.152   5.761
 4372POPC   C1A57987   2.585  39.889   6.164
 4372POPC   D2A57988   2.382  39.677   6.516
 4372POPC   C3A57989   2.479  39.922   6.877
 4372POPC   C4A57990   2.604  39.998   7.299
 4372POPC   C1B57991   2.993  40.235   6.195
 4372POPC   C2B57992   2.758  40.245   6.575
 4372POPC   C3B57993   2.937  40.281   6.998
 4372POPC   C4B57994   2.949  40.371   7.454
 4373POPC   NC357995  26.442  33.388   5.482
 4373POPC   PO457996  26.985  33.727   5.430
 4373POPC   GL157997  26.892  33.761   5.862
 4373POPC   GL257998  26.655  33.501   5.943
 4373POPC   C1A57999  27.009  33.672   6.284
 4373POPC   D2A58000  26.752  33.484   6.583
 4373POPC   C3A58001  26.758  33.740   6.934
 4373POPC   C4A58002  26.844  33.996   7.257
 4373POPC   C1B58003  26.367  33.384   6.249
 4373POPC   C2B58004  26.274  33.253   6.666
 4373POPC   C3B58005  26.461  33.336   7.071
 4373POPC   C4B58006  26.590  33.592   7.437
 4374POPC   NC358007  10.269  13.139   5.393
 4374POPC   PO458008  10.340  12.515   5.357
 4374POPC   GL158009  10.410  12.771   5.739
 4374POPC   GL258010  10.062  12.850   5.783
 4374POPC   C1A58011  10.665  12.854   6.127
 4374POPC   D2A58012  10.753  13.018   6.559
 4374POPC   C3A58013  10.746  12.868   6.974
 4374POPC   C4A58014  10.620  12.914   7.427
 4374POPC   C1B58015  10.168  12.758   6.219
 4374POPC   C2B58016  10.302  12.784   6.648
 4374POPC   C3B58017  10.252  12.968   7.039
 4374POPC   C4B58018  10.120  12.764   7.377
 4375POPC   NC358019   8.711  44.737   5.446
 4375POPC   PO458020   9.348  44.451   5.502
 4375POPC   GL158021   9.024  44.509   5.779
 4375POPC   GL258022   9.059  44.864   5.823
 4375POPC   C1A58023   8.964  44.388   6.189
 4375POPC   D2A58024   9.124  44.619   6.530
 4375POPC   C3A58025   8.933  44.695   6.890
 4375POPC   C4A58026   9.131  44.656   7.268
 4375POPC   C1B58027   9.224   0.075   6.187
 4375POPC   C2B58028   9.086   0.133   6.620
 4375POPC   C3B58029   9.347   0.020   6.963
 4375POPC   C4B58030   9.368   0.147   7.424
 4376POPC   NC358031  11.091  44.107   5.562
 4376POPC   PO458032  11.552  43.668   5.401
 4376POPC   GL158033  11.477  43.819   5.810
 4376POPC   GL258034  11.646  43.555   5.982
 4376POPC   C1A58035  11.194  43.962   6.165
 4376POPC   D2A58036  11.058  43.938   6.563
 4376POPC   C3A58037  11.207  44.241   6.862
 4376POPC   C4A58038  11.372  44.203   7.263
 4376POPC   C1B58039  11.284  43.467   6.213
 4376POPC   C2B58040  11.261  43.471   6.641
 4376POPC   C3B58041  11.401  43.737   6.971
 4376POPC   C4B58042  11.313  43.508   7.332
 4377POPC   NC358043  28.506  16.872   5.355
 4377POPC   PO458044  28.064  16.532   5.499
 4377POPC   GL158045  28.321  16.705   5.846
 4377POPC   GL258046  28.645  16.577   5.880
 4377POPC   C1A58047  28.389  16.731   6.316
 4377POPC   D2A58048  28.512  16.652   6.774
 4377POPC   C3A58049  28.373  16.928   7.151
 4377POPC   C4A58050  28.223  17.283   7.457
 4377POPC   C1B58051  28.699  16.315   6.285
 4377POPC   C2B58052  28.720  16.173   6.743
 4377POPC   C3B58053  28.678  16.373   7.179
 4377POPC   C4B58054  28.557  16.438   7.610
 4378POPC   NC358055  33.960  20.344   5.515
 4378POPC   PO458056  33.509  20.726   5.515
 4378POPC   GL158057  33.733  20.640   5.867
 4378POPC   GL258058  34.101  20.732   5.876
 4378POPC   C1A58059  33.719  20.307   6.183
 4378POPC   D2A58060  33.912  20.209   6.590
 4378POPC   C3A58061  33.734  20.328   6.990
 4378POPC   C4A58062  33.900  20.374   7.402
 4378POPC   C1B58063  33.863  20.929   6.258
 4378POPC   C2B58064  33.792  21.017   6.696
 4378POPC   C3B58065  33.948  20.821   7.090
 4378POPC   C4B58066  34.147  21.103   7.368
 4379POPC   NC358067  34.751  39.862   5.100
 4379POPC   PO458068  34.208  39.820   5.432
 4379POPC   GL158069  34.518  39.853   5.792
 4379POPC   GL258070  34.522  40.204   5.935
 4379POPC   C1A58071  34.764  39.842   6.202
 4379POPC   D2A58072  34.744  40.180   6.499
 4379POPC   C3A58073  34.617  40.061   6.903
 4379POPC   C4A58074  34.832  40.123   7.277
 4379POPC   C1B58075  34.293  40.025   6.277
 4379POPC   C2B58076  34.130  40.110   6.672
 4379POPC   C3B58077  34.145  39.919   7.047
 4379POPC   C4B58078  34.340  40.006   7.379
 4380POPC   NC358079  22.352  22.917   5.040
 4380POPC   PO458080  22.305  23.235   5.634
 4380POPC   GL158081  22.208  23.052   5.964
 4380POPC   GL258082  21.911  22.893   5.947
 4380POPC   C1A58083  22.357  23.222   6.326
 4380POPC   D2A58084  22.199  23.249   6.713
 4380POPC   C3A58085  22.285  22.843   6.869
 4380POPC   C4A58086  22.263  22.876   7.291
 4380POPC   C1B58087  21.913  22.956   6.406
 4380POPC   C2B58088  21.794  22.983   6.843
 4380POPC   C3B58089  21.794  23.086   7.269
 4380POPC   C4B58090  21.857  22.815   7.642
 4381POPC   NC358091   9.059   3.081   5.345
 4381POPC   PO458092   9.460   2.553   5.254
 4381POPC   GL158093   9.174   2.618   5.654
 4381POPC   GL258094   8.932   2.858   5.805
 4381POPC   C1A58095   9.266   2.643   6.107
 4381POPC   D2A58096   8.994   2.686   6.465
 4381POPC   C3A58097   9.112   2.840   6.818
 4381POPC   C4A58098   9.001   2.763   7.188
 4381POPC   C1B58099   8.695   3.007   6.159
 4381POPC   C2B58100   8.763   3.135   6.574
 4381POPC   C3B58101   8.572   3.284   6.943
 4381POPC   C4B58102   8.666   3.150   7.332
 4382POPC   NC358103  16.043   3.816   5.482
 4382POPC   PO458104  15.892   3.059   5.576
 4382POPC   GL158105  15.794   3.296   5.894
 4382POPC   GL258106  16.084   3.506   5.879
 4382POPC   C1A58107  15.679   3.618   6.189
 4382POPC   D2A58108  15.788   3.839   6.562
 4382POPC   C3A58109  15.981   3.652   6.914
 4382POPC   C4A58110  15.859   3.793   7.284
 4382POPC   C1B58111  16.206   3.218   6.202
 4382POPC   C2B58112  16.350   3.114   6.611
 4382POPC   C3B58113  16.210   3.185   7.027
 4382POPC   C4B58114  16.263   3.505   7.334
 4383POPC   NC358115  32.253   3.921   5.474
 4383POPC   PO458116  32.575   4.571   5.386
 4383POPC   GL158117  32.351   4.394   5.683
 4383POPC   GL258118  32.620   4.167   5.775
 4383POPC   C1A58119  32.240   4.352   6.102
 4383POPC   D2A58120  32.479   4.338   6.468
 4383POPC   C3A58121  32.208   4.422   6.818
 4383POPC   C4A58122  32.161   4.269   7.221
 4383POPC   C1B58123  32.531   3.922   6.152
 4383POPC   C2B58124  32.629   3.858   6.591
 4383POPC   C3B58125  32.367   3.860   6.946
 4383POPC   C4B58126  32.497   3.894   7.357
 4384POPC   NC358127  14.303  15.628   5.409
 4384POPC   PO458128  14.614  16.234   5.273
 4384POPC   GL158129  14.575  15.997   5.678
 4384POPC   GL258130  14.224  15.932   5.833
 4384POPC   C1A58131  14.676  15.985   6.131
 4384POPC   D2A58132  14.617  15.669   6.495
 4384POPC   C3A58133  14.860  15.606   6.886
 4384POPC   C4A58134  14.666  15.686   7.324
 4384POPC   C1B58135  14.191  15.941   6.302
 4384POPC   C2B58136  14.499  16.157   6.580
 4384POPC   C3B58137  14.633  16.087   6.999
 4384POPC   C4B58138  14.218  15.924   7.179
 4385POPC   NC358139  15.343  28.688   5.378
 4385POPC   PO458140  14.987  28.068   5.425
 4385POPC   GL158141  15.219  28.325   5.785
 4385POPC   GL258142  15.444  28.643   5.874
 4385POPC   C1A58143  15.164  28.409   6.247
 4385POPC   D2A58144  14.881  28.463   6.605
 4385POPC   C3A58145  14.926  28.167   6.936
 4385POPC   C4A58146  14.933  28.235   7.365
 4385POPC   C1B58147  15.632  28.648   6.296
 4385POPC   C2B58148  15.470  28.486   6.702
 4385POPC   C3B58149  15.336  28.452   7.143
 4385POPC   C4B58150  15.335  28.474   7.592
 4386POPC   NC358151   9.200  14.275   5.470
 4386POPC   PO458152   8.564  14.134   5.433
 4386POPC   GL158153   8.744  14.389   5.814
 4386POPC   GL258154   9.037  14.654   5.795
 4386POPC   C1A58155   9.000  14.303   6.188
 4386POPC   D2A58156   9.108  14.446   6.597
 4386POPC   C3A58157   8.936  14.263   6.986
 4386POPC   C4A58158   9.177  14.311   7.348
 4386POPC   C1B58159   8.851  14.805   6.198
 4386POPC   C2B58160   8.948  14.923   6.628
 4386POPC   C3B58161   9.071  14.762   7.022
 4386POPC   C4B58162   8.866  14.729   7.422
 4387POPC   NC358163  24.085  12.732   5.439
 4387POPC   PO458164  23.526  13.208   5.482
 4387POPC   GL158165  23.699  12.897   5.802
 4387POPC   GL258166  23.894  12.536   5.859
 4387POPC   C1A58167  23.605  12.812   6.236
 4387POPC   D2A58168  23.389  12.857   6.639
 4387POPC   C3A58169  23.683  12.947   6.982
 4387POPC   C4A58170  23.726  12.794   7.429
 4387POPC   C1B58171  24.037  12.440   6.278
 4387POPC   C2B58172  23.820  12.565   6.643
 4387POPC   C3B58173  23.778  12.444   7.046
 4387POPC   C4B58174  24.105  12.461   7.290
 4388POPC   NC358175  12.216   1.429   5.314
 4388POPC   PO458176  11.628   1.047   5.145
 4388POPC   GL158177  11.900   1.052   5.554
 4388POPC   GL258178  12.041   1.338   5.770
 4388POPC   C1A58179  11.865   0.926   6.008
 4388POPC   D2A58180  11.792   0.963   6.456
 4388POPC   C3A58181  12.038   1.040   6.834
 4388POPC   C4A58182  11.853   0.987   7.231
 4388POPC   C1B58183  12.201   1.614   6.089
 4388POPC   C2B58184  12.311   1.436   6.492
 4388POPC   C3B58185  12.220   1.542   6.920
 4388POPC   C4B58186  12.151   1.387   7.316
 4389POPC   NC358187  39.692  16.650   5.636
 4389POPC   PO458188  40.223  16.957   5.352
 4389POPC   GL158189  40.166  16.796   5.767
 4389POPC   GL258190  39.954  17.036   5.882
 4389POPC   C1A58191  40.179  16.616   6.195
 4389POPC   D2A58192  40.340  16.506   6.616
 4389POPC   C3A58193  40.196  16.533   7.071
 4389POPC   C4A58194  40.087  16.819   7.464
 4389POPC   C1B58195  39.743  16.883   6.254
 4389POPC   C2B58196  39.870  16.699   6.648
 4389POPC   C3B58197  39.830  16.877   7.035
 4389POPC   C4B58198  39.630  17.079   7.365
 4390POPC   NC358199  14.994   3.342   5.338
 4390POPC   PO458200  15.628   3.566   5.444
 4390POPC   GL158201  15.313   3.471   5.795
 4390POPC   GL258202  15.044   3.223   5.815
 4390POPC   C1A58203  15.160   3.601   6.233
 4390POPC   D2A58204  15.380   3.504   6.641
 4390POPC   C3A58205  15.408   3.720   7.048
 4390POPC   C4A58206  15.323   3.619   7.505
 4390POPC   C1B58207  14.872   3.096   6.204
 4390POPC   C2B58208  14.939   3.246   6.618
 4390POPC   C3B58209  14.937   3.476   7.005
 4390POPC   C4B58210  14.841   3.191   7.363
 4391POPC   NC358211  41.372  31.168   5.349
 4391POPC   PO458212  41.908  31.588   5.475
 4391POPC   GL158213  41.744  31.720   5.861
 4391POPC   GL258214  41.580  31.416   5.956
 4391POPC   C1A58215  41.408  31.860   6.161
 4391POPC   D2A58216  41.257  31.781   6.602
 4391POPC   C3A58217  41.582  31.683   6.904
 4391POPC   C4A58218  41.647  31.446   7.274
 4391POPC   C1B58219  41.895  31.215   6.257
 4391POPC   C2B58220  41.941  31.203   6.742
 4391POPC   C3B58221  41.842  30.999   7.165
 4391POPC   C4B58222  41.890  31.135   7.637
 4392POPC   NC358223  26.555  29.323   5.550
 4392POPC   PO458224  25.986  28.878   5.540
 4392POPC   GL158225  26.216  29.067   5.862
 4392POPC   GL258226  25.977  29.326   5.890
 4392POPC   C1A58227  26.231  29.098   6.318
 4392POPC   D2A58228  25.994  28.894   6.643
 4392POPC   C3A58229  26.114  28.877   7.085
 4392POPC   C4A58230  26.161  29.130   7.461
 4392POPC   C1B58231  25.780  29.367   6.285
 4392POPC   C2B58232  25.961  29.389   6.724
 4392POPC   C3B58233  25.839  29.337   7.114
 4392POPC   C4B58234  25.745  29.407   7.528
 4393POPC   NC358235  44.960   3.606   5.418
 4393POPC   PO458236  44.886   3.104   5.676
 4393POPC   GL158237  44.746   3.435   5.886
 4393POPC   GL258238   0.010   3.645   5.943
 4393POPC   C1A58239  44.516   3.311   6.236
 4393POPC   D2A58240  44.655   3.413   6.645
 4393POPC   C3A58241  44.425   3.281   7.014
 4393POPC   C4A58242  44.652   3.397   7.397
 4393POPC   C1B58243   0.096   3.909   6.286
 4393POPC   C2B58244   0.133   3.937   6.727
 4393POPC   C3B58245  44.881   3.718   7.038
 4393POPC   C4B58246  44.879   3.824   7.480
 4394POPC   NC358247  41.471  28.697   5.550
 4394POPC   PO458248  41.853  29.279   5.425
 4394POPC   GL158249  41.670  29.411   5.779
 4394POPC   GL258250  41.443  29.146   5.816
 4394POPC   C1A58251  41.774  29.294   6.179
 4394POPC   D2A58252  41.668  29.008   6.457
 4394POPC   C3A58253  41.601  29.086   6.889
 4394POPC   C4A58254  41.617  29.403   7.198
 4394POPC   C1B58255  41.267  29.221   6.229
 4394POPC   C2B58256  41.289  29.438   6.634
 4394POPC   C3B58257  41.132  29.296   7.025
 4394POPC   C4B58258  41.088  29.076   7.378
 4395POPC   NC358259  37.532  31.469   5.359
 4395POPC   PO458260  38.078  30.996   5.376
 4395POPC   GL158261  37.798  31.229   5.725
 4395POPC   GL258262  37.635  31.586   5.834
 4395POPC   C1A58263  37.625  31.180   6.126
 4395POPC   D2A58264  37.365  31.432   6.358
 4395POPC   C3A58265  37.457  31.316   6.764
 4395POPC   C4A58266  37.465  31.560   7.114
 4395POPC   C1B58267  37.993  31.560   6.118
 4395POPC   C2B58268  37.841  31.548   6.502
 4395POPC   C3B58269  37.938  31.493   6.888
 4395POPC   C4B58270  37.929  31.680   7.285
 4396POPC   NC358271  22.316  22.093   5.651
 4396POPC   PO458272  22.197  22.502   5.110
 4396POPC   GL158273  22.299  22.577   5.736
 4396POPC   GL258274  22.053  22.385   5.956
 4396POPC   C1A58275  22.321  22.653   6.253
 4396POPC   D2A58276  22.257  22.243   6.448
 4396POPC   C3A58277  22.301  22.187   6.863
 4396POPC   C4A58278  22.371  22.398   7.177
 4396POPC   C1B58279  21.852  22.042   6.220
 4396POPC   C2B58280  21.857  21.969   6.704
 4396POPC   C3B58281  21.922  22.061   7.170
 4396POPC   C4B58282  21.917  21.862   7.600
 4397POPC   NC358283   8.586  17.645   5.636
 4397POPC   PO458284   9.110  17.330   5.366
 4397POPC   GL158285   9.024  17.298   5.787
 4397POPC   GL258286   9.039  17.629   5.880
 4397POPC   C1A58287   8.735  17.218   6.123
 4397POPC   D2A58288   8.706  17.359   6.537
 4397POPC   C3A58289   9.012  17.313   6.874
 4397POPC   C4A58290   8.891  17.293   7.315
 4397POPC   C1B58291   9.158  17.508   6.277
 4397POPC   C2B58292   9.089  17.751   6.619
 4397POPC   C3B58293   9.106  17.815   7.049
 4397POPC   C4B58294   9.371  17.527   7.252
 4398POPC   NC358295  38.663  35.741   5.093
 4398POPC   PO458296  38.362  36.404   5.325
 4398POPC   GL158297  38.240  36.151   5.713
 4398POPC   GL258298  38.029  36.408   5.837
 4398POPC   C1A58299  38.364  35.892   6.092
 4398POPC   D2A58300  38.604  36.081   6.436
 4398POPC   C3A58301  38.525  36.061   6.869
 4398POPC   C4A58302  38.711  36.242   7.206
 4398POPC   C1B58303  38.246  36.374   6.208
 4398POPC   C2B58304  38.345  36.527   6.620
 4398POPC   C3B58305  38.320  36.549   7.048
 4398POPC   C4B58306  38.290  36.437   7.452
 4399POPC   NC358307  19.742  30.465   5.088
 4399POPC   PO458308  19.863  29.864   5.385
 4399POPC   GL158309  20.010  29.922   5.822
 4399POPC   GL258310  19.992  30.284   5.826
 4399POPC   C1A58311  19.910  29.861   6.283
 4399POPC   D2A58312  19.784  29.966   6.724
 4399POPC   C3A58313  20.020  29.793   7.094
 4399POPC   C4A58314  19.794  29.715   7.483
 4399POPC   C1B58315  19.629  30.254   6.087
 4399POPC   C2B58316  19.591  30.427   6.477
 4399POPC   C3B58317  19.785  30.472   6.876
 4399POPC   C4B58318  19.684  30.171   7.212
 4400POPC   NC358319   9.234  33.409   5.177
 4400POPC   PO458320   8.937  32.842   5.456
 4400POPC   GL158321   9.192  33.031   5.757
 4400POPC   GL258322   9.043  33.363   5.689
 4400POPC   C1A58323   9.233  32.816   6.182
 4400POPC   D2A58324   9.261  32.590   6.608
 4400POPC   C3A58325   9.081  32.813   6.972
 4400POPC   C4A58326   8.853  33.057   7.279
 4400POPC   C1B58327   8.855  33.180   6.103
 4400POPC   C2B58328   8.962  33.126   6.555
 4400POPC   C3B58329   8.831  33.408   6.910
 4400POPC   C4B58330   8.444  33.408   7.203
 4401POPC   NC358331   9.874  19.178   5.370
 4401POPC   PO458332   9.442  19.609   5.432
 4401POPC   GL158333   9.601  19.290   5.798
 4401POPC   GL258334   9.942  19.093   5.865
 4401POPC   C1A58335   9.681  19.261   6.256
 4401POPC   D2A58336   9.667  19.020   6.641
 4401POPC   C3A58337   9.643  19.213   7.061
 4401POPC   C4A58338   9.813  19.105   7.486
 4401POPC   C1B58339  10.092  18.872   6.247
 4401POPC   C2B58340  10.174  18.962   6.669
 4401POPC   C3B58341  10.011  18.837   7.072
 4401POPC   C4B58342  10.266  18.765   7.430
 4402POPC   NC358343  21.581  31.619   5.409
 4402POPC   PO458344  21.303  31.113   5.129
 4402POPC   GL158345  21.306  31.182   5.660
 4402POPC   GL258346  21.424  31.490   5.846
 4402POPC   C1A58347  21.361  31.140   6.171
 4402POPC   D2A58348  21.151  31.224   6.588
 4402POPC   C3A58349  21.390  31.240   6.979
 4402POPC   C4A58350  21.450  30.947   7.308
 4402POPC   C1B58351  21.655  31.569   6.212
 4402POPC   C2B58352  21.489  31.651   6.618
 4402POPC   C3B58353  21.659  31.669   7.037
 4402POPC   C4B58354  21.452  31.556   7.406
 4403POPC   NC358355  26.424  13.820   4.958
 4403POPC   PO458356  26.800  13.538   5.420
 4403POPC   GL158357  26.878  13.604   5.860
 4403POPC   GL258358  26.541  13.475   5.885
 4403POPC   C1A58359  26.971  13.379   6.284
 4403POPC   D2A58360  27.106  13.369   6.734
 4403POPC   C3A58361  27.054  13.785   6.973
 4403POPC   C4A58362  27.231  14.186   7.138
 4403POPC   C1B58363  26.522  13.644   6.257
 4403POPC   C2B58364  26.495  13.353   6.595
 4403POPC   C3B58365  26.643  13.447   6.987
 4403POPC   C4B58366  26.392  13.573   7.331
 4404POPC   NC358367  29.445   6.817   5.227
 4404POPC   PO458368  28.857   6.778   5.461
 4404POPC   GL158369  29.176   6.753   5.786
 4404POPC   GL258370  29.418   6.447   5.757
 4404POPC   C1A58371  29.135   6.650   6.249
 4404POPC   D2A58372  29.068   6.265   6.474
 4404POPC   C3A58373  29.062   6.237   6.913
 4404POPC   C4A58374  29.124   6.304   7.317
 4404POPC   C1B58375  29.609   6.765   6.050
 4404POPC   C2B58376  29.523   6.938   6.459
 4404POPC   C3B58377  29.287   6.722   6.789
 4404POPC   C4B58378  29.413   6.733   7.201
 4405POPC   NC358379  39.691   9.890   5.357
 4405POPC   PO458380  40.301   9.533   5.354
 4405POPC   GL158381  39.939   9.618   5.706
 4405POPC   GL258382  39.918   9.932   5.808
 4405POPC   C1A58383  39.851   9.455   6.112
 4405POPC   D2A58384  39.798   9.603   6.536
 4405POPC   C3A58385  39.823   9.458   6.967
 4405POPC   C4A58386  40.104   9.549   7.288
 4405POPC   C1B58387  39.932  10.017   6.238
 4405POPC   C2B58388  39.681  10.080   6.604
 4405POPC   C3B58389  39.832   9.979   7.020
 4405POPC   C4B58390  39.734  10.098   7.399
 4406POPC   NC358391  10.314  18.838   5.607
 4406POPC   PO458392  10.892  19.109   5.409
 4406POPC   GL158393  10.806  19.247   5.833
 4406POPC   GL258394  10.479  19.135   5.990
 4406POPC   C1A58395  10.926  19.059   6.209
 4406POPC   D2A58396  10.669  18.881   6.513
 4406POPC   C3A58397  10.809  19.021   6.892
 4406POPC   C4A58398  10.598  19.051   7.215
 4406POPC   C1B58399  10.192  19.369   6.256
 4406POPC   C2B58400   9.987  19.451   6.660
 4406POPC   C3B58401  10.147  19.328   7.048
 4406POPC   C4B58402  10.255  19.328   7.463
 4407POPC   NC358403  37.464   8.481   5.495
 4407POPC   PO458404  38.073   8.731   5.234
 4407POPC   GL158405  37.886   8.889   5.685
 4407POPC   GL258406  37.598   8.956   5.725
 4407POPC   C1A58407  37.949   8.976   6.138
 4407POPC   D2A58408  37.865   9.266   6.465
 4407POPC   C3A58409  37.912   9.122   6.872
 4407POPC   C4A58410  37.847   9.061   7.294
 4407POPC   C1B58411  37.438   8.960   6.152
 4407POPC   C2B58412  37.514   8.890   6.602
 4407POPC   C3B58413  37.398   9.041   7.017
 4407POPC   C4B58414  37.413   8.879   7.441
 4408POPC   NC358415  29.591  31.209   5.120
 4408POPC   PO458416  30.169  31.475   5.438
 4408POPC   GL158417  30.078  31.410   5.855
 4408POPC   GL258418  29.792  31.643   5.841
 4408POPC   C1A58419  30.096  31.582   6.257
 4408POPC   D2A58420  29.864  31.579   6.617
 4408POPC   C3A58421  30.171  31.639   6.921
 4408POPC   C4A58422  30.268  31.383   7.278
 4408POPC   C1B58423  29.645  31.965   6.172
 4408POPC   C2B58424  29.533  32.076   6.598
 4408POPC   C3B58425  29.733  31.929   6.961
 4408POPC   C4B58426  29.849  31.665   7.321
 4409POPC   NC358427   5.310  38.776   5.509
 4409POPC   PO458428   4.820  38.281   5.272
 4409POPC   GL158429   4.893  38.363   5.750
 4409POPC   GL258430   5.259  38.328   5.842
 4409POPC   C1A58431   4.930  38.289   6.234
 4409POPC   D2A58432   5.056  38.528   6.618
 4409POPC   C3A58433   5.043  38.290   7.017
 4409POPC   C4A58434   4.759  38.422   7.328
 4409POPC   C1B58435   5.288  38.673   6.163
 4409POPC   C2B58436   5.423  38.926   6.514
 4409POPC   C3B58437   5.442  38.982   6.958
 4409POPC   C4B58438   5.245  38.716   7.276
 4410POPC   NC358439  42.534  24.973   5.106
 4410POPC   PO458440  42.154  24.514   5.456
 4410POPC   GL158441  42.364  24.370   5.817
 4410POPC   GL258442  42.709  24.489   5.815
 4410POPC   C1A58443  42.394  24.168   6.228
 4410POPC   D2A58444  42.499  24.282   6.662
 4410POPC   C3A58445  42.463  24.732   6.825
 4410POPC   C4A58446  42.226  24.836   7.215
 4410POPC   C1B58447  42.702  24.634   6.265
 4410POPC   C2B58448  42.941  24.582   6.662
 4410POPC   C3B58449  42.808  24.410   7.051
 4410POPC   C4B58450  42.418  24.350   7.203
 4411POPC   NC358451  15.346  23.511   5.322
 4411POPC   PO458452  14.858  23.942   5.180
 4411POPC   GL158453  15.003  23.720   5.608
 4411POPC   GL258454  14.734  23.476   5.769
 4411POPC   C1A58455  15.161  23.633   6.060
 4411POPC   D2A58456  15.183  23.781   6.527
 4411POPC   C3A58457  15.288  23.547   6.922
 4411POPC   C4A58458  15.542  23.641   7.299
 4411POPC   C1B58459  14.623  23.546   6.240
 4411POPC   C2B58460  14.758  23.503   6.679
 4411POPC   C3B58461  14.853  23.741   7.078
 4411POPC   C4B58462  14.985  23.787   7.525
 4412POPC   NC358463  27.348  31.190   5.552
 4412POPC   PO458464  27.201  31.759   5.407
 4412POPC   GL158465  27.582  31.721   5.675
 4412POPC   GL258466  27.800  31.396   5.688
 4412POPC   C1A58467  27.584  31.611   6.109
 4412POPC   D2A58468  27.745  31.454   6.506
 4412POPC   C3A58469  27.541  31.626   6.850
 4412POPC   C4A58470  27.633  31.479   7.247
 4412POPC   C1B58471  27.872  31.150   6.080
 4412POPC   C2B58472  27.690  30.912   6.435
 4412POPC   C3B58473  27.629  31.044   6.870
 4412POPC   C4B58474  27.911  30.990   7.182
 4413POPC   NC358475   8.694  43.747   5.303
 4413POPC   PO458476   9.226  43.603   5.658
 4413POPC   GL158477   9.016  43.883   5.893
 4413POPC   GL258478   9.311  44.108   5.930
 4413POPC   C1A58479   8.784  43.727   6.298
 4413POPC   D2A58480   8.701  43.588   6.746
 4413POPC   C3A58481   8.929  43.839   7.050
 4413POPC   C4A58482   8.804  44.246   7.135
 4413POPC   C1B58483   9.246  43.934   6.327
 4413POPC   C2B58484   9.007  44.119   6.637
 4413POPC   C3B58485   9.276  44.294   6.943
 4413POPC   C4B58486   9.239  44.171   7.379
 4414POPC   NC358487   2.394  34.779   5.388
 4414POPC   PO458488   3.048  34.780   5.276
 4414POPC   GL158489   2.849  34.625   5.672
 4414POPC   GL258490   2.645  34.861   5.859
 4414POPC   C1A58491   2.926  34.493   6.122
 4414POPC   D2A58492   2.796  34.496   6.578
 4414POPC   C3A58493   2.928  34.339   6.985
 4414POPC   C4A58494   3.040  34.669   7.265
 4414POPC   C1B58495   2.449  34.730   6.259
 4414POPC   C2B58496   2.252  34.549   6.601
 4414POPC   C3B58497   2.429  34.462   6.966
 4414POPC   C4B58498   2.555  34.814   7.193
 4415POPC   NC358499  26.535   8.098   5.493
 4415POPC   PO458500  26.507   7.366   5.489
 4415POPC   GL158501  26.315   7.272   5.902
 4415POPC   GL258502  25.941   7.364   5.928
 4415POPC   C1A58503  26.273   7.332   6.338
 4415POPC   D2A58504  26.307   7.748   6.520
 4415POPC   C3A58505  26.316   7.787   6.965
 4415POPC   C4A58506  26.418   7.595   7.347
 4415POPC   C1B58507  25.781   7.410   6.367
 4415POPC   C2B58508  26.024   7.379   6.783
 4415POPC   C3B58509  25.936   7.476   7.214
 4415POPC   C4B58510  25.734   7.425   7.620
 4416POPC   NC358511  12.406  35.468   5.250
 4416POPC   PO458512  11.767  35.189   5.496
 4416POPC   GL158513  11.997  35.442   5.817
 4416POPC   GL258514  12.368  35.527   5.792
 4416POPC   C1A58515  11.868  35.399   6.248
 4416POPC   D2A58516  12.047  35.211   6.611
 4416POPC   C3A58517  12.100  35.464   6.955
 4416POPC   C4A58518  11.891  35.439   7.318
 4416POPC   C1B58519  12.623  35.647   6.173
 4416POPC   C2B58520  12.504  35.614   6.629
 4416POPC   C3B58521  12.522  35.775   7.067
 4416POPC   C4B58522  12.362  35.591   7.452
 4417POPC   NC358523  40.967  34.228   5.423
 4417POPC   PO458524  40.404  33.822   5.497
 4417POPC   GL158525  40.709  33.886   5.822
 4417POPC   GL258526  41.069  33.876   5.811
 4417POPC   C1A58527  40.692  33.825   6.248
 4417POPC   D2A58528  40.418  33.829   6.593
 4417POPC   C3A58529  40.627  33.767   6.970
 4417POPC   C4A58530  40.708  34.097   7.234
 4417POPC   C1B58531  41.205  33.690   6.223
 4417POPC   C2B58532  41.027  33.665   6.641
 4417POPC   C3B58533  41.122  33.877   7.018
 4417POPC   C4B58534  41.290  33.943   7.407
 4418POPC   NC358535  40.988  35.007   5.571
 4418POPC   PO458536  40.521  34.526   5.449
 4418POPC   GL158537  40.678  34.398   5.822
 4418POPC   GL258538  40.991  34.545   5.868
 4418POPC   C1A58539  40.564  34.362   6.228
 4418POPC   D2A58540  40.690  34.625   6.583
 4418POPC   C3A58541  40.517  34.508   6.981
 4418POPC   C4A58542  40.646  34.578   7.404
 4418POPC   C1B58543  41.035  34.209   6.197
 4418POPC   C2B58544  40.863  34.145   6.620
 4418POPC   C3B58545  41.025  34.393   6.929
 4418POPC   C4B58546  41.123  34.416   7.334
 4419POPC   NC358547  22.447  31.204   5.647
 4419POPC   PO458548  21.811  31.253   5.580
 4419POPC   GL158549  21.994  31.275   5.905
 4419POPC   GL258550  22.166  31.579   5.839
 4419POPC   C1A58551  21.928  31.086   6.267
 4419POPC   D2A58552  21.772  31.209   6.632
 4419POPC   C3A58553  22.078  31.305   6.947
 4419POPC   C4A58554  21.859  31.247   7.292
 4419POPC   C1B58555  22.358  31.432   6.240
 4419POPC   C2B58556  22.510  31.624   6.595
 4419POPC   C3B58557  22.565  31.531   7.000
 4419POPC   C4B58558  22.372  31.482   7.367
 4420POPC   NC358559  44.649  22.542   5.437
 4420POPC   PO458560  44.559  21.869   5.490
 4420POPC   GL158561  44.496  22.108   5.814
 4420POPC   GL258562  44.846  22.231   5.829
 4420POPC   C1A58563  44.224  22.047   6.159
 4420POPC   D2A58564  44.322  22.039   6.592
 4420POPC   C3A58565  44.274  21.898   7.006
 4420POPC   C4A58566  44.427  22.209   7.256
 4420POPC   C1B58567  44.749  22.115   6.274
 4420POPC   C2B58568  44.856  21.992   6.707
 4420POPC   C3B58569  44.942  22.088   7.166
 4420POPC   C4B58570   0.104  21.885   7.547
 4421POPC   NC358571  41.078  38.619   5.497
 4421POPC   PO458572  40.695  38.232   5.121
 4421POPC   GL158573  40.720  38.272   5.648
 4421POPC   GL258574  40.509  38.510   5.817
 4421POPC   C1A58575  40.887  38.374   6.130
 4421POPC   D2A58576  40.878  38.601   6.554
 4421POPC   C3A58577  40.981  38.466   6.986
 4421POPC   C4A58578  40.896  38.333   7.420
 4421POPC   C1B58579  40.486  38.745   6.197
 4421POPC   C2B58580  40.360  38.647   6.615
 4421POPC   C3B58581  40.448  38.919   6.940
 4421POPC   C4B58582  40.648  38.767   7.294
 4422POPC   NC358583  18.729  10.801   5.595
 4422POPC   PO458584  18.971  10.126   5.626
 4422POPC   GL158585  18.901  10.424   5.880
 4422POPC   GL258586  19.212  10.604   5.837
 4422POPC   C1A58587  18.866  10.494   6.286
 4422POPC   D2A58588  18.648  10.391   6.647
 4422POPC   C3A58589  18.919  10.508   6.968
 4422POPC   C4A58590  18.914  10.778   7.324
 4422POPC   C1B58591  19.328  10.289   6.174
 4422POPC   C2B58592  19.385  10.131   6.582
 4422POPC   C3B58593  19.343  10.180   7.009
 4422POPC   C4B58594  19.319  10.493   7.286
 4423POPC   NC358595  15.797   5.505   5.451
 4423POPC   PO458596  15.915   4.883   5.485
 4423POPC   GL158597  16.110   5.014   5.867
 4423POPC   GL258598  15.924   5.318   5.915
 4423POPC   C1A58599  16.112   4.872   6.330
 4423POPC   D2A58600  15.849   4.939   6.705
 4423POPC   C3A58601  15.963   4.906   7.146
 4423POPC   C4A58602  15.791   4.672   7.515
 4423POPC   C1B58603  16.239   5.364   6.229
 4423POPC   C2B58604  16.211   5.352   6.678
 4423POPC   C3B58605  15.909   5.389   7.001
 4423POPC   C4B58606  15.838   5.688   7.293
 4424POPC   NC358607  40.539  14.886   5.359
 4424POPC   PO458608  40.515  15.526   5.366
 4424POPC   GL158609  40.547  15.345   5.789
 4424POPC   GL258610  40.746  15.042   5.805
 4424POPC   C1A58611  40.597  15.362   6.251
 4424POPC   D2A58612  40.391  15.339   6.668
 4424POPC   C3A58613  40.705  15.208   7.032
 4424POPC   C4A58614  41.022  15.361   7.367
 4424POPC   C1B58615  40.858  14.903   6.226
 4424POPC   C2B58616  40.636  14.858   6.622
 4424POPC   C3B58617  40.708  14.672   7.023
 4424POPC   C4B58618  41.032  14.852   7.315
 4425POPC   NC358619  14.659  26.906   5.409
 4425POPC   PO458620  14.015  26.760   5.624
 4425POPC   GL158621  14.385  26.843   5.833
 4425POPC   GL258622  14.582  26.549   5.774
 4425POPC   C1A58623  14.420  27.106   6.176
 4425POPC   D2A58624  14.172  27.024   6.545
 4425POPC   C3A58625  14.495  27.029   6.838
 4425POPC   C4A58626  14.616  27.046   7.240
 4425POPC   C1B58627  14.646  26.572   6.195
 4425POPC   C2B58628  14.744  26.604   6.639
 4425POPC   C3B58629  14.550  26.571   7.066
 4425POPC   C4B58630  14.456  26.617   7.541
 4426POPC   NC358631  21.518  24.168   5.351
 4426POPC   PO458632  21.203  24.732   5.388
 4426POPC   GL158633  21.415  24.524   5.707
 4426POPC   GL258634  21.135  24.476   5.901
 4426POPC   C1A58635  21.622  24.458   6.108
 4426POPC   D2A58636  21.404  24.559   6.505
 4426POPC   C3A58637  21.552  24.424   6.941
 4426POPC   C4A58638  21.477  24.535   7.392
 4426POPC   C1B58639  21.010  24.232   6.246
 4426POPC   C2B58640  21.194  24.109   6.635
 4426POPC   C3B58641  21.162  24.070   7.086
 4426POPC   C4B58642  21.158  24.140   7.528
 4427POPC   NC358643  12.567  12.713   5.576
 4427POPC   PO458644  12.593  13.356   5.386
 4427POPC   GL158645  12.873  13.165   5.715
 4427POPC   GL258646  13.067  12.837   5.648
 4427POPC   C1A58647  12.755  13.083   6.152
 4427POPC   D2A58648  12.497  12.973   6.488
 4427POPC   C3A58649  12.704  12.862   6.838
 4427POPC   C4A58650  12.863  12.897   7.199
 4427POPC   C1B58651  13.059  12.661   6.084
 4427POPC   C2B58652  13.101  12.813   6.513
 4427POPC   C3B58653  13.263  12.673   6.918
 4427POPC   C4B58654  13.320  12.762   7.336
 4428POPC   NC358655   2.368  10.413   5.422
 4428POPC   PO458656   2.948  10.211   5.478
 4428POPC   GL158657   2.847  10.129   5.934
 4428POPC   GL258658   2.477  10.092   5.928
 4428POPC   C1A58659   2.910  10.326   6.371
 4428POPC   D2A58660   3.026  10.665   6.721
 4428POPC   C3A58661   2.847  10.629   7.138
 4428POPC   C4A58662   2.603  10.931   7.386
 4428POPC   C1B58663   2.395  10.277   6.333
 4428POPC   C2B58664   2.551  10.430   6.736
 4428POPC   C3B58665   2.346  10.540   7.100
 4428POPC   C4B58666   2.142  10.694   7.447
 4429POPC   NC358667  29.943  42.599   5.420
 4429POPC   PO458668  30.354  42.108   5.450
 4429POPC   GL158669  30.204  42.354   5.804
 4429POPC   GL258670  29.810  42.334   5.842
 4429POPC   C1A58671  30.132  42.436   6.230
 4429POPC   D2A58672  29.856  42.359   6.581
 4429POPC   C3A58673  29.998  42.336   7.013
 4429POPC   C4A58674  29.886  42.281   7.474
 4429POPC   C1B58675  29.639  42.625   6.183
 4429POPC   C2B58676  29.703  42.832   6.565
 4429POPC   C3B58677  29.549  42.740   6.937
 4429POPC   C4B58678  29.670  42.720   7.349
 4430POPC   NC358679  24.360  43.453   5.420
 4430POPC   PO458680  24.717  42.839   5.416
 4430POPC   GL158681  24.627  43.081   5.827
 4430POPC   GL258682  24.299  43.174   5.837
 4430POPC   C1A58683  24.461  43.095   6.324
 4430POPC   D2A58684  24.293  43.313   6.721
 4430POPC   C3A58685  24.300  43.183   7.190
 4430POPC   C4A58686  24.513  42.839   7.442
 4430POPC   C1B58687  24.176  42.773   6.055
 4430POPC   C2B58688  24.281  42.620   6.477
 4430POPC   C3B58689  24.300  42.777   6.889
 4430POPC   C4B58690  24.053  42.758   7.244
 4431POPC   NC358691   4.261  19.703   5.363
 4431POPC   PO458692   4.810  20.113   5.472
 4431POPC   GL158693   4.515  19.942   5.742
 4431POPC   GL258694   4.192  20.097   5.738
 4431POPC   C1A58695   4.368  19.701   6.095
 4431POPC   D2A58696   4.150  19.802   6.491
 4431POPC   C3A58697   4.300  19.710   6.886
 4431POPC   C4A58698   4.016  19.766   7.242
 4431POPC   C1B58699   4.334  20.213   6.181
 4431POPC   C2B58700   4.508  20.179   6.623
 4431POPC   C3B58701   4.411  20.190   7.061
 4431POPC   C4B58702   4.390  20.260   7.498
 4432POPC   NC358703  10.384  36.629   5.635
 4432POPC   PO458704  10.578  37.238   5.440
 4432POPC   GL158705  10.672  37.040   5.838
 4432POPC   GL258706  10.852  36.723   5.854
 4432POPC   C1A58707  10.397  37.014   6.221
 4432POPC   D2A58708  10.397  36.789   6.608
 4432POPC   C3A58709  10.397  36.931   7.030
 4432POPC   C4A58710  10.277  36.629   7.329
 4432POPC   C1B58711  10.837  36.764   6.298
 4432POPC   C2B58712  10.823  36.525   6.675
 4432POPC   C3B58713  10.834  36.675   7.104
 4432POPC   C4B58714  10.945  37.100   7.191
 4433POPC   NC358715   7.849  31.718   5.450
 4433POPC   PO458716   7.220  31.527   5.311
 4433POPC   GL158717   7.368  31.449   5.716
 4433POPC   GL258718   7.213  31.146   5.754
 4433POPC   C1A58719   7.458  31.523   6.168
 4433POPC   D2A58720   7.583  31.313   6.579
 4433POPC   C3A58721   7.487  31.492   6.981
 4433POPC   C4A58722   7.211  31.789   7.122
 4433POPC   C1B58723   7.021  31.275   6.118
 4433POPC   C2B58724   7.082  31.438   6.516
 4433POPC   C3B58725   7.091  31.196   6.841
 4433POPC   C4B58726   7.101  31.275   7.231
 4434POPC   NC358727  22.303  15.489   5.542
 4434POPC   PO458728  22.004  14.943   5.359
 4434POPC   GL158729  22.021  14.983   5.799
 4434POPC   GL258730  22.381  14.948   5.859
 4434POPC   C1A58731  22.003  15.120   6.249
 4434POPC   D2A58732  22.191  14.944   6.647
 4434POPC   C3A58733  22.037  15.194   6.991
 4434POPC   C4A58734  21.683  15.509   6.977
 4434POPC   C1B58735  22.516  15.146   6.267
 4434POPC   C2B58736  22.450  15.393   6.657
 4434POPC   C3B58737  22.528  15.273   7.084
 4434POPC   C4B58738  22.406  14.825   7.115
 4435POPC   NC358739  36.988   6.837   5.331
 4435POPC   PO458740  36.489   6.365   5.460
 4435POPC   GL158741  36.734   6.641   5.728
 4435POPC   GL258742  36.614   6.967   5.676
 4435POPC   C1A58743  37.044   6.679   6.043
 4435POPC   D2A58744  37.041   6.561   6.469
 4435POPC   C3A58745  36.983   6.689   6.901
 4435POPC   C4A58746  36.772   6.524   7.268
 4435POPC   C1B58747  36.758   7.103   6.056
 4435POPC   C2B58748  36.837   7.056   6.466
 4435POPC   C3B58749  36.575   7.200   6.807
 4435POPC   C4B58750  36.626   7.040   7.199
 4436POPC   NC358751   0.200   2.945   5.384
 4436POPC   PO458752   0.395   2.370   5.597
 4436POPC   GL158753   0.396   2.746   5.817
 4436POPC   GL258754   0.663   2.944   5.651
 4436POPC   C1A58755   0.328   2.763   6.264
 4436POPC   D2A58756   0.510   3.042   6.601
 4436POPC   C3A58757   0.374   2.898   7.029
 4436POPC   C4A58758   0.089   2.580   7.246
 4436POPC   C1B58759   0.787   2.893   6.106
 4436POPC   C2B58760   0.754   2.606   6.478
 4436POPC   C3B58761   0.681   2.494   6.889
 4436POPC   C4B58762   0.846   2.701   7.234
 4437POPC   NC358763  12.644  42.527   5.420
 4437POPC   PO458764  13.197  42.168   5.513
 4437POPC   GL158765  12.961  42.353   5.800
 4437POPC   GL258766  13.165  42.639   5.773
 4437POPC   C1A58767  13.007  42.202   6.198
 4437POPC   D2A58768  13.169  42.324   6.592
 4437POPC   C3A58769  12.855  42.299   6.873
 4437POPC   C4A58770  12.679  42.214   7.240
 4437POPC   C1B58771  13.039  42.704   6.192
 4437POPC   C2B58772  12.908  42.766   6.607
 4437POPC   C3B58773  13.115  42.715   6.991
 4437POPC   C4B58774  13.180  42.358   7.281
 4438POPC   NC358775  42.289   9.204   5.451
 4438POPC   PO458776  42.480   8.571   5.376
 4438POPC   GL158777  42.284   8.655   5.812
 4438POPC   GL258778  42.320   9.013   5.923
 4438POPC   C1A58779  42.352   8.692   6.300
 4438POPC   D2A58780  42.182   8.871   6.654
 4438POPC   C3A58781  42.350   8.869   7.054
 4438POPC   C4A58782  42.390   8.938   7.454
 4438POPC   C1B58783  42.273   9.246   6.324
 4438POPC   C2B58784  42.378   9.327   6.788
 4438POPC   C3B58785  42.286   9.378   7.235
 4438POPC   C4B58786  42.034   9.385   7.640
 4439POPC   NC358787  34.853  38.291   5.409
 4439POPC   PO458788  34.299  38.778   5.395
 4439POPC   GL158789  34.498  38.514   5.728
 4439POPC   GL258790  34.641  38.182   5.860
 4439POPC   C1A58791  34.379  38.470   6.179
 4439POPC   D2A58792  34.558  38.635   6.562
 4439POPC   C3A58793  34.336  38.435   6.910
 4439POPC   C4A58794  34.094  38.114   7.166
 4439POPC   C1B58795  34.888  38.479   6.092
 4439POPC   C2B58796  35.044  38.411   6.498
 4439POPC   C3B58797  34.870  38.393   6.908
 4439POPC   C4B58798  34.981  38.354   7.337
 4440POPC   NC358799   2.175  42.167   5.345
 4440POPC   PO458800   1.517  42.423   5.449
 4440POPC   GL158801   1.728  42.270   5.753
 4440POPC   GL258802   2.006  42.467   5.795
 4440POPC   C1A58803   1.838  42.100   6.149
 4440POPC   D2A58804   1.943  42.272   6.566
 4440POPC   C3A58805   1.718  42.235   6.945
 4440POPC   C4A58806   1.814  42.396   7.347
 4440POPC   C1B58807   2.229  42.489   6.187
 4440POPC   C2B58808   2.368  42.589   6.611
 4440POPC   C3B58809   2.187  42.525   7.021
 4440POPC   C4B58810   2.291  42.221   7.372
 4441POPC   NC358811  16.988  15.428   5.537
 4441POPC   PO458812  16.604  14.891   5.399
 4441POPC   GL158813  16.723  15.067   5.816
 4441POPC   GL258814  16.406  15.155   5.951
 4441POPC   C1A58815  16.742  15.061   6.302
 4441POPC   D2A58816  16.382  15.160   6.630
 4441POPC   C3A58817  16.514  15.157   7.062
 4441POPC   C4A58818  16.970  15.113   7.130
 4441POPC   C1B58819  16.494  15.499   6.261
 4441POPC   C2B58820  16.309  15.699   6.626
 4441POPC   C3B58821  16.518  15.671   7.025
 4441POPC   C4B58822  16.583  15.570   7.456
 4442POPC   NC358823  20.866   0.791   5.422
 4442POPC   PO458824  20.260   1.068   5.633
 4442POPC   GL158825  20.464   1.331   5.901
 4442POPC   GL258826  20.791   1.252   5.706
 4442POPC   C1A58827  20.409   1.274   6.350
 4442POPC   D2A58828  20.208   0.896   6.561
 4442POPC   C3A58829  20.439   0.833   6.925
 4442POPC   C4A58830  20.611   1.124   7.176
 4442POPC   C1B58831  20.896   1.333   6.142
 4442POPC   C2B58832  20.927   1.310   6.594
 4442POPC   C3B58833  20.910   1.480   7.009
 4442POPC   C4B58834  21.026   1.359   7.422
 4443POPC   NC358835   9.037  30.407   4.870
 4443POPC   PO458836   8.682  29.942   5.216
 4443POPC   GL158837   8.600  29.913   5.695
 4443POPC   GL258838   8.963  29.874   5.805
 4443POPC   C1A58839   8.646  29.906   6.191
 4443POPC   D2A58840   8.659  29.612   6.544
 4443POPC   C3A58841   8.842  29.661   6.974
 4443POPC   C4A58842   8.778  30.106   7.122
 4443POPC   C1B58843   9.136  30.031   6.228
 4443POPC   C2B58844   9.009  30.013   6.664
 4443POPC   C3B58845   9.262  29.949   7.076
 4443POPC   C4B58846   9.498  29.866   7.488
 4444POPC   NC358847  40.957   5.738   5.373
 4444POPC   PO458848  40.528   6.283   5.375
 4444POPC   GL158849  40.619   5.985   5.768
 4444POPC   GL258850  40.986   6.071   5.815
 4444POPC   C1A58851  40.520   5.694   6.167
 4444POPC   D2A58852  40.294   5.727   6.608
 4444POPC   C3A58853  40.539   5.808   7.010
 4444POPC   C4A58854  40.960   5.636   7.175
 4444POPC   C1B58855  41.031   5.782   6.159
 4444POPC   C2B58856  40.824   5.799   6.562
 4444POPC   C3B58857  40.959   6.067   6.855
 4444POPC   C4B58858  40.927   6.130   7.257
 4445POPC   NC358859  41.125   0.382   5.368
 4445POPC   PO458860  41.758   0.158   5.445
 4445POPC   GL158861  41.669   0.215   5.849
 4445POPC   GL258862  41.305   0.214   5.890
 4445POPC   C1A58863  41.646   0.542   6.143
 4445POPC   D2A58864  41.713   0.376   6.561
 4445POPC   C3A58865  41.515   0.600   6.880
 4445POPC   C4A58866  41.447   0.664   7.321
 4445POPC   C1B58867  41.230   0.360   6.344
 4445POPC   C2B58868  41.216   0.148   6.741
 4445POPC   C3B58869  41.254   0.222   7.154
 4445POPC   C4B58870  41.041   0.409   7.513
 4446POPC   NC358871  35.819  18.046   5.376
 4446POPC   PO458872  36.407  18.450   5.323
 4446POPC   GL158873  36.202  18.289   5.674
 4446POPC   GL258874  36.071  18.003   5.800
 4446POPC   C1A58875  36.398  18.261   6.081
 4446POPC   D2A58876  36.463  18.091   6.480
 4446POPC   C3A58877  36.508  18.347   6.828
 4446POPC   C4A58878  36.323  18.273   7.231
 4446POPC   C1B58879  35.938  18.113   6.215
 4446POPC   C2B58880  36.064  18.418   6.545
 4446POPC   C3B58881  35.909  18.410   6.956
 4446POPC   C4B58882  35.779  18.087   7.257
 4447POPC   NC358883  39.057  32.724   5.423
 4447POPC   PO458884  39.163  32.148   5.276
 4447POPC   GL158885  39.207  32.037   5.724
 4447POPC   GL258886  39.235  32.373   5.812
 4447POPC   C1A58887  39.448  32.052   6.151
 4447POPC   D2A58888  39.564  32.192   6.606
 4447POPC   C3A58889  39.569  31.877   6.957
 4447POPC   C4A58890  39.340  31.945   7.338
 4447POPC   C1B58891  39.196  32.496   6.264
 4447POPC   C2B58892  38.982  32.398   6.625
 4447POPC   C3B58893  39.184  32.294   6.988
 4447POPC   C4B58894  39.125  32.425   7.412
 4448POPC   NC358895  36.665  13.673   5.119
 4448POPC   PO458896  37.123  14.051   5.398
 4448POPC   GL158897  36.969  13.733   5.706
 4448POPC   GL258898  36.614  13.694   5.713
 4448POPC   C1A58899  37.014  13.677   6.170
 4448POPC   D2A58900  36.742  13.721   6.552
 4448POPC   C3A58901  36.857  13.747   6.968
 4448POPC   C4A58902  37.237  13.844   7.146
 4448POPC   C1B58903  36.543  13.484   6.135
 4448POPC   C2B58904  36.443  13.311   6.559
 4448POPC   C3B58905  36.619  13.294   6.984
 4448POPC   C4B58906  36.810  13.393   7.356
 4449POPC   NC358907  39.190  22.217   5.332
 4449POPC   PO458908  39.713  22.549   5.550
 4449POPC   GL158909  39.369  22.314   5.818
 4449POPC   GL258910  39.174  21.964   5.769
 4449POPC   C1A58911  39.447  22.082   6.207
 4449POPC   D2A58912  39.479  22.295   6.589
 4449POPC   C3A58913  39.537  22.050   6.915
 4449POPC   C4A58914  39.398  22.139   7.315
 4449POPC   C1B58915  39.010  21.798   6.160
 4449POPC   C2B58916  39.117  21.898   6.603
 4449POPC   C3B58917  38.982  21.967   7.024
 4449POPC   C4B58918  38.855  22.342   7.250
 4450POPC   NC358919   0.360   7.466   5.120
 4450POPC   PO458920   0.400   8.109   5.320
 4450POPC   GL158921   0.573   8.270   5.752
 4450POPC   GL258922   0.682   7.932   5.879
 4450POPC   C1A58923   0.758   8.340   6.182
 4450POPC   D2A58924   0.557   8.392   6.598
 4450POPC   C3A58925   0.523   8.081   6.935
 4450POPC   C4A58926   0.707   8.191   7.296
 4450POPC   C1B58927   0.360   7.986   6.235
 4450POPC   C2B58928   0.100   8.094   6.634
 4450POPC   C3B58929  44.984   8.005   7.081
 4450POPC   C4B58930  44.869   7.982   7.522
 4451POPC   NC358931  19.749   2.385   5.587
 4451POPC   PO458932  19.982   3.005   5.444
 4451POPC   GL158933  19.914   2.846   5.857
 4451POPC   GL258934  19.602   2.727   5.937
 4451POPC   C1A58935  19.902   2.897   6.306
 4451POPC   D2A58936  19.691   2.869   6.674
 4451POPC   C3A58937  20.004   2.871   6.963
 4451POPC   C4A58938  20.102   2.572   7.295
 4451POPC   C1B58939  19.392   2.585   6.304
 4451POPC   C2B58940  19.451   2.428   6.722
 4451POPC   C3B58941  19.573   2.626   7.120
 4451POPC   C4B58942  19.617   2.574   7.551
 4452POPC   NC358943  31.542  37.545   5.320
 4452POPC   PO458944  32.054  38.017   5.478
 4452POPC   GL158945  31.702  37.827   5.740
 4452POPC   GL258946  31.657  37.449   5.832
 4452POPC   C1A58947  31.358  37.831   6.056
 4452POPC   D2A58948  31.337  37.890   6.507
 4452POPC   C3A58949  31.298  37.524   6.777
 4452POPC   C4A58950  31.152  37.505   7.200
 4452POPC   C1B58951  31.698  37.502   6.310
 4452POPC   C2B58952  31.782  37.695   6.715
 4452POPC   C3B58953  31.535  37.916   7.044
 4452POPC   C4B58954  31.506  37.750   7.462
 4453POPC   NC358955  11.842  44.098   5.367
 4453POPC   PO458956  12.295  43.683   5.561
 4453POPC   GL158957  12.005  43.870   5.806
 4453POPC   GL258958  11.958  44.227   5.831
 4453POPC   C1A58959  11.999  43.863   6.236
 4453POPC   D2A58960  12.274  43.745   6.560
 4453POPC   C3A58961  12.216  44.077   6.871
 4453POPC   C4A58962  12.344  43.997   7.280
 4453POPC   C1B58963  11.632  44.208   6.122
 4453POPC   C2B58964  11.574  44.015   6.523
 4453POPC   C3B58965  11.714  44.195   6.886
 4453POPC   C4B58966  11.849  44.039   7.244
 4454POPC   NC358967  18.111   2.516   5.386
 4454POPC   PO458968  18.673   2.506   5.655
 4454POPC   GL158969  18.421   2.838   5.766
 4454POPC   GL258970  18.231   2.585   5.919
 4454POPC   C1A58971  18.324   3.058   6.151
 4454POPC   D2A58972  18.251   2.792   6.516
 4454POPC   C3A58973  18.420   2.915   6.935
 4454POPC   C4A58974  18.194   2.842   7.300
 4454POPC   C1B58975  17.919   2.360   6.115
 4454POPC   C2B58976  17.799   2.461   6.520
 4454POPC   C3B58977  18.033   2.520   6.899
 4454POPC   C4B58978  17.839   2.473   7.281
 4455POPC   NC358979  29.758  37.151   5.512
 4455POPC   PO458980  30.218  37.697   5.527
 4455POPC   GL158981  29.925  37.539   5.796
 4455POPC   GL258982  30.170  37.275   5.824
 4455POPC   C1A58983  29.705  37.709   6.155
 4455POPC   D2A58984  29.823  37.933   6.534
 4455POPC   C3A58985  29.639  37.750   6.890
 4455POPC   C4A58986  29.774  37.615   7.306
 4455POPC   C1B58987  30.168  37.435   6.239
 4455POPC   C2B58988  30.356  37.372   6.631
 4455POPC   C3B58989  30.150  37.616   6.930
 4455POPC   C4B58990  30.037  38.009   7.111
 4456POPC   NC358991  44.158  21.183   5.575
 4456POPC   PO458992  43.778  21.709   5.354
 4456POPC   GL158993  43.867  21.570   5.779
 4456POPC   GL258994  43.578  21.407   5.814
 4456POPC   C1A58995  44.052  21.418   6.223
 4456POPC   D2A58996  44.021  21.607   6.656
 4456POPC   C3A58997  43.845  21.397   7.056
 4456POPC   C4A58998  44.037  21.001   7.275
 4456POPC   C1B58999  43.580  21.229   6.200
 4456POPC   C2B59000  43.743  21.164   6.587
 4456POPC   C3B59001  43.642  20.951   6.951
 4456POPC   C4B59002  43.504  21.046   7.318
 4457POPC   NC359003  23.525  42.733   5.517
 4457POPC   PO459004  23.956  43.223   5.417
 4457POPC   GL159005  23.791  43.173   5.795
 4457POPC   GL259006  23.463  43.200   5.785
 4457POPC   C1A59007  23.963  43.285   6.197
 4457POPC   D2A59008  23.957  43.009   6.503
 4457POPC   C3A59009  23.852  43.157   6.907
 4457POPC   C4A59010  23.784  43.214   7.343
 4457POPC   C1B59011  23.527  42.992   6.200
 4457POPC   C2B59012  23.413  42.972   6.651
 4457POPC   C3B59013  23.223  43.182   7.031
 4457POPC   C4B59014  23.296  43.157   7.502
 4458POPC   NC359015  38.806  11.261   5.329
 4458POPC   PO459016  39.455  11.050   5.316
 4458POPC   GL159017  39.185  11.226   5.684
 4458POPC   GL259018  38.921  10.981   5.769
 4458POPC   C1A59019  39.079  11.338   6.142
 4458POPC   D2A59020  39.010  11.483   6.596
 4458POPC   C3A59021  39.384  11.460   6.869
 4458POPC   C4A59022  39.566  11.270   7.240
 4458POPC   C1B59023  38.763  10.936   6.236
 4458POPC   C2B59024  38.812  10.970   6.721
 4458POPC   C3B59025  38.972  11.253   7.079
 4458POPC   C4B59026  39.129  11.234   7.494
 4459POPC   NC359027   7.651  23.562   5.134
 4459POPC   PO459028   8.133  23.587   5.601
 4459POPC   GL159029   7.689  23.399   5.765
 4459POPC   GL259030   7.318  23.572   5.808
 4459POPC   C1A59031   7.545  23.309   6.209
 4459POPC   D2A59032   7.656  23.156   6.641
 4459POPC   C3A59033   7.610  23.460   7.000
 4459POPC   C4A59034   7.816  23.829   7.200
 4459POPC   C1B59035   7.103  23.560   6.228
 4459POPC   C2B59036   7.189  23.354   6.613
 4459POPC   C3B59037   7.184  23.150   6.999
 4459POPC   C4B59038   7.271  23.353   7.364
 4460POPC   NC359039  16.468   2.380   5.453
 4460POPC   PO459040  16.795   1.848   5.291
 4460POPC   GL159041  16.705   1.983   5.739
 4460POPC   GL259042  16.639   2.303   5.918
 4460POPC   C1A59043  16.476   1.824   6.126
 4460POPC   D2A59044  16.375   1.620   6.549
 4460POPC   C3A59045  16.761   1.643   6.794
 4460POPC   C4A59046  16.891   1.772   7.200
 4460POPC   C1B59047  16.571   2.276   6.361
 4460POPC   C2B59048  16.766   2.178   6.761
 4460POPC   C3B59049  16.688   2.263   7.200
 4460POPC   C4B59050  16.653   2.511   7.566
 4461POPC   NC359051  43.696   2.614   5.514
 4461POPC   PO459052  43.986   3.190   5.533
 4461POPC   GL159053  44.123   3.068   5.918
 4461POPC   GL259054  44.093   2.714   5.843
 4461POPC   C1A59055  44.076   3.047   6.334
 4461POPC   D2A59056  44.026   2.693   6.578
 4461POPC   C3A59057  44.155   2.797   6.970
 4461POPC   C4A59058  44.081   2.747   7.364
 4461POPC   C1B59059  43.735   2.738   6.135
 4461POPC   C2B59060  43.570   2.922   6.476
 4461POPC   C3B59061  43.629   2.802   6.891
 4461POPC   C4B59062  43.504   2.798   7.299
 4462POPC   NC359063  21.074  32.376   5.552
 4462POPC   PO459064  21.660  32.083   5.436
 4462POPC   GL159065  21.412  32.008   5.775
 4462POPC   GL259066  21.460  32.333   5.894
 4462POPC   C1A59067  21.307  31.973   6.226
 4462POPC   D2A59068  21.138  32.169   6.606
 4462POPC   C3A59069  21.299  32.015   6.942
 4462POPC   C4A59070  21.230  31.997   7.353
 4462POPC   C1B59071  21.364  32.505   6.309
 4462POPC   C2B59072  21.565  32.433   6.747
 4462POPC   C3B59073  21.662  32.284   7.191
 4462POPC   C4B59074  21.807  32.504   7.580
 4463POPC   NC359075  33.503  32.730   5.664
 4463POPC   PO459076  33.905  33.211   5.455
 4463POPC   GL159077  34.015  33.111   5.894
 4463POPC   GL259078  33.708  33.014   6.046
 4463POPC   C1A59079  34.039  33.214   6.371
 4463POPC   D2A59080  33.747  32.998   6.678
 4463POPC   C3A59081  33.572  33.177   7.054
 4463POPC   C4A59082  33.918  33.247   7.334
 4463POPC   C1B59083  33.500  32.720   6.320
 4463POPC   C2B59084  33.551  32.513   6.723
 4463POPC   C3B59085  33.728  32.642   7.108
 4463POPC   C4B59086  33.603  32.883   7.491
 4464POPC   NC359087   8.054  42.209   5.285
 4464POPC   PO459088   8.628  42.546   5.399
 4464POPC   GL159089   8.337  42.313   5.714
 4464POPC   GL259090   8.043  42.420   5.798
 4464POPC   C1A59091   8.294  42.081   6.125
 4464POPC   D2A59092   8.365  42.179   6.570
 4464POPC   C3A59093   8.291  42.018   6.975
 4464POPC   C4A59094   8.442  42.180   7.364
 4464POPC   C1B59095   7.782  42.686   6.071
 4464POPC   C2B59096   7.754  42.780   6.534
 4464POPC   C3B59097   7.916  42.871   6.953
 4464POPC   C4B59098   8.027  42.809   7.392
 4465POPC   NC359099   4.652  44.910   5.344
 4465POPC   PO459100   4.040  44.582   5.272
 4465POPC   GL159101   4.273  44.743   5.644
 4465POPC   GL259102   4.524  44.537   5.750
 4465POPC   C1A59103   4.275  44.899   6.089
 4465POPC   D2A59104   4.138  44.618   6.413
 4465POPC   C3A59105   4.208  44.589   6.859
 4465POPC   C4A59106   4.222  44.693   7.260
 4465POPC   C1B59107   4.670  44.579   6.170
 4465POPC   C2B59108   4.645  44.646   6.610
 4465POPC   C3B59109   4.672  44.570   7.068
 4465POPC   C4B59110   4.655  44.905   7.392
 4466POPC   NC359111  18.842   2.144   5.424
 4466POPC   PO459112  19.156   1.526   5.195
 4466POPC   GL159113  19.093   1.739   5.616
 4466POPC   GL259114  18.725   1.761   5.745
 4466POPC   C1A59115  19.130   1.880   6.062
 4466POPC   D2A59116  19.241   1.961   6.502
 4466POPC   C3A59117  19.034   2.198   6.861
 4466POPC   C4A59118  19.267   2.216   7.263
 4466POPC   C1B59119  18.683   1.662   6.173
 4466POPC   C2B59120  18.702   1.920   6.534
 4466POPC   C3B59121  18.752   1.787   6.942
 4466POPC   C4B59122  18.738   2.027   7.289
 4467POPC   NC359123  11.383  32.194   5.415
 4467POPC   PO459124  11.035  32.691   5.685
 4467POPC   GL159125  11.241  32.337   5.893
 4467POPC   GL259126  11.616  32.315   5.855
 4467POPC   C1A59127  11.175  32.300   6.314
 4467POPC   D2A59128  11.246  32.063   6.656
 4467POPC   C3A59129  10.970  32.215   6.949
 4467POPC   C4A59130  11.108  32.497   7.240
 4467POPC   C1B59131  11.635  32.080   6.258
 4467POPC   C2B59132  11.731  32.216   6.681
 4467POPC   C3B59133  11.516  32.172   7.104
 4467POPC   C4B59134  11.434  32.247   7.556
 4468POPC   NC359135  30.810  30.849   5.303
 4468POPC   PO459136  30.141  30.830   5.250
 4468POPC   GL159137  30.347  30.922   5.681
 4468POPC   GL259138  30.698  30.793   5.795
 4468POPC   C1A59139  30.342  30.827   6.150
 4468POPC   D2A59140  30.594  30.945   6.471
 4468POPC   C3A59141  30.500  30.762   6.841
 4468POPC   C4A59142  30.486  30.683   7.285
 4468POPC   C1B59143  30.858  30.610   6.180
 4468POPC   C2B59144  30.958  30.594   6.632
 4468POPC   C3B59145  30.976  30.826   7.020
 4468POPC   C4B59146  30.982  30.745   7.424
 4469POPC   NC359147  10.901  37.552   5.562
 4469POPC   PO459148  11.171  38.004   5.192
 4469POPC   GL159149  11.195  37.971   5.674
 4469POPC   GL259150  11.500  37.804   5.723
 4469POPC   C1A59151  11.080  37.783   6.112
 4469POPC   D2A59152  10.909  37.779   6.511
 4469POPC   C3A59153  11.071  37.565   6.840
 4469POPC   C4A59154  11.157  37.569   7.241
 4469POPC   C1B59155  11.580  37.709   6.143
 4469POPC   C2B59156  11.452  37.541   6.515
 4469POPC   C3B59157  11.588  37.694   6.906
 4469POPC   C4B59158  11.652  37.803   7.304
 4470POPC   NC359159  41.553   3.146   5.144
 4470POPC   PO459160  41.802   2.654   5.383
 4470POPC   GL159161  41.855   2.638   5.811
 4470POPC   GL259162  41.897   2.984   5.944
 4470POPC   C1A59163  41.741   2.587   6.251
 4470POPC   D2A59164  41.858   2.776   6.627
 4470POPC   C3A59165  41.849   2.576   7.035
 4470POPC   C4A59166  41.498   2.519   7.303
 4470POPC   C1B59167  41.570   3.077   6.273
 4470POPC   C2B59168  41.376   2.927   6.649
 4470POPC   C3B59169  41.284   2.920   7.063
 4470POPC   C4B59170  41.025   2.712   7.401
 4471POPC   NC359171  44.877  40.133   5.329
 4471POPC   PO459172  44.299  39.737   5.323
 4471POPC   GL159173  44.513  39.970   5.677
 4471POPC   GL259174  44.857  39.809   5.723
 4471POPC   C1A59175  44.661  40.097   6.112
 4471POPC   D2A59176  44.814  40.004   6.547
 4471POPC   C3A59177  44.710  40.165   6.971
 4471POPC   C4A59178  44.428  40.317   7.309
 4471POPC   C1B59179  44.908  39.648   6.142
 4471POPC   C2B59180   0.003  39.516   6.563
 4471POPC   C3B59181   0.084  39.752   6.913
 4471POPC   C4B59182  44.855  39.772   7.279
 4472POPC   NC359183  12.968   4.634   5.477
 4472POPC   PO459184  12.510   4.181   5.486
 4472POPC   GL159185  12.885   4.251   5.867
 4472POPC   GL259186  13.154   4.491   5.925
 4472POPC   C1A59187  13.093   4.146   6.290
 4472POPC   D2A59188  13.021   4.359   6.697
 4472POPC   C3A59189  13.132   4.152   7.085
 4472POPC   C4A59190  12.831   4.142   7.425
 4472POPC   C1B59191  12.816   4.585   6.263
 4472POPC   C2B59192  12.684   4.763   6.686
 4472POPC   C3B59193  12.776   4.596   7.133
 4472POPC   C4B59194  12.804   4.628   7.610
 4473POPC   NC359195  28.125  29.259   5.433
 4473POPC   PO459196  28.801  29.171   5.361
 4473POPC   GL159197  28.538  29.297   5.758
 4473POPC   GL259198  28.225  29.093   5.888
 4473POPC   C1A59199  28.348  29.500   6.161
 4473POPC   D2A59200  28.194  29.434   6.601
 4473POPC   C3A59201  28.494  29.148   6.849
 4473POPC   C4A59202  28.610  28.788   7.113
 4473POPC   C1B59203  27.955  29.102   6.239
 4473POPC   C2B59204  27.869  28.948   6.626
 4473POPC   C3B59205  28.020  29.101   6.998
 4473POPC   C4B59206  28.201  29.468   7.121
 4474POPC   NC359207   2.597   1.428   5.334
 4474POPC   PO459208   2.574   0.793   5.248
 4474POPC   GL159209   2.711   1.031   5.671
 4474POPC   GL259210   2.968   1.304   5.717
 4474POPC   C1A59211   2.574   1.265   6.088
 4474POPC   D2A59212   2.421   1.425   6.510
 4474POPC   C3A59213   2.280   1.252   6.911
 4474POPC   C4A59214   2.573   1.281   7.231
 4474POPC   C1B59215   3.104   1.257   6.168
 4474POPC   C2B59216   3.300   1.169   6.597
 4474POPC   C3B59217   3.056   1.156   7.008
 4474POPC   C4B59218   2.954   1.592   7.192
 4475POPC   NC359219  36.732  18.180   5.124
 4475POPC   PO459220  37.236  18.446   5.452
 4475POPC   GL159221  36.959  18.473   5.814
 4475POPC   GL259222  36.733  18.227   5.694
 4475POPC   C1A59223  36.828  18.489   6.251
 4475POPC   D2A59224  36.958  18.205   6.570
 4475POPC   C3A59225  37.085  18.374   6.921
 4475POPC   C4A59226  36.821  18.361   7.256
 4475POPC   C1B59227  36.832  17.984   6.106
 4475POPC   C2B59228  36.807  17.714   6.521
 4475POPC   C3B59229  36.643  17.863   6.952
 4475POPC   C4B59230  36.644  17.935   7.440
 4476POPC   NC359231   0.921   3.330   5.397
 4476POPC   PO459232   1.582   3.253   5.548
 4476POPC   GL159233   1.258   3.484   5.784
 4476POPC   GL259234   0.913   3.360   5.889
 4476POPC   C1A59235   1.209   3.673   6.189
 4476POPC   D2A59236   1.092   3.895   6.570
 4476POPC   C3A59237   1.192   3.694   6.965
 4476POPC   C4A59238   1.139   3.462   7.322
 4476POPC   C1B59239   0.793   3.383   6.295
 4476POPC   C2B59240   0.858   3.436   6.693
 4476POPC   C3B59241   0.833   3.161   6.989
 4476POPC   C4B59242   0.648   3.230   7.312
 4477POPC   NC359243  18.650  38.303   5.079
 4477POPC   PO459244  18.055  38.500   5.347
 4477POPC   GL159245  18.251  38.487   5.751
 4477POPC   GL259246  18.606  38.469   5.760
 4477POPC   C1A59247  18.326  38.630   6.173
 4477POPC   D2A59248  18.191  38.491   6.569
 4477POPC   C3A59249  18.346  38.527   6.986
 4477POPC   C4A59250  18.278  38.263   7.372
 4477POPC   C1B59251  18.674  38.218   6.143
 4477POPC   C2B59252  18.565  38.114   6.574
 4477POPC   C3B59253  18.689  38.162   7.044
 4477POPC   C4B59254  18.714  38.050   7.505
 4478POPC   NC359255  33.973  43.578   5.337
 4478POPC   PO459256  33.579  44.117   5.443
 4478POPC   GL159257  33.689  43.859   5.799
 4478POPC   GL259258  34.035  43.786   5.804
 4478POPC   C1A59259  33.762  43.775   6.249
 4478POPC   D2A59260  33.846  43.578   6.657
 4478POPC   C3A59261  33.676  43.783   7.016
 4478POPC   C4A59262  33.455  44.155   7.164
 4478POPC   C1B59263  34.268  43.664   6.165
 4478POPC   C2B59264  34.353  43.792   6.588
 4478POPC   C3B59265  34.196  43.786   7.010
 4478POPC   C4B59266  34.132  43.894   7.460
 4479POPC   NC359267  25.364   9.441   5.050
 4479POPC   PO459268  25.247   9.847   5.523
 4479POPC   GL159269  25.217   9.833   5.941
 4479POPC   GL259270  25.561   9.875   5.943
 4479POPC   C1A59271  25.299  10.043   6.348
 4479POPC   D2A59272  25.461   9.914   6.750
 4479POPC   C3A59273  25.226   9.927   7.134
 4479POPC   C4A59274  25.183   9.615   7.476
 4479POPC   C1B59275  25.735   9.670   6.320
 4479POPC   C2B59276  25.704   9.437   6.667
 4479POPC   C3B59277  25.566   9.533   7.074
 4479POPC   C4B59278  25.948   9.521   7.222
 4480POPC   NC359279   9.765   1.430   5.439
 4480POPC   PO459280  10.126   0.907   5.495
 4480POPC   GL159281   9.925   1.134   5.838
 4480POPC   GL259282   9.541   1.086   5.900
 4480POPC   C1A59283   9.854   1.366   6.215
 4480POPC   D2A59284   9.974   1.182   6.603
 4480POPC   C3A59285   9.856   1.289   7.026
 4480POPC   C4A59286  10.019   1.377   7.441
 4480POPC   C1B59287   9.548   0.922   6.351
 4480POPC   C2B59288   9.501   0.916   6.814
 4480POPC   C3B59289   9.365   1.175   7.151
 4480POPC   C4B59290   9.615   1.053   7.483
 4481POPC   NC359291  35.929  31.204   5.320
 4481POPC   PO459292  36.420  31.717   5.292
 4481POPC   GL159293  36.217  31.492   5.687
 4481POPC   GL259294  36.137  31.752   5.929
 4481POPC   C1A59295  36.153  31.253   6.124
 4481POPC   D2A59296  35.893  31.139   6.555
 4481POPC   C3A59297  35.837  31.263   7.008
 4481POPC   C4A59298  36.221  31.338   7.232
 4481POPC   C1B59299  36.354  31.683   6.342
 4481POPC   C2B59300  36.149  31.562   6.735
 4481POPC   C3B59301  35.992  31.782   7.130
 4481POPC   C4B59302  36.140  32.000   7.534
 4482POPC   NC359303  36.443  21.896   5.292
 4482POPC   PO459304  35.823  21.791   5.352
 4482POPC   GL159305  36.032  22.137   5.640
 4482POPC   GL259306  36.354  22.050   5.753
 4482POPC   C1A59307  36.187  22.410   6.028
 4482POPC   D2A59308  36.103  22.280   6.505
 4482POPC   C3A59309  36.413  22.374   6.833
 4482POPC   C4A59310  36.415  22.237   7.241
 4482POPC   C1B59311  36.163  21.920   6.158
 4482POPC   C2B59312  36.292  21.800   6.554
 4482POPC   C3B59313  36.170  21.923   6.914
 4482POPC   C4B59314  36.189  21.741   7.279
 4483POPC   NC359315  12.927   3.985   5.453
 4483POPC   PO459316  13.001   3.334   5.444
 4483POPC   GL159317  12.910   3.590   5.830
 4483POPC   GL259318  12.617   3.818   5.854
 4483POPC   C1A59319  12.764   3.547   6.274
 4483POPC   D2A59320  12.897   3.363   6.668
 4483POPC   C3A59321  12.635   3.268   7.024
 4483POPC   C4A59322  12.729   3.337   7.446
 4483POPC   C1B59323  12.610   4.032   6.276
 4483POPC   C2B59324  12.848   3.882   6.671
 4483POPC   C3B59325  12.826   3.733   7.105
 4483POPC   C4B59326  12.457   3.771   7.396
 4484POPC   NC359327  37.397  41.886   5.494
 4484POPC   PO459328  36.916  42.273   5.179
 4484POPC   GL159329  36.918  42.085   5.640
 4484POPC   GL259330  37.213  42.114   5.904
 4484POPC   C1A59331  36.740  42.073   6.094
 4484POPC   D2A59332  36.997  42.117   6.488
 4484POPC   C3A59333  36.778  42.055   6.849
 4484POPC   C4A59334  36.577  42.078   7.200
 4484POPC   C1B59335  37.448  42.260   6.266
 4484POPC   C2B59336  37.600  42.227   6.667
 4484POPC   C3B59337  37.306  42.150   7.001
 4484POPC   C4B59338  36.957  42.439   7.141
 4485POPC   NC359339  43.477  44.251   5.447
 4485POPC   PO459340  43.063  44.750   5.304
 4485POPC   GL159341  43.240  44.651   5.693
 4485POPC   GL259342  42.929  44.668   5.886
 4485POPC   C1A59343  43.353  44.491   6.104
 4485POPC   D2A59344  43.155  44.688   6.454
 4485POPC   C3A59345  43.145  44.492   6.856
 4485POPC   C4A59346  43.254  44.700   7.214
 4485POPC   C1B59347  42.821  44.993   6.171
 4485POPC   C2B59348  42.862   0.125   6.600
 4485POPC   C3B59349  42.835  44.878   6.966
 4485POPC   C4B59350  42.771  44.602   7.300
 4486POPC   NC359351  38.374   3.681   5.485
 4486POPC   PO459352  38.374   3.173   5.679
 4486POPC   GL159353  38.160   3.427   5.954
 4486POPC   GL259354  38.156   3.137   6.178
 4486POPC   C1A59355  38.030   3.578   6.369
 4486POPC   D2A59356  38.209   3.302   6.700
 4486POPC   C3A59357  38.276   3.559   7.054
 4486POPC   C4A59358  38.108   3.910   7.290
 4486POPC   C1B59359  38.514   3.446   6.306
 4486POPC   C2B59360  38.741   3.403   6.690
 4486POPC   C3B59361  38.690   3.280   7.137
 4486POPC   C4B59362  38.374   3.249   7.485
 4487POPC   NC359363  26.264  44.392   5.128
 4487POPC   PO459364  25.873  43.984   5.529
 4487POPC   GL159365  26.105  43.846   5.905
 4487POPC   GL259366  26.422  43.693   5.868
 4487POPC   C1A59367  26.186  44.068   6.285
 4487POPC   D2A59368  25.925  44.234   6.614
 4487POPC   C3A59369  25.995  43.991   6.948
 4487POPC   C4A59370  25.763  43.864   7.292
 4487POPC   C1B59371  26.256  43.491   6.260
 4487POPC   C2B59372  26.131  43.553   6.696
 4487POPC   C3B59373  25.704  43.562   6.874
 4487POPC   C4B59374  25.545  43.402   7.247
 4488POPC   NC359375  43.886  25.852   5.439
 4488POPC   PO459376  43.341  26.123   5.419
 4488POPC   GL159377  43.509  25.881   5.789
 4488POPC   GL259378  43.837  26.069   5.897
 4488POPC   C1A59379  43.644  25.751   6.232
 4488POPC   D2A59380  43.946  25.924   6.549
 4488POPC   C3A59381  43.918  25.920   7.023
 4488POPC   C4A59382  43.734  25.804   7.434
 4488POPC   C1B59383  43.713  26.289   6.279
 4488POPC   C2B59384  43.755  26.359   6.749
 4488POPC   C3B59385  43.874  26.408   7.196
 4488POPC   C4B59386  44.064  26.633   7.573
 4489POPC   NC359387  35.406  15.469   5.411
 4489POPC   PO459388  35.281  16.112   5.328
 4489POPC   GL159389  35.418  16.077   5.747
 4489POPC   GL259390  35.594  16.401   5.725
 4489POPC   C1A59391  35.394  15.803   6.143
 4489POPC   D2A59392  35.580  15.733   6.581
 4489POPC   C3A59393  35.319  15.887   6.936
 4489POPC   C4A59394  35.030  15.685   7.210
 4489POPC   C1B59395  35.641  16.276   6.162
 4489POPC   C2B59396  35.675  16.364   6.577
 4489POPC   C3B59397  35.677  16.378   6.996
 4489POPC   C4B59398  35.431  16.278   7.337
 4490POPC   NC359399  39.008  28.601   5.391
 4490POPC   PO459400  39.514  28.211   5.509
 4490POPC   GL159401  39.374  28.524   5.760
 4490POPC   GL259402  39.096  28.299   5.820
 4490POPC   C1A59403  39.426  28.520   6.200
 4490POPC   D2A59404  39.107  28.621   6.517
 4490POPC   C3A59405  39.246  28.436   6.892
 4490POPC   C4A59406  39.368  28.544   7.288
 4490POPC   C1B59407  39.077  28.151   6.238
 4490POPC   C2B59408  38.823  28.189   6.597
 4490POPC   C3B59409  38.755  28.373   6.988
 4490POPC   C4B59410  38.973  28.188   7.349
 4491POPC   NC359411  17.140  27.479   5.317
 4491POPC   PO459412  16.490  27.773   5.305
 4491POPC   GL159413  16.737  27.846   5.701
 4491POPC   GL259414  16.874  27.520   5.755
 4491POPC   C1A59415  16.597  27.736   6.157
 4491POPC   D2A59416  16.470  27.385   6.470
 4491POPC   C3A59417  16.345  27.584   6.859
 4491POPC   C4A59418  16.609  27.897   7.016
 4491POPC   C1B59419  17.025  27.446   6.172
 4491POPC   C2B59420  17.108  27.340   6.605
 4491POPC   C3B59421  16.896  27.426   7.004
 4491POPC   C4B59422  17.199  27.708   7.198
 4492POPC   NC359423   3.063  35.248   5.341
 4492POPC   PO459424   3.659  35.597   5.203
 4492POPC   GL159425   3.521  35.482   5.687
 4492POPC   GL259426   3.350  35.742   5.874
 4492POPC   C1A59427   3.445  35.347   6.174
 4492POPC   D2A59428   3.188  35.274   6.580
 4492POPC   C3A59429   3.358  35.451   6.943
 4492POPC   C4A59430   3.782  35.333   7.021
 4492POPC   C1B59431   3.713  35.806   6.222
 4492POPC   C2B59432   3.856  35.702   6.634
 4492POPC   C3B59433   3.781  35.836   7.029
 4492POPC   C4B59434   3.392  35.920   7.173
 4493POPC   NC359435  19.275   0.226   5.569
 4493POPC   PO459436  18.951   0.788   5.431
 4493POPC   GL159437  18.879   0.525   5.824
 4493POPC   GL259438  18.821   0.135   5.807
 4493POPC   C1A59439  18.989   0.638   6.272
 4493POPC   D2A59440  18.886   0.783   6.724
 4493POPC   C3A59441  19.096   0.564   7.019
 4493POPC   C4A59442  19.237   0.162   7.245
 4493POPC   C1B59443  18.718   0.218   6.228
 4493POPC   C2B59444  18.904   0.271   6.641
 4493POPC   C3B59445  18.748   0.199   7.052
 4493POPC   C4B59446  18.780   0.081   7.477
 4494POPC   NC359447   9.851  12.378   5.372
 4494POPC   PO459448   9.514  12.917   5.337
 4494POPC   GL159449   9.540  12.928   5.743
 4494POPC   GL259450   9.596  12.592   5.763
 4494POPC   C1A59451   9.717  12.994   6.155
 4494POPC   D2A59452   9.919  13.115   6.534
 4494POPC   C3A59453   9.680  13.245   6.844
 4494POPC   C4A59454   9.736  13.158   7.250
 4494POPC   C1B59455   9.751  12.463   6.171
 4494POPC   C2B59456   9.799  12.612   6.565
 4494POPC   C3B59457   9.809  12.750   6.943
 4494POPC   C4B59458   9.635  12.662   7.330
 4495POPC   NC359459   3.408  32.467   5.389
 4495POPC   PO459460   3.609  31.799   5.338
 4495POPC   GL159461   3.545  32.086   5.735
 4495POPC   GL259462   3.747  32.396   5.826
 4495POPC   C1A59463   3.318  32.278   6.114
 4495POPC   D2A59464   3.477  32.486   6.530
 4495POPC   C3A59465   3.490  32.313   7.003
 4495POPC   C4A59466   3.638  32.367   7.468
 4495POPC   C1B59467   3.782  32.180   6.259
 4495POPC   C2B59468   4.016  31.836   6.423
 4495POPC   C3B59469   3.953  31.788   6.849
 4495POPC   C4B59470   3.919  32.057   7.196
 4496POPC   NC359471  44.928   6.073   5.070
 4496POPC   PO459472  44.591   5.579   5.446
 4496POPC   GL159473  44.541   5.764   5.844
 4496POPC   GL259474  44.179   5.922   5.880
 4496POPC   C1A59475  44.868   5.856   6.201
 4496POPC   D2A59476  44.955   6.005   6.627
 4496POPC   C3A59477  44.918   5.743   7.008
 4496POPC   C4A59478  44.779   5.862   7.428
 4496POPC   C1B59479  44.373   5.921   6.287
 4496POPC   C2B59480  44.508   5.738   6.672
 4496POPC   C3B59481  44.417   5.921   7.070
 4496POPC   C4B59482  44.285   5.834   7.508
 4497POPC   NC359483  29.500  41.169   5.612
 4497POPC   PO459484  29.008  41.584   5.262
 4497POPC   GL159485  29.156  41.587   5.678
 4497POPC   GL259486  29.020  41.293   5.799
 4497POPC   C1A59487  29.255  41.689   6.128
 4497POPC   D2A59488  29.085  41.668   6.568
 4497POPC   C3A59489  29.217  41.807   6.978
 4497POPC   C4A59490  29.441  41.533   7.191
 4497POPC   C1B59491  28.901  41.323   6.221
 4497POPC   C2B59492  28.782  41.117   6.622
 4497POPC   C3B59493  29.055  41.185   6.959
 4497POPC   C4B59494  28.934  41.465   7.251
 4498POPC   NC359495   1.863  38.789   5.292
 4498POPC   PO459496   2.155  38.174   5.138
 4498POPC   GL159497   2.010  38.244   5.603
 4498POPC   GL259498   2.016  38.554   5.713
 4498POPC   C1A59499   1.754  38.207   6.017
 4498POPC   D2A59500   1.792  38.167   6.483
 4498POPC   C3A59501   2.081  38.385   6.716
 4498POPC   C4A59502   2.060  38.521   7.127
 4498POPC   C1B59503   1.707  38.726   5.974
 4498POPC   C2B59504   1.749  38.718   6.407
 4498POPC   C3B59505   1.850  38.856   6.799
 4498POPC   C4B59506   1.922  39.011   7.184
 4499POPC   NC359507  21.595  25.075   5.418
 4499POPC   PO459508  21.152  25.503   5.401
 4499POPC   GL159509  21.284  25.308   5.763
 4499POPC   GL259510  21.104  25.003   5.821
 4499POPC   C1A59511  21.399  25.461   6.183
 4499POPC   D2A59512  21.201  25.618   6.550
 4499POPC   C3A59513  21.369  25.417   6.887
 4499POPC   C4A59514  21.498  25.415   7.304
 4499POPC   C1B59515  21.481  24.950   6.087
 4499POPC   C2B59516  21.521  25.073   6.519
 4499POPC   C3B59517  21.640  24.961   6.941
 4499POPC   C4B59518  21.950  25.085   7.229
 4500POPC   NC359519   5.651  16.749   5.452
 4500POPC   PO459520   5.053  17.051   5.498
 4500POPC   GL159521   5.068  16.864   5.903
 4500POPC   GL259522   5.312  16.626   5.848
 4500POPC   C1A59523   4.916  16.703   6.307
 4500POPC   D2A59524   4.655  16.726   6.699
 4500POPC   C3A59525   4.942  16.789   7.030
 4500POPC   C4A59526   4.980  16.723   7.466
 4500POPC   C1B59527   5.482  16.653   6.236
 4500POPC   C2B59528   5.343  16.724   6.640
 4500POPC   C3B59529   5.480  16.853   7.020
 4500POPC   C4B59530   5.486  16.633   7.405
 4501POPC   NC359531  22.557   8.465   5.000
 4501POPC   PO459532  22.194   8.589   5.420
 4501POPC   GL159533  22.175   8.555   5.892
 4501POPC   GL259534  22.402   8.283   5.980
 4501POPC   C1A59535  22.072   8.422   6.356
 4501POPC   D2A59536  22.281   8.149   6.696
 4501POPC   C3A59537  22.177   8.279   7.132
 4501POPC   C4A59538  21.838   8.159   7.440
 4501POPC   C1B59539  22.555   8.550   6.330
 4501POPC   C2B59540  22.519   8.574   6.790
 4501POPC   C3B59541  22.695   8.245   7.097
 4501POPC   C4B59542  22.634   8.269   7.577
 4502POPC   NC359543  31.434  17.828   5.207
 4502POPC   PO459544  31.512  17.222   5.531
 4502POPC   GL159545  31.259  17.326   5.896
 4502POPC   GL259546  31.374  17.682   5.954
 4502POPC   C1A59547  31.169  17.440   6.339
 4502POPC   D2A59548  31.391  17.737   6.609
 4502POPC   C3A59549  31.438  17.602   7.024
 4502POPC   C4A59550  31.176  17.247   7.142
 4502POPC   C1B59551  31.704  17.871   6.213
 4502POPC   C2B59552  31.939  17.867   6.601
 4502POPC   C3B59553  31.884  17.980   7.022
 4502POPC   C4B59554  31.832  17.732   7.395
 4503POPC   NC359555  40.173  12.434   5.260
 4503POPC   PO459556  39.821  11.947   5.564
 4503POPC   GL159557  40.088  11.923   5.910
 4503POPC   GL259558  40.312  12.172   5.941
 4503POPC   C1A59559  40.108  12.021   6.375
 4503POPC   D2A59560  39.941  12.184   6.757
 4503POPC   C3A59561  40.086  11.878   7.087
 4503POPC   C4A59562  40.272  11.672   7.469
 4503POPC   C1B59563  40.415  12.426   6.308
 4503POPC   C2B59564  40.402  12.389   6.732
 4503POPC   C3B59565  40.279  12.342   7.121
 4503POPC   C4B59566  40.124  12.642   7.359
 4504POPC   NC359567  38.178  16.594   5.386
 4504POPC   PO459568  38.694  16.752   5.294
 4504POPC   GL159569  38.519  16.841   5.714
 4504POPC   GL259570  38.371  16.528   5.888
 4504POPC   C1A59571  38.460  16.948   6.162
 4504POPC   D2A59572  38.557  16.594   6.437
 4504POPC   C3A59573  38.538  16.602   6.885
 4504POPC   C4A59574  38.640  16.233   7.110
 4504POPC   C1B59575  38.083  16.449   6.270
 4504POPC   C2B59576  38.140  16.302   6.713
 4504POPC   C3B59577  38.120  16.429   7.161
 4504POPC   C4B59578  38.018  16.677   7.543
 4505POPC   NC359579  44.179  34.572   5.226
 4505POPC   PO459580  43.629  34.919   5.076
 4505POPC   GL159581  43.721  34.572   5.502
 4505POPC   GL259582  43.994  34.693   5.744
 4505POPC   C1A59583  43.728  34.354   6.001
 4505POPC   D2A59584  43.922  34.485   6.448
 4505POPC   C3A59585  43.915  34.334   6.903
 4505POPC   C4A59586  43.627  34.352   7.236
 4505POPC   C1B59587  44.204  34.797   6.164
 4505POPC   C2B59588  44.276  34.948   6.613
 4505POPC   C3B59589  44.337  34.764   7.003
 4505POPC   C4B59590  43.974  34.736   7.238
 4506POPC   NC359591  35.017  32.974   5.402
 4506POPC   PO459592  35.632  33.000   5.246
 4506POPC   GL159593  35.430  33.204   5.640
 4506POPC   GL259594  35.668  33.258   5.898
 4506POPC   C1A59595  35.224  33.036   6.052
 4506POPC   D2A59596  35.309  32.878   6.478
 4506POPC   C3A59597  34.994  32.929   6.767
 4506POPC   C4A59598  35.108  32.970   7.178
 4506POPC   C1B59599  35.719  32.872   6.177
 4506POPC   C2B59600  35.819  32.867   6.651
 4506POPC   C3B59601  35.667  32.841   7.069
 4506POPC   C4B59602  35.664  33.196   7.338
 4507POPC   NC359603  33.864  29.089   5.467
 4507POPC   PO459604  33.660  29.686   5.496
 4507POPC   GL159605  33.815  29.449   5.900
 4507POPC   GL259606  34.006  29.142   5.946
 4507POPC   C1A59607  33.945  29.413   6.374
 4507POPC   D2A59608  34.070  29.356   6.823
 4507POPC   C3A59609  33.746  29.403   7.177
 4507POPC   C4A59610  33.569  29.269   7.603
 4507POPC   C1B59611  33.803  28.924   6.278
 4507POPC   C2B59612  33.744  28.953   6.725
 4507POPC   C3B59613  33.857  28.910   7.149
 4507POPC   C4B59614  33.690  28.666   7.520
 4508POPC   NC359615  18.002  26.573   5.418
 4508POPC   PO459616  18.498  27.067   5.421
 4508POPC   GL159617  18.243  26.960   5.769
 4508POPC   GL259618  18.277  26.601   5.842
 4508POPC   C1A59619  18.161  26.945   6.225
 4508POPC   D2A59620  18.422  26.775   6.557
 4508POPC   C3A59621  18.432  26.929   6.971
 4508POPC   C4A59622  18.770  27.018   7.192
 4508POPC   C1B59623  17.958  26.466   6.166
 4508POPC   C2B59624  17.902  26.615   6.620
 4508POPC   C3B59625  18.085  26.578   7.046
 4508POPC   C4B59626  18.013  26.639   7.535
 4509POPC   NC359627  26.985  25.269   5.381
 4509POPC   PO459628  26.341  25.403   5.577
 4509POPC   GL159629  26.636  25.152   5.868
 4509POPC   GL259630  26.999  24.990   5.817
 4509POPC   C1A59631  26.699  25.275   6.318
 4509POPC   D2A59632  26.831  25.531   6.696
 4509POPC   C3A59633  26.576  25.411   7.048
 4509POPC   C4A59634  26.637  25.184   7.437
 4509POPC   C1B59635  27.156  25.114   6.210
 4509POPC   C2B59636  27.089  24.993   6.613
 4509POPC   C3B59637  26.922  25.015   7.012
 4509POPC   C4B59638  27.115  25.037   7.415
 4510POPC   NC359639  29.062  39.582   5.457
 4510POPC   PO459640  29.389  39.050   5.285
 4510POPC   GL159641  29.413  38.938   5.731
 4510POPC   GL259642  29.255  39.226   5.876
 4510POPC   C1A59643  29.494  38.922   6.210
 4510POPC   D2A59644  29.332  38.837   6.651
 4510POPC   C3A59645  29.389  38.995   7.100
 4510POPC   C4A59646  29.208  39.261   7.470
 4510POPC   C1B59647  29.097  39.435   6.277
 4510POPC   C2B59648  28.826  39.578   6.654
 4510POPC   C3B59649  28.730  39.566   7.105
 4510POPC   C4B59650  28.787  39.540   7.551
 4511POPC   NC359651  15.100   8.374   5.063
 4511POPC   PO459652  15.487   8.741   5.370
 4511POPC   GL159653  15.322   8.939   5.804
 4511POPC   GL259654  15.303   9.302   5.860
 4511POPC   C1A59655  15.310   9.040   6.298
 4511POPC   D2A59656  15.177   9.219   6.725
 4511POPC   C3A59657  15.250   8.912   7.103
 4511POPC   C4A59658  15.587   8.593   7.211
 4511POPC   C1B59659  14.935   9.391   6.211
 4511POPC   C2B59660  14.722   9.468   6.672
 4511POPC   C3B59661  14.844   9.315   7.130
 4511POPC   C4B59662  15.263   9.362   7.335
 4512POPC   NC359663  31.378  21.539   5.350
 4512POPC   PO459664  31.310  22.073   5.685
 4512POPC   GL159665  31.196  21.638   5.822
 4512POPC   GL259666  31.494  21.387   5.824
 4512POPC   C1A59667  31.140  21.385   6.207
 4512POPC   D2A59668  31.306  21.401   6.626
 4512POPC   C3A59669  31.214  21.322   7.058
 4512POPC   C4A59670  31.563  21.372   7.359
 4512POPC   C1B59671  31.513  21.008   6.096
 4512POPC   C2B59672  31.450  20.906   6.536
 4512POPC   C3B59673  31.652  21.100   6.901
 4512POPC   C4B59674  31.912  21.004   7.267
 4513POPC   NC359675  30.500  34.260   5.392
 4513POPC   PO459676  31.087  34.574   5.508
 4513POPC   GL159677  30.886  34.740   5.840
 4513POPC   GL259678  30.634  34.477   5.856
 4513POPC   C1A59679  30.871  34.721   6.270
 4513POPC   D2A59680  30.941  34.466   6.602
 4513POPC   C3A59681  30.767  34.708   6.898
 4513POPC   C4A59682  30.779  34.591   7.297
 4513POPC   C1B59683  30.368  34.674   6.186
 4513POPC   C2B59684  30.300  34.630   6.633
 4513POPC   C3B59685  30.286  34.558   7.099
 4513POPC   C4B59686  30.367  34.676   7.570
 4514POPC   NC359687  39.050  12.973   5.503
 4514POPC   PO459688  39.480  12.424   5.399
 4514POPC   GL159689  39.366  12.648   5.762
 4514POPC   GL259690  39.030  12.468   5.760
 4514POPC   C1A59691  39.408  12.907   6.165
 4514POPC   D2A59692  39.539  13.140   6.564
 4514POPC   C3A59693  39.279  13.022   6.840
 4514POPC   C4A59694  39.188  12.887   7.200
 4514POPC   C1B59695  39.240  12.380   6.169
 4514POPC   C2B59696  39.227  12.591   6.558
 4514POPC   C3B59697  39.394  12.475   6.938
 4514POPC   C4B59698  39.268  12.313   7.319
 4515POPC   NC359699  17.465   6.031   5.340
 4515POPC   PO459700  18.013   6.088   5.632
 4515POPC   GL159701  17.621   5.866   5.812
 4515POPC   GL259702  17.298   5.990   5.848
 4515POPC   C1A59703  17.454   5.656   6.212
 4515POPC   D2A59704  17.396   5.785   6.660
 4515POPC   C3A59705  17.581   5.558   7.008
 4515POPC   C4A59706  17.749   5.803   7.325
 4515POPC   C1B59707  17.094   6.020   6.275
 4515POPC   C2B59708  16.969   6.206   6.665
 4515POPC   C3B59709  17.179   6.117   7.027
 4515POPC   C4B59710  17.129   5.715   7.183
 4516POPC   NC359711  23.937  14.298   5.173
 4516POPC   PO459712  23.457  14.740   5.333
 4516POPC   GL159713  23.679  14.444   5.652
 4516POPC   GL259714  23.908  14.653   5.858
 4516POPC   C1A59715  23.745  14.221   6.075
 4516POPC   D2A59716  23.600  14.265   6.501
 4516POPC   C3A59717  23.357  14.022   6.799
 4516POPC   C4A59718  23.379  14.212   7.222
 4516POPC   C1B59719  24.039  14.590   6.304
 4516POPC   C2B59720  24.136  14.269   6.613
 4516POPC   C3B59721  23.855  14.202   6.943
 4516POPC   C4B59722  23.834  14.485   7.257
 4517POPC   NC359723   8.565  22.212   5.419
 4517POPC   PO459724   9.245  22.326   5.261
 4517POPC   GL159725   9.128  22.060   5.653
 4517POPC   GL259726   8.794  21.957   5.779
 4517POPC   C1A59727   9.181  22.014   6.116
 4517POPC   D2A59728   9.093  22.180   6.549
 4517POPC   C3A59729   9.222  21.940   6.926
 4517POPC   C4A59730   9.085  21.956   7.352
 4517POPC   C1B59731   8.663  22.147   6.170
 4517POPC   C2B59732   8.644  21.957   6.585
 4517POPC   C3B59733   8.727  22.111   6.983
 4517POPC   C4B59734   8.526  22.451   7.129
 4518POPC   NC359735  16.028  41.073   5.264
 4518POPC   PO459736  15.779  40.629   5.674
 4518POPC   GL159737  16.124  40.829   5.861
 4518POPC   GL259738  16.340  41.141   5.751
 4518POPC   C1A59739  16.151  40.700   6.274
 4518POPC   D2A59740  16.170  40.427   6.635
 4518POPC   C3A59741  16.003  40.536   7.016
 4518POPC   C4A59742  15.707  40.378   7.284
 4518POPC   C1B59743  16.371  41.165   6.229
 4518POPC   C2B59744  16.118  41.053   6.637
 4518POPC   C3B59745  15.770  40.960   6.913
 4518POPC   C4B59746  15.810  40.884   7.375
 4519POPC   NC359747  27.897  18.284   5.303
 4519POPC   PO459748  27.326  18.289   5.407
 4519POPC   GL159749  27.599  18.247   5.797
 4519POPC   GL259750  27.981  18.214   5.813
 4519POPC   C1A59751  27.615  18.271   6.269
 4519POPC   D2A59752  27.463  18.195   6.709
 4519POPC   C3A59753  27.632  18.403   7.096
 4519POPC   C4A59754  27.683  18.242   7.522
 4519POPC   C1B59755  28.037  17.979   6.233
 4519POPC   C2B59756  27.930  17.978   6.704
 4519POPC   C3B59757  27.974  18.030   7.154
 4519POPC   C4B59758  27.832  17.755   7.503
 4520POPC   NC359759  30.207   7.429   5.189
 4520POPC   PO459760  29.603   7.237   5.353
 4520POPC   GL159761  29.931   7.180   5.684
 4520POPC   GL259762  30.078   7.522   5.748
 4520POPC   C1A59763  29.891   7.245   6.159
 4520POPC   D2A59764  29.962   7.410   6.585
 4520POPC   C3A59765  29.909   7.154   6.950
 4520POPC   C4A59766  29.933   6.865   7.335
 4520POPC   C1B59767  30.242   7.654   6.189
 4520POPC   C2B59768  30.318   7.771   6.653
 4520POPC   C3B59769  30.065   7.657   7.044
 4520POPC   C4B59770  30.141   7.709   7.533
 4521POPC   NC359771  33.971  42.844   5.453
 4521POPC   PO459772  33.581  43.346   5.277
 4521POPC   GL159773  33.575  43.117   5.668
 4521POPC   GL259774  33.903  43.261   5.777
 4521POPC   C1A59775  33.597  42.923   6.106
 4521POPC   D2A59776  33.468  43.133   6.506
 4521POPC   C3A59777  33.572  43.057   6.945
 4521POPC   C4A59778  33.536  43.337   7.256
 4521POPC   C1B59779  33.925  43.283   6.238
 4521POPC   C2B59780  33.991  43.095   6.658
 4521POPC   C3B59781  34.024  43.294   7.077
 4521POPC   C4B59782  34.375  43.450   7.345
 4522POPC   NC359783   5.643  42.767   5.616
 4522POPC   PO459784   5.612  42.235   5.169
 4522POPC   GL159785   5.779  42.231   5.636
 4522POPC   GL259786   5.556  42.289   5.913
 4522POPC   C1A59787   6.133  42.329   5.978
 4522POPC   D2A59788   6.213  42.158   6.426
 4522POPC   C3A59789   6.033  42.256   6.838
 4522POPC   C4A59790   6.164  42.239   7.276
 4522POPC   C1B59791   5.759  42.496   6.274
 4522POPC   C2B59792   5.797  42.890   6.503
 4522POPC   C3B59793   5.901  42.791   6.939
 4522POPC   C4B59794   5.774  42.632   7.374
 4523POPC   NC359795  37.444  27.295   5.489
 4523POPC   PO459796  37.877  27.767   5.348
 4523POPC   GL159797  37.691  27.651   5.744
 4523POPC   GL259798  37.907  27.382   5.778
 4523POPC   C1A59799  37.502  27.471   6.132
 4523POPC   D2A59800  37.659  27.366   6.542
 4523POPC   C3A59801  37.484  27.543   6.909
 4523POPC   C4A59802  37.340  27.371   7.254
 4523POPC   C1B59803  38.023  27.577   6.186
 4523POPC   C2B59804  37.992  27.747   6.620
 4523POPC   C3B59805  38.188  27.664   7.028
 4523POPC   C4B59806  38.346  27.577   7.474
 4524POPC   NC359807  21.090  28.230   5.440
 4524POPC   PO459808  21.741  27.978   5.563
 4524POPC   GL159809  21.454  28.199   5.872
 4524POPC   GL259810  21.071  28.260   5.928
 4524POPC   C1A59811  21.384  28.263   6.326
 4524POPC   D2A59812  21.673  28.262   6.645
 4524POPC   C3A59813  21.589  28.555   6.936
 4524POPC   C4A59814  21.549  28.450   7.347
 4524POPC   C1B59815  20.919  28.515   6.274
 4524POPC   C2B59816  21.118  28.549   6.689
 4524POPC   C3B59817  21.139  28.328   7.065
 4524POPC   C4B59818  21.105  28.278   7.516
 4525POPC   NC359819  29.335  33.598   5.418
 4525POPC   PO459820  28.911  33.125   5.632
 4525POPC   GL159821  29.045  33.516   5.842
 4525POPC   GL259822  29.089  33.916   5.785
 4525POPC   C1A59823  29.199  33.676   6.221
 4525POPC   D2A59824  29.039  33.794   6.623
 4525POPC   C3A59825  29.102  33.716   7.062
 4525POPC   C4A59826  29.046  33.392   7.389
 4525POPC   C1B59827  28.923  34.097   6.213
 4525POPC   C2B59828  28.886  34.276   6.692
 4525POPC   C3B59829  29.106  34.279   7.108
 4525POPC   C4B59830  29.365  34.046   7.360
 4526POPC   NC359831   6.063  34.620   5.543
 4526POPC   PO459832   6.712  34.343   5.577
 4526POPC   GL159833   6.770  34.733   5.805
 4526POPC   GL259834   6.430  34.692   5.887
 4526POPC   C1A59835   6.752  34.768   6.272
 4526POPC   D2A59836   6.743  34.507   6.658
 4526POPC   C3A59837   6.874  34.649   7.073
 4526POPC   C4A59838   7.042  34.779   7.502
 4526POPC   C1B59839   6.324  34.427   6.253
 4526POPC   C2B59840   6.243  34.378   6.682
 4526POPC   C3B59841   6.457  34.276   7.042
 4526POPC   C4B59842   6.286  34.410   7.459
 4527POPC   NC359843  19.401  16.390   5.387
 4527POPC   PO459844  18.786  16.178   5.369
 4527POPC   GL159845  18.856  16.448   5.757
 4527POPC   GL259846  19.177  16.557   5.857
 4527POPC   C1A59847  18.873  16.480   6.252
 4527POPC   D2A59848  19.172  16.459   6.610
 4527POPC   C3A59849  19.005  16.633   6.984
 4527POPC   C4A59850  18.777  16.474   7.320
 4527POPC   C1B59851  19.245  16.836   6.232
 4527POPC   C2B59852  19.382  16.945   6.646
 4527POPC   C3B59853  19.268  17.068   7.079
 4527POPC   C4B59854  18.953  16.930   7.408
 4528POPC   NC359855  43.702  31.900   5.281
 4528POPC   PO459856  43.692  32.463   5.050
 4528POPC   GL159857  43.758  32.331   5.566
 4528POPC   GL259858  43.506  32.460   5.821
 4528POPC   C1A59859  43.787  32.079   6.026
 4528POPC   D2A59860  43.989  32.020   6.474
 4528POPC   C3A59861  43.883  32.168   6.911
 4528POPC   C4A59862  43.881  32.063   7.358
 4528POPC   C1B59863  43.886  32.586   6.095
 4528POPC   C2B59864  44.011  32.533   6.542
 4528POPC   C3B59865  43.751  32.676   6.885
 4528POPC   C4B59866  43.658  32.501   7.260
 4529POPC   NC359867  32.632  16.804   5.411
 4529POPC   PO459868  32.014  16.399   5.428
 4529POPC   GL159869  32.244  16.668   5.755
 4529POPC   GL259870  32.614  16.543   5.829
 4529POPC   C1A59871  32.053  16.860   6.157
 4529POPC   D2A59872  31.795  16.725   6.536
 4529POPC   C3A59873  32.031  16.717   6.928
 4529POPC   C4A59874  32.244  16.980   7.180
 4529POPC   C1B59875  32.570  16.842   6.145
 4529POPC   C2B59876  32.392  16.921   6.546
 4529POPC   C3B59877  32.632  16.843   6.893
 4529POPC   C4B59878  32.600  16.623   7.274
 4530POPC   NC359879   5.537   2.225   5.333
 4530POPC   PO459880   5.958   1.758   5.455
 4530POPC   GL159881   5.649   1.898   5.751
 4530POPC   GL259882   5.819   2.218   5.778
 4530POPC   C1A59883   5.576   2.034   6.196
 4530POPC   D2A59884   5.773   2.169   6.586
 4530POPC   C3A59885   5.696   1.953   6.989
 4530POPC   C4A59886   5.672   2.121   7.401
 4530POPC   C1B59887   6.103   2.070   6.121
 4530POPC   C2B59888   6.218   1.923   6.525
 4530POPC   C3B59889   6.187   2.106   6.896
 4530POPC   C4B59890   6.149   2.024   7.284
 4531POPC   NC359891   5.596  36.299   5.511
 4531POPC   PO459892   5.963  36.944   5.426
 4531POPC   GL159893   5.938  36.672   5.799
 4531POPC   GL259894   6.251  36.789   5.882
 4531POPC   C1A59895   5.785  36.763   6.239
 4531POPC   D2A59896   5.675  37.083   6.553
 4531POPC   C3A59897   5.771  36.965   6.976
 4531POPC   C4A59898   5.963  36.614   7.174
 4531POPC   C1B59899   6.266  36.630   6.262
 4531POPC   C2B59900   6.196  36.852   6.606
 4531POPC   C3B59901   6.270  36.994   6.967
 4531POPC   C4B59902   6.149  37.332   7.179
 4532POPC   NC359903  28.910  31.069   5.366
 4532POPC   PO459904  29.450  31.610   5.443
 4532POPC   GL159905  29.294  31.422   5.814
 4532POPC   GL259906  29.562  31.184   5.920
 4532POPC   C1A59907  29.014  31.500   6.186
 4532POPC   D2A59908  28.822  31.665   6.589
 4532POPC   C3A59909  28.994  31.464   6.979
 4532POPC   C4A59910  29.190  31.075   7.094
 4532POPC   C1B59911  29.540  31.464   6.246
 4532POPC   C2B59912  29.342  31.612   6.596
 4532POPC   C3B59913  29.507  31.476   6.979
 4532POPC   C4B59914  29.365  31.537   7.366
 4533POPC   NC359915  14.628   4.231   5.613
 4533POPC   PO459916  14.141   3.808   5.445
 4533POPC   GL159917  14.206   4.058   5.850
 4533POPC   GL259918  14.254   4.406   5.994
 4533POPC   C1A59919  14.456   4.034   6.250
 4533POPC   D2A59920  14.245   4.178   6.627
 4533POPC   C3A59921  14.503   4.247   6.952
 4533POPC   C4A59922  14.553   4.086   7.350
 4533POPC   C1B59923  14.665   4.520   6.248
 4533POPC   C2B59924  14.871   4.567   6.679
 4533POPC   C3B59925  14.739   4.821   7.024
 4533POPC   C4B59926  14.465   4.625   7.282
 4534POPC   NC359927  10.172  34.533   5.199
 4534POPC   PO459928  10.732  34.925   5.217
 4534POPC   GL159929  10.490  34.886   5.654
 4534POPC   GL259930  10.403  34.532   5.773
 4534POPC   C1A59931  10.560  34.869   6.148
 4534POPC   D2A59932  10.412  34.721   6.586
 4534POPC   C3A59933  10.552  34.815   7.012
 4534POPC   C4A59934  10.347  34.770   7.437
 4534POPC   C1B59935  10.438  34.284   6.182
 4534POPC   C2B59936  10.457  34.197   6.636
 4534POPC   C3B59937  10.478  34.310   7.064
 4534POPC   C4B59938  10.328  34.186   7.451
 4535POPC   NC359939  33.281   3.603   5.438
 4535POPC   PO459940  32.561   3.586   5.557
 4535POPC   GL159941  32.885   3.703   5.819
 4535POPC   GL259942  32.965   3.363   5.836
 4535POPC   C1A59943  33.017   3.752   6.256
 4535POPC   D2A59944  33.139   3.730   6.687
 4535POPC   C3A59945  32.925   3.862   7.062
 4535POPC   C4A59946  32.942   3.641   7.481
 4535POPC   C1B59947  33.087   3.220   6.242
 4535POPC   C2B59948  33.225   3.223   6.666
 4535POPC   C3B59949  33.172   3.379   7.088
 4535POPC   C4B59950  33.159   3.129   7.476
 4536POPC   NC359951  27.517  29.594   5.524
 4536POPC   PO459952  27.311  30.188   5.395
 4536POPC   GL159953  27.440  30.038   5.809
 4536POPC   GL259954  27.770  29.951   5.910
 4536POPC   C1A59955  27.345  30.021   6.239
 4536POPC   D2A59956  27.339  29.810   6.630
 4536POPC   C3A59957  27.444  30.084   6.988
 4536POPC   C4A59958  27.581  30.127   7.399
 4536POPC   C1B59959  27.984  29.851   6.306
 4536POPC   C2B59960  27.858  29.904   6.732
 4536POPC   C3B59961  27.941  29.880   7.181
 4536POPC   C4B59962  28.038  30.088   7.606
 4537POPC   NC359963  43.194  29.745   5.339
 4537POPC   PO459964  43.126  30.392   5.492
 4537POPC   GL159965  43.278  30.079   5.781
 4537POPC   GL259966  43.400  29.720   5.807
 4537POPC   C1A59967  43.048  30.001   6.174
 4537POPC   D2A59968  42.866  30.200   6.534
 4537POPC   C3A59969  43.065  30.104   6.940
 4537POPC   C4A59970  42.819  30.211   7.281
 4537POPC   C1B59971  43.304  29.577   6.218
 4537POPC   C2B59972  43.208  29.714   6.629
 4537POPC   C3B59973  43.310  29.660   7.070
 4537POPC   C4B59974  43.474  29.568   7.463
 4538POPC   NC359975   0.650  41.552   5.134
 4538POPC   PO459976   0.076  41.886   5.333
 4538POPC   GL159977   0.182  41.670   5.701
 4538POPC   GL259978   0.540  41.578   5.675
 4538POPC   C1A59979   0.186  41.445   6.089
 4538POPC   D2A59980   0.401  41.243   6.479
 4538POPC   C3A59981   0.253  41.308   6.921
 4538POPC   C4A59982   0.253  41.568   7.269
 4538POPC   C1B59983   0.695  41.488   6.104
 4538POPC   C2B59984   0.804  41.599   6.555
 4538POPC   C3B59985   0.723  41.514   7.009
 4538POPC   C4B59986   0.793  41.601   7.465
 4539POPC   NC359987  16.420  37.218   5.632
 4539POPC   PO459988  17.060  37.012   5.600
 4539POPC   GL159989  16.860  36.778   5.931
 4539POPC   GL259990  16.567  36.948   6.097
 4539POPC   C1A59991  16.993  36.821   6.351
 4539POPC   D2A59992  16.997  37.213   6.546
 4539POPC   C3A59993  16.912  37.133   6.966
 4539POPC   C4A59994  16.896  36.745   7.185
 4539POPC   C1B59995  16.426  36.522   6.279
 4539POPC   C2B59996  16.172  36.419   6.644
 4539POPC   C3B59997  16.283  36.628   7.006
 4539POPC   C4B59998  16.458  37.000   7.170
 4540POPC   NC359999  41.746  21.532   5.344
 4540POPC   PO460000  41.617  20.944   5.693
 4540POPC   GL160001  41.533  21.394   5.875
 4540POPC   GL260002  41.829  21.641   5.863
 4540POPC   C1A60003  41.307  21.430   6.299
 4540POPC   D2A60004  41.101  21.196   6.664
 4540POPC   C3A60005  41.323  21.246   7.054
 4540POPC   C4A60006  41.387  21.629   7.242
 4540POPC   C1B60007  41.820  21.565   6.316
 4540POPC   C2B60008  41.981  21.482   6.733
 4540POPC   C3B60009  41.853  21.457   7.165
 4540POPC   C4B60010  41.697  21.454   7.588
 4541POPC   NC360011   6.935  43.201   5.044
 4541POPC   PO460012   7.393  43.164   5.443
 4541POPC   GL160013   7.435  43.024   5.834
 4541POPC   GL260014   7.069  42.974   5.808
 4541POPC   C1A60015   7.597  43.146   6.223
 4541POPC   D2A60016   7.466  43.239   6.653
 4541POPC   C3A60017   7.706  43.369   6.987
 4541POPC   C4A60018   7.626  43.119   7.299
 4541POPC   C1B60019   7.177  42.851   6.240
 4541POPC   C2B60020   7.247  42.783   6.685
 4541POPC   C3B60021   7.191  42.854   7.146
 4541POPC   C4B60022   7.072  42.698   7.593
 4542POPC   NC360023  38.142  22.448   5.490
 4542POPC   PO460024  38.764  22.142   5.486
 4542POPC   GL160025  38.545  21.899   5.819
 4542POPC   GL260026  38.176  21.832   5.724
 4542POPC   C1A60027  38.574  22.055   6.234
 4542POPC   D2A60028  38.510  22.384   6.512
 4542POPC   C3A60029  38.508  22.211   6.908
 4542POPC   C4A60030  38.350  22.451   7.260
 4542POPC   C1B60031  38.076  21.982   6.145
 4542POPC   C2B60032  38.186  21.954   6.580
 4542POPC   C3B60033  37.999  22.124   6.959
 4542POPC   C4B60034  38.228  21.958   7.258
 4543POPC   NC360035  44.611  32.748   5.498
 4543POPC   PO460036  44.752  33.387   5.513
 4543POPC   GL160037  44.525  33.142   5.849
 4543POPC   GL260038  44.239  32.875   5.813
 4543POPC   C1A60039  44.772  33.114   6.223
 4543POPC   D2A60040  44.987  33.204   6.622
 4543POPC   C3A60041  44.871  33.009   7.026
 4543POPC   C4A60042  44.503  33.069   7.276
 4543POPC   C1B60043  44.345  32.807   6.244
 4543POPC   C2B60044  44.544  32.885   6.624
 4543POPC   C3B60045  44.528  32.628   6.977
 4543POPC   C4B60046  44.766  32.552   7.320
 4544POPC   NC360047   5.578  35.847   4.975
 4544POPC   PO460048   6.032  35.974   5.431
 4544POPC   GL160049   5.911  36.017   5.857
 4544POPC   GL260050   5.555  35.986   5.925
 4544POPC   C1A60051   5.918  36.245   6.240
 4544POPC   D2A60052   5.942  36.415   6.652
 4544POPC   C3A60053   6.108  36.157   6.986
 4544POPC   C4A60054   6.054  35.998   7.418
 4544POPC   C1B60055   5.429  36.388   6.147
 4544POPC   C2B60056   5.425  36.565   6.577
 4544POPC   C3B60057   5.536  36.353   6.965
 4544POPC   C4B60058   5.634  36.305   7.445
 4545POPC   NC360059  32.059  34.240   5.392
 4545POPC   PO460060  32.201  34.870   5.557
 4545POPC   GL160061  32.301  34.515   5.821
 4545POPC   GL260062  32.617  34.652   5.969
 4545POPC   C1A60063  32.363  34.322   6.247
 4545POPC   D2A60064  32.226  34.483   6.640
 4545POPC   C3A60065  32.548  34.448   6.932
 4545POPC   C4A60066  32.763  34.222   7.257
 4545POPC   C1B60067  32.267  34.821   6.241
 4545POPC   C2B60068  31.965  34.946   6.494
 4545POPC   C3B60069  32.113  34.918   6.884
 4545POPC   C4B60070  32.185  34.651   7.220
 4546POPC   NC360071  40.012  39.315   5.298
 4546POPC   PO460072  39.938  38.723   5.552
 4546POPC   GL160073  39.945  39.143   5.764
 4546POPC   GL260074  40.325  39.271   5.733
 4546POPC   C1A60075  39.933  39.312   6.168
 4546POPC   D2A60076  40.205  39.128   6.493
 4546POPC   C3A60077  39.947  38.934   6.812
 4546POPC   C4A60078  39.877  39.067   7.239
 4546POPC   C1B60079  40.398  39.489   6.146
 4546POPC   C2B60080  40.183  39.645   6.507
 4546POPC   C3B60081  40.052  39.433   6.893
 4546POPC   C4B60082  40.156  39.500   7.310
 4547POPC   NC360083  31.131  35.032   5.469
 4547POPC   PO460084  30.550  35.424   5.380
 4547POPC   GL160085  30.593  35.621   5.821
 4547POPC   GL260086  30.943  35.654   5.943
 4547POPC   C1A60087  30.513  35.494   6.277
 4547POPC   D2A60088  30.532  35.071   6.485
 4547POPC   C3A60089  30.366  35.083   6.900
 4547POPC   C4A60090  30.395  35.517   7.106
 4547POPC   C1B60091  30.926  35.227   6.112
 4547POPC   C2B60092  31.025  35.135   6.548
 4547POPC   C3B60093  30.830  35.302   6.878
 4547POPC   C4B60094  30.771  35.110   7.237
 4548POPC   NC360095   3.999  20.316   5.317
 4548POPC   PO460096   4.483  20.711   5.244
 4548POPC   GL160097   4.421  20.572   5.677
 4548POPC   GL260098   4.056  20.605   5.783
 4548POPC   C1A60099   4.490  20.719   6.112
 4548POPC   D2A60100   4.311  20.645   6.502
 4548POPC   C3A60101   4.531  20.671   6.883
 4548POPC   C4A60102   4.692  20.588   7.292
 4548POPC   C1B60103   4.023  20.920   6.129
 4548POPC   C2B60104   3.866  20.894   6.540
 4548POPC   C3B60105   3.994  20.743   6.929
 4548POPC   C4B60106   4.194  20.708   7.343
 4549POPC   NC360107  31.781  20.774   5.472
 4549POPC   PO460108  31.316  20.343   5.238
 4549POPC   GL160109  31.387  20.331   5.731
 4549POPC   GL260110  31.724  20.343   5.800
 4549POPC   C1A60111  31.348  20.524   6.187
 4549POPC   D2A60112  31.102  20.483   6.583
 4549POPC   C3A60113  31.235  20.536   7.025
 4549POPC   C4A60114  31.361  20.890   7.296
 4549POPC   C1B60115  31.853  20.485   6.181
 4549POPC   C2B60116  31.902  20.702   6.584
 4549POPC   C3B60117  31.746  20.615   6.995
 4549POPC   C4B60118  31.646  20.485   7.415
 4550POPC   NC360119  19.470  11.414   5.478
 4550POPC   PO460120  20.123  11.223   5.497
 4550POPC   GL160121  19.843  11.233   5.848
 4550POPC   GL260122  19.553  11.007   5.844
 4550POPC   C1A60123  19.942  11.439   6.243
 4550POPC   D2A60124  20.221  11.356   6.582
 4550POPC   C3A60125  20.114  11.455   6.987
 4550POPC   C4A60126  20.009  11.454   7.445
 4550POPC   C1B60127  19.635  11.026   6.295
 4550POPC   C2B60128  19.698  11.277   6.689
 4550POPC   C3B60129  19.714  11.173   7.124
 4550POPC   C4B60130  19.421  10.980   7.401
 4551POPC   NC360131  38.866  36.567   5.382
 4551POPC   PO460132  39.515  36.837   5.271
 4551POPC   GL160133  39.523  36.897   5.745
 4551POPC   GL260134  39.143  36.894   5.847
 4551POPC   C1A60135  39.483  36.804   6.206
 4551POPC   D2A60136  39.166  36.865   6.537
 4551POPC   C3A60137  39.355  36.875   6.948
 4551POPC   C4A60138  39.215  36.818   7.385
 4551POPC   C1B60139  38.895  37.157   6.170
 4551POPC   C2B60140  38.939  37.341   6.613
 4551POPC   C3B60141  38.984  37.211   7.049
 4551POPC   C4B60142  38.861  37.157   7.506
 4552POPC   NC360143  28.542  27.749   5.294
 4552POPC   PO460144  27.928  27.928   5.449
 4552POPC   GL160145  28.206  27.912   5.831
 4552POPC   GL260146  28.559  27.965   5.771
 4552POPC   C1A60147  28.112  27.827   6.282
 4552POPC   D2A60148  28.205  27.454   6.555
 4552POPC   C3A60149  28.177  27.467   7.011
 4552POPC   C4A60150  28.218  27.842   7.181
 4552POPC   C1B60151  28.551  27.630   6.116
 4552POPC   C2B60152  28.699  27.632   6.561
 4552POPC   C3B60153  28.678  27.698   7.004
 4552POPC   C4B60154  28.559  27.532   7.422
 4553POPC   NC360155   1.147  33.503   5.340
 4553POPC   PO460156   1.550  34.033   5.230
 4553POPC   GL160157   1.417  33.787   5.638
 4553POPC   GL260158   1.066  33.785   5.787
 4553POPC   C1A60159   1.434  33.572   6.055
 4553POPC   D2A60160   1.232  33.473   6.443
 4553POPC   C3A60161   1.368  33.486   6.877
 4553POPC   C4A60162   1.078  33.723   7.092
 4553POPC   C1B60163   0.966  33.927   6.234
 4553POPC   C2B60164   1.099  34.184   6.615
 4553POPC   C3B60165   1.086  34.224   7.069
 4553POPC   C4B60166   0.745  34.033   7.350
 4554POPC   NC360167  20.976  29.221   5.510
 4554POPC   PO460168  20.320  29.034   5.423
 4554POPC   GL160169  20.622  29.033   5.829
 4554POPC   GL260170  20.837  29.369   5.963
 4554POPC   C1A60171  20.677  29.033   6.293
 4554POPC   D2A60172  20.380  29.280   6.543
 4554POPC   C3A60173  20.329  29.158   6.977
 4554POPC   C4A60174  20.464  28.879   7.315
 4554POPC   C1B60175  21.124  29.313   6.313
 4554POPC   C2B60176  21.036  29.058   6.673
 4554POPC   C3B60177  20.860  29.186   7.064
 4554POPC   C4B60178  20.963  29.609   7.175
 4555POPC   NC360179  31.090   2.638   5.586
 4555POPC   PO460180  31.656   2.388   5.469
 4555POPC   GL160181  31.573   2.680   5.828
 4555POPC   GL260182  31.524   3.020   5.700
 4555POPC   C1A60183  31.551   2.631   6.291
 4555POPC   D2A60184  31.501   2.342   6.658
 4555POPC   C3A60185  31.390   2.527   7.042
 4555POPC   C4A60186  31.733   2.494   7.338
 4555POPC   C1B60187  31.383   3.113   6.135
 4555POPC   C2B60188  31.471   3.059   6.571
 4555POPC   C3B60189  31.608   3.232   6.952
 4555POPC   C4B60190  31.504   2.972   7.268
 4556POPC   NC360191  14.318  12.641   5.127
 4556POPC   PO460192  14.643  13.052   5.506
 4556POPC   GL160193  14.412  12.849   5.781
 4556POPC   GL260194  14.519  12.528   5.680
 4556POPC   C1A60195  14.359  12.853   6.244
 4556POPC   D2A60196  14.225  12.976   6.665
 4556POPC   C3A60197  14.431  12.840   7.038
 4556POPC   C4A60198  14.510  13.050   7.435
 4556POPC   C1B60199  14.814  12.663   6.053
 4556POPC   C2B60200  14.815  12.681   6.530
 4556POPC   C3B60201  14.751  12.438   6.927
 4556POPC   C4B60202  14.608  12.457   7.358
 4557POPC   NC360203   9.004   0.641   5.404
 4557POPC   PO460204   8.478   0.145   5.422
 4557POPC   GL160205   8.809   0.334   5.772
 4557POPC   GL260206   8.795   0.705   5.860
 4557POPC   C1A60207   8.788   0.377   6.258
 4557POPC   D2A60208   8.629   0.644   6.630
 4557POPC   C3A60209   8.684   0.487   7.058
 4557POPC   C4A60210   8.894   0.114   7.175
 4557POPC   C1B60211   9.204   0.613   6.089
 4557POPC   C2B60212   9.136   0.659   6.546
 4557POPC   C3B60213   9.198   0.518   6.989
 4557POPC   C4B60214   9.243   0.709   7.392
 4558POPC   NC360215   6.103  41.502   5.317
 4558POPC   PO460216   5.498  41.616   5.605
 4558POPC   GL160217   5.888  41.626   5.755
 4558POPC   GL260218   6.148  41.867   5.744
 4558POPC   C1A60219   6.152  41.429   6.025
 4558POPC   D2A60220   6.156  41.382   6.453
 4558POPC   C3A60221   5.788  41.273   6.693
 4558POPC   C4A60222   5.831  41.306   7.125
 4558POPC   C1B60223   5.862  41.923   6.141
 4558POPC   C2B60224   5.844  41.785   6.568
 4558POPC   C3B60225   6.098  41.714   6.927
 4558POPC   C4B60226   5.909  41.780   7.316
 4559POPC   NC360227  23.522  26.778   5.282
 4559POPC   PO460228  24.218  26.608   5.459
 4559POPC   GL160229  23.818  26.747   5.723
 4559POPC   GL260230  23.407  26.822   5.766
 4559POPC   C1A60231  23.820  26.797   6.173
 4559POPC   D2A60232  24.011  26.741   6.581
 4559POPC   C3A60233  23.762  26.866   6.958
 4559POPC   C4A60234  23.468  27.042   7.272
 4559POPC   C1B60235  23.347  26.591   6.142
 4559POPC   C2B60236  23.499  26.553   6.586
 4559POPC   C3B60237  23.431  26.486   7.039
 4559POPC   C4B60238  23.405  26.545   7.503
 4560POPC   NC360239  26.669   6.977   5.667
 4560POPC   PO460240  27.237   6.780   5.483
 4560POPC   GL160241  27.180   6.848   5.944
 4560POPC   GL260242  26.943   7.105   6.068
 4560POPC   C1A60243  27.142   6.808   6.422
 4560POPC   D2A60244  26.965   6.994   6.807
 4560POPC   C3A60245  26.968   6.692   7.129
 4560POPC   C4A60246  27.146   6.258   7.198
 4560POPC   C1B60247  26.648   6.992   6.393
 4560POPC   C2B60248  26.392   6.954   6.777
 4560POPC   C3B60249  26.427   6.727   7.176
 4560POPC   C4B60250  26.667   6.806   7.522
 4561POPC   NC360251  30.833   2.015   5.489
 4561POPC   PO460252  30.219   1.676   5.303
 4561POPC   GL160253  30.421   1.760   5.721
 4561POPC   GL260254  30.495   2.094   5.900
 4561POPC   C1A60255  30.553   1.686   6.160
 4561POPC   D2A60256  30.556   1.974   6.488
 4561POPC   C3A60257  30.730   1.739   6.804
 4561POPC   C4A60258  30.765   1.807   7.220
 4561POPC   C1B60259  30.883   2.216   6.149
 4561POPC   C2B60260  30.987   2.351   6.566
 4561POPC   C3B60261  30.694   2.259   6.908
 4561POPC   C4B60262  30.728   2.367   7.307
 4562POPC   NC360263  22.385  25.674   5.287
 4562POPC   PO460264  22.058  25.081   5.357
 4562POPC   GL160265  21.992  25.216   5.768
 4562POPC   GL260266  22.294  25.059   5.816
 4562POPC   C1A60267  21.897  25.286   6.215
 4562POPC   D2A60268  22.015  25.186   6.636
 4562POPC   C3A60269  21.866  25.483   6.892
 4562POPC   C4A60270  21.972  25.598   7.272
 4562POPC   C1B60271  22.399  25.349   6.123
 4562POPC   C2B60272  22.491  25.334   6.534
 4562POPC   C3B60273  22.368  25.512   6.894
 4562POPC   C4B60274  22.478  25.478   7.282
 4563POPC   NC360275  21.830   9.400   5.382
 4563POPC   PO460276  21.286   9.801   5.363
 4563POPC   GL160277  21.327   9.734   5.785
 4563POPC   GL260278  20.987   9.762   5.811
 4563POPC   C1A60279  21.495   9.663   6.223
 4563POPC   D2A60280  21.800   9.846   6.531
 4563POPC   C3A60281  21.721   9.774   6.949
 4563POPC   C4A60282  21.544  10.121   7.163
 4563POPC   C1B60283  21.000   9.802   6.244
 4563POPC   C2B60284  21.149   9.665   6.657
 4563POPC   C3B60285  21.259   9.626   7.113
 4563POPC   C4B60286  21.183   9.924   7.454
 4564POPC   NC360287  36.514  42.499   5.212
 4564POPC   PO460288  35.895  42.522   5.390
 4564POPC   GL160289  36.005  42.287   5.774
 4564POPC   GL260290  36.126  41.969   5.655
 4564POPC   C1A60291  36.112  42.421   6.218
 4564POPC   D2A60292  36.446  42.302   6.530
 4564POPC   C3A60293  36.340  42.472   6.951
 4564POPC   C4A60294  36.128  42.746   7.298
 4564POPC   C1B60295  36.209  41.935   6.111
 4564POPC   C2B60296  36.023  42.016   6.531
 4564POPC   C3B60297  35.988  42.016   6.963
 4564POPC   C4B60298  36.122  42.244   7.337
 4565POPC   NC360299  35.857  12.035   5.399
 4565POPC   PO460300  36.476  12.105   5.383
 4565POPC   GL160301  36.221  12.197   5.774
 4565POPC   GL260302  35.903  12.388   5.789
 4565POPC   C1A60303  36.152  12.041   6.193
 4565POPC   D2A60304  35.999  11.878   6.561
 4565POPC   C3A60305  36.178  11.979   6.918
 4565POPC   C4A60306  36.259  11.741   7.283
 4565POPC   C1B60307  35.681  12.334   6.195
 4565POPC   C2B60308  35.543  12.144   6.576
 4565POPC   C3B60309  35.692  12.161   6.969
 4565POPC   C4B60310  35.921  12.187   7.328
 4566POPC   NC360311  28.817  34.358   5.422
 4566POPC   PO460312  28.278  34.721   5.283
 4566POPC   GL160313  28.279  34.778   5.719
 4566POPC   GL260314  28.029  34.579   5.860
 4566POPC   C1A60315  28.521  34.584   6.032
 4566POPC   D2A60316  28.508  34.330   6.357
 4566POPC   C3A60317  28.351  34.364   6.751
 4566POPC   C4A60318  28.441  34.489   7.169
 4566POPC   C1B60319  28.008  34.387   6.265
 4566POPC   C2B60320  27.794  34.415   6.666
 4566POPC   C3B60321  27.964  34.329   7.073
 4566POPC   C4B60322  28.054  34.517   7.501
 4567POPC   NC360323  16.245   1.483   5.535
 4567POPC   PO460324  15.644   1.316   5.408
 4567POPC   GL160325  15.782   1.183   5.802
 4567POPC   GL260326  16.050   0.967   5.821
 4567POPC   C1A60327  15.899   1.301   6.222
 4567POPC   D2A60328  15.679   1.373   6.607
 4567POPC   C3A60329  15.938   1.413   6.923
 4567POPC   C4A60330  16.055   1.545   7.326
 4567POPC   C1B60331  16.055   0.804   6.220
 4567POPC   C2B60332  16.050   0.980   6.619
 4567POPC   C3B60333  16.119   0.935   7.030
 4567POPC   C4B60334  15.966   1.035   7.405
 4568POPC   NC360335   0.124  31.280   5.181
 4568POPC   PO460336  44.533  31.606   5.347
 4568POPC   GL160337  44.734  31.605   5.757
 4568POPC   GL260338  44.498  31.411   5.933
 4568POPC   C1A60339  44.964  31.514   6.167
 4568POPC   D2A60340  44.746  31.359   6.531
 4568POPC   C3A60341  44.818  31.201   6.943
 4568POPC   C4A60342  44.452  31.257   7.198
 4568POPC   C1B60343  44.539  31.809   6.190
 4568POPC   C2B60344  44.754  31.880   6.565
 4568POPC   C3B60345  44.644  31.690   6.947
 4568POPC   C4B60346  44.365  31.759   7.284
 4569POPC   NC360347  42.652  34.003   5.290
 4569POPC   PO460348  42.043  33.725   5.049
 4569POPC   GL160349  42.079  33.893   5.563
 4569POPC   GL260350  42.386  33.862   5.707
 4569POPC   C1A60351  42.000  33.937   6.052
 4569POPC   D2A60352  41.960  34.126   6.477
 4569POPC   C3A60353  41.973  33.912   6.852
 4569POPC   C4A60354  42.070  34.006   7.276
 4569POPC   C1B60355  42.436  33.714   6.136
 4569POPC   C2B60356  42.431  33.915   6.551
 4569POPC   C3B60357  42.468  33.836   6.979
 4569POPC   C4B60358  42.350  33.516   7.255
 4570POPC   NC360359  38.734  23.254   5.484
 4570POPC   PO460360  38.146  22.927   5.434
 4570POPC   GL160361  38.375  22.962   5.790
 4570POPC   GL260362  38.291  23.313   5.769
 4570POPC   C1A60363  38.640  22.777   6.148
 4570POPC   D2A60364  38.792  22.887   6.569
 4570POPC   C3A60365  38.638  22.709   6.907
 4570POPC   C4A60366  38.182  22.678   6.841
 4570POPC   C1B60367  38.532  23.278   6.150
 4570POPC   C2B60368  38.461  23.320   6.568
 4570POPC   C3B60369  38.565  23.300   6.987
 4570POPC   C4B60370  38.435  22.973   7.271
 4571POPC   NC360371   1.760  19.383   5.364
 4571POPC   PO460372   2.138  20.010   5.333
 4571POPC   GL160373   2.137  19.684   5.596
 4571POPC   GL260374   1.812  19.758   5.714
 4571POPC   C1A60375   2.226  19.727   6.014
 4571POPC   D2A60376   2.390  19.595   6.401
 4571POPC   C3A60377   2.212  19.760   6.778
 4571POPC   C4A60378   2.395  19.765   7.153
 4571POPC   C1B60379   1.736  19.750   6.151
 4571POPC   C2B60380   1.718  19.957   6.520
 4571POPC   C3B60381   1.641  19.779   6.890
 4571POPC   C4B60382   1.893  19.579   7.202
 4572POPC   NC360383  34.636  15.631   5.540
 4572POPC   PO460384  34.300  16.136   5.517
 4572POPC   GL160385  34.446  15.999   5.868
 4572POPC   GL260386  34.197  15.797   5.909
 4572POPC   C1A60387  34.343  16.156   6.265
 4572POPC   D2A60388  34.310  16.096   6.702
 4572POPC   C3A60389  34.669  15.937   6.942
 4572POPC   C4A60390  34.933  16.193   7.236
 4572POPC   C1B60391  34.113  15.699   6.335
 4572POPC   C2B60392  34.277  15.590   6.724
 4572POPC   C3B60393  34.193  15.735   7.110
 4572POPC   C4B60394  34.284  16.132   7.219
 4573POPC   NC360395  37.251  37.962   5.352
 4573POPC   PO460396  37.879  38.210   5.215
 4573POPC   GL160397  37.864  38.224   5.703
 4573POPC   GL260398  37.865  38.594   5.813
 4573POPC   C1A60399  37.864  38.223   6.176
 4573POPC   D2A60400  37.779  38.560   6.502
 4573POPC   C3A60401  37.625  38.473   6.927
 4573POPC   C4A60402  37.691  38.589   7.379
 4573POPC   C1B60403  37.478  38.746   6.086
 4573POPC   C2B60404  37.246  38.755   6.495
 4573POPC   C3B60405  37.205  38.758   6.956
 4573POPC   C4B60406  37.381  38.983   7.276
 4574POPC   NC360407   9.957  37.478   5.352
 4574POPC   PO460408   9.397  37.860   5.434
 4574POPC   GL160409   9.612  37.663   5.827
 4574POPC   GL260410   9.954  37.551   5.867
 4574POPC   C1A60411   9.667  37.528   6.312
 4574POPC   D2A60412   9.671  37.355   6.765
 4574POPC   C3A60413   9.761  37.704   7.056
 4574POPC   C4A60414   9.924  38.042   7.288
 4574POPC   C1B60415  10.196  37.489   6.264
 4574POPC   C2B60416  10.186  37.287   6.666
 4574POPC   C3B60417  10.128  37.353   7.104
 4574POPC   C4B60418  10.153  37.105   7.501
 4575POPC   NC360419  28.326   7.722   5.169
 4575POPC   PO460420  28.100   7.265   5.625
 4575POPC   GL160421  28.355   7.348   5.897
 4575POPC   GL260422  28.322   7.044   6.054
 4575POPC   C1A60423  28.404   7.596   6.220
 4575POPC   D2A60424  28.141   7.640   6.574
 4575POPC   C3A60425  28.294   7.735   6.950
 4575POPC   C4A60426  28.242   7.610   7.336
 4575POPC   C1B60427  28.284   7.158   6.448
 4575POPC   C2B60428  28.593   7.381   6.672
 4575POPC   C3B60429  28.573   7.097   6.996
 4575POPC   C4B60430  28.254   7.101   7.291
 4576POPC   NC360431   2.040  31.493   5.420
 4576POPC   PO460432   1.359  31.620   5.433
 4576POPC   GL160433   1.715  31.538   5.800
 4576POPC   GL260434   2.069  31.666   5.882
 4576POPC   C1A60435   1.877  31.337   6.205
 4576POPC   D2A60436   2.152  31.264   6.586
 4576POPC   C3A60437   2.000  31.285   7.031
 4576POPC   C4A60438   1.727  31.204   7.378
 4576POPC   C1B60439   2.104  31.787   6.289
 4576POPC   C2B60440   2.309  31.772   6.642
 4576POPC   C3B60441   2.102  31.789   6.976
 4576POPC   C4B60442   2.157  31.699   7.341
 4577POPC   NC360443   6.952  11.971   5.506
 4577POPC   PO460444   6.318  11.847   5.595
 4577POPC   GL160445   6.576  12.120   5.820
 4577POPC   GL260446   6.793  11.915   5.981
 4577POPC   C1A60447   6.655  12.353   6.237
 4577POPC   D2A60448   6.552  12.363   6.714
 4577POPC   C3A60449   6.803  12.378   7.109
 4577POPC   C4A60450   6.923  12.371   7.545
 4577POPC   C1B60451   7.063  12.037   6.324
 4577POPC   C2B60452   7.002  11.982   6.777
 4577POPC   C3B60453   6.604  11.902   7.005
 4577POPC   C4B60454   6.404  11.499   7.097
 4578POPC   NC360455  25.146  30.013   5.647
 4578POPC   PO460456  25.776  29.738   5.450
 4578POPC   GL160457  25.563  29.662   5.844
 4578POPC   GL260458  25.596  30.025   5.905
 4578POPC   C1A60459  25.359  29.733   6.272
 4578POPC   D2A60460  25.013  29.894   6.565
 4578POPC   C3A60461  25.107  29.942   7.012
 4578POPC   C4A60462  25.462  29.808   7.314
 4578POPC   C1B60463  25.470  30.244   6.264
 4578POPC   C2B60464  25.310  30.343   6.664
 4578POPC   C3B60465  25.487  30.299   7.070
 4578POPC   C4B60466  25.680  30.310   7.492
 4579POPC   NC360467  19.608   1.619   5.166
 4579POPC   PO460468  19.978   1.982   5.537
 4579POPC   GL160469  19.652   1.895   5.850
 4579POPC   GL260470  19.513   2.205   6.005
 4579POPC   C1A60471  19.721   1.831   6.305
 4579POPC   D2A60472  19.708   1.961   6.730
 4579POPC   C3A60473  19.795   1.686   7.059
 4579POPC   C4A60474  19.549   1.745   7.441
 4579POPC   C1B60475  19.831   2.348   6.346
 4579POPC   C2B60476  19.946   2.391   6.813
 4579POPC   C3B60477  19.797   2.172   7.216
 4579POPC   C4B60478  19.970   2.196   7.636
 4580POPC   NC360479   1.084   0.995   5.566
 4580POPC   PO460480   1.518   1.381   5.750
 4580POPC   GL160481   1.109   1.410   5.939
 4580POPC   GL260482   1.100   1.048   6.062
 4580POPC   C1A60483   1.055   1.426   6.389
 4580POPC   D2A60484   1.311   1.405   6.749
 4580POPC   C3A60485   1.110   1.415   7.134
 4580POPC   C4A60486   1.251   1.598   7.496
 4580POPC   C1B60487   1.438   1.046   6.376
 4580POPC   C2B60488   1.273   0.864   6.747
 4580POPC   C3B60489   1.290   0.942   7.153
 4580POPC   C4B60490   0.969   1.013   7.443
 4581POPC   NC360491  37.064  21.130   5.124
 4581POPC   PO460492  36.731  20.719   5.564
 4581POPC   GL160493  36.926  20.631   5.884
 4581POPC   GL260494  37.048  20.280   5.742
 4581POPC   C1A60495  36.687  20.749   6.256
 4581POPC   D2A60496  36.911  20.781   6.644
 4581POPC   C3A60497  36.653  20.731   6.993
 4581POPC   C4A60498  36.741  20.884   7.414
 4581POPC   C1B60499  36.677  20.232   6.044
 4581POPC   C2B60500  36.815  20.296   6.473
 4581POPC   C3B60501  37.028  20.329   6.879
 4581POPC   C4B60502  36.946  20.420   7.327
 4582POPC   NC360503  42.567   5.697   5.452
 4582POPC   PO460504  41.978   5.687   5.703
 4582POPC   GL160505  42.327   5.662   5.923
 4582POPC   GL260506  42.336   5.988   5.959
 4582POPC   C1A60507  42.378   5.697   6.375
 4582POPC   D2A60508  42.304   5.527   6.772
 4582POPC   C3A60509  42.556   5.714   7.121
 4582POPC   C4A60510  42.481   5.753   7.564
 4582POPC   C1B60511  42.024   6.127   6.278
 4582POPC   C2B60512  41.854   6.165   6.722
 4582POPC   C3B60513  41.877   6.304   7.189
 4582POPC   C4B60514  42.230   6.181   7.504
 4583POPC   NC360515  15.667  31.219   5.333
 4583POPC   PO460516  16.156  31.706   5.193
 4583POPC   GL160517  16.075  31.412   5.602
 4583POPC   GL260518  15.753  31.521   5.739
 4583POPC   C1A60519  16.002  31.194   6.055
 4583POPC   D2A60520  16.192  31.368   6.467
 4583POPC   C3A60521  16.087  31.362   6.891
 4583POPC   C4A60522  16.017  31.308   7.317
 4583POPC   C1B60523  15.542  31.433   6.146
 4583POPC   C2B60524  15.634  31.449   6.587
 4583POPC   C3B60525  15.579  31.411   7.025
 4583POPC   C4B60526  15.545  31.511   7.483
 4584POPC   NC360527  11.190  40.007   5.216
 4584POPC   PO460528  11.725  39.661   5.322
 4584POPC   GL160529  11.442  39.790   5.673
 4584POPC   GL260530  11.069  39.709   5.642
 4584POPC   C1A60531  11.556  39.881   6.118
 4584POPC   D2A60532  11.369  40.145   6.443
 4584POPC   C3A60533  11.538  40.039   6.837
 4584POPC   C4A60534  11.403  40.236   7.190
 4584POPC   C1B60535  11.050  39.960   6.046
 4584POPC   C2B60536  10.926  39.900   6.503
 4584POPC   C3B60537  10.889  40.060   6.902
 4584POPC   C4B60538  10.918  39.989   7.315
 4585POPC   NC360539  41.875   6.105   5.530
 4585POPC   PO460540  41.423   5.671   5.355
 4585POPC   GL160541  41.477   5.726   5.812
 4585POPC   GL260542  41.509   6.054   5.881
 4585POPC   C1A60543  41.687   5.737   6.255
 4585POPC   D2A60544  41.792   5.466   6.583
 4585POPC   C3A60545  41.842   5.702   6.964
 4585POPC   C4A60546  41.912   5.815   7.378
 4585POPC   C1B60547  41.489   6.209   6.296
 4585POPC   C2B60548  41.400   5.921   6.642
 4585POPC   C3B60549  41.401   5.939   7.081
 4585POPC   C4B60550  41.474   6.033   7.482
 4586POPC   NC360551  15.870  39.711   5.419
 4586POPC   PO460552  16.168  39.115   5.527
 4586POPC   GL160553  15.871  39.078   5.870
 4586POPC   GL260554  16.098  39.231   6.064
 4586POPC   C1A60555  15.782  38.931   6.299
 4586POPC   D2A60556  15.936  39.238   6.587
 4586POPC   C3A60557  16.046  39.187   7.033
 4586POPC   C4A60558  15.850  38.987   7.378
 4586POPC   C1B60559  15.678  39.443   6.171
 4586POPC   C2B60560  15.524  39.614   6.555
 4586POPC   C3B60561  15.775  39.605   6.913
 4586POPC   C4B60562  15.786  39.707   7.307
 4587POPC   NC360563   6.240  30.578   5.297
 4587POPC   PO460564   5.810  31.034   5.472
 4587POPC   GL160565   5.892  30.635   5.720
 4587POPC   GL260566   5.641  30.646   5.994
 4587POPC   C1A60567   6.080  30.461   6.135
 4587POPC   D2A60568   6.195  30.708   6.521
 4587POPC   C3A60569   5.918  30.666   6.883
 4587POPC   C4A60570   5.800  30.505   7.260
 4587POPC   C1B60571   5.854  30.996   6.254
 4587POPC   C2B60572   5.929  31.146   6.708
 4587POPC   C3B60573   5.682  31.177   7.113
 4587POPC   C4B60574   5.576  30.944   7.500
 4588POPC   NC360575  29.100   4.563   5.503
 4588POPC   PO460576  29.289   3.895   5.579
 4588POPC   GL160577  29.245   4.226   5.867
 4588POPC   GL260578  29.389   4.567   5.899
 4588POPC   C1A60579  29.455   4.203   6.252
 4588POPC   D2A60580  29.598   4.339   6.634
 4588POPC   C3A60581  29.219   4.481   6.849
 4588POPC   C4A60582  29.149   4.283   7.229
 4588POPC   C1B60583  29.311   4.713   6.303
 4588POPC   C2B60584  29.542   4.850   6.638
 4588POPC   C3B60585  29.624   4.713   7.034
 4588POPC   C4B60586  29.496   4.618   7.401
 4589POPC   NC360587   5.614  33.728   5.499
 4589POPC   PO460588   6.191  33.527   5.427
 4589POPC   GL160589   6.064  33.841   5.773
 4589POPC   GL260590   5.718  34.016   5.894
 4589POPC   C1A60591   5.983  33.717   6.215
 4589POPC   D2A60592   6.132  33.879   6.594
 4589POPC   C3A60593   5.987  33.752   6.992
 4589POPC   C4A60594   6.093  33.483   7.333
 4589POPC   C1B60595   5.822  34.225   6.267
 4589POPC   C2B60596   5.767  34.192   6.711
 4589POPC   C3B60597   5.930  34.274   7.113
 4589POPC   C4B60598   5.889  33.973   7.454
 4590POPC   NC360599  25.633  39.370   5.264
 4590POPC   PO460600  25.001  39.319   5.351
 4590POPC   GL160601  25.218  39.530   5.730
 4590POPC   GL260602  25.581  39.536   5.765
 4590POPC   C1A60603  25.298  39.585   6.218
 4590POPC   D2A60604  25.223  39.540   6.702
 4590POPC   C3A60605  25.262  39.266   7.078
 4590POPC   C4A60606  25.138  39.243   7.524
 4590POPC   C1B60607  25.802  39.565   6.171
 4590POPC   C2B60608  25.686  39.738   6.599
 4590POPC   C3B60609  25.582  39.663   7.063
 4590POPC   C4B60610  25.621  39.408   7.452
 4591POPC   NC360611  17.284  12.902   5.485
 4591POPC   PO460612  17.728  12.382   5.341
 4591POPC   GL160613  17.602  12.485   5.760
 4591POPC   GL260614  17.257  12.537   5.866
 4591POPC   C1A60615  17.741  12.651   6.160
 4591POPC   D2A60616  17.681  12.932   6.528
 4591POPC   C3A60617  17.696  12.744   6.932
 4591POPC   C4A60618  17.574  12.810   7.348
 4591POPC   C1B60619  17.272  12.885   6.180
 4591POPC   C2B60620  17.178  12.794   6.625
 4591POPC   C3B60621  17.168  12.915   7.066
 4591POPC   C4B60622  17.093  12.771   7.507
 4592POPC   NC360623  27.991   9.650   5.133
 4592POPC   PO460624  27.478   9.604   5.630
 4592POPC   GL160625  27.694   9.650   5.983
 4592POPC   GL260626  27.774  10.000   5.965
 4592POPC   C1A60627  27.679   9.409   6.374
 4592POPC   D2A60628  27.309   9.438   6.664
 4592POPC   C3A60629  27.471   9.541   7.056
 4592POPC   C4A60630  27.985   9.580   7.098
 4592POPC   C1B60631  27.504   9.903   6.357
 4592POPC   C2B60632  27.717   9.804   6.714
 4592POPC   C3B60633  27.686   9.984   7.120
 4592POPC   C4B60634  27.399  10.062   7.460
 4593POPC   NC360635  25.002  24.374   5.517
 4593POPC   PO460636  25.666  24.638   5.381
 4593POPC   GL160637  25.427  24.529   5.762
 4593POPC   GL260638  25.120  24.728   5.891
 4593POPC   C1A60639  25.275  24.324   6.146
 4593POPC   D2A60640  25.437  24.265   6.548
 4593POPC   C3A60641  25.256  24.284   6.965
 4593POPC   C4A60642  25.061  24.515   7.298
 4593POPC   C1B60643  25.492  24.779   6.220
 4593POPC   C2B60644  25.689  24.702   6.643
 4593POPC   C3B60645  25.473  24.749   7.066
 4593POPC   C4B60646  25.452  24.724   7.545
 4594POPC   NC360647  12.332  11.865   5.597
 4594POPC   PO460648  12.852  12.382   5.404
 4594POPC   GL160649  12.804  12.241   5.820
 4594POPC   GL260650  12.454  12.299   5.832
 4594POPC   C1A60651  12.828  12.129   6.288
 4594POPC   D2A60652  12.960  12.188   6.739
 4594POPC   C3A60653  12.803  11.900   7.108
 4594POPC   C4A60654  12.664  11.809   7.570
 4594POPC   C1B60655  12.549  12.549   6.188
 4594POPC   C2B60656  12.495  12.467   6.583
 4594POPC   C3B60657  12.548  12.386   6.983
 4594POPC   C4B60658  12.937  12.387   7.215
 4595POPC   NC360659  32.567  17.582   5.378
 4595POPC   PO460660  33.019  17.124   5.422
 4595POPC   GL160661  33.139  17.416   5.751
 4595POPC   GL260662  32.979  17.741   5.672
 4595POPC   C1A60663  33.055  17.416   6.185
 4595POPC   D2A60664  32.855  17.169   6.515
 4595POPC   C3A60665  32.935  17.274   6.925
 4595POPC   C4A60666  32.764  17.655   7.050
 4595POPC   C1B60667  33.226  17.887   6.033
 4595POPC   C2B60668  33.366  17.764   6.452
 4595POPC   C3B60669  33.253  17.667   6.871
 4595POPC   C4B60670  33.179  17.700   7.322
 4596POPC   NC360671  33.263   7.164   5.592
 4596POPC   PO460672  33.369   6.498   5.441
 4596POPC   GL160673  33.133   6.695   5.740
 4596POPC   GL260674  33.249   6.568   5.979
 4596POPC   C1A60675  32.921   6.919   6.120
 4596POPC   D2A60676  32.765   6.849   6.551
 4596POPC   C3A60677  33.002   6.602   6.865
 4596POPC   C4A60678  32.833   6.639   7.284
 4596POPC   C1B60679  33.178   6.529   6.384
 4596POPC   C2B60680  33.574   6.508   6.631
 4596POPC   C3B60681  33.593   6.293   7.012
 4596POPC   C4B60682  33.287   6.408   7.259
 4597POPC   NC360683  35.812  28.018   5.642
 4597POPC   PO460684  36.112  27.518   5.319
 4597POPC   GL160685  36.072  27.573   5.838
 4597POPC   GL260686  36.153  27.899   5.985
 4597POPC   C1A60687  36.154  27.552   6.338
 4597POPC   D2A60688  36.196  27.880   6.678
 4597POPC   C3A60689  36.095  27.653   7.075
 4597POPC   C4A60690  36.081  27.216   7.216
 4597POPC   C1B60691  36.517  27.897   6.235
 4597POPC   C2B60692  36.710  27.840   6.638
 4597POPC   C3B60693  36.572  27.853   7.057
 4597POPC   C4B60694  36.595  27.815   7.519
 4598POPC   NC360695   9.384  21.639   5.446
 4598POPC   PO460696   8.802  21.463   5.502
 4598POPC   GL160697   9.042  21.494   5.834
 4598POPC   GL260698   9.266  21.205   5.744
 4598POPC   C1A60699   8.835  21.633   6.201
 4598POPC   D2A60700   8.614  21.450   6.518
 4598POPC   C3A60701   8.891  21.541   6.846
 4598POPC   C4A60702   8.714  21.651   7.211
 4598POPC   C1B60703   9.117  21.053   6.143
 4598POPC   C2B60704   9.215  21.274   6.509
 4598POPC   C3B60705   9.416  21.290   6.894
 4598POPC   C4B60706   9.408  21.533   7.270
 4599POPC   NC360707  33.426  10.809   5.559
 4599POPC   PO460708  34.001  10.595   5.299
 4599POPC   GL160709  33.978  10.379   5.725
 4599POPC   GL260710  33.649  10.441   5.846
 4599POPC   C1A60711  33.952  10.383   6.223
 4599POPC   D2A60712  33.631  10.423   6.555
 4599POPC   C3A60713  33.806  10.541   6.946
 4599POPC   C4A60714  33.772  10.483   7.379
 4599POPC   C1B60715  33.606  10.782   6.178
 4599POPC   C2B60716  33.467  10.910   6.576
 4599POPC   C3B60717  33.307  10.684   6.931
 4599POPC   C4B60718  33.442  10.858   7.292
 4600POPC   NC360719  44.072  17.096   5.391
 4600POPC   PO460720  43.580  17.533   5.431
 4600POPC   GL160721  43.651  17.223   5.722
 4600POPC   GL260722  43.991  17.325   5.853
 4600POPC   C1A60723  43.559  17.063   6.131
 4600POPC   D2A60724  43.819  17.215   6.474
 4600POPC   C3A60725  43.718  17.244   6.920
 4600POPC   C4A60726  44.066  17.295   7.222
 4600POPC   C1B60727  44.097  17.722   6.099
 4600POPC   C2B60728  44.072  17.917   6.497
 4600POPC   C3B60729  44.056  17.688   6.873
 4600POPC   C4B60730  44.237  17.804   7.262
 4601POPC   NC360731  37.108  19.566   5.414
 4601POPC   PO460732  36.515  19.883   5.339
 4601POPC   GL160733  36.767  19.812   5.711
 4601POPC   GL260734  36.608  19.501   5.793
 4601POPC   C1A60735  37.043  19.892   6.104
 4601POPC   D2A60736  37.199  19.920   6.562
 4601POPC   C3A60737  36.977  19.799   6.950
 4601POPC   C4A60738  37.040  19.675   7.391
 4601POPC   C1B60739  36.548  19.745   6.159
 4601POPC   C2B60740  36.638  19.836   6.562
 4601POPC   C3B60741  36.569  20.129   6.910
 4601POPC   C4B60742  36.656  19.986   7.326
 4602POPC   NC360743  34.043   8.773   5.396
 4602POPC   PO460744  33.426   8.922   5.537
 4602POPC   GL160745  33.678   9.089   5.857
 4602POPC   GL260746  34.071   9.157   5.800
 4602POPC   C1A60747  33.640   9.065   6.310
 4602POPC   D2A60748  33.922   9.202   6.612
 4602POPC   C3A60749  33.752   9.133   7.023
 4602POPC   C4A60750  33.791   9.113   7.479
 4602POPC   C1B60751  34.028   8.780   6.095
 4602POPC   C2B60752  33.931   8.684   6.519
 4602POPC   C3B60753  34.104   8.772   6.919
 4602POPC   C4B60754  34.031   8.682   7.362
 4603POPC   NC360755  24.470  27.030   5.476
 4603POPC   PO460756  24.476  27.728   5.264
 4603POPC   GL160757  24.519  27.540   5.680
 4603POPC   GL260758  24.597  27.834   5.775
 4603POPC   C1A60759  24.554  27.486   6.165
 4603POPC   D2A60760  24.255  27.699   6.475
 4603POPC   C3A60761  24.240  27.680   6.905
 4603POPC   C4A60762  24.451  27.355   7.161
 4603POPC   C1B60763  24.482  27.984   6.130
 4603POPC   C2B60764  24.739  27.927   6.485
 4603POPC   C3B60765  24.736  27.626   6.811
 4603POPC   C4B60766  24.646  27.810   7.210
 4604POPC   NC360767   6.987   8.415   5.510
 4604POPC   PO460768   6.464   8.019   5.379
 4604POPC   GL160769   6.679   8.090   5.762
 4604POPC   GL260770   6.757   7.767   5.860
 4604POPC   C1A60771   6.788   8.157   6.198
 4604POPC   D2A60772   6.494   8.113   6.559
 4604POPC   C3A60773   6.368   8.313   6.971
 4604POPC   C4A60774   6.656   8.469   7.283
 4604POPC   C1B60775   6.479   7.683   6.222
 4604POPC   C2B60776   6.621   7.623   6.666
 4604POPC   C3B60777   6.736   7.938   6.995
 4604POPC   C4B60778   6.508   7.962   7.364
 4605POPC   NC360779  38.235  41.970   5.504
 4605POPC   PO460780  38.549  42.601   5.553
 4605POPC   GL160781  38.723  42.359   5.825
 4605POPC   GL260782  38.675  42.021   5.764
 4605POPC   C1A60783  38.770  42.439   6.238
 4605POPC   D2A60784  38.431  42.569   6.512
 4605POPC   C3A60785  38.445  42.448   6.918
 4605POPC   C4A60786  38.751  42.403   7.176
 4605POPC   C1B60787  38.462  42.014   6.163
 4605POPC   C2B60788  38.622  42.084   6.563
 4605POPC   C3B60789  38.647  41.910   6.924
 4605POPC   C4B60790  38.389  42.054   7.244
 4606POPC   NC360791  31.792  14.646   5.580
 4606POPC   PO460792  32.377  14.727   5.274
 4606POPC   GL160793  32.325  14.491   5.673
 4606POPC   GL260794  32.275  14.122   5.711
 4606POPC   C1A60795  32.154  14.486   6.092
 4606POPC   D2A60796  31.936  14.682   6.467
 4606POPC   C3A60797  32.048  14.537   6.875
 4606POPC   C4A60798  32.360  14.701   7.169
 4606POPC   C1B60799  32.311  14.012   6.151
 4606POPC   C2B60800  32.337  14.267   6.512
 4606POPC   C3B60801  32.468  14.235   6.933
 4606POPC   C4B60802  32.168  14.208   7.261
 4607POPC   NC360803  22.071  28.114   5.280
 4607POPC   PO460804  22.060  28.734   5.324
 4607POPC   GL160805  21.886  28.484   5.678
 4607POPC   GL260806  22.154  28.298   5.761
 4607POPC   C1A60807  21.841  28.432   6.150
 4607POPC   D2A60808  21.908  28.721   6.499
 4607POPC   C3A60809  22.079  28.511   6.846
 4607POPC   C4A60810  21.999  28.257   7.209
 4607POPC   C1B60811  22.316  28.189   6.152
 4607POPC   C2B60812  22.166  28.120   6.538
 4607POPC   C3B60813  22.401  28.126   6.919
 4607POPC   C4B60814  22.325  27.835   7.278
 4608POPC   NC360815  23.750  32.666   5.386
 4608POPC   PO460816  24.070  32.049   5.261
 4608POPC   GL160817  23.920  32.237   5.648
 4608POPC   GL260818  23.790  31.924   5.754
 4608POPC   C1A60819  23.837  32.293   6.122
 4608POPC   D2A60820  23.766  32.504   6.539
 4608POPC   C3A60821  23.493  32.340   6.863
 4608POPC   C4A60822  23.476  32.071   7.206
 4608POPC   C1B60823  23.675  31.804   6.185
 4608POPC   C2B60824  23.709  31.959   6.595
 4608POPC   C3B60825  23.885  31.817   6.976
 4608POPC   C4B60826  23.906  31.867   7.398
 4609POPC   NC360827  36.723  17.746   5.479
 4609POPC   PO460828  37.168  17.213   5.462
 4609POPC   GL160829  37.073  17.527   5.785
 4609POPC   GL260830  36.737  17.525   5.924
 4609POPC   C1A60831  37.214  17.647   6.195
 4609POPC   D2A60832  37.291  17.362   6.556
 4609POPC   C3A60833  37.062  17.454   6.946
 4609POPC   C4A60834  37.071  17.820   7.214
 4609POPC   C1B60835  36.491  17.220   6.131
 4609POPC   C2B60836  36.506  17.274   6.553
 4609POPC   C3B60837  36.379  17.401   6.954
 4609POPC   C4B60838  36.641  17.456   7.285
 4610POPC   NC360839  40.183  22.479   5.445
 4610POPC   PO460840  40.402  21.907   5.228
 4610POPC   GL160841  40.210  22.000   5.686
 4610POPC   GL260842  39.848  22.133   5.807
 4610POPC   C1A60843  40.216  22.180   6.122
 4610POPC   D2A60844  39.944  22.130   6.479
 4610POPC   C3A60845  40.121  22.161   6.852
 4610POPC   C4A60846  40.145  21.981   7.230
 4610POPC   C1B60847  39.765  22.492   6.182
 4610POPC   C2B60848  39.844  22.652   6.641
 4610POPC   C3B60849  39.801  22.482   7.097
 4610POPC   C4B60850  39.745  22.412   7.564
 4611POPC   NC360851   2.490   3.831   5.586
 4611POPC   PO460852   2.959   3.613   5.208
 4611POPC   GL160853   2.873   3.435   5.695
 4611POPC   GL260854   2.575   3.259   5.793
 4611POPC   C1A60855   2.840   3.522   6.203
 4611POPC   D2A60856   2.957   3.415   6.680
 4611POPC   C3A60857   2.782   3.677   7.050
 4611POPC   C4A60858   2.992   3.920   7.420
 4611POPC   C1B60859   2.421   3.189   6.186
 4611POPC   C2B60860   2.443   3.395   6.573
 4611POPC   C3B60861   2.428   3.254   6.980
 4611POPC   C4B60862   2.549   3.352   7.390
 4612POPC   NC360863   4.635  44.187   5.397
 4612POPC   PO460864   4.052  43.933   5.570
 4612POPC   GL160865   4.342  44.003   5.804
 4612POPC   GL260866   4.516  43.684   5.813
 4612POPC   C1A60867   4.356  44.187   6.190
 4612POPC   D2A60868   4.205  44.143   6.591
 4612POPC   C3A60869   4.404  44.088   6.976
 4612POPC   C4A60870   4.172  43.759   7.168
 4612POPC   C1B60871   4.231  43.672   6.199
 4612POPC   C2B60872   4.211  43.558   6.640
 4612POPC   C3B60873   4.563  43.584   6.911
 4612POPC   C4B60874   4.691  43.468   7.325
 4613POPC   NC360875   3.919  18.547   5.617
 4613POPC   PO460876   3.523  18.111   5.324
 4613POPC   GL160877   3.430  18.291   5.677
 4613POPC   GL260878   3.206  18.001   5.765
 4613POPC   C1A60879   3.428  18.568   6.051
 4613POPC   D2A60880   3.543  18.417   6.465
 4613POPC   C3A60881   3.490  18.592   6.886
 4613POPC   C4A60882   3.723  18.441   7.250
 4613POPC   C1B60883   3.531  18.021   6.103
 4613POPC   C2B60884   3.697  17.925   6.500
 4613POPC   C3B60885   3.498  18.070   6.862
 4613POPC   C4B60886   3.449  17.994   7.260
 4614POPC   NC360887  28.175  21.220   5.596
 4614POPC   PO460888  28.667  21.601   5.392
 4614POPC   GL160889  28.554  21.461   5.822
 4614POPC   GL260890  28.635  21.135   5.936
 4614POPC   C1A60891  28.418  21.482   6.259
 4614POPC   D2A60892  28.367  21.353   6.701
 4614POPC   C3A60893  28.378  21.694   6.996
 4614POPC   C4A60894  28.510  21.599   7.410
 4614POPC   C1B60895  28.400  20.972   6.312
 4614POPC   C2B60896  28.531  20.876   6.741
 4614POPC   C3B60897  28.612  21.082   7.125
 4614POPC   C4B60898  28.449  21.072   7.553
 4615POPC   NC360899  35.543  37.386   5.347
 4615POPC   PO460900  35.668  38.008   5.195
 4615POPC   GL160901  35.494  37.866   5.656
 4615POPC   GL260902  35.508  37.510   5.829
 4615POPC   C1A60903  35.474  37.887   6.138
 4615POPC   D2A60904  35.547  37.636   6.531
 4615POPC   C3A60905  35.646  37.868   6.907
 4615POPC   C4A60906  35.638  37.718   7.321
 4615POPC   C1B60907  35.214  37.437   6.181
 4615POPC   C2B60908  35.158  37.325   6.611
 4615POPC   C3B60909  35.280  37.489   6.993
 4615POPC   C4B60910  35.207  37.426   7.453
 4616POPC   NC360911  18.514   0.812   5.596
 4616POPC   PO460912  18.125   1.218   5.183
 4616POPC   GL160913  18.107   1.099   5.645
 4616POPC   GL260914  18.265   1.339   5.860
 4616POPC   C1A60915  18.003   0.995   6.117
 4616POPC   D2A60916  17.960   1.230   6.492
 4616POPC   C3A60917  17.993   1.046   6.889
 4616POPC   C4A60918  18.128   1.192   7.258
 4616POPC   C1B60919  18.432   1.220   6.244
 4616POPC   C2B60920  18.426   0.985   6.611
 4616POPC   C3B60921  18.572   1.106   7.001
 4616POPC   C4B60922  18.580   1.443   7.268
 4617POPC   NC360923  32.072  14.984   5.035
 4617POPC   PO460924  32.210  15.476   5.437
 4617POPC   GL160925  32.235  15.060   5.652
 4617POPC   GL260926  32.579  14.950   5.753
 4617POPC   C1A60927  32.126  14.992   6.095
 4617POPC   D2A60928  32.267  15.090   6.522
 4617POPC   C3A60929  32.043  15.046   6.887
 4617POPC   C4A60930  32.069  15.105   7.314
 4617POPC   C1B60931  32.578  15.241   6.142
 4617POPC   C2B60932  32.581  15.484   6.583
 4617POPC   C3B60933  32.500  15.263   7.035
 4617POPC   C4B60934  32.660  15.507   7.431
 4618POPC   NC360935   0.678   4.916   5.057
 4618POPC   PO460936   0.288   5.132   5.453
 4618POPC   GL160937   0.185   5.166   5.883
 4618POPC   GL260938  44.983   5.484   5.860
 4618POPC   C1A60939   0.434   5.111   6.286
 4618POPC   D2A60940   0.584   5.225   6.720
 4618POPC   C3A60941   0.526   4.921   7.058
 4618POPC   C4A60942   0.322   4.684   7.399
 4618POPC   C1B60943  44.942   5.361   6.285
 4618POPC   C2B60944   0.076   5.248   6.654
 4618POPC   C3B60945   0.170   5.286   7.067
 4618POPC   C4B60946  44.948   5.166   7.417
 4619POPC   NC360947   4.928  14.064   5.480
 4619POPC   PO460948   5.349  14.523   5.272
 4619POPC   GL160949   5.280  14.397   5.738
 4619POPC   GL260950   4.940  14.512   5.694
 4619POPC   C1A60951   5.311  14.416   6.259
 4619POPC   D2A60952   5.355  14.538   6.719
 4619POPC   C3A60953   5.080  14.448   7.045
 4619POPC   C4A60954   5.128  14.009   7.143
 4619POPC   C1B60955   4.836  14.385   6.114
 4619POPC   C2B60956   4.832  14.420   6.568
 4619POPC   C3B60957   4.682  14.164   6.912
 4619POPC   C4B60958   4.741  14.233   7.359
 4620POPC   NC360959  26.186  10.751   5.378
 4620POPC   PO460960  25.752  10.216   5.457
 4620POPC   GL160961  26.135  10.352   5.738
 4620POPC   GL260962  26.456  10.245   5.912
 4620POPC   C1A60963  26.125  10.478   6.230
 4620POPC   D2A60964  25.987  10.593   6.635
 4620POPC   C3A60965  26.189  10.321   6.886
 4620POPC   C4A60966  26.102  10.395   7.285
 4620POPC   C1B60967  26.527  10.705   6.044
 4620POPC   C2B60968  26.336  10.909   6.418
 4620POPC   C3B60969  26.431  10.761   6.817
 4620POPC   C4B60970  26.411  10.847   7.216
 4621POPC   NC360971   5.681  44.630   5.159
 4621POPC   PO460972   6.246  44.732   5.455
 4621POPC   GL160973   5.974  44.604   5.772
 4621POPC   GL260974   5.660  44.552   5.679
 4621POPC   C1A60975   6.021  44.445   6.171
 4621POPC   D2A60976   6.231  44.574   6.519
 4621POPC   C3A60977   6.037  44.756   6.870
 4621POPC   C4A60978   5.967  44.635   7.284
 4621POPC   C1B60979   5.576  44.744   6.076
 4621POPC   C2B60980   5.621  44.763   6.530
 4621POPC   C3B60981   5.534  44.696   6.996
 4621POPC   C4B60982   5.499  44.474   7.419
 4622POPC   NC360983  37.484  11.600   5.466
 4622POPC   PO460984  37.478  10.943   5.582
 4622POPC   GL160985  37.601  11.282   5.851
 4622POPC   GL260986  37.907  11.447   5.799
 4622POPC   C1A60987  37.579  11.467   6.241
 4622POPC   D2A60988  37.264  11.343   6.537
 4622POPC   C3A60989  37.499  11.276   6.911
 4622POPC   C4A60990  37.543  11.551   7.233
 4622POPC   C1B60991  38.105  11.610   6.162
 4622POPC   C2B60992  38.004  11.513   6.578
 4622POPC   C3B60993  38.066  11.557   7.020
 4622POPC   C4B60994  37.941  11.196   7.257
 4623POPC   NC360995  22.170  13.203   5.300
 4623POPC   PO460996  22.807  13.319   5.554
 4623POPC   GL160997  22.368  13.223   5.781
 4623POPC   GL260998  22.258  12.850   5.818
 4623POPC   C1A60999  22.243  13.175   6.251
 4623POPC   D2A61000  22.362  12.920   6.647
 4623POPC   C3A61001  22.092  12.917   7.042
 4623POPC   C4A61002  22.078  13.086   7.479
 4623POPC   C1B61003  22.486  12.631   6.182
 4623POPC   C2B61004  22.442  12.407   6.580
 4623POPC   C3B61005  22.529  12.529   7.003
 4623POPC   C4B61006  22.335  12.550   7.404
 4624POPC   NC361007  18.187  12.458   5.196
 4624POPC   PO461008  18.474  13.041   5.248
 4624POPC   GL161009  18.302  12.953   5.704
 4624POPC   GL261010  18.097  12.655   5.730
 4624POPC   C1A61011  18.110  13.018   6.129
 4624POPC   D2A61012  18.147  13.308   6.449
 4624POPC   C3A61013  18.064  13.095   6.845
 4624POPC   C4A61014  18.085  12.872   7.266
 4624POPC   C1B61015  18.273  12.557   6.178
 4624POPC   C2B61016  18.059  12.576   6.564
 4624POPC   C3B61017  18.172  12.419   6.918
 4624POPC   C4B61018  18.363  12.436   7.270
 4625POPC   NC361019  41.674  11.307   5.526
 4625POPC   PO461020  41.088  11.344   5.368
 4625POPC   GL161021  41.213  11.150   5.767
 4625POPC   GL261022  41.012  10.833   5.799
 4625POPC   C1A61023  41.402  11.298   6.181
 4625POPC   D2A61024  41.347  11.564   6.569
 4625POPC   C3A61025  41.393  11.405   7.003
 4625POPC   C4A61026  41.740  11.167   7.215
 4625POPC   C1B61027  41.153  10.860   6.250
 4625POPC   C2B61028  41.330  11.024   6.655
 4625POPC   C3B61029  41.277  10.914   7.122
 4625POPC   C4B61030  41.525  10.762   7.494
 4626POPC   NC361031  30.257  39.630   5.598
 4626POPC   PO461032  30.016  40.182   5.187
 4626POPC   GL161033  30.018  40.073   5.661
 4626POPC   GL261034  29.693  40.056   5.778
 4626POPC   C1A61035  30.047  40.081   6.146
 4626POPC   D2A61036  30.168  40.276   6.585
 4626POPC   C3A61037  30.109  40.038   6.985
 4626POPC   C4A61038  30.172  39.626   7.117
 4626POPC   C1B61039  29.544  40.071   6.195
 4626POPC   C2B61040  29.759  39.948   6.576
 4626POPC   C3B61041  29.642  39.796   6.976
 4626POPC   C4B61042  29.598  40.054   7.319
 4627POPC   NC361043  44.969  42.284   5.133
 4627POPC   PO461044  44.344  42.237   5.398
 4627POPC   GL161045  44.694  42.370   5.667
 4627POPC   GL261046  44.929  42.146   5.720
 4627POPC   C1A61047  44.797  42.407   6.131
 4627POPC   D2A61048  44.503  42.307   6.471
 4627POPC   C3A61049  44.646  42.363   6.882
 4627POPC   C4A61050  44.457  42.531   7.223
 4627POPC   C1B61051  44.901  41.894   6.111
 4627POPC   C2B61052  44.953  42.051   6.538
 4627POPC   C3B61053  44.986  41.990   6.995
 4627POPC   C4B61054  44.707  42.047   7.310
 4628POPC   NC361055  13.919  22.761   5.389
 4628POPC   PO461056  14.530  23.087   5.302
 4628POPC   GL161057  14.504  22.993   5.748
 4628POPC   GL261058  14.196  22.895   5.826
 4628POPC   C1A61059  14.520  23.043   6.212
 4628POPC   D2A61060  14.312  23.050   6.628
 4628POPC   C3A61061  14.445  22.934   7.062
 4628POPC   C4A61062  14.605  23.109   7.461
 4628POPC   C1B61063  13.979  22.866   6.229
 4628POPC   C2B61064  13.989  22.634   6.649
 4628POPC   C3B61065  14.171  22.489   7.055
 4628POPC   C4B61066  14.164  22.723   7.460
 4629POPC   NC361067  17.095  44.545   5.593
 4629POPC   PO461068  17.531   0.024   5.372
 4629POPC   GL161069  17.522  44.843   5.803
 4629POPC   GL261070  17.557  44.506   5.904
 4629POPC   C1A61071  17.727  44.830   6.245
 4629POPC   D2A61072  17.479  44.907   6.633
 4629POPC   C3A61073  17.663  44.874   7.044
 4629POPC   C4A61074  17.473  44.810   7.463
 4629POPC   C1B61075  17.637  44.333   6.318
 4629POPC   C2B61076  17.613  44.415   6.754
 4629POPC   C3B61077  17.586  44.190   7.147
 4629POPC   C4B61078  17.505  44.302   7.583
 4630POPC   NC361079  39.467   7.617   5.520
 4630POPC   PO461080  39.059   7.108   5.362
 4630POPC   GL161081  39.102   7.303   5.759
 4630POPC   GL261082  39.423   7.245   5.862
 4630POPC   C1A61083  39.182   7.569   6.163
 4630POPC   D2A61084  39.391   7.422   6.580
 4630POPC   C3A61085  39.283   7.682   6.918
 4630POPC   C4A61086  39.106   7.549   7.290
 4630POPC   C1B61087  39.283   7.076   6.212
 4630POPC   C2B61088  39.050   6.972   6.539
 4630POPC   C3B61089  39.051   7.149   6.915
 4630POPC   C4B61090  39.062   7.035   7.315
 4631POPC   NC361091  27.935   3.615   5.544
 4631POPC   PO461092  27.316   3.646   5.527
 4631POPC   GL161093  27.543   3.681   5.921
 4631POPC   GL261094  27.855   3.431   6.002
 4631POPC   C1A61095  27.478   3.487   6.330
 4631POPC   D2A61096  27.648   3.194   6.624
 4631POPC   C3A61097  27.425   3.339   6.948
 4631POPC   C4A61098  27.359   3.611   7.271
 4631POPC   C1B61099  27.899   3.805   6.278
 4631POPC   C2B61100  27.819   4.004   6.681
 4631POPC   C3B61101  27.724   3.965   7.090
 4631POPC   C4B61102  27.866   3.545   7.127
 4632POPC   NC361103  13.389  20.121   5.327
 4632POPC   PO461104  13.953  19.734   5.285
 4632POPC   GL161105  13.650  19.828   5.692
 4632POPC   GL261106  13.318  20.035   5.818
 4632POPC   C1A61107  13.513  19.673   6.125
 4632POPC   D2A61108  13.593  19.537   6.563
 4632POPC   C3A61109  13.840  19.801   6.842
 4632POPC   C4A61110  13.906  19.971   7.246
 4632POPC   C1B61111  13.289  20.167   6.234
 4632POPC   C2B61112  13.489  20.100   6.616
 4632POPC   C3B61113  13.409  20.031   7.057
 4632POPC   C4B61114  13.256  20.321   7.371
 4633POPC   NC361115  13.151  22.407   5.078
 4633POPC   PO461116  12.961  21.791   5.355
 4633POPC   GL161117  12.930  21.987   5.759
 4633POPC   GL261118  13.241  21.896   5.839
 4633POPC   C1A61119  12.913  22.159   6.203
 4633POPC   D2A61120  12.995  22.355   6.607
 4633POPC   C3A61121  12.826  22.176   6.971
 4633POPC   C4A61122  12.505  22.149   7.279
 4633POPC   C1B61123  13.287  21.732   6.235
 4633POPC   C2B61124  13.190  21.851   6.652
 4633POPC   C3B61125  13.092  21.699   7.055
 4633POPC   C4B61126  12.905  21.892   7.398
 4634POPC   NC361127  24.827   9.427   5.602
 4634POPC   PO461128  24.283   9.745   5.280
 4634POPC   GL161129  24.183  10.017   5.660
 4634POPC   GL261130  24.509  10.181   5.770
 4634POPC   C1A61131  24.158  10.025   6.136
 4634POPC   D2A61132  24.393   9.798   6.472
 4634POPC   C3A61133  24.420   9.992   6.880
 4634POPC   C4A61134  24.357   9.817   7.279
 4634POPC   C1B61135  24.773  10.023   6.166
 4634POPC   C2B61136  24.888   9.888   6.634
 4634POPC   C3B61137  24.800   9.661   7.046
 4634POPC   C4B61138  24.704   9.481   7.459
 4635POPC   NC361139  15.917  16.075   5.303
 4635POPC   PO461140  15.816  15.457   5.322
 4635POPC   GL161141  15.667  15.812   5.665
 4635POPC   GL261142  15.940  16.006   5.828
 4635POPC   C1A61143  15.575  15.803   6.141
 4635POPC   D2A61144  15.781  15.858   6.575
 4635POPC   C3A61145  15.726  15.812   7.025
 4635POPC   C4A61146  15.835  16.097   7.376
 4635POPC   C1B61147  16.094  16.089   6.239
 4635POPC   C2B61148  16.057  16.271   6.670
 4635POPC   C3B61149  16.171  16.044   6.998
 4635POPC   C4B61150  16.404  16.056   7.347
 4636POPC   NC361151  41.790   5.374   5.441
 4636POPC   PO461152  41.788   4.743   5.432
 4636POPC   GL161153  41.576   4.984   5.764
 4636POPC   GL261154  41.761   5.272   5.950
 4636POPC   C1A61155  41.336   4.875   6.138
 4636POPC   D2A61156  41.480   5.024   6.548
 4636POPC   C3A61157  41.530   4.728   6.882
 4636POPC   C4A61158  41.688   4.764   7.281
 4636POPC   C1B61159  41.366   5.373   6.157
 4636POPC   C2B61160  41.158   5.427   6.544
 4636POPC   C3B61161  41.377   5.447   6.904
 4636POPC   C4B61162  41.740   5.207   7.050
 4637POPC   NC361163  21.617   0.315   5.545
 4637POPC   PO461164  20.961   0.358   5.563
 4637POPC   GL161165  21.229   0.442   5.868
 4637POPC   GL261166  21.461   0.736   5.835
 4637POPC   C1A61167  21.258   0.167   6.193
 4637POPC   D2A61168  21.218   0.355   6.602
 4637POPC   C3A61169  21.376   0.203   6.981
 4637POPC   C4A61170  21.261   0.436   7.351
 4637POPC   C1B61171  21.562   0.561   6.267
 4637POPC   C2B61172  21.753   0.394   6.658
 4637POPC   C3B61173  21.774   0.512   7.099
 4637POPC   C4B61174  21.574   0.818   7.346
 4638POPC   NC361175  13.155  11.908   5.492
 4638POPC   PO461176  13.840  11.937   5.494
 4638POPC   GL161177  13.569  12.097   5.754
 4638POPC   GL261178  13.811  12.153   5.958
 4638POPC   C1A61179  13.315  12.208   6.110
 4638POPC   D2A61180  13.396  12.377   6.521
 4638POPC   C3A61181  13.431  12.164   6.959
 4638POPC   C4A61182  13.370  12.269   7.436
 4638POPC   C1B61183  14.080  11.974   6.247
 4638POPC   C2B61184  14.048  12.039   6.642
 4638POPC   C3B61185  14.001  11.879   7.000
 4638POPC   C4B61186  13.759  11.992   7.323
 4639POPC   NC361187  20.404   6.721   5.381
 4639POPC   PO461188  20.433   6.148   5.476
 4639POPC   GL161189  20.348   6.465   5.842
 4639POPC   GL261190  20.566   6.777   5.858
 4639POPC   C1A61191  20.460   6.522   6.296
 4639POPC   D2A61192  20.626   6.649   6.730
 4639POPC   C3A61193  20.366   6.456   7.106
 4639POPC   C4A61194  20.190   6.314   7.530
 4639POPC   C1B61195  20.575   7.018   6.238
 4639POPC   C2B61196  20.286   7.075   6.568
 4639POPC   C3B61197  20.329   6.954   6.991
 4639POPC   C4B61198  20.736   6.912   7.197
 4640POPC   NC361199   6.981  14.698   5.417
 4640POPC   PO461200   6.475  15.160   5.508
 4640POPC   GL161201   6.706  15.177   5.866
 4640POPC   GL261202   6.955  14.938   5.867
 4640POPC   C1A61203   6.559  15.241   6.267
 4640POPC   D2A61204   6.620  15.502   6.591
 4640POPC   C3A61205   6.699  15.337   6.981
 4640POPC   C4A61206   7.083  15.537   7.080
 4640POPC   C1B61207   6.849  14.839   6.274
 4640POPC   C2B61208   6.697  14.905   6.686
 4640POPC   C3B61209   6.884  14.856   7.098
 4640POPC   C4B61210   6.748  14.781   7.543
 4641POPC   NC361211  39.385  19.618   5.475
 4641POPC   PO461212  39.044  20.106   5.813
 4641POPC   GL161213  39.180  19.697   5.940
 4641POPC   GL261214  38.898  19.602   5.731
 4641POPC   C1A61215  39.459  19.590   6.297
 4641POPC   D2A61216  39.552  19.885   6.614
 4641POPC   C3A61217  39.234  19.914   6.936
 4641POPC   C4A61218  39.175  20.147   7.284
 4641POPC   C1B61219  38.747  19.555   6.173
 4641POPC   C2B61220  39.003  19.609   6.550
 4641POPC   C3B61221  38.869  19.533   6.985
 4641POPC   C4B61222  38.996  19.687   7.402
 4642POPC   NC361223  16.941  33.351   5.348
 4642POPC   PO461224  16.905  32.696   5.462
 4642POPC   GL161225  16.711  32.811   5.858
 4642POPC   GL261226  16.732  33.182   5.834
 4642POPC   C1A61227  16.729  32.965   6.291
 4642POPC   D2A61228  16.578  33.284   6.589
 4642POPC   C3A61229  16.694  33.127   6.983
 4642POPC   C4A61230  16.976  32.784   7.099
 4642POPC   C1B61231  17.013  33.372   6.173
 4642POPC   C2B61232  17.175  33.341   6.623
 4642POPC   C3B61233  17.179  33.272   7.089
 4642POPC   C4B61234  16.856  33.356   7.438
 4643POPC   NC361235  18.352  35.043   5.410
 4643POPC   PO461236  18.043  35.678   5.391
 4643POPC   GL161237  18.251  35.501   5.786
 4643POPC   GL261238  18.422  35.164   5.881
 4643POPC   C1A61239  18.151  35.470   6.237
 4643POPC   D2A61240  18.345  35.446   6.644
 4643POPC   C3A61241  18.123  35.502   7.029
 4643POPC   C4A61242  17.857  35.372   7.344
 4643POPC   C1B61243  18.607  34.913   6.190
 4643POPC   C2B61244  18.449  34.839   6.625
 4643POPC   C3B61245  18.264  34.837   7.021
 4643POPC   C4B61246  18.278  35.069   7.386
 4644POPC   NC361247  22.067  32.293   5.472
 4644POPC   PO461248  22.585  31.877   5.476
 4644POPC   GL161249  22.329  32.074   5.863
 4644POPC   GL261250  21.925  32.032   5.888
 4644POPC   C1A61251  22.166  32.351   6.232
 4644POPC   D2A61252  22.045  32.219   6.675
 4644POPC   C3A61253  22.132  32.486   7.040
 4644POPC   C4A61254  22.221  32.740   7.407
 4644POPC   C1B61255  22.085  31.855   6.265
 4644POPC   C2B61256  22.006  31.698   6.643
 4644POPC   C3B61257  22.143  31.843   7.049
 4644POPC   C4B61258  22.126  32.153   7.402
 4645POPC   NC361259  40.847  17.895   4.970
 4645POPC   PO461260  40.627  18.426   5.427
 4645POPC   GL161261  40.674  18.322   5.818
 4645POPC   GL261262  40.552  18.000   5.760
 4645POPC   C1A61263  40.888  18.326   6.193
 4645POPC   D2A61264  40.776  18.450   6.582
 4645POPC   C3A61265  40.980  18.244   6.868
 4645POPC   C4A61266  40.993  18.286   7.255
 4645POPC   C1B61267  40.417  18.098   6.198
 4645POPC   C2B61268  40.532  17.951   6.575
 4645POPC   C3B61269  40.484  18.113   6.976
 4645POPC   C4B61270  40.552  18.072   7.412
 4646POPC   NC361271  13.785  28.599   5.377
 4646POPC   PO461272  13.269  28.219   5.279
 4646POPC   GL161273  13.649  28.155   5.632
 4646POPC   GL261274  13.758  27.905   5.874
 4646POPC   C1A61275  13.678  28.322   6.128
 4646POPC   D2A61276  13.593  28.538   6.548
 4646POPC   C3A61277  13.413  28.458   6.985
 4646POPC   C4A61278  13.600  28.438   7.400
 4646POPC   C1B61279  13.616  27.831   6.300
 4646POPC   C2B61280  13.573  28.040   6.698
 4646POPC   C3B61281  13.626  27.985   7.115
 4646POPC   C4B61282  13.289  28.035   7.412
 4647POPC   NC361283   6.105   4.450   5.559
 4647POPC   PO461284   6.566   4.082   5.249
 4647POPC   GL161285   6.541   4.096   5.706
 4647POPC   GL261286   6.304   3.864   5.692
 4647POPC   C1A61287   6.564   4.324   6.127
 4647POPC   D2A61288   6.422   4.594   6.483
 4647POPC   C3A61289   6.606   4.607   6.901
 4647POPC   C4A61290   6.542   4.481   7.327
 4647POPC   C1B61291   6.312   3.866   6.149
 4647POPC   C2B61292   6.452   4.051   6.569
 4647POPC   C3B61293   6.500   4.076   7.034
 4647POPC   C4B61294   6.723   3.973   7.453
 4648POPC   NC361295  19.953  11.657   5.497
 4648POPC   PO461296  19.443  12.060   5.512
 4648POPC   GL161297  19.704  12.013   5.797
 4648POPC   GL261298  19.642  11.694   5.901
 4648POPC   C1A61299  19.941  12.209   6.104
 4648POPC   D2A61300  20.095  12.269   6.514
 4648POPC   C3A61301  19.915  12.143   6.908
 4648POPC   C4A61302  20.077  11.898   7.228
 4648POPC   C1B61303  19.609  11.850   6.307
 4648POPC   C2B61304  19.407  11.712   6.678
 4648POPC   C3B61305  19.623  11.693   7.053
 4648POPC   C4B61306  19.589  12.023   7.331
 4649POPC   NC361307  31.695   3.451   5.392
 4649POPC   PO461308  31.097   3.163   5.474
 4649POPC   GL161309  31.269   3.475   5.797
 4649POPC   GL261310  31.626   3.513   5.894
 4649POPC   C1A61311  31.203   3.613   6.225
 4649POPC   D2A61312  31.287   3.526   6.665
 4649POPC   C3A61313  31.037   3.618   7.015
 4649POPC   C4A61314  31.291   3.474   7.323
 4649POPC   C1B61315  31.704   3.471   6.359
 4649POPC   C2B61316  31.793   3.686   6.759
 4649POPC   C3B61317  31.767   3.650   7.200
 4649POPC   C4B61318  31.762   3.335   7.514
 4650POPC   NC361319  37.665  24.486   5.239
 4650POPC   PO461320  38.089  24.784   5.550
 4650POPC   GL161321  37.808  24.575   5.749
 4650POPC   GL261322  37.883  24.235   5.630
 4650POPC   C1A61323  37.851  24.616   6.181
 4650POPC   D2A61324  37.872  24.426   6.539
 4650POPC   C3A61325  37.830  24.636   6.906
 4650POPC   C4A61326  37.849  24.376   7.237
 4650POPC   C1B61327  37.847  24.109   6.068
 4650POPC   C2B61328  37.503  24.121   6.370
 4650POPC   C3B61329  37.475  24.146   6.838
 4650POPC   C4B61330  37.340  24.284   7.267
 4651POPC   NC361331  13.323  35.071   5.288
 4651POPC   PO461332  13.752  35.564   5.260
 4651POPC   GL161333  13.523  35.443   5.698
 4651POPC   GL261334  13.293  35.154   5.799
 4651POPC   C1A61335  13.697  35.256   6.117
 4651POPC   D2A61336  13.947  35.317   6.517
 4651POPC   C3A61337  13.754  35.336   6.933
 4651POPC   C4A61338  13.636  35.566   7.308
 4651POPC   C1B61339  13.311  34.906   6.184
 4651POPC   C2B61340  13.545  34.963   6.549
 4651POPC   C3B61341  13.383  34.955   6.930
 4651POPC   C4B61342  13.449  35.095   7.289
 4652POPC   NC361343  19.343  25.456   5.451
 4652POPC   PO461344  18.626  25.423   5.381
 4652POPC   GL161345  18.881  25.302   5.746
 4652POPC   GL261346  19.191  25.228   5.894
 4652POPC   C1A61347  18.821  25.294   6.225
 4652POPC   D2A61348  19.004  25.065   6.573
 4652POPC   C3A61349  18.952  25.149   7.026
 4652POPC   C4A61350  18.655  25.370   7.298
 4652POPC   C1B61351  19.331  25.389   6.305
 4652POPC   C2B61352  19.375  25.342   6.772
 4652POPC   C3B61353  19.431  25.361   7.213
 4652POPC   C4B61354  19.584  25.489   7.608
 4653POPC   NC361355  27.242   9.381   5.312
 4653POPC   PO461356  26.819   8.899   5.317
 4653POPC   GL161357  26.776   8.901   5.741
 4653POPC   GL261358  27.077   9.009   5.862
 4653POPC   C1A61359  26.671   8.796   6.162
 4653POPC   D2A61360  26.519   9.026   6.502
 4653POPC   C3A61361  26.535   8.835   6.906
 4653POPC   C4A61362  26.736   9.054   7.224
 4653POPC   C1B61363  27.054   9.099   6.318
 4653POPC   C2B61364  26.996   9.038   6.759
 4653POPC   C3B61365  27.219   9.119   7.146
 4653POPC   C4B61366  27.018   9.315   7.565
 4654POPC   NC361367  12.370  40.602   5.240
 4654POPC   PO461368  11.749  40.642   5.394
 4654POPC   GL161369  12.073  40.565   5.706
 4654POPC   GL261370  12.413  40.417   5.735
 4654POPC   C1A61371  12.095  40.708   6.156
 4654POPC   D2A61372  12.099  40.664   6.609
 4654POPC   C3A61373  11.930  40.952   6.870
 4654POPC   C4A61374  11.850  41.104   7.248
 4654POPC   C1B61375  12.570  40.470   6.163
 4654POPC   C2B61376  12.527  40.399   6.599
 4654POPC   C3B61377  12.437  40.557   7.010
 4654POPC   C4B61378  12.023  40.575   7.212
 4655POPC   NC361379  16.549   6.156   5.498
 4655POPC   PO461380  17.102   5.706   5.478
 4655POPC   GL161381  16.803   5.847   5.818
 4655POPC   GL261382  16.840   6.221   5.897
 4655POPC   C1A61383  16.688   5.666   6.200
 4655POPC   D2A61384  16.939   5.599   6.572
 4655POPC   C3A61385  16.732   5.457   6.947
 4655POPC   C4A61386  16.651   5.630   7.343
 4655POPC   C1B61387  16.585   6.224   6.272
 4655POPC   C2B61388  16.472   6.114   6.719
 4655POPC   C3B61389  16.675   6.089   7.131
 4655POPC   C4B61390  16.845   6.201   7.540
 4656POPC   NC361391  28.914   6.122   5.494
 4656POPC   PO461392  29.520   5.738   5.567
 4656POPC   GL161393  29.252   5.946   5.857
 4656POPC   GL261394  28.917   5.774   5.856
 4656POPC   C1A61395  29.264   5.811   6.271
 4656POPC   D2A61396  29.266   5.816   6.687
 4656POPC   C3A61397  29.414   5.463   6.902
 4656POPC   C4A61398  29.172   5.450   7.267
 4656POPC   C1B61399  28.753   5.924   6.234
 4656POPC   C2B61400  28.667   5.961   6.668
 4656POPC   C3B61401  28.813   5.808   7.067
 4656POPC   C4B61402  28.824   5.906   7.499
 4657POPC   NC361403  31.105  12.951   5.430
 4657POPC   PO461404  31.741  12.941   5.694
 4657POPC   GL161405  31.534  12.725   5.985
 4657POPC   GL261406  31.191  12.698   5.878
 4657POPC   C1A61407  31.579  12.906   6.385
 4657POPC   D2A61408  31.570  13.217   6.714
 4657POPC   C3A61409  31.666  12.965   7.060
 4657POPC   C4A61410  31.780  12.531   7.107
 4657POPC   C1B61411  31.071  12.929   6.214
 4657POPC   C2B61412  31.132  12.848   6.628
 4657POPC   C3B61413  31.133  12.990   7.023
 4657POPC   C4B61414  31.135  13.026   7.468
 4658POPC   NC361415   1.911  39.877   5.436
 4658POPC   PO461416   2.278  40.441   5.607
 4658POPC   GL161417   2.226  40.106   5.885
 4658POPC   GL261418   1.968  39.838   5.939
 4658POPC   C1A61419   2.148  40.103   6.339
 4658POPC   D2A61420   1.890  40.112   6.722
 4658POPC   C3A61421   2.078  40.163   7.132
 4658POPC   C4A61422   2.152  40.054   7.543
 4658POPC   C1B61423   1.812  39.686   6.375
 4658POPC   C2B61424   1.737  39.634   6.843
 4658POPC   C3B61425   1.688  39.872   7.273
 4658POPC   C4B61426   1.790  39.704   7.709
 4659POPC   NC361427  37.579  38.720   5.385
 4659POPC   PO461428  37.509  39.417   5.463
 4659POPC   GL161429  37.701  39.106   5.748
 4659POPC   GL261430  37.763  39.387   5.928
 4659POPC   C1A61431  37.936  38.967   6.151
 4659POPC   D2A61432  37.906  39.179   6.523
 4659POPC   C3A61433  37.681  38.975   6.810
 4659POPC   C4A61434  37.879  38.996   7.170
 4659POPC   C1B61435  37.496  39.241   6.241
 4659POPC   C2B61436  37.289  39.270   6.617
 4659POPC   C3B61437  37.435  39.393   6.987
 4659POPC   C4B61438  37.707  39.466   7.289
 4660POPC   NC361439   7.895  34.112   5.422
 4660POPC   PO461440   8.462  33.720   5.495
 4660POPC   GL161441   8.343  34.022   5.826
 4660POPC   GL261442   7.987  34.052   5.933
 4660POPC   C1A61443   8.479  34.026   6.268
 4660POPC   D2A61444   8.144  34.040   6.573
 4660POPC   C3A61445   8.198  33.859   6.998
 4660POPC   C4A61446   8.206  33.802   7.482
 4660POPC   C1B61447   7.923  33.699   6.254
 4660POPC   C2B61448   7.841  33.518   6.713
 4660POPC   C3B61449   7.900  33.519   7.194
 4660POPC   C4B61450   8.086  33.298   7.590
 4661POPC   NC361451  14.634  17.361   5.289
 4661POPC   PO461452  14.188  17.869   5.339
 4661POPC   GL161453  14.066  17.775   5.814
 4661POPC   GL261454  14.062  17.407   5.904
 4661POPC   C1A61455  14.212  17.685   6.290
 4661POPC   D2A61456  14.435  17.587   6.712
 4661POPC   C3A61457  14.389  17.716   7.166
 4661POPC   C4A61458  14.606  17.671   7.597
 4661POPC   C1B61459  14.125  17.160   6.275
 4661POPC   C2B61460  14.043  17.264   6.700
 4661POPC   C3B61461  14.333  17.177   7.052
 4661POPC   C4B61462  14.306  17.280   7.482
 4662POPC   NC361463  30.334   2.869   5.636
 4662POPC   PO461464  29.729   3.013   5.409
 4662POPC   GL161465  29.808   2.750   5.816
 4662POPC   GL261466  30.089   2.468   5.854
 4662POPC   C1A61467  29.946   2.832   6.252
 4662POPC   D2A61468  30.179   2.987   6.612
 4662POPC   C3A61469  29.949   2.970   6.956
 4662POPC   C4A61470  30.010   3.036   7.356
 4662POPC   C1B61471  30.261   2.401   6.279
 4662POPC   C2B61472  30.128   2.489   6.736
 4662POPC   C3B61473  30.243   2.455   7.181
 4662POPC   C4B61474  30.374   2.502   7.654
 4663POPC   NC361475  35.316   8.476   5.669
 4663POPC   PO461476  35.274   7.828   5.387
 4663POPC   GL161477  35.390   7.988   5.772
 4663POPC   GL261478  35.070   8.087   5.901
 4663POPC   C1A61479  35.563   8.086   6.199
 4663POPC   D2A61480  35.558   7.988   6.655
 4663POPC   C3A61481  35.263   8.234   6.892
 4663POPC   C4A61482  35.298   8.354   7.308
 4663POPC   C1B61483  34.857   8.304   6.237
 4663POPC   C2B61484  34.791   8.180   6.666
 4663POPC   C3B61485  34.797   8.421   7.036
 4663POPC   C4B61486  34.874   8.555   7.466
 4664POPC   NC361487  30.641  17.982   5.397
 4664POPC   PO461488  30.517  17.310   5.480
 4664POPC   GL161489  30.730  17.453   5.832
 4664POPC   GL261490  30.975  17.676   5.635
 4664POPC   C1A61491  30.663  17.476   6.307
 4664POPC   D2A61492  30.807  17.469   6.758
 4664POPC   C3A61493  30.496  17.390   7.096
 4664POPC   C4A61494  30.565  17.297   7.553
 4664POPC   C1B61495  30.880  17.870   6.052
 4664POPC   C2B61496  30.913  17.902   6.489
 4664POPC   C3B61497  30.878  17.954   6.934
 4664POPC   C4B61498  30.869  17.660   7.299
 4665POPC   NC361499  10.029  35.110   5.484
 4665POPC   PO461500   9.422  35.518   5.459
 4665POPC   GL161501   9.749  35.524   5.761
 4665POPC   GL261502   9.663  35.217   5.821
 4665POPC   C1A61503   9.883  35.513   6.192
 4665POPC   D2A61504   9.718  35.367   6.567
 4665POPC   C3A61505   9.825  35.513   6.963
 4665POPC   C4A61506   9.585  35.332   7.314
 4665POPC   C1B61507   9.693  35.018   6.179
 4665POPC   C2B61508   9.761  34.864   6.558
 4665POPC   C3B61509   9.779  35.008   6.940
 4665POPC   C4B61510   9.640  34.835   7.268
 4666POPC   NC361511  11.227  19.386   5.567
 4666POPC   PO461512  11.582  18.881   5.261
 4666POPC   GL161513  11.499  18.874   5.737
 4666POPC   GL261514  11.457  19.173   5.930
 4666POPC   C1A61515  11.456  18.780   6.217
 4666POPC   D2A61516  11.193  18.819   6.602
 4666POPC   C3A61517  11.314  19.014   7.007
 4666POPC   C4A61518  11.068  18.986   7.392
 4666POPC   C1B61519  11.683  19.285   6.261
 4666POPC   C2B61520  11.529  19.319   6.645
 4666POPC   C3B61521  11.571  19.488   7.026
 4666POPC   C4B61522  11.531  19.296   7.423
 4667POPC   NC361523   2.872  11.715   5.427
 4667POPC   PO461524   3.279  12.307   5.486
 4667POPC   GL161525   3.105  12.006   5.797
 4667POPC   GL261526   2.734  12.005   5.832
 4667POPC   C1A61527   3.112  11.909   6.252
 4667POPC   D2A61528   2.918  12.021   6.681
 4667POPC   C3A61529   3.105  12.080   7.096
 4667POPC   C4A61530   3.030  12.287   7.512
 4667POPC   C1B61531   2.620  12.139   6.260
 4667POPC   C2B61532   2.453  12.259   6.687
 4667POPC   C3B61533   2.663  12.341   7.101
 4667POPC   C4B61534   2.521  12.218   7.509
 4668POPC   NC361535   6.781   3.725   5.425
 4668POPC   PO461536   6.093   3.520   5.376
 4668POPC   GL161537   6.330   3.323   5.744
 4668POPC   GL261538   6.636   3.499   5.868
 4668POPC   C1A61539   6.288   3.363   6.218
 4668POPC   D2A61540   6.109   3.569   6.586
 4668POPC   C3A61541   6.427   3.586   6.919
 4668POPC   C4A61542   6.586   3.461   7.328
 4668POPC   C1B61543   6.758   3.111   6.127
 4668POPC   C2B61544   6.888   3.017   6.588
 4668POPC   C3B61545   6.951   3.241   7.024
 4668POPC   C4B61546   7.083   3.453   7.431
 4669POPC   NC361547   0.290  41.113   5.503
 4669POPC   PO461548   0.618  40.485   5.484
 4669POPC   GL161549   0.407  40.657   5.838
 4669POPC   GL261550   0.067  40.738   5.768
 4669POPC   C1A61551   0.399  40.731   6.285
 4669POPC   D2A61552   0.612  40.613   6.670
 4669POPC   C3A61553   0.683  40.990   6.901
 4669POPC   C4A61554   0.684  41.111   7.333
 4669POPC   C1B61555  44.943  40.518   6.151
 4669POPC   C2B61556   0.029  40.572   6.604
 4669POPC   C3B61557   0.193  40.759   6.992
 4669POPC   C4B61558  44.950  40.653   7.360
 4670POPC   NC361559  11.769  44.842   5.485
 4670POPC   PO461560  12.261  44.373   5.398
 4670POPC   GL161561  12.272  44.631   5.770
 4670POPC   GL261562  12.225   0.006   5.733
 4670POPC   C1A61563  12.222  44.464   6.195
 4670POPC   D2A61564  11.879  44.489   6.486
 4670POPC   C3A61565  11.959  44.655   6.884
 4670POPC   C4A61566  12.045  44.507   7.262
 4670POPC   C1B61567  11.997  44.939   6.140
 4670POPC   C2B61568  11.823   0.026   6.545
 4670POPC   C3B61569  11.736   0.103   6.973
 4670POPC   C4B61570  11.918   0.050   7.336
 4671POPC   NC361571  29.266  27.945   5.345
 4671POPC   PO461572  28.897  27.479   5.273
 4671POPC   GL161573  28.885  27.523   5.731
 4671POPC   GL261574  29.045  27.810   5.802
 4671POPC   C1A61575  29.049  27.479   6.193
 4671POPC   D2A61576  29.223  27.726   6.554
 4671POPC   C3A61577  29.191  27.548   6.960
 4671POPC   C4A61578  28.933  27.267   7.194
 4671POPC   C1B61579  28.902  27.972   6.209
 4671POPC   C2B61580  28.890  28.112   6.620
 4671POPC   C3B61581  29.063  28.031   7.034
 4671POPC   C4B61582  29.045  27.763   7.397
 4672POPC   NC361583  20.296  39.998   5.468
 4672POPC   PO461584  20.923  39.715   5.408
 4672POPC   GL161585  20.717  39.889   5.785
 4672POPC   GL261586  20.668  40.258   5.781
 4672POPC   C1A61587  20.485  39.954   6.187
 4672POPC   D2A61588  20.350  40.163   6.589
 4672POPC   C3A61589  20.343  39.913   6.978
 4672POPC   C4A61590  20.112  39.818   7.304
 4672POPC   C1B61591  20.675  40.438   6.232
 4672POPC   C2B61592  20.858  40.217   6.624
 4672POPC   C3B61593  20.804  40.068   7.072
 4672POPC   C4B61594  20.527  40.078   7.458
 4673POPC   NC361595  25.526  30.912   5.430
 4673POPC   PO461596  25.478  30.296   5.489
 4673POPC   GL161597  25.341  30.588   5.827
 4673POPC   GL261598  25.097  30.887   5.779
 4673POPC   C1A61599  25.388  30.748   6.254
 4673POPC   D2A61600  25.596  30.798   6.681
 4673POPC   C3A61601  25.272  30.792   7.000
 4673POPC   C4A61602  24.979  30.462   7.041
 4673POPC   C1B61603  24.870  30.854   6.178
 4673POPC   C2B61604  24.787  30.837   6.626
 4673POPC   C3B61605  24.747  31.117   6.950
 4673POPC   C4B61606  24.951  31.088   7.355
 4674POPC   NC361607   9.311  36.717   5.296
 4674POPC   PO461608   8.804  37.062   5.343
 4674POPC   GL161609   8.833  37.026   5.788
 4674POPC   GL261610   9.148  36.889   5.812
 4674POPC   C1A61611   8.780  37.157   6.234
 4674POPC   D2A61612   8.670  37.339   6.671
 4674POPC   C3A61613   8.790  37.125   7.083
 4674POPC   C4A61614   8.760  37.270   7.558
 4674POPC   C1B61615   8.959  36.667   6.182
 4674POPC   C2B61616   8.904  36.426   6.579
 4674POPC   C3B61617   9.029  36.609   6.978
 4674POPC   C4B61618   9.318  36.992   7.036
 4675POPC   NC361619   9.398  39.046   5.665
 4675POPC   PO461620   8.754  39.352   5.583
 4675POPC   GL161621   8.940  39.175   5.875
 4675POPC   GL261622   9.173  39.447   5.910
 4675POPC   C1A61623   8.938  39.222   6.310
 4675POPC   D2A61624   8.729  39.196   6.712
 4675POPC   C3A61625   9.028  39.134   7.032
 4675POPC   C4A61626   9.263  38.808   7.262
 4675POPC   C1B61627   9.328  39.570   6.283
 4675POPC   C2B61628   9.110  39.534   6.665
 4675POPC   C3B61629   9.124  39.691   7.032
 4675POPC   C4B61630   9.391  39.486   7.260
 4676POPC   NC361631  37.364  28.932   5.076
 4676POPC   PO461632  37.684  29.318   5.578
 4676POPC   GL161633  37.841  29.150   5.934
 4676POPC   GL261634  37.880  28.843   5.873
 4676POPC   C1A61635  37.933  29.199   6.330
 4676POPC   D2A61636  37.656  29.441   6.535
 4676POPC   C3A61637  37.687  29.408   6.961
 4676POPC   C4A61638  37.313  29.500   7.124
 4676POPC   C1B61639  37.564  28.863   6.255
 4676POPC   C2B61640  37.602  28.952   6.714
 4676POPC   C3B61641  37.625  28.941   7.173
 4676POPC   C4B61642  37.452  28.818   7.594
 4677POPC   NC361643  40.906  36.662   5.389
 4677POPC   PO461644  40.653  37.280   5.435
 4677POPC   GL161645  40.798  37.124   5.838
 4677POPC   GL261646  40.759  36.757   5.864
 4677POPC   C1A61647  40.743  37.032   6.284
 4677POPC   D2A61648  40.980  36.886   6.604
 4677POPC   C3A61649  40.696  37.032   6.920
 4677POPC   C4A61650  40.778  36.964   7.339
 4677POPC   C1B61651  40.672  36.509   6.243
 4677POPC   C2B61652  40.552  36.625   6.629
 4677POPC   C3B61653  40.823  36.551   6.957
 4677POPC   C4B61654  40.643  36.435   7.290
 4678POPC   NC361655   4.469   3.106   5.506
 4678POPC   PO461656   4.025   2.722   5.153
 4678POPC   GL161657   3.980   2.687   5.664
 4678POPC   GL261658   4.119   2.974   5.875
 4678POPC   C1A61659   3.938   2.500   6.086
 4678POPC   D2A61660   3.807   2.638   6.520
 4678POPC   C3A61661   4.156   2.803   6.823
 4678POPC   C4A61662   4.484   2.551   7.088
 4678POPC   C1B61663   4.494   3.021   6.185
 4678POPC   C2B61664   4.666   2.897   6.601
 4678POPC   C3B61665   4.639   3.067   7.027
 4678POPC   C4B61666   4.720   2.905   7.418
 4679POPC   NC361667  26.143  15.346   5.502
 4679POPC   PO461668  25.894  14.757   5.324
 4679POPC   GL161669  25.853  14.969   5.736
 4679POPC   GL261670  26.140  14.889   5.849
 4679POPC   C1A61671  25.865  15.081   6.222
 4679POPC   D2A61672  26.085  15.337   6.552
 4679POPC   C3A61673  25.936  15.329   6.978
 4679POPC   C4A61674  25.572  15.199   7.202
 4679POPC   C1B61675  26.373  15.024   6.200
 4679POPC   C2B61676  26.366  14.914   6.611
 4679POPC   C3B61677  26.374  15.080   7.017
 4679POPC   C4B61678  26.356  14.889   7.423
 4680POPC   NC361679  42.686  19.300   5.363
 4680POPC   PO461680  43.221  18.857   5.564
 4680POPC   GL161681  42.919  19.047   5.789
 4680POPC   GL261682  43.006  18.790   6.043
 4680POPC   C1A61683  42.818  19.245   6.186
 4680POPC   D2A61684  42.932  19.031   6.565
 4680POPC   C3A61685  42.645  19.081   6.896
 4680POPC   C4A61686  42.804  19.295   7.230
 4680POPC   C1B61687  43.369  18.960   6.272
 4680POPC   C2B61688  43.604  18.831   6.630
 4680POPC   C3B61689  43.518  18.962   7.009
 4680POPC   C4B61690  43.100  18.909   7.072
 4681POPC   NC361691   9.893  39.713   5.420
 4681POPC   PO461692   9.890  40.399   5.430
 4681POPC   GL161693   9.830  40.140   5.804
 4681POPC   GL261694  10.158  40.053   5.862
 4681POPC   C1A61695   9.701  39.929   6.222
 4681POPC   D2A61696   9.489  39.895   6.670
 4681POPC   C3A61697   9.517  40.026   7.125
 4681POPC   C4A61698   9.722  39.830   7.486
 4681POPC   C1B61699  10.092  40.288   6.224
 4681POPC   C2B61700   9.887  40.237   6.588
 4681POPC   C3B61701   9.979  40.036   6.920
 4681POPC   C4B61702  10.268  39.884   7.164
 4682POPC   NC361703  29.401  28.680   5.610
 4682POPC   PO461704  28.908  28.242   5.385
 4682POPC   GL161705  29.154  28.295   5.794
 4682POPC   GL261706  28.880  28.360   5.905
 4682POPC   C1A61707  29.246  28.342   6.284
 4682POPC   D2A61708  29.407  28.224   6.707
 4682POPC   C3A61709  29.511  28.451   7.109
 4682POPC   C4A61710  29.394  28.656   7.545
 4682POPC   C1B61711  28.805  28.597   6.260
 4682POPC   C2B61712  28.619  28.561   6.631
 4682POPC   C3B61713  28.967  28.522   6.894
 4682POPC   C4B61714  29.011  28.449   7.295
 4683POPC   NC361715  27.924  28.318   5.708
 4683POPC   PO461716  27.387  28.469   5.331
 4683POPC   GL161717  27.502  28.619   5.757
 4683POPC   GL261718  27.261  28.395   5.952
 4683POPC   C1A61719  27.687  28.616   6.209
 4683POPC   D2A61720  27.454  28.656   6.556
 4683POPC   C3A61721  27.239  28.366   6.807
 4683POPC   C4A61722  27.502  28.502   7.099
 4683POPC   C1B61723  27.421  28.178   6.353
 4683POPC   C2B61724  27.702  28.160   6.737
 4683POPC   C3B61725  27.755  28.063   7.181
 4683POPC   C4B61726  27.815  27.994   7.614
 4684POPC   NC361727   2.380  40.876   5.478
 4684POPC   PO461728   2.984  40.568   5.419
 4684POPC   GL161729   3.001  40.644   5.860
 4684POPC   GL261730   2.650  40.596   5.917
 4684POPC   C1A61731   2.949  40.726   6.317
 4684POPC   D2A61732   2.742  40.740   6.694
 4684POPC   C3A61733   2.900  40.770   7.085
 4684POPC   C4A61734   2.872  41.014   7.407
 4684POPC   C1B61735   2.406  40.632   6.305
 4684POPC   C2B61736   2.290  40.456   6.675
 4684POPC   C3B61737   2.473  40.427   7.003
 4684POPC   C4B61738   2.460  40.495   7.376
 4685POPC   NC361739  44.036  25.215   5.502
 4685POPC   PO461740  43.636  24.697   5.450
 4685POPC   GL161741  43.696  24.478   5.830
 4685POPC   GL261742  44.012  24.284   5.836
 4685POPC   C1A61743  43.744  24.651   6.238
 4685POPC   D2A61744  43.958  24.675   6.660
 4685POPC   C3A61745  43.873  24.374   7.000
 4685POPC   C4A61746  44.115  23.980   7.099
 4685POPC   C1B61747  44.177  24.392   6.257
 4685POPC   C2B61748  44.274  24.260   6.694
 4685POPC   C3B61749  44.398  24.420   7.129
 4685POPC   C4B61750  44.580  24.530   7.566
 4686POPC   NC361751   1.338  39.166   5.168
 4686POPC   PO461752   0.849  39.572   5.214
 4686POPC   GL161753   1.057  39.281   5.609
 4686POPC   GL261754   1.431  39.123   5.679
 4686POPC   C1A61755   1.144  39.335   6.101
 4686POPC   D2A61756   1.052  39.565   6.541
 4686POPC   C3A61757   1.012  39.400   6.982
 4686POPC   C4A61758   0.811  39.466   7.408
 4686POPC   C1B61759   1.662  39.225   6.080
 4686POPC   C2B61760   1.503  39.252   6.509
 4686POPC   C3B61761   1.466  39.162   6.937
 4686POPC   C4B61762   1.602  39.388   7.285
 4687POPC   NC361763  14.221  22.051   5.558
 4687POPC   PO461764  14.850  22.235   5.352
 4687POPC   GL161765  14.649  22.175   5.772
 4687POPC   GL261766  14.473  22.463   5.857
 4687POPC   C1A61767  14.402  22.067   6.194
 4687POPC   D2A61768  14.175  22.150   6.616
 4687POPC   C3A61769  14.384  21.983   7.010
 4687POPC   C4A61770  14.579  21.713   7.368
 4687POPC   C1B61771  14.371  22.564   6.280
 4687POPC   C2B61772  14.519  22.569   6.678
 4687POPC   C3B61773  14.802  22.591   7.003
 4687POPC   C4B61774  14.688  22.607   7.445
 4688POPC   NC361775  17.646  40.498   5.566
 4688POPC   PO461776  17.157  41.035   5.355
 4688POPC   GL161777  17.307  40.845   5.745
 4688POPC   GL261778  17.537  41.102   5.846
 4688POPC   C1A61779  17.444  40.662   6.181
 4688POPC   D2A61780  17.740  40.544   6.545
 4688POPC   C3A61781  17.643  40.551   7.001
 4688POPC   C4A61782  17.249  40.622   7.247
 4688POPC   C1B61783  17.737  41.085   6.240
 4688POPC   C2B61784  17.470  41.032   6.584
 4688POPC   C3B61785  17.462  41.034   7.004
 4688POPC   C4B61786  17.827  41.246   7.107
 4689POPC   NC361787  29.517   3.492   5.544
 4689POPC   PO461788  28.909   3.239   5.403
 4689POPC   GL161789  29.091   3.310   5.797
 4689POPC   GL261790  29.360   3.059   5.801
 4689POPC   C1A61791  29.171   3.583   6.164
 4689POPC   D2A61792  29.459   3.744   6.469
 4689POPC   C3A61793  29.295   3.950   6.835
 4689POPC   C4A61794  29.351   3.821   7.258
 4689POPC   C1B61795  29.483   3.167   6.192
 4689POPC   C2B61796  29.258   3.259   6.571
 4689POPC   C3B61797  29.183   3.447   6.954
 4689POPC   C4B61798  29.179   3.342   7.377
 4690POPC   NC361799   3.587  28.651   5.301
 4690POPC   PO461800   3.213  28.254   5.403
 4690POPC   GL161801   3.437  28.451   5.802
 4690POPC   GL261802   3.371  28.789   5.807
 4690POPC   C1A61803   3.635  28.559   6.267
 4690POPC   D2A61804   3.740  28.848   6.674
 4690POPC   C3A61805   3.700  28.639   7.120
 4690POPC   C4A61806   3.896  28.452   7.517
 4690POPC   C1B61807   3.173  28.757   6.240
 4690POPC   C2B61808   3.282  28.624   6.673
 4690POPC   C3B61809   3.167  28.497   7.100
 4690POPC   C4B61810   3.010  28.265   7.480
 4691POPC   NC361811  37.420   9.762   5.437
 4691POPC   PO461812  37.902   9.425   5.629
 4691POPC   GL161813  37.498   9.474   5.877
 4691POPC   GL261814  37.367   9.840   5.922
 4691POPC   C1A61815  37.465   9.566   6.328
 4691POPC   D2A61816  37.485   9.803   6.739
 4691POPC   C3A61817  37.614   9.503   7.072
 4691POPC   C4A61818  38.061   9.525   7.190
 4691POPC   C1B61819  37.425  10.096   6.273
 4691POPC   C2B61820  37.282  10.296   6.651
 4691POPC   C3B61821  37.584  10.295   6.937
 4691POPC   C4B61822  37.691   9.976   7.207
 4692POPC   NC361823  44.550   4.131   5.330
 4692POPC   PO461824  44.780   4.690   5.639
 4692POPC   GL161825  44.801   4.308   5.840
 4692POPC   GL261826  44.647   3.984   5.820
 4692POPC   C1A61827  44.742   4.289   6.257
 4692POPC   D2A61828  44.913   4.413   6.618
 4692POPC   C3A61829  44.616   4.429   6.928
 4692POPC   C4A61830  44.847   4.261   7.236
 4692POPC   C1B61831  44.572   3.814   6.247
 4692POPC   C2B61832  44.632   3.975   6.680
 4692POPC   C3B61833  44.431   3.971   7.135
 4692POPC   C4B61834  44.297   3.752   7.541
 4693POPC   NC361835  11.778  14.910   5.406
 4693POPC   PO461836  12.412  14.979   5.253
 4693POPC   GL161837  12.191  14.748   5.730
 4693POPC   GL261838  11.925  14.991   5.875
 4693POPC   C1A61839  12.242  14.740   6.248
 4693POPC   D2A61840  12.272  14.785   6.747
 4693POPC   C3A61841  12.082  15.223   6.913
 4693POPC   C4A61842  11.851  15.626   7.055
 4693POPC   C1B61843  11.727  14.803   6.165
 4693POPC   C2B61844  11.788  14.681   6.555
 4693POPC   C3B61845  11.772  14.808   6.950
 4693POPC   C4B61846  12.092  14.849   7.267
 4694POPC   NC361847  21.979  22.765   5.437
 4694POPC   PO461848  21.321  23.073   5.360
 4694POPC   GL161849  21.424  23.090   5.761
 4694POPC   GL261850  21.087  23.186   5.887
 4694POPC   C1A61851  21.435  22.928   6.184
 4694POPC   D2A61852  21.365  22.727   6.593
 4694POPC   C3A61853  21.364  22.811   7.028
 4694POPC   C4A61854  21.401  22.739   7.457
 4694POPC   C1B61855  21.022  23.202   6.356
 4694POPC   C2B61856  20.988  23.133   6.831
 4694POPC   C3B61857  20.742  23.122   7.250
 4694POPC   C4B61858  20.887  22.997   7.678
 4695POPC   NC361859  40.548   6.729   5.260
 4695POPC   PO461860  41.145   7.050   5.201
 4695POPC   GL161861  40.927   6.838   5.588
 4695POPC   GL261862  40.912   7.060   5.851
 4695POPC   C1A61863  40.743   6.566   5.942
 4695POPC   D2A61864  40.703   6.258   6.312
 4695POPC   C3A61865  40.663   6.459   6.744
 4695POPC   C4A61866  40.821   6.621   7.181
 4695POPC   C1B61867  40.758   7.022   6.283
 4695POPC   C2B61868  40.921   6.918   6.700
 4695POPC   C3B61869  41.210   6.911   7.064
 4695POPC   C4B61870  41.181   6.810   7.531
 4696POPC   NC361871  30.429   5.812   5.419
 4696POPC   PO461872  31.106   5.641   5.459
 4696POPC   GL161873  30.802   5.764   5.764
 4696POPC   GL261874  30.788   6.126   5.733
 4696POPC   C1A61875  30.584   5.903   6.137
 4696POPC   D2A61876  30.518   5.768   6.551
 4696POPC   C3A61877  30.718   5.726   6.920
 4696POPC   C4A61878  30.449   5.655   7.231
 4696POPC   C1B61879  30.929   6.314   6.116
 4696POPC   C2B61880  30.758   6.224   6.517
 4696POPC   C3B61881  30.557   6.210   6.903
 4696POPC   C4B61882  30.704   6.101   7.282
 4697POPC   NC361883  40.957  17.245   5.359
 4697POPC   PO461884  40.518  17.725   5.250
 4697POPC   GL161885  40.634  17.508   5.654
 4697POPC   GL261886  40.941  17.648   5.735
 4697POPC   C1A61887  40.850  17.294   6.070
 4697POPC   D2A61888  40.741  17.448   6.481
 4697POPC   C3A61889  40.752  17.245   6.844
 4697POPC   C4A61890  40.845  17.160   7.246
 4697POPC   C1B61891  40.862  17.818   6.135
 4697POPC   C2B61892  41.041  17.854   6.545
 4697POPC   C3B61893  40.853  17.751   6.936
 4697POPC   C4B61894  41.021  17.725   7.320
 4698POPC   NC361895   7.313  18.662   5.337
 4698POPC   PO461896   7.648  18.060   5.074
 4698POPC   GL161897   7.666  18.127   5.613
 4698POPC   GL261898   7.352  18.307   5.828
 4698POPC   C1A61899   7.654  18.036   6.122
 4698POPC   D2A61900   7.448  18.118   6.579
 4698POPC   C3A61901   7.463  18.148   7.075
 4698POPC   C4A61902   7.347  18.107   7.552
 4698POPC   C1B61903   7.428  18.510   6.233
 4698POPC   C2B61904   7.549  18.703   6.619
 4698POPC   C3B61905   7.430  18.664   7.037
 4698POPC   C4B61906   7.561  18.543   7.428
 4699POPC   NC361907  12.173   2.143   5.522
 4699POPC   PO461908  11.773   1.585   5.389
 4699POPC   GL161909  11.751   1.792   5.804
 4699POPC   GL261910  11.727   2.169   5.831
 4699POPC   C1A61911  11.748   1.879   6.247
 4699POPC   D2A61912  12.071   1.894   6.521
 4699POPC   C3A61913  11.857   1.902   6.862
 4699POPC   C4A61914  11.945   1.853   7.260
 4699POPC   C1B61915  11.995   2.313   6.194
 4699POPC   C2B61916  11.937   2.376   6.647
 4699POPC   C3B61917  12.065   2.341   7.071
 4699POPC   C4B61918  12.173   2.237   7.484
 4700POPC   NC361919  14.418  40.303   5.501
 4700POPC   PO461920  14.128  39.698   5.648
 4700POPC   GL161921  14.552  39.899   5.785
 4700POPC   GL261922  14.310  40.143   5.970
 4700POPC   C1A61923  14.773  40.134   6.164
 4700POPC   D2A61924  14.548  40.259   6.578
 4700POPC   C3A61925  14.666  40.408   7.028
 4700POPC   C4A61926  14.539  40.276   7.459
 4700POPC   C1B61927  14.401  39.787   6.241
 4700POPC   C2B61928  14.293  39.685   6.588
 4700POPC   C3B61929  14.428  39.895   6.917
 4700POPC   C4B61930  14.296  39.827   7.310
 4701POPC   NC361931   5.797  35.584   5.562
 4701POPC   PO461932   5.498  35.109   5.205
 4701POPC   GL161933   5.704  35.073   5.677
 4701POPC   GL261934   6.021  35.243   5.859
 4701POPC   C1A61935   5.663  35.110   6.153
 4701POPC   D2A61936   5.883  35.219   6.539
 4701POPC   C3A61937   5.679  35.304   6.894
 4701POPC   C4A61938   5.563  35.151   7.280
 4701POPC   C1B61939   6.229  35.609   6.080
 4701POPC   C2B61940   6.142  35.837   6.459
 4701POPC   C3B61941   6.042  35.667   6.845
 4701POPC   C4B61942   5.954  35.510   7.262
 4702POPC   NC361943  37.338  15.197   5.408
 4702POPC   PO461944  38.002  14.974   5.379
 4702POPC   GL161945  37.754  15.119   5.714
 4702POPC   GL261946  37.481  14.881   5.805
 4702POPC   C1A61947  37.908  15.368   6.079
 4702POPC   D2A61948  38.046  15.236   6.495
 4702POPC   C3A61949  37.806  15.309   6.877
 4702POPC   C4A61950  37.876  15.587   7.212
 4702POPC   C1B61951  37.410  15.202   6.111
 4702POPC   C2B61952  37.437  15.137   6.538
 4702POPC   C3B61953  37.290  15.258   6.937
 4702POPC   C4B61954  37.386  15.498   7.264
 4703POPC   NC361955  10.694  22.115   5.243
 4703POPC   PO461956  10.045  21.942   5.170
 4703POPC   GL161957  10.311  22.130   5.606
 4703POPC   GL261958  10.665  22.012   5.739
 4703POPC   C1A61959  10.356  22.152   6.102
 4703POPC   D2A61960  10.339  22.321   6.520
 4703POPC   C3A61961  10.209  22.122   6.899
 4703POPC   C4A61962  10.471  22.201   7.279
 4703POPC   C1B61963  10.802  21.839   6.126
 4703POPC   C2B61964  10.830  22.070   6.505
 4703POPC   C3B61965  10.696  21.963   6.883
 4703POPC   C4B61966  10.782  21.809   7.266
 4704POPC   NC361967  10.987  23.280   5.012
 4704POPC   PO461968  10.512  23.588   5.425
 4704POPC   GL161969  10.617  23.384   5.816
 4704POPC   GL261970  10.678  23.700   5.979
 4704POPC   C1A61971  10.427  23.374   6.256
 4704POPC   D2A61972  10.490  23.684   6.582
 4704POPC   C3A61973  10.504  23.576   7.027
 4704POPC   C4A61974  10.635  23.413   7.449
 4704POPC   C1B61975  10.925  23.841   6.305
 4704POPC   C2B61976  10.990  23.705   6.687
 4704POPC   C3B61977  10.896  23.908   7.025
 4704POPC   C4B61978  11.039  23.690   7.328
 4705POPC   NC361979   9.214  37.404   5.408
 4705POPC   PO461980   8.678  37.777   5.499
 4705POPC   GL161981   8.900  37.548   5.802
 4705POPC   GL261982   9.114  37.828   5.868
 4705POPC   C1A61983   9.232  37.356   6.083
 4705POPC   D2A61984   9.236  37.173   6.519
 4705POPC   C3A61985   9.142  37.459   6.868
 4705POPC   C4A61986   8.813  37.640   7.160
 4705POPC   C1B61987   8.983  37.822   6.322
 4705POPC   C2B61988   8.641  37.864   6.655
 4705POPC   C3B61989   8.634  38.103   7.053
 4705POPC   C4B61990   8.690  38.177   7.535
 4706POPC   NC361991  36.370  36.243   5.361
 4706POPC   PO461992  35.683  36.002   5.275
 4706POPC   GL161993  36.057  35.940   5.665
 4706POPC   GL261994  36.239  36.256   5.841
 4706POPC   C1A61995  36.238  35.891   6.157
 4706POPC   D2A61996  36.405  36.155   6.502
 4706POPC   C3A61997  36.173  36.052   6.880
 4706POPC   C4A61998  36.082  35.668   7.097
 4706POPC   C1B61999  36.030  36.389   6.218
 4706POPC   C2B62000  35.992  36.623   6.602
 4706POPC   C3B62001  35.947  36.500   7.021
 4706POPC   C4B62002  36.285  36.401   7.276
 4707POPC   NC362003   8.800  34.013   5.617
 4707POPC   PO462004   8.981  34.620   5.433
 4707POPC   GL162005   8.813  34.499   5.811
 4707POPC   GL262006   9.148  34.386   5.893
 4707POPC   C1A62007   8.741  34.576   6.240
 4707POPC   D2A62008   8.904  34.752   6.603
 4707POPC   C3A62009   8.992  34.419   6.884
 4707POPC   C4A62010   8.783  34.362   7.265
 4707POPC   C1B62011   9.226  34.821   6.066
 4707POPC   C2B62012   9.280  35.073   6.484
 4707POPC   C3B62013   9.277  34.947   6.909
 4707POPC   C4B62014   9.157  34.705   7.269
 4708POPC   NC362015  39.627  15.223   5.363
 4708POPC   PO462016  40.094  14.799   5.305
 4708POPC   GL162017  40.155  14.992   5.724
 4708POPC   GL262018  39.830  15.141   5.835
 4708POPC   C1A62019  40.213  15.041   6.182
 4708POPC   D2A62020  40.134  14.806   6.548
 4708POPC   C3A62021  40.241  14.945   6.950
 4708POPC   C4A62022  40.219  15.271   7.194
 4708POPC   C1B62023  39.729  15.254   6.260
 4708POPC   C2B62024  39.856  15.204   6.687
 4708POPC   C3B62025  39.720  15.170   7.088
 4708POPC   C4B62026  39.814  15.401   7.451
 4709POPC   NC362027  20.214  28.581   5.405
 4709POPC   PO462028  20.642  28.051   5.520
 4709POPC   GL162029  20.550  28.370   5.833
 4709POPC   GL262030  20.177  28.331   5.838
 4709POPC   C1A62031  20.383  28.632   6.189
 4709POPC   D2A62032  20.348  28.770   6.633
 4709POPC   C3A62033  20.352  28.479   6.968
 4709POPC   C4A62034  20.649  28.332   7.272
 4709POPC   C1B62035  20.252  28.137   6.218
 4709POPC   C2B62036  20.373  28.068   6.640
 4709POPC   C3B62037  20.323  27.945   7.078
 4709POPC   C4B62038  20.234  27.995   7.505
 4710POPC   NC362039  32.607  15.257   5.321
 4710POPC   PO462040  33.123  14.844   5.435
 4710POPC   GL162041  33.087  15.104   5.784
 4710POPC   GL262042  32.870  15.397   5.764
 4710POPC   C1A62043  33.022  14.980   6.179
 4710POPC   D2A62044  32.831  15.052   6.548
 4710POPC   C3A62045  32.971  15.273   6.877
 4710POPC   C4A62046  33.078  15.176   7.263
 4710POPC   C1B62047  33.028  15.518   6.194
 4710POPC   C2B62048  33.095  15.686   6.630
 4710POPC   C3B62049  33.065  15.685   7.153
 4710POPC   C4B62050  33.264  15.501   7.585
 4711POPC   NC362051  42.211  29.592   5.442
 4711POPC   PO462052  42.143  30.271   5.355
 4711POPC   GL162053  42.144  30.110   5.781
 4711POPC   GL262054  41.867  29.887   5.727
 4711POPC   C1A62055  42.500  29.988   6.103
 4711POPC   D2A62056  42.693  29.707   6.447
 4711POPC   C3A62057  42.618  29.877   6.873
 4711POPC   C4A62058  42.430  29.911   7.288
 4711POPC   C1B62059  42.049  29.719   6.118
 4711POPC   C2B62060  42.210  29.899   6.520
 4711POPC   C3B62061  42.091  30.002   6.932
 4711POPC   C4B62062  41.953  29.760   7.290
 4712POPC   NC362063  27.099  43.916   5.404
 4712POPC   PO462064  26.412  43.990   5.370
 4712POPC   GL162065  26.693  44.127   5.724
 4712POPC   GL262066  27.013  44.307   5.716
 4712POPC   C1A62067  26.723  43.988   6.157
 4712POPC   D2A62068  26.540  43.826   6.537
 4712POPC   C3A62069  26.665  43.786   6.951
 4712POPC   C4A62070  27.072  43.727   7.156
 4712POPC   C1B62071  27.188  44.222   6.143
 4712POPC   C2B62072  27.040  44.054   6.566
 4712POPC   C3B62073  26.958  44.221   6.976
 4712POPC   C4B62074  27.232  44.376   7.283
 4713POPC   NC362075   4.872   9.890   5.609
 4713POPC   PO462076   5.340   9.804   5.071
 4713POPC   GL162077   5.252   9.561   5.577
 4713POPC   GL262078   5.489   9.550   5.863
 4713POPC   C1A62079   5.036   9.527   6.090
 4713POPC   D2A62080   4.783   9.675   6.491
 4713POPC   C3A62081   4.870   9.956   6.836
 4713POPC   C4A62082   5.128   9.712   7.155
 4713POPC   C1B62083   5.466   9.518   6.358
 4713POPC   C2B62084   5.314   9.355   6.764
 4713POPC   C3B62085   5.375   9.262   7.221
 4713POPC   C4B62086   5.305   9.472   7.609
 4714POPC   NC362087  37.353   7.451   5.273
 4714POPC   PO462088  36.764   7.239   5.280
 4714POPC   GL162089  36.983   7.382   5.635
 4714POPC   GL262090  37.148   7.132   5.754
 4714POPC   C1A62091  37.010   7.541   6.073
 4714POPC   D2A62092  36.752   7.557   6.458
 4714POPC   C3A62093  36.925   7.666   6.883
 4714POPC   C4A62094  36.805   7.689   7.352
 4714POPC   C1B62095  37.285   7.115   6.184
 4714POPC   C2B62096  37.323   6.991   6.613
 4714POPC   C3B62097  37.076   7.192   6.918
 4714POPC   C4B62098  37.058   7.279   7.359
 4715POPC   NC362099   2.573  20.172   5.335
 4715POPC   PO462100   2.993  19.586   5.388
 4715POPC   GL162101   2.732  19.771   5.719
 4715POPC   GL262102   3.038  19.865   5.874
 4715POPC   C1A62103   2.638  19.971   6.152
 4715POPC   D2A62104   2.676  20.105   6.595
 4715POPC   C3A62105   3.072  20.075   6.795
 4715POPC   C4A62106   2.939  19.874   7.162
 4715POPC   C1B62107   2.945  19.567   6.248
 4715POPC   C2B62108   2.833  19.612   6.707
 4715POPC   C3B62109   2.875  19.372   7.109
 4715POPC   C4B62110   3.142  19.280   7.469
 4716POPC   NC362111  43.831  43.367   5.549
 4716POPC   PO462112  44.222  43.838   5.198
 4716POPC   GL162113  44.013  43.858   5.639
 4716POPC   GL262114  43.690  43.980   5.825
 4716POPC   C1A62115  44.104  43.904   6.089
 4716POPC   D2A62116  43.970  44.154   6.460
 4716POPC   C3A62117  44.050  44.012   6.899
 4716POPC   C4A62118  43.842  43.881   7.289
 4716POPC   C1B62119  43.683  43.630   6.140
 4716POPC   C2B62120  43.814  43.683   6.561
 4716POPC   C3B62121  43.547  43.839   6.881
 4716POPC   C4B62122  43.438  43.521   7.154
 4717POPC   NC362123  20.983  43.377   5.320
 4717POPC   PO462124  21.469  42.945   5.422
 4717POPC   GL162125  21.453  43.215   5.782
 4717POPC   GL262126  21.175  43.042   5.855
 4717POPC   C1A62127  21.522  43.129   6.236
 4717POPC   D2A62128  21.301  43.236   6.625
 4717POPC   C3A62129  21.505  43.230   7.021
 4717POPC   C4A62130  21.488  43.128   7.476
 4717POPC   C1B62131  21.155  42.775   6.216
 4717POPC   C2B62132  20.945  42.819   6.593
 4717POPC   C3B62133  21.016  42.985   6.986
 4717POPC   C4B62134  21.037  42.852   7.423
 4718POPC   NC362135  43.476  37.441   5.362
 4718POPC   PO462136  42.798  37.391   5.390
 4718POPC   GL162137  42.978  37.381   5.769
 4718POPC   GL262138  43.162  37.671   5.852
 4718POPC   C1A62139  43.229  37.258   6.137
 4718POPC   D2A62140  43.405  37.397   6.510
 4718POPC   C3A62141  43.229  37.414   6.891
 4718POPC   C4A62142  43.071  37.331   7.299
 4718POPC   C1B62143  43.212  37.921   6.238
 4718POPC   C2B62144  43.311  37.935   6.688
 4718POPC   C3B62145  43.231  37.858   7.134
 4718POPC   C4B62146  43.243  37.732   7.576
 4719POPC   NC362147   4.733   5.290   5.320
 4719POPC   PO462148   4.093   4.982   5.376
 4719POPC   GL162149   4.334   5.062   5.743
 4719POPC   GL262150   4.676   4.939   5.709
 4719POPC   C1A62151   4.284   5.029   6.196
 4719POPC   D2A62152   4.263   5.282   6.569
 4719POPC   C3A62153   4.300   5.180   7.010
 4719POPC   C4A62154   4.105   5.484   7.246
 4719POPC   C1B62155   4.795   5.063   6.152
 4719POPC   C2B62156   4.782   5.240   6.594
 4719POPC   C3B62157   4.814   5.039   7.022
 4719POPC   C4B62158   4.715   5.116   7.485
 4720POPC   NC362159  30.964  35.764   5.426
 4720POPC   PO462160  30.464  36.143   5.548
 4720POPC   GL162161  30.722  36.128   5.899
 4720POPC   GL262162  31.029  36.263   5.858
 4720POPC   C1A62163  30.732  35.975   6.325
 4720POPC   D2A62164  30.718  35.789   6.745
 4720POPC   C3A62165  30.548  36.045   7.071
 4720POPC   C4A62166  30.484  35.904   7.476
 4720POPC   C1B62167  31.210  36.141   6.242
 4720POPC   C2B62168  31.113  36.133   6.675
 4720POPC   C3B62169  31.050  36.145   7.101
 4720POPC   C4B62170  30.901  36.215   7.543
 4721POPC   NC362171  17.563  39.795   5.136
 4721POPC   PO462172  17.250  40.231   5.560
 4721POPC   GL162173  17.451  40.076   5.863
 4721POPC   GL262174  17.673  39.883   5.664
 4721POPC   C1A62175  17.501  40.154   6.302
 4721POPC   D2A62176  17.725  40.000   6.634
 4721POPC   C3A62177  17.459  40.050   6.904
 4721POPC   C4A62178  17.454  40.142   7.279
 4721POPC   C1B62179  17.756  39.770   6.120
 4721POPC   C2B62180  18.019  39.617   6.419
 4721POPC   C3B62181  17.839  39.519   6.785
 4721POPC   C4B62182  17.740  39.712   7.176
 4722POPC   NC362183  24.709  44.067   5.351
 4722POPC   PO462184  24.072  43.884   5.405
 4722POPC   GL162185  24.362  43.919   5.773
 4722POPC   GL262186  24.614  43.648   5.825
 4722POPC   C1A62187  24.418  44.104   6.215
 4722POPC   D2A62188  24.206  44.194   6.625
 4722POPC   C3A62189  24.334  44.044   7.017
 4722POPC   C4A62190  24.787  44.025   7.113
 4722POPC   C1B62191  24.397  43.594   6.215
 4722POPC   C2B62192  24.513  43.757   6.623
 4722POPC   C3B62193  24.565  43.587   7.055
 4722POPC   C4B62194  24.459  43.789   7.446
 4723POPC   NC362195   1.661   3.778   5.567
 4723POPC   PO462196   2.219   3.335   5.448
 4723POPC   GL162197   2.087   3.564   5.813
 4723POPC   GL262198   1.765   3.474   5.981
 4723POPC   C1A62199   2.251   3.716   6.196
 4723POPC   D2A62200   2.135   3.854   6.594
 4723POPC   C3A62201   1.982   3.526   6.848
 4723POPC   C4A62202   2.116   3.605   7.238
 4723POPC   C1B62203   1.724   3.828   6.259
 4723POPC   C2B62204   1.618   4.008   6.683
 4723POPC   C3B62205   1.651   3.843   7.137
 4723POPC   C4B62206   1.647   3.369   7.259
 4724POPC   NC362207  41.964  41.439   5.445
 4724POPC   PO462208  41.317  41.207   5.269
 4724POPC   GL162209  41.483  41.465   5.643
 4724POPC   GL262210  41.351  41.831   5.739
 4724POPC   C1A62211  41.543  41.397   6.085
 4724POPC   D2A62212  41.520  41.134   6.477
 4724POPC   C3A62213  41.560  41.396   6.856
 4724POPC   C4A62214  41.561  41.320   7.292
 4724POPC   C1B62215  41.181  41.790   6.160
 4724POPC   C2B62216  41.190  41.626   6.584
 4724POPC   C3B62217  41.116  41.810   6.982
 4724POPC   C4B62218  41.414  41.798   7.283
 4725POPC   NC362219  16.302  33.821   5.508
 4725POPC   PO462220  15.705  33.574   5.198
 4725POPC   GL162221  15.805  33.698   5.662
 4725POPC   GL262222  15.780  33.413   5.889
 4725POPC   C1A62223  16.008  33.905   6.080
 4725POPC   D2A62224  16.208  33.919   6.522
 4725POPC   C3A62225  15.920  34.022   6.900
 4725POPC   C4A62226  15.778  34.049   7.348
 4725POPC   C1B62227  15.989  33.470   6.313
 4725POPC   C2B62228  15.731  33.543   6.667
 4725POPC   C3B62229  15.757  33.487   7.100
 4725POPC   C4B62230  16.137  33.692   7.233
 4726POPC   NC362231  11.872  24.400   5.388
 4726POPC   PO462232  12.330  24.892   5.412
 4726POPC   GL162233  12.290  24.462   5.702
 4726POPC   GL262234  11.940  24.345   5.882
 4726POPC   C1A62235  12.356  24.197   6.103
 4726POPC   D2A62236  12.267  24.337   6.531
 4726POPC   C3A62237  12.210  24.552   6.941
 4726POPC   C4A62238  11.987  24.845   7.199
 4726POPC   C1B62239  11.718  24.308   6.298
 4726POPC   C2B62240  11.813  24.218   6.736
 4726POPC   C3B62241  11.726  24.396   7.145
 4726POPC   C4B62242  11.685  24.181   7.571
 4727POPC   NC362243  23.914   2.615   5.155
 4727POPC   PO462244  23.555   3.011   5.324
 4727POPC   GL162245  23.683   2.954   5.773
 4727POPC   GL262246  23.413   2.799   5.960
 4727POPC   C1A62247  23.810   2.906   6.244
 4727POPC   D2A62248  23.564   2.710   6.617
 4727POPC   C3A62249  23.642   2.816   7.101
 4727POPC   C4A62250  23.400   2.828   7.519
 4727POPC   C1B62251  23.588   2.428   6.144
 4727POPC   C2B62252  23.686   2.194   6.518
 4727POPC   C3B62253  23.738   2.332   6.934
 4727POPC   C4B62254  24.090   2.537   7.154
 4728POPC   NC362255  14.809  14.130   5.476
 4728POPC   PO462256  15.165  14.704   5.226
 4728POPC   GL162257  15.191  14.481   5.725
 4728POPC   GL262258  15.507  14.256   5.853
 4728POPC   C1A62259  15.187  14.546   6.191
 4728POPC   D2A62260  15.445  14.758   6.518
 4728POPC   C3A62261  15.380  14.605   6.948
 4728POPC   C4A62262  15.017  14.712   7.176
 4728POPC   C1B62263  15.310  14.019   6.205
 4728POPC   C2B62264  15.114  14.063   6.623
 4728POPC   C3B62265  15.031  14.173   7.088
 4728POPC   C4B62266  15.277  14.112   7.505
 4729POPC   NC362267  35.317  10.105   5.505
 4729POPC   PO462268  35.337   9.337   5.460
 4729POPC   GL162269  35.309   9.492   5.877
 4729POPC   GL262270  35.640   9.423   5.925
 4729POPC   C1A62271  35.202   9.830   6.198
 4729POPC   D2A62272  35.317  10.057   6.594
 4729POPC   C3A62273  35.155   9.933   7.009
 4729POPC   C4A62274  34.949  10.065   7.377
 4729POPC   C1B62275  35.536   9.460   6.366
 4729POPC   C2B62276  35.470   9.592   6.796
 4729POPC   C3B62277  35.622   9.739   7.230
 4729POPC   C4B62278  35.592   9.501   7.645
 4730POPC   NC362279  13.453  23.170   5.386
 4730POPC   PO462280  13.575  22.436   5.295
 4730POPC   GL162281  13.578  22.755   5.745
 4730POPC   GL262282  13.729  23.079   5.801
 4730POPC   C1A62283  13.478  22.739   6.194
 4730POPC   D2A62284  13.273  22.982   6.549
 4730POPC   C3A62285  13.434  22.909   6.961
 4730POPC   C4A62286  13.685  22.582   7.167
 4730POPC   C1B62287  13.601  23.225   6.214
 4730POPC   C2B62288  13.797  23.119   6.623
 4730POPC   C3B62289  13.948  23.004   7.024
 4730POPC   C4B62290  13.706  23.062   7.394
 4731POPC   NC362291  37.454  28.892   5.605
 4731POPC   PO462292  37.077  29.318   5.216
 4731POPC   GL162293  37.029  29.316   5.673
 4731POPC   GL262294  37.006  28.968   5.805
 4731POPC   C1A62295  37.004  29.362   6.139
 4731POPC   D2A62296  37.166  29.145   6.517
 4731POPC   C3A62297  36.893  29.210   6.864
 4731POPC   C4A62298  36.815  29.522   7.187
 4731POPC   C1B62299  36.981  28.758   6.196
 4731POPC   C2B62300  36.911  28.700   6.630
 4731POPC   C3B62301  37.178  28.776   6.964
 4731POPC   C4B62302  37.107  29.051   7.307
 4732POPC   NC362303  28.034  22.846   5.244
 4732POPC   PO462304  28.593  23.167   5.571
 4732POPC   GL162305  28.430  22.998   5.891
 4732POPC   GL262306  28.164  22.808   5.763
 4732POPC   C1A62307  28.348  23.087   6.303
 4732POPC   D2A62308  28.551  22.902   6.631
 4732POPC   C3A62309  28.408  23.019   7.005
 4732POPC   C4A62310  28.121  23.334   7.015
 4732POPC   C1B62311  28.010  22.701   6.168
 4732POPC   C2B62312  27.928  22.889   6.584
 4732POPC   C3B62313  28.016  22.703   6.985
 4732POPC   C4B62314  27.974  22.580   7.385
 4733POPC   NC362315  15.386   7.419   5.137
 4733POPC   PO462316  15.002   7.339   5.688
 4733POPC   GL162317  15.398   7.399   5.892
 4733POPC   GL262318  15.514   7.750   5.801
 4733POPC   C1A62319  15.442   7.245   6.324
 4733POPC   D2A62320  15.401   7.435   6.759
 4733POPC   C3A62321  15.341   7.198   7.158
 4733POPC   C4A62322  15.204   7.349   7.596
 4733POPC   C1B62323  15.390   7.774   6.277
 4733POPC   C2B62324  15.122   7.847   6.655
 4733POPC   C3B62325  15.082   7.718   7.089
 4733POPC   C4B62326  15.138   7.983   7.457
 4734POPC   NC362327  37.847  10.662   5.519
 4734POPC   PO462328  37.307  10.218   5.499
 4734POPC   GL162329  37.650  10.252   5.786
 4734POPC   GL262330  37.488  10.537   5.950
 4734POPC   C1A62331  37.895  10.316   6.185
 4734POPC   D2A62332  37.718  10.583   6.512
 4734POPC   C3A62333  37.868  10.716   6.942
 4734POPC   C4A62334  38.003  10.380   7.214
 4734POPC   C1B62335  37.308  10.822   6.289
 4734POPC   C2B62336  37.330  10.810   6.753
 4734POPC   C3B62337  37.347  10.677   7.185
 4734POPC   C4B62338  37.234  10.742   7.625
 4735POPC   NC362339  10.430  17.095   5.370
 4735POPC   PO462340  10.402  16.445   5.224
 4735POPC   GL162341  10.514  16.571   5.658
 4735POPC   GL262342  10.694  16.887   5.760
 4735POPC   C1A62343  10.427  16.609   6.102
 4735POPC   D2A62344  10.576  16.715   6.502
 4735POPC   C3A62345  10.366  16.551   6.879
 4735POPC   C4A62346  10.425  16.578   7.323
 4735POPC   C1B62347  10.557  17.129   6.135
 4735POPC   C2B62348  10.687  17.209   6.569
 4735POPC   C3B62349  10.730  16.928   6.958
 4735POPC   C4B62350  10.589  17.051   7.374
 4736POPC   NC362351   3.901   8.557   5.298
 4736POPC   PO462352   4.558   8.433   5.413
 4736POPC   GL162353   4.296   8.397   5.809
 4736POPC   GL262354   4.214   8.019   5.921
 4736POPC   C1A62355   4.342   8.360   6.253
 4736POPC   D2A62356   4.436   8.131   6.610
 4736POPC   C3A62357   4.463   8.461   6.902
 4736POPC   C4A62358   4.139   8.676   7.098
 4736POPC   C1B62359   3.958   7.999   6.300
 4736POPC   C2B62360   3.878   7.911   6.734
 4736POPC   C3B62361   4.146   8.093   7.041
 4736POPC   C4B62362   4.568   8.009   7.113
 4737POPC   NC362363   5.213   0.205   5.579
 4737POPC   PO462364   4.960  44.536   5.427
 4737POPC   GL162365   5.051  44.674   5.823
 4737POPC   GL262366   5.226  44.411   5.938
 4737POPC   C1A62367   5.107  44.820   6.264
 4737POPC   D2A62368   5.147  44.642   6.661
 4737POPC   C3A62369   5.025  44.909   6.960
 4737POPC   C4A62370   5.194  44.879   7.339
 4737POPC   C1B62371   5.048  44.270   6.323
 4737POPC   C2B62372   4.889  44.198   6.740
 4737POPC   C3B62373   5.101  44.312   7.145
 4737POPC   C4B62374   4.914  44.495   7.539
 4738POPC   NC362375  11.327  28.832   5.495
 4738POPC   PO462376  11.427  29.362   5.414
 4738POPC   GL162377  11.223  29.309   5.798
 4738POPC   GL262378  11.084  28.995   5.925
 4738POPC   C1A62379  11.167  29.421   6.232
 4738POPC   D2A62380  11.011  29.399   6.646
 4738POPC   C3A62381  11.306  29.403   6.972
 4738POPC   C4A62382  11.294  29.408   7.413
 4738POPC   C1B62383  11.129  28.937   6.399
 4738POPC   C2B62384  11.106  28.931   6.868
 4738POPC   C3B62385  11.238  28.908   7.319
 4738POPC   C4B62386  11.384  29.005   7.752
 4739POPC   NC362387  24.105  24.042   5.613
 4739POPC   PO462388  23.804  23.520   5.249
 4739POPC   GL162389  23.764  23.655   5.705
 4739POPC   GL262390  24.090  23.587   5.861
 4739POPC   C1A62391  23.753  23.887   6.145
 4739POPC   D2A62392  23.885  23.955   6.605
 4739POPC   C3A62393  23.599  23.766   6.898
 4739POPC   C4A62394  23.346  24.020   7.134
 4739POPC   C1B62395  24.154  23.638   6.302
 4739POPC   C2B62396  24.031  23.479   6.702
 4739POPC   C3B62397  23.990  23.567   7.135
 4739POPC   C4B62398  24.041  23.364   7.502
 4740POPC   NC362399  42.617  35.628   5.480
 4740POPC   PO462400  42.185  34.977   5.457
 4740POPC   GL162401  42.360  35.215   5.817
 4740POPC   GL262402  42.253  35.586   5.858
 4740POPC   C1A62403  42.347  35.221   6.290
 4740POPC   D2A62404  42.135  35.013   6.656
 4740POPC   C3A62405  42.361  34.894   7.019
 4740POPC   C4A62406  42.629  35.199   7.225
 4740POPC   C1B62407  41.892  35.395   6.080
 4740POPC   C2B62408  41.805  35.473   6.495
 4740POPC   C3B62409  42.097  35.555   6.818
 4740POPC   C4B62410  42.107  35.309   7.166
 4741POPC   NC362411  35.551  22.317   5.453
 4741POPC   PO462412  35.148  21.783   5.231
 4741POPC   GL162413  35.236  21.938   5.689
 4741POPC   GL262414  35.590  21.941   5.815
 4741POPC   C1A62415  35.225  22.133   6.134
 4741POPC   D2A62416  35.286  21.941   6.559
 4741POPC   C3A62417  35.184  22.109   6.970
 4741POPC   C4A62418  35.408  22.139   7.339
 4741POPC   C1B62419  35.721  22.237   6.136
 4741POPC   C2B62420  35.590  22.404   6.538
 4741POPC   C3B62421  35.754  22.256   6.907
 4741POPC   C4B62422  35.916  22.163   7.289
 4742POPC   NC362423   5.366   0.579   5.137
 4742POPC   PO462424   4.752   0.366   5.469
 4742POPC   GL162425   4.956   0.517   5.873
 4742POPC   GL262426   5.188   0.783   5.895
 4742POPC   C1A62427   5.175   0.346   6.229
 4742POPC   D2A62428   5.311   0.182   6.608
 4742POPC   C3A62429   5.087   0.414   6.917
 4742POPC   C4A62430   4.932   0.311   7.299
 4742POPC   C1B62431   5.464   0.775   6.258
 4742POPC   C2B62432   5.610   0.643   6.654
 4742POPC   C3B62433   5.423   0.775   7.025
 4742POPC   C4B62434   5.071   0.796   7.310
 4743POPC   NC362435  35.477   7.035   5.552
 4743POPC   PO462436  35.502   6.382   5.470
 4743POPC   GL162437  35.344   6.586   5.848
 4743POPC   GL262438  35.039   6.793   5.857
 4743POPC   C1A62439  35.441   6.601   6.283
 4743POPC   D2A62440  35.408   6.758   6.684
 4743POPC   C3A62441  35.418   6.482   7.046
 4743POPC   C4A62442  35.584   6.718   7.367
 4743POPC   C1B62443  35.073   6.958   6.289
 4743POPC   C2B62444  35.140   7.193   6.677
 4743POPC   C3B62445  35.014   6.975   7.013
 4743POPC   C4B62446  34.738   7.002   7.373
 4744POPC   NC362447   0.886   8.076   5.416
 4744POPC   PO462448   1.546   7.841   5.304
 4744POPC   GL162449   1.365   8.036   5.729
 4744POPC   GL262450   1.112   8.289   5.816
 4744POPC   C1A62451   1.126   7.959   6.175
 4744POPC   D2A62452   1.118   8.250   6.546
 4744POPC   C3A62453   1.066   8.089   6.948
 4744POPC   C4A62454   1.251   8.024   7.341
 4744POPC   C1B62455   1.427   8.375   6.146
 4744POPC   C2B62456   1.586   8.499   6.578
 4744POPC   C3B62457   1.420   8.449   7.010
 4744POPC   C4B62458   1.340   8.499   7.507
 4745POPC   NC362459  43.187  17.709   5.295
 4745POPC   PO462460  42.790  17.214   5.328
 4745POPC   GL162461  42.890  17.515   5.684
 4745POPC   GL262462  43.224  17.525   5.785
 4745POPC   C1A62463  42.813  17.758   6.092
 4745POPC   D2A62464  42.982  17.702   6.534
 4745POPC   C3A62465  42.752  17.706   6.914
 4745POPC   C4A62466  43.026  17.692   7.288
 4745POPC   C1B62467  43.590  17.572   6.095
 4745POPC   C2B62468  43.612  17.690   6.519
 4745POPC   C3B62469  43.438  17.689   6.924
 4745POPC   C4B62470  43.714  17.699   7.259
 4746POPC   NC362471  34.351  17.437   5.393
 4746POPC   PO462472  34.919  17.788   5.223
 4746POPC   GL162473  34.896  17.535   5.677
 4746POPC   GL262474  34.601  17.420   5.846
 4746POPC   C1A62475  34.893  17.626   6.181
 4746POPC   D2A62476  34.763  17.399   6.562
 4746POPC   C3A62477  34.964  17.525   6.922
 4746POPC   C4A62478  34.887  17.660   7.337
 4746POPC   C1B62479  34.383  17.553   6.264
 4746POPC   C2B62480  34.265  17.516   6.703
 4746POPC   C3B62481  34.491  17.364   7.046
 4746POPC   C4B62482  34.388  17.503   7.416
 4747POPC   NC362483  28.100   6.061   5.486
 4747POPC   PO462484  28.669   5.741   5.378
 4747POPC   GL162485  28.404   5.737   5.794
 4747POPC   GL262486  28.124   5.537   5.695
 4747POPC   C1A62487  28.244   5.962   6.219
 4747POPC   D2A62488  28.057   5.840   6.642
 4747POPC   C3A62489  28.284   6.032   6.998
 4747POPC   C4A62490  28.629   6.279   7.187
 4747POPC   C1B62491  28.093   5.492   6.129
 4747POPC   C2B62492  28.424   5.535   6.440
 4747POPC   C3B62493  28.363   5.525   6.898
 4747POPC   C4B62494  28.000   5.660   7.210
 4748POPC   NC362495  44.978  30.432   5.390
 4748POPC   PO462496  44.836  31.163   5.542
 4748POPC   GL162497  44.762  30.824   5.769
 4748POPC   GL262498  44.504  30.600   5.610
 4748POPC   C1A62499  44.742  30.918   6.213
 4748POPC   D2A62500  44.918  30.827   6.607
 4748POPC   C3A62501  44.697  30.668   6.928
 4748POPC   C4A62502  44.718  30.831   7.297
 4748POPC   C1B62503  44.481  30.500   6.066
 4748POPC   C2B62504  44.321  30.556   6.514
 4748POPC   C3B62505  44.228  30.465   6.972
 4748POPC   C4B62506  44.437  30.402   7.356
 4749POPC   NC362507  14.032  35.065   5.375
 4749POPC   PO462508  14.491  34.516   5.366
 4749POPC   GL162509  14.558  34.676   5.747
 4749POPC   GL262510  14.323  34.905   5.756
 4749POPC   C1A62511  14.547  34.613   6.172
 4749POPC   D2A62512  14.398  34.431   6.535
 4749POPC   C3A62513  14.432  34.630   6.911
 4749POPC   C4A62514  14.338  34.560   7.292
 4749POPC   C1B62515  14.215  35.051   6.131
 4749POPC   C2B62516  14.238  34.910   6.533
 4749POPC   C3B62517  13.949  34.862   6.881
 4749POPC   C4B62518  13.948  35.041   7.313
 4750POPC   NC362519   9.094  22.743   5.175
 4750POPC   PO462520   8.471  22.679   5.399
 4750POPC   GL162521   8.703  22.523   5.792
 4750POPC   GL262522   8.800  22.864   5.841
 4750POPC   C1A62523   9.013  22.524   6.161
 4750POPC   D2A62524   9.191  22.694   6.568
 4750POPC   C3A62525   9.038  22.549   6.984
 4750POPC   C4A62526   8.805  22.826   7.269
 4750POPC   C1B62527   8.930  23.054   6.247
 4750POPC   C2B62528   9.091  23.241   6.623
 4750POPC   C3B62529   9.156  23.089   7.026
 4750POPC   C4B62530   9.041  23.246   7.441
 4751POPC   NC362531  40.249   5.118   5.388
 4751POPC   PO462532  39.668   5.085   5.249
 4751POPC   GL162533  39.873   5.215   5.695
 4751POPC   GL262534  39.989   4.885   5.808
 4751POPC   C1A62535  40.145   5.288   6.093
 4751POPC   D2A62536  40.005   5.278   6.540
 4751POPC   C3A62537  40.204   5.267   6.924
 4751POPC   C4A62538  39.971   5.124   7.305
 4751POPC   C1B62539  40.005   4.821   6.273
 4751POPC   C2B62540  40.294   4.841   6.660
 4751POPC   C3B62541  40.228   4.769   7.085
 4751POPC   C4B62542  40.082   4.664   7.532
 4752POPC   NC362543   9.814  42.510   5.338
 4752POPC   PO462544   9.340  42.092   5.240
 4752POPC   GL162545   9.564  42.212   5.649
 4752POPC   GL262546   9.893  42.118   5.714
 4752POPC   C1A62547   9.654  42.393   6.075
 4752POPC   D2A62548   9.558  42.222   6.524
 4752POPC   C3A62549   9.809  42.315   6.877
 4752POPC   C4A62550  10.007  42.574   7.157
 4752POPC   C1B62551   9.903  41.946   6.166
 4752POPC   C2B62552  10.116  42.053   6.543
 4752POPC   C3B62553  10.115  41.922   6.951
 4752POPC   C4B62554   9.807  41.868   7.195
 4753POPC   NC362555  40.956  10.867   4.986
 4753POPC   PO462556  40.839  10.376   5.381
 4753POPC   GL162557  40.715  10.359   5.857
 4753POPC   GL262558  40.373  10.250   5.913
 4753POPC   C1A62559  40.679  10.508   6.323
 4753POPC   D2A62560  40.509  10.603   6.773
 4753POPC   C3A62561  40.752  10.780   7.155
 4753POPC   C4A62562  41.021  10.589   7.481
 4753POPC   C1B62563  40.435  10.061   6.330
 4753POPC   C2B62564  40.673  10.101   6.715
 4753POPC   C3B62565  40.766  10.267   7.133
 4753POPC   C4B62566  40.543  10.368   7.518
 4754POPC   NC362567  40.850  21.971   5.288
 4754POPC   PO462568  40.707  22.640   5.497
 4754POPC   GL162569  40.666  22.260   5.715
 4754POPC   GL262570  41.014  22.157   5.741
 4754POPC   C1A62571  40.711  22.112   6.154
 4754POPC   D2A62572  40.832  22.328   6.520
 4754POPC   C3A62573  40.641  22.122   6.828
 4754POPC   C4A62574  40.629  22.197   7.229
 4754POPC   C1B62575  41.064  21.788   6.039
 4754POPC   C2B62576  40.921  21.758   6.510
 4754POPC   C3B62577  40.974  21.761   6.981
 4754POPC   C4B62578  41.023  21.931   7.436
 4755POPC   NC362579  16.999  10.772   5.016
 4755POPC   PO462580  16.641  10.296   5.389
 4755POPC   GL162581  16.662  10.258   5.808
 4755POPC   GL262582  16.631  10.604   5.889
 4755POPC   C1A62583  16.942  10.268   6.161
 4755POPC   D2A62584  17.062  10.318   6.606
 4755POPC   C3A62585  16.720  10.255   6.914
 4755POPC   C4A62586  16.719  10.358   7.363
 4755POPC   C1B62587  16.849  10.795   6.239
 4755POPC   C2B62588  16.736  10.756   6.658
 4755POPC   C3B62589  16.611  10.754   7.078
 4755POPC   C4B62590  16.773  10.852   7.465
 4756POPC   NC362591   4.312  17.839   5.238
 4756POPC   PO462592   4.369  18.456   5.461
 4756POPC   GL162593   4.255  18.275   5.865
 4756POPC   GL262594   4.482  18.026   5.804
 4756POPC   C1A62595   4.046  18.303   6.306
 4756POPC   D2A62596   3.947  18.310   6.775
 4756POPC   C3A62597   4.229  18.216   7.135
 4756POPC   C4A62598   4.182  18.005   7.520
 4756POPC   C1B62599   4.597  18.184   6.216
 4756POPC   C2B62600   4.465  18.279   6.619
 4756POPC   C3B62601   4.639  18.014   6.902
 4756POPC   C4B62602   4.883  18.136   7.225
 4757POPC   NC362603  12.499  21.725   5.529
 4757POPC   PO462604  12.052  22.183   5.496
 4757POPC   GL162605  12.143  22.246   5.908
 4757POPC   GL262606  12.450  22.062   5.954
 4757POPC   C1A62607  11.984  22.363   6.302
 4757POPC   D2A62608  11.728  22.224   6.637
 4757POPC   C3A62609  11.975  22.422   6.945
 4757POPC   C4A62610  12.078  22.364   7.367
 4757POPC   C1B62611  12.234  21.898   6.316
 4757POPC   C2B62612  12.199  21.985   6.755
 4757POPC   C3B62613  12.070  21.884   7.150
 4757POPC   C4B62614  12.178  21.906   7.587
 4758POPC   NC362615  13.419  34.400   5.212
 4758POPC   PO462616  13.813  33.829   5.350
 4758POPC   GL162617  13.666  33.743   5.788
 4758POPC   GL262618  13.856  34.021   5.837
 4758POPC   C1A62619  13.592  33.853   6.256
 4758POPC   D2A62620  13.563  33.951   6.714
 4758POPC   C3A62621  13.556  33.618   7.035
 4758POPC   C4A62622  13.503  33.717   7.480
 4758POPC   C1B62623  14.093  33.796   6.131
 4758POPC   C2B62624  13.972  33.645   6.543
 4758POPC   C3B62625  14.031  33.816   6.935
 4758POPC   C4B62626  13.768  34.053   7.213
 4759POPC   NC362627   1.713  34.289   5.589
 4759POPC   PO462628   1.731  34.850   5.173
 4759POPC   GL162629   1.932  34.776   5.652
 4759POPC   GL262630   2.212  34.584   5.854
 4759POPC   C1A62631   1.933  34.867   6.142
 4759POPC   D2A62632   1.803  34.839   6.589
 4759POPC   C3A62633   2.099  34.945   6.915
 4759POPC   C4A62634   2.053  34.665   7.229
 4759POPC   C1B62635   2.015  34.334   6.195
 4759POPC   C2B62636   2.069  34.072   6.593
 4759POPC   C3B62637   1.981  34.208   7.002
 4759POPC   C4B62638   2.148  34.193   7.437
 4760POPC   NC362639  29.281   2.985   5.304
 4760POPC   PO462640  28.830   2.445   5.330
 4760POPC   GL162641  28.871   2.603   5.763
 4760POPC   GL262642  29.231   2.559   5.811
 4760POPC   C1A62643  28.860   2.471   6.222
 4760POPC   D2A62644  29.050   2.612   6.639
 4760POPC   C3A62645  28.917   2.513   7.071
 4760POPC   C4A62646  29.098   2.749   7.440
 4760POPC   C1B62647  29.371   2.666   6.235
 4760POPC   C2B62648  29.554   2.837   6.638
 4760POPC   C3B62649  29.443   2.971   7.091
 4760POPC   C4B62650  29.533   3.003   7.570
 4761POPC   NC362651  36.403  35.424   5.216
 4761POPC   PO462652  35.629  35.322   5.273
 4761POPC   GL162653  36.012  35.397   5.597
 4761POPC   GL262654  36.315  35.199   5.783
 4761POPC   C1A62655  35.968  35.441   6.085
 4761POPC   D2A62656  36.105  35.114   6.399
 4761POPC   C3A62657  36.117  35.190   6.866
 4761POPC   C4A62658  36.050  35.194   7.335
 4761POPC   C1B62659  36.472  35.435   6.201
 4761POPC   C2B62660  36.354  35.599   6.600
 4761POPC   C3B62661  36.531  35.482   6.981
 4761POPC   C4B62662  36.557  35.270   7.359
 4762POPC   NC362663  44.421  19.169   5.454
 4762POPC   PO462664  44.972  18.794   5.477
 4762POPC   GL162665  44.711  18.958   5.818
 4762POPC   GL262666  44.355  18.834   5.879
 4762POPC   C1A62667  44.593  19.233   6.140
 4762POPC   D2A62668  44.756  19.483   6.450
 4762POPC   C3A62669  44.868  19.293   6.816
 4762POPC   C4A62670  44.798  19.089   7.195
 4762POPC   C1B62671  44.572  18.715   6.259
 4762POPC   C2B62672  44.620  18.825   6.688
 4762POPC   C3B62673  44.496  18.674   7.068
 4762POPC   C4B62674  44.390  18.813   7.470
 4763POPC   NC362675  13.678  39.634   5.569
 4763POPC   PO462676  13.375  40.196   5.218
 4763POPC   GL162677  13.440  40.128   5.700
 4763POPC   GL262678  13.802  40.089   5.800
 4763POPC   C1A62679  13.466  40.183   6.180
 4763POPC   D2A62680  13.407  40.321   6.621
 4763POPC   C3A62681  13.543  40.121   7.001
 4763POPC   C4A62682  13.806  40.043   7.345
 4763POPC   C1B62683  13.892  39.903   6.223
 4763POPC   C2B62684  13.908  40.037   6.643
 4763POPC   C3B62685  13.929  39.750   6.956
 4763POPC   C4B62686  13.845  39.536   7.298
 4764POPC   NC362687  20.723  40.922   5.383
 4764POPC   PO462688  20.260  40.455   5.526
 4764POPC   GL162689  20.502  40.759   5.806
 4764POPC   GL262690  20.889  40.728   5.834
 4764POPC   C1A62691  20.616  41.023   6.153
 4764POPC   D2A62692  20.538  40.860   6.543
 4764POPC   C3A62693  20.670  41.097   6.909
 4764POPC   C4A62694  20.635  40.988   7.323
 4764POPC   C1B62695  21.116  40.865   6.218
 4764POPC   C2B62696  21.036  40.702   6.627
 4764POPC   C3B62697  20.736  40.590   6.939
 4764POPC   C4B62698  20.758  40.500   7.339
 4765POPC   NC362699  15.015  31.358   5.168
 4765POPC   PO462700  15.522  31.713   5.269
 4765POPC   GL162701  15.264  31.461   5.626
 4765POPC   GL262702  15.031  31.185   5.692
 4765POPC   C1A62703  15.032  31.533   6.044
 4765POPC   D2A62704  15.058  31.771   6.423
 4765POPC   C3A62705  15.135  31.516   6.771
 4765POPC   C4A62706  15.104  31.542   7.211
 4765POPC   C1B62707  14.832  31.039   6.095
 4765POPC   C2B62708  14.829  31.105   6.550
 4765POPC   C3B62709  14.831  31.149   6.995
 4765POPC   C4B62710  14.977  31.091   7.428
 4766POPC   NC362711   7.408   0.509   5.405
 4766POPC   PO462712   7.121  45.000   5.173
 4766POPC   GL162713   7.211   0.128   5.679
 4766POPC   GL262714   7.034   0.432   5.776
 4766POPC   C1A62715   7.471   0.101   6.116
 4766POPC   D2A62716   7.403   0.210   6.568
 4766POPC   C3A62717   7.541   0.548   6.802
 4766POPC   C4A62718   7.451   0.496   7.212
 4766POPC   C1B62719   7.191   0.520   6.186
 4766POPC   C2B62720   7.057   0.596   6.584
 4766POPC   C3B62721   6.995   0.460   6.972
 4766POPC   C4B62722   6.995   0.618   7.383
 4767POPC   NC362723  30.935  17.043   5.575
 4767POPC   PO462724  30.519  16.556   5.641
 4767POPC   GL162725  30.850  16.668   5.945
 4767POPC   GL262726  30.866  16.383   6.154
 4767POPC   C1A62727  31.097  16.898   6.261
 4767POPC   D2A62728  30.997  16.993   6.710
 4767POPC   C3A62729  30.841  16.633   6.950
 4767POPC   C4A62730  30.961  16.337   7.239
 4767POPC   C1B62731  30.657  16.675   6.460
 4767POPC   C2B62732  30.390  16.853   6.808
 4767POPC   C3B62733  30.265  16.939   7.245
 4767POPC   C4B62734  30.305  16.893   7.731
 4768POPC   NC362735   5.048  35.141   5.334
 4768POPC   PO462736   4.528  35.444   5.377
 4768POPC   GL162737   4.892  35.449   5.749
 4768POPC   GL262738   5.313  35.459   5.832
 4768POPC   C1A62739   4.973  35.200   6.156
 4768POPC   D2A62740   5.292  35.133   6.494
 4768POPC   C3A62741   5.195  35.387   6.841
 4768POPC   C4A62742   5.061  35.280   7.245
 4768POPC   C1B62743   5.546  35.602   6.265
 4768POPC   C2B62744   5.652  35.935   6.615
 4768POPC   C3B62745   5.658  35.891   7.080
 4768POPC   C4B62746   5.409  35.628   7.268
 4769POPC   NC362747  38.512  24.795   5.374
 4769POPC   PO462748  38.281  25.408   5.296
 4769POPC   GL162749  38.609  25.276   5.585
 4769POPC   GL262750  38.310  25.183   5.778
 4769POPC   C1A62751  38.726  25.175   6.055
 4769POPC   D2A62752  38.457  25.117   6.457
 4769POPC   C3A62753  38.580  25.295   6.871
 4769POPC   C4A62754  38.366  25.418   7.250
 4769POPC   C1B62755  38.036  25.093   6.121
 4769POPC   C2B62756  37.928  25.006   6.524
 4769POPC   C3B62757  38.111  25.066   6.904
 4769POPC   C4B62758  37.935  25.107   7.273
 4770POPC   NC362759  43.567  23.510   5.464
 4770POPC   PO462760  44.056  23.801   5.590
 4770POPC   GL162761  43.639  23.955   5.767
 4770POPC   GL262762  43.602  23.693   5.927
 4770POPC   C1A62763  43.608  24.134   6.221
 4770POPC   D2A62764  43.800  24.006   6.654
 4770POPC   C3A62765  43.609  23.943   7.098
 4770POPC   C4A62766  43.787  23.850   7.505
 4770POPC   C1B62767  43.745  23.625   6.294
 4770POPC   C2B62768  43.883  23.375   6.583
 4770POPC   C3B62769  43.876  23.527   6.961
 4770POPC   C4B62770  43.600  23.428   7.243
 4771POPC   NC362771  13.004  13.557   5.372
 4771POPC   PO462772  12.739  14.123   5.499
 4771POPC   GL162773  12.821  13.771   5.814
 4771POPC   GL262774  12.537  13.543   5.867
 4771POPC   C1A62775  12.943  13.566   6.236
 4771POPC   D2A62776  12.746  13.393   6.648
 4771POPC   C3A62777  13.006  13.363   7.056
 4771POPC   C4A62778  13.129  13.190   7.521
 4771POPC   C1B62779  12.485  13.768   6.255
 4771POPC   C2B62780  12.298  13.809   6.635
 4771POPC   C3B62781  12.485  13.665   7.011
 4771POPC   C4B62782  12.501  13.239   7.133
 4772POPC   NC362783   3.589  35.976   5.476
 4772POPC   PO462784   3.134  36.456   5.606
 4772POPC   GL162785   3.428  36.252   5.882
 4772POPC   GL262786   3.804  36.283   5.810
 4772POPC   C1A62787   3.288  36.060   6.264
 4772POPC   D2A62788   3.371  35.921   6.656
 4772POPC   C3A62789   3.449  36.312   6.854
 4772POPC   C4A62790   3.297  36.461   7.242
 4772POPC   C1B62791   3.921  36.469   6.188
 4772POPC   C2B62792   3.890  36.232   6.555
 4772POPC   C3B62793   3.931  36.426   6.941
 4772POPC   C4B62794   3.766  36.269   7.283
 4773POPC   NC362795  15.783  38.809   5.462
 4773POPC   PO462796  15.838  38.194   5.734
 4773POPC   GL162797  15.945  38.552   5.965
 4773POPC   GL262798  16.271  38.728   5.861
 4773POPC   C1A62799  15.895  38.419   6.401
 4773POPC   D2A62800  15.798  38.166   6.762
 4773POPC   C3A62801  16.060  38.212   7.127
 4773POPC   C4A62802  16.530  38.169   7.182
 4773POPC   C1B62803  16.269  38.770   6.330
 4773POPC   C2B62804  16.049  38.748   6.764
 4773POPC   C3B62805  16.206  38.688   7.219
 4773POPC   C4B62806  16.241  38.858   7.676
 4774POPC   NC362807  16.900   3.819   5.393
 4774POPC   PO462808  16.381   3.448   5.441
 4774POPC   GL162809  16.618   3.460   5.772
 4774POPC   GL262810  16.922   3.256   5.730
 4774POPC   C1A62811  16.504   3.627   6.168
 4774POPC   D2A62812  16.308   3.732   6.541
 4774POPC   C3A62813  16.538   3.622   6.921
 4774POPC   C4A62814  16.777   3.776   7.319
 4774POPC   C1B62815  16.993   3.542   6.105
 4774POPC   C2B62816  16.889   3.729   6.521
 4774POPC   C3B62817  17.049   3.617   6.912
 4774POPC   C4B62818  17.300   3.762   7.293
 4775POPC   NC362819   7.222   5.963   5.112
 4775POPC   PO462820   6.545   5.754   5.252
 4775POPC   GL162821   6.563   5.688   5.728
 4775POPC   GL262822   6.428   5.993   5.721
 4775POPC   C1A62823   6.728   5.592   6.188
 4775POPC   D2A62824   6.491   5.743   6.579
 4775POPC   C3A62825   6.563   5.658   7.019
 4775POPC   C4A62826   6.660   5.781   7.474
 4775POPC   C1B62827   6.525   6.067   6.160
 4775POPC   C2B62828   6.695   6.216   6.568
 4775POPC   C3B62829   6.595   6.187   6.995
 4775POPC   C4B62830   6.580   6.293   7.416
 4776POPC   NC362831  42.733  30.657   5.437
 4776POPC   PO462832  42.028  30.830   5.394
 4776POPC   GL162833  42.146  30.858   5.820
 4776POPC   GL262834  42.351  30.595   5.771
 4776POPC   C1A62835  41.908  30.678   6.197
 4776POPC   D2A62836  41.712  30.761   6.599
 4776POPC   C3A62837  42.072  30.691   6.825
 4776POPC   C4A62838  42.338  30.971   7.025
 4776POPC   C1B62839  42.598  30.502   6.126
 4776POPC   C2B62840  42.383  30.400   6.487
 4776POPC   C3B62841  42.492  30.378   6.892
 4776POPC   C4B62842  42.246  30.417   7.220
 4777POPC   NC362843  33.491  14.083   5.298
 4777POPC   PO462844  33.911  14.638   5.466
 4777POPC   GL162845  33.855  14.313   5.824
 4777POPC   GL262846  33.508  14.155   5.858
 4777POPC   C1A62847  33.997  14.352   6.276
 4777POPC   D2A62848  34.090  14.653   6.644
 4777POPC   C3A62849  33.890  14.551   7.085
 4777POPC   C4A62850  33.751  14.636   7.555
 4777POPC   C1B62851  33.454  14.131   6.322
 4777POPC   C2B62852  33.599  14.116   6.763
 4777POPC   C3B62853  33.540  14.169   7.217
 4777POPC   C4B62854  33.419  14.029   7.632
 4778POPC   NC362855   4.220  18.835   5.214
 4778POPC   PO462856   4.590  19.382   5.353
 4778POPC   GL162857   4.236  19.232   5.608
 4778POPC   GL262858   4.284  18.890   5.729
 4778POPC   C1A62859   4.141  19.233   6.069
 4778POPC   D2A62860   4.410  19.289   6.428
 4778POPC   C3A62861   4.242  19.189   6.803
 4778POPC   C4A62862   4.276  19.293   7.214
 4778POPC   C1B62863   4.334  18.724   6.158
 4778POPC   C2B62864   4.186  18.726   6.602
 4778POPC   C3B62865   4.155  18.716   7.067
 4778POPC   C4B62866   4.423  18.851   7.428
 4779POPC   NC362867   8.381  10.597   5.543
 4779POPC   PO462868   8.007  10.136   5.508
 4779POPC   GL162869   8.152  10.366   5.911
 4779POPC   GL262870   7.940  10.665   5.895
 4779POPC   C1A62871   8.267  10.709   6.248
 4779POPC   D2A62872   8.213  10.935   6.615
 4779POPC   C3A62873   8.392  10.727   6.963
 4779POPC   C4A62874   8.233  10.630   7.368
 4779POPC   C1B62875   7.863  10.397   6.321
 4779POPC   C2B62876   7.919  10.202   6.726
 4779POPC   C3B62877   7.876  10.456   7.055
 4779POPC   C4B62878   7.906  10.904   7.066
 4780POPC   NC362879   0.130  44.719   5.169
 4780POPC   PO462880  44.649  44.950   5.639
 4780POPC   GL162881  44.569  44.570   5.896
 4780POPC   GL262882  44.311  44.314   5.871
 4780POPC   C1A62883  44.771  44.592   6.292
 4780POPC   D2A62884  44.708  44.887   6.606
 4780POPC   C3A62885  44.703  44.709   6.995
 4780POPC   C4A62886  44.719  44.381   7.286
 4780POPC   C1B62887  44.441  44.223   6.295
 4780POPC   C2B62888  44.400  44.420   6.697
 4780POPC   C3B62889  44.239  44.429   7.125
 4780POPC   C4B62890  44.304  44.101   7.415
 4781POPC   NC362891  37.303  12.957   5.401
 4781POPC   PO462892  37.915  12.749   5.580
 4781POPC   GL162893  37.604  12.935   5.856
 4781POPC   GL262894  37.341  12.729   5.855
 4781POPC   C1A62895  37.583  12.778   6.294
 4781POPC   D2A62896  37.771  12.653   6.682
 4781POPC   C3A62897  37.614  12.845   7.042
 4781POPC   C4A62898  37.829  13.063   7.336
 4781POPC   C1B62899  37.098  12.632   6.235
 4781POPC   C2B62900  37.221  12.734   6.682
 4781POPC   C3B62901  37.175  12.602   7.131
 4781POPC   C4B62902  37.100  12.562   7.579
 4782POPC   NC362903  40.463  40.998   5.193
 4782POPC   PO462904  40.863  40.513   5.302
 4782POPC   GL162905  40.627  40.709   5.680
 4782POPC   GL262906  40.658  41.073   5.695
 4782POPC   C1A62907  40.500  40.601   6.132
 4782POPC   D2A62908  40.708  40.424   6.527
 4782POPC   C3A62909  40.550  40.564   6.952
 4782POPC   C4A62910  40.796  40.552   7.333
 4782POPC   C1B62911  40.581  41.123   6.134
 4782POPC   C2B62912  40.590  40.924   6.538
 4782POPC   C3B62913  40.604  41.128   6.937
 4782POPC   C4B62914  40.712  41.049   7.337
 4783POPC   NC362915   5.277  20.192   5.396
 4783POPC   PO462916   5.476  19.546   5.424
 4783POPC   GL162917   5.123  19.760   5.691
 4783POPC   GL262918   5.311  19.984   5.861
 4783POPC   C1A62919   4.866  19.886   6.113
 4783POPC   D2A62920   4.682  19.714   6.511
 4783POPC   C3A62921   4.814  19.851   6.941
 4783POPC   C4A62922   4.863  20.098   7.319
 4783POPC   C1B62923   5.276  19.598   6.160
 4783POPC   C2B62924   5.195  19.721   6.591
 4783POPC   C3B62925   5.209  19.487   6.968
 4783POPC   C4B62926   5.424  19.598   7.311
 4784POPC   NC362927  29.579  23.437   5.378
 4784POPC   PO462928  29.098  23.922   5.436
 4784POPC   GL162929  29.129  23.690   5.869
 4784POPC   GL262930  29.025  23.338   5.931
 4784POPC   C1A62931  29.051  23.738   6.325
 4784POPC   D2A62932  28.808  23.752   6.716
 4784POPC   C3A62933  29.038  23.777   7.093
 4784POPC   C4A62934  28.974  23.705   7.517
 4784POPC   C1B62935  29.293  23.282   6.332
 4784POPC   C2B62936  29.334  23.350   6.799
 4784POPC   C3B62937  29.189  23.295   7.267
 4784POPC   C4B62938  29.319  23.402   7.728
 4785POPC   NC362939   8.454  30.988   5.438
 4785POPC   PO462940   8.062  30.507   5.428
 4785POPC   GL162941   8.120  30.805   5.794
 4785POPC   GL262942   8.340  30.583   5.915
 4785POPC   C1A62943   8.160  31.017   6.225
 4785POPC   D2A62944   8.008  31.025   6.676
 4785POPC   C3A62945   8.369  30.964   6.978
 4785POPC   C4A62946   8.637  30.660   7.224
 4785POPC   C1B62947   8.010  30.541   6.233
 4785POPC   C2B62948   8.099  30.498   6.667
 4785POPC   C3B62949   7.944  30.642   7.064
 4785POPC   C4B62950   8.012  30.983   7.326
 4786POPC   NC362951   4.183  31.106   5.074
 4786POPC   PO462952   4.534  31.664   5.364
 4786POPC   GL162953   4.569  31.587   5.833
 4786POPC   GL262954   4.222  31.511   5.853
 4786POPC   C1A62955   4.489  31.391   6.268
 4786POPC   D2A62956   4.251  31.384   6.669
 4786POPC   C3A62957   4.355  31.598   7.073
 4786POPC   C4A62958   4.320  31.887   7.466
 4786POPC   C1B62959   3.965  31.360   6.196
 4786POPC   C2B62960   3.732  31.399   6.580
 4786POPC   C3B62961   3.864  31.296   7.014
 4786POPC   C4B62962   3.928  31.566   7.376
 4787POPC   NC362963   8.607  43.020   5.372
 4787POPC   PO462964   7.876  42.707   5.389
 4787POPC   GL162965   8.125  42.919   5.745
 4787POPC   GL262966   8.457  42.816   5.815
 4787POPC   C1A62967   8.119  43.074   6.181
 4787POPC   D2A62968   7.977  43.291   6.555
 4787POPC   C3A62969   8.242  43.283   6.933
 4787POPC   C4A62970   8.108  43.312   7.363
 4787POPC   C1B62971   8.330  42.597   6.181
 4787POPC   C2B62972   8.278  42.710   6.604
 4787POPC   C3B62973   8.366  42.564   7.025
 4787POPC   C4B62974   8.538  42.686   7.421
 4788POPC   NC362975   2.435  43.119   5.504
 4788POPC   PO462976   3.086  42.958   5.317
 4788POPC   GL162977   2.908  43.093   5.716
 4788POPC   GL262978   2.765  42.769   5.705
 4788POPC   C1A62979   2.832  43.303   6.132
 4788POPC   D2A62980   2.943  43.413   6.548
 4788POPC   C3A62981   2.788  43.228   6.914
 4788POPC   C4A62982   2.403  43.384   7.093
 4788POPC   C1B62983   2.578  42.860   6.115
 4788POPC   C2B62984   2.802  42.884   6.502
 4788POPC   C3B62985   2.854  42.725   6.922
 4788POPC   C4B62986   2.526  42.888   7.210
 4789POPC   NC362987   3.485  23.420   5.591
 4789POPC   PO462988   3.509  22.756   5.333
 4789POPC   GL162989   3.641  22.931   5.712
 4789POPC   GL262990   3.350  22.932   5.917
 4789POPC   C1A62991   3.782  22.747   6.088
 4789POPC   D2A62992   3.634  22.688   6.501
 4789POPC   C3A62993   3.602  22.971   6.812
 4789POPC   C4A62994   3.835  22.875   7.204
 4789POPC   C1B62995   3.206  22.941   6.345
 4789POPC   C2B62996   3.163  22.652   6.690
 4789POPC   C3B62997   3.336  22.684   7.134
 4789POPC   C4B62998   3.413  23.003   7.480
 4790POPC   NC362999   5.908  43.408   5.357
 4790POPC   PO463000   5.795  44.135   5.362
 4790POPC   GL163001   5.890  44.086   5.798
 4790POPC   GL263002   5.581  43.937   5.865
 4790POPC   C1A63003   5.992  43.927   6.222
 4790POPC   D2A63004   5.837  43.762   6.587
 4790POPC   C3A63005   6.012  43.781   7.012
 4790POPC   C4A63006   5.863  43.638   7.376
 4790POPC   C1B63007   5.576  44.219   6.224
 4790POPC   C2B63008   5.779  44.297   6.620
 4790POPC   C3B63009   5.744  44.215   7.050
 4790POPC   C4B63010   5.889  44.138   7.483
 4791POPC   NC363011  38.718  18.103   5.428
 4791POPC   PO463012  38.052  18.222   5.444
 4791POPC   GL163013  38.298  18.164   5.860
 4791POPC   GL263014  38.675  18.185   5.922
 4791POPC   C1A63015  38.385  18.366   6.285
 4791POPC   D2A63016  38.575  18.345   6.699
 4791POPC   C3A63017  38.365  18.612   7.016
 4791POPC   C4A63018  37.990  18.674   7.273
 4791POPC   C1B63019  38.923  18.423   6.232
 4791POPC   C2B63020  39.070  18.630   6.637
 4791POPC   C3B63021  38.970  18.419   7.034
 4791POPC   C4B63022  38.640  18.217   7.226
 4792POPC   NC363023  16.842  38.050   5.210
 4792POPC   PO463024  16.302  37.584   5.362
 4792POPC   GL163025  16.512  37.689   5.798
 4792POPC   GL263026  16.872  37.754   5.773
 4792POPC   C1A63027  16.583  37.476   6.255
 4792POPC   D2A63028  16.502  37.366   6.713
 4792POPC   C3A63029  16.623  37.518   7.137
 4792POPC   C4A63030  16.650  37.304   7.561
 4792POPC   C1B63031  16.823  37.920   6.226
 4792POPC   C2B63032  16.738  37.852   6.701
 4792POPC   C3B63033  16.988  37.907   7.094
 4792POPC   C4B63034  16.987  38.216   7.475
 4793POPC   NC363035   0.758   0.481   5.329
 4793POPC   PO463036   0.173   0.251   5.115
 4793POPC   GL163037   0.290   0.496   5.555
 4793POPC   GL263038   0.609   0.385   5.794
 4793POPC   C1A63039   0.214   0.556   6.033
 4793POPC   D2A63040   0.443   0.321   6.373
 4793POPC   C3A63041   0.439   0.395   6.849
 4793POPC   C4A63042   0.104   0.487   7.186
 4793POPC   C1B63043   0.754   0.663   6.136
 4793POPC   C2B63044   0.853   0.596   6.591
 4793POPC   C3B63045   0.846   0.698   7.039
 4793POPC   C4B63046   0.503   0.783   7.309
 4794POPC   NC363047  19.397  29.736   5.304
 4794POPC   PO463048  19.302  30.403   5.241
 4794POPC   GL163049  19.061  30.275   5.633
 4794POPC   GL263050  18.996  29.902   5.670
 4794POPC   C1A63051  18.994  30.274   6.102
 4794POPC   D2A63052  19.220  30.037   6.450
 4794POPC   C3A63053  19.260  30.050   6.917
 4794POPC   C4A63054  19.329  29.723   7.239
 4794POPC   C1B63055  18.772  29.786   6.067
 4794POPC   C2B63056  18.683  29.771   6.519
 4794POPC   C3B63057  18.857  29.713   6.941
 4794POPC   C4B63058  18.791  30.082   7.219
 4795POPC   NC363059   7.010   5.917   5.557
 4795POPC   PO463060   7.529   5.594   5.165
 4795POPC   GL163061   7.518   5.583   5.687
 4795POPC   GL263062   7.223   5.671   5.931
 4795POPC   C1A63063   7.656   5.735   6.148
 4795POPC   D2A63064   7.434   5.626   6.527
 4795POPC   C3A63065   7.521   5.765   6.963
 4795POPC   C4A63066   7.355   5.663   7.352
 4795POPC   C1B63067   7.078   5.956   6.253
 4795POPC   C2B63068   6.979   5.801   6.677
 4795POPC   C3B63069   7.009   5.906   7.081
 4795POPC   C4B63070   7.045   6.110   7.451
 4796POPC   NC363071  18.115  28.490   5.479
 4796POPC   PO463072  18.363  29.131   5.357
 4796POPC   GL163073  18.215  29.165   5.790
 4796POPC   GL263074  18.244  28.833   5.831
 4796POPC   C1A63075  18.045  29.155   6.216
 4796POPC   D2A63076  17.918  29.003   6.645
 4796POPC   C3A63077  18.137  29.161   6.998
 4796POPC   C4A63078  17.962  29.470   7.264
 4796POPC   C1B63079  18.322  28.715   6.240
 4796POPC   C2B63080  18.433  28.907   6.610
 4796POPC   C3B63081  18.435  28.726   7.000
 4796POPC   C4B63082  18.186  28.775   7.361
 4797POPC   NC363083  41.646  23.314   5.196
 4797POPC   PO463084  41.699  24.005   5.336
 4797POPC   GL163085  41.566  23.675   5.653
 4797POPC   GL263086  41.460  23.955   5.858
 4797POPC   C1A63087  41.618  23.535   6.120
 4797POPC   D2A63088  41.571  23.733   6.551
 4797POPC   C3A63089  41.781  23.595   6.967
 4797POPC   C4A63090  41.746  23.445   7.427
 4797POPC   C1B63091  41.393  24.215   6.247
 4797POPC   C2B63092  41.628  24.344   6.578
 4797POPC   C3B63093  41.646  24.091   6.908
 4797POPC   C4B63094  41.539  23.927   7.286
 4798POPC   NC363095  34.050  40.966   5.161
 4798POPC   PO463096  33.527  41.155   5.476
 4798POPC   GL163097  33.723  40.932   5.791
 4798POPC   GL263098  33.896  41.159   5.991
 4798POPC   C1A63099  33.675  40.678   6.178
 4798POPC   D2A63100  33.849  40.585   6.627
 4798POPC   C3A63101  33.647  40.767   7.008
 4798POPC   C4A63102  33.683  40.713   7.478
 4798POPC   C1B63103  33.898  41.062   6.419
 4798POPC   C2B63104  33.881  41.210   6.856
 4798POPC   C3B63105  33.927  41.138   7.288
 4798POPC   C4B63106  34.206  41.207   7.657
 4799POPC   NC363107   5.234  11.912   5.278
 4799POPC   PO463108   5.564  12.492   5.466
 4799POPC   GL163109   5.312  12.291   5.848
 4799POPC   GL263110   5.088  12.033   5.758
 4799POPC   C1A63111   5.191  12.333   6.309
 4799POPC   D2A63112   5.358  12.347   6.745
 4799POPC   C3A63113   5.168  12.418   7.140
 4799POPC   C4A63114   5.295  12.439   7.611
 4799POPC   C1B63115   5.183  11.841   6.153
 4799POPC   C2B63116   5.144  11.908   6.600
 4799POPC   C3B63117   4.902  12.002   6.980
 4799POPC   C4B63118   4.688  11.723   7.275
 4800POPC   NC363119  39.823  42.054   5.385
 4800POPC   PO463120  40.347  42.424   5.265
 4800POPC   GL163121  40.266  42.308   5.737
 4800POPC   GL263122  39.942  42.160   5.856
 4800POPC   C1A63123  40.126  42.515   6.148
 4800POPC   D2A63124  39.986  42.368   6.537
 4800POPC   C3A63125  39.970  42.570   6.927
 4800POPC   C4A63126  39.984  42.394   7.345
 4800POPC   C1B63127  39.655  41.986   6.165
 4800POPC   C2B63128  39.612  42.031   6.625
 4800POPC   C3B63129  39.735  42.062   7.051
 4800POPC   C4B63130  39.496  42.260   7.396
 4801POPC   NC363131  20.125  26.038   5.457
 4801POPC   PO463132  20.821  26.321   5.418
 4801POPC   GL163133  20.566  26.182   5.738
 4801POPC   GL263134  20.818  25.965   5.873
 4801POPC   C1A63135  20.470  26.259   6.173
 4801POPC   D2A63136  20.320  26.071   6.535
 4801POPC   C3A63137  20.524  26.276   6.867
 4801POPC   C4A63138  20.570  26.148   7.272
 4801POPC   C1B63139  20.519  25.768   6.116
 4801POPC   C2B63140  20.696  25.681   6.513
 4801POPC   C3B63141  20.576  25.746   6.947
 4801POPC   C4B63142  20.404  25.684   7.386
 4802POPC   NC363143  35.558  42.845   5.427
 4802POPC   PO463144  35.008  42.450   5.359
 4802POPC   GL163145  35.200  42.255   5.742
 4802POPC   GL263146  35.511  42.381   5.730
 4802POPC   C1A63147  35.074  42.267   6.192
 4802POPC   D2A63148  34.760  42.403   6.524
 4802POPC   C3A63149  34.871  42.263   6.943
 4802POPC   C4A63150  35.151  42.432   7.246
 4802POPC   C1B63151  35.626  42.236   6.162
 4802POPC   C2B63152  35.679  42.394   6.596
 4802POPC   C3B63153  35.758  42.461   7.040
 4802POPC   C4B63154  35.600  42.248   7.399
 4803POPC   NC363155  30.912   2.863   5.153
 4803POPC   PO463156  30.513   2.449   5.567
 4803POPC   GL163157  30.655   2.616   5.921
 4803POPC   GL263158  30.806   2.937   5.850
 4803POPC   C1A63159  30.516   2.864   6.260
 4803POPC   D2A63160  30.587   2.648   6.586
 4803POPC   C3A63161  30.662   2.786   6.948
 4803POPC   C4A63162  30.489   2.870   7.312
 4803POPC   C1B63163  31.014   2.782   6.242
 4803POPC   C2B63164  30.955   3.050   6.580
 4803POPC   C3B63165  31.103   3.095   6.978
 4803POPC   C4B63166  31.002   2.819   7.323
 4804POPC   NC363167  26.825  38.751   5.477
 4804POPC   PO463168  26.368  38.325   5.536
 4804POPC   GL163169  26.727  38.396   5.864
 4804POPC   GL263170  27.032  38.564   5.950
 4804POPC   C1A63171  26.740  38.390   6.340
 4804POPC   D2A63172  26.582  38.562   6.748
 4804POPC   C3A63173  26.708  38.464   7.159
 4804POPC   C4A63174  26.991  38.515   7.506
 4804POPC   C1B63175  27.010  38.836   6.282
 4804POPC   C2B63176  26.840  38.991   6.672
 4804POPC   C3B63177  26.990  38.867   7.062
 4804POPC   C4B63178  26.882  38.986   7.460
 4805POPC   NC363179  32.555  42.389   5.412
 4805POPC   PO463180  31.903  42.352   5.169
 4805POPC   GL163181  32.102  42.212   5.645
 4805POPC   GL263182  32.305  42.474   5.828
 4805POPC   C1A63183  32.134  42.160   6.164
 4805POPC   D2A63184  32.351  42.186   6.577
 4805POPC   C3A63185  32.336  42.168   7.023
 4805POPC   C4A63186  32.110  41.907   7.305
 4805POPC   C1B63187  32.048  42.697   6.114
 4805POPC   C2B63188  32.087  42.848   6.517
 4805POPC   C3B63189  32.190  42.653   6.893
 4805POPC   C4B63190  32.330  42.602   7.307
 4806POPC   NC363191  30.662  32.768   5.084
 4806POPC   PO463192  30.926  32.805   5.736
 4806POPC   GL163193  30.531  32.935   5.991
 4806POPC   GL263194  30.432  33.308   5.997
 4806POPC   C1A63195  30.317  32.749   6.328
 4806POPC   D2A63196  30.088  32.914   6.675
 4806POPC   C3A63197  30.365  33.155   6.918
 4806POPC   C4A63198  30.676  32.982   7.178
 4806POPC   C1B63199  30.815  33.259   6.254
 4806POPC   C2B63200  30.802  33.196   6.653
 4806POPC   C3B63201  31.091  33.083   6.883
 4806POPC   C4B63202  31.116  33.230   7.255
 4807POPC   NC363203  16.985  39.879   5.397
 4807POPC   PO463204  16.307  39.899   5.512
 4807POPC   GL163205  16.454  40.098   5.842
 4807POPC   GL263206  16.799  40.182   5.783
 4807POPC   C1A63207  16.641  39.934   6.205
 4807POPC   D2A63208  16.480  40.002   6.591
 4807POPC   C3A63209  16.732  39.804   6.880
 4807POPC   C4A63210  16.705  39.888   7.296
 4807POPC   C1B63211  17.036  40.292   6.167
 4807POPC   C2B63212  17.045  40.118   6.586
 4807POPC   C3B63213  16.996  40.227   7.036
 4807POPC   C4B63214  17.009  40.226   7.488
 4808POPC   NC363215  13.349  44.919   5.345
 4808POPC   PO463216  13.678   0.593   5.360
 4808POPC   GL163217  13.544   0.487   5.770
 4808POPC   GL263218  13.527   0.836   5.838
 4808POPC   C1A63219  13.763   0.467   6.212
 4808POPC   D2A63220  13.902   0.352   6.674
 4808POPC   C3A63221  13.519   0.320   6.977
 4808POPC   C4A63222  13.393   0.296   7.425
 4808POPC   C1B63223  13.530   0.965   6.252
 4808POPC   C2B63224  13.561   0.729   6.626
 4808POPC   C3B63225  13.747   0.763   7.025
 4808POPC   C4B63226  13.502   0.837   7.356
 4809POPC   NC363227  14.144  21.089   5.358
 4809POPC   PO463228  13.752  20.463   5.347
 4809POPC   GL163229  13.726  20.351   5.751
 4809POPC   GL263230  13.436  20.527   5.882
 4809POPC   C1A63231  13.773  20.333   6.207
 4809POPC   D2A63232  13.540  20.590   6.486
 4809POPC   C3A63233  13.616  20.501   6.930
 4809POPC   C4A63234  13.413  20.764   7.197
 4809POPC   C1B63235  13.756  20.829   6.020
 4809POPC   C2B63236  13.940  20.915   6.431
 4809POPC   C3B63237  13.771  20.988   6.830
 4809POPC   C4B63238  13.845  21.048   7.275
 4810POPC   NC363239  36.313   7.318   5.352
 4810POPC   PO463240  35.758   7.333   5.771
 4810POPC   GL163241  36.209   7.212   5.896
 4810POPC   GL263242  36.489   7.458   5.819
 4810POPC   C1A63243  36.332   7.157   6.329
 4810POPC   D2A63244  36.150   7.440   6.613
 4810POPC   C3A63245  36.037   7.347   7.031
 4810POPC   C4A63246  35.732   7.492   7.324
 4810POPC   C1B63247  36.314   7.693   6.166
 4810POPC   C2B63248  36.386   7.893   6.570
 4810POPC   C3B63249  36.420   7.684   6.979
 4810POPC   C4B63250  36.305   7.586   7.410
 4811POPC   NC363251  10.518  41.348   5.436
 4811POPC   PO463252  10.850  41.960   5.479
 4811POPC   GL163253  10.590  41.714   5.795
 4811POPC   GL263254  10.238  41.740   5.748
 4811POPC   C1A63255  10.688  41.363   6.126
 4811POPC   D2A63256  10.699  41.134   6.551
 4811POPC   C3A63257  10.610  41.418   6.928
 4811POPC   C4A63258  10.442  41.716   7.281
 4811POPC   C1B63259  10.204  41.523   6.140
 4811POPC   C2B63260  10.212  41.538   6.590
 4811POPC   C3B63261  10.090  41.420   7.020
 4811POPC   C4B63262  10.349  41.202   7.310
 4812POPC   NC363263  18.215  27.353   5.177
 4812POPC   PO463264  17.626  27.570   5.432
 4812POPC   GL163265  17.403  27.526   5.793
 4812POPC   GL263266  17.276  27.858   5.822
 4812POPC   C1A63267  17.519  27.327   6.201
 4812POPC   D2A63268  17.748  27.193   6.605
 4812POPC   C3A63269  17.522  27.363   6.959
 4812POPC   C4A63270  17.490  27.326   7.400
 4812POPC   C1B63271  17.657  27.849   6.109
 4812POPC   C2B63272  17.708  27.694   6.533
 4812POPC   C3B63273  17.912  27.721   6.938
 4812POPC   C4B63274  17.809  27.709   7.388
 4813POPC   NC363275  28.968  14.052   5.247
 4813POPC   PO463276  29.306  14.666   5.297
 4813POPC   GL163277  29.131  14.410   5.635
 4813POPC   GL263278  29.376  14.597   5.805
 4813POPC   C1A63279  29.147  14.248   6.098
 4813POPC   D2A63280  28.976  14.106   6.508
 4813POPC   C3A63281  29.128  14.294   6.871
 4813POPC   C4A63282  29.074  14.087   7.255
 4813POPC   C1B63283  29.408  14.752   6.178
 4813POPC   C2B63284  29.475  14.567   6.558
 4813POPC   C3B63285  29.440  14.715   6.952
 4813POPC   C4B63286  29.378  14.464   7.329
 4814POPC   NC363287  15.110  29.635   5.077
 4814POPC   PO463288  14.982  29.062   5.325
 4814POPC   GL163289  15.068  28.959   5.739
 4814POPC   GL263290  15.313  29.156   5.888
 4814POPC   C1A63291  14.915  28.858   6.155
 4814POPC   D2A63292  15.205  28.861   6.486
 4814POPC   C3A63293  15.141  28.862   6.928
 4814POPC   C4A63294  15.361  28.936   7.334
 4814POPC   C1B63295  15.126  29.317   6.268
 4814POPC   C2B63296  14.964  29.274   6.688
 4814POPC   C3B63297  15.123  29.356   7.118
 4814POPC   C4B63298  14.937  29.241   7.515
 4815POPC   NC363299  42.700  36.947   5.514
 4815POPC   PO463300  43.295  36.717   5.397
 4815POPC   GL163301  43.334  36.829   5.803
 4815POPC   GL263302  42.974  36.870   5.930
 4815POPC   C1A63303  43.369  36.702   6.209
 4815POPC   D2A63304  43.120  36.918   6.525
 4815POPC   C3A63305  43.287  36.906   6.952
 4815POPC   C4A63306  43.220  36.842   7.384
 4815POPC   C1B63307  42.720  37.196   6.163
 4815POPC   C2B63308  42.848  37.389   6.534
 4815POPC   C3B63309  42.793  37.121   6.901
 4815POPC   C4B63310  42.724  36.870   7.252
 4816POPC   NC363311   4.350   4.593   5.459
 4816POPC   PO463312   3.841   4.345   5.731
 4816POPC   GL163313   4.249   4.246   5.878
 4816POPC   GL263314   4.368   4.569   5.970
 4816POPC   C1A63315   4.402   4.080   6.260
 4816POPC   D2A63316   4.585   4.261   6.639
 4816POPC   C3A63317   4.307   4.296   6.962
 4816POPC   C4A63318   4.230   3.996   7.249
 4816POPC   C1B63319   4.255   4.573   6.412
 4816POPC   C2B63320   4.474   4.746   6.789
 4816POPC   C3B63321   4.552   4.655   7.262
 4816POPC   C4B63322   4.607   4.691   7.725
 4817POPC   NC363323  36.514  26.004   5.355
 4817POPC   PO463324  36.026  25.552   5.453
 4817POPC   GL163325  36.336  25.693   5.773
 4817POPC   GL263326  36.306  26.043   5.870
 4817POPC   C1A63327  36.216  25.712   6.258
 4817POPC   D2A63328  36.154  25.991   6.613
 4817POPC   C3A63329  36.080  25.860   7.032
 4817POPC   C4A63330  35.885  25.828   7.457
 4817POPC   C1B63331  36.633  26.285   6.157
 4817POPC   C2B63332  36.851  26.369   6.564
 4817POPC   C3B63333  36.693  26.404   6.996
 4817POPC   C4B63334  36.268  26.334   7.168
 4818POPC   NC363335   2.471   7.879   5.422
 4818POPC   PO463336   2.798   8.458   5.446
 4818POPC   GL163337   2.920   8.332   5.805
 4818POPC   GL263338   3.042   8.012   5.682
 4818POPC   C1A63339   2.706   8.316   6.179
 4818POPC   D2A63340   2.666   8.554   6.532
 4818POPC   C3A63341   2.671   8.345   6.907
 4818POPC   C4A63342   2.634   8.523   7.281
 4818POPC   C1B63343   2.779   7.832   6.028
 4818POPC   C2B63344   2.699   7.903   6.488
 4818POPC   C3B63345   2.855   7.859   6.926
 4818POPC   C4B63346   2.993   8.138   7.276
 4819POPC   NC363347  35.656  11.246   5.458
 4819POPC   PO463348  36.324  11.117   5.380
 4819POPC   GL163349  36.112  11.326   5.762
 4819POPC   GL263350  35.856  11.604   5.799
 4819POPC   C1A63351  36.175  11.524   6.188
 4819POPC   D2A63352  36.048  11.363   6.572
 4819POPC   C3A63353  36.333  11.460   6.865
 4819POPC   C4A63354  36.614  11.374   7.216
 4819POPC   C1B63355  35.729  11.263   6.137
 4819POPC   C2B63356  35.602  11.100   6.568
 4819POPC   C3B63357  35.769  11.171   6.978
 4819POPC   C4B63358  36.141  11.147   7.197
 4820POPC   NC363359  35.797  17.258   5.564
 4820POPC   PO463360  36.269  17.723   5.375
 4820POPC   GL163361  36.223  17.514   5.781
 4820POPC   GL263362  35.873  17.571   5.960
 4820POPC   C1A63363  36.322  17.706   6.180
 4820POPC   D2A63364  36.056  17.727   6.531
 4820POPC   C3A63365  36.135  17.954   6.868
 4820POPC   C4A63366  36.189  17.774   7.258
 4820POPC   C1B63367  35.997  17.281   6.288
 4820POPC   C2B63368  35.791  17.305   6.701
 4820POPC   C3B63369  35.697  17.428   7.161
 4820POPC   C4B63370  35.638  17.170   7.570
 4821POPC   NC363371  28.010  40.095   5.603
 4821POPC   PO463372  27.406  40.006   5.314
 4821POPC   GL163373  27.520  39.918   5.728
 4821POPC   GL263374  27.742  39.651   5.716
 4821POPC   C1A63375  27.638  40.128   6.143
 4821POPC   D2A63376  27.633  40.406   6.501
 4821POPC   C3A63377  27.808  40.253   6.881
 4821POPC   C4A63378  27.687  39.876   7.098
 4821POPC   C1B63379  27.578  39.629   6.128
 4821POPC   C2B63380  27.679  39.676   6.555
 4821POPC   C3B63381  27.422  39.525   6.846
 4821POPC   C4B63382  27.353  39.529   7.264
 4822POPC   NC363383  21.858   1.138   5.485
 4822POPC   PO463384  21.220   1.118   5.413
 4822POPC   GL163385  21.305   1.231   5.848
 4822POPC   GL263386  21.660   1.220   5.943
 4822POPC   C1A63387  21.334   1.117   6.314
 4822POPC   D2A63388  21.463   1.382   6.676
 4822POPC   C3A63389  21.354   1.209   7.052
 4822POPC   C4A63390  21.074   0.898   7.156
 4822POPC   C1B63391  21.833   0.984   6.308
 4822POPC   C2B63392  21.723   0.923   6.765
 4822POPC   C3B63393  21.860   1.168   7.136
 4822POPC   C4B63394  22.047   1.228   7.562
 4823POPC   NC363395  22.541  28.046   5.575
 4823POPC   PO463396  22.138  27.616   5.270
 4823POPC   GL163397  22.150  27.715   5.747
 4823POPC   GL263398  21.919  27.895   6.021
 4823POPC   C1A63399  22.390  27.673   6.136
 4823POPC   D2A63400  22.567  27.807   6.523
 4823POPC   C3A63401  22.270  27.648   6.801
 4823POPC   C4A63402  22.479  27.396   7.062
 4823POPC   C1B63403  21.658  27.517   6.063
 4823POPC   C2B63404  21.659  27.238   6.437
 4823POPC   C3B63405  21.605  27.418   6.862
 4823POPC   C4B63406  21.816  27.795   7.063
 4824POPC   NC363407  17.175   2.164   5.418
 4824POPC   PO463408  17.435   1.524   5.477
 4824POPC   GL163409  17.301   1.848   5.846
 4824POPC   GL263410  17.147   2.216   5.918
 4824POPC   C1A63411  17.524   2.018   6.227
 4824POPC   D2A63412  17.847   1.940   6.520
 4824POPC   C3A63413  17.735   2.099   6.886
 4824POPC   C4A63414  17.667   1.891   7.204
 4824POPC   C1B63415  17.009   1.996   6.299
 4824POPC   C2B63416  17.214   1.883   6.703
 4824POPC   C3B63417  17.205   2.145   7.054
 4824POPC   C4B63418  17.399   2.257   7.401
 4825POPC   NC363419  34.156  41.309   5.587
 4825POPC   PO463420  33.720  41.661   5.204
 4825POPC   GL163421  33.720  41.589   5.673
 4825POPC   GL263422  34.006  41.668   5.889
 4825POPC   C1A63423  33.547  41.624   6.099
 4825POPC   D2A63424  33.624  41.484   6.514
 4825POPC   C3A63425  33.587  41.707   6.919
 4825POPC   C4A63426  33.604  41.543   7.347
 4825POPC   C1B63427  34.117  41.520   6.296
 4825POPC   C2B63428  34.053  41.711   6.688
 4825POPC   C3B63429  34.051  41.642   7.113
 4825POPC   C4B63430  34.340  41.421   7.210
 4826POPC   NC363431  26.348   0.996   5.403
 4826POPC   PO463432  25.894   1.491   5.490
 4826POPC   GL163433  26.023   1.203   5.813
 4826POPC   GL263434  25.883   0.870   5.844
 4826POPC   C1A63435  25.953   1.193   6.280
 4826POPC   D2A63436  25.673   1.015   6.603
 4826POPC   C3A63437  25.797   0.935   7.042
 4826POPC   C4A63438  26.052   1.161   7.344
 4826POPC   C1B63439  26.240   0.786   6.181
 4826POPC   C2B63440  26.296   0.984   6.616
 4826POPC   C3B63441  26.304   0.853   7.063
 4826POPC   C4B63442  26.414   0.851   7.537
 4827POPC   NC363443  24.243  29.925   5.443
 4827POPC   PO463444  24.836  29.653   5.669
 4827POPC   GL163445  24.438  29.794   5.908
 4827POPC   GL263446  24.314  30.138   5.921
 4827POPC   C1A63447  24.413  29.828   6.354
 4827POPC   D2A63448  24.645  29.533   6.632
 4827POPC   C3A63449  24.651  29.647   7.065
 4827POPC   C4A63450  24.282  29.805   7.261
 4827POPC   C1B63451  24.706  30.216   6.141
 4827POPC   C2B63452  24.747  30.332   6.570
 4827POPC   C3B63453  24.601  30.137   6.928
 4827POPC   C4B63454  24.678  30.155   7.354
 4828POPC   NC363455  29.095   8.326   5.031
 4828POPC   PO463456  29.379   7.960   5.531
 4828POPC   GL163457  29.235   8.065   5.956
 4828POPC   GL263458  29.185   8.432   5.922
 4828POPC   C1A63459  29.122   8.160   6.380
 4828POPC   D2A63460  29.158   8.297   6.782
 4828POPC   C3A63461  29.416   8.052   7.007
 4828POPC   C4A63462  29.193   7.735   7.220
 4828POPC   C1B63463  28.815   8.512   6.194
 4828POPC   C2B63464  28.672   8.437   6.587
 4828POPC   C3B63465  28.736   8.475   7.024
 4828POPC   C4B63466  29.038   8.245   7.292
 4829POPC   NC363467  33.280  19.619   5.407
 4829POPC   PO463468  33.097  18.920   5.418
 4829POPC   GL163469  32.976  19.098   5.810
 4829POPC   GL263470  32.963  19.447   5.816
 4829POPC   C1A63471  32.806  19.079   6.256
 4829POPC   D2A63472  32.705  19.077   6.701
 4829POPC   C3A63473  32.847  18.855   7.049
 4829POPC   C4A63474  33.242  18.836   7.296
 4829POPC   C1B63475  33.249  19.334   6.183
 4829POPC   C2B63476  33.219  19.133   6.602
 4829POPC   C3B63477  33.161  19.282   7.017
 4829POPC   C4B63478  33.355  19.298   7.451
 4830POPC   NC363479  27.117  40.386   5.262
 4830POPC   PO463480  26.633  39.961   5.414
 4830POPC   GL163481  26.846  39.831   5.757
 4830POPC   GL263482  27.048  40.118   5.721
 4830POPC   C1A63483  27.058  39.813   6.169
 4830POPC   D2A63484  27.251  39.990   6.554
 4830POPC   C3A63485  27.049  39.854   6.953
 4830POPC   C4A63486  26.983  39.914   7.363
 4830POPC   C1B63487  26.760  40.290   6.023
 4830POPC   C2B63488  26.808  40.417   6.433
 4830POPC   C3B63489  26.942  40.324   6.808
 4830POPC   C4B63490  26.862  40.409   7.224
 4831POPC   NC363491  36.822  34.293   5.413
 4831POPC   PO463492  37.016  34.876   5.255
 4831POPC   GL163493  37.052  34.706   5.689
 4831POPC   GL263494  36.734  34.634   5.795
 4831POPC   C1A63495  37.164  34.910   6.075
 4831POPC   D2A63496  37.054  34.898   6.539
 4831POPC   C3A63497  37.189  34.530   6.794
 4831POPC   C4A63498  37.151  34.391   7.250
 4831POPC   C1B63499  36.923  34.475   6.189
 4831POPC   C2B63500  36.755  34.322   6.582
 4831POPC   C3B63501  36.713  34.483   6.991
 4831POPC   C4B63502  36.653  34.364   7.408
 4832POPC   NC363503  23.111  19.253   5.053
 4832POPC   PO463504  22.566  19.222   5.256
 4832POPC   GL163505  22.533  19.107   5.743
 4832POPC   GL263506  22.693  18.795   5.855
 4832POPC   C1A63507  22.713  19.176   6.220
 4832POPC   D2A63508  22.830  19.036   6.701
 4832POPC   C3A63509  23.069  19.127   7.156
 4832POPC   C4A63510  23.321  19.342   7.522
 4832POPC   C1B63511  22.887  18.692   6.280
 4832POPC   C2B63512  22.894  18.521   6.705
 4832POPC   C3B63513  22.787  18.700   7.086
 4832POPC   C4B63514  22.978  18.703   7.454
 4833POPC   NC363515  32.557   7.721   5.524
 4833POPC   PO463516  32.032   7.264   5.499
 4833POPC   GL163517  32.298   7.391   5.859
 4833POPC   GL263518  32.348   7.760   5.978
 4833POPC   C1A63519  32.213   7.407   6.307
 4833POPC   D2A63520  32.195   7.503   6.705
 4833POPC   C3A63521  32.477   7.213   6.843
 4833POPC   C4A63522  32.473   6.982   7.219
 4833POPC   C1B63523  31.972   7.856   6.255
 4833POPC   C2B63524  31.899   7.958   6.700
 4833POPC   C3B63525  31.904   7.721   7.103
 4833POPC   C4B63526  32.262   7.464   7.226
 4834POPC   NC363527   6.843  17.241   4.989
 4834POPC   PO463528   6.806  17.723   5.495
 4834POPC   GL163529   6.743  17.496   5.872
 4834POPC   GL263530   6.548  17.233   5.772
 4834POPC   C1A63531   6.727  17.404   6.308
 4834POPC   D2A63532   6.487  17.615   6.617
 4834POPC   C3A63533   6.734  17.572   6.985
 4834POPC   C4A63534   6.912  17.223   7.253
 4834POPC   C1B63535   6.263  17.339   6.123
 4834POPC   C2B63536   6.231  17.174   6.518
 4834POPC   C3B63537   6.202  17.344   6.953
 4834POPC   C4B63538   6.432  17.390   7.327
 4835POPC   NC363539   1.200   5.146   5.367
 4835POPC   PO463540   0.757   4.642   5.435
 4835POPC   GL163541   0.962   4.914   5.790
 4835POPC   GL263542   1.286   5.139   5.851
 4835POPC   C1A63543   0.956   5.091   6.228
 4835POPC   D2A63544   1.208   5.034   6.578
 4835POPC   C3A63545   1.033   5.089   6.941
 4835POPC   C4A63546   1.247   5.049   7.295
 4835POPC   C1B63547   1.508   5.142   6.193
 4835POPC   C2B63548   1.586   5.404   6.517
 4835POPC   C3B63549   1.530   5.276   6.911
 4835POPC   C4B63550   1.625   5.371   7.308
 4836POPC   NC363551  32.058  29.942   5.315
 4836POPC   PO463552  32.474  30.324   5.622
 4836POPC   GL163553  32.148  30.111   5.824
 4836POPC   GL263554  32.296  29.798   5.791
 4836POPC   C1A63555  32.035  29.885   6.239
 4836POPC   D2A63556  32.137  29.707   6.661
 4836POPC   C3A63557  31.971  29.917   7.010
 4836POPC   C4A63558  31.627  30.075   7.248
 4836POPC   C1B63559  32.541  29.970   6.172
 4836POPC   C2B63560  32.508  30.094   6.613
 4836POPC   C3B63561  32.492  29.867   7.013
 4836POPC   C4B63562  32.270  29.513   7.203
 4837POPC   NC363563  34.745  43.505   5.543
 4837POPC   PO463564  35.326  43.240   5.315
 4837POPC   GL163565  35.069  43.081   5.675
 4837POPC   GL263566  35.164  42.768   5.751
 4837POPC   C1A63567  35.120  43.113   6.167
 4837POPC   D2A63568  35.335  43.132   6.589
 4837POPC   C3A63569  35.313  43.312   7.030
 4837POPC   C4A63570  35.641  43.437   7.359
 4837POPC   C1B63571  35.373  42.679   6.134
 4837POPC   C2B63572  35.219  42.632   6.546
 4837POPC   C3B63573  35.367  42.756   6.926
 4837POPC   C4B63574  35.655  42.953   7.201
 4838POPC   NC363575  33.564  15.033   5.506
 4838POPC   PO463576  34.202  15.411   5.524
 4838POPC   GL163577  34.068  15.099   5.840
 4838POPC   GL263578  33.842  14.829   5.939
 4838POPC   C1A63579  34.004  15.217   6.242
 4838POPC   D2A63580  33.813  15.174   6.635
 4838POPC   C3A63581  34.005  15.262   7.008
 4838POPC   C4A63582  34.075  14.978   7.301
 4838POPC   C1B63583  33.519  15.103   6.140
 4838POPC   C2B63584  33.325  15.222   6.521
 4838POPC   C3B63585  33.359  14.951   6.878
 4838POPC   C4B63586  33.578  15.025   7.251
 4839POPC   NC363587  37.734  33.806   5.287
 4839POPC   PO463588  37.784  34.373   5.466
 4839POPC   GL163589  37.894  34.090   5.746
 4839POPC   GL263590  37.580  33.936   5.760
 4839POPC   C1A63591  37.937  33.889   6.141
 4839POPC   D2A63592  37.788  33.642   6.474
 4839POPC   C3A63593  37.974  33.750   6.832
 4839POPC   C4A63594  37.818  33.924   7.173
 4839POPC   C1B63595  37.428  33.677   6.104
 4839POPC   C2B63596  37.290  33.562   6.543
 4839POPC   C3B63597  37.489  33.572   6.963
 4839POPC   C4B63598  37.331  33.404   7.372
 4840POPC   NC363599  33.475  17.167   5.433
 4840POPC   PO463600  33.938  17.600   5.272
 4840POPC   GL163601  33.802  17.478   5.668
 4840POPC   GL263602  34.079  17.497   5.869
 4840POPC   C1A63603  33.589  17.478   6.070
 4840POPC   D2A63604  33.860  17.643   6.396
 4840POPC   C3A63605  33.740  17.545   6.792
 4840POPC   C4A63606  33.656  17.628   7.213
 4840POPC   C1B63607  33.976  17.168   6.220
 4840POPC   C2B63608  33.904  17.066   6.684
 4840POPC   C3B63609  33.997  17.253   7.125
 4840POPC   C4B63610  33.961  17.251   7.600
 4841POPC   NC363611  40.259  34.980   5.443
 4841POPC   PO463612  39.743  34.572   5.497
 4841POPC   GL163613  39.894  34.672   5.890
 4841POPC   GL263614  40.208  34.628   5.843
 4841POPC   C1A63615  40.025  34.349   6.211
 4841POPC   D2A63616  40.219  34.347   6.597
 4841POPC   C3A63617  39.993  34.588   6.879
 4841POPC   C4A63618  39.857  34.436   7.236
 4841POPC   C1B63619  40.302  34.799   6.286
 4841POPC   C2B63620  40.303  34.969   6.741
 4841POPC   C3B63621  40.288  34.904   7.220
 4841POPC   C4B63622  40.254  34.764   7.678
 4842POPC   NC363623   5.820  39.817   5.355
 4842POPC   PO463624   6.123  40.341   5.115
 4842POPC   GL163625   5.888  40.223   5.648
 4842POPC   GL263626   5.738  39.897   5.831
 4842POPC   C1A63627   5.997  40.133   6.169
 4842POPC   D2A63628   6.010  40.334   6.564
 4842POPC   C3A63629   6.140  40.177   6.971
 4842POPC   C4A63630   6.109  40.376   7.381
 4842POPC   C1B63631   5.530  39.838   6.210
 4842POPC   C2B63632   5.521  40.015   6.640
 4842POPC   C3B63633   5.692  39.935   7.076
 4842POPC   C4B63634   5.579  39.882   7.504
 4843POPC   NC363635   0.311   6.630   5.311
 4843POPC   PO463636   0.965   6.376   5.546
 4843POPC   GL163637   0.579   6.457   5.759
 4843POPC   GL263638   0.418   6.774   5.771
 4843POPC   C1A63639   0.504   6.569   6.202
 4843POPC   D2A63640   0.232   6.628   6.539
 4843POPC   C3A63641   0.444   6.688   6.915
 4843POPC   C4A63642   0.580   6.472   7.248
 4843POPC   C1B63643   0.082   6.894   6.093
 4843POPC   C2B63644   0.081   7.113   6.532
 4843POPC   C3B63645   0.072   7.033   6.990
 4843POPC   C4B63646   0.419   7.000   7.338
 4844POPC   NC363647  40.629  40.099   5.371
 4844POPC   PO463648  41.105  39.661   5.535
 4844POPC   GL163649  40.919  39.911   5.841
 4844POPC   GL263650  40.578  39.817   5.823
 4844POPC   C1A63651  41.061  40.112   6.246
 4844POPC   D2A63652  41.032  39.914   6.644
 4844POPC   C3A63653  40.945  40.192   6.965
 4844POPC   C4A63654  41.259  40.354   7.212
 4844POPC   C1B63655  40.566  39.980   6.288
 4844POPC   C2B63656  40.475  40.031   6.758
 4844POPC   C3B63657  40.584  39.840   7.172
 4844POPC   C4B63658  40.527  39.680   7.615
 4845POPC   NC363659  44.251  36.086   5.385
 4845POPC   PO463660  43.671  35.763   5.337
 4845POPC   GL163661  43.758  35.930   5.761
 4845POPC   GL263662  43.577  36.232   5.912
 4845POPC   C1A63663  43.986  36.061   6.141
 4845POPC   D2A63664  43.920  35.940   6.572
 4845POPC   C3A63665  43.855  36.135   6.972
 4845POPC   C4A63666  43.677  35.999   7.346
 4845POPC   C1B63667  43.521  36.212   6.347
 4845POPC   C2B63668  43.420  36.476   6.694
 4845POPC   C3B63669  43.443  36.432   7.134
 4845POPC   C4B63670  43.471  36.412   7.562
 4846POPC   NC363671   8.401  40.412   5.384
 4846POPC   PO463672   8.012  40.938   5.359
 4846POPC   GL163673   8.191  40.921   5.724
 4846POPC   GL263674   7.890  40.764   5.860
 4846POPC   C1A63675   8.369  40.703   6.101
 4846POPC   D2A63676   8.573  40.704   6.529
 4846POPC   C3A63677   8.261  40.690   6.843
 4846POPC   C4A63678   8.159  40.521   7.276
 4846POPC   C1B63679   8.015  41.082   6.167
 4846POPC   C2B63680   7.901  41.031   6.590
 4846POPC   C3B63681   7.794  40.829   6.971
 4846POPC   C4B63682   7.985  40.986   7.296
 4847POPC   NC363683  14.843  22.675   5.540
 4847POPC   PO463684  15.405  23.059   5.358
 4847POPC   GL163685  15.294  22.875   5.756
 4847POPC   GL263686  15.009  23.045   5.863
 4847POPC   C1A63687  15.435  22.907   6.205
 4847POPC   D2A63688  15.425  23.192   6.581
 4847POPC   C3A63689  15.378  23.034   7.015
 4847POPC   C4A63690  15.142  22.807   7.314
 4847POPC   C1B63691  15.003  23.187   6.283
 4847POPC   C2B63692  14.867  22.997   6.662
 4847POPC   C3B63693  14.885  23.186   7.051
 4847POPC   C4B63694  15.105  23.322   7.393
 4848POPC   NC363695  16.324   7.578   5.445
 4848POPC   PO463696  15.874   7.181   5.224
 4848POPC   GL163697  15.887   7.392   5.678
 4848POPC   GL263698  16.211   7.361   5.868
 4848POPC   C1A63699  15.829   7.551   6.154
 4848POPC   D2A63700  15.867   7.336   6.571
 4848POPC   C3A63701  15.853   7.412   6.991
 4848POPC   C4A63702  15.827   7.203   7.352
 4848POPC   C1B63703  16.287   7.414   6.301
 4848POPC   C2B63704  16.372   7.388   6.716
 4848POPC   C3B63705  16.318   7.578   7.079
 4848POPC   C4B63706  16.363   7.401   7.443
 4849POPC   NC363707  16.204  21.808   5.575
 4849POPC   PO463708  15.706  22.010   5.511
 4849POPC   GL163709  15.809  22.227   5.875
 4849POPC   GL263710  15.523  22.435   5.897
 4849POPC   C1A63711  16.000  22.346   6.274
 4849POPC   D2A63712  15.876  22.224   6.687
 4849POPC   C3A63713  16.146  22.254   7.039
 4849POPC   C4A63714  16.094  22.399   7.462
 4849POPC   C1B63715  15.494  22.408   6.330
 4849POPC   C2B63716  15.592  22.682   6.685
 4849POPC   C3B63717  15.691  22.521   7.100
 4849POPC   C4B63718  15.681  22.061   7.178
 4850POPC   NC363719  38.930   9.837   5.443
 4850POPC   PO463720  39.508   9.445   5.413
 4850POPC   GL163721  39.380   9.714   5.726
 4850POPC   GL263722  39.071   9.572   5.878
 4850POPC   C1A63723  39.487   9.817   6.114
 4850POPC   D2A63724  39.313   9.711   6.461
 4850POPC   C3A63725  39.407   9.732   6.877
 4850POPC   C4A63726  39.321   9.728   7.274
 4850POPC   C1B63727  38.867   9.806   6.254
 4850POPC   C2B63728  38.889   9.722   6.714
 4850POPC   C3B63729  38.870   9.943   7.104
 4850POPC   C4B63730  38.893   9.851   7.545
 4851POPC   NC363731  36.742   8.221   5.361
 4851POPC   PO463732  37.383   8.018   5.353
 4851POPC   GL163733  37.166   7.936   5.756
 4851POPC   GL263734  36.802   7.853   5.702
 4851POPC   C1A63735  37.252   7.973   6.227
 4851POPC   D2A63736  37.356   8.034   6.691
 4851POPC   C3A63737  37.122   8.378   6.918
 4851POPC   C4A63738  36.874   8.390   7.306
 4851POPC   C1B63739  36.739   7.983   6.124
 4851POPC   C2B63740  36.863   8.071   6.544
 4851POPC   C3B63741  36.692   8.110   6.938
 4851POPC   C4B63742  36.493   8.059   7.322
 4852POPC   NC363743   1.330  28.947   5.526
 4852POPC   PO463744   0.907  29.306   5.339
 4852POPC   GL163745   0.961  29.175   5.808
 4852POPC   GL263746   0.880  28.832   5.865
 4852POPC   C1A63747   1.032  29.218   6.299
 4852POPC   D2A63748   0.968  29.366   6.758
 4852POPC   C3A63749   1.339  29.534   7.025
 4852POPC   C4A63750   1.462  29.332   7.436
 4852POPC   C1B63751   0.934  28.707   6.312
 4852POPC   C2B63752   1.140  28.867   6.678
 4852POPC   C3B63753   1.265  29.010   7.075
 4852POPC   C4B63754   1.137  28.950   7.522
 4853POPC   NC363755   6.035   0.497   5.509
 4853POPC   PO463756   5.506   0.083   5.231
 4853POPC   GL163757   5.733   0.112   5.708
 4853POPC   GL263758   6.114   0.093   5.796
 4853POPC   C1A63759   5.824   0.413   6.116
 4853POPC   D2A63760   6.119   0.634   6.412
 4853POPC   C3A63761   6.083   0.584   6.880
 4853POPC   C4A63762   5.849   0.645   7.242
 4853POPC   C1B63763   6.013  44.952   6.217
 4853POPC   C2B63764   5.862   0.198   6.583
 4853POPC   C3B63765   5.667   0.219   6.979
 4853POPC   C4B63766   5.966   0.146   7.261
 4854POPC   NC363767  11.676  39.154   5.408
 4854POPC   PO463768  11.002  38.972   5.377
 4854POPC   GL163769  11.248  39.008   5.754
 4854POPC   GL263770  11.333  39.304   5.797
 4854POPC   C1A63771  11.431  38.938   6.153
 4854POPC   D2A63772  11.333  39.074   6.559
 4854POPC   C3A63773  11.462  38.960   6.986
 4854POPC   C4A63774  11.431  39.251   7.294
 4854POPC   C1B63775  11.203  39.493   6.183
 4854POPC   C2B63776  11.362  39.616   6.583
 4854POPC   C3B63777  11.201  39.644   6.996
 4854POPC   C4B63778  11.363  39.778   7.388
 4855POPC   NC363779  16.737  16.072   5.426
 4855POPC   PO463780  16.530  15.515   5.616
 4855POPC   GL163781  16.448  15.867   5.896
 4855POPC   GL263782  16.488  16.247   5.879
 4855POPC   C1A63783  16.613  15.996   6.301
 4855POPC   D2A63784  16.582  16.124   6.706
 4855POPC   C3A63785  16.907  16.009   6.961
 4855POPC   C4A63786  16.893  16.020   7.372
 4855POPC   C1B63787  16.403  16.484   6.331
 4855POPC   C2B63788  16.440  16.594   6.795
 4855POPC   C3B63789  16.650  16.450   7.156
 4855POPC   C4B63790  16.931  16.583   7.487
 4856POPC   NC363791   1.082  37.248   5.535
 4856POPC   PO463792   1.327  36.555   5.451
 4856POPC   GL163793   1.347  36.895   5.787
 4856POPC   GL263794   1.632  37.131   5.812
 4856POPC   C1A63795   1.186  36.944   6.224
 4856POPC   D2A63796   0.874  36.730   6.468
 4856POPC   C3A63797   0.937  36.789   6.895
 4856POPC   C4A63798   0.882  36.829   7.340
 4856POPC   C1B63799   1.598  37.246   6.223
 4856POPC   C2B63800   1.376  37.261   6.637
 4856POPC   C3B63801   1.312  37.102   7.071
 4856POPC   C4B63802   1.381  37.212   7.541
 4857POPC   NC363803  39.580  24.644   5.536
 4857POPC   PO463804  38.961  24.724   5.472
 4857POPC   GL163805  39.198  24.511   5.839
 4857POPC   GL263806  39.509  24.245   5.835
 4857POPC   C1A63807  39.296  24.538   6.278
 4857POPC   D2A63808  39.164  24.493   6.697
 4857POPC   C3A63809  39.078  24.748   7.066
 4857POPC   C4A63810  39.148  24.715   7.529
 4857POPC   C1B63811  39.709  24.242   6.242
 4857POPC   C2B63812  39.687  24.485   6.635
 4857POPC   C3B63813  39.525  24.456   7.065
 4857POPC   C4B63814  39.542  24.075   7.310
 4858POPC   NC363815   8.918  10.247   5.046
 4858POPC   PO463816   8.739  10.846   5.372
 4858POPC   GL163817   8.848  10.593   5.744
 4858POPC   GL263818   9.107  10.693   5.961
 4858POPC   C1A63819   8.675  10.433   6.130
 4858POPC   D2A63820   8.677  10.628   6.529
 4858POPC   C3A63821   8.929  10.647   6.866
 4858POPC   C4A63822   8.751  10.471   7.220
 4858POPC   C1B63823   9.143  10.430   6.310
 4858POPC   C2B63824   8.971  10.205   6.636
 4858POPC   C3B63825   9.186  10.243   7.057
 4858POPC   C4B63826   9.433  10.500   7.354
 4859POPC   NC363827   4.493  11.699   5.345
 4859POPC   PO463828   4.137  11.089   5.203
 4859POPC   GL163829   4.252  11.199   5.628
 4859POPC   GL263830   4.107  11.507   5.741
 4859POPC   C1A63831   4.507  11.161   6.010
 4859POPC   D2A63832   4.465  11.217   6.477
 4859POPC   C3A63833   4.544  11.459   6.840
 4859POPC   C4A63834   4.376  11.262   7.215
 4859POPC   C1B63835   4.345  11.630   6.132
 4859POPC   C2B63836   4.156  11.630   6.554
 4859POPC   C3B63837   4.039  11.585   7.003
 4859POPC   C4B63838   4.199  11.720   7.414
 4860POPC   NC363839  18.595  43.519   5.604
 4860POPC   PO463840  18.327  42.943   5.331
 4860POPC   GL163841  18.207  43.067   5.778
 4860POPC   GL263842  17.877  43.261   5.775
 4860POPC   C1A63843  18.428  43.083   6.222
 4860POPC   D2A63844  18.566  43.205   6.682
 4860POPC   C3A63845  18.438  42.956   7.076
 4860POPC   C4A63846  18.081  42.691   7.235
 4860POPC   C1B63847  17.968  43.330   6.201
 4860POPC   C2B63848  17.998  43.058   6.543
 4860POPC   C3B63849  17.973  43.139   6.957
 4860POPC   C4B63850  18.244  43.433   7.132
 4861POPC   NC363851   8.433   3.844   5.499
 4861POPC   PO463852   7.859   3.704   5.510
 4861POPC   GL163853   8.155   3.587   5.870
 4861POPC   GL263854   8.521   3.487   5.849
 4861POPC   C1A63855   8.294   3.420   6.289
 4861POPC   D2A63856   8.194   3.609   6.661
 4861POPC   C3A63857   8.049   3.319   6.919
 4861POPC   C4A63858   8.138   2.984   7.178
 4861POPC   C1B63859   8.521   3.873   6.138
 4861POPC   C2B63860   8.679   4.102   6.487
 4861POPC   C3B63861   8.446   4.042   6.862
 4861POPC   C4B63862   8.325   3.696   7.148
 4862POPC   NC363863  30.447  40.270   5.392
 4862POPC   PO463864  30.792  39.670   5.555
 4862POPC   GL163865  30.596  39.975   5.796
 4862POPC   GL263866  30.903  40.116   5.876
 4862POPC   C1A63867  30.540  40.118   6.224
 4862POPC   D2A63868  30.827  40.174   6.553
 4862POPC   C3A63869  30.615  40.158   6.919
 4862POPC   C4A63870  30.583  39.891   7.263
 4862POPC   C1B63871  30.912  39.773   6.198
 4862POPC   C2B63872  31.159  39.770   6.565
 4862POPC   C3B63873  31.132  40.012   6.944
 4862POPC   C4B63874  31.102  39.867   7.335
 4863POPC   NC363875   4.143  20.968   5.420
 4863POPC   PO463876   4.405  21.562   5.146
 4863POPC   GL163877   4.446  21.369   5.606
 4863POPC   GL263878   4.129  21.306   5.807
 4863POPC   C1A63879   4.550  21.303   6.091
 4863POPC   D2A63880   4.589  21.575   6.505
 4863POPC   C3A63881   4.274  21.596   6.886
 4863POPC   C4A63882   4.332  21.499   7.348
 4863POPC   C1B63883   4.089  21.405   6.277
 4863POPC   C2B63884   4.314  21.152   6.583
 4863POPC   C3B63885   4.330  21.112   7.013
 4863POPC   C4B63886   3.939  21.156   7.238
 4864POPC   NC363887  16.107  29.720   5.050
 4864POPC   PO463888  15.585  29.962   5.383
 4864POPC   GL163889  15.813  29.968   5.840
 4864POPC   GL263890  16.152  29.860   5.947
 4864POPC   C1A63891  15.832  30.134   6.247
 4864POPC   D2A63892  15.728  29.923   6.584
 4864POPC   C3A63893  15.749  30.155   6.899
 4864POPC   C4A63894  15.862  30.054   7.302
 4864POPC   C1B63895  15.901  29.608   6.207
 4864POPC   C2B63896  15.919  29.451   6.599
 4864POPC   C3B63897  15.977  29.668   6.955
 4864POPC   C4B63898  16.150  29.590   7.317
 4865POPC   NC363899  41.756  25.467   5.286
 4865POPC   PO463900  41.287  25.010   5.398
 4865POPC   GL163901  41.218  25.258   5.765
 4865POPC   GL263902  41.410  25.538   5.695
 4865POPC   C1A63903  41.403  25.226   6.173
 4865POPC   D2A63904  41.735  25.166   6.476
 4865POPC   C3A63905  41.570  25.194   6.899
 4865POPC   C4A63906  41.199  24.969   7.104
 4865POPC   C1B63907  41.765  25.590   6.015
 4865POPC   C2B63908  41.827  25.662   6.469
 4865POPC   C3B63909  41.912  25.672   6.901
 4865POPC   C4B63910  41.634  25.579   7.243
 4866POPC   NC363911  12.167  19.428   5.524
 4866POPC   PO463912  12.324  20.101   5.689
 4866POPC   GL163913  11.909  19.931   5.848
 4866POPC   GL263914  11.939  19.583   5.940
 4866POPC   C1A63915  11.753  19.866   6.287
 4866POPC   D2A63916  11.938  19.640   6.615
 4866POPC   C3A63917  11.869  19.897   6.950
 4866POPC   C4A63918  11.717  19.892   7.373
 4866POPC   C1B63919  12.284  19.726   6.207
 4866POPC   C2B63920  12.583  19.794   6.526
 4866POPC   C3B63921  12.421  19.848   6.904
 4866POPC   C4B63922  12.246  19.906   7.283
 4867POPC   NC363923  39.339   5.402   5.390
 4867POPC   PO463924  39.129   4.740   5.477
 4867POPC   GL163925  39.091   5.073   5.799
 4867POPC   GL263926  39.393   5.219   5.845
 4867POPC   C1A63927  39.194   5.006   6.268
 4867POPC   D2A63928  39.340   4.830   6.666
 4867POPC   C3A63929  39.113   4.941   7.033
 4867POPC   C4A63930  39.027   5.341   7.142
 4867POPC   C1B63931  39.637   5.232   6.183
 4867POPC   C2B63932  39.476   5.329   6.591
 4867POPC   C3B63933  39.559   5.200   6.993
 4867POPC   C4B63934  39.475   5.276   7.411
 4868POPC   NC363935  24.990  23.660   5.417
 4868POPC   PO463936  25.370  24.202   5.310
 4868POPC   GL163937  25.348  23.996   5.714
 4868POPC   GL263938  25.031  23.998   5.830
 4868POPC   C1A63939  25.452  23.859   6.149
 4868POPC   D2A63940  25.623  23.798   6.563
 4868POPC   C3A63941  25.370  23.788   6.911
 4868POPC   C4A63942  25.508  23.896   7.296
 4868POPC   C1B63943  24.945  23.898   6.224
 4868POPC   C2B63944  24.966  23.639   6.584
 4868POPC   C3B63945  24.846  23.709   7.007
 4868POPC   C4B63946  25.002  23.995   7.316
 4869POPC   NC363947  20.126   0.715   5.375
 4869POPC   PO463948  19.679   0.254   5.364
 4869POPC   GL163949  19.837   0.453   5.736
 4869POPC   GL263950  20.117   0.250   5.713
 4869POPC   C1A63951  19.817   0.608   6.191
 4869POPC   D2A63952  19.460   0.583   6.537
 4869POPC   C3A63953  19.572   0.453   6.975
 4869POPC   C4A63954  19.433   0.628   7.405
 4869POPC   C1B63955  19.965   0.116   6.129
 4869POPC   C2B63956  19.886   0.277   6.571
 4869POPC   C3B63957  19.923   0.098   6.991
 4869POPC   C4B63958  20.080   0.127   7.428
 4870POPC   NC363959   8.896  29.562   5.387
 4870POPC   PO463960   9.181  29.095   5.398
 4870POPC   GL163961   8.958  29.176   5.822
 4870POPC   GL263962   8.689  29.435   5.895
 4870POPC   C1A63963   8.927  29.046   6.285
 4870POPC   D2A63964   8.712  29.126   6.691
 4870POPC   C3A63965   8.914  29.159   7.105
 4870POPC   C4A63966   8.778  29.146   7.553
 4870POPC   C1B63967   9.038  29.532   6.193
 4870POPC   C2B63968   9.146  29.402   6.614
 4870POPC   C3B63969   9.334  29.444   7.011
 4870POPC   C4B63970   9.138  29.510   7.413
 4871POPC   NC363971  17.966   6.462   5.371
 4871POPC   PO463972  18.491   6.837   5.173
 4871POPC   GL163973  18.447   6.811   5.665
 4871POPC   GL263974  18.308   6.488   5.766
 4871POPC   C1A63975  18.546   6.775   6.137
 4871POPC   D2A63976  18.424   6.590   6.556
 4871POPC   C3A63977  18.505   6.794   6.969
 4871POPC   C4A63978  18.523   6.885   7.438
 4871POPC   C1B63979  18.100   6.412   6.181
 4871POPC   C2B63980  17.918   6.485   6.572
 4871POPC   C3B63981  18.077   6.487   6.990
 4871POPC   C4B63982  18.127   6.570   7.426
 4872POPC   NC363983   8.924  16.403   5.336
 4872POPC   PO463984   8.968  15.722   5.472
 4872POPC   GL163985   8.765  15.843   5.817
 4872POPC   GL263986   8.655  16.184   5.735
 4872POPC   C1A63987   8.939  15.747   6.202
 4872POPC   D2A63988   9.293  15.826   6.463
 4872POPC   C3A63989   9.033  15.888   6.819
 4872POPC   C4A63990   8.836  15.703   7.143
 4872POPC   C1B63991   9.066  16.229   5.987
 4872POPC   C2B63992   9.132  16.320   6.426
 4872POPC   C3B63993   9.010  16.378   6.862
 4872POPC   C4B63994   8.898  16.363   7.292
 4873POPC   NC363995   4.944  13.337   5.490
 4873POPC   PO463996   5.355  13.896   5.527
 4873POPC   GL163997   5.255  13.643   5.851
 4873POPC   GL263998   4.902  13.708   5.889
 4873POPC   C1A63999   5.264  13.890   6.220
 4873POPC   D2A64000   5.109  13.993   6.616
 4873POPC   C3A64001   5.076  13.611   6.834
 4873POPC   C4A64002   5.116  13.512   7.284
 4873POPC   C1B64003   4.942  13.429   6.244
 4873POPC   C2B64004   4.702  13.301   6.602
 4873POPC   C3B64005   4.685  13.359   7.011
 4873POPC   C4B64006   4.674  13.747   7.188
 4874POPC   NC364007   3.598   6.850   5.117
 4874POPC   PO464008   2.999   6.477   5.238
 4874POPC   GL164009   3.325   6.576   5.583
 4874POPC   GL264010   3.579   6.308   5.651
 4874POPC   C1A64011   3.428   6.828   5.986
 4874POPC   D2A64012   3.551   6.730   6.414
 4874POPC   C3A64013   3.486   6.976   6.769
 4874POPC   C4A64014   3.535   6.937   7.223
 4874POPC   C1B64015   3.750   6.390   6.074
 4874POPC   C2B64016   3.912   6.396   6.487
 4874POPC   C3B64017   3.724   6.500   6.884
 4874POPC   C4B64018   3.858   6.541   7.319
 4875POPC   NC364019  30.139   5.011   5.389
 4875POPC   PO464020  29.475   4.835   5.374
 4875POPC   GL164021  29.764   4.883   5.771
 4875POPC   GL264022  30.105   4.855   5.900
 4875POPC   C1A64023  29.755   5.078   6.188
 4875POPC   D2A64024  29.819   5.352   6.530
 4875POPC   C3A64025  29.854   5.157   6.897
 4875POPC   C4A64026  29.657   5.149   7.275
 4875POPC   C1B64027  30.257   5.172   6.237
 4875POPC   C2B64028  30.332   5.302   6.690
 4875POPC   C3B64029  30.282   5.190   7.148
 4875POPC   C4B64030  30.294   4.883   7.465
 4876POPC   NC364031  29.790  15.619   5.456
 4876POPC   PO464032  29.615  16.315   5.392
 4876POPC   GL164033  29.804  16.055   5.761
 4876POPC   GL264034  29.645  15.730   5.922
 4876POPC   C1A64035  29.983  16.030   6.181
 4876POPC   D2A64036  29.899  15.778   6.543
 4876POPC   C3A64037  30.069  15.911   6.932
 4876POPC   C4A64038  29.993  16.058   7.326
 4876POPC   C1B64039  29.541  15.415   6.255
 4876POPC   C2B64040  29.557  15.422   6.692
 4876POPC   C3B64041  29.584  15.733   6.963
 4876POPC   C4B64042  29.774  15.605   7.304
 4877POPC   NC364043  16.630   5.499   5.476
 4877POPC   PO464044  16.628   4.838   5.333
 4877POPC   GL164045  16.769   5.019   5.720
 4877POPC   GL264046  17.001   5.320   5.806
 4877POPC   C1A64047  16.577   4.992   6.106
 4877POPC   D2A64048  16.658   5.189   6.476
 4877POPC   C3A64049  16.543   4.993   6.827
 4877POPC   C4A64050  16.556   5.016   7.251
 4877POPC   C1B64051  17.079   5.063   6.173
 4877POPC   C2B64052  17.025   4.839   6.575
 4877POPC   C3B64053  17.022   4.991   6.994
 4877POPC   C4B64054  17.009   4.735   7.356
 4878POPC   NC364055  25.118   0.430   5.130
 4878POPC   PO464056  24.382   0.480   5.225
 4878POPC   GL164057  24.416   0.410   5.731
 4878POPC   GL264058  24.674   0.147   5.836
 4878POPC   C1A64059  24.596   0.553   6.148
 4878POPC   D2A64060  24.690   0.744   6.550
 4878POPC   C3A64061  24.470   0.582   6.888
 4878POPC   C4A64062  24.702   0.367   7.158
 4878POPC   C1B64063  24.520   0.060   6.240
 4878POPC   C2B64064  24.601   0.086   6.708
 4878POPC   C3B64065  24.470  44.914   7.100
 4878POPC   C4B64066  24.341   0.166   7.433
 4879POPC   NC364067  18.264   5.508   5.349
 4879POPC   PO464068  18.424   4.875   5.298
 4879POPC   GL164069  18.282   5.110   5.683
 4879POPC   GL264070  18.528   5.199   5.859
 4879POPC   C1A64071  18.141   5.171   6.163
 4879POPC   D2A64072  18.379   5.134   6.569
 4879POPC   C3A64073  18.205   5.122   6.996
 4879POPC   C4A64074  18.354   5.126   7.424
 4879POPC   C1B64075  18.629   5.482   6.247
 4879POPC   C2B64076  18.517   5.612   6.694
 4879POPC   C3B64077  18.616   5.505   7.153
 4879POPC   C4B64078  18.644   5.436   7.665
 4880POPC   NC364079  13.123   0.782   5.400
 4880POPC   PO464080  12.872   0.156   5.282
 4880POPC   GL164081  12.979   0.346   5.712
 4880POPC   GL264082  12.618   0.378   5.819
 4880POPC   C1A64083  13.187   0.531   6.136
 4880POPC   D2A64084  13.152   0.419   6.596
 4880POPC   C3A64085  13.165   0.694   6.986
 4880POPC   C4A64086  13.033   0.637   7.421
 4880POPC   C1B64087  12.715   0.376   6.263
 4880POPC   C2B64088  12.685   0.634   6.635
 4880POPC   C3B64089  12.671   0.510   7.070
 4880POPC   C4B64090  12.864   0.155   7.334
 4881POPC   NC364091  15.704  13.797   5.672
 4881POPC   PO464092  15.545  13.202   5.451
 4881POPC   GL164093  15.901  13.344   5.733
 4881POPC   GL264094  16.257  13.536   5.710
 4881POPC   C1A64095  16.008  13.501   6.169
 4881POPC   D2A64096  15.900  13.425   6.578
 4881POPC   C3A64097  16.106  13.407   6.961
 4881POPC   C4A64098  15.908  13.337   7.374
 4881POPC   C1B64099  16.490  13.645   6.107
 4881POPC   C2B64100  16.279  13.815   6.496
 4881POPC   C3B64101  15.983  13.904   6.833
 4881POPC   C4B64102  16.044  13.849   7.263
 4882POPC   NC364103  10.437  17.984   5.375
 4882POPC   PO464104  10.809  17.326   5.468
 4882POPC   GL164105  10.605  17.580   5.794
 4882POPC   GL264106  10.794  17.889   5.787
 4882POPC   C1A64107  10.368  17.610   6.218
 4882POPC   D2A64108  10.136  17.349   6.530
 4882POPC   C3A64109  10.341  17.298   6.943
 4882POPC   C4A64110  10.208  17.412   7.345
 4882POPC   C1B64111  10.695  18.047   6.217
 4882POPC   C2B64112  10.457  17.964   6.601
 4882POPC   C3B64113  10.546  17.778   7.000
 4882POPC   C4B64114  10.942  17.912   7.162
 4883POPC   NC364115  30.915  18.646   5.455
 4883POPC   PO464116  30.294  18.279   5.356
 4883POPC   GL164117  30.511  18.448   5.685
 4883POPC   GL264118  30.814  18.293   5.799
 4883POPC   C1A64119  30.445  18.516   6.103
 4883POPC   D2A64120  30.554  18.275   6.457
 4883POPC   C3A64121  30.494  18.351   6.901
 4883POPC   C4A64122  30.557  18.144   7.287
 4883POPC   C1B64123  30.951  18.536   6.188
 4883POPC   C2B64124  31.040  18.379   6.621
 4883POPC   C3B64125  30.963  18.496   7.044
 4883POPC   C4B64126  31.293  18.590   7.292
 4884POPC   NC364127   7.649   9.838   5.538
 4884POPC   PO464128   7.046   9.499   5.351
 4884POPC   GL164129   7.309   9.555   5.759
 4884POPC   GL264130   7.197   9.778   5.955
 4884POPC   C1A64131   7.602   9.562   6.149
 4884POPC   D2A64132   7.709   9.760   6.555
 4884POPC   C3A64133   7.579   9.566   6.942
 4884POPC   C4A64134   7.710   9.361   7.348
 4884POPC   C1B64135   7.104   9.478   6.235
 4884POPC   C2B64136   7.191   9.704   6.579
 4884POPC   C3B64137   7.119   9.776   6.979
 4884POPC   C4B64138   7.277   9.654   7.351
 4885POPC   NC364139  12.773  20.076   5.795
 4885POPC   PO464140  13.212  19.702   5.463
 4885POPC   GL164141  13.008  19.608   5.841
 4885POPC   GL264142  12.653  19.490   5.773
 4885POPC   C1A64143  13.033  19.714   6.287
 4885POPC   D2A64144  13.152  19.742   6.699
 4885POPC   C3A64145  12.919  20.050   6.883
 4885POPC   C4A64146  12.722  20.097   7.249
 4885POPC   C1B64147  12.668  19.353   6.216
 4885POPC   C2B64148  12.842  19.358   6.643
 4885POPC   C3B64149  12.830  19.573   7.057
 4885POPC   C4B64150  12.652  19.635   7.473
 4886POPC   NC364151  31.646  41.201   5.452
 4886POPC   PO464152  31.353  41.716   5.076
 4886POPC   GL164153  31.504  41.765   5.585
 4886POPC   GL264154  31.656  41.512   5.840
 4886POPC   C1A64155  31.409  41.894   6.050
 4886POPC   D2A64156  31.484  41.700   6.487
 4886POPC   C3A64157  31.410  41.880   6.934
 4886POPC   C4A64158  31.337  41.676   7.358
 4886POPC   C1B64159  31.711  41.251   6.229
 4886POPC   C2B64160  31.816  41.335   6.682
 4886POPC   C3B64161  31.766  41.515   7.119
 4886POPC   C4B64162  31.689  41.295   7.523
 4887POPC   NC364163  29.015  10.846   5.377
 4887POPC   PO464164  29.384  10.185   5.419
 4887POPC   GL164165  29.107  10.371   5.758
 4887POPC   GL264166  29.079  10.702   5.841
 4887POPC   C1A64167  28.962  10.395   6.214
 4887POPC   D2A64168  29.016  10.661   6.585
 4887POPC   C3A64169  28.899  10.456   6.984
 4887POPC   C4A64170  29.171  10.262   7.267
 4887POPC   C1B64171  29.265  10.927   6.166
 4887POPC   C2B64172  29.449  10.933   6.561
 4887POPC   C3B64173  29.268  11.016   6.940
 4887POPC   C4B64174  29.173  10.809   7.293
 4888POPC   NC364175  29.905   0.528   5.190
 4888POPC   PO464176  29.701   0.002   5.585
 4888POPC   GL164177  29.932   0.119   5.890
 4888POPC   GL264178  30.072   0.397   5.711
 4888POPC   C1A64179  30.048   0.195   6.311
 4888POPC   D2A64180  30.204   0.518   6.555
 4888POPC   C3A64181  30.027   0.477   6.957
 4888POPC   C4A64182  29.871   0.363   7.379
 4888POPC   C1B64183  29.845   0.607   6.089
 4888POPC   C2B64184  29.686   0.586   6.495
 4888POPC   C3B64185  29.614   0.760   6.872
 4888POPC   C4B64186  29.896   0.912   7.183
 4889POPC   NC364187  25.024  12.401   5.538
 4889POPC   PO464188  25.230  13.088   5.320
 4889POPC   GL164189  25.190  12.871   5.689
 4889POPC   GL264190  25.532  12.880   5.774
 4889POPC   C1A64191  24.909  12.782   6.054
 4889POPC   D2A64192  25.014  12.455   6.386
 4889POPC   C3A64193  24.966  12.533   6.844
 4889POPC   C4A64194  24.996  12.610   7.332
 4889POPC   C1B64195  25.379  12.802   6.209
 4889POPC   C2B64196  25.492  12.583   6.600
 4889POPC   C3B64197  25.437  12.603   7.052
 4889POPC   C4B64198  25.447  13.057   7.133
 4890POPC   NC364199  43.620  41.789   5.266
 4890POPC   PO464200  44.029  41.300   5.402
 4890POPC   GL164201  43.816  41.394   5.794
 4890POPC   GL264202  43.885  41.699   5.944
 4890POPC   C1A64203  43.621  41.271   6.178
 4890POPC   D2A64204  43.633  41.104   6.578
 4890POPC   C3A64205  43.595  41.369   6.966
 4890POPC   C4A64206  43.883  41.639   7.239
 4890POPC   C1B64207  44.142  41.393   6.239
 4890POPC   C2B64208  44.374  41.244   6.650
 4890POPC   C3B64209  44.309  41.348   7.119
 4890POPC   C4B64210  44.171  41.402   7.599
 4891POPC   NC364211   2.988   4.104   5.262
 4891POPC   PO464212   2.344   4.327   5.424
 4891POPC   GL164213   2.608   4.331   5.829
 4891POPC   GL264214   2.817   4.611   5.815
 4891POPC   C1A64215   2.898   4.225   6.238
 4891POPC   D2A64216   2.978   3.944   6.594
 4891POPC   C3A64217   2.994   4.183   6.975
 4891POPC   C4A64218   2.676   4.343   7.267
 4891POPC   C1B64219   2.685   4.680   6.253
 4891POPC   C2B64220   2.883   4.650   6.661
 4891POPC   C3B64221   3.016   4.701   7.085
 4891POPC   C4B64222   2.794   4.805   7.457
 4892POPC   NC364223  32.882  10.090   5.484
 4892POPC   PO464224  33.312   9.677   5.395
 4892POPC   GL164225  33.388   9.647   5.818
 4892POPC   GL264226  33.247   9.984   5.889
 4892POPC   C1A64227  33.286   9.449   6.216
 4892POPC   D2A64228  33.085   9.446   6.633
 4892POPC   C3A64229  33.402   9.545   6.943
 4892POPC   C4A64230  33.342   9.754   7.329
 4892POPC   C1B64231  32.859   9.753   6.070
 4892POPC   C2B64232  32.644   9.858   6.465
 4892POPC   C3B64233  32.823   9.890   6.873
 4892POPC   C4B64234  32.910   9.546   7.152
 4893POPC   NC364235  28.203  14.627   5.460
 4893POPC   PO464236  28.519  14.057   5.393
 4893POPC   GL164237  28.609  14.382   5.739
 4893POPC   GL264238  28.381  14.652   5.916
 4893POPC   C1A64239  28.633  14.335   6.211
 4893POPC   D2A64240  28.515  14.530   6.610
 4893POPC   C3A64241  28.614  14.280   6.941
 4893POPC   C4A64242  28.711  14.468   7.309
 4893POPC   C1B64243  28.134  14.413   6.266
 4893POPC   C2B64244  28.110  14.246   6.716
 4893POPC   C3B64245  28.159  14.356   7.183
 4893POPC   C4B64246  27.994  14.425   7.614
 4894POPC   NC364247  14.370  18.292   5.337
 4894POPC   PO464248  14.020  18.802   5.425
 4894POPC   GL164249  14.070  18.409   5.756
 4894POPC   GL264250  14.368  18.271   5.907
 4894POPC   C1A64251  13.982  18.142   6.211
 4894POPC   D2A64252  14.141  18.034   6.663
 4894POPC   C3A64253  14.381  18.227   7.010
 4894POPC   C4A64254  14.366  18.164   7.471
 4894POPC   C1B64255  14.354  18.463   6.370
 4894POPC   C2B64256  14.310  18.716   6.798
 4894POPC   C3B64257  14.321  18.681   7.270
 4894POPC   C4B64258  14.678  18.569   7.548
 4895POPC   NC364259  36.004   6.392   5.435
 4895POPC   PO464260  35.880   7.111   5.286
 4895POPC   GL164261  35.916   6.831   5.713
 4895POPC   GL264262  36.227   6.663   5.831
 4895POPC   C1A64263  35.919   6.830   6.198
 4895POPC   D2A64264  35.926   6.963   6.639
 4895POPC   C3A64265  35.869   6.606   6.864
 4895POPC   C4A64266  35.947   6.392   7.247
 4895POPC   C1B64267  36.527   6.674   6.205
 4895POPC   C2B64268  36.523   6.707   6.654
 4895POPC   C3B64269  36.345   6.637   7.036
 4895POPC   C4B64270  36.047   6.890   7.236
 4896POPC   NC364271  19.989  23.961   5.436
 4896POPC   PO464272  19.556  23.602   5.201
 4896POPC   GL164273  19.708  23.640   5.708
 4896POPC   GL264274  19.666  24.008   5.854
 4896POPC   C1A64275  20.020  23.749   6.096
 4896POPC   D2A64276  20.143  24.056   6.457
 4896POPC   C3A64277  20.070  24.032   6.921
 4896POPC   C4A64278  19.956  23.692   7.198
 4896POPC   C1B64279  19.571  23.890   6.297
 4896POPC   C2B64280  19.627  23.853   6.737
 4896POPC   C3B64281  19.471  23.853   7.149
 4896POPC   C4B64282  19.560  23.683   7.554
 4897POPC   NC364283  14.529  35.844   4.993
 4897POPC   PO464284  14.285  35.517   5.524
 4897POPC   GL164285  14.509  35.410   5.868
 4897POPC   GL264286  14.754  35.171   5.748
 4897POPC   C1A64287  14.446  35.484   6.308
 4897POPC   D2A64288  14.590  35.286   6.665
 4897POPC   C3A64289  14.296  35.246   6.967
 4897POPC   C4A64290  14.127  35.609   7.183
 4897POPC   C1B64291  14.751  35.073   6.196
 4897POPC   C2B64292  14.780  34.816   6.583
 4897POPC   C3B64293  14.801  34.950   7.029
 4897POPC   C4B64294  14.844  35.362   7.118
 4898POPC   NC364295   6.903  31.188   5.339
 4898POPC   PO464296   6.545  31.713   5.463
 4898POPC   GL164297   6.851  31.576   5.733
 4898POPC   GL264298   6.640  31.299   5.774
 4898POPC   C1A64299   6.855  31.748   6.151
 4898POPC   D2A64300   6.623  31.672   6.506
 4898POPC   C3A64301   6.760  31.565   6.950
 4898POPC   C4A64302   6.620  31.388   7.383
 4898POPC   C1B64303   6.529  31.100   6.158
 4898POPC   C2B64304   6.478  31.149   6.580
 4898POPC   C3B64305   6.580  31.071   6.983
 4898POPC   C4B64306   6.343  30.910   7.321
 4899POPC   NC364307  12.097  30.743   5.610
 4899POPC   PO464308  11.598  30.260   5.519
 4899POPC   GL164309  11.887  30.410   5.949
 4899POPC   GL264310  12.292  30.527   6.024
 4899POPC   C1A64311  11.907  30.677   6.367
 4899POPC   D2A64312  11.855  30.865   6.817
 4899POPC   C3A64313  12.037  30.683   7.182
 4899POPC   C4A64314  12.339  30.345   7.270
 4899POPC   C1B64315  12.374  30.944   6.291
 4899POPC   C2B64316  12.318  31.084   6.753
 4899POPC   C3B64317  12.453  30.971   7.202
 4899POPC   C4B64318  12.394  30.739   7.612
 4900POPC   NC364319  23.421  31.083   5.483
 4900POPC   PO464320  22.766  30.898   5.559
 4900POPC   GL164321  22.855  30.735   5.961
 4900POPC   GL264322  23.166  30.635   5.892
 4900POPC   C1A64323  22.807  30.671   6.403
 4900POPC   D2A64324  22.911  30.871   6.744
 4900POPC   C3A64325  22.957  30.781   7.165
 4900POPC   C4A64326  22.675  30.701   7.529
 4900POPC   C1B64327  23.443  30.495   6.235
 4900POPC   C2B64328  23.256  30.481   6.645
 4900POPC   C3B64329  23.295  30.401   7.069
 4900POPC   C4B64330  23.071  30.398   7.486
 4901POPC   NC364331  31.759  38.369   5.401
 4901POPC   PO464332  31.180  38.774   5.420
 4901POPC   GL164333  31.227  38.558   5.822
 4901POPC   GL264334  31.398  38.263   5.779
 4901POPC   C1A64335  31.200  38.548   6.288
 4901POPC   D2A64336  31.295  38.366   6.731
 4901POPC   C3A64337  31.319  38.519   7.185
 4901POPC   C4A64338  31.548  38.264   7.523
 4901POPC   C1B64339  31.701  38.503   6.066
 4901POPC   C2B64340  31.930  38.529   6.462
 4901POPC   C3B64341  31.789  38.485   6.900
 4901POPC   C4B64342  31.800  38.664   7.316
 4902POPC   NC364343  15.783   8.390   5.284
 4902POPC   PO464344  16.389   7.989   5.256
 4902POPC   GL164345  16.101   8.126   5.589
 4902POPC   GL264346  16.049   7.862   5.813
 4902POPC   C1A64347  16.022   8.328   6.023
 4902POPC   D2A64348  15.792   8.174   6.425
 4902POPC   C3A64349  15.890   8.360   6.844
 4902POPC   C4A64350  16.114   8.409   7.236
 4902POPC   C1B64351  16.210   7.911   6.267
 4902POPC   C2B64352  16.072   7.803   6.664
 4902POPC   C3B64353  15.686   7.877   6.876
 4902POPC   C4B64354  15.706   8.093   7.269
 4903POPC   NC364355  15.253  27.702   5.522
 4903POPC   PO464356  14.583  27.366   5.458
 4903POPC   GL164357  14.865  27.480   5.789
 4903POPC   GL264358  14.874  27.848   5.863
 4903POPC   C1A64359  15.061  27.454   6.203
 4903POPC   D2A64360  14.911  27.312   6.627
 4903POPC   C3A64361  15.133  27.504   6.948
 4903POPC   C4A64362  14.996  27.707   7.293
 4903POPC   C1B64363  15.254  27.926   6.144
 4903POPC   C2B64364  15.303  28.011   6.597
 4903POPC   C3B64365  15.390  27.952   7.040
 4903POPC   C4B64366  15.542  27.640   7.324
 4904POPC   NC364367  15.621  26.912   5.608
 4904POPC   PO464368  14.989  26.588   5.476
 4904POPC   GL164369  14.992  26.880   5.826
 4904POPC   GL264370  15.329  26.783   6.023
 4904POPC   C1A64371  14.921  26.975   6.249
 4904POPC   D2A64372  15.198  26.869   6.574
 4904POPC   C3A64373  15.024  26.867   6.965
 4904POPC   C4A64374  15.114  27.114   7.283
 4904POPC   C1B64375  15.364  26.433   6.356
 4904POPC   C2B64376  15.344  26.408   6.840
 4904POPC   C3B64377  15.387  26.623   7.267
 4904POPC   C4B64378  15.597  26.511   7.720
 4905POPC   NC364379  36.485  27.569   5.569
 4905POPC   PO464380  37.115  27.683   5.432
 4905POPC   GL164381  36.909  27.728   5.830
 4905POPC   GL264382  36.975  27.385   5.975
 4905POPC   C1A64383  37.075  27.806   6.233
 4905POPC   D2A64384  37.147  27.478   6.526
 4905POPC   C3A64385  36.959  27.490   6.928
 4905POPC   C4A64386  37.068  27.843   7.175
 4905POPC   C1B64387  36.671  27.413   6.341
 4905POPC   C2B64388  36.466  27.413   6.772
 4905POPC   C3B64389  36.555  27.368   7.230
 4905POPC   C4B64390  36.395  27.206   7.623
 4906POPC   NC364391   5.453  14.966   5.367
 4906POPC   PO464392   4.884  15.293   5.294
 4906POPC   GL164393   5.018  15.033   5.625
 4906POPC   GL264394   4.852  15.259   5.811
 4906POPC   C1A64395   5.161  14.841   6.007
 4906POPC   D2A64396   5.268  14.949   6.441
 4906POPC   C3A64397   4.985  14.909   6.825
 4906POPC   C4A64398   5.154  15.029   7.250
 4906POPC   C1B64399   5.100  15.337   6.133
 4906POPC   C2B64400   4.940  15.348   6.530
 4906POPC   C3B64401   4.997  15.417   6.945
 4906POPC   C4B64402   4.787  15.431   7.335
 4907POPC   NC364403  36.025  21.213   5.545
 4907POPC   PO464404  36.628  21.523   5.502
 4907POPC   GL164405  36.369  21.553   5.828
 4907POPC   GL264406  36.023  21.637   5.788
 4907POPC   C1A64407  36.408  21.432   6.229
 4907POPC   D2A64408  36.104  21.310   6.532
 4907POPC   C3A64409  35.987  21.446   6.925
 4907POPC   C4A64410  35.927  21.258   7.318
 4907POPC   C1B64411  35.823  21.548   6.182
 4907POPC   C2B64412  35.779  21.808   6.572
 4907POPC   C3B64413  35.621  21.777   7.015
 4907POPC   C4B64414  35.712  21.687   7.472
 4908POPC   NC364415  18.596  40.215   5.433
 4908POPC   PO464416  19.296  40.102   5.637
 4908POPC   GL164417  18.928  40.200   5.824
 4908POPC   GL264418  18.822  39.833   5.754
 4908POPC   C1A64419  18.943  40.306   6.242
 4908POPC   D2A64420  18.772  40.109   6.599
 4908POPC   C3A64421  18.880  40.369   6.938
 4908POPC   C4A64422  18.761  40.365   7.356
 4908POPC   C1B64423  18.989  39.799   6.174
 4908POPC   C2B64424  19.262  39.988   6.486
 4908POPC   C3B64425  19.224  39.980   6.933
 4908POPC   C4B64426  18.938  39.905   7.260
 4909POPC   NC364427  37.821  19.503   5.445
 4909POPC   PO464428  37.365  19.964   5.394
 4909POPC   GL164429  37.473  19.734   5.771
 4909POPC   GL264430  37.846  19.759   5.874
 4909POPC   C1A64431  37.483  19.644   6.219
 4909POPC   D2A64432  37.755  19.705   6.568
 4909POPC   C3A64433  37.524  19.699   6.938
 4909POPC   C4A64434  37.758  19.760   7.287
 4909POPC   C1B64435  37.899  20.047   6.199
 4909POPC   C2B64436  38.145  20.143   6.553
 4909POPC   C3B64437  38.002  20.138   6.969
 4909POPC   C4B64438  37.867  20.266   7.374
 4910POPC   NC364439  35.847  27.852   5.130
 4910POPC   PO464440  35.362  28.121   5.580
 4910POPC   GL164441  35.341  27.867   5.942
 4910POPC   GL264442  35.582  27.648   5.918
 4910POPC   C1A64443  35.276  27.687   6.386
 4910POPC   D2A64444  35.131  27.660   6.839
 4910POPC   C3A64445  35.297  27.344   7.141
 4910POPC   C4A64446  35.657  27.398   7.407
 4910POPC   C1B64447  35.749  27.857   6.280
 4910POPC   C2B64448  35.714  27.708   6.672
 4910POPC   C3B64449  35.591  27.764   7.046
 4910POPC   C4B64450  35.737  27.905   7.394
 4911POPC   NC364451  40.974  18.098   5.464
 4911POPC   PO464452  41.624  18.483   5.394
 4911POPC   GL164453  41.429  18.249   5.741
 4911POPC   GL264454  41.354  18.555   5.921
 4911POPC   C1A64455  41.342  18.083   6.181
 4911POPC   D2A64456  41.450  18.179   6.633
 4911POPC   C3A64457  41.386  17.915   6.995
 4911POPC   C4A64458  41.438  18.039   7.419
 4911POPC   C1B64459  41.301  18.596   6.367
 4911POPC   C2B64460  41.257  18.667   6.805
 4911POPC   C3B64461  41.480  18.473   7.136
 4911POPC   C4B64462  41.786  18.479   7.489
 4912POPC   NC364463  29.258   7.480   5.538
 4912POPC   PO464464  28.701   7.765   5.434
 4912POPC   GL164465  28.810   7.597   5.831
 4912POPC   GL264466  28.833   7.221   5.753
 4912POPC   C1A64467  28.959   7.666   6.262
 4912POPC   D2A64468  29.128   7.737   6.692
 4912POPC   C3A64469  29.519   7.540   6.875
 4912POPC   C4A64470  29.484   7.247   7.211
 4912POPC   C1B64471  28.779   7.190   6.191
 4912POPC   C2B64472  28.993   7.069   6.564
 4912POPC   C3B64473  29.047   7.277   6.948
 4912POPC   C4B64474  28.736   7.542   7.167
 4913POPC   NC364475  16.778  38.863   5.375
 4913POPC   PO464476  16.456  38.311   5.234
 4913POPC   GL164477  16.674  38.404   5.639
 4913POPC   GL264478  16.999  38.253   5.757
 4913POPC   C1A64479  16.523  38.311   6.070
 4913POPC   D2A64480  16.380  38.199   6.511
 4913POPC   C3A64481  16.506  38.541   6.802
 4913POPC   C4A64482  16.666  38.834   7.128
 4913POPC   C1B64483  17.165  38.308   6.200
 4913POPC   C2B64484  17.152  38.212   6.661
 4913POPC   C3B64485  16.957  38.429   7.012
 4913POPC   C4B64486  17.083  38.697   7.371
 4914POPC   NC364487  24.130  40.436   5.474
 4914POPC   PO464488  24.642  40.957   5.322
 4914POPC   GL164489  24.567  40.763   5.723
 4914POPC   GL264490  24.689  40.406   5.728
 4914POPC   C1A64491  24.366  40.947   6.108
 4914POPC   D2A64492  24.385  41.124   6.538
 4914POPC   C3A64493  24.704  40.983   6.853
 4914POPC   C4A64494  24.735  40.889   7.321
 4914POPC   C1B64495  24.470  40.456   6.121
 4914POPC   C2B64496  24.397  40.608   6.544
 4914POPC   C3B64497  24.367  40.631   7.005
 4914POPC   C4B64498  24.473  40.410   7.364
 4915POPC   NC364499  35.180  28.526   5.447
 4915POPC   PO464500  35.791  28.293   5.269
 4915POPC   GL164501  35.616  28.511   5.731
 4915POPC   GL264502  35.636  28.290   6.020
 4915POPC   C1A64503  35.318  28.671   6.096
 4915POPC   D2A64504  35.428  28.632   6.566
 4915POPC   C3A64505  35.207  28.594   6.977
 4915POPC   C4A64506  35.411  28.594   7.406
 4915POPC   C1B64507  35.357  28.192   6.331
 4915POPC   C2B64508  35.322  28.132   6.763
 4915POPC   C3B64509  35.264  28.113   7.210
 4915POPC   C4B64510  35.255  27.736   7.478
 4916POPC   NC364511   4.293  10.705   5.427
 4916POPC   PO464512   4.472  10.034   5.432
 4916POPC   GL164513   4.318  10.238   5.848
 4916POPC   GL264514   4.275  10.621   5.914
 4916POPC   C1A64515   4.308  10.294   6.324
 4916POPC   D2A64516   4.151  10.426   6.724
 4916POPC   C3A64517   4.398  10.250   7.048
 4916POPC   C4A64518   4.508  10.440   7.462
 4916POPC   C1B64519   4.246  10.791   6.319
 4916POPC   C2B64520   4.562  10.722   6.647
 4916POPC   C3B64521   4.422  10.766   7.057
 4916POPC   C4B64522   4.006  10.920   7.100
 4917POPC   NC364523  23.945  22.111   4.994
 4917POPC   PO464524  23.589  22.558   5.298
 4917POPC   GL164525  23.676  22.420   5.786
 4917POPC   GL264526  23.524  22.081   5.824
 4917POPC   C1A64527  23.735  22.384   6.282
 4917POPC   D2A64528  23.630  22.528   6.730
 4917POPC   C3A64529  23.714  22.249   7.093
 4917POPC   C4A64530  24.073  22.167   7.367
 4917POPC   C1B64531  23.276  22.202   6.196
 4917POPC   C2B64532  23.200  22.191   6.633
 4917POPC   C3B64533  23.261  21.965   7.011
 4917POPC   C4B64534  23.419  21.941   7.402
 4918POPC   NC364535  37.103  25.291   5.421
 4918POPC   PO464536  36.579  24.825   5.336
 4918POPC   GL164537  36.764  25.087   5.730
 4918POPC   GL264538  37.106  24.960   5.811
 4918POPC   C1A64539  37.018  25.382   6.084
 4918POPC   D2A64540  37.101  25.630   6.483
 4918POPC   C3A64541  36.968  25.524   6.912
 4918POPC   C4A64542  36.724  25.444   7.285
 4918POPC   C1B64543  37.006  24.915   6.268
 4918POPC   C2B64544  37.055  25.058   6.699
 4918POPC   C3B64545  37.033  25.034   7.154
 4918POPC   C4B64546  36.720  24.948   7.496
 4919POPC   NC364547  17.793  35.763   4.999
 4919POPC   PO464548  17.228  35.638   5.282
 4919POPC   GL164549  17.039  35.399   5.649
 4919POPC   GL264550  17.137  35.637   5.836
 4919POPC   C1A64551  17.123  35.195   6.113
 4919POPC   D2A64552  17.316  35.287   6.547
 4919POPC   C3A64553  17.594  35.135   6.887
 4919POPC   C4A64554  17.365  35.046   7.259
 4919POPC   C1B64555  17.453  35.629   6.190
 4919POPC   C2B64556  17.714  35.602   6.580
 4919POPC   C3B64557  17.565  35.626   7.000
 4919POPC   C4B64558  17.459  35.659   7.435
 4920POPC   NC364559   4.369  12.537   5.453
 4920POPC   PO464560   4.820  12.135   5.288
 4920POPC   GL164561   4.568  12.104   5.696
 4920POPC   GL264562   4.202  12.025   5.798
 4920POPC   C1A64563   4.568  12.112   6.159
 4920POPC   D2A64564   4.621  11.866   6.532
 4920POPC   C3A64565   4.393  11.984   6.898
 4920POPC   C4A64566   4.429  12.160   7.304
 4920POPC   C1B64567   4.052  12.029   6.250
 4920POPC   C2B64568   3.925  12.055   6.703
 4920POPC   C3B64569   3.946  12.069   7.159
 4920POPC   C4B64570   3.996  12.175   7.594
 4921POPC   NC364571  39.108  16.953   5.318
 4921POPC   PO464572  38.829  17.644   5.197
 4921POPC   GL164573  39.121  17.364   5.588
 4921POPC   GL264574  38.851  17.237   5.809
 4921POPC   C1A64575  39.248  17.370   6.093
 4921POPC   D2A64576  39.364  17.653   6.471
 4921POPC   C3A64577  39.441  17.487   6.885
 4921POPC   C4A64578  39.554  17.721   7.277
 4921POPC   C1B64579  38.750  17.410   6.265
 4921POPC   C2B64580  38.883  17.583   6.709
 4921POPC   C3B64581  39.011  17.431   7.151
 4921POPC   C4B64582  38.712  17.287   7.520
 4922POPC   NC364583  28.598  30.090   5.342
 4922POPC   PO464584  27.997  29.750   5.493
 4922POPC   GL164585  28.237  30.103   5.722
 4922POPC   GL264586  28.607  30.158   5.840
 4922POPC   C1A64587  28.238  30.254   6.136
 4922POPC   D2A64588  28.200  30.264   6.561
 4922POPC   C3A64589  28.362  29.913   6.806
 4922POPC   C4A64590  28.440  29.947   7.241
 4922POPC   C1B64591  28.609  29.946   6.300
 4922POPC   C2B64592  28.705  29.585   6.603
 4922POPC   C3B64593  28.701  29.557   7.073
 4922POPC   C4B64594  28.733  29.650   7.519
 4923POPC   NC364595  12.802  23.246   5.498
 4923POPC   PO464596  13.168  22.768   5.387
 4923POPC   GL164597  13.052  22.875   5.818
 4923POPC   GL264598  12.665  22.874   5.864
 4923POPC   C1A64599  12.971  22.702   6.235
 4923POPC   D2A64600  12.728  22.835   6.596
 4923POPC   C3A64601  12.899  23.129   6.898
 4923POPC   C4A64602  12.768  23.316   7.294
 4923POPC   C1B64603  12.493  22.543   6.166
 4923POPC   C2B64604  12.468  22.371   6.573
 4923POPC   C3B64605  12.479  22.564   6.987
 4923POPC   C4B64606  12.758  22.807   7.266
 4924POPC   NC364607  15.776  12.813   5.508
 4924POPC   PO464608  16.195  13.303   5.267
 4924POPC   GL164609  16.279  13.013   5.679
 4924POPC   GL264610  16.248  12.644   5.700
 4924POPC   C1A64611  16.045  13.010   6.096
 4924POPC   D2A64612  15.732  12.938   6.444
 4924POPC   C3A64613  15.727  13.054   6.891
 4924POPC   C4A64614  15.729  12.881   7.289
 4924POPC   C1B64615  16.332  12.607   6.150
 4924POPC   C2B64616  16.264  12.908   6.555
 4924POPC   C3B64617  16.242  12.839   7.017
 4924POPC   C4B64618  16.133  12.494   7.309
 4925POPC   NC364619  18.818   7.575   5.278
 4925POPC   PO464620  19.273   7.107   5.521
 4925POPC   GL164621  19.092   7.313   5.848
 4925POPC   GL264622  18.750   7.278   5.745
 4925POPC   C1A64623  18.954   7.298   6.287
 4925POPC   D2A64624  18.805   7.287   6.703
 4925POPC   C3A64625  19.141   7.353   6.978
 4925POPC   C4A64626  19.454   7.101   7.125
 4925POPC   C1B64627  18.714   7.659   6.030
 4925POPC   C2B64628  18.673   7.748   6.493
 4925POPC   C3B64629  18.668   7.721   6.971
 4925POPC   C4B64630  18.794   7.426   7.336
 4926POPC   NC364631  29.431  18.865   5.334
 4926POPC   PO464632  28.805  18.946   5.447
 4926POPC   GL164633  29.140  19.009   5.754
 4926POPC   GL264634  29.339  19.296   5.620
 4926POPC   C1A64635  29.174  18.946   6.222
 4926POPC   D2A64636  28.957  19.012   6.634
 4926POPC   C3A64637  29.103  18.787   6.999
 4926POPC   C4A64638  29.488  18.712   7.169
 4926POPC   C1B64639  29.313  19.425   6.077
 4926POPC   C2B64640  29.408  19.333   6.546
 4926POPC   C3B64641  29.226  19.298   6.978
 4926POPC   C4B64642  28.809  19.374   7.155
 4927POPC   NC364643   5.734  25.416   5.589
 4927POPC   PO464644   6.217  25.095   5.368
 4927POPC   GL164645   5.952  24.966   5.744
 4927POPC   GL264646   6.145  24.707   5.910
 4927POPC   C1A64647   5.711  25.031   6.166
 4927POPC   D2A64648   5.524  25.246   6.555
 4927POPC   C3A64649   5.690  25.224   6.999
 4927POPC   C4A64650   5.756  25.499   7.394
 4927POPC   C1B64651   6.077  24.745   6.369
 4927POPC   C2B64652   6.074  24.994   6.755
 4927POPC   C3B64653   6.163  25.108   7.200
 4927POPC   C4B64654   6.222  24.909   7.618
 4928POPC   NC364655  17.493   5.442   5.548
 4928POPC   PO464656  17.439   4.765   5.433
 4928POPC   GL164657  17.460   4.981   5.804
 4928POPC   GL264658  17.805   4.979   5.790
 4928POPC   C1A64659  17.588   5.136   6.221
 4928POPC   D2A64660  17.358   5.258   6.584
 4928POPC   C3A64661  17.533   5.044   6.914
 4928POPC   C4A64662  17.426   5.059   7.328
 4928POPC   C1B64663  17.900   4.713   6.166
 4928POPC   C2B64664  17.927   4.851   6.588
 4928POPC   C3B64665  17.839   4.641   6.968
 4928POPC   C4B64666  18.017   4.740   7.318
 4929POPC   NC364667  38.670   6.291   5.392
 4929POPC   PO464668  38.165   5.945   5.151
 4929POPC   GL164669  38.383   5.909   5.617
 4929POPC   GL264670  38.531   6.164   5.845
 4929POPC   C1A64671  38.407   5.758   6.067
 4929POPC   D2A64672  38.658   5.652   6.387
 4929POPC   C3A64673  38.557   5.659   6.792
 4929POPC   C4A64674  38.460   5.605   7.182
 4929POPC   C1B64675  38.429   6.246   6.255
 4929POPC   C2B64676  38.313   6.128   6.639
 4929POPC   C3B64677  38.481   6.114   7.048
 4929POPC   C4B64678  38.667   6.216   7.433
 4930POPC   NC364679  33.278   8.492   5.508
 4930POPC   PO464680  32.866   7.943   5.253
 4930POPC   GL164681  33.047   8.055   5.617
 4930POPC   GL264682  32.791   8.076   5.808
 4930POPC   C1A64683  33.230   8.143   6.063
 4930POPC   D2A64684  33.052   8.321   6.444
 4930POPC   C3A64685  33.246   8.260   6.850
 4930POPC   C4A64686  33.349   8.204   7.285
 4930POPC   C1B64687  32.846   7.845   6.210
 4930POPC   C2B64688  33.036   7.819   6.628
 4930POPC   C3B64689  33.038   7.837   7.090
 4930POPC   C4B64690  32.794   8.142   7.380
 4931POPC   NC364691  28.017   7.723   5.577
 4931POPC   PO464692  27.728   8.326   5.320
 4931POPC   GL164693  27.618   8.078   5.690
 4931POPC   GL264694  27.922   8.198   5.835
 4931POPC   C1A64695  27.556   8.004   6.158
 4931POPC   D2A64696  27.296   8.139   6.531
 4931POPC   C3A64697  27.340   8.133   6.989
 4931POPC   C4A64698  27.598   8.377   7.283
 4931POPC   C1B64699  28.062   8.033   6.252
 4931POPC   C2B64700  27.843   8.038   6.685
 4931POPC   C3B64701  27.786   7.885   7.134
 4931POPC   C4B64702  27.859   7.774   7.596
 4932POPC   NC364703  13.481  23.950   5.457
 4932POPC   PO464704  13.897  23.377   5.389
 4932POPC   GL164705  13.726  23.599   5.831
 4932POPC   GL264706  13.717  23.957   5.914
 4932POPC   C1A64707  13.710  23.693   6.340
 4932POPC   D2A64708  13.523  23.519   6.723
 4932POPC   C3A64709  13.770  23.478   7.075
 4932POPC   C4A64710  13.986  23.786   7.293
 4932POPC   C1B64711  13.284  23.897   6.123
 4932POPC   C2B64712  13.208  23.951   6.564
 4932POPC   C3B64713  13.495  23.995   6.914
 4932POPC   C4B64714  13.429  23.806   7.301
 4933POPC   NC364715   9.328  32.576   5.530
 4933POPC   PO464716  10.066  32.504   5.528
 4933POPC   GL164717   9.749  32.339   5.812
 4933POPC   GL264718   9.574  32.046   5.681
 4933POPC   C1A64719   9.657  32.523   6.214
 4933POPC   D2A64720   9.804  32.675   6.602
 4933POPC   C3A64721   9.943  32.377   6.885
 4933POPC   C4A64722   9.790  32.424   7.302
 4933POPC   C1B64723   9.380  32.093   6.114
 4933POPC   C2B64724   9.544  32.156   6.566
 4933POPC   C3B64725   9.534  32.091   7.035
 4933POPC   C4B64726   9.579  32.012   7.523
 4934POPC   NC364727  10.185  32.875   5.270
 4934POPC   PO464728   9.702  33.305   5.183
 4934POPC   GL164729   9.831  33.258   5.662
 4934POPC   GL264730   9.539  33.452   5.781
 4934POPC   C1A64731   9.846  33.109   6.169
 4934POPC   D2A64732   9.983  33.171   6.671
 4934POPC   C3A64733  10.025  32.863   7.068
 4934POPC   C4A64734   9.849  32.875   7.509
 4934POPC   C1B64735   9.345  33.320   6.179
 4934POPC   C2B64736   9.480  33.066   6.550
 4934POPC   C3B64737   9.544  33.042   6.986
 4934POPC   C4B64738   9.298  33.317   7.228
 4935POPC   NC364739  38.392  19.095   5.392
 4935POPC   PO464740  39.038  19.265   5.336
 4935POPC   GL164741  38.727  19.139   5.772
 4935POPC   GL264742  38.616  18.775   5.805
 4935POPC   C1A64743  38.382  19.188   6.151
 4935POPC   D2A64744  38.320  18.921   6.582
 4935POPC   C3A64745  38.340  19.137   7.061
 4935POPC   C4A64746  38.160  19.410   7.452
 4935POPC   C1B64747  38.763  18.886   6.239
 4935POPC   C2B64748  38.781  19.147   6.602
 4935POPC   C3B64749  38.863  18.980   7.006
 4935POPC   C4B64750  38.727  18.743   7.355
 4936POPC   NC364751   5.222  11.051   5.565
 4936POPC   PO464752   4.930  11.631   5.480
 4936POPC   GL164753   4.943  11.458   5.860
 4936POPC   GL264754   5.257  11.323   6.008
 4936POPC   C1A64755   4.849  11.478   6.280
 4936POPC   D2A64756   5.166  11.389   6.552
 4936POPC   C3A64757   5.102  11.529   6.950
 4936POPC   C4A64758   4.879  11.268   7.171
 4936POPC   C1B64759   5.269  10.966   6.265
 4936POPC   C2B64760   5.316  10.906   6.719
 4936POPC   C3B64761   5.196  10.877   7.141
 4936POPC   C4B64762   5.352  10.912   7.557
 4937POPC   NC364763  21.090  40.142   5.358
 4937POPC   PO464764  21.740  40.345   5.395
 4937POPC   GL164765  21.558  40.157   5.811
 4937POPC   GL264766  21.179  40.159   5.848
 4937POPC   C1A64767  21.448  39.923   6.220
 4937POPC   D2A64768  21.166  39.806   6.573
 4937POPC   C3A64769  21.272  39.865   7.012
 4937POPC   C4A64770  21.600  40.046   7.273
 4937POPC   C1B64771  21.181  40.355   6.238
 4937POPC   C2B64772  21.377  40.289   6.632
 4937POPC   C3B64773  21.206  40.375   7.030
 4937POPC   C4B64774  21.240  40.388   7.456
 4938POPC   NC364775  19.149  24.383   5.397
 4938POPC   PO464776  19.527  24.998   5.464
 4938POPC   GL164777  19.142  24.777   5.709
 4938POPC   GL264778  19.164  24.434   5.898
 4938POPC   C1A64779  18.907  24.802   6.122
 4938POPC   D2A64780  19.040  24.560   6.494
 4938POPC   C3A64781  18.993  24.654   6.927
 4938POPC   C4A64782  18.658  24.598   7.235
 4938POPC   C1B64783  19.107  24.125   6.251
 4938POPC   C2B64784  19.073  24.050   6.717
 4938POPC   C3B64785  19.085  24.190   7.158
 4938POPC   C4B64786  19.339  24.166   7.577
 4939POPC   NC364787   3.202   6.094   5.365
 4939POPC   PO464788   3.846   5.948   5.305
 4939POPC   GL164789   3.549   5.786   5.632
 4939POPC   GL264790   3.361   5.486   5.531
 4939POPC   C1A64791   3.515   5.928   6.072
 4939POPC   D2A64792   3.450   6.163   6.468
 4939POPC   C3A64793   3.522   6.004   6.868
 4939POPC   C4A64794   3.550   6.150   7.288
 4939POPC   C1B64795   3.234   5.496   5.981
 4939POPC   C2B64796   3.226   5.666   6.437
 4939POPC   C3B64797   3.278   5.531   6.856
 4939POPC   C4B64798   3.572   5.593   7.227
 4940POPC   NC364799  27.388   5.108   5.469
 4940POPC   PO464800  26.812   5.240   5.416
 4940POPC   GL164801  26.944   4.986   5.773
 4940POPC   GL264802  27.256   5.074   5.959
 4940POPC   C1A64803  26.847   4.902   6.224
 4940POPC   D2A64804  26.761   5.137   6.622
 4940POPC   C3A64805  26.702   4.987   7.070
 4940POPC   C4A64806  26.473   4.933   7.478
 4940POPC   C1B64807  27.232   5.227   6.396
 4940POPC   C2B64808  27.079   5.520   6.706
 4940POPC   C3B64809  26.984   5.413   7.116
 4940POPC   C4B64810  26.927   5.225   7.500
 4941POPC   NC364811  19.055  12.323   5.462
 4941POPC   PO464812  19.328  11.719   5.149
 4941POPC   GL164813  19.164  11.736   5.742
 4941POPC   GL264814  18.884  11.996   5.810
 4941POPC   C1A64815  19.106  11.857   6.231
 4941POPC   D2A64816  19.108  12.166   6.585
 4941POPC   C3A64817  19.159  12.042   7.043
 4941POPC   C4A64818  19.149  12.180   7.519
 4941POPC   C1B64819  18.867  12.370   6.102
 4941POPC   C2B64820  18.659  12.440   6.509
 4941POPC   C3B64821  18.727  12.329   6.933
 4941POPC   C4B64822  18.705  12.065   7.304
 4942POPC   NC364823  17.242   3.011   5.392
 4942POPC   PO464824  17.643   2.500   5.415
 4942POPC   GL164825  17.587   2.766   5.782
 4942POPC   GL264826  17.900   2.970   5.840
 4942POPC   C1A64827  17.432   2.563   6.159
 4942POPC   D2A64828  17.283   2.371   6.561
 4942POPC   C3A64829  17.483   2.557   6.918
 4942POPC   C4A64830  17.419   2.736   7.311
 4942POPC   C1B64831  17.788   2.918   6.284
 4942POPC   C2B64832  17.786   2.939   6.746
 4942POPC   C3B64833  17.744   3.062   7.168
 4942POPC   C4B64834  17.800   2.973   7.634
 4943POPC   NC364835  23.787  31.673   5.276
 4943POPC   PO464836  23.856  31.135   5.607
 4943POPC   GL164837  23.784  31.413   5.847
 4943POPC   GL264838  23.479  31.506   5.770
 4943POPC   C1A64839  23.826  31.304   6.250
 4943POPC   D2A64840  23.947  31.492   6.578
 4943POPC   C3A64841  23.789  31.300   6.925
 4943POPC   C4A64842  23.928  31.244   7.325
 4943POPC   C1B64843  23.315  31.440   6.168
 4943POPC   C2B64844  23.438  31.431   6.563
 4943POPC   C3B64845  23.401  31.651   6.897
 4943POPC   C4B64846  23.533  31.563   7.288
 4944POPC   NC364847  33.047  21.774   5.312
 4944POPC   PO464848  32.692  21.223   5.403
 4944POPC   GL164849  32.859  21.313   5.789
 4944POPC   GL264850  33.162  21.513   5.767
 4944POPC   C1A64851  33.014  21.076   6.161
 4944POPC   D2A64852  33.272  21.045   6.536
 4944POPC   C3A64853  33.046  21.044   6.896
 4944POPC   C4A64854  33.044  21.321   7.203
 4944POPC   C1B64855  32.997  21.578   6.211
 4944POPC   C2B64856  33.053  21.514   6.667
 4944POPC   C3B64857  33.147  21.789   7.042
 4944POPC   C4B64858  32.918  21.768   7.428
 4945POPC   NC364859  28.763   9.139   5.509
 4945POPC   PO464860  29.191   8.575   5.409
 4945POPC   GL164861  29.211   8.936   5.731
 4945POPC   GL264862  28.921   8.892   5.915
 4945POPC   C1A64863  29.152   9.283   6.107
 4945POPC   D2A64864  29.350   9.281   6.540
 4945POPC   C3A64865  29.288   9.221   7.008
 4945POPC   C4A64866  29.151   9.079   7.444
 4945POPC   C1B64867  29.234   8.808   6.267
 4945POPC   C2B64868  29.177   8.793   6.699
 4945POPC   C3B64869  29.184   8.698   7.125
 4945POPC   C4B64870  28.820   8.706   7.475
 4946POPC   NC364871  37.505  32.097   5.473
 4946POPC   PO464872  37.937  32.611   5.183
 4946POPC   GL164873  37.865  32.419   5.661
 4946POPC   GL264874  37.830  32.094   5.843
 4946POPC   C1A64875  37.601  32.471   6.088
 4946POPC   D2A64876  37.489  32.733   6.474
 4946POPC   C3A64877  37.633  32.533   6.885
 4946POPC   C4A64878  37.440  32.452   7.289
 4946POPC   C1B64879  37.650  31.952   6.194
 4946POPC   C2B64880  37.870  32.061   6.549
 4946POPC   C3B64881  37.735  32.015   6.949
 4946POPC   C4B64882  37.914  32.202   7.294
 4947POPC   NC364883  16.755  25.280   5.384
 4947POPC   PO464884  16.246  24.894   5.449
 4947POPC   GL164885  16.323  25.071   5.845
 4947POPC   GL264886  16.452  25.420   5.847
 4947POPC   C1A64887  16.484  25.076   6.279
 4947POPC   D2A64888  16.396  25.406   6.588
 4947POPC   C3A64889  16.601  25.360   6.967
 4947POPC   C4A64890  16.708  25.641   7.291
 4947POPC   C1B64891  16.776  25.493   6.200
 4947POPC   C2B64892  16.926  25.294   6.555
 4947POPC   C3B64893  17.126  25.433   6.928
 4947POPC   C4B64894  17.201  25.565   7.325
 4948POPC   NC364895  43.461  15.347   5.186
 4948POPC   PO464896  43.041  14.934   5.177
 4948POPC   GL164897  43.063  15.158   5.633
 4948POPC   GL264898  43.372  15.288   5.753
 4948POPC   C1A64899  42.820  15.293   6.006
 4948POPC   D2A64900  42.789  15.251   6.495
 4948POPC   C3A64901  42.965  15.465   6.874
 4948POPC   C4A64902  42.924  15.396   7.327
 4948POPC   C1B64903  43.271  15.164   6.215
 4948POPC   C2B64904  43.247  15.076   6.690
 4948POPC   C3B64905  43.101  14.961   7.129
 4948POPC   C4B64906  43.111  14.677   7.524
 4949POPC   NC364907  38.252  15.384   5.426
 4949POPC   PO464908  38.738  14.900   5.416
 4949POPC   GL164909  38.593  14.991   5.821
 4949POPC   GL264910  38.245  15.000   5.836
 4949POPC   C1A64911  38.486  15.292   6.172
 4949POPC   D2A64912  38.583  15.383   6.600
 4949POPC   C3A64913  38.315  15.377   6.927
 4949POPC   C4A64914  38.522  15.418   7.270
 4949POPC   C1B64915  38.355  14.788   6.245
 4949POPC   C2B64916  38.351  14.876   6.704
 4949POPC   C3B64917  38.497  14.902   7.142
 4949POPC   C4B64918  38.871  15.023   7.381
 4950POPC   NC364919  25.560   0.598   5.506
 4950POPC   PO464920  24.838   0.466   5.480
 4950POPC   GL164921  25.031   0.515   5.865
 4950POPC   GL264922  25.238   0.308   5.762
 4950POPC   C1A64923  25.056   0.442   6.324
 4950POPC   D2A64924  25.027   0.372   6.758
 4950POPC   C3A64925  25.105   0.690   7.075
 4950POPC   C4A64926  24.739   0.886   7.202
 4950POPC   C1B64927  25.440   0.198   6.110
 4950POPC   C2B64928  25.408   0.104   6.536
 4950POPC   C3B64929  25.504   0.271   6.950
 4950POPC   C4B64930  25.190   0.202   7.211
 4951POPC   NC364931  26.960  26.855   5.451
 4951POPC   PO464932  26.462  26.313   5.482
 4951POPC   GL164933  26.610  26.619   5.795
 4951POPC   GL264934  26.599  26.979   5.808
 4951POPC   C1A64935  26.852  26.720   6.164
 4951POPC   D2A64936  26.788  26.947   6.533
 4951POPC   C3A64937  26.947  26.736   6.886
 4951POPC   C4A64938  26.790  26.721   7.299
 4951POPC   C1B64939  26.459  27.213   6.168
 4951POPC   C2B64940  26.403  27.307   6.594
 4951POPC   C3B64941  26.619  27.177   6.969
 4951POPC   C4B64942  26.619  27.179   7.419
 4952POPC   NC364943  11.796  21.057   5.285
 4952POPC   PO464944  12.452  21.258   5.416
 4952POPC   GL164945  12.287  21.260   5.814
 4952POPC   GL264946  11.935  21.245   5.736
 4952POPC   C1A64947  12.396  21.210   6.251
 4952POPC   D2A64948  12.367  21.473   6.612
 4952POPC   C3A64949  12.279  21.291   7.008
 4952POPC   C4A64950  12.140  21.425   7.400
 4952POPC   C1B64951  11.887  21.386   6.148
 4952POPC   C2B64952  11.962  21.184   6.520
 4952POPC   C3B64953  11.792  21.199   6.901
 4952POPC   C4B64954  11.640  21.260   7.278
 4953POPC   NC364955  12.667   3.051   5.239
 4953POPC   PO464956  12.505   2.469   5.523
 4953POPC   GL164957  12.686   2.817   5.714
 4953POPC   GL264958  13.015   2.710   5.800
 4953POPC   C1A64959  12.827   3.075   6.072
 4953POPC   D2A64960  13.032   2.917   6.420
 4953POPC   C3A64961  12.801   2.847   6.792
 4953POPC   C4A64962  12.856   2.840   7.241
 4953POPC   C1B64963  13.151   2.480   6.145
 4953POPC   C2B64964  12.975   2.407   6.539
 4953POPC   C3B64965  13.156   2.511   6.936
 4953POPC   C4B64966  13.437   2.301   7.188
 4954POPC   NC364967  43.210  17.011   5.427
 4954POPC   PO464968  42.770  16.532   5.585
 4954POPC   GL164969  43.061  16.705   5.880
 4954POPC   GL264970  43.011  17.054   5.881
 4954POPC   C1A64971  43.106  16.821   6.318
 4954POPC   D2A64972  43.001  16.875   6.719
 4954POPC   C3A64973  43.273  16.856   7.040
 4954POPC   C4A64974  42.968  16.947   7.299
 4954POPC   C1B64975  43.128  17.326   6.218
 4954POPC   C2B64976  43.297  17.276   6.588
 4954POPC   C3B64977  43.098  17.318   6.959
 4954POPC   C4B64978  43.378  17.295   7.315
 4955POPC   NC364979  43.421  36.259   5.436
 4955POPC   PO464980  42.747  36.104   5.510
 4955POPC   GL164981  43.102  36.022   5.764
 4955POPC   GL264982  43.083  36.362   5.906
 4955POPC   C1A64983  43.156  35.876   6.167
 4955POPC   D2A64984  42.927  35.888   6.554
 4955POPC   C3A64985  43.144  36.077   6.879
 4955POPC   C4A64986  43.194  35.997   7.293
 4955POPC   C1B64987  43.017  36.364   6.374
 4955POPC   C2B64988  42.902  36.537   6.793
 4955POPC   C3B64989  42.936  36.424   7.213
 4955POPC   C4B64990  42.977  36.486   7.668
 4956POPC   NC364991  31.141  31.958   5.423
 4956POPC   PO464992  31.680  32.336   5.279
 4956POPC   GL164993  31.559  32.194   5.689
 4956POPC   GL264994  31.527  31.851   5.738
 4956POPC   C1A64995  31.487  32.311   6.119
 4956POPC   D2A64996  31.532  32.592   6.494
 4956POPC   C3A64997  31.325  32.414   6.862
 4956POPC   C4A64998  31.421  32.316   7.290
 4956POPC   C1B64999  31.602  31.799   6.174
 4956POPC   C2B65000  31.722  32.059   6.517
 4956POPC   C3B65001  31.636  31.988   6.935
 4956POPC   C4B65002  31.817  31.994   7.329
 4957POPC   NC365003   3.886  17.046   5.522
 4957POPC   PO465004   3.364  16.743   5.261
 4957POPC   GL165005   3.342  16.676   5.746
 4957POPC   GL265006   3.126  16.432   5.868
 4957POPC   C1A65007   3.582  16.779   6.179
 4957POPC   D2A65008   3.839  16.971   6.538
 4957POPC   C3A65009   3.665  16.945   6.963
 4957POPC   C4A65010   3.769  16.780   7.399
 4957POPC   C1B65011   3.068  16.774   6.180
 4957POPC   C2B65012   3.242  16.848   6.601
 4957POPC   C3B65013   3.274  16.601   6.990
 4957POPC   C4B65014   3.246  16.798   7.384
 4958POPC   NC365015  36.000  28.663   5.448
 4958POPC   PO465016  36.339  28.029   5.545
 4958POPC   GL165017  36.413  28.431   5.748
 4958POPC   GL265018  36.105  28.431   5.884
 4958POPC   C1A65019  36.473  28.624   6.173
 4958POPC   D2A65020  36.514  28.326   6.538
 4958POPC   C3A65021  36.277  28.335   6.947
 4958POPC   C4A65022  36.206  28.084   7.324
 4958POPC   C1B65023  36.071  28.289   6.298
 4958POPC   C2B65024  35.804  28.238   6.627
 4958POPC   C3B65025  35.732  28.285   7.043
 4958POPC   C4B65026  35.927  28.498   7.343
 4959POPC   NC365027  12.470  16.367   5.271
 4959POPC   PO465028  13.149  16.495   5.266
 4959POPC   GL165029  12.882  16.579   5.686
 4959POPC   GL265030  12.567  16.820   5.697
 4959POPC   C1A65031  12.854  16.680   6.170
 4959POPC   D2A65032  12.755  16.591   6.640
 4959POPC   C3A65033  13.012  16.720   7.002
 4959POPC   C4A65034  13.031  16.541   7.413
 4959POPC   C1B65035  12.565  17.085   6.095
 4959POPC   C2B65036  12.611  17.068   6.533
 4959POPC   C3B65037  12.640  17.059   6.976
 4959POPC   C4B65038  12.868  17.031   7.386
 4960POPC   NC365039  44.845   0.551   5.279
 4960POPC   PO465040  44.186   0.387   5.194
 4960POPC   GL165041  44.412   0.480   5.626
 4960POPC   GL265042  44.775   0.433   5.768
 4960POPC   C1A65043  44.422   0.513   6.112
 4960POPC   D2A65044  44.459   0.408   6.557
 4960POPC   C3A65045  44.462   0.714   6.897
 4960POPC   C4A65046  44.514   0.666   7.337
 4960POPC   C1B65047  44.843   0.254   6.226
 4960POPC   C2B65048  44.947   0.319   6.692
 4960POPC   C3B65049  44.673   0.224   7.077
 4960POPC   C4B65050  44.646  44.923   7.448
 4961POPC   NC365051   6.636  23.616   5.405
 4961POPC   PO465052   6.728  24.270   5.608
 4961POPC   GL165053   6.555  23.931   5.847
 4961POPC   GL265054   6.737  23.632   5.892
 4961POPC   C1A65055   6.303  23.799   6.225
 4961POPC   D2A65056   6.292  23.952   6.663
 4961POPC   C3A65057   6.390  23.737   7.056
 4961POPC   C4A65058   6.414  23.941   7.445
 4961POPC   C1B65059   6.609  23.387   6.251
 4961POPC   C2B65060   6.699  23.563   6.652
 4961POPC   C3B65061   6.983  23.650   6.997
 4961POPC   C4B65062   6.866  23.660   7.432
 4962POPC   NC365063  22.607   9.967   5.578
 4962POPC   PO465064  23.087   9.564   5.360
 4962POPC   GL165065  23.134   9.691   5.807
 4962POPC   GL265066  23.004  10.030   5.884
 4962POPC   C1A65067  22.994   9.706   6.270
 4962POPC   D2A65068  22.844   9.762   6.701
 4962POPC   C3A65069  22.929   9.462   7.068
 4962POPC   C4A65070  23.043   9.411   7.541
 4962POPC   C1B65071  22.732  10.167   6.266
 4962POPC   C2B65072  22.753  10.260   6.722
 4962POPC   C3B65073  23.138  10.076   6.959
 4962POPC   C4B65074  23.084   9.870   7.351
 4963POPC   NC365075  39.086  42.494   5.459
 4963POPC   PO465076  39.866  42.522   5.493
 4963POPC   GL165077  39.497  42.391   5.787
 4963POPC   GL265078  39.188  42.151   5.810
 4963POPC   C1A65079  39.329  42.392   6.221
 4963POPC   D2A65080  39.145  42.481   6.596
 4963POPC   C3A65081  39.435  42.519   6.921
 4963POPC   C4A65082  39.184  42.612   7.272
 4963POPC   C1B65083  38.982  41.986   6.167
 4963POPC   C2B65084  39.115  41.949   6.571
 4963POPC   C3B65085  39.120  42.120   6.985
 4963POPC   C4B65086  38.898  41.935   7.350
 4964POPC   NC365087  36.783  18.743   5.419
 4964POPC   PO465088  37.340  19.159   5.519
 4964POPC   GL165089  36.975  19.143   5.717
 4964POPC   GL265090  37.093  19.414   5.912
 4964POPC   C1A65091  36.787  18.990   6.077
 4964POPC   D2A65092  36.893  18.967   6.505
 4964POPC   C3A65093  36.763  18.800   6.881
 4964POPC   C4A65094  36.971  18.826   7.258
 4964POPC   C1B65095  36.945  19.445   6.315
 4964POPC   C2B65096  37.166  19.392   6.684
 4964POPC   C3B65097  36.970  19.287   7.051
 4964POPC   C4B65098  36.552  19.173   7.190
 4965POPC   NC365099   1.633  35.308   5.159
 4965POPC   PO465100   0.970  35.376   5.282
 4965POPC   GL165101   1.158  35.507   5.693
 4965POPC   GL265102   1.132  35.154   5.749
 4965POPC   C1A65103   1.318  35.423   6.144
 4965POPC   D2A65104   1.368  35.609   6.573
 4965POPC   C3A65105   1.099  35.641   6.931
 4965POPC   C4A65106   1.392  35.521   7.213
 4965POPC   C1B65107   0.956  35.044   6.145
 4965POPC   C2B65108   1.046  35.203   6.563
 4965POPC   C3B65109   1.160  35.133   6.980
 4965POPC   C4B65110   1.019  35.005   7.386
 4966POPC   NC365111  16.920  29.099   5.462
 4966POPC   PO465112  16.386  29.481   5.327
 4966POPC   GL165113  16.510  29.253   5.703
 4966POPC   GL265114  16.772  29.467   5.807
 4966POPC   C1A65115  16.670  28.994   6.100
 4966POPC   D2A65116  16.793  28.824   6.516
 4966POPC   C3A65117  16.713  29.062   6.898
 4966POPC   C4A65118  16.872  29.078   7.308
 4966POPC   C1B65119  16.940  29.457   6.204
 4966POPC   C2B65120  16.758  29.557   6.586
 4966POPC   C3B65121  16.504  29.560   6.934
 4966POPC   C4B65122  16.664  29.553   7.333
 4967POPC   NC365123  37.800  21.523   5.320
 4967POPC   PO465124  37.360  20.962   5.455
 4967POPC   GL165125  37.603  21.240   5.781
 4967POPC   GL265126  37.686  21.633   5.798
 4967POPC   C1A65127  37.660  21.055   6.217
 4967POPC   D2A65128  37.370  21.028   6.577
 4967POPC   C3A65129  37.548  21.127   6.992
 4967POPC   C4A65130  37.419  21.507   7.186
 4967POPC   C1B65131  37.871  21.515   6.198
 4967POPC   C2B65132  37.835  21.353   6.627
 4967POPC   C3B65133  37.911  21.595   7.020
 4967POPC   C4B65134  37.768  21.806   7.405
 4968POPC   NC365135   2.079  41.460   5.286
 4968POPC   PO465136   1.752  42.003   5.212
 4968POPC   GL165137   1.938  41.812   5.654
 4968POPC   GL265138   1.827  41.475   5.739
 4968POPC   C1A65139   2.179  41.691   6.075
 4968POPC   D2A65140   2.193  41.569   6.532
 4968POPC   C3A65141   1.895  41.736   6.857
 4968POPC   C4A65142   1.904  41.889   7.285
 4968POPC   C1B65143   1.714  41.466   6.178
 4968POPC   C2B65144   1.711  41.285   6.594
 4968POPC   C3B65145   2.006  41.236   6.930
 4968POPC   C4B65146   2.180  41.434   7.275
 4969POPC   NC365147  33.747  22.101   5.434
 4969POPC   PO465148  34.334  21.802   5.397
 4969POPC   GL165149  34.106  21.748   5.769
 4969POPC   GL265150  33.750  21.742   5.812
 4969POPC   C1A65151  34.061  21.974   6.121
 4969POPC   D2A65152  33.841  21.955   6.450
 4969POPC   C3A65153  34.055  22.116   6.786
 4969POPC   C4A65154  33.919  22.375   7.140
 4969POPC   C1B65155  33.457  21.768   6.134
 4969POPC   C2B65156  33.352  21.910   6.558
 4969POPC   C3B65157  33.629  21.869   6.917
 4969POPC   C4B65158  33.577  21.906   7.363
 4970POPC   NC365159  36.832  11.834   5.501
 4970POPC   PO465160  37.270  12.480   5.396
 4970POPC   GL165161  37.032  12.346   5.797
 4970POPC   GL265162  36.717  12.358   5.764
 4970POPC   C1A65163  36.956  12.095   6.216
 4970POPC   D2A65164  37.069  11.898   6.600
 4970POPC   C3A65165  36.957  12.242   6.852
 4970POPC   C4A65166  36.893  12.210   7.286
 4970POPC   C1B65167  36.627  12.468   6.147
 4970POPC   C2B65168  36.524  12.290   6.530
 4970POPC   C3B65169  36.438  12.431   6.927
 4970POPC   C4B65170  36.406  12.247   7.301
 4971POPC   NC365171   9.345  17.748   5.179
 4971POPC   PO465172   9.998  17.778   5.270
 4971POPC   GL165173   9.806  17.767   5.716
 4971POPC   GL265174   9.521  17.515   5.733
 4971POPC   C1A65175   9.836  17.630   6.172
 4971POPC   D2A65176   9.598  17.621   6.571
 4971POPC   C3A65177   9.847  17.552   6.946
 4971POPC   C4A65178   9.822  17.751   7.335
 4971POPC   C1B65179   9.523  17.192   6.086
 4971POPC   C2B65180   9.593  17.112   6.514
 4971POPC   C3B65181   9.535  17.109   6.957
 4971POPC   C4B65182   9.925  17.047   7.133
 4972POPC   NC365183   7.696   8.035   5.395
 4972POPC   PO465184   8.151   8.467   5.111
 4972POPC   GL165185   8.227   8.399   5.641
 4972POPC   GL265186   7.966   8.205   5.834
 4972POPC   C1A65187   8.371   8.263   6.100
 4972POPC   D2A65188   8.075   8.158   6.439
 4972POPC   C3A65189   8.173   8.142   6.901
 4972POPC   C4A65190   8.303   8.199   7.352
 4972POPC   C1B65191   7.989   8.586   6.177
 4972POPC   C2B65192   7.952   8.601   6.658
 4972POPC   C3B65193   8.096   8.614   7.101
 4972POPC   C4B65194   7.988   8.566   7.549
 4973POPC   NC365195   9.324  43.311   4.991
 4973POPC   PO465196   9.775  42.978   5.304
 4973POPC   GL165197   9.779  42.895   5.730
 4973POPC   GL265198   9.465  42.723   5.665
 4973POPC   C1A65199   9.876  43.107   6.147
 4973POPC   D2A65200  10.105  43.205   6.555
 4973POPC   C3A65201   9.846  43.104   6.932
 4973POPC   C4A65202   9.538  43.337   7.199
 4973POPC   C1B65203   9.373  42.938   6.049
 4973POPC   C2B65204   9.438  42.955   6.493
 4973POPC   C3B65205   9.327  42.972   6.920
 4973POPC   C4B65206   9.560  42.822   7.297
 4974POPC   NC365207   0.741  21.504   5.245
 4974POPC   PO465208   1.348  21.342   5.479
 4974POPC   GL165209   1.031  21.240   5.769
 4974POPC   GL265210   0.880  21.573   5.870
 4974POPC   C1A65211   0.972  21.196   6.218
 4974POPC   D2A65212   1.141  21.231   6.641
 4974POPC   C3A65213   1.161  21.370   7.082
 4974POPC   C4A65214   1.517  21.575   7.254
 4974POPC   C1B65215   0.700  21.623   6.317
 4974POPC   C2B65216   0.790  21.621   6.777
 4974POPC   C3B65217   0.972  21.836   7.181
 4974POPC   C4B65218   1.106  21.626   7.582
 4975POPC   NC365219  28.669  41.104   5.466
 4975POPC   PO465220  28.266  40.477   5.511
 4975POPC   GL165221  28.222  40.584   5.932
 4975POPC   GL265222  28.432  40.871   5.863
 4975POPC   C1A65223  28.361  40.703   6.361
 4975POPC   D2A65224  28.586  40.623   6.744
 4975POPC   C3A65225  28.277  40.513   7.084
 4975POPC   C4A65226  28.025  40.750   7.395
 4975POPC   C1B65227  28.415  41.191   6.163
 4975POPC   C2B65228  28.243  41.188   6.567
 4975POPC   C3B65229  28.338  41.023   6.974
 4975POPC   C4B65230  28.506  41.195   7.324
 4976POPC   NC365231  30.144  11.828   5.353
 4976POPC   PO465232  29.909  12.422   5.117
 4976POPC   GL165233  29.960  12.232   5.584
 4976POPC   GL265234  29.773  12.447   5.764
 4976POPC   C1A65235  30.022  12.034   6.020
 4976POPC   D2A65236  30.139  12.056   6.476
 4976POPC   C3A65237  29.838  11.881   6.801
 4976POPC   C4A65238  29.669  11.898   7.239
 4976POPC   C1B65239  29.634  12.313   6.163
 4976POPC   C2B65240  29.783  12.468   6.512
 4976POPC   C3B65241  29.746  12.384   6.901
 4976POPC   C4B65242  30.013  12.312   7.212
 4977POPC   NC365243   3.775  42.612   5.429
 4977POPC   PO465244   3.316  42.129   5.348
 4977POPC   GL165245   3.381  42.267   5.731
 4977POPC   GL265246   3.533  42.008   5.903
 4977POPC   C1A65247   3.242  42.437   6.139
 4977POPC   D2A65248   3.317  42.510   6.572
 4977POPC   C3A65249   3.608  42.212   6.758
 4977POPC   C4A65250   3.624  42.162   7.188
 4977POPC   C1B65251   3.844  41.864   6.191
 4977POPC   C2B65252   3.960  41.842   6.638
 4977POPC   C3B65253   3.972  41.767   7.093
 4977POPC   C4B65254   3.979  41.968   7.505
 4978POPC   NC365255   0.306   4.704   5.627
 4978POPC   PO465256   0.016   4.067   5.417
 4978POPC   GL165257   0.260   4.105   5.826
 4978POPC   GL265258   0.586   4.294   5.825
 4978POPC   C1A65259   0.266   4.378   6.219
 4978POPC   D2A65260   0.517   4.336   6.587
 4978POPC   C3A65261   0.317   4.367   6.975
 4978POPC   C4A65262   0.284   3.996   7.215
 4978POPC   C1B65263   0.735   4.610   6.166
 4978POPC   C2B65264   0.781   4.765   6.599
 4978POPC   C3B65265   0.909   4.591   7.000
 4978POPC   C4B65266   0.716   4.325   7.308
 4979POPC   NC365267  15.515  14.429   5.361
 4979POPC   PO465268  15.994  13.892   5.327
 4979POPC   GL165269  16.041  14.185   5.703
 4979POPC   GL265270  16.099  13.955   5.959
 4979POPC   C1A65271  15.999  14.429   6.128
 4979POPC   D2A65272  16.125  14.314   6.566
 4979POPC   C3A65273  15.915  14.469   6.951
 4979POPC   C4A65274  16.134  14.746   7.220
 4979POPC   C1B65275  15.817  13.975   6.308
 4979POPC   C2B65276  15.601  14.240   6.608
 4979POPC   C3B65277  15.543  14.108   7.047
 4979POPC   C4B65278  15.761  14.262   7.416
 4980POPC   NC365279  37.040  26.863   5.127
 4980POPC   PO465280  36.816  26.347   5.382
 4980POPC   GL165281  37.018  26.529   5.802
 4980POPC   GL265282  37.153  26.905   5.798
 4980POPC   C1A65283  36.927  26.749   6.234
 4980POPC   D2A65284  36.915  27.019   6.633
 4980POPC   C3A65285  36.578  26.924   6.929
 4980POPC   C4A65286  36.519  26.777   7.349
 4980POPC   C1B65287  37.434  26.775   6.144
 4980POPC   C2B65288  37.344  26.595   6.567
 4980POPC   C3B65289  37.129  26.664   6.970
 4980POPC   C4B65290  36.966  27.032   7.238
 4981POPC   NC365291  44.944   2.324   5.487
 4981POPC   PO465292  44.510   1.806   5.537
 4981POPC   GL165293  44.837   1.946   5.825
 4981POPC   GL265294  44.620   2.213   5.878
 4981POPC   C1A65295   0.010   2.136   6.194
 4981POPC   D2A65296  44.901   1.971   6.601
 4981POPC   C3A65297  44.873   2.198   6.976
 4981POPC   C4A65298  44.992   2.047   7.397
 4981POPC   C1B65299  44.502   2.125   6.284
 4981POPC   C2B65300  44.444   2.348   6.646
 4981POPC   C3B65301  44.367   2.208   7.049
 4981POPC   C4B65302  44.610   2.376   7.389
 4982POPC   NC365303  34.805  20.790   5.340
 4982POPC   PO465304  34.392  20.182   5.534
 4982POPC   GL165305  34.674  20.499   5.770
 4982POPC   GL265306  34.675  20.891   5.812
 4982POPC   C1A65307  34.675  20.585   6.220
 4982POPC   D2A65308  34.490  20.464   6.592
 4982POPC   C3A65309  34.730  20.427   6.954
 4982POPC   C4A65310  34.368  20.444   7.193
 4982POPC   C1B65311  34.395  21.071   6.137
 4982POPC   C2B65312  34.283  21.032   6.552
 4982POPC   C3B65313  34.434  20.881   6.911
 4982POPC   C4B65314  34.621  20.874   7.278
 4983POPC   NC365315  36.950  21.108   5.643
 4983POPC   PO465316  37.307  21.570   5.297
 4983POPC   GL165317  37.186  21.559   5.766
 4983POPC   GL265318  36.885  21.485   5.960
 4983POPC   C1A65319  37.340  21.477   6.214
 4983POPC   D2A65320  37.295  21.526   6.674
 4983POPC   C3A65321  37.005  21.291   6.956
 4983POPC   C4A65322  36.972  21.422   7.413
 4983POPC   C1B65323  36.901  21.215   6.329
 4983POPC   C2B65324  36.588  21.169   6.638
 4983POPC   C3B65325  36.489  21.441   6.948
 4983POPC   C4B65326  36.470  21.329   7.374
 4984POPC   NC365327  16.319  30.517   5.431
 4984POPC   PO465328  16.999  30.250   5.406
 4984POPC   GL165329  16.915  30.517   5.819
 4984POPC   GL265330  16.564  30.621   5.875
 4984POPC   C1A65331  16.836  30.637   6.301
 4984POPC   D2A65332  16.700  30.578   6.717
 4984POPC   C3A65333  16.801  30.953   6.961
 4984POPC   C4A65334  16.782  31.010   7.408
 4984POPC   C1B65335  16.354  30.852   6.243
 4984POPC   C2B65336  16.347  30.956   6.702
 4984POPC   C3B65337  16.336  30.913   7.129
 4984POPC   C4B65338  16.592  30.554   7.234
 4985POPC   NC365339   6.838  42.098   4.995
 4985POPC   PO465340   6.890  42.773   5.237
 4985POPC   GL165341   6.867  42.523   5.643
 4985POPC   GL265342   6.811  42.123   5.632
 4985POPC   C1A65343   6.705  42.684   6.062
 4985POPC   D2A65344   6.510  42.593   6.472
 4985POPC   C3A65345   6.813  42.555   6.822
 4985POPC   C4A65346   6.721  42.562   7.262
 4985POPC   C1B65347   6.873  42.179   6.104
 4985POPC   C2B65348   6.707  42.113   6.542
 4985POPC   C3B65349   6.627  42.101   6.982
 4985POPC   C4B65350   7.050  42.164   7.144
 4986POPC   NC365351  31.035   0.462   5.243
 4986POPC   PO465352  30.306   0.246   5.199
 4986POPC   GL165353  30.593   0.340   5.521
 4986POPC   GL265354  30.609  44.996   5.649
 4986POPC   C1A65355  30.786   0.601   5.889
 4986POPC   D2A65356  30.707   0.684   6.361
 4986POPC   C3A65357  30.959   0.510   6.728
 4986POPC   C4A65358  30.903   0.632   7.184
 4986POPC   C1B65359  30.473   0.215   6.025
 4986POPC   C2B65360  30.601   0.184   6.472
 4986POPC   C3B65361  30.522   0.287   6.902
 4986POPC   C4B65362  30.566   0.151   7.307
 4987POPC   NC365363  32.368  21.581   5.484
 4987POPC   PO465364  31.764  21.233   5.389
 4987POPC   GL165365  31.981  21.139   5.810
 4987POPC   GL265366  32.329  21.044   5.727
 4987POPC   C1A65367  31.966  21.183   6.303
 4987POPC   D2A65368  32.154  21.111   6.741
 4987POPC   C3A65369  32.077  21.435   7.075
 4987POPC   C4A65370  32.007  21.827   7.331
 4987POPC   C1B65371  32.512  21.199   6.136
 4987POPC   C2B65372  32.665  21.119   6.573
 4987POPC   C3B65373  32.564  21.181   7.053
 4987POPC   C4B65374  32.403  21.055   7.491
 4988POPC   NC365375  37.143  30.554   5.473
 4988POPC   PO465376  36.531  30.823   5.391
 4988POPC   GL165377  36.685  30.563   5.709
 4988POPC   GL265378  36.906  30.849   5.800
 4988POPC   C1A65379  36.857  30.461   6.123
 4988POPC   D2A65380  37.121  30.564   6.486
 4988POPC   C3A65381  36.937  30.611   6.877
 4988POPC   C4A65382  37.043  30.761   7.272
 4988POPC   C1B65383  36.622  30.971   6.127
 4988POPC   C2B65384  36.448  31.113   6.522
 4988POPC   C3B65385  36.542  30.954   6.907
 4988POPC   C4B65386  36.645  31.057   7.279
 4989POPC   NC365387   1.829  17.815   5.425
 4989POPC   PO465388   2.346  17.356   5.503
 4989POPC   GL165389   2.214  17.508   5.892
 4989POPC   GL265390   1.874  17.414   5.889
 4989POPC   C1A65391   2.070  17.504   6.349
 4989POPC   D2A65392   1.823  17.463   6.733
 4989POPC   C3A65393   2.122  17.430   7.079
 4989POPC   C4A65394   2.233  17.490   7.517
 4989POPC   C1B65395   1.682  17.172   6.252
 4989POPC   C2B65396   1.438  17.113   6.643
 4989POPC   C3B65397   1.446  17.290   7.068
 4989POPC   C4B65398   1.741  17.268   7.409
 4990POPC   NC365399  17.105  31.406   5.723
 4990POPC   PO465400  17.644  31.332   5.340
 4990POPC   GL165401  17.633  31.511   5.766
 4990POPC   GL265402  17.609  31.886   5.743
 4990POPC   C1A65403  17.596  31.470   6.230
 4990POPC   D2A65404  17.576  31.333   6.667
 4990POPC   C3A65405  17.581  31.437   7.119
 4990POPC   C4A65406  17.640  31.228   7.526
 4990POPC   C1B65407  17.425  31.982   6.152
 4990POPC   C2B65408  17.290  31.765   6.534
 4990POPC   C3B65409  17.199  31.872   6.944
 4990POPC   C4B65410  17.264  31.909   7.363
 4991POPC   NC365411  11.423  18.461   5.429
 4991POPC   PO465412  10.853  18.227   5.294
 4991POPC   GL165413  10.979  18.368   5.704
 4991POPC   GL265414  10.978  18.739   5.763
 4991POPC   C1A65415  11.194  18.136   6.055
 4991POPC   D2A65416  11.353  18.329   6.447
 4991POPC   C3A65417  11.247  18.169   6.827
 4991POPC   C4A65418  11.427  18.072   7.197
 4991POPC   C1B65419  10.960  18.557   6.191
 4991POPC   C2B65420  10.821  18.397   6.602
 4991POPC   C3B65421  10.950  18.547   7.011
 4991POPC   C4B65422  11.295  18.557   7.248
 4992POPC   NC365423  42.148  24.046   5.450
 4992POPC   PO465424  42.359  23.408   5.513
 4992POPC   GL165425  42.069  23.514   5.867
 4992POPC   GL265426  41.995  23.834   5.874
 4992POPC   C1A65427  42.138  23.583   6.319
 4992POPC   D2A65428  42.503  23.739   6.554
 4992POPC   C3A65429  42.582  23.503   6.918
 4992POPC   C4A65430  42.276  23.455   7.217
 4992POPC   C1B65431  41.858  24.011   6.223
 4992POPC   C2B65432  42.048  24.026   6.593
 4992POPC   C3B65433  42.209  23.932   6.976
 4992POPC   C4B65434  42.024  23.867   7.357
 4993POPC   NC365435  32.993   6.228   5.403
 4993POPC   PO465436  33.042   5.618   5.785
 4993POPC   GL165437  32.918   6.039   5.905
 4993POPC   GL265438  33.250   6.106   5.821
 4993POPC   C1A65439  32.903   6.050   6.358
 4993POPC   D2A65440  32.818   5.650   6.636
 4993POPC   C3A65441  32.811   5.713   7.089
 4993POPC   C4A65442  32.846   6.154   7.144
 4993POPC   C1B65443  33.421   6.112   6.257
 4993POPC   C2B65444  33.253   6.094   6.709
 4993POPC   C3B65445  33.296   5.888   7.112
 4993POPC   C4B65446  33.599   5.810   7.430
 4994POPC   NC365447  39.825  28.609   5.491
 4994POPC   PO465448  40.381  28.146   5.398
 4994POPC   GL165449  40.102  28.125   5.749
 4994POPC   GL265450  40.363  28.280   5.935
 4994POPC   C1A65451  39.909  28.190   6.186
 4994POPC   D2A65452  39.846  27.988   6.630
 4994POPC   C3A65453  39.917  28.283   7.006
 4994POPC   C4A65454  39.834  28.713   7.178
 4994POPC   C1B65455  40.283  28.717   6.116
 4994POPC   C2B65456  40.219  28.877   6.541
 4994POPC   C3B65457  40.318  28.708   6.983
 4994POPC   C4B65458  40.275  28.461   7.384
 4995POPC   NC365459  15.074  29.455   5.563
 4995POPC   PO465460  15.019  30.064   5.215
 4995POPC   GL165461  15.086  30.064   5.654
 4995POPC   GL265462  15.323  29.829   5.787
 4995POPC   C1A65463  15.038  30.085   6.118
 4995POPC   D2A65464  15.313  30.216   6.481
 4995POPC   C3A65465  15.115  30.189   6.903
 4995POPC   C4A65466  14.914  29.855   7.161
 4995POPC   C1B65467  15.415  29.740   6.204
 4995POPC   C2B65468  15.243  29.712   6.614
 4995POPC   C3B65469  15.414  29.780   7.006
 4995POPC   C4B65470  15.612  29.590   7.316
 4996POPC   NC365471  17.606  32.689   5.463
 4996POPC   PO465472  17.392  33.299   5.193
 4996POPC   GL165473  17.291  33.164   5.668
 4996POPC   GL265474  17.481  33.313   5.961
 4996POPC   C1A65475  17.205  32.890   6.037
 4996POPC   D2A65476  17.202  32.853   6.478
 4996POPC   C3A65477  17.548  32.751   6.750
 4996POPC   C4A65478  17.543  32.870   7.204
 4996POPC   C1B65479  17.639  33.310   6.369
 4996POPC   C2B65480  17.645  33.249   6.801
 4996POPC   C3B65481  17.695  33.397   7.178
 4996POPC   C4B65482  17.737  33.178   7.588
 4997POPC   NC365483  37.844  43.551   5.406
 4997POPC   PO465484  37.410  43.868   5.362
 4997POPC   GL165485  37.497  43.645   5.793
 4997POPC   GL265486  37.783  43.401   5.893
 4997POPC   C1A65487  37.503  43.685   6.272
 4997POPC   D2A65488  37.761  43.741   6.669
 4997POPC   C3A65489  37.572  43.779   7.103
 4997POPC   C4A65490  37.799  43.865   7.510
 4997POPC   C1B65491  37.798  43.273   6.344
 4997POPC   C2B65492  37.929  43.261   6.794
 4997POPC   C3B65493  38.015  43.537   7.144
 4997POPC   C4B65494  38.170  43.486   7.575
 4998POPC   NC365495   2.509  14.949   5.447
 4998POPC   PO465496   2.725  14.262   5.499
 4998POPC   GL165497   2.802  14.434   5.902
 4998POPC   GL265498   3.126  14.269   6.009
 4998POPC   C1A65499   2.918  14.662   6.297
 4998POPC   D2A65500   3.075  14.612   6.724
 4998POPC   C3A65501   2.864  14.486   7.149
 4998POPC   C4A65502   2.794  14.514   7.629
 4998POPC   C1B65503   2.798  14.148   6.308
 4998POPC   C2B65504   2.701  14.245   6.715
 4998POPC   C3B65505   2.600  14.036   7.077
 4998POPC   C4B65506   2.848  14.038   7.409
 4999POPC   NC365507  32.418  43.321   5.414
 4999POPC   PO465508  31.757  43.339   5.238
 4999POPC   GL165509  31.954  43.114   5.677
 4999POPC   GL265510  32.340  42.989   5.780
 4999POPC   C1A65511  32.077  43.236   6.149
 4999POPC   D2A65512  32.328  43.320   6.564
 4999POPC   C3A65513  32.076  43.191   6.903
 4999POPC   C4A65514  31.964  42.966   7.250
 4999POPC   C1B65515  32.564  43.042   6.196
 4999POPC   C2B65516  32.607  42.921   6.657
 4999POPC   C3B65517  32.588  42.973   7.079
 4999POPC   C4B65518  32.382  43.231   7.319
 5000POPC   NC365519  35.772  19.710   5.577
 5000POPC   PO465520  35.294  20.093   5.551
 5000POPC   GL165521  35.416  19.806   5.914
 5000POPC   GL265522  35.328  19.443   5.833
 5000POPC   C1A65523  35.601  19.524   6.252
 5000POPC   D2A65524  35.504  19.612   6.674
 5000POPC   C3A65525  35.632  20.022   6.774
 5000POPC   C4A65526  35.605  20.231   7.136
 5000POPC   C1B65527  35.057  19.605   6.207
 5000POPC   C2B65528  34.817  19.576   6.584
 5000POPC   C3B65529  35.018  19.527   6.985
 5000POPC   C4B65530  35.152  19.654   7.412
 5001POPC   NC365531  31.276  28.205   5.520
 5001POPC   PO465532  31.462  28.755   5.480
 5001POPC   GL165533  31.317  28.669   5.902
 5001POPC   GL265534  31.366  28.315   6.000
 5001POPC   C1A65535  31.205  28.658   6.354
 5001POPC   D2A65536  31.168  28.377   6.703
 5001POPC   C3A65537  31.343  28.540   7.100
 5001POPC   C4A65538  31.250  28.698   7.525
 5001POPC   C1B65539  31.689  28.503   6.228
 5001POPC   C2B65540  31.678  28.463   6.657
 5001POPC   C3B65541  31.862  28.524   7.052
 5001POPC   C4B65542  31.711  28.459   7.488
 5002POPC   NC365543   4.645  32.186   5.321
 5002POPC   PO465544   5.238  32.366   5.258
 5002POPC   GL165545   5.200  32.296   5.718
 5002POPC   GL265546   5.457  32.048   5.828
 5002POPC   C1A65547   4.896  32.287   6.094
 5002POPC   D2A65548   4.938  32.183   6.545
 5002POPC   C3A65549   4.784  32.451   6.875
 5002POPC   C4A65550   4.976  32.591   7.241
 5002POPC   C1B65551   5.240  31.885   6.233
 5002POPC   C2B65552   5.254  31.812   6.694
 5002POPC   C3B65553   5.165  32.096   7.062
 5002POPC   C4B65554   4.763  32.076   7.278
 5003POPC   NC365555   2.557  19.369   5.416
 5003POPC   PO465556   2.873  18.728   5.290
 5003POPC   GL165557   2.743  18.970   5.664
 5003POPC   GL265558   2.938  19.271   5.799
 5003POPC   C1A65559   2.506  19.059   6.060
 5003POPC   D2A65560   2.684  19.160   6.462
 5003POPC   C3A65561   2.447  19.298   6.812
 5003POPC   C4A65562   2.474  19.068   7.158
 5003POPC   C1B65563   2.998  18.898   6.090
 5003POPC   C2B65564   3.160  18.749   6.470
 5003POPC   C3B65565   2.931  18.795   6.848
 5003POPC   C4B65566   2.911  18.852   7.298
 5004POPC   NC365567  20.900  24.355   5.445
 5004POPC   PO465568  20.244  24.322   5.295
 5004POPC   GL165569  20.397  24.246   5.683
 5004POPC   GL265570  20.441  24.593   5.735
 5004POPC   C1A65571  20.512  24.209   6.115
 5004POPC   D2A65572  20.507  24.424   6.521
 5004POPC   C3A65573  20.599  24.269   6.930
 5004POPC   C4A65574  20.866  24.450   7.252
 5004POPC   C1B65575  20.478  24.785   6.145
 5004POPC   C2B65576  20.349  24.906   6.585
 5004POPC   C3B65577  20.564  24.789   6.997
 5004POPC   C4B65578  20.662  24.846   7.484
 5005POPC   NC365579  24.358  21.616   5.050
 5005POPC   PO465580  24.782  21.190   5.198
 5005POPC   GL165581  24.633  21.188   5.681
 5005POPC   GL265582  24.317  21.411   5.798
 5005POPC   C1A65583  24.656  21.272   6.164
 5005POPC   D2A65584  24.475  21.311   6.594
 5005POPC   C3A65585  24.679  21.518   6.957
 5005POPC   C4A65586  24.761  21.380   7.388
 5005POPC   C1B65587  24.206  21.570   6.241
 5005POPC   C2B65588  24.085  21.601   6.705
 5005POPC   C3B65589  24.213  21.443   7.132
 5005POPC   C4B65590  24.367  21.743   7.443
 5006POPC   NC365591  27.786  38.703   5.535
 5006POPC   PO465592  27.199  38.420   5.503
 5006POPC   GL165593  27.505  38.344   5.861
 5006POPC   GL265594  27.872  38.336   5.894
 5006POPC   C1A65595  27.397  38.409   6.311
 5006POPC   D2A65596  27.149  38.557   6.681
 5006POPC   C3A65597  27.384  38.502   7.062
 5006POPC   C4A65598  27.703  38.158   7.144
 5006POPC   C1B65599  27.817  38.670   6.227
 5006POPC   C2B65600  27.686  38.699   6.671
 5006POPC   C3B65601  27.910  38.794   7.068
 5006POPC   C4B65602  27.882  38.634   7.469
 5007POPC   NC365603  17.122  40.573   5.256
 5007POPC   PO465604  16.469  40.855   5.333
 5007POPC   GL165605  16.777  40.806   5.674
 5007POPC   GL265606  16.570  40.619   5.880
 5007POPC   C1A65607  16.952  40.829   6.140
 5007POPC   D2A65608  17.098  40.668   6.576
 5007POPC   C3A65609  16.857  40.853   6.941
 5007POPC   C4A65610  16.402  40.873   7.082
 5007POPC   C1B65611  16.575  40.434   6.293
 5007POPC   C2B65612  16.657  40.446   6.737
 5007POPC   C3B65613  16.472  40.339   7.143
 5007POPC   C4B65614  16.225  40.578   7.488
 5008POPC   NC365615  16.572  12.207   5.513
 5008POPC   PO465616  16.932  11.787   5.228
 5008POPC   GL165617  16.900  11.812   5.696
 5008POPC   GL265618  16.537  11.768   5.803
 5008POPC   C1A65619  16.975  12.111   6.065
 5008POPC   D2A65620  17.076  12.278   6.486
 5008POPC   C3A65621  16.847  12.125   6.832
 5008POPC   C4A65622  16.937  12.046   7.260
 5008POPC   C1B65623  16.463  12.064   6.155
 5008POPC   C2B65624  16.301  12.044   6.558
 5008POPC   C3B65625  16.347  12.215   6.953
 5008POPC   C4B65626  16.424  12.051   7.374
 5009POPC   NC365627  43.473  21.428   5.152
 5009POPC   PO465628  42.879  21.277   5.393
 5009POPC   GL165629  43.068  21.501   5.752
 5009POPC   GL265630  43.106  21.218   5.934
 5009POPC   C1A65631  43.255  21.634   6.198
 5009POPC   D2A65632  43.502  21.616   6.596
 5009POPC   C3A65633  43.336  21.396   6.952
 5009POPC   C4A65634  43.101  21.397   7.319
 5009POPC   C1B65635  43.180  20.932   6.245
 5009POPC   C2B65636  43.249  21.010   6.619
 5009POPC   C3B65637  43.145  20.799   6.940
 5009POPC   C4B65638  43.016  20.901   7.314
 5010POPC   NC365639  23.575  25.880   5.064
 5010POPC   PO465640  24.186  25.895   5.408
 5010POPC   GL165641  24.041  25.939   5.820
 5010POPC   GL265642  23.821  26.230   5.754
 5010POPC   C1A65643  24.080  25.866   6.275
 5010POPC   D2A65644  24.079  26.151   6.642
 5010POPC   C3A65645  23.946  25.938   7.011
 5010POPC   C4A65646  23.790  25.640   7.281
 5010POPC   C1B65647  23.754  26.266   6.220
 5010POPC   C2B65648  23.573  26.025   6.588
 5010POPC   C3B65649  23.409  25.874   6.986
 5010POPC   C4B65650  23.533  26.080   7.351
 5011POPC   NC365651  36.752  29.014   5.339
 5011POPC   PO465652  36.127  29.166   5.487
 5011POPC   GL165653  36.254  28.967   5.842
 5011POPC   GL265654  36.558  29.147   5.934
 5011POPC   C1A65655  36.174  29.064   6.272
 5011POPC   D2A65656  36.231  28.741   6.605
 5011POPC   C3A65657  36.111  28.849   6.995
 5011POPC   C4A65658  35.930  29.284   7.042
 5011POPC   C1B65659  36.647  29.085   6.403
 5011POPC   C2B65660  36.362  29.252   6.721
 5011POPC   C3B65661  36.444  29.194   7.118
 5011POPC   C4B65662  36.680  28.784   7.128
 5012POPC   NC365663  29.899   7.963   5.500
 5012POPC   PO465664  30.127   8.621   5.470
 5012POPC   GL165665  30.019   8.368   5.790
 5012POPC   GL265666  29.673   8.300   5.797
 5012POPC   C1A65667  30.057   8.152   6.153
 5012POPC   D2A65668  30.227   8.256   6.537
 5012POPC   C3A65669  29.964   8.135   6.839
 5012POPC   C4A65670  30.079   8.118   7.229
 5012POPC   C1B65671  29.650   8.500   6.161
 5012POPC   C2B65672  29.607   8.467   6.589
 5012POPC   C3B65673  29.660   8.504   7.023
 5012POPC   C4B65674  29.663   8.330   7.413
 5013POPC   NC365675  34.754  37.296   5.398
 5013POPC   PO465676  34.498  37.971   5.428
 5013POPC   GL165677  34.627  37.664   5.778
 5013POPC   GL265678  34.989  37.712   5.812
 5013POPC   C1A65679  34.676  37.501   6.241
 5013POPC   D2A65680  34.745  37.626   6.699
 5013POPC   C3A65681  34.402  37.607   7.002
 5013POPC   C4A65682  34.320  37.288   7.285
 5013POPC   C1B65683  34.975  37.939   6.230
 5013POPC   C2B65684  35.159  37.923   6.663
 5013POPC   C3B65685  35.041  37.918   7.090
 5013POPC   C4B65686  34.613  38.035   7.180
 5014POPC   NC365687  11.913  43.405   5.540
 5014POPC   PO465688  12.256  42.789   5.482
 5014POPC   GL165689  12.154  43.020   5.825
 5014POPC   GL265690  12.378  43.314   5.919
 5014POPC   C1A65691  12.079  42.822   6.227
 5014POPC   D2A65692  12.289  42.821   6.587
 5014POPC   C3A65693  12.154  43.175   6.811
 5014POPC   C4A65694  12.140  43.129   7.231
 5014POPC   C1B65695  12.064  43.337   6.235
 5014POPC   C2B65696  11.776  43.492   6.535
 5014POPC   C3B65697  11.908  43.650   6.922
 5014POPC   C4B65698  11.848  43.543   7.350
 5015POPC   NC365699  36.786  32.618   5.372
 5015POPC   PO465700  37.120  33.166   5.342
 5015POPC   GL165701  37.015  32.905   5.733
 5015POPC   GL265702  36.640  32.856   5.788
 5015POPC   C1A65703  37.004  32.948   6.195
 5015POPC   D2A65704  36.818  33.226   6.536
 5015POPC   C3A65705  37.097  33.196   6.868
 5015POPC   C4A65706  37.105  32.946   7.192
 5015POPC   C1B65707  36.638  32.588   6.146
 5015POPC   C2B65708  36.766  32.655   6.584
 5015POPC   C3B65709  36.654  32.909   6.950
 5015POPC   C4B65710  36.648  32.873   7.405
 5016POPC   NC365711   6.387  33.925   5.252
 5016POPC   PO465712   6.756  33.366   5.370
 5016POPC   GL165713   6.600  33.670   5.717
 5016POPC   GL265714   6.860  33.912   5.819
 5016POPC   C1A65715   6.473  33.870   6.151
 5016POPC   D2A65716   6.615  34.022   6.581
 5016POPC   C3A65717   6.534  33.745   6.921
 5016POPC   C4A65718   6.612  33.430   7.231
 5016POPC   C1B65719   6.998  33.904   6.272
 5016POPC   C2B65720   7.161  34.194   6.589
 5016POPC   C3B65721   6.963  34.140   6.977
 5016POPC   C4B65722   7.083  33.937   7.325
 5017POPC   NC365723  19.319  34.554   5.391
 5017POPC   PO465724  18.817  35.045   5.396
 5017POPC   GL165725  19.067  34.844   5.740
 5017POPC   GL265726  19.086  34.483   5.836
 5017POPC   C1A65727  19.150  34.856   6.185
 5017POPC   D2A65728  18.922  34.699   6.524
 5017POPC   C3A65729  18.944  34.824   6.933
 5017POPC   C4A65730  19.077  34.474   7.176
 5017POPC   C1B65731  19.135  34.304   6.252
 5017POPC   C2B65732  19.174  34.299   6.703
 5017POPC   C3B65733  19.506  34.217   7.019
 5017POPC   C4B65734  19.519  34.391   7.422
 5018POPC   NC365735  19.405  43.487   5.445
 5018POPC   PO465736  19.157  42.832   5.422
 5018POPC   GL165737  19.066  43.134   5.742
 5018POPC   GL265738  19.116  42.827   5.949
 5018POPC   C1A65739  18.949  43.291   6.169
 5018POPC   D2A65740  19.142  43.301   6.578
 5018POPC   C3A65741  19.019  42.990   6.912
 5018POPC   C4A65742  18.868  42.923   7.356
 5018POPC   C1B65743  19.420  43.012   6.217
 5018POPC   C2B65744  19.562  43.009   6.619
 5018POPC   C3B65745  19.486  43.259   6.960
 5018POPC   C4B65746  19.343  43.107   7.302
 5019POPC   NC365747  43.181  28.065   5.377
 5019POPC   PO465748  43.393  28.720   5.538
 5019POPC   GL165749  43.070  28.474   5.749
 5019POPC   GL265750  42.838  28.709   5.898
 5019POPC   C1A65751  43.171  28.204   6.120
 5019POPC   D2A65752  43.128  28.284   6.588
 5019POPC   C3A65753  43.388  28.276   6.981
 5019POPC   C4A65754  43.157  28.349   7.359
 5019POPC   C1B65755  43.021  28.679   6.267
 5019POPC   C2B65756  43.260  28.788   6.592
 5019POPC   C3B65757  43.159  28.746   6.997
 5019POPC   C4B65758  42.792  28.633   7.134
 5020POPC   NC365759   0.141   9.456   5.321
 5020POPC   PO465760  44.708   9.784   5.360
 5020POPC   GL165761  44.848   9.740   5.797
 5020POPC   GL265762  44.549   9.576   5.921
 5020POPC   C1A65763  44.820   9.835   6.277
 5020POPC   D2A65764  44.586   9.643   6.663
 5020POPC   C3A65765  44.587   9.797   7.117
 5020POPC   C4A65766  44.774   9.890   7.524
 5020POPC   C1B65767  44.763   9.324   6.260
 5020POPC   C2B65768  44.829   9.182   6.705
 5020POPC   C3B65769  44.774   9.296   7.149
 5020POPC   C4B65770  44.498   9.431   7.495
 5021POPC   NC365771   3.077  22.599   5.454
 5021POPC   PO465772   3.064  23.240   5.645
 5021POPC   GL165773   2.845  22.880   5.831
 5021POPC   GL265774   2.536  23.020   5.930
 5021POPC   C1A65775   2.771  22.702   6.261
 5021POPC   D2A65776   2.682  22.898   6.677
 5021POPC   C3A65777   2.987  23.026   6.984
 5021POPC   C4A65778   2.916  22.958   7.424
 5021POPC   C1B65779   2.764  23.234   6.282
 5021POPC   C2B65780   2.743  23.409   6.720
 5021POPC   C3B65781   2.582  23.284   7.161
 5021POPC   C4B65782   2.566  23.266   7.638
 5022POPC   NC365783  38.513   5.629   5.216
 5022POPC   PO465784  38.309   5.010   5.397
 5022POPC   GL165785  38.575   5.070   5.759
 5022POPC   GL265786  38.633   5.428   5.755
 5022POPC   C1A65787  38.729   5.171   6.200
 5022POPC   D2A65788  38.880   5.214   6.640
 5022POPC   C3A65789  38.591   5.150   6.995
 5022POPC   C4A65790  38.258   4.926   7.216
 5022POPC   C1B65791  38.258   5.285   6.094
 5022POPC   C2B65792  38.343   5.231   6.553
 5022POPC   C3B65793  38.102   5.325   6.949
 5022POPC   C4B65794  38.097   5.383   7.438
 5023POPC   NC365795  37.393  34.576   5.349
 5023POPC   PO465796  38.014  34.874   5.461
 5023POPC   GL165797  37.614  34.761   5.773
 5023POPC   GL265798  37.467  34.443   5.851
 5023POPC   C1A65799  37.601  34.737   6.249
 5023POPC   D2A65800  37.667  34.846   6.679
 5023POPC   C3A65801  37.390  34.954   6.984
 5023POPC   C4A65802  37.508  34.770   7.347
 5023POPC   C1B65803  37.518  34.192   6.210
 5023POPC   C2B65804  37.653  34.135   6.643
 5023POPC   C3B65805  37.629  34.378   7.033
 5023POPC   C4B65806  37.711  34.310   7.494
 5024POPC   NC365807  22.215  22.046   5.152
 5024POPC   PO465808  22.280  21.480   5.501
 5024POPC   GL165809  22.120  21.630   5.883
 5024POPC   GL265810  22.438  21.729   5.987
 5024POPC   C1A65811  22.103  21.627   6.368
 5024POPC   D2A65812  22.277  21.693   6.789
 5024POPC   C3A65813  21.990  21.549   7.117
 5024POPC   C4A65814  22.131  21.413   7.528
 5024POPC   C1B65815  22.595  21.533   6.367
 5024POPC   C2B65816  22.635  21.347   6.750
 5024POPC   C3B65817  22.477  21.309   7.158
 5024POPC   C4B65818  22.651  21.334   7.576
 5025POPC   NC365819  16.440  13.724   5.259
 5025POPC   PO465820  17.064  13.317   5.414
 5025POPC   GL165821  16.824  13.510   5.733
 5025POPC   GL265822  17.023  13.757   5.834
 5025POPC   C1A65823  16.957  13.398   6.179
 5025POPC   D2A65824  17.233  13.290   6.511
 5025POPC   C3A65825  17.089  13.391   6.905
 5025POPC   C4A65826  16.889  13.529   7.266
 5025POPC   C1B65827  16.918  13.905   6.251
 5025POPC   C2B65828  16.756  13.697   6.641
 5025POPC   C3B65829  16.497  13.768   7.029
 5025POPC   C4B65830  16.509  13.848   7.515
 5026POPC   NC365831  16.639  13.186   5.346
 5026POPC   PO465832  16.946  12.562   5.455
 5026POPC   GL165833  16.754  12.699   5.793
 5026POPC   GL265834  16.883  13.009   5.803
 5026POPC   C1A65835  16.831  12.640   6.223
 5026POPC   D2A65836  16.592  12.498   6.573
 5026POPC   C3A65837  16.745  12.638   6.945
 5026POPC   C4A65838  16.676  12.496   7.356
 5026POPC   C1B65839  16.570  13.079   6.115
 5026POPC   C2B65840  16.742  13.082   6.535
 5026POPC   C3B65841  16.602  13.220   6.919
 5026POPC   C4B65842  16.719  13.029   7.289
 5027POPC   NC365843  40.560  10.022   5.476
 5027POPC   PO465844  40.758   9.450   5.749
 5027POPC   GL165845  40.689   9.778   5.991
 5027POPC   GL265846  40.371   9.745   5.927
 5027POPC   C1A65847  40.767   9.682   6.433
 5027POPC   D2A65848  40.972   9.473   6.772
 5027POPC   C3A65849  40.949   9.756   7.122
 5027POPC   C4A65850  41.134   9.827   7.532
 5027POPC   C1B65851  40.287   9.567   6.330
 5027POPC   C2B65852  40.257   9.710   6.756
 5027POPC   C3B65853  40.421   9.902   7.113
 5027POPC   C4B65854  40.611   9.736   7.504
 5028POPC   NC365855   6.752  20.338   5.334
 5028POPC   PO465856   6.332  20.870   5.286
 5028POPC   GL165857   6.566  20.855   5.738
 5028POPC   GL265858   6.908  20.665   5.749
 5028POPC   C1A65859   6.622  20.645   6.176
 5028POPC   D2A65860   6.558  20.405   6.573
 5028POPC   C3A65861   6.511  20.683   6.949
 5028POPC   C4A65862   6.249  20.521   7.274
 5028POPC   C1B65863   6.925  20.263   6.037
 5028POPC   C2B65864   7.072  20.220   6.479
 5028POPC   C3B65865   6.897  20.112   6.883
 5028POPC   C4B65866   6.713  20.300   7.248
 5029POPC   NC365867   4.155   6.167   5.590
 5029POPC   PO465868   4.603   5.830   5.260
 5029POPC   GL165869   4.401   5.590   5.621
 5029POPC   GL265870   4.047   5.663   5.739
 5029POPC   C1A65871   4.411   5.510   6.081
 5029POPC   D2A65872   4.526   5.743   6.455
 5029POPC   C3A65873   4.362   5.716   6.869
 5029POPC   C4A65874   4.437   5.915   7.271
 5029POPC   C1B65875   4.056   5.907   6.176
 5029POPC   C2B65876   3.969   5.916   6.621
 5029POPC   C3B65877   4.008   6.080   7.048
 5029POPC   C4B65878   3.955   5.912   7.467
 5030POPC   NC365879  19.733  44.792   5.306
 5030POPC   PO465880  20.389  44.603   5.244
 5030POPC   GL165881  20.081  44.733   5.684
 5030POPC   GL265882  19.697  44.814   5.809
 5030POPC   C1A65883  19.999  44.571   6.139
 5030POPC   D2A65884  19.932  44.779   6.548
 5030POPC   C3A65885  19.952  44.537   6.877
 5030POPC   C4A65886  19.966  44.449   7.288
 5030POPC   C1B65887  19.466   0.026   6.181
 5030POPC   C2B65888  19.413   0.073   6.633
 5030POPC   C3B65889  19.497  44.802   6.947
 5030POPC   C4B65890  19.640  44.814   7.335
 5031POPC   NC365891   5.002  27.033   5.520
 5031POPC   PO465892   5.426  27.469   5.277
 5031POPC   GL165893   5.414  27.544   5.773
 5031POPC   GL265894   5.050  27.612   5.908
 5031POPC   C1A65895   5.394  27.601   6.276
 5031POPC   D2A65896   5.128  27.533   6.670
 5031POPC   C3A65897   5.236  27.558   7.134
 5031POPC   C4A65898   5.251  27.142   7.407
 5031POPC   C1B65899   4.840  27.779   6.326
 5031POPC   C2B65900   4.926  27.989   6.781
 5031POPC   C3B65901   4.882  27.954   7.259
 5031POPC   C4B65902   4.910  28.051   7.718
 5032POPC   NC365903  25.628  40.325   5.478
 5032POPC   PO465904  24.999  40.155   5.300
 5032POPC   GL165905  25.167  40.218   5.691
 5032POPC   GL265906  25.410  40.017   5.849
 5032POPC   C1A65907  25.047  40.283   6.150
 5032POPC   D2A65908  25.112  40.006   6.542
 5032POPC   C3A65909  25.122  39.994   7.037
 5032POPC   C4A65910  24.888  40.076   7.469
 5032POPC   C1B65911  25.537  40.144   6.272
 5032POPC   C2B65912  25.516  40.220   6.750
 5032POPC   C3B65913  25.616  40.150   7.177
 5032POPC   C4B65914  25.719  39.925   7.549
 5033POPC   NC365915  18.455   5.986   5.596
 5033POPC   PO465916  17.833   5.680   5.344
 5033POPC   GL165917  17.991   5.539   5.798
 5033POPC   GL265918  18.303   5.648   5.914
 5033POPC   C1A65919  17.954   5.800   6.233
 5033POPC   D2A65920  18.102   5.985   6.642
 5033POPC   C3A65921  18.094   5.653   6.982
 5033POPC   C4A65922  18.221   5.653   7.422
 5033POPC   C1B65923  18.451   5.997   6.243
 5033POPC   C2B65924  18.621   6.124   6.671
 5033POPC   C3B65925  18.445   6.008   7.063
 5033POPC   C4B65926  18.630   5.947   7.464
 5034POPC   NC365927   5.612   4.987   4.935
 5034POPC   PO465928   5.993   5.355   5.404
 5034POPC   GL165929   5.961   5.156   5.816
 5034POPC   GL265930   5.806   4.869   5.651
 5034POPC   C1A65931   5.765   5.194   6.250
 5034POPC   D2A65932   5.573   5.042   6.690
 5034POPC   C3A65933   5.658   5.280   7.125
 5034POPC   C4A65934   5.523   5.457   7.582
 5034POPC   C1B65935   5.797   4.729   6.082
 5034POPC   C2B65936   5.954   4.772   6.483
 5034POPC   C3B65937   6.055   4.995   6.848
 5034POPC   C4B65938   5.820   4.802   7.180
 5035POPC   NC365939   2.381   6.159   5.636
 5035POPC   PO465940   2.857   5.810   5.245
 5035POPC   GL165941   2.929   5.748   5.665
 5035POPC   GL265942   2.687   5.523   5.806
 5035POPC   C1A65943   2.989   5.925   6.074
 5035POPC   D2A65944   2.812   6.171   6.395
 5035POPC   C3A65945   3.008   6.090   6.800
 5035POPC   C4A65946   3.141   5.900   7.193
 5035POPC   C1B65947   2.519   5.783   6.161
 5035POPC   C2B65948   2.699   5.711   6.563
 5035POPC   C3B65949   2.774   5.644   6.970
 5035POPC   C4B65950   2.661   5.849   7.341
 5036POPC   NC365951   5.085  37.146   5.366
 5036POPC   PO465952   5.149  36.441   5.419
 5036POPC   GL165953   5.152  36.754   5.758
 5036POPC   GL265954   4.923  37.060   5.830
 5036POPC   C1A65955   5.285  36.897   6.169
 5036POPC   D2A65956   5.098  37.098   6.495
 5036POPC   C3A65957   5.272  36.973   6.871
 5036POPC   C4A65958   5.365  36.723   7.236
 5036POPC   C1B65959   4.678  36.986   6.175
 5036POPC   C2B65960   4.495  36.956   6.564
 5036POPC   C3B65961   4.747  37.069   6.885
 5036POPC   C4B65962   4.961  37.052   7.247
 5037POPC   NC365963  15.962  24.886   4.971
 5037POPC   PO465964  16.115  25.530   5.319
 5037POPC   GL165965  15.931  25.473   5.767
 5037POPC   GL265966  15.647  25.723   5.836
 5037POPC   C1A65967  16.022  25.300   6.208
 5037POPC   D2A65968  16.062  25.011   6.592
 5037POPC   C3A65969  16.067  25.223   7.006
 5037POPC   C4A65970  16.220  25.599   7.217
 5037POPC   C1B65971  15.531  25.468   6.177
 5037POPC   C2B65972  15.582  25.188   6.489
 5037POPC   C3B65973  15.426  25.267   6.868
 5037POPC   C4B65974  15.597  25.302   7.267
 5038POPC   NC365975   0.102  29.716   5.505
 5038POPC   PO465976  44.598  30.148   5.356
 5038POPC   GL165977  44.747  30.110   5.797
 5038POPC   GL265978  44.744  29.767   5.881
 5038POPC   C1A65979  44.585  30.056   6.255
 5038POPC   D2A65980  44.772  30.298   6.574
 5038POPC   C3A65981  44.656  30.146   6.951
 5038POPC   C4A65982  44.664  29.843   7.244
 5038POPC   C1B65983  44.832  29.624   6.325
 5038POPC   C2B65984  44.771  29.641   6.765
 5038POPC   C3B65985  44.887  29.398   7.126
 5038POPC   C4B65986   0.034  29.611   7.528
 5039POPC   NC365987  41.068   3.876   5.528
 5039POPC   PO465988  41.622   3.564   5.328
 5039POPC   GL165989  41.674   3.544   5.763
 5039POPC   GL265990  41.455   3.280   5.803
 5039POPC   C1A65991  41.785   3.546   6.221
 5039POPC   D2A65992  41.998   3.263   6.518
 5039POPC   C3A65993  41.784   3.192   6.930
 5039POPC   C4A65994  41.778   3.324   7.368
 5039POPC   C1B65995  41.300   3.517   6.166
 5039POPC   C2B65996  41.411   3.445   6.629
 5039POPC   C3B65997  41.354   3.465   7.099
 5039POPC   C4B65998  41.331   3.481   7.560
 5040POPC   NC365999  12.143  17.867   5.489
 5040POPC   PO466000  11.799  18.420   5.678
 5040POPC   GL166001  12.183  18.276   5.857
 5040POPC   GL266002  12.340  18.613   5.840
 5040POPC   C1A66003  12.106  18.029   6.252
 5040POPC   D2A66004  11.766  18.036   6.591
 5040POPC   C3A66005  11.791  18.338   6.941
 5040POPC   C4A66006  12.174  18.309   7.183
 5040POPC   C1B66007  12.423  18.481   6.262
 5040POPC   C2B66008  12.502  18.398   6.679
 5040POPC   C3B66009  12.516  18.656   7.029
 5040POPC   C4B66010  12.237  18.920   7.224
 5041POPC   NC366011  16.738  41.253   5.373
 5041POPC   PO466012  16.707  41.926   5.300
 5041POPC   GL166013  16.586  41.665   5.645
 5041POPC   GL266014  16.896  41.771   5.811
 5041POPC   C1A66015  16.465  41.664   6.085
 5041POPC   D2A66016  16.667  41.678   6.512
 5041POPC   C3A66017  16.538  41.349   6.815
 5041POPC   C4A66018  16.590  41.320   7.261
 5041POPC   C1B66019  16.889  41.371   6.082
 5041POPC   C2B66020  16.978  41.228   6.530
 5041POPC   C3B66021  17.029  41.326   6.990
 5041POPC   C4B66022  17.030  41.062   7.370
 5042POPC   NC366023   2.286  43.772   5.653
 5042POPC   PO466024   2.119  44.221   5.181
 5042POPC   GL166025   1.909  44.184   5.661
 5042POPC   GL266026   1.748  43.834   5.780
 5042POPC   C1A66027   1.943  44.110   6.151
 5042POPC   D2A66028   2.108  43.981   6.568
 5042POPC   C3A66029   1.962  44.064   7.012
 5042POPC   C4A66030   2.158  44.044   7.447
 5042POPC   C1B66031   1.865  43.595   6.209
 5042POPC   C2B66032   1.948  43.477   6.685
 5042POPC   C3B66033   1.927  43.574   7.164
 5042POPC   C4B66034   1.681  43.845   7.457
 5043POPC   NC366035  34.211  31.459   5.257
 5043POPC   PO466036  34.852  31.739   5.464
 5043POPC   GL166037  34.816  31.415   5.740
 5043POPC   GL266038  34.467  31.410   5.702
 5043POPC   C1A66039  34.758  31.451   6.187
 5043POPC   D2A66040  34.554  31.573   6.592
 5043POPC   C3A66041  34.834  31.675   6.945
 5043POPC   C4A66042  34.933  31.335   7.235
 5043POPC   C1B66043  34.243  31.425   6.096
 5043POPC   C2B66044  34.247  31.176   6.459
 5043POPC   C3B66045  34.420  31.125   6.842
 5043POPC   C4B66046  34.431  31.436   7.120
 5044POPC   NC366047   9.586  43.351   5.528
 5044POPC   PO466048   9.096  42.968   5.226
 5044POPC   GL166049   8.980  42.895   5.701
 5044POPC   GL266050   8.977  43.227   5.887
 5044POPC   C1A66051   8.840  42.848   6.179
 5044POPC   D2A66052   8.894  43.109   6.580
 5044POPC   C3A66053   8.763  42.905   6.974
 5044POPC   C4A66054   9.045  42.761   7.299
 5044POPC   C1B66055   9.222  43.397   6.282
 5044POPC   C2B66056   9.230  43.513   6.735
 5044POPC   C3B66057   9.012  43.336   7.109
 5044POPC   C4B66058   8.730  43.170   7.426
 5045POPC   NC366059  41.883  18.071   5.467
 5045POPC   PO466060  42.344  18.506   5.557
 5045POPC   GL166061  42.167  18.298   5.858
 5045POPC   GL266062  41.875  18.496   5.853
 5045POPC   C1A66063  42.328  18.171   6.245
 5045POPC   D2A66064  42.248  18.342   6.651
 5045POPC   C3A66065  42.406  18.103   6.966
 5045POPC   C4A66066  42.694  18.081   7.305
 5045POPC   C1B66067  41.786  18.341   6.244
 5045POPC   C2B66068  41.904  17.980   6.471
 5045POPC   C3B66069  41.916  17.870   6.878
 5045POPC   C4B66070  41.958  18.093   7.237
 5046POPC   NC366071  20.396  42.471   5.452
 5046POPC   PO466072  20.937  42.165   5.365
 5046POPC   GL166073  20.898  42.262   5.819
 5046POPC   GL266074  20.527  42.210   5.890
 5046POPC   C1A66075  20.792  42.414   6.267
 5046POPC   D2A66076  20.577  42.390   6.674
 5046POPC   C3A66077  20.865  42.472   6.971
 5046POPC   C4A66078  20.610  42.544   7.279
 5046POPC   C1B66079  20.380  42.067   6.308
 5046POPC   C2B66080  20.065  42.094   6.660
 5046POPC   C3B66081  20.120  41.999   7.113
 5046POPC   C4B66082  20.466  42.066   7.391
 5047POPC   NC366083  29.047  15.041   5.118
 5047POPC   PO466084  29.379  15.369   5.616
 5047POPC   GL166085  29.199  15.075   5.822
 5047POPC   GL266086  28.955  14.895   5.607
 5047POPC   C1A66087  29.066  15.136   6.222
 5047POPC   D2A66088  29.240  15.039   6.595
 5047POPC   C3A66089  29.084  15.261   6.916
 5047POPC   C4A66090  29.347  15.357   7.213
 5047POPC   C1B66091  28.920  14.695   6.002
 5047POPC   C2B66092  28.980  14.629   6.464
 5047POPC   C3B66093  28.914  14.756   6.928
 5047POPC   C4B66094  29.126  14.910   7.324
 5048POPC   NC366095  28.920   8.153   5.573
 5048POPC   PO466096  28.296   8.175   5.213
 5048POPC   GL166097  28.404   8.258   5.656
 5048POPC   GL266098  28.401   7.943   5.818
 5048POPC   C1A66099  28.306   8.472   6.074
 5048POPC   D2A66100  28.141   8.478   6.509
 5048POPC   C3A66101  28.289   8.238   6.857
 5048POPC   C4A66102  28.107   8.244   7.244
 5048POPC   C1B66103  28.615   8.053   6.171
 5048POPC   C2B66104  28.619   7.910   6.570
 5048POPC   C3B66105  28.765   7.984   6.936
 5048POPC   C4B66106  28.576   8.036   7.305
 5049POPC   NC366107  10.640  20.488   5.558
 5049POPC   PO466108  10.207  20.980   5.388
 5049POPC   GL166109  10.317  20.793   5.793
 5049POPC   GL266110  10.628  20.940   5.856
 5049POPC   C1A66111  10.438  20.585   6.205
 5049POPC   D2A66112  10.762  20.437   6.526
 5049POPC   C3A66113  10.623  20.505   6.955
 5049POPC   C4A66114  10.220  20.624   7.092
 5049POPC   C1B66115  10.875  20.891   6.246
 5049POPC   C2B66116  10.742  20.999   6.666
 5049POPC   C3B66117  10.856  20.934   7.112
 5049POPC   C4B66118  10.914  20.611   7.411
 5050POPC   NC366119   3.967   0.283   5.479
 5050POPC   PO466120   3.872   0.929   5.562
 5050POPC   GL166121   4.074   0.613   5.853
 5050POPC   GL266122   4.441   0.595   5.864
 5050POPC   C1A66123   4.155   0.432   6.274
 5050POPC   D2A66124   3.890   0.526   6.634
 5050POPC   C3A66125   4.102   0.529   7.028
 5050POPC   C4A66126   4.069   0.181   7.292
 5050POPC   C1B66127   4.662   0.535   6.279
 5050POPC   C2B66128   4.760   0.172   6.571
 5050POPC   C3B66129   4.554   0.236   6.976
 5050POPC   C4B66130   4.589   0.699   7.109
 5051POPC   NC366131  25.643  13.270   5.255
 5051POPC   PO466132  25.159  13.749   5.479
 5051POPC   GL166133  25.239  13.702   5.878
 5051POPC   GL266134  25.341  13.361   5.767
 5051POPC   C1A66135  25.251  13.796   6.305
 5051POPC   D2A66136  25.052  13.897   6.667
 5051POPC   C3A66137  25.232  13.986   7.036
 5051POPC   C4A66138  25.044  13.936   7.433
 5051POPC   C1B66139  25.546  13.347   6.148
 5051POPC   C2B66140  25.445  13.242   6.569
 5051POPC   C3B66141  25.185  13.444   6.875
 5051POPC   C4B66142  25.349  13.549   7.261
 5052POPC   NC366143   9.859  38.907   5.324
 5052POPC   PO466144   9.488  39.488   5.515
 5052POPC   GL166145   9.842  39.300   5.759
 5052POPC   GL266146  10.057  39.556   5.872
 5052POPC   C1A66147   9.800  39.276   6.232
 5052POPC   D2A66148   9.467  39.163   6.572
 5052POPC   C3A66149   9.608  39.087   6.999
 5052POPC   C4A66150   9.693  39.138   7.455
 5052POPC   C1B66151  10.169  39.731   6.261
 5052POPC   C2B66152   9.933  39.620   6.622
 5052POPC   C3B66153   9.861  39.548   7.061
 5052POPC   C4B66154  10.081  39.477   7.449
 5053POPC   NC366155  36.745  38.688   5.445
 5053POPC   PO466156  37.388  38.343   5.580
 5053POPC   GL166157  36.970  38.336   5.773
 5053POPC   GL266158  36.941  38.669   5.921
 5053POPC   C1A66159  36.832  38.263   6.214
 5053POPC   D2A66160  37.095  38.094   6.566
 5053POPC   C3A66161  36.975  38.276   6.951
 5053POPC   C4A66162  37.069  38.378   7.369
 5053POPC   C1B66163  36.703  38.760   6.297
 5053POPC   C2B66164  36.770  38.673   6.715
 5053POPC   C3B66165  36.690  38.729   7.150
 5053POPC   C4B66166  36.662  38.576   7.591
 5054POPC   NC366167  43.988  40.185   5.554
 5054POPC   PO466168  43.479  39.736   5.452
 5054POPC   GL166169  43.634  39.992   5.872
 5054POPC   GL266170  43.592  40.366   5.832
 5054POPC   C1A66171  43.616  40.080   6.345
 5054POPC   D2A66172  43.552  39.884   6.745
 5054POPC   C3A66173  43.678  39.987   7.174
 5054POPC   C4A66174  44.080  39.924   7.375
 5054POPC   C1B66175  43.928  40.418   6.158
 5054POPC   C2B66176  44.189  40.127   6.420
 5054POPC   C3B66177  44.138  40.111   6.880
 5054POPC   C4B66178  43.953  40.417   7.165
 5055POPC   NC366179  22.002  39.951   5.374
 5055POPC   PO466180  22.495  40.200   5.700
 5055POPC   GL166181  22.075  40.232   5.841
 5055POPC   GL266182  21.993  40.593   5.780
 5055POPC   C1A66183  21.948  40.039   6.254
 5055POPC   D2A66184  22.099  39.752   6.631
 5055POPC   C3A66185  22.030  39.798   7.099
 5055POPC   C4A66186  22.375  39.825   7.444
 5055POPC   C1B66187  22.138  40.552   6.239
 5055POPC   C2B66188  22.170  40.306   6.641
 5055POPC   C3B66189  22.313  40.199   7.057
 5055POPC   C4B66190  22.145  40.272   7.493
 5056POPC   NC366191  34.287  12.651   5.313
 5056POPC   PO466192  35.001  12.582   5.495
 5056POPC   GL166193  34.826  12.234   5.798
 5056POPC   GL266194  34.450  12.162   5.792
 5056POPC   C1A66195  34.730  11.970   6.170
 5056POPC   D2A66196  34.587  12.103   6.579
 5056POPC   C3A66197  34.789  12.022   6.953
 5056POPC   C4A66198  34.848  12.145   7.375
 5056POPC   C1B66199  34.221  12.243   6.212
 5056POPC   C2B66200  34.163  12.380   6.676
 5056POPC   C3B66201  34.300  12.155   7.083
 5056POPC   C4B66202  34.438  11.739   7.219
 5057POPC   NC366203  37.216  35.993   5.565
 5057POPC   PO466204  36.669  35.841   5.179
 5057POPC   GL166205  36.733  36.083   5.677
 5057POPC   GL266206  36.972  36.374   5.785
 5057POPC   C1A66207  36.843  35.990   6.149
 5057POPC   D2A66208  37.175  35.917   6.510
 5057POPC   C3A66209  36.952  35.914   6.938
 5057POPC   C4A66210  36.550  35.920   7.220
 5057POPC   C1B66211  37.145  36.423   6.194
 5057POPC   C2B66212  36.906  36.353   6.573
 5057POPC   C3B66213  36.657  36.353   6.932
 5057POPC   C4B66214  36.806  36.467   7.332
 5058POPC   NC366215  30.993  20.471   4.937
 5058POPC   PO466216  30.729  20.732   5.435
 5058POPC   GL166217  30.629  20.622   5.822
 5058POPC   GL266218  30.916  20.552   5.956
 5058POPC   C1A66219  30.483  20.498   6.236
 5058POPC   D2A66220  30.628  20.678   6.595
 5058POPC   C3A66221  30.561  20.542   6.981
 5058POPC   C4A66222  30.273  20.328   7.202
 5058POPC   C1B66223  30.978  20.893   6.266
 5058POPC   C2B66224  30.988  21.003   6.713
 5058POPC   C3B66225  30.893  20.916   7.118
 5058POPC   C4B66226  30.858  20.886   7.565
 5059POPC   NC366227   8.609  33.973   5.118
 5059POPC   PO466228   9.213  33.858   5.458
 5059POPC   GL166229   9.154  33.831   5.929
 5059POPC   GL266230   8.820  33.692   6.012
 5059POPC   C1A66231   9.035  34.112   6.292
 5059POPC   D2A66232   9.290  34.062   6.650
 5059POPC   C3A66233   9.193  33.799   6.989
 5059POPC   C4A66234   9.140  34.030   7.334
 5059POPC   C1B66235   8.965  33.640   6.441
 5059POPC   C2B66236   8.764  33.943   6.732
 5059POPC   C3B66237   8.678  33.880   7.150
 5059POPC   C4B66238   8.901  33.600   7.392
 5060POPC   NC366239  19.026   8.729   5.517
 5060POPC   PO466240  18.934   8.032   5.352
 5060POPC   GL166241  18.821   8.216   5.750
 5060POPC   GL266242  19.067   8.038   5.917
 5060POPC   C1A66243  18.793   8.370   6.216
 5060POPC   D2A66244  19.000   8.247   6.620
 5060POPC   C3A66245  18.882   8.185   7.062
 5060POPC   C4A66246  19.105   7.823   7.258
 5060POPC   C1B66247  19.155   7.796   6.287
 5060POPC   C2B66248  19.202   7.780   6.722
 5060POPC   C3B66249  19.375   8.102   6.941
 5060POPC   C4B66250  19.317   8.470   7.188
 5061POPC   NC366251  41.364  27.232   5.261
 5061POPC   PO466252  41.836  26.814   5.433
 5061POPC   GL166253  41.502  26.813   5.727
 5061POPC   GL266254  41.319  27.132   5.768
 5061POPC   C1A66255  41.331  26.708   6.112
 5061POPC   D2A66256  41.484  26.402   6.445
 5061POPC   C3A66257  41.728  26.560   6.791
 5061POPC   C4A66258  41.482  26.462   7.175
 5061POPC   C1B66259  41.641  27.118   6.121
 5061POPC   C2B66260  41.491  26.949   6.524
 5061POPC   C3B66261  41.316  26.856   6.897
 5061POPC   C4B66262  41.418  26.966   7.330
 5062POPC   NC366263  17.986  44.302   5.478
 5062POPC   PO466264  18.169  43.668   5.657
 5062POPC   GL166265  18.175  44.023   5.896
 5062POPC   GL266266  17.809  44.062   5.891
 5062POPC   C1A66267  18.354  44.001   6.314
 5062POPC   D2A66268  18.313  43.666   6.648
 5062POPC   C3A66269  18.477  43.876   7.011
 5062POPC   C4A66270  18.543  44.307   7.102
 5062POPC   C1B66271  17.855  43.862   6.271
 5062POPC   C2B66272  17.952  44.040   6.646
 5062POPC   C3B66273  17.960  43.848   7.003
 5062POPC   C4B66274  18.099  44.091   7.263
 5063POPC   NC366275  15.674  34.584   5.353
 5063POPC   PO466276  16.329  34.326   5.412
 5063POPC   GL166277  16.109  34.340   5.799
 5063POPC   GL266278  15.897  34.617   5.798
 5063POPC   C1A66279  16.025  34.382   6.262
 5063POPC   D2A66280  16.186  34.417   6.690
 5063POPC   C3A66281  15.819  34.584   6.861
 5063POPC   C4A66282  15.609  34.546   7.230
 5063POPC   C1B66283  16.148  34.843   6.067
 5063POPC   C2B66284  16.138  34.885   6.497
 5063POPC   C3B66285  16.218  34.905   6.928
 5063POPC   C4B66286  16.099  34.670   7.284
 5064POPC   NC366287  26.912  18.134   5.440
 5064POPC   PO466288  26.550  17.665   5.500
 5064POPC   GL166289  26.714  18.010   5.903
 5064POPC   GL266290  27.057  18.245   5.915
 5064POPC   C1A66291  26.635  18.218   6.349
 5064POPC   D2A66292  26.426  18.204   6.780
 5064POPC   C3A66293  26.686  18.363   7.121
 5064POPC   C4A66294  26.860  18.166   7.517
 5064POPC   C1B66295  27.121  18.054   6.323
 5064POPC   C2B66296  26.957  18.045   6.765
 5064POPC   C3B66297  27.170  18.199   7.129
 5064POPC   C4B66298  27.237  18.532   7.449
 5065POPC   NC366299  22.382  10.725   5.588
 5065POPC   PO466300  22.231  10.080   5.354
 5065POPC   GL166301  22.291  10.281   5.810
 5065POPC   GL266302  21.988  10.310   5.864
 5065POPC   C1A66303  22.312  10.502   6.241
 5065POPC   D2A66304  22.226  10.374   6.653
 5065POPC   C3A66305  22.195  10.570   7.085
 5065POPC   C4A66306  22.331  10.302   7.448
 5065POPC   C1B66307  21.822  10.322   6.305
 5065POPC   C2B66308  21.767  10.633   6.651
 5065POPC   C3B66309  21.684  10.628   7.084
 5065POPC   C4B66310  21.800  10.910   7.405
 5066POPC   NC366311  40.515  16.585   5.400
 5066POPC   PO466312  41.218  16.876   5.310
 5066POPC   GL166313  40.899  16.784   5.649
 5066POPC   GL266314  40.620  17.008   5.716
 5066POPC   C1A66315  40.758  16.677   6.081
 5066POPC   D2A66316  40.794  16.906   6.468
 5066POPC   C3A66317  40.694  16.748   6.898
 5066POPC   C4A66318  40.614  16.675   7.331
 5066POPC   C1B66319  40.396  17.084   6.165
 5066POPC   C2B66320  40.309  17.028   6.646
 5066POPC   C3B66321  40.347  17.078   7.116
 5066POPC   C4B66322  40.483  17.113   7.607
 5067POPC   NC366323  42.462  25.909   5.261
 5067POPC   PO466324  41.794  25.902   5.413
 5067POPC   GL166325  42.039  26.077   5.752
 5067POPC   GL266326  42.321  25.910   5.780
 5067POPC   C1A66327  42.287  26.220   6.170
 5067POPC   D2A66328  42.515  26.127   6.535
 5067POPC   C3A66329  42.379  26.204   6.966
 5067POPC   C4A66330  42.548  26.168   7.390
 5067POPC   C1B66331  42.274  25.709   6.227
 5067POPC   C2B66332  42.485  25.618   6.647
 5067POPC   C3B66333  42.498  25.715   7.095
 5067POPC   C4B66334  42.569  25.669   7.539
 5068POPC   NC366335  35.750  38.354   5.488
 5068POPC   PO466336  35.176  38.518   5.154
 5068POPC   GL166337  35.285  38.574   5.626
 5068POPC   GL266338  35.569  38.826   5.671
 5068POPC   C1A66339  35.396  38.407   6.079
 5068POPC   D2A66340  35.553  38.211   6.514
 5068POPC   C3A66341  35.375  38.344   6.894
 5068POPC   C4A66342  35.503  38.216   7.285
 5068POPC   C1B66343  35.623  38.892   6.113
 5068POPC   C2B66344  35.464  38.707   6.499
 5068POPC   C3B66345  35.562  38.841   6.927
 5068POPC   C4B66346  35.341  38.708   7.285
 5069POPC   NC366347   6.963  22.895   5.350
 5069POPC   PO466348   6.372  23.096   5.390
 5069POPC   GL166349   6.585  22.845   5.692
 5069POPC   GL266350   6.779  23.129   5.813
 5069POPC   C1A66351   6.592  22.741   6.141
 5069POPC   D2A66352   6.335  22.567   6.491
 5069POPC   C3A66353   6.428  22.765   6.903
 5069POPC   C4A66354   6.792  22.831   7.179
 5069POPC   C1B66355   6.992  23.050   6.244
 5069POPC   C2B66356   6.785  23.055   6.682
 5069POPC   C3B66357   6.657  23.290   7.109
 5069POPC   C4B66358   6.838  23.180   7.566
 5070POPC   NC366359  39.487   6.868   5.374
 5070POPC   PO466360  39.051   6.445   5.611
 5070POPC   GL166361  39.255   6.737   5.844
 5070POPC   GL266362  39.620   6.777   5.859
 5070POPC   C1A66363  39.343   6.586   6.269
 5070POPC   D2A66364  39.147   6.492   6.642
 5070POPC   C3A66365  39.285   6.630   7.032
 5070POPC   C4A66366  39.092   6.529   7.406
 5070POPC   C1B66367  39.769   6.915   6.265
 5070POPC   C2B66368  39.556   6.891   6.666
 5070POPC   C3B66369  39.531   7.075   7.082
 5070POPC   C4B66370  39.492   6.839   7.507
 5071POPC   NC366371  32.157   6.056   5.301
 5071POPC   PO466372  32.321   5.374   5.357
 5071POPC   GL166373  32.409   5.770   5.685
 5071POPC   GL266374  32.390   6.119   5.772
 5071POPC   C1A66375  32.499   5.825   6.167
 5071POPC   D2A66376  32.419   5.998   6.572
 5071POPC   C3A66377  32.299   5.741   6.913
 5071POPC   C4A66378  32.394   5.932   7.292
 5071POPC   C1B66379  32.089   6.150   6.125
 5071POPC   C2B66380  31.935   6.185   6.560
 5071POPC   C3B66381  32.044   6.212   7.000
 5071POPC   C4B66382  31.967   6.147   7.462
 5072POPC   NC366383  23.964  28.816   5.495
 5072POPC   PO466384  23.755  28.196   5.359
 5072POPC   GL166385  23.766  28.410   5.768
 5072POPC   GL266386  23.730  28.069   5.885
 5072POPC   C1A66387  23.589  28.495   6.186
 5072POPC   D2A66388  23.391  28.372   6.591
 5072POPC   C3A66389  23.516  28.617   6.941
 5072POPC   C4A66390  23.738  28.538   7.288
 5072POPC   C1B66391  23.974  28.078   6.249
 5072POPC   C2B66392  23.955  28.064   6.684
 5072POPC   C3B66393  23.972  28.123   7.100
 5072POPC   C4B66394  23.686  28.043   7.419
 5073POPC   NC366395  13.886  13.962   5.129
 5073POPC   PO466396  13.445  13.454   5.264
 5073POPC   GL166397  13.347  13.447   5.740
 5073POPC   GL266398  13.602  13.704   5.805
 5073POPC   C1A66399  13.442  13.405   6.218
 5073POPC   D2A66400  13.687  13.662   6.545
 5073POPC   C3A66401  13.766  13.571   6.999
 5073POPC   C4A66402  13.894  13.637   7.438
 5073POPC   C1B66403  13.321  13.895   6.100
 5073POPC   C2B66404  13.309  14.026   6.521
 5073POPC   C3B66405  13.303  13.775   6.901
 5073POPC   C4B66406  13.341  13.645   7.346
 5074POPC   NC366407  12.600  37.304   5.577
 5074POPC   PO466408  13.160  36.930   5.502
 5074POPC   GL166409  13.071  36.781   5.901
 5074POPC   GL266410  12.746  36.907   5.856
 5074POPC   C1A66411  12.853  36.559   6.238
 5074POPC   D2A66412  12.693  36.688   6.634
 5074POPC   C3A66413  12.992  36.628   6.979
 5074POPC   C4A66414  13.072  37.036   7.196
 5074POPC   C1B66415  12.679  37.097   6.256
 5074POPC   C2B66416  12.297  37.093   6.502
 5074POPC   C3B66417  12.320  37.123   6.946
 5074POPC   C4B66418  12.576  36.848   7.164
 5075POPC   NC366419   6.101  40.734   5.359
 5075POPC   PO466420   5.687  41.236   5.208
 5075POPC   GL166421   5.847  41.133   5.667
 5075POPC   GL266422   6.083  40.892   5.846
 5075POPC   C1A66423   5.773  41.130   6.165
 5075POPC   D2A66424   6.061  40.871   6.448
 5075POPC   C3A66425   6.003  40.819   6.894
 5075POPC   C4A66426   5.697  40.831   7.223
 5075POPC   C1B66427   5.784  40.618   6.082
 5075POPC   C2B66428   5.582  40.610   6.501
 5075POPC   C3B66429   5.661  40.432   6.921
 5075POPC   C4B66430   5.583  40.362   7.364
 5076POPC   NC366431  26.137  30.145   5.628
 5076POPC   PO466432  25.964  30.746   5.355
 5076POPC   GL166433  25.872  30.587   5.763
 5076POPC   GL266434  26.230  30.623   5.841
 5076POPC   C1A66435  25.894  30.717   6.214
 5076POPC   D2A66436  26.131  31.019   6.453
 5076POPC   C3A66437  26.054  30.982   6.884
 5076POPC   C4A66438  26.161  31.113   7.291
 5076POPC   C1B66439  26.405  30.568   6.248
 5076POPC   C2B66440  26.313  30.582   6.680
 5076POPC   C3B66441  26.475  30.676   7.097
 5076POPC   C4B66442  26.627  30.429   7.471
 5077POPC   NC366443   2.860   5.264   5.340
 5077POPC   PO466444   2.228   5.048   5.397
 5077POPC   GL166445   2.556   5.027   5.686
 5077POPC   GL266446   2.390   4.987   5.968
 5077POPC   C1A66447   2.895   5.091   6.033
 5077POPC   D2A66448   2.921   5.256   6.481
 5077POPC   C3A66449   2.848   5.144   6.902
 5077POPC   C4A66450   3.160   5.213   7.233
 5077POPC   C1B66451   2.474   5.301   6.268
 5077POPC   C2B66452   2.262   5.456   6.656
 5077POPC   C3B66453   2.391   5.327   7.061
 5077POPC   C4B66454   2.677   5.311   7.372
 5078POPC   NC366455  14.330   3.327   5.520
 5078POPC   PO466456  14.899   3.723   5.586
 5078POPC   GL166457  14.633   3.510   5.899
 5078POPC   GL266458  14.267   3.565   5.953
 5078POPC   C1A66459  14.659   3.560   6.331
 5078POPC   D2A66460  14.577   3.789   6.713
 5078POPC   C3A66461  14.478   3.629   7.124
 5078POPC   C4A66462  14.751   3.655   7.526
 5078POPC   C1B66463  14.164   3.643   6.373
 5078POPC   C2B66464  14.047   3.698   6.785
 5078POPC   C3B66465  14.089   3.959   7.145
 5078POPC   C4B66466  14.161   3.830   7.554
 5079POPC   NC366467  43.955  20.550   5.172
 5079POPC   PO466468  43.651  21.096   5.414
 5079POPC   GL166469  43.706  20.881   5.791
 5079POPC   GL266470  43.794  20.514   5.698
 5079POPC   C1A66471  43.977  20.884   6.166
 5079POPC   D2A66472  44.225  20.669   6.466
 5079POPC   C3A66473  44.052  20.653   6.869
 5079POPC   C4A66474  44.178  20.500   7.261
 5079POPC   C1B66475  43.970  20.340   6.096
 5079POPC   C2B66476  43.882  20.228   6.516
 5079POPC   C3B66477  43.963  20.150   6.924
 5079POPC   C4B66478  43.783  20.207   7.343
 5080POPC   NC366479  20.790  44.935   5.613
 5080POPC   PO466480  20.518   0.502   5.249
 5080POPC   GL166481  20.528   0.571   5.746
 5080POPC   GL266482  20.574   0.247   5.939
 5080POPC   C1A66483  20.816   0.633   6.150
 5080POPC   D2A66484  20.745   0.601   6.601
 5080POPC   C3A66485  20.880   0.439   7.008
 5080POPC   C4A66486  20.794   0.591   7.447
 5080POPC   C1B66487  20.354   0.409   6.294
 5080POPC   C2B66488  20.375   0.242   6.706
 5080POPC   C3B66489  20.392   0.355   7.110
 5080POPC   C4B66490  20.645   0.116   7.370
 5081POPC   NC366491  19.742  15.569   5.545
 5081POPC   PO466492  20.172  16.149   5.415
 5081POPC   GL166493  20.042  15.871   5.820
 5081POPC   GL266494  19.735  15.850   5.967
 5081POPC   C1A66495  20.068  15.679   6.283
 5081POPC   D2A66496  19.853  15.652   6.695
 5081POPC   C3A66497  20.110  15.639   7.033
 5081POPC   C4A66498  20.027  15.923   7.388
 5081POPC   C1B66499  19.428  16.023   6.220
 5081POPC   C2B66500  19.463  15.995   6.629
 5081POPC   C3B66501  19.582  16.078   7.024
 5081POPC   C4B66502  19.213  16.221   7.182
 5082POPC   NC366503  14.516  28.000   5.457
 5082POPC   PO466504  14.206  28.630   5.550
 5082POPC   GL166505  14.503  28.383   5.822
 5082POPC   GL266506  14.237  28.144   5.868
 5082POPC   C1A66507  14.644  28.144   6.218
 5082POPC   D2A66508  14.500  27.989   6.639
 5082POPC   C3A66509  14.434  28.338   6.922
 5082POPC   C4A66510  14.477  28.512   7.318
 5082POPC   C1B66511  14.180  28.364   6.232
 5082POPC   C2B66512  14.032  28.252   6.603
 5082POPC   C3B66513  13.925  28.395   6.990
 5082POPC   C4B66514  14.059  28.234   7.364
 5083POPC   NC366515  40.020  25.889   5.574
 5083POPC   PO466516  39.539  26.399   5.733
 5083POPC   GL166517  39.861  26.155   5.971
 5083POPC   GL266518  40.206  26.228   5.880
 5083POPC   C1A66519  40.066  25.857   6.249
 5083POPC   D2A66520  40.140  26.020   6.648
 5083POPC   C3A66521  40.323  25.817   6.959
 5083POPC   C4A66522  40.078  25.737   7.315
 5083POPC   C1B66523  40.293  26.333   6.268
 5083POPC   C2B66524  40.584  26.265   6.609
 5083POPC   C3B66525  40.568  26.291   7.028
 5083POPC   C4B66526  40.316  26.195   7.347
 5084POPC   NC366527  31.893   5.450   5.561
 5084POPC   PO466528  31.554   4.851   5.324
 5084POPC   GL166529  31.371   5.013   5.760
 5084POPC   GL266530  31.035   5.222   5.780
 5084POPC   C1A66531  31.500   4.964   6.219
 5084POPC   D2A66532  31.782   4.960   6.608
 5084POPC   C3A66533  31.530   5.009   6.966
 5084POPC   C4A66534  31.158   4.931   7.195
 5084POPC   C1B66535  31.256   5.430   6.123
 5084POPC   C2B66536  31.424   5.383   6.556
 5084POPC   C3B66537  31.314   5.504   6.986
 5084POPC   C4B66538  31.519   5.344   7.358
 5085POPC   NC366539  39.005  14.520   5.405
 5085POPC   PO466540  39.420  14.042   5.408
 5085POPC   GL166541  39.118  14.186   5.773
 5085POPC   GL266542  39.313  14.430   5.797
 5085POPC   C1A66543  39.073  14.359   6.230
 5085POPC   D2A66544  39.321  14.198   6.599
 5085POPC   C3A66545  39.253  14.379   6.984
 5085POPC   C4A66546  38.882  14.530   7.195
 5085POPC   C1B66547  39.559  14.318   6.153
 5085POPC   C2B66548  39.686  14.546   6.524
 5085POPC   C3B66549  39.724  14.663   6.952
 5085POPC   C4B66550  39.587  14.465   7.361
 5086POPC   NC366551  31.225   5.219   5.296
 5086POPC   PO466552  30.605   4.954   5.362
 5086POPC   GL166553  30.552   5.034   5.758
 5086POPC   GL266554  30.457   5.370   5.790
 5086POPC   C1A66555  30.574   4.787   6.116
 5086POPC   D2A66556  30.670   4.933   6.501
 5086POPC   C3A66557  30.467   4.821   6.854
 5086POPC   C4A66558  30.704   4.703   7.173
 5086POPC   C1B66559  30.723   5.398   6.172
 5086POPC   C2B66560  30.898   5.381   6.594
 5086POPC   C3B66561  30.786   5.236   7.034
 5086POPC   C4B66562  31.005   5.343   7.439
 5087POPC   NC366563   2.476  16.101   5.399
 5087POPC   PO466564   3.083  15.873   5.261
 5087POPC   GL166565   2.894  16.000   5.690
 5087POPC   GL266566   2.611  15.815   5.819
 5087POPC   C1A66567   2.769  16.177   6.145
 5087POPC   D2A66568   2.475  16.034   6.496
 5087POPC   C3A66569   2.583  15.922   6.934
 5087POPC   C4A66570   2.912  16.052   7.236
 5087POPC   C1B66571   2.982  15.714   6.104
 5087POPC   C2B66572   3.023  15.841   6.559
 5087POPC   C3B66573   3.023  15.618   6.955
 5087POPC   C4B66574   3.184  15.641   7.366
 5088POPC   NC366575  19.929  27.017   5.412
 5088POPC   PO466576  19.939  26.379   5.188
 5088POPC   GL166577  19.646  26.618   5.605
 5088POPC   GL266578  19.613  26.991   5.802
 5088POPC   C1A66579  19.563  26.586   6.079
 5088POPC   D2A66580  19.586  26.831   6.480
 5088POPC   C3A66581  19.808  26.674   6.849
 5088POPC   C4A66582  19.737  26.705   7.292
 5088POPC   C1B66583  19.952  26.962   6.136
 5088POPC   C2B66584  20.190  27.173   6.478
 5088POPC   C3B66585  20.017  27.157   6.892
 5088POPC   C4B66586  20.142  27.025   7.290
 5089POPC   NC366587  19.624  31.402   5.419
 5089POPC   PO466588  20.231  31.494   5.398
 5089POPC   GL166589  20.189  31.439   5.868
 5089POPC   GL266590  19.854  31.473   5.907
 5089POPC   C1A66591  20.077  31.743   6.251
 5089POPC   D2A66592  19.937  31.799   6.671
 5089POPC   C3A66593  20.043  31.445   6.957
 5089POPC   C4A66594  19.965  31.497   7.392
 5089POPC   C1B66595  19.622  31.501   6.291
 5089POPC   C2B66596  19.598  31.375   6.713
 5089POPC   C3B66597  19.473  31.478   7.151
 5089POPC   C4B66598  19.478  31.506   7.623
 5090POPC   NC366599   3.221  16.314   5.368
 5090POPC   PO466600   3.665  15.821   5.504
 5090POPC   GL166601   3.392  15.993   5.780
 5090POPC   GL266602   3.623  16.250   5.831
 5090POPC   C1A66603   3.313  16.114   6.227
 5090POPC   D2A66604   3.544  15.988   6.610
 5090POPC   C3A66605   3.393  16.021   7.036
 5090POPC   C4A66606   3.615  15.871   7.422
 5090POPC   C1B66607   3.802  16.309   6.253
 5090POPC   C2B66608   3.644  16.498   6.630
 5090POPC   C3B66609   3.745  16.420   7.046
 5090POPC   C4B66610   3.493  16.357   7.416
 5091POPC   NC366611   0.404  39.477   5.218
 5091POPC   PO466612   0.521  38.991   5.667
 5091POPC   GL166613   0.607  39.337   5.869
 5091POPC   GL266614   0.293  39.523   5.795
 5091POPC   C1A66615   0.686  39.286   6.313
 5091POPC   D2A66616   0.451  39.262   6.689
 5091POPC   C3A66617   0.584  39.109   7.108
 5091POPC   C4A66618   0.704  38.975   7.537
 5091POPC   C1B66619   0.194  39.233   6.169
 5091POPC   C2B66620  44.997  39.008   6.505
 5091POPC   C3B66621   0.096  39.020   6.938
 5091POPC   C4B66622   0.146  39.355   7.234
 5092POPC   NC366623  37.956  35.321   5.531
 5092POPC   PO466624  37.433  35.631   5.760
 5092POPC   GL166625  37.794  35.461   5.985
 5092POPC   GL266626  37.923  35.089   5.982
 5092POPC   C1A66627  37.711  35.319   6.373
 5092POPC   D2A66628  37.366  35.309   6.602
 5092POPC   C3A66629  37.476  35.476   6.981
 5092POPC   C4A66630  37.869  35.660   7.139
 5092POPC   C1B66631  38.076  34.955   6.390
 5092POPC   C2B66632  37.997  35.241   6.784
 5092POPC   C3B66633  37.839  35.148   7.181
 5092POPC   C4B66634  37.973  34.923   7.530
 5093POPC   NC366635  28.790   5.343   5.587
 5093POPC   PO466636  28.166   5.032   5.500
 5093POPC   GL166637  28.494   4.924   5.809
 5093POPC   GL266638  28.494   5.241   5.976
 5093POPC   C1A66639  28.691   4.872   6.252
 5093POPC   D2A66640  28.537   5.071   6.617
 5093POPC   C3A66641  28.335   4.826   6.918
 5093POPC   C4A66642  28.473   4.777   7.336
 5093POPC   C1B66643  28.191   5.004   6.229
 5093POPC   C2B66644  28.035   5.233   6.591
 5093POPC   C3B66645  27.902   5.197   6.992
 5093POPC   C4B66646  28.216   5.190   7.268
 5094POPC   NC366647  42.959  28.929   5.472
 5094POPC   PO466648  43.319  29.348   5.132
 5094POPC   GL166649  43.361  29.240   5.630
 5094POPC   GL266650  43.040  29.282   5.846
 5094POPC   C1A66651  43.429  29.086   6.112
 5094POPC   D2A66652  43.513  29.249   6.557
 5094POPC   C3A66653  43.161  29.234   6.838
 5094POPC   C4A66654  43.151  29.181   7.282
 5094POPC   C1B66655  42.968  29.189   6.314
 5094POPC   C2B66656  42.759  28.951   6.651
 5094POPC   C3B66657  42.663  29.153   7.024
 5094POPC   C4B66658  42.806  29.550   7.253
 5095POPC   NC366659  18.026   3.495   5.003
 5095POPC   PO466660  18.504   3.218   5.428
 5095POPC   GL166661  18.262   3.390   5.745
 5095POPC   GL266662  17.918   3.518   5.677
 5095POPC   C1A66663  18.292   3.681   6.084
 5095POPC   D2A66664  18.322   3.480   6.491
 5095POPC   C3A66665  18.270   3.771   6.803
 5095POPC   C4A66666  18.322   3.777   7.254
 5095POPC   C1B66667  17.880   3.390   6.118
 5095POPC   C2B66668  17.847   3.401   6.559
 5095POPC   C3B66669  18.111   3.319   6.952
 5095POPC   C4B66670  18.084   3.350   7.416
 5096POPC   NC366671  33.911  36.871   5.421
 5096POPC   PO466672  33.289  36.765   5.113
 5096POPC   GL166673  33.404  36.904   5.646
 5096POPC   GL266674  33.665  37.134   5.786
 5096POPC   C1A66675  33.391  36.899   6.139
 5096POPC   D2A66676  33.675  37.081   6.501
 5096POPC   C3A66677  33.750  36.890   6.938
 5096POPC   C4A66678  33.857  37.095   7.336
 5096POPC   C1B66679  33.914  36.855   6.090
 5096POPC   C2B66680  34.039  36.674   6.511
 5096POPC   C3B66681  34.240  36.613   6.930
 5096POPC   C4B66682  34.129  36.670   7.358
 5097POPC   NC366683  12.073   5.167   5.183
 5097POPC   PO466684  11.736   5.008   5.471
 5097POPC   GL166685  12.083   5.178   5.730
 5097POPC   GL266686  11.962   5.458   5.887
 5097POPC   C1A66687  12.292   5.152   6.173
 5097POPC   D2A66688  12.196   5.143   6.646
 5097POPC   C3A66689  12.324   4.931   7.055
 5097POPC   C4A66690  12.325   4.718   7.471
 5097POPC   C1B66691  11.829   5.346   6.317
 5097POPC   C2B66692  11.802   5.453   6.762
 5097POPC   C3B66693  11.885   5.254   7.151
 5097POPC   C4B66694  11.727   5.306   7.591
 5098POPC   NC366695  44.781  35.267   5.167
 5098POPC   PO466696  44.499  35.714   5.577
 5098POPC   GL166697  44.598  35.386   5.844
 5098POPC   GL266698  44.940  35.285   6.014
 5098POPC   C1A66699  44.499  35.228   6.248
 5098POPC   D2A66700  44.778  35.075   6.551
 5098POPC   C3A66701  44.734  35.219   6.959
 5098POPC   C4A66702  44.385  35.228   7.208
 5098POPC   C1B66703  44.819  35.637   6.288
 5098POPC   C2B66704  44.774  35.707   6.716
 5098POPC   C3B66705  44.622  35.692   7.132
 5098POPC   C4B66706  44.877  35.568   7.474
 5099POPC   NC366707  42.466  21.108   5.221
 5099POPC   PO466708  42.266  20.488   5.357
 5099POPC   GL166709  42.414  20.603   5.778
 5099POPC   GL266710  42.661  20.871   5.657
 5099POPC   C1A66711  42.355  20.618   6.264
 5099POPC   D2A66712  42.275  20.827   6.668
 5099POPC   C3A66713  42.089  20.630   7.059
 5099POPC   C4A66714  42.065  20.673   7.540
 5099POPC   C1B66715  42.700  20.947   6.104
 5099POPC   C2B66716  42.780  20.786   6.541
 5099POPC   C3B66717  42.662  20.605   6.931
 5099POPC   C4B66718  42.513  20.740   7.317
 5100POPC   NC366719   0.921  31.731   5.545
 5100POPC   PO466720   0.985  32.414   5.440
 5100POPC   GL166721   1.129  32.487   5.798
 5100POPC   GL266722   1.199  32.179   5.861
 5100POPC   C1A66723   1.039  32.628   6.177
 5100POPC   D2A66724   1.291  32.640   6.529
 5100POPC   C3A66725   1.174  32.405   6.870
 5100POPC   C4A66726   1.308  32.449   7.274
 5100POPC   C1B66727   1.283  32.177   6.300
 5100POPC   C2B66728   1.389  31.976   6.686
 5100POPC   C3B66729   1.154  31.883   7.036
 5100POPC   C4B66730   1.248  31.969   7.443
 5101POPC   NC366731  25.625  14.389   5.310
 5101POPC   PO466732  24.986  14.233   5.274
 5101POPC   GL166733  25.228  14.228   5.691
 5101POPC   GL266734  25.548  14.149   5.795
 5101POPC   C1A66735  25.124  14.273   6.151
 5101POPC   D2A66736  25.028  14.571   6.480
 5101POPC   C3A66737  25.076  14.449   6.889
 5101POPC   C4A66738  25.107  14.414   7.316
 5101POPC   C1B66739  25.640  14.320   6.202
 5101POPC   C2B66740  25.450  14.255   6.609
 5101POPC   C3B66741  25.598  14.362   7.044
 5101POPC   C4B66742  25.545  14.204   7.481
 5102POPC   NC366743  43.385  19.980   5.375
 5102POPC   PO466744  42.853  19.735   5.287
 5102POPC   GL166745  42.934  19.879   5.757
 5102POPC   GL266746  43.237  20.060   5.877
 5102POPC   C1A66747  43.043  19.736   6.215
 5102POPC   D2A66748  42.909  19.561   6.627
 5102POPC   C3A66749  43.030  19.728   7.055
 5102POPC   C4A66750  43.069  19.613   7.507
 5102POPC   C1B66751  43.438  20.074   6.255
 5102POPC   C2B66752  43.303  19.928   6.636
 5102POPC   C3B66753  43.480  19.974   7.013
 5102POPC   C4B66754  43.293  20.063   7.416
 5103POPC   NC366755   4.875  18.263   5.549
 5103POPC   PO466756   5.472  17.953   5.596
 5103POPC   GL166757   5.220  18.157   5.937
 5103POPC   GL266758   5.286  18.531   5.977
 5103POPC   C1A66759   5.090  18.165   6.382
 5103POPC   D2A66760   4.955  18.458   6.709
 5103POPC   C3A66761   5.286  18.443   6.994
 5103POPC   C4A66762   5.377  18.075   7.206
 5103POPC   C1B66763   4.902  18.659   6.179
 5103POPC   C2B66764   4.686  18.861   6.507
 5103POPC   C3B66765   4.620  18.845   6.916
 5103POPC   C4B66766   4.824  18.634   7.200
 5104POPC   NC366767  17.134  24.355   5.360
 5104POPC   PO466768  17.782  24.550   5.383
 5104POPC   GL166769  17.587  24.592   5.803
 5104POPC   GL266770  17.269  24.797   5.834
 5104POPC   C1A66771  17.489  24.642   6.271
 5104POPC   D2A66772  17.164  24.468   6.579
 5104POPC   C3A66773  17.330  24.303   6.966
 5104POPC   C4A66774  17.703  24.371   7.230
 5104POPC   C1B66775  17.290  25.117   6.195
 5104POPC   C2B66776  17.349  24.998   6.630
 5104POPC   C3B66777  17.210  24.805   6.994
 5104POPC   C4B66778  17.098  24.720   7.407
 5105POPC   NC366779  12.212  39.618   5.162
 5105POPC   PO466780  12.060  38.913   5.234
 5105POPC   GL166781  12.088  39.156   5.685
 5105POPC   GL266782  11.829  39.436   5.807
 5105POPC   C1A66783  12.182  39.227   6.141
 5105POPC   D2A66784  12.383  39.389   6.539
 5105POPC   C3A66785  12.268  39.208   6.947
 5105POPC   C4A66786  11.951  39.120   7.261
 5105POPC   C1B66787  11.694  39.368   6.257
 5105POPC   C2B66788  11.774  39.294   6.713
 5105POPC   C3B66789  11.717  39.577   7.051
 5105POPC   C4B66790  11.791  39.553   7.502
 5106POPC   NC366791  25.400   2.506   5.518
 5106POPC   PO466792  25.239   1.851   5.278
 5106POPC   GL166793  25.119   1.777   5.719
 5106POPC   GL266794  25.214   2.108   5.848
 5106POPC   C1A66795  25.169   1.718   6.185
 5106POPC   D2A66796  25.361   1.936   6.542
 5106POPC   C3A66797  25.146   1.836   6.941
 5106POPC   C4A66798  24.840   1.857   7.275
 5106POPC   C1B66799  24.986   2.181   6.249
 5106POPC   C2B66800  25.042   2.318   6.662
 5106POPC   C3B66801  25.116   2.322   7.111
 5106POPC   C4B66802  25.468   2.443   7.437
 5107POPC   NC366803   7.682   4.156   5.474
 5107POPC   PO466804   8.447   4.302   5.405
 5107POPC   GL166805   8.157   4.251   5.674
 5107POPC   GL266806   8.035   4.562   5.695
 5107POPC   C1A66807   8.020   4.133   6.050
 5107POPC   D2A66808   8.143   4.083   6.452
 5107POPC   C3A66809   7.975   4.302   6.810
 5107POPC   C4A66810   8.075   4.143   7.204
 5107POPC   C1B66811   8.313   4.548   6.099
 5107POPC   C2B66812   8.416   4.510   6.565
 5107POPC   C3B66813   8.380   4.568   7.007
 5107POPC   C4B66814   8.002   4.643   7.243
 5108POPC   NC366815  28.171  39.275   5.792
 5108POPC   PO466816  28.592  39.654   5.316
 5108POPC   GL166817  28.689  39.466   5.793
 5108POPC   GL266818  28.757  39.089   5.815
 5108POPC   C1A66819  28.603  39.311   6.261
 5108POPC   D2A66820  28.335  39.061   6.556
 5108POPC   C3A66821  28.352  39.190   6.996
 5108POPC   C4A66822  28.284  39.453   7.368
 5108POPC   C1B66823  28.983  38.956   6.221
 5108POPC   C2B66824  28.842  39.002   6.637
 5108POPC   C3B66825  28.875  39.038   7.069
 5108POPC   C4B66826  28.628  39.067   7.425
 5109POPC   NC366827  19.943   8.222   5.621
 5109POPC   PO466828  20.613   8.188   5.478
 5109POPC   GL166829  20.402   8.229   5.851
 5109POPC   GL266830  20.261   7.925   5.932
 5109POPC   C1A66831  20.239   8.319   6.273
 5109POPC   D2A66832  20.344   8.514   6.661
 5109POPC   C3A66833  20.461   8.338   7.034
 5109POPC   C4A66834  20.278   8.203   7.381
 5109POPC   C1B66835  20.589   7.941   6.236
 5109POPC   C2B66836  20.669   8.033   6.671
 5109POPC   C3B66837  20.559   7.811   7.063
 5109POPC   C4B66838  20.579   7.781   7.505
 5110POPC   NC366839  33.065   4.584   5.426
 5110POPC   PO466840  33.434   4.064   5.458
 5110POPC   GL166841  33.194   4.245   5.804
 5110POPC   GL266842  33.322   4.576   5.902
 5110POPC   C1A66843  32.939   4.256   6.174
 5110POPC   D2A66844  33.008   4.223   6.609
 5110POPC   C3A66845  32.734   4.362   6.901
 5110POPC   C4A66846  32.711   4.346   7.306
 5110POPC   C1B66847  33.337   4.543   6.361
 5110POPC   C2B66848  33.387   4.515   6.823
 5110POPC   C3B66849  33.213   4.270   7.122
 5110POPC   C4B66850  33.306   4.045   7.491
 5111POPC   NC366851  42.005   0.558   5.487
 5111POPC   PO466852  42.644   0.241   5.511
 5111POPC   GL166853  42.660   0.510   5.851
 5111POPC   GL266854  42.332   0.680   5.899
 5111POPC   C1A66855  42.576   0.432   6.270
 5111POPC   D2A66856  42.330   0.698   6.508
 5111POPC   C3A66857  42.504   0.706   6.917
 5111POPC   C4A66858  42.569   0.293   7.043
 5111POPC   C1B66859  42.107   0.371   6.160
 5111POPC   C2B66860  42.210   0.197   6.586
 5111POPC   C3B66861  42.070   0.430   6.937
 5111POPC   C4B66862  41.776   0.313   7.216
 5112POPC   NC366863  35.418  31.083   5.571
 5112POPC   PO466864  35.031  30.624   5.398
 5112POPC   GL166865  35.099  30.586   5.805
 5112POPC   GL266866  34.807  30.525   5.943
 5112POPC   C1A66867  35.388  30.635   6.138
 5112POPC   D2A66868  35.408  30.974   6.449
 5112POPC   C3A66869  35.560  30.834   6.863
 5112POPC   C4A66870  35.684  30.687   7.284
 5112POPC   C1B66871  34.922  30.634   6.365
 5112POPC   C2B66872  35.249  30.496   6.635
 5112POPC   C3B66873  35.280  30.411   7.073
 5112POPC   C4B66874  35.108  30.670   7.400
 5113POPC   NC366875  38.325  14.634   5.465
 5113POPC   PO466876  38.720  14.101   5.462
 5113POPC   GL166877  38.632  14.387   5.813
 5113POPC   GL266878  38.291  14.280   5.857
 5113POPC   C1A66879  38.583  14.303   6.287
 5113POPC   D2A66880  38.801  14.388   6.688
 5113POPC   C3A66881  38.623  14.130   7.005
 5113POPC   C4A66882  38.313  14.326   7.245
 5113POPC   C1B66883  38.075  14.350   6.265
 5113POPC   C2B66884  38.159  14.384   6.724
 5113POPC   C3B66885  38.027  14.684   7.070
 5113POPC   C4B66886  38.077  14.673   7.529
 5114POPC   NC366887  41.803  30.547   5.086
 5114POPC   PO466888  41.290  30.571   5.539
 5114POPC   GL166889  41.432  30.657   5.912
 5114POPC   GL266890  41.636  30.922   5.830
 5114POPC   C1A66891  41.363  30.504   6.306
 5114POPC   D2A66892  41.155  30.728   6.647
 5114POPC   C3A66893  41.393  30.752   7.020
 5114POPC   C4A66894  41.331  30.532   7.403
 5114POPC   C1B66895  41.424  31.020   6.261
 5114POPC   C2B66896  41.384  31.215   6.689
 5114POPC   C3B66897  41.203  31.222   7.123
 5114POPC   C4B66898  41.421  31.022   7.475
 5115POPC   NC366899  19.169   1.204   5.526
 5115POPC   PO466900  19.828   1.238   5.265
 5115POPC   GL166901  19.751   1.324   5.710
 5115POPC   GL266902  19.775   0.977   5.781
 5115POPC   C1A66903  19.898   1.358   6.175
 5115POPC   D2A66904  20.024   1.517   6.622
 5115POPC   C3A66905  20.001   1.204   6.977
 5115POPC   C4A66906  19.959   0.751   7.076
 5115POPC   C1B66907  19.506   1.003   6.136
 5115POPC   C2B66908  19.693   1.038   6.552
 5115POPC   C3B66909  19.499   0.972   6.943
 5115POPC   C4B66910  19.473   1.321   7.170
 5116POPC   NC366911  40.820  11.708   5.371
 5116POPC   PO466912  40.610  12.273   5.213
 5116POPC   GL166913  40.740  12.151   5.669
 5116POPC   GL266914  40.660  11.805   5.853
 5116POPC   C1A66915  40.828  12.172   6.160
 5116POPC   D2A66916  40.721  12.024   6.614
 5116POPC   C3A66917  40.789  12.239   7.069
 5116POPC   C4A66918  40.616  12.495   7.459
 5116POPC   C1B66919  40.902  11.652   6.272
 5116POPC   C2B66920  40.871  11.560   6.761
 5116POPC   C3B66921  40.597  11.774   7.078
 5116POPC   C4B66922  40.667  11.976   7.491
 5117POPC   NC366923   4.485  33.558   5.469
 5117POPC   PO466924   5.186  33.635   5.361
 5117POPC   GL166925   5.082  33.800   5.752
 5117POPC   GL266926   4.775  34.021   5.759
 5117POPC   C1A66927   5.308  33.812   6.127
 5117POPC   D2A66928   5.147  33.759   6.516
 5117POPC   C3A66929   5.324  33.877   6.880
 5117POPC   C4A66930   5.022  33.890   7.214
 5117POPC   C1B66931   4.849  34.089   6.237
 5117POPC   C2B66932   4.861  34.179   6.710
 5117POPC   C3B66933   4.589  34.154   7.097
 5117POPC   C4B66934   4.703  34.106   7.553
 5118POPC   NC366935  27.302  14.211   5.338
 5118POPC   PO466936  27.765  14.734   5.536
 5118POPC   GL166937  27.636  14.337   5.710
 5118POPC   GL266938  27.308  14.494   5.782
 5118POPC   C1A66939  27.571  14.194   6.146
 5118POPC   D2A66940  27.663  14.510   6.460
 5118POPC   C3A66941  27.681  14.451   6.891
 5118POPC   C4A66942  27.708  14.655   7.260
 5118POPC   C1B66943  27.121  14.465   6.215
 5118POPC   C2B66944  27.184  14.385   6.660
 5118POPC   C3B66945  27.255  14.683   7.010
 5118POPC   C4B66946  27.212  14.732   7.426
 5119POPC   NC366947  34.130  29.824   5.548
 5119POPC   PO466948  34.864  29.978   5.468
 5119POPC   GL166949  34.683  29.846   5.810
 5119POPC   GL266950  34.529  30.120   5.853
 5119POPC   C1A66951  34.546  29.780   6.231
 5119POPC   D2A66952  34.767  29.745   6.600
 5119POPC   C3A66953  34.497  29.676   6.900
 5119POPC   C4A66954  34.602  29.702   7.279
 5119POPC   C1B66955  34.423  30.287   6.253
 5119POPC   C2B66956  34.316  30.113   6.655
 5119POPC   C3B66957  34.406  30.172   7.050
 5119POPC   C4B66958  34.703  30.456   7.177
 5120POPC   NC366959   4.910  16.549   5.487
 5120POPC   PO466960   4.342  16.953   5.454
 5120POPC   GL166961   4.551  16.847   5.865
 5120POPC   GL266962   4.685  16.479   5.925
 5120POPC   C1A66963   4.373  16.691   6.273
 5120POPC   D2A66964   4.160  16.500   6.634
 5120POPC   C3A66965   4.162  16.775   6.991
 5120POPC   C4A66966   4.423  16.720   7.362
 5120POPC   C1B66967   4.645  16.248   6.328
 5120POPC   C2B66968   4.545  16.148   6.759
 5120POPC   C3B66969   4.725  16.348   7.122
 5120POPC   C4B66970   4.704  16.331   7.562
 5121POPC   NC366971  36.954  16.781   5.359
 5121POPC   PO466972  36.318  16.762   5.191
 5121POPC   GL166973  36.557  16.745   5.660
 5121POPC   GL266974  36.775  17.044   5.755
 5121POPC   C1A66975  36.837  16.668   6.095
 5121POPC   D2A66976  37.127  16.497   6.443
 5121POPC   C3A66977  37.014  16.324   6.857
 5121POPC   C4A66978  37.033  16.599   7.234
 5121POPC   C1B66979  37.012  17.152   6.150
 5121POPC   C2B66980  36.951  16.979   6.561
 5121POPC   C3B66981  36.807  17.016   6.982
 5121POPC   C4B66982  36.984  17.086   7.398
 5122POPC   NC366983   2.678  21.685   5.533
 5122POPC   PO466984   2.759  22.271   5.460
 5122POPC   GL166985   2.910  22.337   5.886
 5122POPC   GL266986   2.681  22.059   5.948
 5122POPC   C1A66987   2.939  22.231   6.363
 5122POPC   D2A66988   2.710  22.394   6.703
 5122POPC   C3A66989   2.843  22.539   7.104
 5122POPC   C4A66990   2.689  22.400   7.502
 5122POPC   C1B66991   2.520  21.917   6.354
 5122POPC   C2B66992   2.741  21.884   6.738
 5122POPC   C3B66993   2.720  22.040   7.136
 5122POPC   C4B66994   2.916  21.950   7.519
 5123POPC   NC366995  11.488  14.047   5.430
 5123POPC   PO466996  12.125  14.240   5.366
 5123POPC   GL166997  12.068  14.224   5.764
 5123POPC   GL266998  12.350  14.035   5.846
 5123POPC   C1A66999  11.844  14.308   6.146
 5123POPC   D2A67000  12.009  14.216   6.552
 5123POPC   C3A67001  11.919  14.332   6.937
 5123POPC   C4A67002  11.769  14.446   7.329
 5123POPC   C1B67003  12.357  14.257   6.184
 5123POPC   C2B67004  12.497  14.314   6.554
 5123POPC   C3B67005  12.418  14.195   6.935
 5123POPC   C4B67006  12.307  14.407   7.286
 5124POPC   NC367007  38.572  41.178   5.379
 5124POPC   PO467008  38.432  40.537   5.480
 5124POPC   GL167009  38.602  40.635   5.859
 5124POPC   GL267010  38.657  41.010   5.879
 5124POPC   C1A67011  38.550  40.656   6.280
 5124POPC   D2A67012  38.613  41.002   6.530
 5124POPC   C3A67013  38.360  40.890   6.848
 5124POPC   C4A67014  38.530  40.812   7.212
 5124POPC   C1B67015  38.313  41.154   6.142
 5124POPC   C2B67016  38.130  41.256   6.524
 5124POPC   C3B67017  38.034  41.307   6.922
 5124POPC   C4B67018  38.193  41.176   7.292
 5125POPC   NC367019  44.605  41.841   5.472
 5125POPC   PO467020  44.843  41.196   5.501
 5125POPC   GL167021  44.698  41.451   5.802
 5125POPC   GL267022  44.349  41.461   5.766
 5125POPC   C1A67023  44.676  41.423   6.229
 5125POPC   D2A67024  44.975  41.556   6.537
 5125POPC   C3A67025  44.765  41.540   6.891
 5125POPC   C4A67026  44.736  41.533   7.306
 5125POPC   C1B67027  44.382  41.823   6.082
 5125POPC   C2B67028  44.492  41.794   6.525
 5125POPC   C3B67029  44.386  41.901   6.946
 5125POPC   C4B67030  44.194  42.106   7.305
 5126POPC   NC367031  27.167  39.589   5.423
 5126POPC   PO467032  27.808  39.212   5.485
 5126POPC   GL167033  27.600  39.121   5.868
 5126POPC   GL267034  27.217  39.048   5.803
 5126POPC   C1A67035  27.723  39.180   6.305
 5126POPC   D2A67036  27.859  39.177   6.715
 5126POPC   C3A67037  27.883  39.420   7.048
 5126POPC   C4A67038  27.786  39.246   7.426
 5126POPC   C1B67039  27.216  39.283   6.208
 5126POPC   C2B67040  27.331  39.083   6.621
 5126POPC   C3B67041  27.465  39.054   7.050
 5126POPC   C4B67042  27.379  38.862   7.443
 5127POPC   NC367043   4.176  33.078   5.197
 5127POPC   PO467044   4.171  33.841   5.266
 5127POPC   GL167045   4.231  33.988   5.700
 5127POPC   GL267046   4.191  33.680   5.875
 5127POPC   C1A67047   4.346  34.050   6.150
 5127POPC   D2A67048   4.249  33.700   6.445
 5127POPC   C3A67049   4.128  33.687   6.887
 5127POPC   C4A67050   4.125  33.890   7.270
 5127POPC   C1B67051   4.636  33.628   6.089
 5127POPC   C2B67052   4.724  33.491   6.492
 5127POPC   C3B67053   4.642  33.718   6.835
 5127POPC   C4B67054   4.572  33.627   7.255
 5128POPC   NC367055  19.491  33.133   5.032
 5128POPC   PO467056  18.939  33.193   5.310
 5128POPC   GL167057  18.885  33.090   5.734
 5128POPC   GL267058  18.858  32.753   5.895
 5128POPC   C1A67059  18.881  33.288   6.123
 5128POPC   D2A67060  19.009  33.188   6.539
 5128POPC   C3A67061  19.300  33.352   6.833
 5128POPC   C4A67062  19.191  33.248   7.229
 5128POPC   C1B67063  19.265  32.909   6.102
 5128POPC   C2B67064  19.452  32.922   6.535
 5128POPC   C3B67065  19.210  32.848   6.889
 5128POPC   C4B67066  18.946  32.773   7.217
 5129POPC   NC367067  25.357  32.517   5.674
 5129POPC   PO467068  24.850  32.536   5.326
 5129POPC   GL167069  24.886  32.367   5.780
 5129POPC   GL267070  25.154  32.062   5.772
 5129POPC   C1A67071  25.070  32.392   6.214
 5129POPC   D2A67072  25.484  32.260   6.365
 5129POPC   C3A67073  25.532  32.258   6.808
 5129POPC   C4A67074  25.424  32.602   7.126
 5129POPC   C1B67075  25.168  31.893   6.183
 5129POPC   C2B67076  25.049  32.079   6.604
 5129POPC   C3B67077  25.099  32.181   7.053
 5129POPC   C4B67078  25.066  31.970   7.451
 5130POPC   NC367079  33.982   7.783   5.516
 5130POPC   PO467080  33.747   8.383   5.427
 5130POPC   GL167081  33.639   8.187   5.766
 5130POPC   GL267082  33.518   7.885   5.688
 5130POPC   C1A67083  33.746   8.300   6.177
 5130POPC   D2A67084  33.979   8.173   6.524
 5130POPC   C3A67085  33.777   8.340   6.889
 5130POPC   C4A67086  33.874   8.162   7.262
 5130POPC   C1B67087  33.598   7.788   6.126
 5130POPC   C2B67088  33.508   7.975   6.514
 5130POPC   C3B67089  33.555   7.865   6.953
 5130POPC   C4B67090  33.636   7.690   7.345
 5131POPC   NC367091   8.978  38.158   5.474
 5131POPC   PO467092   9.477  38.634   5.466
 5131POPC   GL167093   9.067  38.616   5.768
 5131POPC   GL267094   8.881  38.314   5.932
 5131POPC   C1A67095   8.822  38.756   6.166
 5131POPC   D2A67096   9.046  38.812   6.588
 5131POPC   C3A67097   8.870  38.605   6.948
 5131POPC   C4A67098   9.064  38.326   7.222
 5131POPC   C1B67099   9.211  38.429   6.221
 5131POPC   C2B67100   9.182  38.312   6.627
 5131POPC   C3B67101   9.097  37.976   6.845
 5131POPC   C4B67102   9.291  37.849   7.170
 5132POPC   NC367103   8.979  35.787   5.456
 5132POPC   PO467104   9.454  36.267   5.223
 5132POPC   GL167105   9.196  36.380   5.659
 5132POPC   GL267106   8.815  36.368   5.723
 5132POPC   C1A67107   9.136  36.192   6.106
 5132POPC   D2A67108   9.330  36.160   6.519
 5132POPC   C3A67109   9.092  36.029   6.876
 5132POPC   C4A67110   9.204  36.177   7.296
 5132POPC   C1B67111   8.629  36.242   6.153
 5132POPC   C2B67112   8.620  36.004   6.543
 5132POPC   C3B67113   8.611  36.154   6.951
 5132POPC   C4B67114   8.757  35.910   7.286
 5133POPC   NC367115  31.267  15.398   5.340
 5133POPC   PO467116  31.641  14.861   5.205
 5133POPC   GL167117  31.394  14.971   5.650
 5133POPC   GL267118  31.166  15.266   5.802
 5133POPC   C1A67119  31.479  15.011   6.136
 5133POPC   D2A67120  31.694  15.210   6.531
 5133POPC   C3A67121  31.538  15.076   6.961
 5133POPC   C4A67122  31.689  14.720   7.209
 5133POPC   C1B67123  31.123  15.393   6.212
 5133POPC   C2B67124  31.186  15.182   6.598
 5133POPC   C3B67125  31.114  15.404   6.970
 5133POPC   C4B67126  31.132  15.377   7.399
 5134POPC   NC367127  35.534  12.815   5.599
 5134POPC   PO467128  35.302  13.466   5.426
 5134POPC   GL167129  35.299  13.179   5.854
 5134POPC   GL267130  35.086  12.866   5.912
 5134POPC   C1A67131  35.559  12.885   6.219
 5134POPC   D2A67132  35.551  12.652   6.629
 5134POPC   C3A67133  35.455  12.866   7.028
 5134POPC   C4A67134  35.483  13.081   7.447
 5134POPC   C1B67135  35.085  12.754   6.374
 5134POPC   C2B67136  35.086  12.406   6.695
 5134POPC   C3B67137  35.230  12.399   7.108
 5134POPC   C4B67138  35.188  12.461   7.554
 5135POPC   NC367139  37.841   7.981   5.197
 5135POPC   PO467140  37.930   8.406   5.657
 5135POPC   GL167141  37.621   8.187   5.909
 5135POPC   GL267142  37.351   8.445   5.994
 5135POPC   C1A67143  37.758   8.000   6.326
 5135POPC   D2A67144  37.829   7.800   6.725
 5135POPC   C3A67145  37.698   8.048   7.081
 5135POPC   C4A67146  37.893   8.309   7.385
 5135POPC   C1B67147  37.725   8.526   6.278
 5135POPC   C2B67148  37.768   8.407   6.697
 5135POPC   C3B67149  37.575   8.562   7.058
 5135POPC   C4B67150  37.385   8.382   7.404
 5136POPC   NC367151  21.308  12.722   5.459
 5136POPC   PO467152  21.972  12.800   5.368
 5136POPC   GL167153  21.697  12.965   5.762
 5136POPC   GL267154  21.309  13.097   5.804
 5136POPC   C1A67155  21.524  12.828   6.190
 5136POPC   D2A67156  21.290  12.886   6.575
 5136POPC   C3A67157  21.545  12.854   6.922
 5136POPC   C4A67158  21.610  12.994   7.287
 5136POPC   C1B67159  21.139  13.275   6.198
 5136POPC   C2B67160  21.076  13.352   6.630
 5136POPC   C3B67161  21.305  13.329   6.993
 5136POPC   C4B67162  21.202  13.289   7.423
 5137POPC   NC367163  40.313  38.375   5.369
 5137POPC   PO467164  39.662  38.394   5.147
 5137POPC   GL167165  39.733  38.260   5.629
 5137POPC   GL267166  40.083  38.209   5.804
 5137POPC   C1A67167  39.680  38.333   6.091
 5137POPC   D2A67168  39.880  38.573   6.415
 5137POPC   C3A67169  39.887  38.429   6.838
 5137POPC   C4A67170  40.137  38.608   7.171
 5137POPC   C1B67171  40.320  38.256   6.220
 5137POPC   C2B67172  40.619  38.162   6.558
 5137POPC   C3B67173  40.505  38.282   6.975
 5137POPC   C4B67174  40.155  38.105   7.168
 5138POPC   NC367175   9.567  11.792   5.083
 5138POPC   PO467176   9.561  11.267   5.541
 5138POPC   GL167177   9.892  11.456   5.788
 5138POPC   GL267178   9.612  11.555   6.028
 5138POPC   C1A67179  10.078  11.467   6.217
 5138POPC   D2A67180   9.734  11.554   6.530
 5138POPC   C3A67181   9.766  11.318   6.922
 5138POPC   C4A67182   9.951  11.248   7.327
 5138POPC   C1B67183   9.276  11.265   6.205
 5138POPC   C2B67184   9.206  11.323   6.659
 5138POPC   C3B67185   9.296  11.412   7.100
 5138POPC   C4B67186   9.423  11.072   7.358
 5139POPC   NC367187  32.367  38.305   5.264
 5139POPC   PO467188  32.015  38.775   5.530
 5139POPC   GL167189  32.164  38.417   5.789
 5139POPC   GL267190  32.391  38.090   5.836
 5139POPC   C1A67191  32.386  38.481   6.175
 5139POPC   D2A67192  32.401  38.741   6.525
 5139POPC   C3A67193  32.309  38.423   6.814
 5139POPC   C4A67194  32.187  38.343   7.192
 5139POPC   C1B67195  32.590  37.991   6.231
 5139POPC   C2B67196  32.652  38.031   6.685
 5139POPC   C3B67197  32.645  38.078   7.142
 5139POPC   C4B67198  32.357  37.996   7.512
 5140POPC   NC367199   4.949  40.324   5.463
 5140POPC   PO467200   5.380  39.909   5.489
 5140POPC   GL167201   5.122  39.886   5.872
 5140POPC   GL267202   4.866  39.623   5.895
 5140POPC   C1A67203   5.085  40.088   6.304
 5140POPC   D2A67204   4.755  40.185   6.611
 5140POPC   C3A67205   4.829  40.329   7.030
 5140POPC   C4A67206   5.237  40.181   7.040
 5140POPC   C1B67207   4.865  39.628   6.367
 5140POPC   C2B67208   5.074  39.766   6.749
 5140POPC   C3B67209   5.145  39.716   7.192
 5140POPC   C4B67210   5.188  39.569   7.624
 5141POPC   NC367211  18.203  13.377   5.413
 5141POPC   PO467212  18.657  13.832   5.514
 5141POPC   GL167213  18.242  13.746   5.796
 5141POPC   GL267214  18.058  13.438   5.877
 5141POPC   C1A67215  17.940  13.812   6.177
 5141POPC   D2A67216  18.202  13.823   6.509
 5141POPC   C3A67217  18.099  13.636   6.856
 5141POPC   C4A67218  18.284  13.828   7.159
 5141POPC   C1B67219  18.493  13.354   6.032
 5141POPC   C2B67220  18.710  13.320   6.430
 5141POPC   C3B67221  18.540  13.327   6.838
 5141POPC   C4B67222  18.312  13.330   7.219
 5142POPC   NC367223  11.551   3.151   5.451
 5142POPC   PO467224  11.773   2.502   5.452
 5142POPC   GL167225  11.521   2.662   5.823
 5142POPC   GL267226  11.429   2.999   5.924
 5142POPC   C1A67227  11.365   2.576   6.235
 5142POPC   D2A67228  11.426   2.324   6.614
 5142POPC   C3A67229  11.249   2.567   6.963
 5142POPC   C4A67230  11.369   2.920   7.228
 5142POPC   C1B67231  11.097   3.011   6.256
 5142POPC   C2B67232  11.013   2.877   6.656
 5142POPC   C3B67233  10.884   3.010   7.061
 5142POPC   C4B67234  10.975   3.430   7.245
 5143POPC   NC367235   6.560  17.995   5.185
 5143POPC   PO467236   6.958  18.393   5.468
 5143POPC   GL167237   6.777  18.140   5.806
 5143POPC   GL267238   6.589  18.399   6.018
 5143POPC   C1A67239   6.618  17.916   6.186
 5143POPC   D2A67240   6.539  18.140   6.593
 5143POPC   C3A67241   6.810  18.114   6.971
 5143POPC   C4A67242   7.006  18.406   7.294
 5143POPC   C1B67243   6.283  18.697   6.238
 5143POPC   C2B67244   6.166  18.596   6.708
 5143POPC   C3B67245   6.343  18.373   7.036
 5143POPC   C4B67246   6.462  18.542   7.433
 5144POPC   NC367247  28.230  42.632   5.604
 5144POPC   PO467248  28.746  42.280   5.369
 5144POPC   GL167249  28.457  42.170   5.756
 5144POPC   GL267250  28.597  42.385   6.012
 5144POPC   C1A67251  28.197  42.093   6.147
 5144POPC   D2A67252  28.458  42.109   6.528
 5144POPC   C3A67253  28.254  42.055   6.906
 5144POPC   C4A67254  28.128  42.278   7.232
 5144POPC   C1B67255  28.328  42.578   6.342
 5144POPC   C2B67256  28.334  42.612   6.819
 5144POPC   C3B67257  28.498  42.617   7.258
 5144POPC   C4B67258  28.629  42.741   7.667
 5145POPC   NC367259   9.481  34.278   5.502
 5145POPC   PO467260   9.734  34.866   5.183
 5145POPC   GL167261   9.630  34.742   5.665
 5145POPC   GL267262   9.944  34.764   5.829
 5145POPC   C1A67263   9.609  34.502   6.115
 5145POPC   D2A67264   9.353  34.543   6.481
 5145POPC   C3A67265   9.556  34.493   6.860
 5145POPC   C4A67266   9.514  34.335   7.233
 5145POPC   C1B67267  10.084  34.645   6.207
 5145POPC   C2B67268  10.005  34.432   6.603
 5145POPC   C3B67269  10.049  34.593   7.046
 5145POPC   C4B67270   9.915  34.488   7.497
 5146POPC   NC367271  32.547  35.192   5.469
 5146POPC   PO467272  31.931  35.406   5.323
 5146POPC   GL167273  32.217  35.463   5.744
 5146POPC   GL267274  32.345  35.180   5.922
 5146POPC   C1A67275  32.420  35.565   6.204
 5146POPC   D2A67276  32.403  35.307   6.586
 5146POPC   C3A67277  32.482  35.538   6.983
 5146POPC   C4A67278  32.122  35.594   7.264
 5146POPC   C1B67279  32.713  35.089   6.205
 5146POPC   C2B67280  32.714  34.766   6.531
 5146POPC   C3B67281  32.652  34.976   6.924
 5146POPC   C4B67282  32.367  35.122   7.270
 5147POPC   NC367283   7.190  17.983   5.495
 5147POPC   PO467284   7.562  17.354   5.414
 5147POPC   GL167285   7.558  17.620   5.727
 5147POPC   GL267286   7.239  17.548   5.785
 5147POPC   C1A67287   7.669  17.532   6.145
 5147POPC   D2A67288   7.467  17.618   6.507
 5147POPC   C3A67289   7.683  17.699   6.882
 5147POPC   C4A67290   7.695  17.574   7.291
 5147POPC   C1B67291   7.132  17.784   6.137
 5147POPC   C2B67292   6.974  17.806   6.551
 5147POPC   C3B67293   7.186  17.762   6.912
 5147POPC   C4B67294   7.197  17.686   7.323
 5148POPC   NC367295   8.448   4.784   5.457
 5148POPC   PO467296   7.989   5.226   5.435
 5148POPC   GL167297   7.786   5.022   5.792
 5148POPC   GL267298   8.158   5.008   5.898
 5148POPC   C1A67299   7.801   4.787   6.174
 5148POPC   D2A67300   8.098   4.879   6.465
 5148POPC   C3A67301   7.966   4.961   6.851
 5148POPC   C4A67302   7.868   5.151   7.237
 5148POPC   C1B67303   8.395   5.247   6.205
 5148POPC   C2B67304   8.355   5.300   6.663
 5148POPC   C3B67305   8.371   5.175   7.110
 5148POPC   C4B67306   8.660   5.240   7.476
 5149POPC   NC367307  30.200  44.059   5.308
 5149POPC   PO467308  29.734  43.689   5.543
 5149POPC   GL167309  30.076  43.870   5.842
 5149POPC   GL267310  30.286  44.165   5.803
 5149POPC   C1A67311  30.280  43.827   6.295
 5149POPC   D2A67312  30.133  43.772   6.768
 5149POPC   C3A67313  29.725  43.987   6.922
 5149POPC   C4A67314  29.549  44.010   7.357
 5149POPC   C1B67315  30.148  44.311   6.204
 5149POPC   C2B67316  30.313  44.376   6.622
 5149POPC   C3B67317  30.380  44.163   7.000
 5149POPC   C4B67318  30.077  43.998   7.280
 5150POPC   NC367319  34.966   7.631   5.690
 5150POPC   PO467320  34.386   7.616   5.353
 5150POPC   GL167321  34.479   7.267   5.711
 5150POPC   GL267322  34.745   7.226   5.950
 5150POPC   C1A67323  34.329   7.197   6.209
 5150POPC   D2A67324  34.234   7.286   6.664
 5150POPC   C3A67325  34.336   7.238   7.129
 5150POPC   C4A67326  34.130   6.983   7.464
 5150POPC   C1B67327  34.796   7.407   6.356
 5150POPC   C2B67328  34.703   7.432   6.802
 5150POPC   C3B67329  34.909   7.461   7.181
 5150POPC   C4B67330  34.748   7.645   7.535
 5151POPC   NC367331  19.059  32.734   5.395
 5151POPC   PO467332  19.261  32.053   5.299
 5151POPC   GL167333  19.130  32.292   5.656
 5151POPC   GL267334  19.025  32.011   5.821
 5151POPC   C1A67335  19.192  32.389   6.106
 5151POPC   D2A67336  19.089  32.569   6.471
 5151POPC   C3A67337  18.982  32.371   6.864
 5151POPC   C4A67338  18.931  32.278   7.309
 5151POPC   C1B67339  19.067  31.833   6.253
 5151POPC   C2B67340  18.865  31.873   6.692
 5151POPC   C3B67341  18.643  31.927   7.123
 5151POPC   C4B67342  18.692  31.906   7.623
 5152POPC   NC367343  25.069  43.134   5.382
 5152POPC   PO467344  25.755  43.274   5.396
 5152POPC   GL167345  25.516  42.995   5.717
 5152POPC   GL267346  25.165  43.131   5.878
 5152POPC   C1A67347  25.429  42.807   6.150
 5152POPC   D2A67348  25.188  43.015   6.460
 5152POPC   C3A67349  25.347  43.134   6.845
 5152POPC   C4A67350  25.277  42.947   7.222
 5152POPC   C1B67351  24.887  43.348   6.193
 5152POPC   C2B67352  24.803  43.317   6.656
 5152POPC   C3B67353  24.801  43.108   7.091
 5152POPC   C4B67354  24.940  43.097   7.562
 5153POPC   NC367355   4.935  25.310   5.140
 5153POPC   PO467356   5.395  25.679   5.430
 5153POPC   GL167357   5.184  25.383   5.703
 5153POPC   GL267358   5.336  25.033   5.809
 5153POPC   C1A67359   5.173  25.352   6.165
 5153POPC   D2A67360   5.016  25.391   6.595
 5153POPC   C3A67361   5.236  25.428   6.979
 5153POPC   C4A67362   5.250  25.381   7.435
 5153POPC   C1B67363   5.240  24.868   6.282
 5153POPC   C2B67364   5.164  24.926   6.746
 5153POPC   C3B67365   5.288  24.920   7.176
 5153POPC   C4B67366   5.036  24.894   7.543
 5154POPC   NC367367  29.205  30.345   5.443
 5154POPC   PO467368  29.354  31.036   5.483
 5154POPC   GL167369  29.109  30.924   5.836
 5154POPC   GL267370  28.978  30.590   5.811
 5154POPC   C1A67371  29.217  31.018   6.261
 5154POPC   D2A67372  29.455  31.111   6.625
 5154POPC   C3A67373  29.626  30.812   6.915
 5154POPC   C4A67374  29.426  30.662   7.292
 5154POPC   C1B67375  29.184  30.515   6.212
 5154POPC   C2B67376  29.215  30.584   6.677
 5154POPC   C3B67377  29.007  30.459   7.076
 5154POPC   C4B67378  28.896  30.167   7.418
 5155POPC   NC367379   1.979  15.262   5.525
 5155POPC   PO467380   2.408  14.774   5.856
 5155POPC   GL167381   2.249  15.150   5.990
 5155POPC   GL267382   2.224  15.486   5.925
 5155POPC   C1A67383   2.217  15.278   6.430
 5155POPC   D2A67384   2.191  14.988   6.755
 5155POPC   C3A67385   2.165  15.031   7.155
 5155POPC   C4A67386   1.856  14.821   7.365
 5155POPC   C1B67387   1.805  15.349   6.150
 5155POPC   C2B67388   1.727  15.199   6.564
 5155POPC   C3B67389   1.828  15.345   6.963
 5155POPC   C4B67390   1.597  15.540   7.265
 5156POPC   NC367391   1.450  20.936   5.663
 5156POPC   PO467392   0.943  20.578   5.451
 5156POPC   GL167393   1.101  20.611   5.861
 5156POPC   GL267394   1.437  20.438   5.847
 5156POPC   C1A67395   1.230  20.760   6.277
 5156POPC   D2A67396   0.974  20.754   6.632
 5156POPC   C3A67397   1.157  20.866   7.006
 5156POPC   C4A67398   1.346  20.665   7.293
 5156POPC   C1B67399   1.238  20.254   6.224
 5156POPC   C2B67400   1.238  20.137   6.668
 5156POPC   C3B67401   1.071  20.360   6.983
 5156POPC   C4B67402   0.962  20.356   7.407
 5157POPC   NC367403  41.439   6.965   4.843
 5157POPC   PO467404  41.764   6.616   5.401
 5157POPC   GL167405  41.664   6.536   5.818
 5157POPC   GL267406  41.287   6.526   5.834
 5157POPC   C1A67407  41.637   6.719   6.215
 5157POPC   D2A67408  41.433   6.925   6.574
 5157POPC   C3A67409  41.696   7.078   6.891
 5157POPC   C4A67410  41.684   6.845   7.268
 5157POPC   C1B67411  41.135   6.683   6.222
 5157POPC   C2B67412  41.152   6.469   6.579
 5157POPC   C3B67413  41.462   6.463   6.849
 5157POPC   C4B67414  41.343   6.440   7.225
 5158POPC   NC367415  13.294  16.923   5.382
 5158POPC   PO467416  13.950  16.900   5.285
 5158POPC   GL167417  13.753  16.626   5.647
 5158POPC   GL267418  14.072  16.760   5.782
 5158POPC   C1A67419  13.389  16.588   6.028
 5158POPC   D2A67420  13.260  16.750   6.490
 5158POPC   C3A67421  13.485  16.604   6.884
 5158POPC   C4A67422  13.509  16.712   7.315
 5158POPC   C1B67423  13.855  16.740   6.147
 5158POPC   C2B67424  13.764  16.863   6.538
 5158POPC   C3B67425  13.943  16.821   6.920
 5158POPC   C4B67426  13.927  16.980   7.298
 5159POPC   NC367427   6.493  44.044   5.039
 5159POPC   PO467428   6.758  44.118   5.633
 5159POPC   GL167429   6.754  43.784   5.920
 5159POPC   GL267430   6.412  43.852   5.923
 5159POPC   C1A67431   6.719  43.706   6.357
 5159POPC   D2A67432   6.728  43.990   6.692
 5159POPC   C3A67433   6.547  43.820   7.019
 5159POPC   C4A67434   6.724  43.584   7.284
 5159POPC   C1B67435   6.450  44.151   6.279
 5159POPC   C2B67436   6.235  44.099   6.684
 5159POPC   C3B67437   6.264  44.232   7.116
 5159POPC   C4B67438   6.683  44.206   7.320
 5160POPC   NC367439  40.112   6.088   5.393
 5160POPC   PO467440  39.669   5.690   5.574
 5160POPC   GL167441  39.906   5.945   5.839
 5160POPC   GL267442  40.152   5.718   5.828
 5160POPC   C1A67443  40.197   6.078   6.206
 5160POPC   D2A67444  40.196   6.259   6.634
 5160POPC   C3A67445  40.059   6.038   7.002
 5160POPC   C4A67446  40.098   5.938   7.454
 5160POPC   C1B67447  39.871   5.687   6.256
 5160POPC   C2B67448  39.782   5.728   6.702
 5160POPC   C3B67449  39.874   5.586   7.134
 5160POPC   C4B67450  39.864   5.517   7.616
 5161POPC   NC367451   3.702  11.089   5.396
 5161POPC   PO467452   3.304  11.551   5.509
 5161POPC   GL167453   3.613  11.316   5.865
 5161POPC   GL267454   3.848  10.973   5.866
 5161POPC   C1A67455   3.530  11.169   6.336
 5161POPC   D2A67456   3.185  11.296   6.655
 5161POPC   C3A67457   3.053  11.108   7.070
 5161POPC   C4A67458   2.959  11.302   7.484
 5161POPC   C1B67459   4.021  11.236   6.196
 5161POPC   C2B67460   3.972  11.163   6.637
 5161POPC   C3B67461   3.593  11.082   6.873
 5161POPC   C4B67462   3.497  11.295   7.248
 5162POPC   NC367463  42.636  34.759   5.417
 5162POPC   PO467464  42.228  34.313   5.349
 5162POPC   GL167465  42.194  34.344   5.798
 5162POPC   GL267466  42.309  34.670   5.847
 5162POPC   C1A67467  42.347  34.312   6.213
 5162POPC   D2A67468  42.455  34.563   6.576
 5162POPC   C3A67469  42.404  34.363   6.974
 5162POPC   C4A67470  42.232  34.509   7.362
 5162POPC   C1B67471  42.662  34.811   6.100
 5162POPC   C2B67472  42.912  34.807   6.493
 5162POPC   C3B67473  42.845  34.743   6.936
 5162POPC   C4B67474  42.709  34.673   7.351
 5163POPC   NC367475  27.540  43.876   5.088
 5163POPC   PO467476  28.039  44.145   5.366
 5163POPC   GL167477  27.782  43.956   5.705
 5163POPC   GL267478  27.917  43.604   5.763
 5163POPC   C1A67479  27.712  43.990   6.174
 5163POPC   D2A67480  27.532  44.225   6.529
 5163POPC   C3A67481  27.450  44.055   6.922
 5163POPC   C4A67482  27.741  43.896   7.176
 5163POPC   C1B67483  27.805  43.491   6.203
 5163POPC   C2B67484  27.649  43.655   6.643
 5163POPC   C3B67485  27.713  43.415   7.065
 5163POPC   C4B67486  27.440  43.543   7.444
 5164POPC   NC367487  17.206  30.687   5.396
 5164POPC   PO467488  17.699  30.345   5.494
 5164POPC   GL167489  17.615  30.632   5.850
 5164POPC   GL267490  17.787  30.980   5.819
 5164POPC   C1A67491  17.335  30.527   6.200
 5164POPC   D2A67492  17.228  30.312   6.629
 5164POPC   C3A67493  17.139  30.569   7.012
 5164POPC   C4A67494  17.261  30.978   7.222
 5164POPC   C1B67495  17.743  30.964   6.291
 5164POPC   C2B67496  17.859  30.925   6.746
 5164POPC   C3B67497  17.725  30.802   7.165
 5164POPC   C4B67498  17.496  30.363   7.306
 5165POPC   NC367499  27.248  25.955   5.455
 5165POPC   PO467500  27.953  26.269   5.405
 5165POPC   GL167501  27.645  26.208   5.753
 5165POPC   GL267502  27.683  25.841   5.741
 5165POPC   C1A67503  27.429  26.352   6.167
 5165POPC   D2A67504  27.300  26.491   6.593
 5165POPC   C3A67505  27.508  26.291   6.926
 5165POPC   C4A67506  27.775  25.973   7.114
 5165POPC   C1B67507  27.428  25.849   6.102
 5165POPC   C2B67508  27.499  25.947   6.535
 5165POPC   C3B67509  27.319  25.817   6.926
 5165POPC   C4B67510  27.144  25.462   7.139
 5166POPC   NC367511  11.975   3.782   5.393
 5166POPC   PO467512  11.334   3.540   5.323
 5166POPC   GL167513  11.233   3.445   5.749
 5166POPC   GL267514  10.940   3.645   5.794
 5166POPC   C1A67515  11.255   3.476   6.201
 5166POPC   D2A67516  10.962   3.394   6.580
 5166POPC   C3A67517  11.283   3.281   6.872
 5166POPC   C4A67518  11.510   3.413   7.258
 5166POPC   C1B67519  10.892   3.811   6.225
 5166POPC   C2B67520  11.082   3.888   6.630
 5166POPC   C3B67521  11.028   3.905   7.082
 5166POPC   C4B67522  11.231   3.804   7.495
 5167POPC   NC367523  31.987  39.908   5.496
 5167POPC   PO467524  32.538  40.388   5.583
 5167POPC   GL167525  32.168  40.255   5.858
 5167POPC   GL267526  32.123  39.865   5.973
 5167POPC   C1A67527  32.189  40.235   6.309
 5167POPC   D2A67528  32.148  39.914   6.641
 5167POPC   C3A67529  32.134  40.162   7.027
 5167POPC   C4A67530  32.426  40.438   7.193
 5167POPC   C1B67531  32.518  39.861   6.198
 5167POPC   C2B67532  32.658  39.744   6.590
 5167POPC   C3B67533  32.533  39.845   6.993
 5167POPC   C4B67534  32.241  39.707   7.314
 5168POPC   NC367535   7.537  32.575   5.336
 5168POPC   PO467536   7.320  33.109   5.554
 5168POPC   GL167537   7.506  32.855   5.837
 5168POPC   GL267538   7.232  32.659   5.882
 5168POPC   C1A67539   7.379  33.022   6.241
 5168POPC   D2A67540   7.146  32.876   6.584
 5168POPC   C3A67541   7.295  33.103   6.948
 5168POPC   C4A67542   7.098  33.145   7.348
 5168POPC   C1B67543   7.491  32.527   6.264
 5168POPC   C2B67544   7.449  32.402   6.692
 5168POPC   C3B67545   7.205  32.610   7.021
 5168POPC   C4B67546   7.387  32.734   7.430
 5169POPC   NC367547  15.712   9.145   5.440
 5169POPC   PO467548  16.175   8.665   5.420
 5169POPC   GL167549  16.076   8.925   5.743
 5169POPC   GL267550  15.790   8.760   5.820
 5169POPC   C1A67551  16.154   8.828   6.196
 5169POPC   D2A67552  16.075   9.068   6.576
 5169POPC   C3A67553  16.070   8.875   6.990
 5169POPC   C4A67554  16.309   8.896   7.364
 5169POPC   C1B67555  15.769   9.162   6.098
 5169POPC   C2B67556  15.660   9.370   6.508
 5169POPC   C3B67557  15.647   9.194   6.914
 5169POPC   C4B67558  15.717   9.090   7.320
 5170POPC   NC367559  26.989   8.470   5.325
 5170POPC   PO467560  26.358   8.546   5.554
 5170POPC   GL167561  26.726   8.396   5.850
 5170POPC   GL267562  27.067   8.477   5.840
 5170POPC   C1A67563  26.888   8.132   6.209
 5170POPC   D2A67564  26.822   7.898   6.610
 5170POPC   C3A67565  26.775   8.139   6.964
 5170POPC   C4A67566  26.951   8.106   7.360
 5170POPC   C1B67567  27.162   8.591   6.273
 5170POPC   C2B67568  26.988   8.534   6.708
 5170POPC   C3B67569  26.998   8.595   7.195
 5170POPC   C4B67570  27.214   8.449   7.617
 5171POPC   NC367571  36.389  25.277   5.390
 5171POPC   PO467572  35.984  24.752   5.492
 5171POPC   GL167573  36.176  25.083   5.805
 5171POPC   GL267574  35.977  25.364   5.924
 5171POPC   C1A67575  36.481  25.307   6.082
 5171POPC   D2A67576  36.664  25.371   6.492
 5171POPC   C3A67577  36.411  25.470   6.865
 5171POPC   C4A67578  36.299  25.163   7.194
 5171POPC   C1B67579  36.020  25.240   6.324
 5171POPC   C2B67580  35.926  25.445   6.685
 5171POPC   C3B67581  35.865  25.417   7.107
 5171POPC   C4B67582  35.842  25.320   7.539
 5172POPC   NC367583  12.727  34.655   5.344
 5172POPC   PO467584  13.340  34.703   5.558
 5172POPC   GL167585  13.002  34.587   5.815
 5172POPC   GL267586  12.705  34.787   5.851
 5172POPC   C1A67587  12.992  34.460   6.243
 5172POPC   D2A67588  13.103  34.655   6.611
 5172POPC   C3A67589  12.961  34.528   6.996
 5172POPC   C4A67590  12.905  34.909   7.241
 5172POPC   C1B67591  12.488  34.465   6.134
 5172POPC   C2B67592  12.562  34.384   6.582
 5172POPC   C3B67593  12.462  34.614   6.964
 5172POPC   C4B67594  12.544  34.275   7.236
 5173POPC   NC367595   8.937   1.639   5.417
 5173POPC   PO467596   8.714   1.020   5.413
 5173POPC   GL167597   8.967   1.177   5.737
 5173POPC   GL267598   8.734   1.430   5.833
 5173POPC   C1A67599   9.000   1.081   6.192
 5173POPC   D2A67600   9.106   1.183   6.626
 5173POPC   C3A67601   8.921   0.958   6.973
 5173POPC   C4A67602   8.710   1.232   7.236
 5173POPC   C1B67603   8.740   1.800   6.103
 5173POPC   C2B67604   8.606   1.732   6.515
 5173POPC   C3B67605   8.746   1.645   6.928
 5173POPC   C4B67606   8.542   1.698   7.333
 5174POPC   NC367607  28.382  26.041   5.401
 5174POPC   PO467608  28.846  26.491   5.566
 5174POPC   GL167609  28.519  26.225   5.880
 5174POPC   GL267610  28.149  26.072   5.861
 5174POPC   C1A67611  28.330  26.129   6.331
 5174POPC   D2A67612  27.981  26.180   6.671
 5174POPC   C3A67613  28.198  26.275   7.083
 5174POPC   C4A67614  28.631  26.070   7.163
 5174POPC   C1B67615  27.916  25.839   6.226
 5174POPC   C2B67616  27.903  25.665   6.672
 5174POPC   C3B67617  28.235  25.764   6.986
 5174POPC   C4B67618  28.226  25.895   7.433
 5175POPC   NC367619  34.144  32.634   5.431
 5175POPC   PO467620  33.399  32.411   5.342
 5175POPC   GL167621  33.635  32.303   5.858
 5175POPC   GL267622  33.933  32.550   5.910
 5175POPC   C1A67623  33.735  32.264   6.305
 5175POPC   D2A67624  33.687  31.975   6.639
 5175POPC   C3A67625  33.657  32.117   7.048
 5175POPC   C4A67626  34.008  32.172   7.291
 5175POPC   C1B67627  34.020  32.694   6.334
 5175POPC   C2B67628  34.079  32.431   6.700
 5175POPC   C3B67629  34.253  32.548   7.078
 5175POPC   C4B67630  34.051  32.640   7.500
 5176POPC   NC367631  11.751  37.038   5.441
 5176POPC   PO467632  12.393  36.915   5.435
 5176POPC   GL167633  12.110  36.911   5.761
 5176POPC   GL267634  12.267  37.126   5.960
 5176POPC   C1A67635  11.863  36.799   6.147
 5176POPC   D2A67636  11.608  36.916   6.517
 5176POPC   C3A67637  11.770  36.832   6.931
 5176POPC   C4A67638  12.030  36.888   7.306
 5176POPC   C1B67639  12.370  36.712   6.132
 5176POPC   C2B67640  12.246  36.519   6.464
 5176POPC   C3B67641  12.217  36.621   6.862
 5176POPC   C4B67642  12.189  36.415   7.230
 5177POPC   NC367643  31.594   7.916   5.348
 5177POPC   PO467644  31.251   7.417   5.482
 5177POPC   GL167645  31.376   7.491   5.865
 5177POPC   GL267646  31.741   7.602   5.804
 5177POPC   C1A67647  31.228   7.355   6.298
 5177POPC   D2A67648  31.156   7.403   6.729
 5177POPC   C3A67649  31.378   7.338   7.086
 5177POPC   C4A67650  31.330   7.349   7.527
 5177POPC   C1B67651  31.722   7.404   6.220
 5177POPC   C2B67652  31.681   7.472   6.660
 5177POPC   C3B67653  31.859   7.226   7.011
 5177POPC   C4B67654  31.848   7.326   7.471
 5178POPC   NC367655   6.327  44.286   5.590
 5178POPC   PO467656   6.700  44.456   5.083
 5178POPC   GL167657   6.710  44.607   5.625
 5178POPC   GL267658   6.982  44.690   5.775
 5178POPC   C1A67659   6.521  44.676   6.071
 5178POPC   D2A67660   6.744  44.599   6.441
 5178POPC   C3A67661   6.623  44.489   6.852
 5178POPC   C4A67662   6.470  44.717   7.206
 5178POPC   C1B67663   6.961   0.005   6.123
 5178POPC   C2B67664   6.859   0.136   6.524
 5178POPC   C3B67665   6.849  44.968   6.922
 5178POPC   C4B67666   7.107   0.086   7.329
 5179POPC   NC367667  41.700  24.476   5.367
 5179POPC   PO467668  41.119  24.353   5.675
 5179POPC   GL167669  41.510  24.500   5.849
 5179POPC   GL267670  41.828  24.309   5.817
 5179POPC   C1A67671  41.545  24.727   6.233
 5179POPC   D2A67672  41.365  24.810   6.629
 5179POPC   C3A67673  41.616  24.690   6.998
 5179POPC   C4A67674  41.501  24.630   7.455
 5179POPC   C1B67675  42.006  24.516   6.173
 5179POPC   C2B67676  41.991  24.721   6.567
 5179POPC   C3B67677  42.044  24.449   6.882
 5179POPC   C4B67678  41.899  24.338   7.252
 5180POPC   NC367679  11.849  23.389   5.486
 5180POPC   PO467680  12.076  24.002   5.467
 5180POPC   GL167681  11.892  23.820   5.827
 5180POPC   GL267682  12.157  23.627   5.869
 5180POPC   C1A67683  11.970  23.877   6.287
 5180POPC   D2A67684  12.309  23.846   6.579
 5180POPC   C3A67685  12.225  24.033   6.972
 5180POPC   C4A67686  11.866  23.909   7.173
 5180POPC   C1B67687  11.969  23.383   6.188
 5180POPC   C2B67688  11.847  23.314   6.616
 5180POPC   C3B67689  11.975  23.421   7.038
 5180POPC   C4B67690  12.254  23.395   7.378
 5181POPC   NC367691  25.992  42.793   5.439
 5181POPC   PO467692  26.343  42.177   5.314
 5181POPC   GL167693  26.081  42.318   5.666
 5181POPC   GL267694  25.794  42.132   5.816
 5181POPC   C1A67695  26.134  42.500   6.070
 5181POPC   D2A67696  26.375  42.391   6.422
 5181POPC   C3A67697  26.138  42.357   6.818
 5181POPC   C4A67698  26.095  42.413   7.277
 5181POPC   C1B67699  25.810  42.141   6.309
 5181POPC   C2B67700  25.624  42.229   6.739
 5181POPC   C3B67701  25.685  42.152   7.189
 5181POPC   C4B67702  25.772  42.005   7.603
 5182POPC   NC367703  29.867  31.097   5.524
 5182POPC   PO467704  29.618  30.544   5.426
 5182POPC   GL167705  29.555  30.659   5.870
 5182POPC   GL267706  29.890  30.772   5.922
 5182POPC   C1A67707  29.637  30.694   6.359
 5182POPC   D2A67708  30.048  30.674   6.572
 5182POPC   C3A67709  30.110  30.460   6.971
 5182POPC   C4A67710  29.922  30.545   7.342
 5182POPC   C1B67711  29.928  31.102   6.265
 5182POPC   C2B67712  30.152  31.164   6.658
 5182POPC   C3B67713  30.093  30.966   7.071
 5182POPC   C4B67714  30.144  30.971   7.545
 5183POPC   NC367715  43.279   2.247   5.066
 5183POPC   PO467716  42.888   1.819   5.445
 5183POPC   GL167717  43.128   1.913   5.768
 5183POPC   GL267718  43.437   1.720   5.809
 5183POPC   C1A67719  43.101   1.870   6.190
 5183POPC   D2A67720  43.087   2.117   6.542
 5183POPC   C3A67721  43.069   1.936   6.904
 5183POPC   C4A67722  42.945   2.109   7.246
 5183POPC   C1B67723  43.433   1.463   6.210
 5183POPC   C2B67724  43.299   1.549   6.642
 5183POPC   C3B67725  43.466   1.466   7.048
 5183POPC   C4B67726  43.312   1.758   7.344
 5184POPC   NC367727  15.337   3.943   5.533
 5184POPC   PO467728  14.981   4.526   5.494
 5184POPC   GL167729  15.179   4.585   5.899
 5184POPC   GL267730  15.459   4.378   5.858
 5184POPC   C1A67731  15.196   4.386   6.325
 5184POPC   D2A67732  15.229   3.996   6.608
 5184POPC   C3A67733  14.974   4.009   7.003
 5184POPC   C4A67734  14.936   4.402   7.209
 5184POPC   C1B67735  15.659   4.192   6.203
 5184POPC   C2B67736  15.636   4.325   6.640
 5184POPC   C3B67737  15.434   4.266   7.036
 5184POPC   C4B67738  15.518   4.101   7.445
 5185POPC   NC367739  19.861  39.431   5.111
 5185POPC   PO467740  19.315  39.171   5.515
 5185POPC   GL167741  19.501  39.186   5.923
 5185POPC   GL267742  19.867  39.233   5.907
 5185POPC   C1A67743  19.639  39.315   6.346
 5185POPC   D2A67744  19.954  39.153   6.596
 5185POPC   C3A67745  19.826  38.933   6.972
 5185POPC   C4A67746  19.994  38.838   7.371
 5185POPC   C1B67747  20.122  39.555   6.186
 5185POPC   C2B67748  20.116  39.653   6.615
 5185POPC   C3B67749  19.992  39.430   7.016
 5185POPC   C4B67750  19.687  39.273   7.353
 5186POPC   NC367751  11.582   0.665   5.431
 5186POPC   PO467752  11.170   0.125   5.280
 5186POPC   GL167753  11.157   0.392   5.707
 5186POPC   GL267754  11.481   0.518   5.902
 5186POPC   C1A67755  11.021   0.571   6.132
 5186POPC   D2A67756  11.158   0.736   6.557
 5186POPC   C3A67757  11.009   0.575   6.952
 5186POPC   C4A67758  11.157   0.171   7.187
 5186POPC   C1B67759  11.413   0.257   6.283
 5186POPC   C2B67760  11.331   0.262   6.719
 5186POPC   C3B67761  11.503   0.537   7.125
 5186POPC   C4B67762  11.503   0.338   7.562
 5187POPC   NC367763  17.059  36.549   5.487
 5187POPC   PO467764  17.685  36.914   5.369
 5187POPC   GL167765  17.519  36.876   5.779
 5187POPC   GL267766  17.744  36.634   5.825
 5187POPC   C1A67767  17.389  37.125   6.154
 5187POPC   D2A67768  17.582  37.183   6.540
 5187POPC   C3A67769  17.370  36.920   6.789
 5187POPC   C4A67770  17.361  37.017   7.184
 5187POPC   C1B67771  17.801  36.826   6.234
 5187POPC   C2B67772  17.770  36.595   6.636
 5187POPC   C3B67773  17.777  36.724   7.065
 5187POPC   C4B67774  17.887  37.107   7.189
 5188POPC   NC367775  36.645   9.171   5.657
 5188POPC   PO467776  36.097   8.857   5.528
 5188POPC   GL167777  35.978   9.028   5.928
 5188POPC   GL267778  36.258   9.171   5.973
 5188POPC   C1A67779  35.983   9.024   6.411
 5188POPC   D2A67780  36.049   8.706   6.756
 5188POPC   C3A67781  35.996   8.840   7.168
 5188POPC   C4A67782  35.943   9.245   7.359
 5188POPC   C1B67783  36.489   8.925   6.248
 5188POPC   C2B67784  36.473   8.966   6.656
 5188POPC   C3B67785  36.370   9.145   7.020
 5188POPC   C4B67786  36.468   8.967   7.388
 5189POPC   NC367787  18.302   8.986   5.444
 5189POPC   PO467788  18.211   9.608   5.504
 5189POPC   GL167789  18.155   9.276   5.826
 5189POPC   GL267790  18.510   9.137   5.871
 5189POPC   C1A67791  18.059   8.922   6.111
 5189POPC   D2A67792  17.932   8.845   6.552
 5189POPC   C3A67793  18.203   8.888   6.910
 5189POPC   C4A67794  18.176   8.776   7.321
 5189POPC   C1B67795  18.579   8.884   6.219
 5189POPC   C2B67796  18.465   8.662   6.549
 5189POPC   C3B67797  18.669   8.671   6.957
 5189POPC   C4B67798  18.628   9.038   7.190
 5190POPC   NC367799  22.553  31.493   5.208
 5190POPC   PO467800  23.243  31.594   5.330
 5190POPC   GL167801  22.941  31.509   5.672
 5190POPC   GL267802  23.046  31.203   5.832
 5190POPC   C1A67803  22.833  31.651   6.106
 5190POPC   D2A67804  23.104  31.819   6.443
 5190POPC   C3A67805  22.932  31.832   6.844
 5190POPC   C4A67806  23.058  31.766   7.277
 5190POPC   C1B67807  22.842  31.164   6.240
 5190POPC   C2B67808  22.939  31.358   6.619
 5190POPC   C3B67809  23.025  31.303   7.049
 5190POPC   C4B67810  22.788  31.186   7.422
 5191POPC   NC367811  15.747  16.710   5.624
 5191POPC   PO467812  15.453  16.205   5.378
 5191POPC   GL167813  15.221  16.507   5.700
 5191POPC   GL267814  15.305  16.864   5.820
 5191POPC   C1A67815  15.021  16.570   6.138
 5191POPC   D2A67816  14.844  16.528   6.562
 5191POPC   C3A67817  15.095  16.449   6.912
 5191POPC   C4A67818  15.312  16.718   7.195
 5191POPC   C1B67819  15.406  16.925   6.275
 5191POPC   C2B67820  15.176  16.943   6.714
 5191POPC   C3B67821  15.238  17.210   7.103
 5191POPC   C4B67822  15.120  17.361   7.540
 5192POPC   NC367823  43.670  18.768   5.460
 5192POPC   PO467824  44.031  19.410   5.369
 5192POPC   GL167825  43.980  19.135   5.719
 5192POPC   GL267826  43.663  19.061   5.878
 5192POPC   C1A67827  44.083  19.233   6.133
 5192POPC   D2A67828  43.835  19.234   6.457
 5192POPC   C3A67829  43.962  19.170   6.869
 5192POPC   C4A67830  44.317  19.205   7.122
 5192POPC   C1B67831  43.876  18.755   6.177
 5192POPC   C2B67832  44.103  18.747   6.595
 5192POPC   C3B67833  43.966  18.670   7.051
 5192POPC   C4B67834  43.889  18.997   7.385
 5193POPC   NC367835  15.370  42.427   5.306
 5193POPC   PO467836  15.173  41.813   5.466
 5193POPC   GL167837  15.200  42.181   5.766
 5193POPC   GL267838  15.451  42.478   5.800
 5193POPC   C1A67839  15.172  42.194   6.211
 5193POPC   D2A67840  15.011  42.110   6.649
 5193POPC   C3A67841  14.873  42.420   6.986
 5193POPC   C4A67842  14.864  42.368   7.445
 5193POPC   C1B67843  15.595  42.612   6.199
 5193POPC   C2B67844  15.466  42.407   6.561
 5193POPC   C3B67845  15.370  42.340   6.961
 5193POPC   C4B67846  15.652  42.538   7.224
 5194POPC   NC367847  26.390   5.096   5.401
 5194POPC   PO467848  26.009   4.672   5.365
 5194POPC   GL167849  26.080   4.903   5.779
 5194POPC   GL267850  26.436   4.890   5.872
 5194POPC   C1A67851  26.115   4.964   6.275
 5194POPC   D2A67852  26.297   4.945   6.728
 5194POPC   C3A67853  26.104   5.114   7.126
 5194POPC   C4A67854  26.029   5.292   7.540
 5194POPC   C1B67855  26.498   5.267   6.107
 5194POPC   C2B67856  26.327   5.411   6.501
 5194POPC   C3B67857  26.463   5.440   6.919
 5194POPC   C4B67858  26.498   5.419   7.329
 5195POPC   NC367859  30.315  41.675   5.330
 5195POPC   PO467860  29.907  41.160   5.366
 5195POPC   GL167861  30.117  41.416   5.743
 5195POPC   GL267862  30.050  41.816   5.798
 5195POPC   C1A67863  29.974  41.480   6.195
 5195POPC   D2A67864  29.592  41.421   6.465
 5195POPC   C3A67865  29.691  41.210   6.856
 5195POPC   C4A67866  29.946  41.437   7.136
 5195POPC   C1B67867  29.859  41.976   6.226
 5195POPC   C2B67868  29.853  41.847   6.685
 5195POPC   C3B67869  29.795  41.903   7.137
 5195POPC   C4B67870  30.053  41.791   7.530
 5196POPC   NC367871   2.013  30.518   5.575
 5196POPC   PO467872   1.755  31.130   5.483
 5196POPC   GL167873   1.996  30.990   5.843
 5196POPC   GL267874   2.341  30.888   5.741
 5196POPC   C1A67875   1.900  30.849   6.293
 5196POPC   D2A67876   1.698  31.017   6.703
 5196POPC   C3A67877   1.866  30.738   7.039
 5196POPC   C4A67878   2.239  30.447   7.166
 5196POPC   C1B67879   2.402  31.020   6.178
 5196POPC   C2B67880   2.508  30.875   6.608
 5196POPC   C3B67881   2.365  30.925   7.030
 5196POPC   C4B67882   2.160  30.890   7.443
 5197POPC   NC367883  18.417   7.166   4.859
 5197POPC   PO467884  18.369   7.545   5.444
 5197POPC   GL167885  18.242   7.332   5.805
 5197POPC   GL267886  18.007   7.086   5.625
 5197POPC   C1A67887  18.426   7.261   6.224
 5197POPC   D2A67888  18.283   7.376   6.630
 5197POPC   C3A67889  18.406   7.284   7.024
 5197POPC   C4A67890  18.309   7.539   7.342
 5197POPC   C1B67891  18.071   6.900   6.012
 5197POPC   C2B67892  18.040   6.961   6.447
 5197POPC   C3B67893  17.971   6.994   6.888
 5197POPC   C4B67894  18.060   7.090   7.332
 5198POPC   NC367895  27.335  37.264   5.447
 5198POPC   PO467896  27.518  36.594   5.407
 5198POPC   GL167897  27.364  36.849   5.748
 5198POPC   GL267898  27.660  37.087   5.859
 5198POPC   C1A67899  27.280  37.044   6.172
 5198POPC   D2A67900  27.594  37.180   6.508
 5198POPC   C3A67901  27.474  37.158   6.950
 5198POPC   C4A67902  27.632  36.976   7.353
 5198POPC   C1B67903  27.873  36.839   6.206
 5198POPC   C2B67904  27.855  36.641   6.636
 5198POPC   C3B67905  27.969  36.499   7.081
 5198POPC   C4B67906  27.979  36.654   7.523
 5199POPC   NC367907  35.586  35.674   5.577
 5199POPC   PO467908  35.079  36.120   5.519
 5199POPC   GL167909  35.307  36.020   5.851
 5199POPC   GL267910  35.630  36.181   5.780
 5199POPC   C1A67911  35.194  36.047   6.276
 5199POPC   D2A67912  35.041  36.261   6.643
 5199POPC   C3A67913  35.225  36.042   6.957
 5199POPC   C4A67914  35.302  35.726   7.283
 5199POPC   C1B67915  35.728  35.961   6.153
 5199POPC   C2B67916  35.876  35.777   6.515
 5199POPC   C3B67917  35.644  35.777   6.863
 5199POPC   C4B67918  35.691  36.072   7.186
 5200POPC   NC367919   7.011  41.556   5.489
 5200POPC   PO467920   6.502  41.805   5.316
 5200POPC   GL167921   6.564  41.540   5.745
 5200POPC   GL267922   6.854  41.686   5.945
 5200POPC   C1A67923   6.619  41.294   6.198
 5200POPC   D2A67924   6.541  41.045   6.584
 5200POPC   C3A67925   6.325  41.228   6.925
 5200POPC   C4A67926   6.547  41.151   7.276
 5200POPC   C1B67927   6.496  41.781   6.213
 5200POPC   C2B67928   6.542  41.642   6.654
 5200POPC   C3B67929   6.679  41.603   7.083
 5200POPC   C4B67930   6.404  41.764   7.385
 5201POPC   NC367931  32.041  32.369   5.568
 5201POPC   PO467932  32.492  32.006   5.230
 5201POPC   GL167933  32.366  31.979   5.759
 5201POPC   GL267934  31.996  32.038   5.948
 5201POPC   C1A67935  32.371  31.961   6.259
 5201POPC   D2A67936  32.424  31.689   6.633
 5201POPC   C3A67937  32.207  31.854   7.015
 5201POPC   C4A67938  32.260  32.226   7.256
 5201POPC   C1B67939  31.989  32.425   6.215
 5201POPC   C2B67940  32.034  32.596   6.618
 5201POPC   C3B67941  31.853  32.467   6.999
 5201POPC   C4B67942  31.850  32.534   7.426
 5202POPC   NC367943  17.778  10.560   5.398
 5202POPC   PO467944  18.300  10.983   5.570
 5202POPC   GL167945  18.276  10.570   5.768
 5202POPC   GL267946  17.932  10.410   5.861
 5202POPC   C1A67947  18.369  10.516   6.201
 5202POPC   D2A67948  18.287  10.776   6.575
 5202POPC   C3A67949  18.442  10.718   7.008
 5202POPC   C4A67950  18.518  10.374   7.277
 5202POPC   C1B67951  17.971  10.212   6.249
 5202POPC   C2B67952  18.148  10.246   6.672
 5202POPC   C3B67953  18.028  10.328   7.112
 5202POPC   C4B67954  18.105  10.148   7.513
 5203POPC   NC367955   3.614  44.312   5.250
 5203POPC   PO467956   3.789  44.883   5.645
 5203POPC   GL167957   3.518  44.711   5.951
 5203POPC   GL267958   3.416  44.353   6.002
 5203POPC   C1A67959   3.633  44.799   6.380
 5203POPC   D2A67960   3.896  44.980   6.711
 5203POPC   C3A67961   3.749  44.799   7.112
 5203POPC   C4A67962   3.406  44.749   7.411
 5203POPC   C1B67963   3.746  44.288   6.312
 5203POPC   C2B67964   3.764  44.409   6.722
 5203POPC   C3B67965   3.866  44.257   7.109
 5203POPC   C4B67966   3.507  44.222   7.398
 5204POPC   NC367967  23.822  44.289   5.416
 5204POPC   PO467968  24.028  44.883   5.414
 5204POPC   GL167969  23.782  44.681   5.744
 5204POPC   GL267970  23.575  44.908   5.871
 5204POPC   C1A67971  23.567  44.478   6.123
 5204POPC   D2A67972  23.362  44.683   6.509
 5204POPC   C3A67973  23.400  44.456   6.912
 5204POPC   C4A67974  23.718  44.448   7.235
 5204POPC   C1B67975  23.879  44.963   6.193
 5204POPC   C2B67976  23.736   0.045   6.607
 5204POPC   C3B67977  23.664  44.909   6.995
 5204POPC   C4B67978  23.932  44.891   7.354
 5205POPC   NC367979   1.221   4.424   5.338
 5205POPC   PO467980   0.967   3.805   5.467
 5205POPC   GL167981   1.236   4.045   5.777
 5205POPC   GL267982   1.093   4.397   5.832
 5205POPC   C1A67983   1.341   4.179   6.218
 5205POPC   D2A67984   1.177   4.414   6.585
 5205POPC   C3A67985   1.241   4.201   6.985
 5205POPC   C4A67986   1.138   4.005   7.386
 5205POPC   C1B67987   1.294   4.683   6.138
 5205POPC   C2B67988   1.586   4.708   6.505
 5205POPC   C3B67989   1.470   4.735   6.946
 5205POPC   C4B67990   1.316   4.551   7.344
 5206POPC   NC367991  15.194  37.303   5.354
 5206POPC   PO467992  15.699  36.785   5.337
 5206POPC   GL167993  15.347  36.876   5.709
 5206POPC   GL267994  15.012  37.035   5.759
 5206POPC   C1A67995  15.155  36.727   6.141
 5206POPC   D2A67996  15.117  36.905   6.564
 5206POPC   C3A67997  15.180  36.700   6.971
 5206POPC   C4A67998  15.450  36.760   7.298
 5206POPC   C1B67999  14.883  37.285   6.112
 5206POPC   C2B68000  14.706  37.174   6.514
 5206POPC   C3B68001  14.867  37.143   6.956
 5206POPC   C4B68002  14.817  37.420   7.331
 5207POPC   NC368003  22.229  11.373   5.263
 5207POPC   PO468004  21.894  10.932   5.621
 5207POPC   GL168005  22.217  11.148   5.836
 5207POPC   GL268006  22.281  11.489   5.745
 5207POPC   C1A68007  22.426  11.025   6.205
 5207POPC   D2A68008  22.454  11.256   6.586
 5207POPC   C3A68009  22.107  11.075   6.819
 5207POPC   C4A68010  22.228  11.112   7.215
 5207POPC   C1B68011  22.339  11.548   6.173
 5207POPC   C2B68012  22.067  11.593   6.537
 5207POPC   C3B68013  22.184  11.562   6.942
 5207POPC   C4B68014  22.117  11.751   7.316
 5208POPC   NC368015  42.634  20.138   5.400
 5208POPC   PO468016  42.274  19.503   5.527
 5208POPC   GL168017  42.399  19.834   5.778
 5208POPC   GL268018  42.161  20.124   5.719
 5208POPC   C1A68019  42.534  19.713   6.197
 5208POPC   D2A68020  42.429  19.422   6.523
 5208POPC   C3A68021  42.513  19.621   6.945
 5208POPC   C4A68022  42.566  19.774   7.375
 5208POPC   C1B68023  42.263  20.140   6.166
 5208POPC   C2B68024  42.487  20.197   6.581
 5208POPC   C3B68025  42.394  20.160   7.036
 5208POPC   C4B68026  42.158  20.180   7.427
 5209POPC   NC368027  38.663  30.074   5.449
 5209POPC   PO468028  39.233  29.677   5.358
 5209POPC   GL168029  39.356  29.803   5.763
 5209POPC   GL268030  39.013  29.897   5.796
 5209POPC   C1A68031  39.421  29.742   6.210
 5209POPC   D2A68032  39.293  29.623   6.603
 5209POPC   C3A68033  39.429  29.910   6.885
 5209POPC   C4A68034  39.285  29.938   7.280
 5209POPC   C1B68035  39.221  30.179   6.089
 5209POPC   C2B68036  39.101  30.096   6.520
 5209POPC   C3B68037  38.940  29.926   6.918
 5209POPC   C4B68038  38.754  30.001   7.298
 5210POPC   NC368039  35.972  32.678   5.394
 5210POPC   PO468040  36.376  33.250   5.415
 5210POPC   GL168041  36.146  33.073   5.798
 5210POPC   GL268042  36.150  32.713   5.878
 5210POPC   C1A68043  36.087  33.207   6.245
 5210POPC   D2A68044  36.281  33.134   6.640
 5210POPC   C3A68045  36.059  33.283   6.990
 5210POPC   C4A68046  36.296  33.245   7.371
 5210POPC   C1B68047  36.181  32.699   6.326
 5210POPC   C2B68048  36.273  32.604   6.740
 5210POPC   C3B68049  36.186  32.802   7.133
 5210POPC   C4B68050  35.994  32.851   7.538
 5211POPC   NC368051  32.793  30.424   5.301
 5211POPC   PO468052  32.772  31.109   5.380
 5211POPC   GL168053  32.699  30.806   5.704
 5211POPC   GL268054  33.040  30.762   5.764
 5211POPC   C1A68055  32.711  30.625   6.127
 5211POPC   D2A68056  32.877  30.472   6.493
 5211POPC   C3A68057  32.892  30.794   6.787
 5211POPC   C4A68058  32.902  30.736   7.231
 5211POPC   C1B68059  33.254  30.562   6.133
 5211POPC   C2B68060  33.392  30.625   6.596
 5211POPC   C3B68061  33.326  30.468   7.042
 5211POPC   C4B68062  33.265  30.419   7.497
 5212POPC   NC368063  15.510   4.666   5.435
 5212POPC   PO468064  15.376   5.385   5.276
 5212POPC   GL168065  15.413   5.197   5.758
 5212POPC   GL268066  15.593   4.909   5.882
 5212POPC   C1A68067  15.212   5.027   6.215
 5212POPC   D2A68068  14.984   5.095   6.663
 5212POPC   C3A68069  15.095   5.166   7.150
 5212POPC   C4A68070  14.984   5.336   7.597
 5212POPC   C1B68071  15.607   4.706   6.284
 5212POPC   C2B68072  15.364   4.747   6.693
 5212POPC   C3B68073  15.422   4.771   7.155
 5212POPC   C4B68074  15.299   4.531   7.526
 5213POPC   NC368075  35.078  17.331   5.190
 5213POPC   PO468076  35.498  17.731   5.513
 5213POPC   GL168077  35.396  17.456   5.788
 5213POPC   GL268078  35.344  17.668   5.998
 5213POPC   C1A68079  35.497  17.222   6.161
 5213POPC   D2A68080  35.265  17.342   6.511
 5213POPC   C3A68081  35.339  17.154   6.885
 5213POPC   C4A68082  35.214  17.250   7.278
 5213POPC   C1B68083  35.556  17.747   6.370
 5213POPC   C2B68084  35.287  17.867   6.729
 5213POPC   C3B68085  35.338  17.825   7.176
 5213POPC   C4B68086  35.394  17.939   7.617
 5214POPC   NC368087   0.769  38.653   5.505
 5214POPC   PO468088   1.384  38.734   5.315
 5214POPC   GL168089   1.235  38.640   5.750
 5214POPC   GL268090   0.988  38.857   5.908
 5214POPC   C1A68091   1.171  38.352   6.099
 5214POPC   D2A68092   1.285  38.225   6.521
 5214POPC   C3A68093   1.397  38.585   6.780
 5214POPC   C4A68094   1.503  38.701   7.201
 5214POPC   C1B68095   1.252  38.849   6.262
 5214POPC   C2B68096   1.046  39.003   6.623
 5214POPC   C3B68097   1.028  38.872   7.032
 5214POPC   C4B68098   1.170  39.088   7.373
 5215POPC   NC368099   9.489  17.072   5.449
 5215POPC   PO468100  10.086  16.801   5.462
 5215POPC   GL168101   9.886  16.958   5.787
 5215POPC   GL268102   9.621  16.723   5.812
 5215POPC   C1A68103  10.012  16.932   6.208
 5215POPC   D2A68104  10.056  16.567   6.460
 5215POPC   C3A68105   9.861  16.620   6.856
 5215POPC   C4A68106   9.919  16.559   7.282
 5215POPC   C1B68107   9.567  16.662   6.258
 5215POPC   C2B68108   9.383  16.678   6.689
 5215POPC   C3B68109   9.433  16.481   7.124
 5215POPC   C4B68110   9.326  16.424   7.559
 5216POPC   NC368111  14.049  38.204   5.061
 5216POPC   PO468112  14.574  38.622   5.364
 5216POPC   GL168113  14.412  38.558   5.772
 5216POPC   GL268114  14.709  38.446   5.905
 5216POPC   C1A68115  14.263  38.336   6.157
 5216POPC   D2A68116  14.495  38.162   6.498
 5216POPC   C3A68117  14.279  38.270   6.870
 5216POPC   C4A68118  14.238  38.154   7.290
 5216POPC   C1B68119  14.963  38.655   6.221
 5216POPC   C2B68120  14.852  38.538   6.603
 5216POPC   C3B68121  14.777  38.320   6.967
 5216POPC   C4B68122  14.649  38.462   7.363
 5217POPC   NC368123  32.292  30.677   5.387
 5217POPC   PO468124  31.861  31.098   5.462
 5217POPC   GL168125  32.154  30.981   5.792
 5217POPC   GL268126  32.206  30.645   5.886
 5217POPC   C1A68127  32.381  31.024   6.177
 5217POPC   D2A68128  32.432  30.756   6.541
 5217POPC   C3A68129  32.359  30.880   6.947
 5217POPC   C4A68130  32.473  31.002   7.374
 5217POPC   C1B68131  32.238  30.386   6.250
 5217POPC   C2B68132  32.021  30.266   6.614
 5217POPC   C3B68133  31.967  30.479   6.996
 5217POPC   C4B68134  32.303  30.511   7.308
 5218POPC   NC368135  41.631  44.711   5.442
 5218POPC   PO468136  41.528  44.118   5.551
 5218POPC   GL168137  41.712  44.375   5.881
 5218POPC   GL268138  41.526  44.705   5.949
 5218POPC   C1A68139  41.745  44.466   6.334
 5218POPC   D2A68140  41.564  44.863   6.490
 5218POPC   C3A68141  41.772  44.938   6.878
 5218POPC   C4A68142  41.873  44.596   7.180
 5218POPC   C1B68143  41.252  44.460   6.262
 5218POPC   C2B68144  41.157  44.587   6.696
 5218POPC   C3B68145  41.351  44.696   7.102
 5218POPC   C4B68146  41.188  44.874   7.508
 5219POPC   NC368147  21.748  41.860   5.104
 5219POPC   PO468148  21.497  41.337   5.380
 5219POPC   GL168149  21.321  41.461   5.792
 5219POPC   GL268150  20.976  41.280   5.835
 5219POPC   C1A68151  21.453  41.692   6.155
 5219POPC   D2A68152  21.322  41.794   6.553
 5219POPC   C3A68153  21.443  41.614   6.945
 5219POPC   C4A68154  21.399  41.719   7.390
 5219POPC   C1B68155  21.038  41.379   6.296
 5219POPC   C2B68156  20.902  41.522   6.729
 5219POPC   C3B68157  21.007  41.443   7.179
 5219POPC   C4B68158  21.189  41.255   7.553
 5220POPC   NC368159  14.002  43.352   5.480
 5220POPC   PO468160  14.606  43.342   5.391
 5220POPC   GL168161  14.543  43.169   5.783
 5220POPC   GL268162  14.227  43.019   5.836
 5220POPC   C1A68163  14.642  42.904   6.151
 5220POPC   D2A68164  14.382  42.761   6.494
 5220POPC   C3A68165  14.406  42.968   6.892
 5220POPC   C4A68166  14.577  42.814   7.286
 5220POPC   C1B68167  14.253  43.209   6.226
 5220POPC   C2B68168  14.145  43.496   6.518
 5220POPC   C3B68169  14.110  43.435   6.934
 5220POPC   C4B68170  14.471  43.360   7.226
 5221POPC   NC368171  37.219  26.141   5.484
 5221POPC   PO468172  36.746  25.605   5.381
 5221POPC   GL168173  36.992  25.748   5.742
 5221POPC   GL268174  36.804  26.010   5.771
 5221POPC   C1A68175  37.131  26.037   6.136
 5221POPC   D2A68176  37.296  26.084   6.534
 5221POPC   C3A68177  37.058  26.036   6.882
 5221POPC   C4A68178  37.098  26.129   7.289
 5221POPC   C1B68179  36.700  25.779   6.162
 5221POPC   C2B68180  36.652  25.874   6.615
 5221POPC   C3B68181  36.608  25.906   7.084
 5221POPC   C4B68182  36.376  25.887   7.458
 5222POPC   NC368183  33.556  31.962   5.489
 5222POPC   PO468184  33.763  31.243   5.388
 5222POPC   GL168185  33.477  31.428   5.699
 5222POPC   GL268186  33.716  31.674   5.863
 5222POPC   C1A68187  33.462  31.355   6.143
 5222POPC   D2A68188  33.785  31.502   6.423
 5222POPC   C3A68189  33.678  31.442   6.845
 5222POPC   C4A68190  33.967  31.216   7.093
 5222POPC   C1B68191  34.006  31.889   6.118
 5222POPC   C2B68192  34.188  31.934   6.509
 5222POPC   C3B68193  34.104  31.793   6.933
 5222POPC   C4B68194  33.836  31.674   7.281
 5223POPC   NC368195  12.956  18.582   5.368
 5223POPC   PO468196  12.558  18.051   5.305
 5223POPC   GL168197  12.674  18.053   5.769
 5223POPC   GL268198  12.796  18.378   5.903
 5223POPC   C1A68199  12.614  17.997   6.233
 5223POPC   D2A68200  12.749  17.931   6.679
 5223POPC   C3A68201  12.680  18.150   7.108
 5223POPC   C4A68202  12.565  18.265   7.529
 5223POPC   C1B68203  12.963  18.370   6.344
 5223POPC   C2B68204  13.019  18.361   6.802
 5223POPC   C3B68205  12.987  18.577   7.210
 5223POPC   C4B68206  13.048  18.688   7.640
 5224POPC   NC368207  42.330  17.189   5.257
 5224POPC   PO468208  41.904  17.615   5.447
 5224POPC   GL168209  42.035  17.430   5.779
 5224POPC   GL268210  42.382  17.434   5.723
 5224POPC   C1A68211  42.194  17.622   6.166
 5224POPC   D2A68212  42.004  17.468   6.524
 5224POPC   C3A68213  42.255  17.479   6.902
 5224POPC   C4A68214  42.308  17.723   7.283
 5224POPC   C1B68215  42.628  17.295   6.102
 5224POPC   C2B68216  42.707  17.255   6.538
 5224POPC   C3B68217  42.601  17.109   6.935
 5224POPC   C4B68218  42.658  17.344   7.265
 5225POPC   NC368219  17.632  33.559   5.561
 5225POPC   PO468220  18.301  33.685   5.352
 5225POPC   GL168221  18.216  33.824   5.753
 5225POPC   GL268222  18.065  33.516   5.837
 5225POPC   C1A68223  18.216  34.092   6.129
 5225POPC   D2A68224  18.242  33.883   6.538
 5225POPC   C3A68225  18.545  33.942   6.849
 5225POPC   C4A68226  18.452  33.901   7.265
 5225POPC   C1B68227  18.156  33.359   6.230
 5225POPC   C2B68228  18.117  33.331   6.633
 5225POPC   C3B68229  18.257  33.512   6.976
 5225POPC   C4B68230  18.491  33.388   7.321
 5226POPC   NC368231  37.959  40.549   5.382
 5226POPC   PO468232  38.051  41.267   5.297
 5226POPC   GL168233  37.871  40.991   5.663
 5226POPC   GL268234  38.194  40.932   5.685
 5226POPC   C1A68235  37.590  40.793   6.049
 5226POPC   D2A68236  37.461  40.800   6.506
 5226POPC   C3A68237  37.534  40.493   6.893
 5226POPC   C4A68238  37.491  40.812   7.226
 5226POPC   C1B68239  38.098  40.703   6.037
 5226POPC   C2B68240  37.962  40.805   6.423
 5226POPC   C3B68241  37.852  40.864   6.843
 5226POPC   C4B68242  37.996  40.698   7.234
 5227POPC   NC368243  17.338   0.440   5.218
 5227POPC   PO468244  17.960   0.682   5.347
 5227POPC   GL168245  17.608   0.678   5.633
 5227POPC   GL268246  17.511   0.359   5.749
 5227POPC   C1A68247  17.587   0.707   6.117
 5227POPC   D2A68248  17.886   0.665   6.528
 5227POPC   C3A68249  17.648   0.680   6.939
 5227POPC   C4A68250  17.301   0.716   7.240
 5227POPC   C1B68251  17.422   0.219   6.182
 5227POPC   C2B68252  17.402   0.431   6.563
 5227POPC   C3B68253  17.334   0.285   6.984
 5227POPC   C4B68254  17.594   0.312   7.362
 5228POPC   NC368255   5.261  41.273   5.418
 5228POPC   PO468256   4.848  40.774   5.518
 5228POPC   GL168257   5.112  40.704   5.888
 5228POPC   GL268258   5.401  40.935   5.832
 5228POPC   C1A68259   5.028  40.624   6.346
 5228POPC   D2A68260   4.680  40.699   6.638
 5228POPC   C3A68261   4.845  40.887   6.987
 5228POPC   C4A68262   5.220  40.683   7.131
 5228POPC   C1B68263   5.266  41.084   6.243
 5228POPC   C2B68264   5.299  40.997   6.674
 5228POPC   C3B68265   5.344  41.176   7.043
 5228POPC   C4B68266   5.075  41.138   7.373
 5229POPC   NC368267  20.018   9.162   5.381
 5229POPC   PO468268  19.663   8.566   5.432
 5229POPC   GL168269  19.800   8.852   5.748
 5229POPC   GL268270  19.562   8.839   6.000
 5229POPC   C1A68271  19.894   9.210   6.056
 5229POPC   D2A68272  19.771   9.205   6.506
 5229POPC   C3A68273  20.014   9.248   6.879
 5229POPC   C4A68274  19.945   9.249   7.307
 5229POPC   C1B68275  19.893   8.739   6.291
 5229POPC   C2B68276  19.894   8.761   6.739
 5229POPC   C3B68277  19.711   8.827   7.145
 5229POPC   C4B68278  20.113   8.722   7.266
 5230POPC   NC368279  38.127  41.650   5.037
 5230POPC   PO468280  38.656  41.646   5.400
 5230POPC   GL168281  38.560  41.515   5.784
 5230POPC   GL268282  38.238  41.443   5.733
 5230POPC   C1A68283  38.726  41.487   6.185
 5230POPC   D2A68284  38.500  41.589   6.537
 5230POPC   C3A68285  38.557  41.371   6.921
 5230POPC   C4A68286  38.525  41.557   7.317
 5230POPC   C1B68287  38.110  41.640   6.117
 5230POPC   C2B68288  37.933  41.715   6.530
 5230POPC   C3B68289  38.159  41.768   6.902
 5230POPC   C4B68290  38.004  41.698   7.311
 5231POPC   NC368291  21.416  22.638   5.255
 5231POPC   PO468292  21.927  22.288   5.490
 5231POPC   GL168293  21.599  22.242   5.748
 5231POPC   GL268294  21.541  22.575   5.817
 5231POPC   C1A68295  21.354  22.176   6.128
 5231POPC   D2A68296  21.425  22.212   6.582
 5231POPC   C3A68297  21.458  22.253   7.043
 5231POPC   C4A68298  21.468  21.898   7.353
 5231POPC   C1B68299  21.707  22.517   6.273
 5231POPC   C2B68300  21.859  22.491   6.717
 5231POPC   C3B68301  21.850  22.570   7.175
 5231POPC   C4B68302  21.695  22.333   7.556
 5232POPC   NC368303  29.525  12.276   5.336
 5232POPC   PO468304  28.890  12.003   5.433
 5232POPC   GL168305  29.232  12.025   5.740
 5232POPC   GL268306  29.290  12.322   5.795
 5232POPC   C1A68307  29.366  11.854   6.133
 5232POPC   D2A68308  29.118  11.729   6.504
 5232POPC   C3A68309  29.267  11.889   6.903
 5232POPC   C4A68310  29.083  12.118   7.245
 5232POPC   C1B68311  29.091  12.268   6.219
 5232POPC   C2B68312  29.267  12.337   6.598
 5232POPC   C3B68313  29.248  12.509   6.979
 5232POPC   C4B68314  29.489  12.387   7.334
 5233POPC   NC368315  36.820  22.812   5.429
 5233POPC   PO468316  37.092  23.403   5.330
 5233POPC   GL168317  37.079  23.167   5.770
 5233POPC   GL268318  37.153  22.798   5.813
 5233POPC   C1A68319  36.889  23.055   6.211
 5233POPC   D2A68320  36.630  22.913   6.593
 5233POPC   C3A68321  36.832  22.963   6.994
 5233POPC   C4A68322  36.729  23.176   7.402
 5233POPC   C1B68323  37.249  22.677   6.233
 5233POPC   C2B68324  37.184  22.751   6.661
 5233POPC   C3B68325  37.308  22.740   7.076
 5233POPC   C4B68326  37.172  22.897   7.441
 5234POPC   NC368327  40.740  12.705   5.353
 5234POPC   PO468328  40.254  12.587   5.695
 5234POPC   GL168329  40.646  12.629   5.870
 5234POPC   GL268330  40.722  12.978   5.831
 5234POPC   C1A68331  40.876  12.672   6.245
 5234POPC   D2A68332  40.896  12.510   6.654
 5234POPC   C3A68333  40.875  12.737   7.079
 5234POPC   C4A68334  40.615  13.011   7.391
 5234POPC   C1B68335  40.821  13.169   6.269
 5234POPC   C2B68336  40.957  13.040   6.696
 5234POPC   C3B68337  40.956  13.256   7.104
 5234POPC   C4B68338  41.051  13.321   7.543
 5235POPC   NC368339  18.014  11.359   5.568
 5235POPC   PO468340  18.464  11.855   5.543
 5235POPC   GL168341  18.261  11.695   5.895
 5235POPC   GL268342  18.382  11.332   5.941
 5235POPC   C1A68343  18.265  11.610   6.355
 5235POPC   D2A68344  18.462  11.281   6.613
 5235POPC   C3A68345  18.172  11.156   6.907
 5235POPC   C4A68346  18.084  11.528   7.085
 5235POPC   C1B68347  18.607  10.989   6.204
 5235POPC   C2B68348  18.807  10.891   6.602
 5235POPC   C3B68349  18.808  11.092   6.957
 5235POPC   C4B68350  18.548  11.188   7.261
 5236POPC   NC368351  26.554  41.776   5.421
 5236POPC   PO468352  26.497  41.196   5.678
 5236POPC   GL168353  26.573  41.574   5.874
 5236POPC   GL268354  26.913  41.629   5.798
 5236POPC   C1A68355  26.670  41.747   6.254
 5236POPC   D2A68356  26.576  41.428   6.562
 5236POPC   C3A68357  26.441  41.621   6.911
 5236POPC   C4A68358  26.747  41.732   7.192
 5236POPC   C1B68359  26.989  41.348   6.194
 5236POPC   C2B68360  27.090  41.218   6.621
 5236POPC   C3B68361  26.909  41.303   7.027
 5236POPC   C4B68362  26.925  41.326   7.512
 5237POPC   NC368363  20.334  43.457   5.607
 5237POPC   PO468364  20.545  42.898   5.320
 5237POPC   GL168365  20.694  43.109   5.713
 5237POPC   GL268366  20.829  43.460   5.800
 5237POPC   C1A68367  20.685  42.985   6.151
 5237POPC   D2A68368  20.424  42.811   6.460
 5237POPC   C3A68369  20.500  42.885   6.902
 5237POPC   C4A68370  20.613  43.177   7.233
 5237POPC   C1B68371  21.018  43.365   6.202
 5237POPC   C2B68372  20.792  43.316   6.578
 5237POPC   C3B68373  20.913  43.505   6.931
 5237POPC   C4B68374  21.103  43.400   7.274
 5238POPC   NC368375   2.466  35.631   5.608
 5238POPC   PO468376   1.991  35.602   5.129
 5238POPC   GL168377   1.993  35.448   5.600
 5238POPC   GL268378   2.212  35.180   5.806
 5238POPC   C1A68379   1.981  35.556   6.080
 5238POPC   D2A68380   1.762  35.309   6.397
 5238POPC   C3A68381   1.700  35.297   6.853
 5238POPC   C4A68382   1.835  35.246   7.281
 5238POPC   C1B68383   2.287  35.210   6.296
 5238POPC   C2B68384   2.209  35.409   6.686
 5238POPC   C3B68385   2.333  35.403   7.113
 5238POPC   C4B68386   2.193  35.562   7.531
 5239POPC   NC368387  19.696   5.152   5.457
 5239POPC   PO468388  20.249   5.300   5.633
 5239POPC   GL168389  19.881   5.386   5.899
 5239POPC   GL268390  19.513   5.337   5.880
 5239POPC   C1A68391  19.749   5.192   6.302
 5239POPC   D2A68392  19.857   4.967   6.689
 5239POPC   C3A68393  19.750   5.176   7.049
 5239POPC   C4A68394  19.938   5.387   7.369
 5239POPC   C1B68395  19.304   5.571   6.197
 5239POPC   C2B68396  19.426   5.468   6.611
 5239POPC   C3B68397  19.287   5.431   7.033
 5239POPC   C4B68398  19.442   5.331   7.438
 5240POPC   NC368399  31.782  34.982   5.408
 5240POPC   PO468400  31.316  35.459   5.448
 5240POPC   GL168401  31.449  35.265   5.807
 5240POPC   GL268402  31.720  35.444   5.798
 5240POPC   C1A68403  31.411  35.302   6.251
 5240POPC   D2A68404  31.136  35.638   6.458
 5240POPC   C3A68405  31.231  35.630   6.902
 5240POPC   C4A68406  31.298  35.205   7.083
 5240POPC   C1B68407  31.927  35.365   6.172
 5240POPC   C2B68408  31.827  35.462   6.591
 5240POPC   C3B68409  31.797  35.295   6.988
 5240POPC   C4B68410  31.731  34.937   7.240
 5241POPC   NC368411   3.829  14.483   5.114
 5241POPC   PO468412   4.437  14.518   5.486
 5241POPC   GL168413   4.431  14.597   5.878
 5241POPC   GL268414   4.638  14.826   5.929
 5241POPC   C1A68415   4.359  14.512   6.270
 5241POPC   D2A68416   4.302  14.305   6.617
 5241POPC   C3A68417   4.068  14.420   6.948
 5241POPC   C4A68418   4.252  14.296   7.295
 5241POPC   C1B68419   4.766  14.879   6.336
 5241POPC   C2B68420   4.497  14.788   6.670
 5241POPC   C3B68421   4.555  14.639   7.051
 5241POPC   C4B68422   4.663  14.908   7.340
 5242POPC   NC368423   6.339  36.672   5.381
 5242POPC   PO468424   6.739  37.169   5.255
 5242POPC   GL168425   6.704  36.904   5.653
 5242POPC   GL268426   6.541  37.208   5.814
 5242POPC   C1A68427   6.720  36.603   6.046
 5242POPC   D2A68428   6.708  36.671   6.533
 5242POPC   C3A68429   6.497  36.526   6.914
 5242POPC   C4A68430   6.458  36.680   7.309
 5242POPC   C1B68431   6.587  37.070   6.259
 5242POPC   C2B68432   6.698  37.148   6.724
 5242POPC   C3B68433   6.662  37.165   7.221
 5242POPC   C4B68434   6.667  37.221   7.688
 5243POPC   NC368435  21.950  43.582   5.476
 5243POPC   PO468436  22.388  44.059   5.464
 5243POPC   GL168437  22.033  44.070   5.779
 5243POPC   GL268438  22.046  43.750   5.938
 5243POPC   C1A68439  22.041  44.138   6.253
 5243POPC   D2A68440  22.122  44.146   6.686
 5243POPC   C3A68441  21.906  43.893   6.981
 5243POPC   C4A68442  22.060  43.817   7.394
 5243POPC   C1B68443  22.407  43.799   6.204
 5243POPC   C2B68444  22.287  43.659   6.608
 5243POPC   C3B68445  22.429  43.745   7.008
 5243POPC   C4B68446  22.465  43.524   7.380
 5244POPC   NC368447  21.765  10.072   5.390
 5244POPC   PO468448  22.243   9.565   5.480
 5244POPC   GL168449  22.191   9.783   5.824
 5244POPC   GL268450  21.848   9.815   5.865
 5244POPC   C1A68451  22.235   9.982   6.235
 5244POPC   D2A68452  22.334   9.860   6.661
 5244POPC   C3A68453  22.130  10.054   7.031
 5244POPC   C4A68454  21.943   9.930   7.413
 5244POPC   C1B68455  22.006   9.521   6.205
 5244POPC   C2B68456  22.036   9.396   6.651
 5244POPC   C3B68457  22.214   9.533   7.052
 5244POPC   C4B68458  22.573   9.823   7.152
 5245POPC   NC368459   7.523  16.164   5.364
 5245POPC   PO468460   6.902  15.964   5.421
 5245POPC   GL168461   7.236  15.897   5.727
 5245POPC   GL268462   7.415  16.226   5.848
 5245POPC   C1A68463   7.423  15.793   6.128
 5245POPC   D2A68464   7.557  16.016   6.496
 5245POPC   C3A68465   7.382  15.925   6.900
 5245POPC   C4A68466   7.319  16.106   7.311
 5245POPC   C1B68467   7.587  16.450   6.190
 5245POPC   C2B68468   7.643  16.498   6.613
 5245POPC   C3B68469   7.590  16.430   7.038
 5245POPC   C4B68470   7.631  16.502   7.494
 5246POPC   NC368471  11.255  17.455   5.346
 5246POPC   PO468472  11.769  17.143   5.681
 5246POPC   GL168473  11.486  17.374   5.987
 5246POPC   GL268474  11.141  17.494   5.864
 5246POPC   C1A68475  11.344  17.470   6.401
 5246POPC   D2A68476  11.444  17.695   6.779
 5246POPC   C3A68477  11.357  17.578   7.177
 5246POPC   C4A68478  11.527  17.379   7.551
 5246POPC   C1B68479  10.881  17.566   6.227
 5246POPC   C2B68480  10.927  17.670   6.667
 5246POPC   C3B68481  10.902  17.399   7.029
 5246POPC   C4B68482  11.049  17.240   7.421
 5247POPC   NC368483   8.893   4.196   5.289
 5247POPC   PO468484   8.912   4.844   5.411
 5247POPC   GL168485   8.796   4.497   5.724
 5247POPC   GL268486   8.800   4.105   5.776
 5247POPC   C1A68487   8.833   4.448   6.152
 5247POPC   D2A68488   8.921   4.583   6.545
 5247POPC   C3A68489   8.869   4.334   6.923
 5247POPC   C4A68490   8.853   4.557   7.326
 5247POPC   C1B68491   9.064   3.980   6.148
 5247POPC   C2B68492   9.173   3.972   6.604
 5247POPC   C3B68493   9.299   4.056   7.029
 5247POPC   C4B68494   9.564   4.005   7.394
 5248POPC   NC368495  23.574  29.473   5.557
 5248POPC   PO468496  23.432  28.782   5.588
 5248POPC   GL168497  23.712  29.042   5.863
 5248POPC   GL268498  23.836  29.380   5.976
 5248POPC   C1A68499  23.848  28.959   6.243
 5248POPC   D2A68500  23.562  28.951   6.559
 5248POPC   C3A68501  23.830  29.037   6.896
 5248POPC   C4A68502  23.737  29.050   7.299
 5248POPC   C1B68503  23.473  29.370   6.249
 5248POPC   C2B68504  23.466  29.543   6.662
 5248POPC   C3B68505  23.452  29.415   7.062
 5248POPC   C4B68506  23.840  29.534   7.197
 5249POPC   NC368507  44.936  16.640   5.419
 5249POPC   PO468508  44.306  16.666   5.387
 5249POPC   GL168509  44.471  16.856   5.780
 5249POPC   GL268510  44.784  16.658   5.912
 5249POPC   C1A68511  44.560  16.988   6.229
 5249POPC   D2A68512  44.572  16.727   6.622
 5249POPC   C3A68513  44.685  16.970   6.984
 5249POPC   C4A68514  44.565  17.120   7.380
 5249POPC   C1B68515   0.072  16.427   6.239
 5249POPC   C2B68516   0.100  16.399   6.721
 5249POPC   C3B68517  44.865  16.493   7.129
 5249POPC   C4B68518  44.615  16.634   7.529
 5250POPC   NC368519   2.937  39.201   5.415
 5250POPC   PO468520   2.383  39.773   5.490
 5250POPC   GL168521   2.574  39.501   5.819
 5250POPC   GL268522   2.584  39.132   5.813
 5250POPC   C1A68523   2.737  39.390   6.214
 5250POPC   D2A68524   2.589  39.207   6.567
 5250POPC   C3A68525   2.669  39.438   6.905
 5250POPC   C4A68526   2.832  39.534   7.288
 5250POPC   C1B68527   2.728  38.857   6.181
 5250POPC   C2B68528   2.899  38.799   6.612
 5250POPC   C3B68529   2.926  39.000   7.002
 5250POPC   C4B68530   3.133  39.131   7.342
 5251POPC   NC368531  19.823  23.266   5.362
 5251POPC   PO468532  19.546  22.745   5.542
 5251POPC   GL168533  19.674  23.108   5.841
 5251POPC   GL268534  20.014  23.243   5.888
 5251POPC   C1A68535  19.675  23.388   6.226
 5251POPC   D2A68536  19.980  23.518   6.569
 5251POPC   C3A68537  19.930  23.256   6.953
 5251POPC   C4A68538  19.690  22.947   7.208
 5251POPC   C1B68539  19.952  22.952   6.276
 5251POPC   C2B68540  19.986  22.795   6.736
 5251POPC   C3B68541  20.208  22.856   7.161
 5251POPC   C4B68542  20.340  22.835   7.611
 5252POPC   NC368543  29.865   6.063   5.512
 5252POPC   PO468544  30.083   5.477   5.431
 5252POPC   GL168545  30.097   5.746   5.831
 5252POPC   GL268546  29.756   5.893   5.995
 5252POPC   C1A68547  30.116   5.675   6.265
 5252POPC   D2A68548  29.853   5.896   6.566
 5252POPC   C3A68549  30.040   5.973   6.973
 5252POPC   C4A68550  29.926   5.602   7.199
 5252POPC   C1B68551  29.576   6.241   6.267
 5252POPC   C2B68552  29.533   6.260   6.731
 5252POPC   C3B68553  29.510   5.980   7.119
 5252POPC   C4B68554  29.783   5.995   7.498
 5253POPC   NC368555  35.928  14.730   5.848
 5253POPC   PO468556  35.591  15.038   5.347
 5253POPC   GL168557  35.547  15.138   5.793
 5253POPC   GL268558  35.225  15.307   5.901
 5253POPC   C1A68559  35.602  15.331   6.228
 5253POPC   D2A68560  35.352  15.247   6.624
 5253POPC   C3A68561  35.536  15.386   7.043
 5253POPC   C4A68562  35.555  15.142   7.444
 5253POPC   C1B68563  34.930  15.209   6.241
 5253POPC   C2B68564  34.822  14.881   6.529
 5253POPC   C3B68565  34.917  14.884   6.956
 5253POPC   C4B68566  35.069  15.184   7.219
 5254POPC   NC368567  37.874  25.175   5.432
 5254POPC   PO468568  37.343  25.702   5.375
 5254POPC   GL168569  37.495  25.400   5.721
 5254POPC   GL268570  37.849  25.495   5.835
 5254POPC   C1A68571  37.514  25.134   6.095
 5254POPC   D2A68572  37.472  25.283   6.504
 5254POPC   C3A68573  37.569  25.123   6.895
 5254POPC   C4A68574  37.470  25.338   7.262
 5254POPC   C1B68575  38.089  25.589   6.229
 5254POPC   C2B68576  38.137  25.502   6.666
 5254POPC   C3B68577  37.918  25.562   7.055
 5254POPC   C4B68578  37.962  25.589   7.527
 5255POPC   NC368579  24.172  41.138   5.306
 5255POPC   PO468580  23.750  40.647   5.305
 5255POPC   GL168581  23.827  40.787   5.754
 5255POPC   GL268582  23.947  40.511   5.981
 5255POPC   C1A68583  23.862  40.970   6.196
 5255POPC   D2A68584  23.653  40.950   6.615
 5255POPC   C3A68585  23.901  40.837   6.992
 5255POPC   C4A68586  23.975  40.596   7.364
 5255POPC   C1B68587  23.514  40.577   6.226
 5255POPC   C2B68588  23.288  40.501   6.661
 5255POPC   C3B68589  23.464  40.546   7.099
 5255POPC   C4B68590  23.507  40.756   7.504
 5256POPC   NC368591   7.367  19.181   5.400
 5256POPC   PO468592   7.656  18.656   5.645
 5256POPC   GL168593   7.344  18.900   5.857
 5256POPC   GL268594   7.408  19.257   5.881
 5256POPC   C1A68595   7.269  19.014   6.302
 5256POPC   D2A68596   7.077  18.970   6.694
 5256POPC   C3A68597   7.227  19.120   7.085
 5256POPC   C4A68598   7.266  18.942   7.514
 5256POPC   C1B68599   7.602  19.400   6.198
 5256POPC   C2B68600   7.692  19.202   6.556
 5256POPC   C3B68601   7.664  19.335   6.966
 5256POPC   C4B68602   7.746  19.051   7.272
 5257POPC   NC368603   9.957  40.904   5.432
 5257POPC   PO468604   9.409  41.027   5.729
 5257POPC   GL168605   9.668  40.654   5.828
 5257POPC   GL268606  10.052  40.647   5.871
 5257POPC   C1A68607   9.597  40.450   6.217
 5257POPC   D2A68608   9.622  40.679   6.612
 5257POPC   C3A68609   9.435  40.599   7.016
 5257POPC   C4A68610   9.343  41.025   7.178
 5257POPC   C1B68611   9.975  41.013   6.171
 5257POPC   C2B68612   9.860  41.157   6.629
 5257POPC   C3B68613   9.834  40.973   7.027
 5257POPC   C4B68614   9.950  40.549   6.992
 5258POPC   NC368615  33.237   7.636   5.212
 5258POPC   PO468616  32.785   7.298   5.533
 5258POPC   GL168617  32.819   7.446   5.902
 5258POPC   GL268618  33.126   7.603   5.840
 5258POPC   C1A68619  32.714   7.348   6.327
 5258POPC   D2A68620  32.957   7.328   6.677
 5258POPC   C3A68621  32.938   7.088   7.019
 5258POPC   C4A68622  32.759   7.423   7.226
 5258POPC   C1B68623  33.237   7.430   6.239
 5258POPC   C2B68624  33.451   7.469   6.622
 5258POPC   C3B68625  33.339   7.396   7.025
 5258POPC   C4B68626  33.219   7.401   7.419
 5259POPC   NC368627  33.957  42.057   5.303
 5259POPC   PO468628  33.565  42.603   5.503
 5259POPC   GL168629  33.722  42.445   5.870
 5259POPC   GL268630  33.756  42.103   5.803
 5259POPC   C1A68631  33.575  42.425   6.295
 5259POPC   D2A68632  33.703  42.682   6.623
 5259POPC   C3A68633  33.723  42.548   7.062
 5259POPC   C4A68634  34.006  42.493   7.429
 5259POPC   C1B68635  33.899  42.019   6.237
 5259POPC   C2B68636  33.920  42.211   6.641
 5259POPC   C3B68637  34.039  42.146   7.050
 5259POPC   C4B68638  33.796  42.018   7.385
 5260POPC   NC368639  30.596  42.542   5.477
 5260POPC   PO468640  31.065  42.093   5.514
 5260POPC   GL168641  30.730  42.167   5.805
 5260POPC   GL268642  30.571  41.828   5.799
 5260POPC   C1A68643  30.648  42.368   6.202
 5260POPC   D2A68644  30.807  42.600   6.531
 5260POPC   C3A68645  30.618  42.455   6.914
 5260POPC   C4A68646  30.841  42.413   7.299
 5260POPC   C1B68647  30.365  41.963   6.180
 5260POPC   C2B68648  30.309  42.138   6.633
 5260POPC   C3B68649  30.401  42.004   7.097
 5260POPC   C4B68650  30.571  42.029   7.565
 5261POPC   NC368651  19.465  42.105   5.149
 5261POPC   PO468652  19.950  42.538   5.343
 5261POPC   GL168653  19.942  42.422   5.778
 5261POPC   GL268654  19.755  42.115   5.780
 5261POPC   C1A68655  19.928  42.351   6.228
 5261POPC   D2A68656  19.960  42.624   6.583
 5261POPC   C3A68657  20.141  42.497   6.974
 5261POPC   C4A68658  19.870  42.428   7.323
 5261POPC   C1B68659  19.538  41.947   6.164
 5261POPC   C2B68660  19.580  41.927   6.606
 5261POPC   C3B68661  19.628  42.138   6.984
 5261POPC   C4B68662  19.536  41.999   7.392
 5262POPC   NC368663   9.709  22.277   5.297
 5262POPC   PO468664   9.724  21.798   5.700
 5262POPC   GL168665   9.857  22.116   5.921
 5262POPC   GL268666   9.558  22.314   5.820
 5262POPC   C1A68667   9.896  22.065   6.372
 5262POPC   D2A68668   9.695  21.772   6.656
 5262POPC   C3A68669   9.739  21.921   7.064
 5262POPC   C4A68670   9.999  22.076   7.386
 5262POPC   C1B68671   9.506  22.382   6.282
 5262POPC   C2B68672   9.552  22.302   6.746
 5262POPC   C3B68673   9.461  22.328   7.212
 5262POPC   C4B68674   9.686  22.426   7.637
 5263POPC   NC368675  32.637   3.124   5.456
 5263POPC   PO468676  32.026   3.246   5.113
 5263POPC   GL168677  32.124   3.358   5.625
 5263POPC   GL268678  32.367   3.181   5.869
 5263POPC   C1A68679  32.116   3.564   6.069
 5263POPC   D2A68680  32.235   3.526   6.526
 5263POPC   C3A68681  32.130   3.327   6.922
 5263POPC   C4A68682  32.216   3.466   7.346
 5263POPC   C1B68683  32.608   3.418   6.199
 5263POPC   C2B68684  32.731   3.351   6.639
 5263POPC   C3B68685  32.643   3.442   7.075
 5263POPC   C4B68686  32.650   3.215   7.479
 5264POPC   NC368687  28.088  10.416   5.687
 5264POPC   PO468688  28.656  10.542   5.410
 5264POPC   GL168689  28.597  10.499   5.827
 5264POPC   GL268690  28.404  10.799   5.839
 5264POPC   C1A68691  28.427  10.471   6.254
 5264POPC   D2A68692  28.115  10.576   6.550
 5264POPC   C3A68693  28.342  10.531   6.939
 5264POPC   C4A68694  28.202  10.609   7.339
 5264POPC   C1B68695  28.726  10.889   6.146
 5264POPC   C2B68696  28.568  10.894   6.548
 5264POPC   C3B68697  28.752  10.945   6.937
 5264POPC   C4B68698  28.664  10.790   7.333
 5265POPC   NC368699   0.242  33.477   5.532
 5265POPC   PO468700   0.694  33.006   5.379
 5265POPC   GL168701   0.508  33.078   5.753
 5265POPC   GL268702   0.639  32.751   5.865
 5265POPC   C1A68703   0.339  33.265   6.159
 5265POPC   D2A68704   0.441  32.995   6.496
 5265POPC   C3A68705   0.412  33.130   6.923
 5265POPC   C4A68706   0.634  33.023   7.288
 5265POPC   C1B68707   0.185  32.783   6.048
 5265POPC   C2B68708  44.995  32.702   6.448
 5265POPC   C3B68709   0.202  32.658   6.835
 5265POPC   C4B68710   0.239  32.736   7.254
 5266POPC   NC368711   9.454   3.666   5.580
 5266POPC   PO468712   8.855   3.733   5.384
 5266POPC   GL168713   9.018   3.570   5.803
 5266POPC   GL268714   9.242   3.258   5.841
 5266POPC   C1A68715   8.896   3.506   6.227
 5266POPC   D2A68716   8.684   3.624   6.579
 5266POPC   C3A68717   8.862   3.740   6.945
 5266POPC   C4A68718   9.060   3.724   7.321
 5266POPC   C1B68719   9.205   3.117   6.281
 5266POPC   C2B68720   9.221   3.352   6.674
 5266POPC   C3B68721   9.091   3.271   7.097
 5266POPC   C4B68722   9.113   3.299   7.584
 5267POPC   NC368723  32.518  20.822   5.244
 5267POPC   PO468724  32.061  20.390   5.416
 5267POPC   GL168725  32.245  20.523   5.779
 5267POPC   GL268726  32.208  20.157   5.848
 5267POPC   C1A68727  32.242  20.782   6.190
 5267POPC   D2A68728  32.423  20.662   6.626
 5267POPC   C3A68729  32.309  20.737   7.085
 5267POPC   C4A68730  32.516  20.527   7.452
 5267POPC   C1B68731  32.344  20.296   6.226
 5267POPC   C2B68732  32.113  20.250   6.555
 5267POPC   C3B68733  32.126  20.298   6.940
 5267POPC   C4B68734  32.074  20.221   7.356
 5268POPC   NC368735  29.751  39.801   5.166
 5268POPC   PO468736  29.151  40.027   5.390
 5268POPC   GL168737  29.169  40.027   5.813
 5268POPC   GL268738  29.333  39.719   5.877
 5268POPC   C1A68739  29.047  39.939   6.241
 5268POPC   D2A68740  29.277  39.804   6.583
 5268POPC   C3A68741  29.136  39.977   6.921
 5268POPC   C4A68742  29.098  40.263   7.266
 5268POPC   C1B68743  29.584  39.565   6.234
 5268POPC   C2B68744  29.499  39.342   6.634
 5268POPC   C3B68745  29.233  39.465   6.989
 5268POPC   C4B68746  29.191  39.754   7.348
 5269POPC   NC368747  26.884  42.941   5.364
 5269POPC   PO468748  27.278  43.511   5.225
 5269POPC   GL168749  27.168  43.258   5.633
 5269POPC   GL268750  26.808  43.370   5.697
 5269POPC   C1A68751  26.951  43.000   6.015
 5269POPC   D2A68752  27.042  43.090   6.459
 5269POPC   C3A68753  26.906  42.960   6.900
 5269POPC   C4A68754  26.852  43.086   7.374
 5269POPC   C1B68755  26.756  43.446   6.175
 5269POPC   C2B68756  26.617  43.334   6.614
 5269POPC   C3B68757  26.486  43.223   7.009
 5269POPC   C4B68758  26.359  42.810   7.128
 5270POPC   NC368759  16.226  15.192   5.459
 5270POPC   PO468760  15.658  14.833   5.530
 5270POPC   GL168761  15.882  15.131   5.835
 5270POPC   GL268762  16.026  15.486   5.809
 5270POPC   C1A68763  16.022  15.045   6.244
 5270POPC   D2A68764  15.965  14.842   6.615
 5270POPC   C3A68765  15.674  15.032   6.894
 5270POPC   C4A68766  15.658  14.930   7.284
 5270POPC   C1B68767  16.001  15.558   6.219
 5270POPC   C2B68768  15.907  15.377   6.616
 5270POPC   C3B68769  16.050  15.394   7.033
 5270POPC   C4B68770  16.097  15.670   7.396
 5271POPC   NC368771  26.305  28.523   5.588
 5271POPC   PO468772  26.004  27.932   5.424
 5271POPC   GL168773  26.043  28.154   5.825
 5271POPC   GL268774  25.819  28.455   5.818
 5271POPC   C1A68775  26.311  28.186   6.223
 5271POPC   D2A68776  26.227  28.388   6.651
 5271POPC   C3A68777  26.302  28.114   6.988
 5271POPC   C4A68778  26.055  27.920   7.301
 5271POPC   C1B68779  25.946  28.538   6.252
 5271POPC   C2B68780  25.718  28.490   6.690
 5271POPC   C3B68781  25.853  28.437   7.129
 5271POPC   C4B68782  25.901  28.700   7.529
 5272POPC   NC368783  25.710   9.733   5.458
 5272POPC   PO468784  26.451   9.540   5.488
 5272POPC   GL168785  26.153   9.819   5.702
 5272POPC   GL268786  25.953   9.546   5.851
 5272POPC   C1A68787  26.011  10.019   6.086
 5272POPC   D2A68788  25.841  10.130   6.496
 5272POPC   C3A68789  26.000   9.845   6.815
 5272POPC   C4A68790  26.256   9.916   7.201
 5272POPC   C1B68791  26.261   9.590   6.152
 5272POPC   C2B68792  26.233   9.482   6.534
 5272POPC   C3B68793  26.383   9.366   6.901
 5272POPC   C4B68794  26.238   9.111   7.224
 5273POPC   NC368795  40.289  23.946   5.439
 5273POPC   PO468796  39.726  23.421   5.402
 5273POPC   GL168797  39.717  23.737   5.795
 5273POPC   GL268798  39.985  24.012   5.866
 5273POPC   C1A68799  39.811  23.714   6.248
 5273POPC   D2A68800  40.167  23.522   6.459
 5273POPC   C3A68801  40.168  23.510   6.904
 5273POPC   C4A68802  39.938  23.792   7.210
 5273POPC   C1B68803  40.329  23.897   6.154
 5273POPC   C2B68804  40.514  23.897   6.619
 5273POPC   C3B68805  40.387  23.951   7.067
 5273POPC   C4B68806  40.319  24.005   7.516
 5274POPC   NC368807  40.679  44.409   5.382
 5274POPC   PO468808  40.991  44.939   5.357
 5274POPC   GL168809  41.030  44.774   5.806
 5274POPC   GL268810  40.986  44.405   5.826
 5274POPC   C1A68811  41.040  44.907   6.271
 5274POPC   D2A68812  40.753  44.916   6.646
 5274POPC   C3A68813  40.860  44.821   7.088
 5274POPC   C4A68814  40.679  44.750   7.515
 5274POPC   C1B68815  40.718  44.517   6.214
 5274POPC   C2B68816  40.666  44.384   6.676
 5274POPC   C3B68817  40.507  44.429   7.138
 5274POPC   C4B68818  40.559  44.250   7.569
 5275POPC   NC368819  38.829  39.120   5.433
 5275POPC   PO468820  38.108  38.949   5.444
 5275POPC   GL168821  38.220  39.187   5.800
 5275POPC   GL268822  38.530  39.219   5.832
 5275POPC   C1A68823  38.191  39.434   6.183
 5275POPC   D2A68824  38.397  39.399   6.579
 5275POPC   C3A68825  38.171  39.337   6.936
 5275POPC   C4A68826  38.401  39.018   7.158
 5275POPC   C1B68827  38.461  39.007   6.222
 5275POPC   C2B68828  38.728  38.947   6.548
 5275POPC   C3B68829  38.834  39.178   6.872
 5275POPC   C4B68830  38.907  39.147   7.291
 5276POPC   NC368831  34.929  41.346   5.391
 5276POPC   PO468832  34.399  41.704   5.539
 5276POPC   GL168833  34.504  41.536   5.921
 5276POPC   GL268834  34.622  41.227   5.833
 5276POPC   C1A68835  34.639  41.481   6.341
 5276POPC   D2A68836  34.542  41.552   6.758
 5276POPC   C3A68837  34.852  41.494   7.082
 5276POPC   C4A68838  35.029  41.824   7.319
 5276POPC   C1B68839  34.385  41.054   6.186
 5276POPC   C2B68840  34.349  41.092   6.633
 5276POPC   C3B68841  34.499  40.964   7.035
 5276POPC   C4B68842  34.670  41.141   7.433
 5277POPC   NC368843  27.303   4.116   5.562
 5277POPC   PO468844  27.992   4.070   5.592
 5277POPC   GL168845  27.965   4.223   5.994
 5277POPC   GL268846  27.606   4.217   5.980
 5277POPC   C1A68847  27.828   4.425   6.405
 5277POPC   D2A68848  27.476   4.386   6.724
 5277POPC   C3A68849  27.605   4.490   7.141
 5277POPC   C4A68850  27.926   4.765   7.309
 5277POPC   C1B68851  27.428   4.013   6.338
 5277POPC   C2B68852  27.311   3.837   6.763
 5277POPC   C3B68853  27.225   4.106   7.134
 5277POPC   C4B68854  27.292   4.316   7.536
 5278POPC   NC368855  27.192  30.647   5.413
 5278POPC   PO468856  26.512  30.399   5.477
 5278POPC   GL168857  26.780  30.603   5.755
 5278POPC   GL268858  27.049  30.370   5.817
 5278POPC   C1A68859  26.850  30.827   6.159
 5278POPC   D2A68860  26.634  31.010   6.544
 5278POPC   C3A68861  26.861  30.967   6.929
 5278POPC   C4A68862  27.026  30.763   7.280
 5278POPC   C1B68863  26.892  30.310   6.223
 5278POPC   C2B68864  26.806  30.512   6.603
 5278POPC   C3B68865  26.919  30.367   7.000
 5278POPC   C4B68866  27.093  30.242   7.383
 5279POPC   NC368867  42.108  42.422   5.321
 5279POPC   PO468868  42.815  42.287   5.287
 5279POPC   GL168869  42.523  42.424   5.679
 5279POPC   GL268870  42.265  42.181   5.828
 5279POPC   C1A68871  42.548  42.403   6.168
 5279POPC   D2A68872  42.415  42.316   6.591
 5279POPC   C3A68873  42.590  42.474   6.965
 5279POPC   C4A68874  42.618  42.256   7.373
 5279POPC   C1B68875  42.009  42.260   6.253
 5279POPC   C2B68876  41.897  42.342   6.714
 5279POPC   C3B68877  42.116  42.408   7.121
 5279POPC   C4B68878  42.115  42.296   7.557
 5280POPC   NC368879  33.835  38.792   5.461
 5280POPC   PO468880  33.741  39.400   5.319
 5280POPC   GL168881  33.872  39.232   5.762
 5280POPC   GL268882  34.233  39.252   5.886
 5280POPC   C1A68883  33.690  39.155   6.209
 5280POPC   D2A68884  33.437  39.058   6.597
 5280POPC   C3A68885  33.511  39.267   7.011
 5280POPC   C4A68886  33.635  39.409   7.440
 5280POPC   C1B68887  34.365  39.504   6.232
 5280POPC   C2B68888  34.221  39.580   6.672
 5280POPC   C3B68889  34.039  39.414   7.095
 5280POPC   C4B68890  34.068  39.122   7.462
 5281POPC   NC368891  39.044  13.743   5.510
 5281POPC   PO468892  39.488  13.220   5.576
 5281POPC   GL168893  39.306  13.478   5.887
 5281POPC   GL268894  39.458  13.840   5.879
 5281POPC   C1A68895  39.143  13.354   6.320
 5281POPC   D2A68896  38.960  13.430   6.762
 5281POPC   C3A68897  39.159  13.393   7.171
 5281POPC   C4A68898  39.274  13.625   7.561
 5281POPC   C1B68899  39.138  13.856   6.198
 5281POPC   C2B68900  38.913  13.907   6.576
 5281POPC   C3B68901  39.079  13.894   6.997
 5281POPC   C4B68902  38.838  13.750   7.319
 5282POPC   NC368903  14.847  32.823   5.648
 5282POPC   PO468904  15.322  33.254   5.474
 5282POPC   GL168905  15.378  33.056   5.846
 5282POPC   GL268906  15.680  32.901   5.825
 5282POPC   C1A68907  15.240  32.860   6.244
 5282POPC   D2A68908  15.004  33.002   6.612
 5282POPC   C3A68909  14.955  32.816   7.007
 5282POPC   C4A68910  15.137  32.846   7.401
 5282POPC   C1B68911  15.705  33.066   6.256
 5282POPC   C2B68912  15.540  33.050   6.643
 5282POPC   C3B68913  15.465  33.025   7.056
 5282POPC   C4B68914  15.506  33.192   7.475
 5283POPC   NC368915  34.870  20.084   5.362
 5283POPC   PO468916  34.501  19.604   5.189
 5283POPC   GL168917  34.621  19.644   5.671
 5283POPC   GL268918  34.923  19.782   5.758
 5283POPC   C1A68919  34.545  19.747   6.145
 5283POPC   D2A68920  34.372  19.942   6.537
 5283POPC   C3A68921  34.602  19.903   6.910
 5283POPC   C4A68922  34.540  19.523   7.153
 5283POPC   C1B68923  34.897  20.120   6.075
 5283POPC   C2B68924  34.874  20.120   6.509
 5283POPC   C3B68925  35.113  20.016   6.857
 5283POPC   C4B68926  35.104  20.202   7.246
 5284POPC   NC368927  31.854  16.888   5.482
 5284POPC   PO468928  31.195  16.612   5.565
 5284POPC   GL168929  31.474  16.812   5.863
 5284POPC   GL268930  31.738  16.560   5.887
 5284POPC   C1A68931  31.583  17.098   6.233
 5284POPC   D2A68932  31.467  17.200   6.684
 5284POPC   C3A68933  31.547  16.894   7.022
 5284POPC   C4A68934  31.817  16.863   7.398
 5284POPC   C1B68935  31.376  16.378   6.142
 5284POPC   C2B68936  31.221  16.177   6.513
 5284POPC   C3B68937  31.351  16.352   6.913
 5284POPC   C4B68938  31.682  16.416   7.203
 5285POPC   NC368939  42.846  43.522   5.475
 5285POPC   PO468940  43.546  43.768   5.388
 5285POPC   GL168941  43.202  43.835   5.727
 5285POPC   GL268942  43.050  44.157   5.824
 5285POPC   C1A68943  43.218  43.834   6.200
 5285POPC   D2A68944  43.264  43.545   6.567
 5285POPC   C3A68945  42.958  43.549   6.935
 5285POPC   C4A68946  42.964  43.589   7.397
 5285POPC   C1B68947  42.887  44.220   6.278
 5285POPC   C2B68948  42.974  44.028   6.717
 5285POPC   C3B68949  43.045  44.075   7.183
 5285POPC   C4B68950  43.160  44.346   7.568
 5286POPC   NC368951   5.686  19.147   5.529
 5286POPC   PO468952   6.074  18.657   5.366
 5286POPC   GL168953   5.893  18.753   5.772
 5286POPC   GL268954   6.037  19.049   5.916
 5286POPC   C1A68955   5.730  18.738   6.182
 5286POPC   D2A68956   5.851  18.955   6.542
 5286POPC   C3A68957   5.688  18.813   6.936
 5286POPC   C4A68958   5.981  18.721   7.272
 5286POPC   C1B68959   5.763  19.315   6.180
 5286POPC   C2B68960   5.510  19.325   6.557
 5286POPC   C3B68961   5.712  19.341   6.944
 5286POPC   C4B68962   5.668  19.153   7.320
 5287POPC   NC368963  30.941  22.196   5.438
 5287POPC   PO468964  30.294  22.441   5.519
 5287POPC   GL168965  30.529  22.148   5.814
 5287POPC   GL268966  30.850  22.215   5.943
 5287POPC   C1A68967  30.385  22.010   6.235
 5287POPC   D2A68968  30.523  21.866   6.648
 5287POPC   C3A68969  30.669  22.162   6.958
 5287POPC   C4A68970  30.691  22.281   7.387
 5287POPC   C1B68971  30.873  21.851   6.182
 5287POPC   C2B68972  31.026  21.831   6.579
 5287POPC   C3B68973  30.964  21.755   7.000
 5287POPC   C4B68974  31.139  22.091   7.248
 5288POPC   NC368975  15.749   6.152   5.548
 5288POPC   PO468976  16.250   5.736   5.558
 5288POPC   GL168977  16.193   5.794   5.938
 5288POPC   GL268978  16.120   6.120   5.920
 5288POPC   C1A68979  16.227   5.850   6.361
 5288POPC   D2A68980  15.987   5.834   6.723
 5288POPC   C3A68981  16.270   5.759   7.037
 5288POPC   C4A68982  16.253   5.957   7.430
 5288POPC   C1B68983  15.837   6.168   6.296
 5288POPC   C2B68984  15.783   6.306   6.735
 5288POPC   C3B68985  15.933   6.205   7.132
 5288POPC   C4B68986  15.762   6.113   7.546
 5289POPC   NC368987  29.272  43.700   5.404
 5289POPC   PO468988  29.002  44.370   5.518
 5289POPC   GL168989  29.050  44.065   5.892
 5289POPC   GL268990  29.070  43.705   5.849
 5289POPC   C1A68991  29.056  44.016   6.378
 5289POPC   D2A68992  28.974  44.025   6.839
 5289POPC   C3A68993  29.152  44.274   7.208
 5289POPC   C4A68994  29.134  44.171   7.676
 5289POPC   C1B68995  29.301  43.611   6.175
 5289POPC   C2B68996  29.154  43.541   6.592
 5289POPC   C3B68997  29.297  43.633   7.014
 5289POPC   C4B68998  29.047  43.808   7.323
 5290POPC   NC368999  13.409  20.763   5.445
 5290POPC   PO469000  12.913  20.372   5.470
 5290POPC   GL169001  12.932  20.676   5.764
 5290POPC   GL269002  12.598  20.859   5.742
 5290POPC   C1A69003  13.078  20.666   6.201
 5290POPC   D2A69004  12.921  20.404   6.506
 5290POPC   C3A69005  13.093  20.532   6.866
 5290POPC   C4A69006  12.854  20.575   7.209
 5290POPC   C1B69007  12.578  20.708   6.140
 5290POPC   C2B69008  12.726  20.887   6.540
 5290POPC   C3B69009  12.544  20.863   6.936
 5290POPC   C4B69010  12.501  20.943   7.368
 5291POPC   NC369011  18.479  24.953   5.441
 5291POPC   PO469012  17.910  25.399   5.496
 5291POPC   GL169013  18.097  25.326   5.924
 5291POPC   GL269014  18.410  25.213   5.889
 5291POPC   C1A69015  18.195  25.436   6.320
 5291POPC   D2A69016  18.486  25.339   6.623
 5291POPC   C3A69017  18.232  25.538   6.888
 5291POPC   C4A69018  18.285  25.704   7.251
 5291POPC   C1B69019  18.403  24.965   6.259
 5291POPC   C2B69020  18.564  24.836   6.655
 5291POPC   C3B69021  18.449  25.008   7.023
 5291POPC   C4B69022  18.107  25.188   7.232
 5292POPC   NC369023  28.431   6.920   5.570
 5292POPC   PO469024  28.503   6.219   5.675
 5292POPC   GL169025  28.380   6.536   5.900
 5292POPC   GL269026  28.692   6.709   5.957
 5292POPC   C1A69027  28.163   6.579   6.250
 5292POPC   D2A69028  28.284   6.401   6.650
 5292POPC   C3A69029  28.320   6.647   7.055
 5292POPC   C4A69030  28.330   6.531   7.535
 5292POPC   C1B69031  28.617   6.745   6.389
 5292POPC   C2B69032  28.763   6.618   6.763
 5292POPC   C3B69033  28.900   6.736   7.147
 5292POPC   C4B69034  28.670   6.872   7.479
 5293POPC   NC369035  23.197  38.392   5.279
 5293POPC   PO469036  22.812  38.777   5.398
 5293POPC   GL169037  23.024  38.566   5.785
 5293POPC   GL269038  23.108  38.809   6.045
 5293POPC   C1A69039  23.007  38.326   6.208
 5293POPC   D2A69040  22.708  38.247   6.545
 5293POPC   C3A69041  22.787  38.326   6.991
 5293POPC   C4A69042  23.168  38.422   7.223
 5293POPC   C1B69043  22.710  38.742   6.263
 5293POPC   C2B69044  22.606  38.727   6.705
 5293POPC   C3B69045  22.861  38.838   7.060
 5293POPC   C4B69046  23.032  38.938   7.480
 5294POPC   NC369047  11.482  41.035   5.397
 5294POPC   PO469048  11.283  40.354   5.495
 5294POPC   GL169049  11.340  40.731   5.786
 5294POPC   GL269050  11.660  40.840   5.866
 5294POPC   C1A69051  11.252  41.013   6.141
 5294POPC   D2A69052  11.173  40.859   6.538
 5294POPC   C3A69053  11.235  41.083   6.912
 5294POPC   C4A69054  11.155  41.034   7.341
 5294POPC   C1B69055  11.573  40.619   6.272
 5294POPC   C2B69056  11.579  40.567   6.742
 5294POPC   C3B69057  11.523  40.721   7.175
 5294POPC   C4B69058  11.625  40.540   7.588
 5295POPC   NC369059  44.099  38.889   5.496
 5295POPC   PO469060  43.607  38.522   5.469
 5295POPC   GL169061  43.771  38.425   5.878
 5295POPC   GL269062  43.855  38.068   5.935
 5295POPC   C1A69063  43.819  38.645   6.282
 5295POPC   D2A69064  44.092  38.666   6.643
 5295POPC   C3A69065  43.909  38.591   7.043
 5295POPC   C4A69066  43.987  38.570   7.478
 5295POPC   C1B69067  43.680  38.119   6.338
 5295POPC   C2B69068  43.557  38.393   6.665
 5295POPC   C3B69069  43.439  38.334   7.077
 5295POPC   C4B69070  43.452  38.194   7.499
 5296POPC   NC369071  12.722  24.832   5.172
 5296POPC   PO469072  13.131  25.194   5.573
 5296POPC   GL169073  13.017  25.287   5.947
 5296POPC   GL269074  13.281  25.472   6.001
 5296POPC   C1A69075  12.798  25.243   6.342
 5296POPC   D2A69076  12.568  25.062   6.691
 5296POPC   C3A69077  12.679  25.190   7.092
 5296POPC   C4A69078  12.868  25.109   7.478
 5296POPC   C1B69079  13.141  25.613   6.403
 5296POPC   C2B69080  13.001  25.499   6.817
 5296POPC   C3B69081  12.974  25.572   7.271
 5296POPC   C4B69082  12.866  25.928   7.550
 5297POPC   NC369083  28.878   0.287   5.406
 5297POPC   PO469084  28.329  44.798   5.401
 5297POPC   GL169085  28.110  44.743   5.784
 5297POPC   GL269086  28.025  44.419   5.784
 5297POPC   C1A69087  28.229  44.802   6.208
 5297POPC   D2A69088  28.425  44.963   6.566
 5297POPC   C3A69089  28.393  44.656   6.848
 5297POPC   C4A69090  28.465  44.786   7.211
 5297POPC   C1B69091  28.127  44.300   6.174
 5297POPC   C2B69092  27.996  44.462   6.550
 5297POPC   C3B69093  28.018  44.271   6.931
 5297POPC   C4B69094  28.083  44.465   7.295
 5298POPC   NC369095   3.542  11.939   5.543
 5298POPC   PO469096   3.983  12.285   5.414
 5298POPC   GL169097   3.745  12.306   5.836
 5298POPC   GL269098   3.590  12.001   6.024
 5298POPC   C1A69099   3.690  12.396   6.299
 5298POPC   D2A69100   3.445  12.126   6.585
 5298POPC   C3A69101   3.543  12.303   6.971
 5298POPC   C4A69102   3.509  12.187   7.401
 5298POPC   C1B69103   3.705  11.656   6.269
 5298POPC   C2B69104   3.634  11.578   6.685
 5298POPC   C3B69105   3.541  11.777   7.068
 5298POPC   C4B69106   3.710  11.737   7.500
 5299POPC   NC369107  31.928  14.014   5.325
 5299POPC   PO469108  32.388  13.572   5.425
 5299POPC   GL169109  32.514  13.666   5.814
 5299POPC   GL269110  32.168  13.603   5.890
 5299POPC   C1A69111  32.594  13.570   6.234
 5299POPC   D2A69112  32.579  13.834   6.581
 5299POPC   C3A69113  32.344  13.740   6.954
 5299POPC   C4A69114  32.557  13.438   7.151
 5299POPC   C1B69115  32.137  13.314   6.225
 5299POPC   C2B69116  32.048  13.450   6.647
 5299POPC   C3B69117  32.058  13.308   7.080
 5299POPC   C4B69118  31.791  13.302   7.435
 5300POPC   NC369119  16.061  36.482   5.470
 5300POPC   PO469120  16.164  35.833   5.521
 5300POPC   GL169121  15.978  36.066   5.809
 5300POPC   GL269122  15.671  35.960   5.715
 5300POPC   C1A69123  16.049  36.126   6.248
 5300POPC   D2A69124  16.114  35.876   6.658
 5300POPC   C3A69125  16.242  36.090   7.034
 5300POPC   C4A69126  15.954  36.328   7.256
 5300POPC   C1B69127  15.768  35.695   6.119
 5300POPC   C2B69128  15.707  35.560   6.577
 5300POPC   C3B69129  15.695  35.766   7.012
 5300POPC   C4B69130  15.749  35.922   7.464
 5301POPC   NC369131  15.497  37.968   5.540
 5301POPC   PO469132  14.876  37.671   5.426
 5301POPC   GL169133  15.113  37.708   5.792
 5301POPC   GL269134  15.318  37.440   5.812
 5301POPC   C1A69135  15.187  37.690   6.236
 5301POPC   D2A69136  15.121  37.435   6.577
 5301POPC   C3A69137  15.094  37.608   6.963
 5301POPC   C4A69138  15.284  37.679   7.348
 5301POPC   C1B69139  15.392  37.208   6.167
 5301POPC   C2B69140  15.556  37.168   6.583
 5301POPC   C3B69141  15.468  37.240   7.011
 5301POPC   C4B69142  15.701  37.365   7.371
 5302POPC   NC369143  15.949  42.878   5.311
 5302POPC   PO469144  16.068  43.573   5.305
 5302POPC   GL169145  16.017  43.218   5.712
 5302POPC   GL269146  15.805  42.885   5.798
 5302POPC   C1A69147  16.024  43.090   6.198
 5302POPC   D2A69148  16.250  43.023   6.600
 5302POPC   C3A69149  16.117  43.302   6.933
 5302POPC   C4A69150  16.109  43.072   7.300
 5302POPC   C1B69151  15.512  43.110   6.068
 5302POPC   C2B69152  15.587  43.169   6.506
 5302POPC   C3B69153  15.745  42.970   6.858
 5302POPC   C4B69154  15.586  43.041   7.239
 5303POPC   NC369155  11.082  34.839   5.481
 5303POPC   PO469156  11.581  34.374   5.347
 5303POPC   GL169157  11.411  34.523   5.774
 5303POPC   GL269158  11.070  34.492   5.859
 5303POPC   C1A69159  11.517  34.407   6.191
 5303POPC   D2A69160  11.354  34.349   6.606
 5303POPC   C3A69161  11.448  34.624   6.951
 5303POPC   C4A69162  11.587  34.549   7.353
 5303POPC   C1B69163  11.082  34.693   6.279
 5303POPC   C2B69164  10.882  34.552   6.660
 5303POPC   C3B69165  10.972  34.458   7.078
 5303POPC   C4B69166  11.130  34.739   7.398
 5304POPC   NC369167  39.525  40.651   5.200
 5304POPC   PO469168  39.038  41.109   5.332
 5304POPC   GL169169  39.076  40.778   5.659
 5304POPC   GL269170  39.406  40.649   5.791
 5304POPC   C1A69171  39.034  40.774   6.127
 5304POPC   D2A69172  39.003  40.561   6.512
 5304POPC   C3A69173  38.955  40.773   6.893
 5304POPC   C4A69174  39.127  40.503   7.198
 5304POPC   C1B69175  39.543  40.781   6.238
 5304POPC   C2B69176  39.585  41.014   6.643
 5304POPC   C3B69177  39.326  41.119   7.013
 5304POPC   C4B69178  38.930  41.192   7.261
 5305POPC   NC369179   1.922  33.750   5.325
 5305POPC   PO469180   2.163  34.345   5.438
 5305POPC   GL169181   2.125  34.044   5.778
 5305POPC   GL269182   1.859  33.845   5.841
 5305POPC   C1A69183   2.225  33.820   6.166
 5305POPC   D2A69184   2.402  33.508   6.383
 5305POPC   C3A69185   2.310  33.608   6.803
 5305POPC   C4A69186   2.034  33.741   7.167
 5305POPC   C1B69187   1.701  33.932   6.274
 5305POPC   C2B69188   1.563  33.979   6.714
 5305POPC   C3B69189   1.542  33.920   7.149
 5305POPC   C4B69190   1.515  33.517   7.391
 5306POPC   NC369191  29.126  42.038   5.289
 5306POPC   PO469192  29.466  42.556   5.353
 5306POPC   GL169193  29.264  42.319   5.719
 5306POPC   GL269194  28.974  42.070   5.802
 5306POPC   C1A69195  29.388  42.188   6.143
 5306POPC   D2A69196  29.343  42.423   6.534
 5306POPC   C3A69197  29.470  42.236   6.894
 5306POPC   C4A69198  29.345  42.332   7.282
 5306POPC   C1B69199  28.911  42.079   6.273
 5306POPC   C2B69200  28.941  42.155   6.718
 5306POPC   C3B69201  28.848  42.228   7.150
 5306POPC   C4B69202  29.004  41.956   7.448
 5307POPC   NC369203   6.282   2.107   5.474
 5307POPC   PO469204   7.023   2.212   5.491
 5307POPC   GL169205   6.689   2.216   5.801
 5307POPC   GL269206   6.541   1.855   5.867
 5307POPC   C1A69207   6.639   2.187   6.244
 5307POPC   D2A69208   6.737   1.933   6.576
 5307POPC   C3A69209   6.691   2.156   6.940
 5307POPC   C4A69210   6.760   2.076   7.358
 5307POPC   C1B69211   6.370   1.565   6.208
 5307POPC   C2B69212   6.491   1.488   6.680
 5307POPC   C3B69213   6.508   1.691   7.118
 5307POPC   C4B69214   6.430   1.790   7.619
 5308POPC   NC369215  15.672  20.593   5.237
 5308POPC   PO469216  16.031  20.238   5.593
 5308POPC   GL169217  15.837  20.651   5.758
 5308POPC   GL269218  16.046  20.931   5.831
 5308POPC   C1A69219  15.654  20.784   6.170
 5308POPC   D2A69220  15.413  20.579   6.505
 5308POPC   C3A69221  15.542  20.608   6.948
 5308POPC   C4A69222  15.863  20.711   7.279
 5308POPC   C1B69223  16.189  20.672   6.201
 5308POPC   C2B69224  16.370  20.496   6.609
 5308POPC   C3B69225  16.394  20.266   7.008
 5308POPC   C4B69226  16.288  20.414   7.416
 5309POPC   NC369227  15.870  35.503   5.400
 5309POPC   PO469228  16.015  34.875   5.209
 5309POPC   GL169229  16.082  35.083   5.634
 5309POPC   GL269230  15.761  35.126   5.784
 5309POPC   C1A69231  16.170  35.365   6.035
 5309POPC   D2A69232  16.284  35.366   6.486
 5309POPC   C3A69233  16.085  35.405   6.897
 5309POPC   C4A69234  16.133  35.646   7.268
 5309POPC   C1B69235  15.757  35.158   6.241
 5309POPC   C2B69236  15.664  35.049   6.671
 5309POPC   C3B69237  15.771  35.050   7.123
 5309POPC   C4B69238  16.112  35.158   7.417
 5310POPC   NC369239  33.017   0.232   5.186
 5310POPC   PO469240  32.985  44.562   5.385
 5310POPC   GL169241  32.907  44.355   5.753
 5310POPC   GL269242  33.283  44.299   5.826
 5310POPC   C1A69243  32.956  44.481   6.183
 5310POPC   D2A69244  33.235  44.329   6.521
 5310POPC   C3A69245  33.156  44.502   6.939
 5310POPC   C4A69246  32.997  44.313   7.339
 5310POPC   C1B69247  33.428  44.650   6.143
 5310POPC   C2B69248  33.333  44.861   6.577
 5310POPC   C3B69249  33.432   0.034   7.023
 5310POPC   C4B69250  33.420   0.065   7.520
 5311POPC   NC369251  16.655   0.624   5.382
 5311POPC   PO469252  17.019   0.157   5.052
 5311POPC   GL169253  17.001   0.241   5.546
 5311POPC   GL269254  16.669   0.237   5.738
 5311POPC   C1A69255  17.046   0.470   5.976
 5311POPC   D2A69256  16.903   0.392   6.421
 5311POPC   C3A69257  16.979   0.671   6.811
 5311POPC   C4A69258  16.869   0.485   7.251
 5311POPC   C1B69259  16.514   0.553   6.066
 5311POPC   C2B69260  16.425   0.606   6.514
 5311POPC   C3B69261  16.481   0.598   6.958
 5311POPC   C4B69262  16.543   0.918   7.316
 5312POPC   NC369263  39.543  35.776   5.377
 5312POPC   PO469264  39.112  35.275   5.388
 5312POPC   GL169265  39.292  35.211   5.804
 5312POPC   GL269266  39.377  35.550   5.828
 5312POPC   C1A69267  39.384  35.266   6.257
 5312POPC   D2A69268  39.127  35.271   6.633
 5312POPC   C3A69269  39.368  35.149   6.991
 5312POPC   C4A69270  39.341  35.100   7.445
 5312POPC   C1B69271  38.947  35.493   6.082
 5312POPC   C2B69272  38.714  35.576   6.486
 5312POPC   C3B69273  38.849  35.623   6.930
 5312POPC   C4B69274  39.145  35.515   7.256
 5313POPC   NC369275  10.868  16.538   5.256
 5313POPC   PO469276  11.209  17.028   5.130
 5313POPC   GL169277  11.157  16.764   5.589
 5313POPC   GL269278  11.235  17.005   5.770
 5313POPC   C1A69279  11.243  16.594   6.049
 5313POPC   D2A69280  11.111  16.598   6.514
 5313POPC   C3A69281  11.176  16.646   6.988
 5313POPC   C4A69282  10.951  16.668   7.377
 5313POPC   C1B69283  11.075  17.060   6.218
 5313POPC   C2B69284  11.178  17.087   6.685
 5313POPC   C3B69285  11.416  17.094   7.066
 5313POPC   C4B69286  11.411  16.898   7.457
 5314POPC   NC369287  29.384  29.495   5.512
 5314POPC   PO469288  28.938  29.870   5.138
 5314POPC   GL169289  28.939  29.815   5.635
 5314POPC   GL269290  29.061  29.569   5.899
 5314POPC   C1A69291  29.041  30.058   6.047
 5314POPC   D2A69292  29.151  30.084   6.497
 5314POPC   C3A69293  28.903  29.989   6.873
 5314POPC   C4A69294  29.172  29.795   7.154
 5314POPC   C1B69295  29.440  29.752   6.155
 5314POPC   C2B69296  29.617  29.781   6.580
 5314POPC   C3B69297  29.635  29.577   7.002
 5314POPC   C4B69298  29.660  29.684   7.449
 5315POPC   NC369299  28.791  13.250   5.416
 5315POPC   PO469300  28.398  12.799   5.190
 5315POPC   GL169301  28.462  12.774   5.730
 5315POPC   GL269302  28.636  13.026   5.873
 5315POPC   C1A69303  28.329  12.520   6.115
 5315POPC   D2A69304  28.454  12.458   6.580
 5315POPC   C3A69305  28.271  12.739   6.912
 5315POPC   C4A69306  28.434  12.987   7.229
 5315POPC   C1B69307  28.319  13.009   6.243
 5315POPC   C2B69308  28.078  13.147   6.606
 5315POPC   C3B69309  28.024  13.314   7.029
 5315POPC   C4B69310  27.993  13.123   7.450
 5316POPC   NC369311  16.488  25.718   5.082
 5316POPC   PO469312  17.024  25.947   5.348
 5316POPC   GL169313  17.023  25.914   5.862
 5316POPC   GL269314  16.661  25.890   5.888
 5316POPC   C1A69315  16.899  26.020   6.318
 5316POPC   D2A69316  16.746  25.814   6.712
 5316POPC   C3A69317  16.884  26.059   7.061
 5316POPC   C4A69318  17.299  26.028   7.191
 5316POPC   C1B69319  16.419  25.835   6.297
 5316POPC   C2B69320  16.236  25.929   6.698
 5316POPC   C3B69321  16.357  26.095   7.100
 5316POPC   C4B69322  16.442  26.017   7.535
 5317POPC   NC369323  36.320  37.883   5.710
 5317POPC   PO469324  36.752  37.883   5.242
 5317POPC   GL169325  36.868  37.766   5.716
 5317POPC   GL269326  36.949  37.402   5.843
 5317POPC   C1A69327  36.790  37.747   6.199
 5317POPC   D2A69328  36.588  37.965   6.571
 5317POPC   C3A69329  36.760  37.799   6.932
 5317POPC   C4A69330  36.979  37.863   7.265
 5317POPC   C1B69331  37.198  37.388   6.245
 5317POPC   C2B69332  37.131  37.527   6.695
 5317POPC   C3B69333  37.048  37.366   7.118
 5317POPC   C4B69334  37.250  37.226   7.503
 5318POPC   NC369335  29.591   5.274   5.510
 5318POPC   PO469336  29.026   4.969   5.724
 5318POPC   GL169337  29.319   5.111   5.957
 5318POPC   GL269338  29.282   5.430   5.923
 5318POPC   C1A69339  29.324   5.244   6.404
 5318POPC   D2A69340  29.051   5.000   6.653
 5318POPC   C3A69341  29.201   4.987   7.044
 5318POPC   C4A69342  28.985   4.754   7.303
 5318POPC   C1B69343  28.899   5.426   6.239
 5318POPC   C2B69344  28.870   5.468   6.695
 5318POPC   C3B69345  28.736   5.213   7.070
 5318POPC   C4B69346  28.788   5.174   7.508
 5319POPC   NC369347  13.624  42.330   5.464
 5319POPC   PO469348  14.285  42.175   5.657
 5319POPC   GL169349  13.828  42.248   5.918
 5319POPC   GL269350  13.473  42.072   5.900
 5319POPC   C1A69351  13.498  42.444   6.217
 5319POPC   D2A69352  13.473  42.731   6.545
 5319POPC   C3A69353  13.559  42.491   6.941
 5319POPC   C4A69354  13.648  42.533   7.382
 5319POPC   C1B69355  13.438  41.943   6.287
 5319POPC   C2B69356  13.611  42.060   6.620
 5319POPC   C3B69357  13.378  42.009   6.956
 5319POPC   C4B69358  13.585  42.041   7.325
 5320POPC   NC369359  23.198  27.292   5.545
 5320POPC   PO469360  22.985  27.948   5.582
 5320POPC   GL169361  22.782  27.620   5.804
 5320POPC   GL269362  22.551  27.390   5.632
 5320POPC   C1A69363  22.896  27.532   6.222
 5320POPC   D2A69364  23.102  27.701   6.584
 5320POPC   C3A69365  22.991  27.482   6.965
 5320POPC   C4A69366  22.824  27.666   7.341
 5320POPC   C1B69367  22.555  27.185   6.061
 5320POPC   C2B69368  22.682  27.150   6.527
 5320POPC   C3B69369  22.646  26.939   6.945
 5320POPC   C4B69370  22.818  27.153   7.342
 5321POPC   NC369371   7.512  35.194   5.320
 5321POPC   PO469372   6.963  35.673   5.372
 5321POPC   GL169373   7.149  35.369   5.675
 5321POPC   GL269374   7.495  35.358   5.793
 5321POPC   C1A69375   7.041  35.154   6.017
 5321POPC   D2A69376   7.035  35.345   6.417
 5321POPC   C3A69377   7.324  35.346   6.792
 5321POPC   C4A69378   7.217  35.197   7.218
 5321POPC   C1B69379   7.511  35.245   6.218
 5321POPC   C2B69380   7.726  35.538   6.487
 5321POPC   C3B69381   7.831  35.547   6.898
 5321POPC   C4B69382   7.721  35.229   7.182
 5322POPC   NC369383  28.190  10.914   5.382
 5322POPC   PO469384  28.796  11.314   5.435
 5322POPC   GL169385  28.495  11.300   5.776
 5322POPC   GL269386  28.545  11.612   5.926
 5322POPC   C1A69387  28.311  11.183   6.179
 5322POPC   D2A69388  28.063  11.084   6.546
 5322POPC   C3A69389  28.256  11.053   6.915
 5322POPC   C4A69390  28.229  11.165   7.292
 5322POPC   C1B69391  28.215  11.690   6.225
 5322POPC   C2B69392  28.140  11.586   6.663
 5322POPC   C3B69393  28.447  11.564   7.024
 5322POPC   C4B69394  28.464  11.609   7.507
 5323POPC   NC369395  19.382  39.643   5.664
 5323POPC   PO469396  19.855  39.965   5.236
 5323POPC   GL169397  19.833  40.054   5.683
 5323POPC   GL269398  19.850  39.752   5.827
 5323POPC   C1A69399  20.033  40.153   6.102
 5323POPC   D2A69400  19.885  40.342   6.487
 5323POPC   C3A69401  19.880  40.134   6.887
 5323POPC   C4A69402  20.122  40.317   7.232
 5323POPC   C1B69403  19.691  39.822   6.274
 5323POPC   C2B69404  19.605  39.671   6.716
 5323POPC   C3B69405  19.619  39.745   7.151
 5323POPC   C4B69406  19.679  40.094   7.381
 5324POPC   NC369407  39.321  37.244   5.430
 5324POPC   PO469408  38.970  37.718   5.263
 5324POPC   GL169409  39.043  37.566   5.755
 5324POPC   GL269410  39.329  37.380   5.916
 5324POPC   C1A69411  39.002  37.682   6.221
 5324POPC   D2A69412  38.972  37.948   6.617
 5324POPC   C3A69413  39.197  37.784   6.990
 5324POPC   C4A69414  39.211  37.522   7.377
 5324POPC   C1B69415  39.382  37.295   6.337
 5324POPC   C2B69416  39.439  37.386   6.761
 5324POPC   C3B69417  39.657  37.474   7.123
 5324POPC   C4B69418  39.587  37.152   7.354
 5325POPC   NC369419   3.469  13.570   5.310
 5325POPC   PO469420   3.714  14.147   5.409
 5325POPC   GL169421   3.823  13.785   5.677
 5325POPC   GL269422   3.494  13.733   5.813
 5325POPC   C1A69423   3.914  13.563   6.071
 5325POPC   D2A69424   3.882  13.611   6.523
 5325POPC   C3A69425   3.671  13.575   6.941
 5325POPC   C4A69426   3.796  13.349   7.302
 5325POPC   C1B69427   3.553  13.909   6.236
 5325POPC   C2B69428   3.278  14.145   6.542
 5325POPC   C3B69429   3.154  14.093   6.995
 5325POPC   C4B69430   3.376  13.859   7.369
 5326POPC   NC369431  22.640  42.128   5.146
 5326POPC   PO469432  21.924  42.272   5.200
 5326POPC   GL169433  22.192  42.297   5.631
 5326POPC   GL269434  21.941  42.435   5.835
 5326POPC   C1A69435  22.328  42.363   6.118
 5326POPC   D2A69436  22.371  42.105   6.510
 5326POPC   C3A69437  22.353  42.291   6.946
 5326POPC   C4A69438  22.175  42.534   7.307
 5326POPC   C1B69439  21.832  42.115   6.132
 5326POPC   C2B69440  21.693  42.158   6.553
 5326POPC   C3B69441  21.824  41.984   6.952
 5326POPC   C4B69442  21.681  42.195   7.308
 5327POPC   NC369443  20.832  13.882   5.480
 5327POPC   PO469444  20.217  13.623   5.409
 5327POPC   GL169445  20.467  13.575   5.814
 5327POPC   GL269446  20.779  13.675   5.953
 5327POPC   C1A69447  20.467  13.364   6.225
 5327POPC   D2A69448  20.375  13.252   6.648
 5327POPC   C3A69449  20.666  13.406   6.954
 5327POPC   C4A69450  20.476  13.487   7.333
 5327POPC   C1B69451  20.818  13.715   6.390
 5327POPC   C2B69452  20.942  13.873   6.789
 5327POPC   C3B69453  20.675  13.926   7.150
 5327POPC   C4B69454  20.698  14.064   7.572
 5328POPC   NC369455  26.314  40.293   5.287
 5328POPC   PO469456  25.920  39.705   5.416
 5328POPC   GL169457  25.956  40.009   5.769
 5328POPC   GL269458  26.315  40.123   5.801
 5328POPC   C1A69459  26.040  40.005   6.246
 5328POPC   D2A69460  26.211  39.698   6.544
 5328POPC   C3A69461  26.075  39.783   6.954
 5328POPC   C4A69462  26.131  40.076   7.261
 5328POPC   C1B69463  26.521  39.860   6.149
 5328POPC   C2B69464  26.692  39.938   6.553
 5328POPC   C3B69465  26.560  40.028   6.975
 5328POPC   C4B69466  26.540  39.699   7.249
 5329POPC   NC369467  36.724  14.192   5.568
 5329POPC   PO469468  37.181  14.740   5.420
 5329POPC   GL169469  37.136  14.450   5.785
 5329POPC   GL269470  36.790  14.494   5.961
 5329POPC   C1A69471  37.131  14.197   6.195
 5329POPC   D2A69472  37.209  14.009   6.608
 5329POPC   C3A69473  36.993  14.245   6.932
 5329POPC   C4A69474  36.651  14.146   7.218
 5329POPC   C1B69475  36.624  14.103   6.226
 5329POPC   C2B69476  36.524  14.188   6.701
 5329POPC   C3B69477  36.622  14.597   6.964
 5329POPC   C4B69478  36.495  14.906   7.308
 5330POPC   NC369479  10.864  10.818   5.434
 5330POPC   PO469480  10.333  10.700   5.311
 5330POPC   GL169481  10.519  10.619   5.767
 5330POPC   GL269482  10.813  10.390   5.735
 5330POPC   C1A69483  10.347  10.575   6.229
 5330POPC   D2A69484  10.366  10.785   6.673
 5330POPC   C3A69485  10.425  10.578   7.085
 5330POPC   C4A69486  10.239  10.443   7.503
 5330POPC   C1B69487  10.835  10.435   6.187
 5330POPC   C2B69488  10.791  10.451   6.640
 5330POPC   C3B69489  10.950  10.552   7.051
 5330POPC   C4B69490  11.142  10.853   7.340
 5331POPC   NC369491  27.568  21.964   5.318
 5331POPC   PO469492  27.875  22.476   5.483
 5331POPC   GL169493  27.714  22.328   5.866
 5331POPC   GL269494  27.459  22.047   5.820
 5331POPC   C1A69495  27.760  22.273   6.318
 5331POPC   D2A69496  27.663  22.445   6.720
 5331POPC   C3A69497  27.757  22.226   7.088
 5331POPC   C4A69498  27.918  21.782   7.209
 5331POPC   C1B69499  27.270  22.284   6.138
 5331POPC   C2B69500  27.159  22.369   6.565
 5331POPC   C3B69501  27.256  22.200   6.967
 5331POPC   C4B69502  27.425  21.874   7.253
 5332POPC   NC369503   8.430  14.751   5.660
 5332POPC   PO469504   7.918  14.313   5.586
 5332POPC   GL169505   8.112  14.453   5.927
 5332POPC   GL269506   7.810  14.673   5.991
 5332POPC   C1A69507   8.379  14.412   6.306
 5332POPC   D2A69508   8.098  14.512   6.673
 5332POPC   C3A69509   8.076  14.305   7.048
 5332POPC   C4A69510   8.442  14.055   7.157
 5332POPC   C1B69511   8.082  14.845   6.281
 5332POPC   C2B69512   8.448  14.864   6.554
 5332POPC   C3B69513   8.577  14.629   6.939
 5332POPC   C4B69514   8.391  14.550   7.358
 5333POPC   NC369515  37.911   6.958   5.446
 5333POPC   PO469516  37.787   7.531   5.159
 5333POPC   GL169517  37.658   7.398   5.657
 5333POPC   GL269518  37.922   7.301   5.843
 5333POPC   C1A69519  37.544   7.550   6.115
 5333POPC   D2A69520  37.288   7.522   6.530
 5333POPC   C3A69521  37.444   7.563   6.980
 5333POPC   C4A69522  37.524   7.457   7.409
 5333POPC   C1B69523  37.825   7.124   6.259
 5333POPC   C2B69524  37.749   7.266   6.689
 5333POPC   C3B69525  37.841   7.159   7.123
 5333POPC   C4B69526  37.882   7.141   7.573
 5334POPC   NC369527   4.650  17.296   5.426
 5334POPC   PO469528   4.004  17.509   5.317
 5334POPC   GL169529   4.268  17.585   5.683
 5334POPC   GL269530   4.280  17.308   5.799
 5334POPC   C1A69531   4.505  17.631   6.115
 5334POPC   D2A69532   4.784  17.693   6.466
 5334POPC   C3A69533   4.618  17.494   6.828
 5334POPC   C4A69534   4.367  17.655   7.178
 5334POPC   C1B69535   4.203  17.165   6.172
 5334POPC   C2B69536   4.336  17.132   6.580
 5334POPC   C3B69537   4.082  17.322   6.875
 5334POPC   C4B69538   4.012  17.210   7.274
 5335POPC   NC369539  14.943  34.654   5.374
 5335POPC   PO469540  15.398  34.255   5.152
 5335POPC   GL169541  15.309  34.554   5.681
 5335POPC   GL269542  15.046  34.760   5.868
 5335POPC   C1A69543  15.489  34.704   6.106
 5335POPC   D2A69544  15.267  34.661   6.520
 5335POPC   C3A69545  15.293  34.824   6.944
 5335POPC   C4A69546  15.125  34.666   7.341
 5335POPC   C1B69547  15.002  34.387   6.090
 5335POPC   C2B69548  14.884  34.292   6.511
 5335POPC   C3B69549  14.920  34.443   6.915
 5335POPC   C4B69550  14.775  34.306   7.291
 5336POPC   NC369551   4.124  40.242   5.076
 5336POPC   PO469552   4.706  39.889   5.332
 5336POPC   GL169553   4.524  39.976   5.714
 5336POPC   GL269554   4.337  39.692   5.861
 5336POPC   C1A69555   4.577  40.016   6.156
 5336POPC   D2A69556   4.343  39.865   6.514
 5336POPC   C3A69557   4.305  40.185   6.837
 5336POPC   C4A69558   4.482  39.933   7.147
 5336POPC   C1B69559   3.971  39.822   6.145
 5336POPC   C2B69560   3.877  40.087   6.504
 5336POPC   C3B69561   3.909  39.863   6.875
 5336POPC   C4B69562   4.013  39.715   7.232
 5337POPC   NC369563  43.554  39.303   5.369
 5337POPC   PO469564  42.897  39.294   5.433
 5337POPC   GL169565  43.216  39.249   5.730
 5337POPC   GL269566  43.528  39.461   5.865
 5337POPC   C1A69567  43.211  39.141   6.118
 5337POPC   D2A69568  43.036  39.285   6.464
 5337POPC   C3A69569  43.072  39.155   6.866
 5337POPC   C4A69570  42.865  39.154   7.268
 5337POPC   C1B69571  43.385  39.618   6.271
 5337POPC   C2B69572  43.502  39.396   6.647
 5337POPC   C3B69573  43.413  39.493   7.067
 5337POPC   C4B69574  43.363  39.191   7.381
 5338POPC   NC369575  31.738   1.926   5.385
 5338POPC   PO469576  31.161   1.689   5.624
 5338POPC   GL169577  31.505   1.892   5.846
 5338POPC   GL269578  31.847   1.761   5.858
 5338POPC   C1A69579  31.418   2.068   6.235
 5338POPC   D2A69580  31.128   1.872   6.515
 5338POPC   C3A69581  31.153   2.025   6.947
 5338POPC   C4A69582  31.200   2.195   7.380
 5338POPC   C1B69583  31.770   1.685   6.312
 5338POPC   C2B69584  31.603   1.808   6.719
 5338POPC   C3B69585  31.636   2.062   7.095
 5338POPC   C4B69586  31.636   1.997   7.564
 5339POPC   NC369587  13.665  30.309   5.411
 5339POPC   PO469588  13.181  29.837   5.323
 5339POPC   GL169589  13.411  29.920   5.686
 5339POPC   GL269590  13.282  30.241   5.741
 5339POPC   C1A69591  13.640  30.013   6.088
 5339POPC   D2A69592  13.863  30.118   6.476
 5339POPC   C3A69593  13.636  29.966   6.829
 5339POPC   C4A69594  13.688  29.833   7.237
 5339POPC   C1B69595  13.199  30.300   6.131
 5339POPC   C2B69596  13.387  30.315   6.497
 5339POPC   C3B69597  13.243  30.301   6.909
 5339POPC   C4B69598  13.214  30.076   7.296
 5340POPC   NC369599  41.824  32.051   5.461
 5340POPC   PO469600  41.156  32.244   5.526
 5340POPC   GL169601  41.430  32.500   5.788
 5340POPC   GL269602  41.810  32.528   5.745
 5340POPC   C1A69603  41.416  32.606   6.223
 5340POPC   D2A69604  41.567  32.519   6.644
 5340POPC   C3A69605  41.365  32.206   6.934
 5340POPC   C4A69606  41.532  32.383   7.290
 5340POPC   C1B69607  41.787  32.223   6.109
 5340POPC   C2B69608  41.730  32.042   6.525
 5340POPC   C3B69609  41.861  32.143   6.933
 5340POPC   C4B69610  41.895  31.911   7.272
 5341POPC   NC369611  19.893  36.847   5.524
 5341POPC   PO469612  19.724  37.399   5.444
 5341POPC   GL169613  19.630  37.100   5.876
 5341POPC   GL269614  19.628  36.696   5.932
 5341POPC   C1A69615  19.867  36.949   6.290
 5341POPC   D2A69616  19.715  36.698   6.679
 5341POPC   C3A69617  19.944  36.855   7.065
 5341POPC   C4A69618  20.240  36.691   7.381
 5341POPC   C1B69619  19.374  36.857   6.269
 5341POPC   C2B69620  19.231  37.034   6.642
 5341POPC   C3B69621  19.407  36.948   7.045
 5341POPC   C4B69622  19.532  36.583   7.199
 5342POPC   NC369623  10.008   3.698   5.347
 5342POPC   PO469624   9.510   3.247   5.405
 5342POPC   GL169625   9.781   3.327   5.778
 5342POPC   GL269626   9.894   3.664   5.844
 5342POPC   C1A69627   9.583   3.429   6.190
 5342POPC   D2A69628   9.741   3.384   6.592
 5342POPC   C3A69629   9.596   3.684   6.846
 5342POPC   C4A69630   9.517   3.519   7.218
 5342POPC   C1B69631  10.068   3.529   6.223
 5342POPC   C2B69632  10.065   3.783   6.617
 5342POPC   C3B69633  10.075   3.648   7.030
 5342POPC   C4B69634   9.961   3.701   7.452
 5343POPC   NC369635  37.633  14.693   5.340
 5343POPC   PO469636  38.013  14.211   5.427
 5343POPC   GL169637  37.704  14.362   5.729
 5343POPC   GL269638  37.913  14.620   5.789
 5343POPC   C1A69639  37.567  14.446   6.156
 5343POPC   D2A69640  37.659  14.278   6.570
 5343POPC   C3A69641  37.491  14.344   6.984
 5343POPC   C4A69642  37.625  14.505   7.383
 5343POPC   C1B69643  37.855  14.862   6.162
 5343POPC   C2B69644  37.821  14.772   6.588
 5343POPC   C3B69645  37.578  14.844   6.946
 5343POPC   C4B69646  37.569  15.031   7.331
 5344POPC   NC369647  33.576  44.572   5.450
 5344POPC   PO469648  33.662   0.204   5.514
 5344POPC   GL169649  33.800  44.835   5.822
 5344POPC   GL269650  33.807  44.409   5.862
 5344POPC   C1A69651  33.933  44.736   6.231
 5344POPC   D2A69652  33.727  44.538   6.560
 5344POPC   C3A69653  33.816  44.700   6.947
 5344POPC   C4A69654  33.592  44.630   7.294
 5344POPC   C1B69655  34.025  44.208   6.228
 5344POPC   C2B69656  33.931  44.088   6.672
 5344POPC   C3B69657  33.954  44.238   7.113
 5344POPC   C4B69658  34.095  44.566   7.419
 5345POPC   NC369659  42.000  43.023   5.521
 5345POPC   PO469660  42.680  43.079   5.401
 5345POPC   GL169661  42.498  43.237   5.787
 5345POPC   GL269662  42.354  42.924   5.913
 5345POPC   C1A69663  42.420  43.352   6.247
 5345POPC   D2A69664  42.329  43.259   6.707
 5345POPC   C3A69665  42.404  43.373   7.150
 5345POPC   C4A69666  42.210  43.229   7.538
 5345POPC   C1B69667  42.377  42.847   6.370
 5345POPC   C2B69668  42.198  42.774   6.775
 5345POPC   C3B69669  42.016  42.949   7.152
 5345POPC   C4B69670  41.879  42.770   7.554
 5346POPC   NC369671  22.480  39.073   5.425
 5346POPC   PO469672  22.031  39.495   5.164
 5346POPC   GL169673  22.099  39.481   5.667
 5346POPC   GL269674  22.174  39.143   5.836
 5346POPC   C1A69675  22.220  39.535   6.162
 5346POPC   D2A69676  22.297  39.255   6.556
 5346POPC   C3A69677  22.446  39.317   6.987
 5346POPC   C4A69678  22.509  39.061   7.385
 5346POPC   C1B69679  22.221  38.880   6.228
 5346POPC   C2B69680  22.108  38.791   6.674
 5346POPC   C3B69681  22.052  38.978   7.099
 5346POPC   C4B69682  21.672  39.116   7.354
 5347POPC   NC369683  22.637   9.410   5.319
 5347POPC   PO469684  22.028   9.153   5.037
 5347POPC   GL169685  22.192   9.080   5.575
 5347POPC   GL269686  22.464   9.267   5.807
 5347POPC   C1A69687  22.101   9.032   6.063
 5347POPC   D2A69688  22.283   8.956   6.503
 5347POPC   C3A69689  22.086   8.878   6.926
 5347POPC   C4A69690  21.809   8.662   7.236
 5347POPC   C1B69691  22.509   9.494   6.228
 5347POPC   C2B69692  22.538   9.372   6.672
 5347POPC   C3B69693  22.550   9.094   7.009
 5347POPC   C4B69694  22.869   8.992   7.334
 5348POPC   NC369695   1.709  36.254   5.406
 5348POPC   PO469696   2.354  36.060   5.468
 5348POPC   GL169697   2.055  36.199   5.757
 5348POPC   GL269698   1.793  35.936   5.796
 5348POPC   C1A69699   2.033  36.370   6.148
 5348POPC   D2A69700   2.162  36.152   6.515
 5348POPC   C3A69701   1.968  36.218   6.930
 5348POPC   C4A69702   1.826  36.465   7.260
 5348POPC   C1B69703   1.708  35.967   6.259
 5348POPC   C2B69704   1.843  35.776   6.667
 5348POPC   C3B69705   1.883  35.723   7.117
 5348POPC   C4B69706   1.701  35.684   7.566
 5349POPC   NC369707  32.512  19.379   5.422
 5349POPC   PO469708  32.069  18.820   5.399
 5349POPC   GL169709  32.118  19.081   5.766
 5349POPC   GL269710  32.443  19.202   5.901
 5349POPC   C1A69711  32.001  18.950   6.178
 5349POPC   D2A69712  32.248  18.851   6.552
 5349POPC   C3A69713  32.088  18.865   6.972
 5349POPC   C4A69714  32.347  19.076   7.283
 5349POPC   C1B69715  32.301  19.350   6.324
 5349POPC   C2B69716  32.297  19.330   6.801
 5349POPC   C3B69717  32.606  19.472   7.101
 5349POPC   C4B69718  32.614  19.601   7.550
 5350POPC   NC369719  13.659  40.577   5.244
 5350POPC   PO469720  13.483  41.240   5.388
 5350POPC   GL169721  13.722  40.949   5.628
 5350POPC   GL269722  13.781  41.175   5.893
 5350POPC   C1A69723  13.737  40.640   5.993
 5350POPC   D2A69724  13.620  40.744   6.436
 5350POPC   C3A69725  13.801  40.569   6.825
 5350POPC   C4A69726  13.751  40.557   7.277
 5350POPC   C1B69727  13.352  40.980   6.043
 5350POPC   C2B69728  13.210  41.042   6.486
 5350POPC   C3B69729  13.361  40.875   6.887
 5350POPC   C4B69730  13.677  41.049   7.111
 5351POPC   NC369731  42.546  24.949   5.613
 5351POPC   PO469732  42.194  25.329   5.141
 5351POPC   GL169733  42.241  25.412   5.618
 5351POPC   GL269734  42.547  25.456   5.843
 5351POPC   C1A69735  42.133  25.237   6.065
 5351POPC   D2A69736  42.296  25.158   6.485
 5351POPC   C3A69737  42.079  25.176   6.869
 5351POPC   C4A69738  42.143  25.384   7.265
 5351POPC   C1B69739  42.740  25.368   6.246
 5351POPC   C2B69740  42.793  25.126   6.619
 5351POPC   C3B69741  42.584  25.206   7.003
 5351POPC   C4B69742  42.572  25.182   7.435
 5352POPC   NC369743  29.615  14.971   5.513
 5352POPC   PO469744  30.091  15.327   5.272
 5352POPC   GL169745  30.047  15.296   5.748
 5352POPC   GL269746  29.801  15.069   5.966
 5352POPC   C1A69747  30.060  15.471   6.161
 5352POPC   D2A69748  30.116  15.187   6.519
 5352POPC   C3A69749  29.891  15.090   6.916
 5352POPC   C4A69750  30.048  15.168   7.333
 5352POPC   C1B69751  29.899  14.762   6.309
 5352POPC   C2B69752  29.966  14.583   6.719
 5352POPC   C3B69753  29.929  14.615   7.149
 5352POPC   C4B69754  29.667  14.857   7.375
 5353POPC   NC369755   5.886  34.880   5.076
 5353POPC   PO469756   5.723  34.267   5.457
 5353POPC   GL169757   5.614  34.563   5.806
 5353POPC   GL269758   5.908  34.684   6.006
 5353POPC   C1A69759   5.477  34.656   6.250
 5353POPC   D2A69760   5.848  34.682   6.523
 5353POPC   C3A69761   5.828  34.802   6.925
 5353POPC   C4A69762   5.576  34.655   7.239
 5353POPC   C1B69763   6.183  34.938   6.242
 5353POPC   C2B69764   6.383  34.876   6.632
 5353POPC   C3B69765   6.327  34.761   7.072
 5353POPC   C4B69766   6.031  34.886   7.404
 5354POPC   NC369767  26.352  39.629   5.547
 5354POPC   PO469768  26.814  39.216   5.450
 5354POPC   GL169769  26.758  39.302   5.857
 5354POPC   GL269770  26.679  38.955   5.922
 5354POPC   C1A69771  26.700  39.352   6.297
 5354POPC   D2A69772  26.967  39.489   6.623
 5354POPC   C3A69773  26.901  39.369   7.087
 5354POPC   C4A69774  26.938  39.468   7.570
 5354POPC   C1B69775  26.499  38.857   6.310
 5354POPC   C2B69776  26.309  38.996   6.684
 5354POPC   C3B69777  26.488  39.017   7.096
 5354POPC   C4B69778  26.476  39.254   7.483
 5355POPC   NC369779  15.194  10.093   5.356
 5355POPC   PO469780  15.603   9.576   5.326
 5355POPC   GL169781  15.496   9.778   5.726
 5355POPC   GL269782  15.705  10.017   5.855
 5355POPC   C1A69783  15.413   9.680   6.181
 5355POPC   D2A69784  15.142   9.723   6.520
 5355POPC   C3A69785  15.125   9.687   6.953
 5355POPC   C4A69786  15.022   9.847   7.384
 5355POPC   C1B69787  15.704  10.089   6.306
 5355POPC   C2B69788  15.602   9.851   6.689
 5355POPC   C3B69789  15.602   9.679   7.101
 5355POPC   C4B69790  15.508   9.841   7.484
 5356POPC   NC369791   4.126   9.747   5.287
 5356POPC   PO469792   4.726   9.446   5.421
 5356POPC   GL169793   4.463   9.656   5.781
 5356POPC   GL269794   4.121   9.747   5.791
 5356POPC   C1A69795   4.400   9.821   6.208
 5356POPC   D2A69796   4.251   9.866   6.657
 5356POPC   C3A69797   4.478   9.733   7.061
 5356POPC   C4A69798   4.759  10.019   7.333
 5356POPC   C1B69799   3.912   9.979   6.114
 5356POPC   C2B69800   3.801  10.095   6.545
 5356POPC   C3B69801   3.913  10.051   6.999
 5356POPC   C4B69802   4.005   9.669   7.249
 5357POPC   NC369803   2.274   2.038   5.251
 5357POPC   PO469804   1.892   2.380   5.580
 5357POPC   GL169805   2.163   2.262   5.867
 5357POPC   GL269806   2.175   1.926   5.778
 5357POPC   C1A69807   2.043   2.201   6.298
 5357POPC   D2A69808   2.081   2.313   6.713
 5357POPC   C3A69809   2.062   1.989   7.037
 5357POPC   C4A69810   2.035   2.033   7.490
 5357POPC   C1B69811   2.328   1.805   6.167
 5357POPC   C2B69812   2.443   1.938   6.601
 5357POPC   C3B69813   2.499   1.741   6.999
 5357POPC   C4B69814   2.472   1.794   7.446
 5358POPC   NC369815  30.113  43.417   5.504
 5358POPC   PO469816  30.085  42.875   5.081
 5358POPC   GL169817  29.779  43.047   5.549
 5358POPC   GL269818  29.886  42.851   5.842
 5358POPC   C1A69819  29.619  43.213   6.018
 5358POPC   D2A69820  29.604  43.321   6.473
 5358POPC   C3A69821  29.830  43.249   6.867
 5358POPC   C4A69822  29.822  43.551   7.197
 5358POPC   C1B69823  30.072  42.951   6.241
 5358POPC   C2B69824  30.240  42.743   6.628
 5358POPC   C3B69825  30.075  42.821   7.024
 5358POPC   C4B69826  30.132  42.899   7.441
 5359POPC   NC369827  10.421  31.946   5.306
 5359POPC   PO469828  10.588  32.644   5.232
 5359POPC   GL169829  10.594  32.281   5.642
 5359POPC   GL269830  10.362  32.410   5.931
 5359POPC   C1A69831  10.741  32.141   6.089
 5359POPC   D2A69832  10.573  32.336   6.465
 5359POPC   C3A69833  10.370  32.109   6.786
 5359POPC   C4A69834  10.552  32.015   7.187
 5359POPC   C1B69835  10.181  32.687   6.241
 5359POPC   C2B69836  10.327  32.770   6.653
 5359POPC   C3B69837  10.535  32.540   6.967
 5359POPC   C4B69838  10.277  32.418   7.292
 5360POPC   NC369839  35.848  14.020   5.579
 5360POPC   PO469840  36.264  13.551   5.288
 5360POPC   GL169841  36.106  13.564   5.762
 5360POPC   GL269842  36.166  13.843   5.945
 5360POPC   C1A69843  36.049  13.470   6.255
 5360POPC   D2A69844  35.885  13.397   6.690
 5360POPC   C3A69845  36.177  13.547   7.017
 5360POPC   C4A69846  36.427  13.698   7.377
 5360POPC   C1B69847  35.812  13.897   6.265
 5360POPC   C2B69848  35.971  13.906   6.680
 5360POPC   C3B69849  36.155  14.057   7.081
 5360POPC   C4B69850  36.050  13.988   7.525
 5361POPC   NC369851  19.126  35.401   5.362
 5361POPC   PO469852  19.559  34.958   5.491
 5361POPC   GL169853  19.326  35.274   5.824
 5361POPC   GL269854  18.926  35.339   5.835
 5361POPC   C1A69855  19.198  35.364   6.284
 5361POPC   D2A69856  19.283  35.141   6.692
 5361POPC   C3A69857  19.128  35.346   7.076
 5361POPC   C4A69858  19.221  35.413   7.533
 5361POPC   C1B69859  18.688  35.419   6.228
 5361POPC   C2B69860  18.789  35.204   6.611
 5361POPC   C3B69861  18.627  35.255   7.034
 5361POPC   C4B69862  18.732  35.645   7.263
 5362POPC   NC369863  20.470  13.210   5.461
 5362POPC   PO469864  20.872  12.670   5.329
 5362POPC   GL169865  20.663  12.799   5.731
 5362POPC   GL269866  20.787  13.115   5.873
 5362POPC   C1A69867  20.504  12.851   6.193
 5362POPC   D2A69868  20.767  12.925   6.586
 5362POPC   C3A69869  20.547  12.899   6.994
 5362POPC   C4A69870  20.364  12.703   7.344
 5362POPC   C1B69871  21.011  12.746   6.124
 5362POPC   C2B69872  21.090  12.418   6.482
 5362POPC   C3B69873  20.910  12.507   6.905
 5362POPC   C4B69874  21.062  12.890   7.107
 5363POPC   NC369875  24.954  27.586   5.401
 5363POPC   PO469876  25.545  27.772   5.150
 5363POPC   GL169877  25.409  27.700   5.667
 5363POPC   GL269878  25.076  27.630   5.882
 5363POPC   C1A69879  25.509  27.443   6.109
 5363POPC   D2A69880  25.513  27.197   6.532
 5363POPC   C3A69881  25.401  27.323   6.979
 5363POPC   C4A69882  24.984  27.264   7.214
 5363POPC   C1B69883  25.225  27.864   6.220
 5363POPC   C2B69884  25.422  27.699   6.596
 5363POPC   C3B69885  25.178  27.797   6.978
 5363POPC   C4B69886  25.083  27.707   7.425
 5364POPC   NC369887  11.151  33.048   5.408
 5364POPC   PO469888  11.782  32.839   5.181
 5364POPC   GL169889  11.601  32.918   5.634
 5364POPC   GL269890  11.510  33.285   5.710
 5364POPC   C1A69891  11.556  32.768   6.111
 5364POPC   D2A69892  11.478  32.629   6.556
 5364POPC   C3A69893  11.473  32.751   6.998
 5364POPC   C4A69894  11.483  32.760   7.457
 5364POPC   C1B69895  11.617  33.277   6.133
 5364POPC   C2B69896  11.492  33.403   6.549
 5364POPC   C3B69897  11.361  33.249   6.943
 5364POPC   C4B69898  11.561  33.258   7.343
 5365POPC   NC369899  32.725  33.022   5.672
 5365POPC   PO469900  32.037  32.852   5.539
 5365POPC   GL169901  32.234  33.123   5.845
 5365POPC   GL269902  32.473  33.445   5.776
 5365POPC   C1A69903  32.419  32.945   6.245
 5365POPC   D2A69904  32.610  32.939   6.651
 5365POPC   C3A69905  32.465  32.594   6.916
 5365POPC   C4A69906  32.297  32.728   7.299
 5365POPC   C1B69907  32.319  33.443   6.218
 5365POPC   C2B69908  32.248  33.568   6.619
 5365POPC   C3B69909  32.402  33.352   6.942
 5365POPC   C4B69910  32.311  33.234   7.305
 5366POPC   NC369911  31.483  42.978   5.325
 5366POPC   PO469912  31.168  43.568   5.517
 5366POPC   GL169913  31.449  43.301   5.744
 5366POPC   GL269914  31.239  43.058   5.773
 5366POPC   C1A69915  31.526  43.296   6.188
 5366POPC   D2A69916  31.608  43.132   6.593
 5366POPC   C3A69917  31.401  43.312   6.957
 5366POPC   C4A69918  31.645  43.358   7.321
 5366POPC   C1B69919  31.498  42.799   6.056
 5366POPC   C2B69920  31.407  42.661   6.501
 5366POPC   C3B69921  31.624  42.720   6.899
 5366POPC   C4B69922  31.467  42.889   7.269
 5367POPC   NC369923  23.206  11.234   5.422
 5367POPC   PO469924  22.571  11.141   5.449
 5367POPC   GL169925  22.737  11.285   5.864
 5367POPC   GL269926  23.075  11.426   5.865
 5367POPC   C1A69927  22.889  11.183   6.295
 5367POPC   D2A69928  23.025  11.032   6.699
 5367POPC   C3A69929  22.755  11.170   7.041
 5367POPC   C4A69930  22.596  11.536   7.232
 5367POPC   C1B69931  23.346  11.381   6.205
 5367POPC   C2B69932  23.453  11.308   6.628
 5367POPC   C3B69933  23.278  11.331   7.055
 5367POPC   C4B69934  23.321  11.482   7.480
 5368POPC   NC369935  22.306  23.706   5.523
 5368POPC   PO469936  21.993  23.176   5.210
 5368POPC   GL169937  21.853  23.373   5.756
 5368POPC   GL269938  21.830  23.743   5.790
 5368POPC   C1A69939  21.940  23.476   6.227
 5368POPC   D2A69940  22.094  23.773   6.566
 5368POPC   C3A69941  22.388  23.674   6.899
 5368POPC   C4A69942  22.248  23.397   7.245
 5368POPC   C1B69943  21.951  24.039   6.136
 5368POPC   C2B69944  21.779  24.196   6.536
 5368POPC   C3B69945  21.972  24.121   6.928
 5368POPC   C4B69946  22.213  23.973   7.267
 5369POPC   NC369947  27.389  32.188   5.501
 5369POPC   PO469948  26.717  32.246   5.325
 5369POPC   GL169949  26.904  32.330   5.717
 5369POPC   GL269950  26.954  31.994   5.776
 5369POPC   C1A69951  26.952  32.286   6.191
 5369POPC   D2A69952  27.029  32.612   6.488
 5369POPC   C3A69953  27.033  32.511   6.898
 5369POPC   C4A69954  26.849  32.306   7.218
 5369POPC   C1B69955  26.614  31.843   6.025
 5369POPC   C2B69956  26.431  31.998   6.418
 5369POPC   C3B69957  26.492  31.905   6.865
 5369POPC   C4B69958  26.717  31.819   7.254
 5370POPC   NC369959  12.639  33.661   5.412
 5370POPC   PO469960  13.099  34.187   5.469
 5370POPC   GL169961  13.162  33.875   5.813
 5370POPC   GL269962  12.888  33.639   5.873
 5370POPC   C1A69963  13.075  33.934   6.267
 5370POPC   D2A69964  12.768  33.847   6.607
 5370POPC   C3A69965  12.815  33.857   7.065
 5370POPC   C4A69966  13.008  33.661   7.417
 5370POPC   C1B69967  12.775  33.407   6.270
 5370POPC   C2B69968  12.503  33.408   6.651
 5370POPC   C3B69969  12.618  33.371   7.081
 5370POPC   C4B69970  12.525  33.573   7.446
 5371POPC   NC369971   6.112   2.983   5.392
 5371POPC   PO469972   5.562   2.674   5.383
 5371POPC   GL169973   5.730   2.730   5.764
 5371POPC   GL269974   5.741   3.098   5.756
 5371POPC   C1A69975   5.800   2.540   6.201
 5371POPC   D2A69976   5.646   2.654   6.627
 5371POPC   C3A69977   5.808   2.480   7.027
 5371POPC   C4A69978   5.631   2.622   7.427
 5371POPC   C1B69979   6.069   2.953   6.047
 5371POPC   C2B69980   6.073   2.944   6.492
 5371POPC   C3B69981   5.912   2.990   6.916
 5371POPC   C4B69982   6.076   2.837   7.306
 5372POPC   NC369983  27.197  44.748   5.162
 5372POPC   PO469984  26.458  44.812   5.330
 5372POPC   GL169985  26.695  44.718   5.713
 5372POPC   GL269986  27.067  44.809   5.666
 5372POPC   C1A69987  26.741  44.500   6.122
 5372POPC   D2A69988  26.607  44.342   6.531
 5372POPC   C3A69989  26.666  44.625   6.861
 5372POPC   C4A69990  26.666  44.696   7.291
 5372POPC   C1B69991  27.205  44.745   6.104
 5372POPC   C2B69992  27.095  44.579   6.559
 5372POPC   C3B69993  27.156  44.796   6.983
 5372POPC   C4B69994  27.136  44.860   7.436
 5373POPC   NC369995   1.190  41.009   5.375
 5373POPC   PO469996   0.579  41.070   5.143
 5373POPC   GL169997   0.761  40.974   5.646
 5373POPC   GL269998   1.040  41.151   5.858
 5373POPC   C1A69999   0.875  40.742   6.089
 5373POPC   D2A70000   1.126  40.470   6.398
 5373POPC   C3A70001   1.093  40.501   6.862
 5373POPC   C4A70002   1.093  40.822   7.184
 5373POPC   C1B70003   1.386  41.011   6.167
 5373POPC   C2B70004   1.431  40.843   6.624
 5373POPC   C3B70005   1.562  41.007   7.050
 5373POPC   C4B70006   1.649  41.426   7.234
 5374POPC   NC370007   4.101  25.691   5.538
 5374POPC   PO470008   4.707  25.648   5.342
 5374POPC   GL170009   4.642  25.447   5.770
 5374POPC   GL270010   4.468  25.715   5.905
 5374POPC   C1A70011   4.407  25.207   6.164
 5374POPC   D2A70012   4.364  24.991   6.622
 5374POPC   C3A70013   4.404  25.161   7.075
 5374POPC   C4A70014   4.196  25.238   7.496
 5374POPC   C1B70015   4.678  25.605   6.274
 5374POPC   C2B70016   4.516  25.486   6.680
 5374POPC   C3B70017   4.299  25.665   7.045
 5374POPC   C4B70018   4.374  25.715   7.476
 5375POPC   NC370019  27.905  44.609   5.321
 5375POPC   PO470020  27.312  44.284   5.205
 5375POPC   GL170021  27.514  44.429   5.644
 5375POPC   GL270022  27.590  44.784   5.702
 5375POPC   C1A70023  27.650  44.498   6.113
 5375POPC   D2A70024  27.559  44.752   6.496
 5375POPC   C3A70025  27.603  44.567   6.905
 5375POPC   C4A70026  27.617  44.707   7.312
 5375POPC   C1B70027  27.761   0.004   6.087
 5375POPC   C2B70028  27.931   0.085   6.530
 5375POPC   C3B70029  27.985  44.918   6.985
 5375POPC   C4B70030  28.048  44.924   7.483
 5376POPC   NC370031   3.256   8.498   5.438
 5376POPC   PO470032   3.799   8.084   5.298
 5376POPC   GL170033   3.793   8.248   5.741
 5376POPC   GL270034   3.456   8.274   5.865
 5376POPC   C1A70035   3.809   8.462   6.185
 5376POPC   D2A70036   3.575   8.295   6.551
 5376POPC   C3A70037   3.733   8.388   6.971
 5376POPC   C4A70038   3.849   8.298   7.409
 5376POPC   C1B70039   3.186   8.124   6.195
 5376POPC   C2B70040   3.063   8.238   6.594
 5376POPC   C3B70041   3.225   8.441   6.925
 5376POPC   C4B70042   3.368   8.487   7.325
 5377POPC   NC370043  29.633  21.171   5.337
 5377POPC   PO470044  30.191  21.564   5.568
 5377POPC   GL170045  30.029  21.280   5.886
 5377POPC   GL270046  29.708  21.067   5.839
 5377POPC   C1A70047  29.990  21.342   6.336
 5377POPC   D2A70048  30.163  21.510   6.738
 5377POPC   C3A70049  30.111  21.346   7.179
 5377POPC   C4A70050  30.141  21.516   7.611
 5377POPC   C1B70051  29.561  21.084   6.276
 5377POPC   C2B70052  29.669  21.186   6.712
 5377POPC   C3B70053  29.698  21.053   7.116
 5377POPC   C4B70054  29.713  21.280   7.509
 5378POPC   NC370055  33.946   4.144   5.340
 5378POPC   PO470056  33.732   3.536   5.368
 5378POPC   GL170057  33.732   3.782   5.773
 5378POPC   GL270058  34.070   3.945   5.791
 5378POPC   C1A70059  33.541   3.714   6.216
 5378POPC   D2A70060  33.633   3.588   6.672
 5378POPC   C3A70061  33.492   3.780   7.076
 5378POPC   C4A70062  33.471   3.569   7.496
 5378POPC   C1B70063  34.063   3.812   6.210
 5378POPC   C2B70064  34.009   3.943   6.629
 5378POPC   C3B70065  34.103   3.813   7.063
 5378POPC   C4B70066  34.009   3.635   7.475
 5379POPC   NC370067  13.389  13.002   5.209
 5379POPC   PO470068  13.987  12.779   5.412
 5379POPC   GL170069  13.723  12.652   5.788
 5379POPC   GL270070  14.010  12.610   5.966
 5379POPC   C1A70071  13.578  12.836   6.219
 5379POPC   D2A70072  13.735  13.141   6.558
 5379POPC   C3A70073  13.474  13.151   6.930
 5379POPC   C4A70074  13.612  13.204   7.348
 5379POPC   C1B70075  13.893  12.451   6.348
 5379POPC   C2B70076  13.795  12.658   6.699
 5379POPC   C3B70077  13.879  12.847   7.056
 5379POPC   C4B70078  13.749  12.500   7.222
 5380POPC   NC370079  39.317  30.981   5.447
 5380POPC   PO470080  38.939  30.463   5.420
 5380POPC   GL170081  39.147  30.663   5.823
 5380POPC   GL270082  39.478  30.898   5.914
 5380POPC   C1A70083  39.029  30.602   6.246
 5380POPC   D2A70084  39.171  30.595   6.609
 5380POPC   C3A70085  38.909  30.675   6.903
 5380POPC   C4A70086  39.089  30.368   7.110
 5380POPC   C1B70087  39.555  30.688   6.246
 5380POPC   C2B70088  39.576  30.884   6.616
 5380POPC   C3B70089  39.418  30.829   7.031
 5380POPC   C4B70090  39.576  30.851   7.436
 5381POPC   NC370091  40.903  24.733   5.497
 5381POPC   PO470092  40.705  24.092   5.280
 5381POPC   GL170093  40.632  24.199   5.769
 5381POPC   GL270094  40.684  24.565   5.929
 5381POPC   C1A70095  40.777  24.140   6.227
 5381POPC   D2A70096  40.609  24.418   6.567
 5381POPC   C3A70097  40.738  24.505   7.004
 5381POPC   C4A70098  40.596  24.410   7.414
 5381POPC   C1B70099  41.016  24.599   6.282
 5381POPC   C2B70100  41.117  24.348   6.666
 5381POPC   C3B70101  41.244  24.356   7.095
 5381POPC   C4B70102  41.201  24.217   7.515
 5382POPC   NC370103   6.713  39.937   5.497
 5382POPC   PO470104   6.323  40.458   5.652
 5382POPC   GL170105   6.345  40.037   5.821
 5382POPC   GL270106   6.612  40.197   6.009
 5382POPC   C1A70107   6.447  39.763   6.178
 5382POPC   D2A70108   6.365  39.907   6.577
 5382POPC   C3A70109   6.654  40.015   6.872
 5382POPC   C4A70110   6.561  40.068   7.277
 5382POPC   C1B70111   6.922  40.192   6.328
 5382POPC   C2B70112   7.111  40.204   6.711
 5382POPC   C3B70113   6.971  40.341   7.118
 5382POPC   C4B70114   7.006  40.243   7.535
 5383POPC   NC370115  17.405  25.777   5.522
 5383POPC   PO470116  17.571  26.401   5.521
 5383POPC   GL170117  17.614  26.115   5.881
 5383POPC   GL270118  17.858  25.832   5.807
 5383POPC   C1A70119  17.394  25.916   6.228
 5383POPC   D2A70120  17.282  25.942   6.671
 5383POPC   C3A70121  17.561  26.269   6.821
 5383POPC   C4A70122  17.660  26.379   7.225
 5383POPC   C1B70123  17.979  25.920   6.243
 5383POPC   C2B70124  17.812  25.822   6.645
 5383POPC   C3B70125  17.760  25.814   7.113
 5383POPC   C4B70126  17.891  25.687   7.556
 5384POPC   NC370127  23.325  28.284   5.544
 5384POPC   PO470128  22.628  28.461   5.403
 5384POPC   GL170129  22.854  28.382   5.803
 5384POPC   GL270130  22.684  28.536   6.007
 5384POPC   C1A70131  22.849  28.104   6.200
 5384POPC   D2A70132  22.826  28.277   6.600
 5384POPC   C3A70133  22.910  28.027   6.944
 5384POPC   C4A70134  22.735  28.181   7.296
 5384POPC   C1B70135  23.060  28.601   6.252
 5384POPC   C2B70136  23.056  28.767   6.676
 5384POPC   C3B70137  22.992  28.584   7.079
 5384POPC   C4B70138  23.265  28.281   7.241
 5385POPC   NC370139  15.197  39.686   5.386
 5385POPC   PO470140  14.890  40.328   5.498
 5385POPC   GL170141  15.175  40.023   5.807
 5385POPC   GL270142  15.467  39.743   5.811
 5385POPC   C1A70143  15.142  39.783   6.229
 5385POPC   D2A70144  14.821  39.783   6.560
 5385POPC   C3A70145  15.006  40.071   6.831
 5385POPC   C4A70146  15.152  40.273   7.207
 5385POPC   C1B70147  15.597  39.992   6.156
 5385POPC   C2B70148  15.438  40.153   6.532
 5385POPC   C3B70149  15.526  40.040   6.945
 5385POPC   C4B70150  15.300  39.713   7.126
 5386POPC   NC370151  25.983   0.014   5.227
 5386POPC   PO470152  26.160   0.559   5.531
 5386POPC   GL170153  26.013   0.374   5.875
 5386POPC   GL270154  25.781   0.174   5.747
 5386POPC   C1A70155  25.808   0.512   6.276
 5386POPC   D2A70156  25.978   0.606   6.677
 5386POPC   C3A70157  26.014   0.414   7.066
 5386POPC   C4A70158  26.388   0.403   7.297
 5386POPC   C1B70159  25.897   0.017   6.204
 5386POPC   C2B70160  25.902   0.095   6.662
 5386POPC   C3B70161  25.860  44.918   7.070
 5386POPC   C4B70162  25.775   0.156   7.464
 5387POPC   NC370163   0.139  15.662   5.364
 5387POPC   PO470164   0.241  16.309   5.376
 5387POPC   GL170165   0.403  16.169   5.766
 5387POPC   GL270166   0.214  15.919   5.931
 5387POPC   C1A70167   0.580  16.254   6.165
 5387POPC   D2A70168   0.774  16.264   6.580
 5387POPC   C3A70169   0.537  16.140   6.930
 5387POPC   C4A70170   0.336  16.030   7.315
 5387POPC   C1B70171   0.575  15.730   6.157
 5387POPC   C2B70172   0.738  15.744   6.612
 5387POPC   C3B70173   0.583  15.638   7.062
 5387POPC   C4B70174   0.387  15.545   7.495
 5388POPC   NC370175   7.997  36.597   5.401
 5388POPC   PO470176   8.043  37.231   5.606
 5388POPC   GL170177   8.316  37.070   5.864
 5388POPC   GL270178   8.122  36.759   5.896
 5388POPC   C1A70179   8.270  37.172   6.299
 5388POPC   D2A70180   8.118  36.916   6.627
 5388POPC   C3A70181   8.288  37.112   6.964
 5388POPC   C4A70182   8.373  37.399   7.264
 5388POPC   C1B70183   8.457  36.716   6.211
 5388POPC   C2B70184   8.626  36.833   6.620
 5388POPC   C3B70185   8.489  36.646   6.993
 5388POPC   C4B70186   8.048  36.707   7.161
 5389POPC   NC370187   2.681   6.202   5.043
 5389POPC   PO470188   2.424   6.597   5.504
 5389POPC   GL170189   2.791   6.565   5.737
 5389POPC   GL270190   2.910   6.270   5.728
 5389POPC   C1A70191   2.783   6.652   6.157
 5389POPC   D2A70192   2.479   6.560   6.463
 5389POPC   C3A70193   2.683   6.516   6.866
 5389POPC   C4A70194   2.855   6.339   7.245
 5389POPC   C1B70195   3.205   6.385   6.084
 5389POPC   C2B70196   3.114   6.542   6.545
 5389POPC   C3B70197   3.211   6.584   6.975
 5389POPC   C4B70198   2.955   6.844   7.251
 5390POPC   NC370199  41.089  20.410   5.215
 5390POPC   PO470200  40.505  20.417   5.633
 5390POPC   GL170201  40.824  20.508   5.847
 5390POPC   GL270202  41.001  20.183   5.741
 5390POPC   C1A70203  40.810  20.720   6.266
 5390POPC   D2A70204  41.035  20.647   6.652
 5390POPC   C3A70205  40.787  20.769   6.992
 5390POPC   C4A70206  40.836  20.926   7.389
 5390POPC   C1B70207  40.849  20.136   6.182
 5390POPC   C2B70208  40.688  20.256   6.581
 5390POPC   C3B70209  40.884  20.264   7.002
 5390POPC   C4B70210  40.699  20.427   7.422
 5391POPC   NC370211   1.877   5.408   5.455
 5391POPC   PO470212   1.937   6.104   5.505
 5391POPC   GL170213   1.691   5.927   5.873
 5391POPC   GL270214   1.708   5.563   5.964
 5391POPC   C1A70215   1.530   5.980   6.313
 5391POPC   D2A70216   1.672   5.852   6.746
 5391POPC   C3A70217   1.853   6.137   7.060
 5391POPC   C4A70218   1.722   6.239   7.461
 5391POPC   C1B70219   2.002   5.766   6.281
 5391POPC   C2B70220   2.278   6.046   6.543
 5391POPC   C3B70221   2.321   5.915   6.953
 5391POPC   C4B70222   1.994   5.640   7.116
 5392POPC   NC370223  31.289   1.244   5.502
 5392POPC   PO470224  31.843   1.453   5.382
 5392POPC   GL170225  31.709   1.252   5.771
 5392POPC   GL270226  31.946   0.950   5.809
 5392POPC   C1A70227  31.428   1.320   6.172
 5392POPC   D2A70228  31.230   1.374   6.627
 5392POPC   C3A70229  31.501   1.380   7.021
 5392POPC   C4A70230  31.558   1.306   7.486
 5392POPC   C1B70231  31.954   1.213   6.188
 5392POPC   C2B70232  31.746   1.214   6.571
 5392POPC   C3B70233  31.865   1.025   6.938
 5392POPC   C4B70234  32.023   1.194   7.287
 5393POPC   NC370235   9.526  44.876   5.556
 5393POPC   PO470236  10.107   0.075   5.687
 5393POPC   GL170237   9.886  44.739   5.918
 5393POPC   GL270238   9.511  44.603   5.972
 5393POPC   C1A70239  10.039  44.811   6.316
 5393POPC   D2A70240   9.838  44.957   6.706
 5393POPC   C3A70241  10.098  44.968   7.060
 5393POPC   C4A70242  10.238  44.709   7.394
 5393POPC   C1B70243   9.595  44.602   6.381
 5393POPC   C2B70244   9.899  44.424   6.652
 5393POPC   C3B70245   9.875  44.440   7.078
 5393POPC   C4B70246   9.629  44.727   7.269
 5394POPC   NC370247  18.115  39.618   5.634
 5394POPC   PO470248  18.122  40.268   5.482
 5394POPC   GL170249  18.052  40.166   5.863
 5394POPC   GL270250  18.366  40.031   5.872
 5394POPC   C1A70251  18.020  40.191   6.282
 5394POPC   D2A70252  18.255  40.037   6.641
 5394POPC   C3A70253  18.467  40.076   7.037
 5394POPC   C4A70254  18.157  39.975   7.332
 5394POPC   C1B70255  18.480  39.836   6.222
 5394POPC   C2B70256  18.515  39.595   6.585
 5394POPC   C3B70257  18.312  39.605   6.968
 5394POPC   C4B70258  18.475  39.533   7.342
 5395POPC   NC370259   5.546  20.869   5.602
 5395POPC   PO470260   5.972  21.383   5.382
 5395POPC   GL170261   5.849  21.586   5.767
 5395POPC   GL270262   5.771  21.262   5.898
 5395POPC   C1A70263   5.963  21.621   6.201
 5395POPC   D2A70264   6.217  21.411   6.485
 5395POPC   C3A70265   5.921  21.399   6.824
 5395POPC   C4A70266   5.842  21.555   7.241
 5395POPC   C1B70267   5.803  21.127   6.352
 5395POPC   C2B70268   5.514  20.922   6.670
 5395POPC   C3B70269   5.463  20.896   7.121
 5395POPC   C4B70270   5.481  21.150   7.513
 5396POPC   NC370271  18.052  36.620   5.395
 5396POPC   PO470272  18.086  36.100   5.058
 5396POPC   GL170273  18.085  36.146   5.574
 5396POPC   GL270274  18.385  36.309   5.717
 5396POPC   C1A70275  18.134  35.961   6.020
 5396POPC   D2A70276  18.419  35.896   6.381
 5396POPC   C3A70277  18.376  35.932   6.842
 5396POPC   C4A70278  18.246  35.942   7.277
 5396POPC   C1B70279  18.597  36.329   6.159
 5396POPC   C2B70280  18.774  36.225   6.582
 5396POPC   C3B70281  18.632  36.359   6.976
 5396POPC   C4B70282  18.498  36.357   7.387
 5397POPC   NC370283   3.151  14.533   5.549
 5397POPC   PO470284   3.720  14.881   5.310
 5397POPC   GL170285   3.614  14.626   5.736
 5397POPC   GL270286   3.637  14.276   5.880
 5397POPC   C1A70287   3.453  14.592   6.222
 5397POPC   D2A70288   3.587  14.520   6.702
 5397POPC   C3A70289   3.380  14.583   7.124
 5397POPC   C4A70290   3.256  14.338   7.498
 5397POPC   C1B70291   3.874  14.302   6.278
 5397POPC   C2B70292   3.848  14.085   6.631
 5397POPC   C3B70293   3.658  14.096   6.992
 5397POPC   C4B70294   3.745  14.312   7.360
 5398POPC   NC370295  10.366  43.962   5.392
 5398POPC   PO470296  10.896  43.671   5.597
 5398POPC   GL170297  10.630  43.965   5.845
 5398POPC   GL270298  10.239  43.945   5.879
 5398POPC   C1A70299  10.711  44.176   6.232
 5398POPC   D2A70300  10.770  44.366   6.637
 5398POPC   C3A70301  10.732  43.993   6.940
 5398POPC   C4A70302  10.613  43.833   7.357
 5398POPC   C1B70303  10.363  43.635   6.164
 5398POPC   C2B70304  10.589  43.679   6.540
 5398POPC   C3B70305  10.448  43.547   6.944
 5398POPC   C4B70306  10.518  43.316   7.324
 5399POPC   NC370307  20.098  14.853   5.609
 5399POPC   PO470308  19.708  14.446   5.154
 5399POPC   GL170309  19.788  14.463   5.648
 5399POPC   GL270310  19.635  14.721   5.866
 5399POPC   C1A70311  19.850  14.295   6.104
 5399POPC   D2A70312  20.029  14.128   6.527
 5399POPC   C3A70313  19.860  14.204   6.954
 5399POPC   C4A70314  19.611  13.931   7.242
 5399POPC   C1B70315  19.855  14.775   6.260
 5399POPC   C2B70316  20.087  14.637   6.641
 5399POPC   C3B70317  19.921  14.723   7.039
 5399POPC   C4B70318  19.464  14.774   7.096
 5400POPC   NC370319  27.948   8.696   5.494
 5400POPC   PO470320  27.706   9.308   5.234
 5400POPC   GL170321  27.544   9.012   5.625
 5400POPC   GL270322  27.541   8.625   5.761
 5400POPC   C1A70323  27.531   9.001   6.097
 5400POPC   D2A70324  27.465   8.942   6.546
 5400POPC   C3A70325  27.717   9.145   6.839
 5400POPC   C4A70326  27.743   9.166   7.279
 5400POPC   C1B70327  27.686   8.507   6.212
 5400POPC   C2B70328  27.650   8.503   6.687
 5400POPC   C3B70329  27.906   8.689   7.016
 5400POPC   C4B70330  27.923   8.733   7.487
 5401POPC   NC370331  33.302  34.542   5.386
 5401POPC   PO470332  32.990  35.095   5.268
 5401POPC   GL170333  33.044  34.827   5.726
 5401POPC   GL270334  33.092  34.418   5.832
 5401POPC   C1A70335  33.141  34.767   6.193
 5401POPC   D2A70336  33.297  34.553   6.594
 5401POPC   C3A70337  33.085  34.646   7.002
 5401POPC   C4A70338  33.170  34.763   7.433
 5401POPC   C1B70339  32.921  34.285   6.269
 5401POPC   C2B70340  32.955  34.226   6.731
 5401POPC   C3B70341  33.239  34.136   7.052
 5401POPC   C4B70342  33.230  34.179   7.475
 5402POPC   NC370343  18.882   2.889   5.501
 5402POPC   PO470344  19.297   2.279   5.509
 5402POPC   GL170345  19.142   2.577   5.823
 5402POPC   GL270346  18.986   2.362   6.043
 5402POPC   C1A70347  18.991   2.878   6.172
 5402POPC   D2A70348  19.032   2.735   6.621
 5402POPC   C3A70349  19.219   2.945   6.935
 5402POPC   C4A70350  18.947   3.111   7.211
 5402POPC   C1B70351  18.669   2.509   6.331
 5402POPC   C2B70352  18.609   2.476   6.766
 5402POPC   C3B70353  18.746   2.544   7.170
 5402POPC   C4B70354  18.614   2.652   7.594
 5403POPC   NC370355  24.721  29.128   5.511
 5403POPC   PO470356  24.019  29.276   5.497
 5403POPC   GL170357  24.311  29.291   5.813
 5403POPC   GL270358  24.257  28.968   5.912
 5403POPC   C1A70359  24.264  29.313   6.280
 5403POPC   D2A70360  24.277  28.976   6.600
 5403POPC   C3A70361  24.568  29.116   6.922
 5403POPC   C4A70362  24.293  29.283   7.192
 5403POPC   C1B70363  24.613  28.925   6.220
 5403POPC   C2B70364  24.708  28.694   6.649
 5403POPC   C3B70365  24.616  28.655   7.113
 5403POPC   C4B70366  24.598  28.986   7.475
 5404POPC   NC370367  10.338  40.368   5.514
 5404POPC   PO470368  10.743  39.901   5.275
 5404POPC   GL170369  10.671  40.034   5.709
 5404POPC   GL270370  10.548  39.720   5.782
 5404POPC   C1A70371  10.587  40.147   6.165
 5404POPC   D2A70372  10.408  40.107   6.601
 5404POPC   C3A70373  10.464  40.380   6.977
 5404POPC   C4A70374  10.505  40.271   7.431
 5404POPC   C1B70375  10.676  39.607   6.189
 5404POPC   C2B70376  10.494  39.598   6.632
 5404POPC   C3B70377  10.673  39.601   7.053
 5404POPC   C4B70378  10.568  39.688   7.511
 5405POPC   NC370379  29.665  36.608   5.091
 5405POPC   PO470380  30.202  37.022   5.354
 5405POPC   GL170381  30.091  36.780   5.759
 5405POPC   GL270382  29.828  36.906   5.947
 5405POPC   C1A70383  30.166  36.576   6.186
 5405POPC   D2A70384  29.989  36.613   6.622
 5405POPC   C3A70385  29.999  37.029   6.779
 5405POPC   C4A70386  30.005  37.161   7.181
 5405POPC   C1B70387  29.571  37.177   6.177
 5405POPC   C2B70388  29.659  37.366   6.562
 5405POPC   C3B70389  29.514  37.249   6.982
 5405POPC   C4B70390  29.542  37.162   7.422
 5406POPC   NC370391  36.971  24.507   5.176
 5406POPC   PO470392  37.441  24.908   5.395
 5406POPC   GL170393  37.243  24.500   5.603
 5406POPC   GL270394  37.409  24.245   5.816
 5406POPC   C1A70395  36.946  24.398   5.988
 5406POPC   D2A70396  37.082  24.418   6.459
 5406POPC   C3A70397  36.966  24.263   6.885
 5406POPC   C4A70398  36.875  24.519   7.241
 5406POPC   C1B70399  37.380  24.621   6.081
 5406POPC   C2B70400  37.460  24.760   6.508
 5406POPC   C3B70401  37.319  24.662   6.923
 5406POPC   C4B70402  37.505  24.799   7.319
 5407POPC   NC370403  14.129  20.174   5.332
 5407POPC   PO470404  14.490  20.771   5.239
 5407POPC   GL170405  14.374  20.655   5.667
 5407POPC   GL270406  14.649  20.759   5.916
 5407POPC   C1A70407  14.205  20.601   6.110
 5407POPC   D2A70408  14.257  20.525   6.577
 5407POPC   C3A70409  14.129  20.659   7.016
 5407POPC   C4A70410  14.381  20.579   7.410
 5407POPC   C1B70411  14.554  20.912   6.360
 5407POPC   C2B70412  14.573  20.877   6.822
 5407POPC   C3B70413  14.410  21.062   7.209
 5407POPC   C4B70414  14.228  21.338   7.525
 5408POPC   NC370415  15.022  12.332   5.261
 5408POPC   PO470416  15.231  11.737   5.417
 5408POPC   GL170417  15.177  11.904   5.784
 5408POPC   GL270418  15.072  12.262   5.773
 5408POPC   C1A70419  15.248  11.771   6.211
 5408POPC   D2A70420  15.237  11.575   6.629
 5408POPC   C3A70421  15.095  11.869   6.923
 5408POPC   C4A70422  15.384  11.934   7.278
 5408POPC   C1B70423  15.432  12.232   6.071
 5408POPC   C2B70424  15.544  12.290   6.497
 5408POPC   C3B70425  15.372  12.280   6.896
 5408POPC   C4B70426  15.107  12.343   7.283
 5409POPC   NC370427  33.133  44.121   5.329
 5409POPC   PO470428  32.737  43.612   5.251
 5409POPC   GL170429  32.851  43.826   5.656
 5409POPC   GL270430  33.201  43.738   5.685
 5409POPC   C1A70431  32.993  43.966   6.092
 5409POPC   D2A70432  32.863  43.832   6.494
 5409POPC   C3A70433  33.008  43.993   6.875
 5409POPC   C4A70434  32.737  43.900   7.192
 5409POPC   C1B70435  33.373  43.477   6.025
 5409POPC   C2B70436  33.329  43.615   6.457
 5409POPC   C3B70437  33.242  43.518   6.874
 5409POPC   C4B70438  33.213  43.732   7.269
 5410POPC   NC370439  44.872   1.513   5.550
 5410POPC   PO470440  44.653   0.942   5.428
 5410POPC   GL170441  44.608   0.945   5.869
 5410POPC   GL270442  44.751   1.272   6.002
 5410POPC   C1A70443  44.287   1.002   6.199
 5410POPC   D2A70444  44.164   1.081   6.631
 5410POPC   C3A70445  44.493   1.255   6.898
 5410POPC   C4A70446  44.758   1.098   7.208
 5410POPC   C1B70447  44.530   1.605   6.258
 5410POPC   C2B70448  44.430   1.761   6.696
 5410POPC   C3B70449  44.672   1.727   7.091
 5410POPC   C4B70450  44.855   1.526   7.475
 5411POPC   NC370451  40.147  41.260   5.622
 5411POPC   PO470452  39.982  40.642   5.341
 5411POPC   GL170453  40.091  40.683   5.774
 5411POPC   GL270454  39.848  40.907   5.845
 5411POPC   C1A70455  39.970  40.489   6.187
 5411POPC   D2A70456  40.199  40.522   6.567
 5411POPC   C3A70457  40.020  40.434   6.955
 5411POPC   C4A70458  40.117  40.521   7.396
 5411POPC   C1B70459  40.099  40.973   6.228
 5411POPC   C2B70460  40.110  41.043   6.642
 5411POPC   C3B70461  40.146  40.929   7.049
 5411POPC   C4B70462  39.799  41.089   7.227
 5412POPC   NC370463  34.870  18.254   5.140
 5412POPC   PO470464  34.487  17.857   5.573
 5412POPC   GL170465  34.379  18.274   5.792
 5412POPC   GL270466  34.694  18.492   5.882
 5412POPC   C1A70467  34.278  18.480   6.207
 5412POPC   D2A70468  34.514  18.430   6.598
 5412POPC   C3A70469  34.365  18.357   7.017
 5412POPC   C4A70470  34.616  18.520   7.373
 5412POPC   C1B70471  34.679  18.127   6.194
 5412POPC   C2B70472  34.721  17.905   6.584
 5412POPC   C3B70473  34.572  17.861   6.981
 5412POPC   C4B70474  34.528  18.010   7.393
 5413POPC   NC370475  12.468  12.289   5.145
 5413POPC   PO470476  11.923  12.017   5.465
 5413POPC   GL170477  11.985  12.110   5.903
 5413POPC   GL270478  11.931  12.433   5.883
 5413POPC   C1A70479  12.290  12.092   6.280
 5413POPC   D2A70480  12.504  11.952   6.683
 5413POPC   C3A70481  12.290  11.915   7.103
 5413POPC   C4A70482  11.864  11.800   7.260
 5413POPC   C1B70483  11.924  12.434   6.343
 5413POPC   C2B70484  12.057  12.275   6.762
 5413POPC   C3B70485  12.002  12.318   7.215
 5413POPC   C4B70486  12.034  12.477   7.634
 5414POPC   NC370487  32.235   4.913   5.350
 5414POPC   PO470488  32.213   5.342   5.881
 5414POPC   GL170489  32.496   5.132   6.139
 5414POPC   GL270490  32.356   4.839   5.969
 5414POPC   C1A70491  32.415   5.315   6.536
 5414POPC   D2A70492  31.965   5.468   6.596
 5414POPC   C3A70493  31.948   5.330   7.004
 5414POPC   C4A70494  32.396   5.235   7.064
 5414POPC   C1B70495  32.257   4.799   6.421
 5414POPC   C2B70496  32.529   4.829   6.774
 5414POPC   C3B70497  32.415   4.740   7.178
 5414POPC   C4B70498  31.984   4.836   7.173
 5415POPC   NC370499  21.054  10.187   5.516
 5415POPC   PO470500  20.456  10.425   5.193
 5415POPC   GL170501  20.566  10.446   5.689
 5415POPC   GL270502  20.772  10.242   5.918
 5415POPC   C1A70503  20.548  10.643   6.125
 5415POPC   D2A70504  20.831  10.620   6.492
 5415POPC   C3A70505  20.650  10.485   6.882
 5415POPC   C4A70506  20.581  10.677   7.249
 5415POPC   C1B70507  20.640  10.156   6.315
 5415POPC   C2B70508  20.902  10.124   6.628
 5415POPC   C3B70509  20.996  10.062   6.999
 5415POPC   C4B70510  20.859  10.277   7.354
 5416POPC   NC370511  13.023  31.074   5.435
 5416POPC   PO470512  12.545  30.582   5.521
 5416POPC   GL170513  12.805  30.485   5.860
 5416POPC   GL270514  12.993  30.764   5.861
 5416POPC   C1A70515  12.814  30.606   6.315
 5416POPC   D2A70516  12.771  30.852   6.692
 5416POPC   C3A70517  12.776  30.591   7.073
 5416POPC   C4A70518  12.797  30.392   7.497
 5416POPC   C1B70519  13.279  30.812   6.223
 5416POPC   C2B70520  13.279  30.797   6.657
 5416POPC   C3B70521  13.172  30.939   7.057
 5416POPC   C4B70522  13.224  30.589   7.312
 5417POPC   NC370523   1.992   6.803   5.448
 5417POPC   PO470524   1.432   7.119   5.689
 5417POPC   GL170525   1.798   6.884   5.930
 5417POPC   GL270526   2.128   6.681   5.916
 5417POPC   C1A70527   1.934   6.790   6.366
 5417POPC   D2A70528   1.803   6.945   6.751
 5417POPC   C3A70529   1.740   6.655   7.085
 5417POPC   C4A70530   1.964   6.799   7.381
 5417POPC   C1B70531   1.965   6.309   6.161
 5417POPC   C2B70532   1.838   6.327   6.578
 5417POPC   C3B70533   2.144   6.502   6.837
 5417POPC   C4B70534   2.318   6.375   7.211
 5418POPC   NC370535   8.109  16.411   5.555
 5418POPC   PO470536   7.865  15.847   5.485
 5418POPC   GL170537   8.185  15.952   5.781
 5418POPC   GL270538   7.937  16.152   5.956
 5418POPC   C1A70539   8.429  15.982   6.173
 5418POPC   D2A70540   8.531  15.731   6.533
 5418POPC   C3A70541   8.464  15.943   6.897
 5418POPC   C4A70542   8.362  16.053   7.289
 5418POPC   C1B70543   8.100  16.348   6.319
 5418POPC   C2B70544   8.078  16.273   6.763
 5418POPC   C3B70545   7.885  15.997   7.064
 5418POPC   C4B70546   7.919  15.736   7.412
 5419POPC   NC370547  14.262  34.092   5.354
 5419POPC   PO470548  14.710  33.543   5.294
 5419POPC   GL170549  14.578  33.760   5.728
 5419POPC   GL270550  14.562  34.153   5.760
 5419POPC   C1A70551  14.548  33.555   6.167
 5419POPC   D2A70552  14.632  33.337   6.556
 5419POPC   C3A70553  14.613  33.584   6.905
 5419POPC   C4A70554  14.393  33.563   7.207
 5419POPC   C1B70555  14.550  34.072   6.181
 5419POPC   C2B70556  14.400  33.918   6.550
 5419POPC   C3B70557  14.503  34.094   6.913
 5419POPC   C4B70558  14.329  34.047   7.284
 5420POPC   NC370559   6.442  21.283   5.444
 5420POPC   PO470560   6.647  21.879   5.592
 5420POPC   GL170561   6.561  21.579   5.902
 5420POPC   GL270562   6.287  21.325   5.922
 5420POPC   C1A70563   6.788  21.599   6.280
 5420POPC   D2A70564   6.661  21.741   6.678
 5420POPC   C3A70565   6.844  21.556   7.021
 5420POPC   C4A70566   6.613  21.462   7.382
 5420POPC   C1B70567   6.575  21.145   6.219
 5420POPC   C2B70568   6.669  21.194   6.639
 5420POPC   C3B70569   6.398  21.251   6.957
 5420POPC   C4B70570   6.334  21.029   7.321
 5421POPC   NC370571  31.143  13.888   5.519
 5421POPC   PO470572  31.739  13.598   5.273
 5421POPC   GL170573  31.689  13.729   5.723
 5421POPC   GL270574  31.809  14.030   5.886
 5421POPC   C1A70575  31.725  13.642   6.198
 5421POPC   D2A70576  31.542  13.789   6.593
 5421POPC   C3A70577  31.678  13.655   6.998
 5421POPC   C4A70578  31.377  13.401   7.163
 5421POPC   C1B70579  31.391  14.070   6.156
 5421POPC   C2B70580  31.214  14.190   6.589
 5421POPC   C3B70581  31.197  13.952   7.005
 5421POPC   C4B70582  31.401  13.865   7.406
 5422POPC   NC370583  12.493  23.801   5.495
 5422POPC   PO470584  13.147  23.560   5.472
 5422POPC   GL170585  12.861  23.641   5.852
 5422POPC   GL270586  12.596  23.386   5.932
 5422POPC   C1A70587  12.707  23.713   6.284
 5422POPC   D2A70588  12.554  23.401   6.602
 5422POPC   C3A70589  12.519  23.620   6.997
 5422POPC   C4A70590  12.784  23.845   7.317
 5422POPC   C1B70591  12.877  23.213   6.226
 5422POPC   C2B70592  13.065  23.460   6.536
 5422POPC   C3B70593  13.079  23.609   6.967
 5422POPC   C4B70594  13.284  23.304   7.261
 5423POPC   NC370595  31.199  36.652   5.466
 5423POPC   PO470596  31.673  37.098   5.374
 5423POPC   GL170597  31.541  36.899   5.780
 5423POPC   GL270598  31.287  37.092   5.949
 5423POPC   C1A70599  31.330  36.622   6.130
 5423POPC   D2A70600  31.477  36.548   6.568
 5423POPC   C3A70601  31.323  36.779   6.980
 5423POPC   C4A70602  31.293  36.998   7.415
 5423POPC   C1B70603  31.638  36.999   6.287
 5423POPC   C2B70604  31.694  37.125   6.737
 5423POPC   C3B70605  31.631  37.337   7.134
 5423POPC   C4B70606  31.698  37.281   7.585
 5424POPC   NC370607  29.300  17.331   5.472
 5424POPC   PO470608  29.221  18.037   5.499
 5424POPC   GL170609  29.252  17.712   5.807
 5424POPC   GL270610  28.977  17.462   5.863
 5424POPC   C1A70611  29.382  17.456   6.180
 5424POPC   D2A70612  29.664  17.299   6.527
 5424POPC   C3A70613  29.477  17.410   6.909
 5424POPC   C4A70614  29.156  17.310   7.171
 5424POPC   C1B70615  28.903  17.613   6.312
 5424POPC   C2B70616  28.861  17.540   6.793
 5424POPC   C3B70617  28.654  17.379   7.191
 5424POPC   C4B70618  28.705  17.472   7.646
 5425POPC   NC370619   8.608  33.259   5.406
 5425POPC   PO470620   8.165  32.752   5.482
 5425POPC   GL170621   8.052  32.961   5.878
 5425POPC   GL270622   7.802  33.269   5.937
 5425POPC   C1A70623   8.368  32.963   6.199
 5425POPC   D2A70624   8.456  32.928   6.628
 5425POPC   C3A70625   8.128  33.084   6.882
 5425POPC   C4A70626   8.188  32.945   7.259
 5425POPC   C1B70627   7.884  33.077   6.359
 5425POPC   C2B70628   7.902  32.692   6.610
 5425POPC   C3B70629   7.732  32.711   7.031
 5425POPC   C4B70630   7.694  33.085   7.267
 5426POPC   NC370631  41.096  30.135   5.443
 5426POPC   PO470632  40.519  30.452   5.284
 5426POPC   GL170633  40.641  30.575   5.726
 5426POPC   GL270634  40.938  30.438   5.871
 5426POPC   C1A70635  40.655  30.759   6.185
 5426POPC   D2A70636  40.411  30.887   6.548
 5426POPC   C3A70637  40.621  30.773   6.928
 5426POPC   C4A70638  40.923  30.780   7.271
 5426POPC   C1B70639  40.639  30.260   6.176
 5426POPC   C2B70640  40.822  30.322   6.575
 5426POPC   C3B70641  40.638  30.237   6.939
 5426POPC   C4B70642  40.524  30.433   7.300
 5427POPC   NC370643  21.188   1.583   5.418
 5427POPC   PO470644  21.802   1.592   5.475
 5427POPC   GL170645  21.511   1.703   5.831
 5427POPC   GL270646  21.230   1.927   5.816
 5427POPC   C1A70647  21.294   1.632   6.246
 5427POPC   D2A70648  21.117   1.786   6.658
 5427POPC   C3A70649  21.350   1.733   7.081
 5427POPC   C4A70650  21.761   1.643   7.307
 5427POPC   C1B70651  21.190   2.138   6.245
 5427POPC   C2B70652  21.055   2.289   6.674
 5427POPC   C3B70653  21.155   2.230   7.125
 5427POPC   C4B70654  21.175   2.227   7.611
 5428POPC   NC370655  14.225  10.028   5.115
 5428POPC   PO470656  14.724  10.027   5.476
 5428POPC   GL170657  14.605   9.810   5.875
 5428POPC   GL270658  14.301   9.592   5.854
 5428POPC   C1A70659  14.690   9.865   6.320
 5428POPC   D2A70660  14.786  10.017   6.739
 5428POPC   C3A70661  14.614   9.797   7.089
 5428POPC   C4A70662  14.502  10.028   7.467
 5428POPC   C1B70663  14.252   9.608   6.312
 5428POPC   C2B70664  14.272   9.871   6.690
 5428POPC   C3B70665  14.113   9.930   7.133
 5428POPC   C4B70666  14.120   9.693   7.540
 5429POPC   NC370667  12.527  43.297   5.445
 5429POPC   PO470668  12.989  42.864   5.346
 5429POPC   GL170669  12.727  42.923   5.732
 5429POPC   GL270670  12.914  43.157   5.791
 5429POPC   C1A70671  12.606  42.974   6.205
 5429POPC   D2A70672  12.647  43.193   6.647
 5429POPC   C3A70673  12.616  42.978   7.084
 5429POPC   C4A70674  12.512  43.057   7.581
 5429POPC   C1B70675  13.251  43.146   6.085
 5429POPC   C2B70676  13.240  43.203   6.554
 5429POPC   C3B70677  13.090  43.221   6.996
 5429POPC   C4B70678  13.168  43.397   7.423
 5430POPC   NC370679  40.068  19.377   5.489
 5430POPC   PO470680  40.036  18.752   5.206
 5430POPC   GL170681  40.066  18.823   5.711
 5430POPC   GL270682  39.744  18.845   5.916
 5430POPC   C1A70683  40.200  18.852   6.200
 5430POPC   D2A70684  40.361  18.751   6.654
 5430POPC   C3A70685  40.190  18.986   7.019
 5430POPC   C4A70686  40.225  19.407   7.163
 5430POPC   C1B70687  39.758  19.139   6.302
 5430POPC   C2B70688  39.848  19.271   6.734
 5430POPC   C3B70689  39.742  19.274   7.193
 5430POPC   C4B70690  39.579  19.043   7.550
 5431W        W70691  18.627  26.698  14.869
 5432W        W70692   0.788  43.052   1.917
 5433W        W70693  32.720  40.554   0.918
 5434W        W70694   6.254  13.664   3.731
 5435W        W70695  43.983  21.083   4.155
 5436W        W70696   5.030  15.008  14.384
 5437W        W70697  27.585  29.094   2.202
 5438W        W70698  12.829  44.559   1.224
 5439W        W70699  32.028  37.969   1.454
 5440W        W70700  41.094   7.700   1.708
 5441W        W70701  42.849  21.526   3.837
 5442W        W70702  15.519   4.210   0.164
 5443W        W70703   5.475  19.595   3.132
 5444W        W70704  10.504  12.200   2.705
 5445W        W70705  12.042  33.497   2.240
 5446W        W70706  27.212  30.062  14.693
 5447W        W70707  38.779  17.588  14.349
 5448W        W70708  31.150   1.287   3.345
 5449W        W70709  40.881  11.893  10.028
 5450W        W70710  12.124   4.796  13.498
 5451W        W70711   2.878  34.405   2.218
 5452W        W70712  30.508  10.466   1.688
 5453W        W70713  17.526  39.427   0.174
 5454W        W70714  33.068  36.784   2.764
 5455W        W70715  34.235  17.050   0.305
 5456W        W70716  10.344  19.466  14.878
 5457W        W70717  40.315  13.748  12.674
 5458W        W70718  11.584  13.666   4.616
 5459W        W70719  34.722   1.476  14.995
 5460W        W70720  25.733  31.051   2.208
 5461W        W70721  12.194  12.825  11.323
 5462W        W70722   4.894  17.112  13.502
 5463W        W70723  21.226  29.222   2.264
 5464W        W70724   8.945   3.681  11.332
 5465W        W70725   3.452  26.152  12.593
 5466W        W70726  10.504  15.604  10.365
 5467W        W70727  13.214   6.921   0.406
 5468W        W70728  16.063  36.014   3.698
 5469W        W70729  16.526  26.909  12.866
 5470W        W70730  21.056  39.303   3.739
 5471W        W70731  29.576  13.170  12.534
 5472W        W70732  25.537  12.462  13.512
 5473W        W70733  29.638  30.538   3.593
 5474W        W70734  27.761  43.425   1.763
 5475W        W70735   3.918  30.863  11.194
 5476W        W70736  26.222   5.334   2.456
 5477W        W70737  13.804  33.036   1.910
 5478W        W70738  28.544  40.127  12.035
 5479W        W70739  12.664  42.252  14.595
 5480W        W70740  36.575   3.830  13.427
 5481W        W70741   1.570  25.827   4.007
 5482W        W70742  38.777   2.543  14.972
 5483W        W70743   5.294   2.183  12.989
 5484W        W70744  10.756  19.466   1.848
 5485W        W70745  34.059  24.153   3.361
 5486W        W70746  25.065  32.038   1.068
 5487W        W70747   6.200  10.575   0.744
 5488W        W70748  35.213  40.480  14.523
 5489W        W70749  19.093  28.869  14.115
 5490W        W70750  18.322   9.748  11.191
 5491W        W70751   2.580  41.640   0.459
 5492W        W70752   4.822  29.238  14.689
 5493W        W70753  29.831  39.297   3.005
 5494W        W70754  43.384  28.375  11.679
 5495W        W70755  32.220  39.016   1.216
 5496W        W70756  38.067   5.960   3.185
 5497W        W70757  35.801  23.564   0.676
 5498W        W70758  27.477  41.952   2.911
 5499W        W70759   6.657  20.150  14.314
 5500W        W70760  25.576  23.141  11.268
 5501W        W70761   4.303  33.614  12.912
 5502W        W70762  25.147  27.387  11.177
 5503W        W70763  35.068  21.553  12.396
 5504W        W70764  25.983  28.754   0.385
 5505W        W70765  30.182   6.753   1.424
 5506W        W70766  25.867  27.194   0.370
 5507W        W70767  17.378  11.512  11.064
 5508W        W70768   6.737  40.054  10.915
 5509W        W70769  42.127   9.803  10.773
 5510W        W70770  12.204  32.584  12.000
 5511W        W70771  18.785  13.129   0.409
 5512W        W70772  31.977   1.432   2.365
 5513W        W70773  42.710  43.116  14.385
 5514W        W70774   5.651  24.908   4.664
 5515W        W70775   1.438  30.600   4.645
 5516W        W70776  22.962  27.397   0.561
 5517W        W70777  34.462  38.484  11.438
 5518W        W70778   6.962  25.599   4.518
 5519W        W70779   8.888  17.328  10.420
 5520W        W70780   5.707  23.717  11.441
 5521W        W70781  37.796  19.445   4.517
 5522W        W70782  39.574  19.482   4.042
 5523W        W70783   0.007   9.097   1.231
 5524W        W70784  34.555  43.028   4.735
 5525W        W70785  40.171  25.061   4.112
 5526W        W70786  20.767  38.514  14.464
 5527W        W70787   3.415   7.296   3.385
 5528W        W70788  43.549  19.506  11.571
 5529W        W70789  17.909  25.698  12.094
 5530W        W70790  24.220   9.854  11.045
 5531W        W70791  11.101  37.018  13.114
 5532W        W70792  25.435  27.096  11.523
 5533W        W70793  35.763  23.716   3.692
 5534W        W70794  13.920  19.475   1.485
 5535W        W70795  31.876  37.314   1.158
 5536W        W70796  36.925   1.693   0.360
 5537W        W70797  10.589  25.321  12.604
 5538W        W70798  40.660  42.384  13.706
 5539W        W70799  17.768  26.530  10.898
 5540W        W70800  31.276  16.158  12.180
 5541W        W70801  34.225   1.494  14.824
 5542W        W70802  37.118  28.572  11.550
 5543W        W70803   2.386   1.902   9.934
 5544W        W70804  24.181   8.626   2.799
 5545W        W70805  28.951  23.172  13.757
 5546W        W70806  30.107  15.590   1.973
 5547W        W70807  18.051  18.400   2.677
 5548W        W70808  25.428  44.154  12.159
 5549W        W70809  30.245  31.988   1.351
 5550W        W70810  31.674   6.689   0.866
 5551W        W70811  22.129  33.376  13.867
 5552W        W70812  23.661   1.883  13.299
 5553W        W70813  24.641  41.486  14.364
 5554W        W70814   8.598  10.896  11.114
 5555W        W70815   3.401   2.288   3.555
 5556W        W70816  43.444  24.250  12.642
 5557W        W70817  19.750   6.196   0.826
 5558W        W70818   8.195  41.492  10.948
 5559W        W70819  14.346   2.464  10.660
 5560W        W70820  41.985  42.820  12.510
 5561W        W70821  24.791  30.162  13.299
 5562W        W70822  10.903  39.799  11.204
 5563W        W70823  13.525  32.630   1.724
 5564W        W70824  11.549   9.903   1.301
 5565W        W70825  38.996   8.372   1.245
 5566W        W70826  32.649  41.233  11.852
 5567W        W70827   9.623   6.777   5.442
 5568W        W70828  37.911  33.156  13.998
 5569W        W70829  35.954  30.462   0.281
 5570W        W70830  24.007  23.574   2.786
 5571W        W70831  31.432  15.746  14.298
 5572W        W70832   6.969  39.293  10.558
 5573W        W70833  15.736  35.121  10.510
 5574W        W70834  38.364  15.248  14.959
 5575W        W70835  37.528  19.571  10.597
 5576W        W70836   5.009  11.637  13.499
 5577W        W70837  35.002  43.730   2.665
 5578W        W70838  30.986  20.074  12.025
 5579W        W70839  18.376  21.606   4.138
 5580W        W70840   0.971  15.249   2.636
 5581W        W70841  23.998  43.843   3.693
 5582W        W70842  10.661  12.090  11.539
 5583W        W70843  11.134  41.311   2.345
 5584W        W70844  38.292  26.960   0.207
 5585W        W70845  33.627  11.902  13.527
 5586W        W70846  40.566  41.877   1.312
 5587W        W70847  17.028  13.041   3.141
 5588W        W70848   0.267  31.238  11.105
 5589W        W70849  17.522   5.634  12.604
 5590W        W70850  27.044  40.870  11.676
 5591W        W70851   7.067  30.125   3.071
 5592W        W70852  15.040  30.030   1.420
 5593W        W70853  12.582  21.364  13.027
 5594W        W70854   0.873  30.113   3.018
 5595W        W70855  16.088   2.865  12.141
 5596W        W70856  31.392  40.383   2.189
 5597W        W70857   7.341   7.417   3.622
 5598W        W70858  21.773  43.278   2.420
 5599W        W70859   4.118  35.472  11.946
 5600W        W70860  26.204  11.309  12.511
 5601W        W70861  21.729  26.204   4.942
 5602W        W70862   2.820  29.425   4.603
 5603W        W70863  43.615  13.693  12.538
 5604W        W70864  40.833  40.835  12.841
 5605W        W70865  35.574  31.457  13.538
 5606W        W70866   0.019  22.191  11.066
 5607W        W70867  41.365  39.076  11.139
 5608W        W70868  30.244  27.480  12.879
 5609W        W70869  41.312  35.542  12.934
 5610W        W70870  15.566  26.639   1.265
 5611W        W70871  37.449  27.842   1.195
 5612W        W70872  27.959  14.840  14.407
 5613W        W70873  28.101  24.775  12.407
 5614W        W70874  39.879  27.361   3.794
 5615W        W70875  42.305   3.454  12.515
 5616W        W70876  31.200   9.109   0.911
 5617W        W70877  29.468   3.800   0.037
 5618W        W70878   1.419   9.230  14.842
 5619W        W70879  26.891   0.272  10.565
 5620W        W70880  12.374  10.260   1.140
 5621W        W70881  40.808   4.748  14.429
 5622W        W70882  36.834  20.453  14.376
 5623W        W70883  42.032  32.702  14.476
 5624W        W70884  25.707  16.688   2.828
 5625W        W70885   3.847  34.195  13.825
 5626W        W70886  19.559  14.867   1.306
 5627W        W70887  10.839  14.719   4.229
 5628W        W70888  21.733  33.969  14.859
 5629W        W70889  28.982   5.668   1.846
 5630W        W70890  17.782  13.592  10.854
 5631W        W70891  23.512  17.637  14.450
 5632W        W70892  18.727  13.563  12.093
 5633W        W70893  43.865  44.340   5.045
 5634W        W70894  20.630  32.140  12.223
 5635W        W70895  30.646  20.162  11.371
 5636W        W70896  11.325  12.733   0.849
 5637W        W70897  16.590   0.519  14.795
 5638W        W70898  38.950  10.319   1.736
 5639W        W70899  41.488  10.258  11.084
 5640W        W70900  13.393   4.696   0.239
 5641W        W70901  27.051   0.089  14.823
 5642W        W70902  39.608  43.747   2.973
 5643W        W70903  28.481  21.073  12.021
 5644W        W70904   1.828  14.313  14.496
 5645W        W70905  11.663   9.352   1.346
 5646W        W70906   1.686  25.519   0.351
 5647W        W70907  40.585   6.151   1.748
 5648W        W70908  12.025  41.299   3.653
 5649W        W70909  27.923   3.226  14.808
 5650W        W70910   2.849  12.715  11.559
 5651W        W70911  20.514   7.770  12.573
 5652W        W70912  11.952  38.820  14.868
 5653W        W70913   1.300   2.426  12.498
 5654W        W70914   4.966  14.835   1.693
 5655W        W70915   9.671  44.328   2.124
 5656W        W70916  42.755  39.967  14.432
 5657W        W70917  31.498  34.286  14.498
 5658W        W70918  11.226  39.054  11.199
 5659W        W70919  18.119  21.245   1.641
 5660W        W70920  42.327  27.195  11.148
 5661W        W70921   7.594  12.629   2.603
 5662W        W70922  22.076  33.382  12.920
 5663W        W70923  36.354  42.850  14.379
 5664W        W70924  41.857  15.224  10.728
 5665W        W70925   6.262   0.450   4.036
 5666W        W70926  23.110  41.067  11.397
 5667W        W70927  10.174  30.574   9.698
 5668W        W70928  39.796  10.208   3.409
 5669W        W70929  22.996  21.836   4.830
 5670W        W70930  27.562   5.239  12.907
 5671W        W70931  13.513  27.754  14.275
 5672W        W70932  32.878   3.395  14.801
 5673W        W70933  32.350  26.871   1.840
 5674W        W70934  42.150  21.872   3.189
 5675W        W70935  34.557  20.535   4.689
 5676W        W70936  12.643  26.634   0.335
 5677W        W70937  34.068  38.556   0.240
 5678W        W70938   9.672   4.532  14.964
 5679W        W70939   5.543  30.982  14.974
 5680W        W70940  19.688  10.677   1.455
 5681W        W70941   4.748   0.918   3.228
 5682W        W70942  25.911  22.820   0.200
 5683W        W70943  31.851  19.598  14.946
 5684W        W70944  16.739  19.045   1.742
 5685W        W70945  24.582  29.616   1.938
 5686W        W70946  17.766  44.277   3.618
 5687W        W70947   2.310   7.593   2.198
 5688W        W70948   4.786  37.307  14.785
 5689W        W70949  39.282  21.799  14.532
 5690W        W70950  25.724  15.296  11.992
 5691W        W70951   0.854  12.570  10.923
 5692W        W70952  29.524   3.886   1.991
 5693W        W70953  12.503  27.223   1.684
 5694W        W70954  14.122  29.498   2.027
 5695W        W70955  44.512  32.162  13.408
 5696W        W70956  23.519  33.925  13.819
 5697W        W70957  25.583  13.069  12.856
 5698W        W70958   8.684  39.902  11.320
 5699W        W70959  29.734  25.006  14.243
 5700W        W70960  37.013  29.422  11.715
 5701W        W70961  15.056  43.993   1.618
 5702W        W70962   5.210  33.877   4.605
 5703W        W70963  31.007   9.905   2.197
 5704W        W70964  19.607  31.416   4.726
 5705W        W70965  36.048  10.235  14.783
 5706W        W70966  15.641  33.526  11.221
 5707W        W70967  26.019   1.689  13.018
 5708W        W70968   2.326   7.249  10.647
 5709W        W70969  18.485  14.247   4.129
 5710W        W70970  37.255   6.277   1.272
 5711W        W70971  11.617  28.885   1.922
 5712W        W70972  35.168  30.140  12.971
 5713W        W70973  29.035  37.595  13.964
 5714W        W70974  38.878  13.270  10.788
 5715W        W70975  14.765   9.936   0.901
 5716W        W70976  11.994  14.639  13.439
 5717W        W70977   2.959  33.329  11.457
 5718W        W70978  25.092  39.800   3.738
 5719W        W70979   0.952  22.907   1.078
 5720W        W70980  44.417  10.806   4.629
 5721W        W70981   9.890   5.806  12.196
 5722W        W70982  20.492  14.184   4.085
 5723W        W70983  34.822  18.996   2.308
 5724W        W70984  18.880  40.916   3.889
 5725W        W70985   6.810  19.693   3.417
 5726W        W70986   5.400   4.530   3.104
 5727W        W70987  32.341  14.478   0.227
 5728W        W70988  18.504  18.570   1.423
 5729W        W70989  10.623  23.096   3.781
 5730W        W70990  14.344  43.415  14.327
 5731W        W70991  34.800  26.429   9.893
 5732W        W70992  43.087  15.756   1.677
 5733W        W70993  28.640   8.372  12.108
 5734W        W70994  37.081   8.680   3.299
 5735W        W70995  12.628  42.518   2.928
 5736W        W70996  34.494  40.577   5.073
 5737W        W70997  25.250  17.025   0.797
 5738W        W70998  19.167  12.198   0.866
 5739W        W70999  12.777   3.345   1.840
 5740W        W71000  44.350  44.057  11.656
 5741W        W71001   9.050  29.725  11.068
 5742W        W71002  33.856   9.717  10.763
 5743W        W71003  12.687  24.541  12.103
 5744W        W71004   6.937  40.543   0.477
 5745W        W71005   7.287  44.719   3.713
 5746W        W71006   4.822  14.528   4.160
 5747W        W71007  33.359  13.663  11.698
 5748W        W71008  26.989   7.301  11.234
 5749W        W71009  34.412  31.740   1.709
 5750W        W71010   5.767   6.407   0.857
 5751W        W71011  23.106  35.992  13.765
 5752W        W71012  31.399  21.799  11.866
 5753W        W71013  13.002  32.134  12.223
 5754W        W71014   4.249   8.604  11.560
 5755W        W71015  17.094  26.457  12.904
 5756W        W71016  24.980  22.564   2.788
 5757W        W71017   3.784  43.033  14.822
 5758W        W71018  22.969  10.636  13.384
 5759W        W71019  15.246  20.655  12.962
 5760W        W71020   1.888  39.788   3.656
 5761W        W71021  27.781  10.150   3.735
 5762W        W71022  28.222  40.307   3.131
 5763W        W71023  33.359   8.210   1.723
 5764W        W71024  35.377  34.746  12.663
 5765W        W71025  11.997  42.471   2.268
 5766W        W71026  17.323   7.752  10.995
 5767W        W71027  34.320  12.653  11.096
 5768W        W71028  33.126  42.333  14.388
 5769W        W71029  21.228  36.930   2.226
 5770W        W71030  26.335   0.338   3.662
 5771W        W71031  42.925   6.575   2.391
 5772W        W71032  16.270  10.388   1.947
 5773W        W71033   8.249  32.568   1.388
 5774W        W71034  11.589  35.390  13.442
 5775W        W71035   0.189  23.212   3.764
 5776W        W71036  28.525  35.652  14.089
 5777W        W71037  20.623  22.703  11.263
 5778W        W71038  20.456  29.812  11.561
 5779W        W71039  18.276  38.560  14.980
 5780W        W71040  40.847  22.535  13.918
 5781W        W71041   1.769  23.708  14.839
 5782W        W71042  21.454  22.787  14.285
 5783W        W71043  25.239  28.608  14.311
 5784W        W71044  34.369  13.999  14.936
 5785W        W71045  30.377   0.514  12.571
 5786W        W71046  21.026  31.989  10.508
 5787W        W71047  38.133  44.368   3.660
 5788W        W71048   0.879  31.372  11.107
 5789W        W71049   8.396  42.417  12.851
 5790W        W71050  24.165   1.321   2.255
 5791W        W71051  29.409   6.727  10.744
 5792W        W71052  30.390  26.430   2.581
 5793W        W71053  33.631   6.977   4.568
 5794W        W71054  36.869  24.567   2.923
 5795W        W71055  20.026  13.863  12.678
 5796W        W71056  21.316  13.141   3.814
 5797W        W71057  19.006   8.365   2.976
 5798W        W71058  13.660  36.191   0.415
 5799W        W71059  36.405  31.433  10.730
 5800W        W71060  16.717  11.707  11.990
 5801W        W71061   8.179  14.139  13.910
 5802W        W71062  33.600  32.630   2.451
 5803W        W71063  41.096   6.741  11.832
 5804W        W71064  29.770  10.787  13.931
 5805W        W71065  44.959  14.366  13.366
 5806W        W71066  15.091  15.862  10.849
 5807W        W71067  12.942  26.876   2.574
 5808W        W71068  42.417  36.678  14.384
 5809W        W71069   4.703  24.765  13.108
 5810W        W71070  38.451  22.510   3.340
 5811W        W71071  44.485  28.921  12.941
 5812W        W71072  36.606  23.057   1.330
 5813W        W71073  44.555  24.459  13.332
 5814W        W71074  16.783   3.866  13.384
 5815W        W71075   5.985  42.341   1.497
 5816W        W71076  41.126  25.712  14.381
 5817W        W71077   3.966  20.859   0.431
 5818W        W71078   1.295   7.932  11.589
 5819W        W71079  13.016  27.250  14.894
 5820W        W71080  35.831  43.903   3.581
 5821W        W71081  11.707  12.332   0.862
 5822W        W71082  16.576   0.418  12.986
 5823W        W71083  19.197  33.322  12.005
 5824W        W71084  11.930  34.486   3.057
 5825W        W71085  31.891  39.908   4.078
 5826W        W71086  26.966  43.520   1.317
 5827W        W71087  22.088  11.314  14.766
 5828W        W71088  42.878  24.413   2.723
 5829W        W71089  40.446  16.382  12.392
 5830W        W71090  28.794  26.567   1.336
 5831W        W71091   2.216  27.096  13.050
 5832W        W71092  15.060  33.324   0.745
 5833W        W71093  39.777  39.843   3.620
 5834W        W71094   5.106  23.862   0.716
 5835W        W71095  17.996   7.359   0.762
 5836W        W71096   4.238  13.599   1.392
 5837W        W71097  16.661  35.801  11.065
 5838W        W71098  18.166  42.035   3.679
 5839W        W71099  36.940  35.989   1.527
 5840W        W71100  35.803  11.563   3.731
 5841W        W71101  27.244  13.988   0.250
 5842W        W71102   1.823  17.042   4.176
 5843W        W71103  23.066  24.782   3.217
 5844W        W71104  20.784  19.249  11.049
 5845W        W71105  43.920  19.075  12.852
 5846W        W71106  36.778  13.399   2.360
 5847W        W71107   7.608  28.658   0.474
 5848W        W71108  17.233  28.869  13.882
 5849W        W71109  26.608  31.383   1.771
 5850W        W71110  44.118  20.342   0.465
 5851W        W71111   0.693  19.775  11.847
 5852W        W71112  42.926  32.475  12.506
 5853W        W71113  33.760  30.373   5.101
 5854W        W71114  19.542  17.149  11.226
 5855W        W71115  40.014  30.527  13.101
 5856W        W71116  22.081  30.171   4.537
 5857W        W71117  26.545  23.597  13.574
 5858W        W71118  40.408  43.769  14.758
 5859W        W71119  44.050  30.506   2.905
 5860W        W71120  22.271  21.804  11.023
 5861W        W71121  43.362  42.326  11.092
 5862W        W71122  34.351  15.190   1.438
 5863W        W71123  41.005   2.714  10.165
 5864W        W71124  21.779   0.782   4.078
 5865W        W71125  44.987  20.278   0.322
 5866W        W71126  35.946  14.253   4.394
 5867W        W71127  25.448  27.955  11.788
 5868W        W71128   3.250  27.925   0.450
 5869W        W71129  26.951  28.237   4.195
 5870W        W71130  41.699  44.326   1.412
 5871W        W71131  29.911  23.011   0.185
 5872W        W71132  26.715  34.143   1.756
 5873W        W71133   2.882   9.086   2.748
 5874W        W71134  11.609   1.829  12.500
 5875W        W71135  14.586  10.162  14.522
 5876W        W71136   1.206  39.619  14.943
 5877W        W71137   6.694  28.622  14.407
 5878W        W71138  32.485  33.009  14.349
 5879W        W71139  36.379   2.202   1.765
 5880W        W71140  18.795  28.057   1.722
 5881W        W71141  30.111   4.365  12.057
 5882W        W71142  19.877  11.780  12.536
 5883W        W71143  30.467  28.093   0.511
 5884W        W71144  13.085   5.916   1.349
 5885W        W71145   7.708  14.467  12.110
 5886W        W71146  42.031  14.047  13.430
 5887W        W71147  26.904   1.800  10.562
 5888W        W71148  33.237  10.999  11.117
 5889W        W71149  28.904  33.977   4.175
 5890W        W71150  20.776   0.355   3.305
 5891W        W71151  43.963  44.558  12.063
 5892W        W71152   9.147  33.376  10.670
 5893W        W71153  38.042   7.721  13.559
 5894W        W71154  28.232  38.447   0.545
 5895W        W71155  31.502  43.439  10.906
 5896W        W71156   9.630  37.514   2.980
 5897W        W71157  39.128  11.020  13.983
 5898W        W71158   1.924  36.759   4.189
 5899W        W71159  37.947  18.704   2.754
 5900W        W71160  27.348   0.450  12.006
 5901W        W71161  16.635  18.848  13.718
 5902W        W71162  17.614  11.857  14.064
 5903W        W71163  15.383   0.867  13.235
 5904W        W71164  42.948   4.794   3.973
 5905W        W71165  16.959  24.110  14.519
 5906W        W71166  29.449  20.048  14.092
 5907W        W71167  23.608  25.911  13.915
 5908W        W71168  38.461  24.629  11.577
 5909W        W71169   4.666  23.174  14.717
 5910W        W71170  13.292  11.116  13.578
 5911W        W71171  43.322  18.871   2.352
 5912W        W71172  42.787  10.013  11.548
 5913W        W71173  35.017  17.128   1.248
 5914W        W71174   1.516  31.606   1.021
 5915W        W71175  40.968  26.032   1.764
 5916W        W71176   8.221   4.925  12.026
 5917W        W71177   6.511  39.937  14.790
 5918W        W71178  10.090   2.877   4.139
 5919W        W71179  12.768  18.506  13.966
 5920W        W71180  43.402  34.355   2.528
 5921W        W71181  33.101  32.433   2.509
 5922W        W71182  27.903  44.912   0.795
 5923W        W71183  30.447  21.113  11.652
 5924W        W71184  23.453  33.413   2.819
 5925W        W71185  14.109  22.614  14.466
 5926W        W71186  41.367  38.626   0.251
 5927W        W71187  20.878  24.107  12.816
 5928W        W71188   2.652  17.809  10.438
 5929W        W71189  34.122   0.577  11.255
 5930W        W71190  26.549  42.241  14.946
 5931W        W71191   1.983   5.203   4.149
 5932W        W71192  21.522   3.018  12.815
 5933W        W71193  26.115  17.070  10.328
 5934W        W71194   6.198  43.269   3.255
 5935W        W71195  37.263  38.693   0.229
 5936W        W71196   3.781  33.363  12.778
 5937W        W71197   6.867   6.717   1.603
 5938W        W71198  18.749  34.851   1.068
 5939W        W71199   2.283  35.092  14.303
 5940W        W71200  28.455  35.390   2.808
 5941W        W71201  41.374  41.962  13.756
 5942W        W71202   5.393  13.073  12.194
 5943W        W71203   6.787  39.343   3.798
 5944W        W71204  21.142  35.932  13.623
 5945W        W71205  28.202  28.045   1.781
 5946W        W71206   2.244   3.381   4.496
 5947W        W71207  33.388  18.221  12.618
 5948W        W71208  37.918   6.989   3.104
 5949W        W71209  39.058  20.135  11.011
 5950W        W71210   1.535  42.558  12.912
 5951W        W71211  15.763  20.596  12.888
 5952W        W71212  26.476  38.400  11.081
 5953W        W71213  13.646  14.802  13.967
 5954W        W71214  40.265  18.565  12.945
 5955W        W71215  43.042  13.598   0.894
 5956W        W71216  10.100  13.095  13.083
 5957W        W71217   4.669   9.171  11.162
 5958W        W71218  21.229  16.252  11.990
 5959W        W71219   6.681   0.719   2.310
 5960W        W71220  38.975  18.967  13.571
 5961W        W71221  30.568  34.036   0.680
 5962W        W71222  21.083  42.950   0.748
 5963W        W71223  38.031  32.190   3.283
 5964W        W71224  21.904  28.455   0.745
 5965W        W71225  42.911  12.631  14.366
 5966W        W71226  21.663  17.320   2.743
 5967W        W71227   9.410  12.593   2.323
 5968W        W71228  28.970  11.373   2.826
 5969W        W71229  34.471  28.494  13.129
 5970W        W71230  44.098   8.331  11.631
 5971W        W71231   8.681  22.893   4.900
 5972W        W71232  34.967  39.806   4.630
 5973W        W71233  11.734  44.853  10.851
 5974W        W71234   5.640  35.505   2.333
 5975W        W71235  27.971  14.618   2.044
 5976W        W71236   9.899   0.042  13.875
 5977W        W71237  34.442   6.635   1.463
 5978W        W71238  34.020  31.068   0.772
 5979W        W71239   5.414   6.434  12.489
 5980W        W71240  31.890   4.250   0.063
 5981W        W71241  28.073  14.245   4.626
 5982W        W71242  27.154  41.828   4.075
 5983W        W71243  10.585  31.995  11.084
 5984W        W71244   4.135  22.447   1.189
 5985W        W71245  10.382  22.709  13.467
 5986W        W71246  28.459  31.584  10.790
 5987W        W71247  13.338   3.062  10.345
 5988W        W71248  34.424  13.463  14.882
 5989W        W71249  24.986   9.253   3.605
 5990W        W71250  42.429   4.892   3.899
 5991W        W71251  32.519  19.283   1.595
 5992W        W71252  37.031   3.149  10.722
 5993W        W71253   1.669  37.127  12.948
 5994W        W71254  13.762  16.344   1.310
 5995W        W71255  43.957  39.474  14.849
 5996W        W71256  17.565  38.434   1.727
 5997W        W71257  41.022   2.531   5.043
 5998W        W71258  32.668   5.988   4.512
 5999W        W71259  35.485   9.796  10.401
 6000W        W71260  37.511  31.040  13.472
 6001W        W71261  43.334  25.119   0.161
 6002W        W71262  44.815  16.016   2.673
 6003W        W71263  22.800  38.064   4.626
 6004W        W71264  44.018  35.211   2.404
 6005W        W71265  24.067  14.111   0.545
 6006W        W71266  13.161  17.314  14.906
 6007W        W71267  30.979  14.521   3.785
 6008W        W71268  22.674  36.426   0.843
 6009W        W71269  40.269  33.983   4.983
 6010W        W71270   0.100  15.399   2.294
 6011W        W71271  29.037  37.370  12.267
 6012W        W71272  11.391  18.801   3.676
 6013W        W71273   4.754  35.572  13.567
 6014W        W71274   8.283  43.951   1.444
 6015W        W71275  23.545  31.398   1.222
 6016W        W71276   0.470  44.408   4.072
 6017W        W71277   2.474  35.544   0.876
 6018W        W71278   1.687  15.167   0.951
 6019W        W71279   4.493  28.932  12.453
 6020W        W71280  15.838  28.180   4.145
 6021W        W71281   6.451   5.813  14.061
 6022W        W71282  41.734  33.992   4.623
 6023W        W71283  32.348  25.089   4.057
 6024W        W71284  33.028  42.665  12.488
 6025W        W71285  26.624   8.324   2.843
 6026W        W71286  44.292  14.879  13.885
 6027W        W71287  40.739  25.389   3.145
 6028W        W71288  37.596  16.279  14.025
 6029W        W71289  42.930  24.328  14.351
 6030W        W71290   2.285  10.221   0.208
 6031W        W71291  17.592   6.640   1.035
 6032W        W71292  21.666  13.882   1.326
 6033W        W71293  40.097  44.439  12.928
 6034W        W71294  40.590  40.506  14.395
 6035W        W71295  23.480   1.228  13.617
 6036W        W71296  37.442   7.782  10.671
 6037W        W71297   2.890  42.418  13.193
 6038W        W71298   0.191  24.523   3.199
 6039W        W71299   2.571   6.411  12.790
 6040W        W71300  43.530  37.783   0.805
 6041W        W71301  22.467   8.657  13.373
 6042W        W71302   0.452   8.670   1.414
 6043W        W71303  31.592   2.921  11.962
 6044W        W71304   0.181   2.742  10.728
 6045W        W71305  32.851  27.498  11.993
 6046W        W71306  29.121  27.090   1.058
 6047W        W71307  14.293  40.910   4.131
 6048W        W71308   2.338   9.879   4.132
 6049W        W71309  38.070   5.938   0.281
 6050W        W71310   0.294  38.654   2.278
 6051W        W71311  33.418  37.031  12.553
 6052W        W71312  30.270  13.010   3.699
 6053W        W71313   6.448  36.420  13.493
 6054W        W71314  43.264   1.074   0.720
 6055W        W71315  18.557  33.100  11.982
 6056W        W71316  35.689  14.934   2.325
 6057W        W71317  27.627  22.544   2.260
 6058W        W71318  12.093   8.621   0.975
 6059W        W71319   4.926  10.878   3.278
 6060W        W71320  34.000  35.913  11.116
 6061W        W71321   9.774   0.363   0.792
 6062W        W71322  37.422  15.039   3.928
 6063W        W71323   9.637  30.111  11.657
 6064W        W71324  25.649  31.950  11.936
 6065W        W71325  17.249   3.863   4.540
 6066W        W71326  11.624  16.141  10.637
 6067W        W71327  37.986   4.315   5.068
 6068W        W71328  14.288  43.029   5.143
 6069W        W71329  28.068   0.418  14.547
 6070W        W71330  14.633  20.542   3.737
 6071W        W71331  18.713  22.273  14.328
 6072W        W71332  39.298  38.812   2.742
 6073W        W71333  26.453  31.060  13.987
 6074W        W71334  38.565  15.256   0.420
 6075W        W71335  32.713   2.095   2.122
 6076W        W71336  23.189  15.246   4.089
 6077W        W71337  31.845   0.477   3.220
 6078W        W71338  41.766  35.375  14.263
 6079W        W71339  42.562   4.264   2.575
 6080W        W71340  10.485  18.723  14.523
 6081W        W71341  15.270  43.971  11.655
 6082W        W71342  12.827  40.585   0.919
 6083W        W71343  12.889   9.672   2.608
 6084W        W71344  37.464  17.552  10.572
 6085W        W71345  40.593  11.561   4.082
 6086W        W71346  33.532  37.051   2.851
 6087W        W71347  15.133  42.442  14.739
 6088W        W71348  39.249   6.145  10.537
 6089W        W71349   8.289   6.741  14.933
 6090W        W71350   8.799   1.073   1.947
 6091W        W71351  20.611  13.269   3.266
 6092W        W71352  21.965  11.634  13.451
 6093W        W71353  41.426  13.406  12.160
 6094W        W71354   5.459   2.340  14.976
 6095W        W71355   9.818  35.561   3.155
 6096W        W71356  44.402  31.247  13.671
 6097W        W71357  32.698  16.885   2.685
 6098W        W71358   8.271  34.184   4.748
 6099W        W71359  20.303  10.677  12.535
 6100W        W71360  30.374   0.841  10.473
 6101W        W71361  22.281  13.345   2.285
 6102W        W71362  10.163  32.929   1.847
 6103W        W71363  14.137  10.216   1.057
 6104W        W71364  29.152  44.651   0.208
 6105W        W71365  30.259   7.632   3.496
 6106W        W71366  39.414  37.069  11.242
 6107W        W71367  25.503   0.124  13.342
 6108W        W71368  42.853  40.311  12.664
 6109W        W71369  44.571  33.941  12.349
 6110W        W71370  18.928   3.497  10.737
 6111W        W71371  33.867  28.908  12.335
 6112W        W71372   4.110  12.266   0.958
 6113W        W71373  21.847  43.500   3.303
 6114W        W71374  28.994  34.495   4.408
 6115W        W71375   2.462   9.871   2.845
 6116W        W71376  42.305   9.223  13.315
 6117W        W71377  12.602  10.835   0.336
 6118W        W71378  37.546  13.586  12.561
 6119W        W71379  22.028  11.366  12.493
 6120W        W71380   5.713  30.993   1.309
 6121W        W71381  16.815  11.287  12.302
 6122W        W71382  13.246  39.315  12.974
 6123W        W71383  27.501   1.170  11.133
 6124W        W71384  31.281  32.054   2.309
 6125W        W71385  37.407  43.276  10.628
 6126W        W71386  38.818  27.880   3.106
 6127W        W71387  23.757  34.614  11.450
 6128W        W71388  36.948   4.026  14.860
 6129W        W71389   3.395   9.203   1.400
 6130W        W71390   4.959  40.552  10.651
 6131W        W71391   1.444  22.665  12.892
 6132W        W71392   3.308  30.696  12.349
 6133W        W71393  10.252   0.929   3.365
 6134W        W71394  36.892  10.754   1.378
 6135W        W71395  40.312  36.957  14.669
 6136W        W71396  27.732  33.693  14.483
 6137W        W71397  19.289   1.713  14.371
 6138W        W71398  28.211   4.776  11.178
 6139W        W71399  42.609  28.035  11.470
 6140W        W71400  36.185  12.220   0.370
 6141W        W71401  42.824  31.589   2.741
 6142W        W71402  15.436   9.702   3.781
 6143W        W71403  22.477   8.715   3.841
 6144W        W71404  16.726   9.707   2.254
 6145W        W71405  37.460   1.166   2.782
 6146W        W71406  27.344   6.661   0.096
 6147W        W71407   8.697  15.681   2.799
 6148W        W71408  20.594  31.877   4.224
 6149W        W71409  28.130  28.607  12.923
 6150W        W71410  22.050   7.817  13.565
 6151W        W71411  13.418  10.340   0.291
 6152W        W71412  44.898  26.062   1.907
 6153W        W71413  30.449  25.790   0.888
 6154W        W71414  15.026  29.798  11.925
 6155W        W71415  38.919  15.113  12.916
 6156W        W71416  38.468  27.669  14.910
 6157W        W71417  14.138   4.358  10.409
 6158W        W71418  15.645  12.550   3.462
 6159W        W71419  18.625  14.182   0.794
 6160W        W71420   4.891  26.596   2.689
 6161W        W71421  39.873  25.641  14.463
 6162W        W71422  38.833  14.123   3.674
 6163W        W71423   4.932  35.384   0.035
 6164W        W71424  43.648  34.411   0.572
 6165W        W71425  26.170  31.363  14.297
 6166W        W71426  17.433  32.886  11.151
 6167W        W71427  22.920  41.401   4.589
 6168W        W71428   4.464   6.045   0.757
 6169W        W71429  30.842   3.364  12.486
 6170W        W71430   0.072  17.098   4.186
 6171W        W71431   5.786  14.377  13.449
 6172W        W71432  40.111  27.975   4.628
 6173W        W71433   2.363  27.067  12.562
 6174W        W71434  28.980  42.308   2.252
 6175W        W71435  18.246   2.234   0.966
 6176W        W71436   1.923   2.963  13.545
 6177W        W71437   6.675  11.498   4.128
 6178W        W71438  21.706  26.113  14.922
 6179W        W71439  41.196  33.994   2.754
 6180W        W71440  28.042  22.014  14.212
 6181W        W71441  11.113  36.683   3.873
 6182W        W71442   9.713  14.787  11.670
 6183W        W71443   7.317  26.230  10.984
 6184W        W71444  21.446  42.336   3.811
 6185W        W71445  19.347  12.085   1.734
 6186W        W71446  37.512  26.210  11.217
 6187W        W71447  15.243  32.809  13.512
 6188W        W71448  41.767  13.288   4.172
 6189W        W71449  17.989  38.124   2.238
 6190W        W71450  25.270  32.409  12.560
 6191W        W71451  12.310  34.535  10.477
 6192W        W71452  22.402  10.097  14.403
 6193W        W71453  11.451   1.347  12.120
 6194W        W71454  13.975  27.021   0.471
 6195W        W71455  14.102  21.432   3.725
 6196W        W71456   4.352  20.540   0.309
 6197W        W71457   5.883  15.318  11.580
 6198W        W71458  17.012  35.157  13.856
 6199W        W71459   3.504  38.868  11.514
 6200W        W71460   7.346  37.733   0.985
 6201W        W71461   3.343  17.665   1.686
 6202W        W71462   2.013   8.252  13.945
 6203W        W71463  43.287   4.972  14.907
 6204W        W71464  34.384  14.572   4.023
 6205W        W71465   0.944  12.720  12.885
 6206W        W71466  16.917  29.438  11.999
 6207W        W71467  22.037  41.110   1.667
 6208W        W71468  38.447  37.105  13.535
 6209W        W71469  20.490  29.109   3.682
 6210W        W71470   9.837  16.726  11.643
 6211W        W71471  38.783  13.635   4.338
 6212W        W71472  13.741   3.231   3.144
 6213W        W71473  23.535  31.396   0.680
 6214W        W71474  16.109  33.676  13.955
 6215W        W71475  21.663  34.075  13.004
 6216W        W71476  42.656   6.505  13.463
 6217W        W71477   0.545  12.044  14.392
 6218W        W71478  31.352  19.645  10.621
 6219W        W71479  16.551  25.011  11.459
 6220W        W71480   4.694  18.997   0.053
 6221W        W71481   0.434  22.183  11.426
 6222W        W71482  44.856   7.753   3.979
 6223W        W71483  37.933  19.237   0.561
 6224W        W71484  22.479   8.640  10.642
 6225W        W71485   4.560  34.965  14.469
 6226W        W71486   0.261  24.191   0.042
 6227W        W71487  43.571  40.923  14.077
 6228W        W71488  17.242  33.663   0.256
 6229W        W71489  31.207  27.595   1.332
 6230W        W71490   3.409  22.679  14.288
 6231W        W71491   6.418  37.163   2.788
 6232W        W71492  29.615   9.187  14.931
 6233W        W71493  19.746  30.631  13.080
 6234W        W71494  40.969  19.251  10.714
 6235W        W71495  37.324   0.925   0.908
 6236W        W71496  39.441  39.987   2.401
 6237W        W71497  17.159  11.339   1.344
 6238W        W71498  29.431  26.464   2.689
 6239W        W71499  24.224   9.823   1.633
 6240W        W71500  29.496  33.987   2.261
 6241W        W71501   6.839  18.942  13.339
 6242W        W71502  12.384   7.401  12.624
 6243W        W71503  31.879  23.101   4.877
 6244W        W71504  30.010  38.864  12.135
 6245W        W71505  14.860   2.619   1.363
 6246W        W71506  39.323   7.877  14.431
 6247W        W71507   0.302  19.835   0.234
 6248W        W71508  30.017  43.680   2.225
 6249W        W71509  42.270   8.833   3.279
 6250W        W71510  38.372  35.528   2.645
 6251W        W71511  14.834  39.897   1.436
 6252W        W71512   5.958  21.668  14.423
 6253W        W71513  27.515   5.736   2.176
 6254W        W71514  33.224   9.343   0.248
 6255W        W71515  39.921  35.131   1.235
 6256W        W71516   7.865  16.090   2.554
 6257W        W71517  12.201   5.182   1.757
 6258W        W71518  12.221   8.395   3.343
 6259W        W71519  18.294  24.292   1.775
 6260W        W71520   0.600  12.690  14.790
 6261W        W71521  44.711  26.317  10.937
 6262W        W71522  40.671  20.668  11.889
 6263W        W71523  41.413  43.947  12.073
 6264W        W71524  30.201  27.614   3.627
 6265W        W71525  10.434  27.113   2.455
 6266W        W71526  39.738  20.571   3.627
 6267W        W71527  27.686   5.101   3.637
 6268W        W71528  24.094  14.816   2.582
 6269W        W71529  44.884  13.217  13.582
 6270W        W71530  16.772  14.364   2.275
 6271W        W71531  42.449  18.701  12.110
 6272W        W71532  30.001  28.464   3.251
 6273W        W71533  35.709  31.114  11.098
 6274W        W71534  44.241   3.482  12.337
 6275W        W71535  11.950  14.286   0.261
 6276W        W71536  19.638  31.492   1.434
 6277W        W71537  19.490  32.578  14.363
 6278W        W71538  44.333   6.058   5.223
 6279W        W71539  42.029  12.370  13.868
 6280W        W71540   8.654  36.448  11.110
 6281W        W71541  35.698  32.030  14.713
 6282W        W71542  34.540  10.220   1.250
 6283W        W71543  42.385  20.172  13.098
 6284W        W71544  36.474  16.460   2.861
 6285W        W71545  21.362  17.184   2.208
 6286W        W71546   3.765  23.509   0.018
 6287W        W71547  30.510  29.181  10.414
 6288W        W71548  43.296  22.024  14.875
 6289W        W71549  33.655   4.953  12.893
 6290W        W71550  41.741  32.907   2.200
 6291W        W71551  19.777  15.683  14.320
 6292W        W71552   4.265  19.351   2.141
 6293W        W71553  14.540  37.476  14.815
 6294W        W71554   3.948  15.773   0.674
 6295W        W71555  40.906  38.989   5.023
 6296W        W71556   4.431  29.014  10.681
 6297W        W71557  28.040  13.854  11.174
 6298W        W71558  35.006  13.830  12.396
 6299W        W71559  12.148   4.701   2.675
 6300W        W71560   7.671  16.064  11.103
 6301W        W71561  38.635   4.781  11.120
 6302W        W71562   5.796  42.726  13.088
 6303W        W71563  35.997  38.002   4.159
 6304W        W71564  26.416  10.157  13.135
 6305W        W71565  32.442  38.518   4.762
 6306W        W71566  34.074   3.353   9.954
 6307W        W71567  41.894   3.775   1.244
 6308W        W71568   6.993  19.218   1.747
 6309W        W71569  36.027  23.327  11.697
 6310W        W71570  13.498  32.993   4.846
 6311W        W71571  42.493  44.467   0.849
 6312W        W71572   2.942  26.178   2.159
 6313W        W71573  39.939  41.077  10.778
 6314W        W71574  22.400   3.322  12.555
 6315W        W71575  23.653   7.355  11.625
 6316W        W71576   0.838  12.591  12.016
 6317W        W71577  39.291  39.511  11.615
 6318W        W71578   3.145  25.162   0.381
 6319W        W71579  34.851  21.791   1.346
 6320W        W71580  33.857  14.470  12.952
 6321W        W71581   1.565  36.505   4.477
 6322W        W71582  22.035   2.723  13.979
 6323W        W71583  17.839  18.537   3.185
 6324W        W71584  26.134  15.257   4.138
 6325W        W71585  32.133  11.479  11.266
 6326W        W71586  42.380  28.040  11.928
 6327W        W71587  31.067  34.848   2.652
 6328W        W71588  26.234   1.533  12.578
 6329W        W71589  37.316  39.447  14.935
 6330W        W71590   3.456   6.425  12.349
 6331W        W71591  13.060  22.512   2.670
 6332W        W71592   2.870  27.023   0.786
 6333W        W71593  28.537   1.701   0.381
 6334W        W71594  39.618   1.740  11.572
 6335W        W71595  15.692  25.454  10.284
 6336W        W71596   1.269   7.739  13.871
 6337W        W71597  37.326  14.193   3.807
 6338W        W71598  26.452  30.014  12.694
 6339W        W71599  34.500  13.941  10.653
 6340W        W71600  25.136   0.817  12.367
 6341W        W71601  11.648  12.679   2.195
 6342W        W71602   7.206   9.920   1.742
 6343W        W71603  42.490  40.007   4.159
 6344W        W71604  30.908  40.981   1.403
 6345W        W71605   0.589  13.091   4.746
 6346W        W71606  10.859  39.536  10.509
 6347W        W71607  11.922  25.602  14.891
 6348W        W71608  20.543  34.523  14.346
 6349W        W71609  37.510  30.995  11.643
 6350W        W71610   5.724  14.325  12.521
 6351W        W71611   0.022  38.309   2.716
 6352W        W71612  11.455  42.055  11.689
 6353W        W71613  34.977  30.864   3.696
 6354W        W71614  16.738  28.026  11.897
 6355W        W71615  26.364  40.480  12.558
 6356W        W71616  20.622  20.640  11.408
 6357W        W71617  16.307  35.701   2.428
 6358W        W71618  23.084  33.446  11.636
 6359W        W71619  18.165  37.959   4.194
 6360W        W71620  30.747  38.445   2.334
 6361W        W71621  27.248  21.211  13.505
 6362W        W71622  10.741   5.774  13.546
 6363W        W71623  33.122   3.912  11.233
 6364W        W71624  27.511  26.692  13.790
 6365W        W71625  25.224   8.988  14.697
 6366W        W71626  28.616   6.441   3.200
 6367W        W71627   4.418  21.997   0.279
 6368W        W71628  28.864  27.440  14.784
 6369W        W71629  34.008  33.816   0.783
 6370W        W71630  37.575  16.678   0.295
 6371W        W71631  39.526  19.397  11.348
 6372W        W71632  33.840  34.023  11.411
 6373W        W71633  12.765   8.695   4.135
 6374W        W71634  26.510  14.559  13.069
 6375W        W71635   9.743   1.803  14.031
 6376W        W71636  21.036  37.379   2.998
 6377W        W71637  10.263  33.448  14.993
 6378W        W71638  20.264  19.223   4.050
 6379W        W71639  15.299  38.867   2.936
 6380W        W71640   2.971  24.946   0.821
 6381W        W71641  26.546  42.781   4.602
 6382W        W71642  36.642  43.717   2.741
 6383W        W71643  44.568  25.436   5.074
 6384W        W71644  31.505  31.119  11.845
 6385W        W71645  19.189  23.269  11.035
 6386W        W71646  14.138  15.550   2.183
 6387W        W71647   4.378  44.471  14.942
 6388W        W71648  16.610  32.520   2.899
 6389W        W71649  17.010  19.235  13.795
 6390W        W71650  37.526   4.789  11.603
 6391W        W71651  38.716  24.691   3.604
 6392W        W71652  11.719  12.192   4.495
 6393W        W71653  35.870  25.650   1.022
 6394W        W71654  17.275   9.824   1.207
 6395W        W71655  14.237  36.386   4.284
 6396W        W71656  25.724  21.694  10.905
 6397W        W71657  18.788  25.957   3.143
 6398W        W71658   7.882  33.492  11.079
 6399W        W71659  12.410  18.032   3.739
 6400W        W71660   7.927  25.114   3.547
 6401W        W71661   9.089   7.084  12.089
 6402W        W71662  42.048  22.040   4.408
 6403W        W71663  11.187  16.796  11.961
 6404W        W71664   9.138   5.361  14.769
 6405W        W71665  37.586  32.460   3.752
 6406W        W71666  36.512  39.019  13.355
 6407W        W71667   7.396  14.420   3.193
 6408W        W71668  30.398  40.983   1.301
 6409W        W71669   9.848  15.375   3.758
 6410W        W71670  11.341  21.501   2.665
 6411W        W71671   9.117  39.049   1.866
 6412W        W71672  36.461  30.122   1.805
 6413W        W71673  15.009   2.311   4.490
 6414W        W71674  18.481   0.758   2.240
 6415W        W71675  41.015  40.701   1.170
 6416W        W71676  38.789   3.207  14.230
 6417W        W71677   5.983  43.910  11.290
 6418W        W71678  35.877  38.523   3.407
 6419W        W71679   0.825   8.187   3.443
 6420W        W71680   9.330  36.028  10.751
 6421W        W71681  13.505  11.215   0.458
 6422W        W71682  31.831  24.863  13.733
 6423W        W71683  43.002  31.408   1.819
 6424W        W71684  41.684  42.928   4.668
 6425W        W71685  34.023   1.758   2.355
 6426W        W71686   0.945  27.827  13.056
 6427W        W71687  42.555  41.426  13.002
 6428W        W71688   1.450  36.366  11.374
 6429W        W71689  43.686  36.855  13.032
 6430W        W71690  33.075   6.130  11.498
 6431W        W71691  21.015  11.293  12.451
 6432W        W71692  15.116  13.689  11.016
 6433W        W71693  25.735  24.164  13.765
 6434W        W71694  20.095  13.832  12.186
 6435W        W71695  27.049   4.626   4.768
 6436W        W71696  44.408  38.744   0.752
 6437W        W71697  32.442  18.949   1.207
 6438W        W71698  22.503  27.926   5.052
 6439W        W71699   1.377  34.472  13.850
 6440W        W71700  36.590  38.834  14.847
 6441W        W71701  41.810   9.795  11.256
 6442W        W71702  15.639  39.876   2.857
 6443W        W71703  20.562   8.421   0.427
 6444W        W71704  10.627  14.529   0.202
 6445W        W71705  10.415  20.660   4.503
 6446W        W71706  21.145  27.900   3.353
 6447W        W71707  38.300  43.309   1.881
 6448W        W71708  36.968  19.646   2.789
 6449W        W71709  40.347  38.464   2.197
 6450W        W71710   0.512  34.634  11.469
 6451W        W71711  20.670   0.527  14.901
 6452W        W71712  21.689  28.997   2.250
 6453W        W71713  29.063   2.724  14.034
 6454W        W71714  37.984  12.842  11.763
 6455W        W71715  17.704  38.560   2.752
 6456W        W71716  30.953  35.109  11.307
 6457W        W71717  34.372   2.418   4.583
 6458W        W71718  16.634  26.448  14.360
 6459W        W71719  30.812  10.168   4.639
 6460W        W71720  42.328  21.801  13.072
 6461W        W71721  26.102   8.276  10.653
 6462W        W71722  21.579  19.260  11.523
 6463W        W71723  36.858  18.560   3.799
 6464W        W71724  10.760  15.527  13.104
 6465W        W71725  19.561  12.463   2.805
 6466W        W71726  17.991  28.357  11.048
 6467W        W71727  33.177  27.616  14.842
 6468W        W71728  35.169  44.573   2.209
 6469W        W71729  32.964  28.436  11.038
 6470W        W71730  24.713   3.105  12.248
 6471W        W71731  34.416  19.988  14.368
 6472W        W71732  17.240  24.994   4.585
 6473W        W71733  29.389  32.059  11.882
 6474W        W71734  43.048  14.936  13.851
 6475W        W71735   3.238  15.656  13.412
 6476W        W71736  42.482  41.940   4.179
 6477W        W71737  43.294  31.461   2.872
 6478W        W71738  33.294  44.265   2.718
 6479W        W71739   4.413  37.476   1.397
 6480W        W71740   5.152  29.026  12.914
 6481W        W71741  32.925  33.133  14.588
 6482W        W71742  10.165  17.165  12.552
 6483W        W71743  19.805  31.985  14.747
 6484W        W71744  27.031  17.127   4.427
 6485W        W71745   0.776  43.191  13.023
 6486W        W71746  34.499  42.293  12.864
 6487W        W71747  17.702  24.534   2.749
 6488W        W71748  36.188  17.957   4.160
 6489W        W71749  44.314  13.265  12.916
 6490W        W71750  26.292  27.313   0.710
 6491W        W71751  18.696   2.334   2.644
 6492W        W71752  27.051   1.654  13.822
 6493W        W71753  17.218  24.164  14.064
 6494W        W71754  34.763  35.955  10.856
 6495W        W71755  30.937   9.265  10.865
 6496W        W71756  25.939   7.356   0.022
 6497W        W71757  26.740  20.441  12.359
 6498W        W71758  40.934  27.090  13.378
 6499W        W71759  39.992  35.818  11.953
 6500W        W71760   3.767  27.633   3.229
 6501W        W71761  15.579   6.648  13.471
 6502W        W71762  26.059  14.758  13.897
 6503W        W71763   3.225   1.739   4.279
 6504W        W71764  21.331  26.973   4.278
 6505W        W71765  44.109  10.158  12.481
 6506W        W71766  19.279  16.294  12.965
 6507W        W71767  16.112   7.656   2.131
 6508W        W71768   8.980  30.065   3.627
 6509W        W71769  13.983  17.174   3.608
 6510W        W71770  28.183  27.989  14.912
 6511W        W71771  40.395   7.451   3.708
 6512W        W71772   5.806  39.272   3.553
 6513W        W71773  23.987  10.639  11.490
 6514W        W71774   7.639   5.662  14.695
 6515W        W71775  25.980  22.809   2.769
 6516W        W71776  12.152  17.041  11.460
 6517W        W71777   1.547  27.633  13.888
 6518W        W71778  28.262  17.403  12.651
 6519W        W71779   6.152  16.078  11.180
 6520W        W71780  16.528  28.621  14.883
 6521W        W71781  15.344  37.991  14.140
 6522W        W71782  10.571  30.867   1.461
 6523W        W71783  25.972  39.751   2.079
 6524W        W71784   9.440  34.476   3.353
 6525W        W71785  10.742  26.809   1.723
 6526W        W71786  26.668  35.128  11.096
 6527W        W71787  32.127  27.024   1.404
 6528W        W71788   1.964  41.273  12.020
 6529W        W71789  28.132  13.701   3.896
 6530W        W71790   2.876  39.098  14.362
 6531W        W71791  40.403  14.615   4.119
 6532W        W71792  15.345  33.101  11.210
 6533W        W71793  35.014  23.545   1.625
 6534W        W71794   4.491  42.645  11.569
 6535W        W71795  22.583  10.635  13.751
 6536W        W71796  28.125  26.765   0.731
 6537W        W71797   6.996   8.740   3.726
 6538W        W71798  16.839   8.894   0.949
 6539W        W71799  40.464  20.817   1.919
 6540W        W71800   2.426  29.517   1.699
 6541W        W71801   5.272   4.920  10.667
 6542W        W71802   5.171  37.841   3.370
 6543W        W71803  44.978  20.725   1.290
 6544W        W71804   5.965  21.937  13.485
 6545W        W71805  13.971  10.340   0.344
 6546W        W71806  37.982  36.594   2.299
 6547W        W71807  13.254  24.190  13.620
 6548W        W71808   5.185   3.444  10.629
 6549W        W71809   5.419   7.894  11.937
 6550W        W71810  15.824   8.295   1.963
 6551W        W71811  26.914   5.639   4.542
 6552W        W71812  28.101   3.558   1.368
 6553W        W71813  44.479  22.234  11.559
 6554W        W71814  41.412  37.732  13.731
 6555W        W71815  35.012  27.044   2.546
 6556W        W71816  24.543  12.238   0.700
 6557W        W71817  24.110  15.237   0.355
 6558W        W71818   1.930  30.337  14.861
 6559W        W71819  37.368  13.316   3.757
 6560W        W71820  41.915   7.497  12.661
 6561W        W71821  16.617  22.506   0.049
 6562W        W71822  17.374  23.245   1.002
 6563W        W71823  26.645  38.092  10.686
 6564W        W71824  39.984  30.909  10.916
 6565W        W71825  39.735  31.132   4.540
 6566W        W71826  29.960  43.500  13.991
 6567W        W71827  10.287  37.369   9.747
 6568W        W71828  17.716  34.192  12.430
 6569W        W71829  40.550  26.173   0.442
 6570W        W71830   6.016  42.630  11.621
 6571W        W71831   2.273  37.342   4.657
 6572W        W71832  41.342  34.517   0.389
 6573W        W71833  44.341  24.162   1.846
 6574W        W71834  26.581  22.634  13.655
 6575W        W71835  19.911  19.555   4.186
 6576W        W71836   6.538  14.501   3.722
 6577W        W71837  38.797  11.033  11.159
 6578W        W71838  30.996  14.090  13.502
 6579W        W71839   3.163  17.539  11.104
 6580W        W71840  18.756  17.160   3.647
 6581W        W71841   9.613  25.823   0.290
 6582W        W71842   1.675  29.247  11.854
 6583W        W71843  38.973  40.043   4.561
 6584W        W71844   2.027  37.565   2.798
 6585W        W71845  25.111  11.534   2.207
 6586W        W71846   8.567  24.633   5.387
 6587W        W71847  29.402  25.552  10.570
 6588W        W71848  37.438   6.759  10.726
 6589W        W71849  24.622  21.817   2.802
 6590W        W71850  18.024  26.058   1.897
 6591W        W71851  16.270  41.877  10.854
 6592W        W71852  19.459   7.244   4.229
 6593W        W71853  12.724   3.452  10.725
 6594W        W71854  44.484  43.358  14.763
 6595W        W71855  15.784  29.405  11.159
 6596W        W71856  18.672   9.812   1.886
 6597W        W71857  10.694  44.526  11.613
 6598W        W71858  18.155  26.977  12.864
 6599W        W71859   3.243   5.929   4.864
 6600W        W71860  26.165  21.852  10.163
 6601W        W71861   3.983  29.955  13.541
 6602W        W71862  44.478  23.076  12.557
 6603W        W71863  22.658  12.904  14.352
 6604W        W71864  41.588  42.011  12.310
 6605W        W71865  30.696  44.259   4.967
 6606W        W71866  36.471  31.586   0.479
 6607W        W71867   3.425  24.533  12.870
 6608W        W71868  23.633  26.130  11.620
 6609W        W71869  27.609  13.286  10.740
 6610W        W71870  21.732  30.922  13.815
 6611W        W71871   2.781  22.101   0.358
 6612W        W71872  26.473  27.107  11.577
 6613W        W71873   3.012  11.382  10.936
 6614W        W71874  15.572   6.667  13.978
 6615W        W71875   5.267  36.936   0.202
 6616W        W71876   8.807  36.010  12.489
 6617W        W71877  15.676  36.420  11.143
 6618W        W71878   2.273  14.298   4.506
 6619W        W71879  13.426  14.018   0.393
 6620W        W71880  33.095   3.233   3.330
 6621W        W71881  17.112  41.911  11.285
 6622W        W71882  27.836  37.104   4.162
 6623W        W71883  20.721  43.429  14.870
 6624W        W71884  41.384   3.967   5.115
 6625W        W71885   6.399  30.135  14.962
 6626W        W71886   7.825  37.503  11.932
 6627W        W71887   3.406  32.996   3.092
 6628W        W71888  29.378  22.126   2.320
 6629W        W71889   0.695  34.442  10.644
 6630W        W71890  16.648   4.677   4.794
 6631W        W71891  14.285   9.801  14.711
 6632W        W71892  12.554  16.605   3.656
 6633W        W71893  14.962  10.948   5.000
 6634W        W71894   9.677  16.549  10.684
 6635W        W71895   2.575  42.018   2.304
 6636W        W71896  41.773  19.250   4.244
 6637W        W71897  32.419   9.919   4.092
 6638W        W71898  14.167  33.346  14.252
 6639W        W71899   3.427  39.057   9.946
 6640W        W71900   5.985  22.249   1.836
 6641W        W71901  20.557  23.483   5.043
 6642W        W71902  30.163  14.896   4.313
 6643W        W71903  24.054  25.583   3.097
 6644W        W71904  24.168   6.780  12.022
 6645W        W71905  18.796  27.871  11.170
 6646W        W71906  32.108  19.910  14.635
 6647W        W71907  28.979  34.023  12.396
 6648W        W71908   6.434  26.256  14.243
 6649W        W71909  21.234   5.668   3.373
 6650W        W71910  24.989  25.100   4.076
 6651W        W71911  14.817   0.710   4.291
 6652W        W71912  16.640   1.996   0.808
 6653W        W71913  12.801  39.355  12.416
 6654W        W71914  13.373  36.407   0.836
 6655W        W71915   8.425   5.716  11.603
 6656W        W71916  32.433  21.088  10.669
 6657W        W71917  44.801  13.739  14.350
 6658W        W71918   3.385  18.596   0.294
 6659W        W71919  33.458  38.505   3.151
 6660W        W71920   2.378  39.128  10.541
 6661W        W71921  24.023   7.664  14.231
 6662W        W71922   7.461  25.390   4.520
 6663W        W71923  17.255  28.628  10.747
 6664W        W71924  25.996  32.508  11.907
 6665W        W71925  23.656  24.777   1.484
 6666W        W71926  43.913  38.002  12.101
 6667W        W71927  34.007  37.700  11.746
 6668W        W71928  15.519  11.843   1.204
 6669W        W71929   2.504   5.827   1.944
 6670W        W71930   0.046  42.136  11.655
 6671W        W71931  40.545   5.856  12.003
 6672W        W71932  43.962   5.460   1.985
 6673W        W71933  16.893  37.673   4.232
 6674W        W71934   4.142  44.241  14.514
 6675W        W71935  35.448  18.015  11.654
 6676W        W71936  12.337  33.823   2.621
 6677W        W71937   9.214   2.965  14.324
 6678W        W71938   5.110   0.589  11.967
 6679W        W71939  42.802  38.541   2.638
 6680W        W71940  41.852  24.033  14.131
 6681W        W71941  26.052  19.843   5.173
 6682W        W71942  24.022  25.028   4.005
 6683W        W71943   9.874  32.898  13.992
 6684W        W71944  19.726  12.150  13.830
 6685W        W71945  44.443  12.293  10.696
 6686W        W71946  36.061  13.766  11.213
 6687W        W71947   1.005  23.219   3.419
 6688W        W71948  24.952   5.212  11.786
 6689W        W71949  20.864  43.400  11.919
 6690W        W71950  15.232  16.729  13.132
 6691W        W71951  15.558   0.529   3.279
 6692W        W71952   1.476  35.441   1.007
 6693W        W71953  33.136  19.662  13.286
 6694W        W71954   2.704  18.524  14.305
 6695W        W71955  28.174  27.891  11.054
 6696W        W71956  41.275  35.115  14.270
 6697W        W71957  39.317   4.549   5.020
 6698W        W71958   0.899  42.351  13.514
 6699W        W71959   1.336   5.931  10.563
 6700W        W71960   2.199  11.897  11.796
 6701W        W71961  41.050   0.618  11.263
 6702W        W71962  16.603  24.579   0.322
 6703W        W71963  30.643  31.395   0.513
 6704W        W71964  43.314  25.604   3.795
 6705W        W71965  25.475  39.143   3.364
 6706W        W71966  31.583   0.076  13.333
 6707W        W71967   7.195  26.126   4.084
 6708W        W71968   5.665   6.731   0.374
 6709W        W71969  36.414  11.515  12.495
 6710W        W71970   5.743   9.485  13.621
 6711W        W71971  39.453   9.879   1.170
 6712W        W71972  40.054  15.768   0.693
 6713W        W71973   7.381  16.932   2.855
 6714W        W71974  32.895  32.712  13.472
 6715W        W71975  34.988  35.164  14.936
 6716W        W71976  24.304  16.680  12.054
 6717W        W71977  14.171  35.416   0.339
 6718W        W71978  28.085  12.440   1.057
 6719W        W71979  17.755  44.953   2.761
 6720W        W71980   8.173  19.537   3.079
 6721W        W71981   5.995  11.455   1.903
 6722W        W71982  15.680   1.028   3.133
 6723W        W71983  28.544  39.341   4.114
 6724W        W71984   3.084  31.396  11.604
 6725W        W71985  42.222  28.609   0.982
 6726W        W71986  37.130   4.288   2.654
 6727W        W71987  29.089   1.916   2.376
 6728W        W71988  35.915  27.086  13.506
 6729W        W71989  16.636   8.270  13.585
 6730W        W71990  43.866  24.050   3.225
 6731W        W71991   2.970   6.755   0.297
 6732W        W71992  42.385  25.623  12.412
 6733W        W71993  26.067   4.171  13.916
 6734W        W71994  17.463   5.295   1.498
 6735W        W71995   5.738  44.272   3.306
 6736W        W71996  14.213  12.065  12.383
 6737W        W71997   5.661   2.377   4.591
 6738W        W71998  22.299  21.802  12.020
 6739W        W71999   8.314  11.600   4.932
 6740W        W72000   1.465  24.629  13.544
 6741W        W72001   5.154  16.768  10.865
 6742W        W72002   4.760  33.501  11.705
 6743W        W72003  32.871  26.466  14.350
 6744W        W72004  25.429   6.760  12.236
 6745W        W72005   3.973  31.615  11.611
 6746W        W72006   3.180  28.843  13.475
 6747W        W72007  19.034  41.795   2.904
 6748W        W72008  11.155  25.363   0.995
 6749W        W72009  18.786  31.937   4.189
 6750W        W72010   3.251  10.886  12.311
 6751W        W72011  40.498  37.399  13.388
 6752W        W72012   6.277   2.723   1.796
 6753W        W72013  22.959  10.712  10.424
 6754W        W72014  35.317  41.374   2.864
 6755W        W72015  27.935  34.356   0.847
 6756W        W72016  22.321  33.648  13.456
 6757W        W72017  10.191  16.693  14.423
 6758W        W72018  14.789   3.969   1.763
 6759W        W72019  32.422  41.974   3.662
 6760W        W72020  32.429  29.623   0.744
 6761W        W72021  30.061  13.840   2.126
 6762W        W72022  44.894   2.274  12.331
 6763W        W72023  16.556  17.231   1.027
 6764W        W72024   9.434  10.804   3.005
 6765W        W72025  33.845  30.143   0.913
 6766W        W72026  43.933  38.797  10.608
 6767W        W72027  23.590  36.323   3.800
 6768W        W72028  18.362  21.629   5.029
 6769W        W72029   3.800  17.857  12.498
 6770W        W72030  20.408  14.055   0.303
 6771W        W72031  12.334  42.288  11.186
 6772W        W72032  18.951  42.769  14.937
 6773W        W72033  29.691   8.278   0.911
 6774W        W72034  12.882  14.711   3.412
 6775W        W72035  30.601   3.499  14.312
 6776W        W72036  10.131  15.828   4.521
 6777W        W72037   8.469  20.765  12.715
 6778W        W72038  31.467  36.913   3.745
 6779W        W72039  13.512  29.622  14.315
 6780W        W72040  39.810  18.187   0.203
 6781W        W72041   3.719  12.083   4.957
 6782W        W72042  29.182  27.225  12.118
 6783W        W72043  31.968   6.755  14.292
 6784W        W72044   0.284  35.327   2.013
 6785W        W72045  30.411  17.725   3.269
 6786W        W72046  18.283  21.116   1.175
 6787W        W72047  44.698  43.739  14.425
 6788W        W72048  31.606  44.075   1.955
 6789W        W72049  29.895  26.117   1.693
 6790W        W72050  11.032  34.430   4.893
 6791W        W72051  30.515   1.768  10.971
 6792W        W72052   6.366   6.706  13.889
 6793W        W72053  33.448   3.288   5.009
 6794W        W72054   0.621  16.515   4.544
 6795W        W72055  41.554  30.522   1.634
 6796W        W72056   7.583  37.386  11.079
 6797W        W72057   6.399  31.972  12.923
 6798W        W72058  44.494   7.764  13.315
 6799W        W72059  26.441   8.816   4.993
 6800W        W72060   4.484  37.900   2.389
 6801W        W72061  16.813  18.236   4.084
 6802W        W72062   5.522  10.359   1.752
 6803W        W72063  24.252   6.214   0.077
 6804W        W72064  25.598  18.576   0.407
 6805W        W72065  21.556  38.674  11.079
 6806W        W72066  18.764  37.880  12.639
 6807W        W72067  27.745  13.293  12.405
 6808W        W72068  10.642  35.544  12.457
 6809W        W72069  13.880  22.643   4.419
 6810W        W72070  40.239  44.533  14.359
 6811W        W72071  38.256  22.147  13.065
 6812W        W72072  35.461  28.918   0.688
 6813W        W72073  39.043  42.322   3.352
 6814W        W72074  40.924  22.660   0.949
 6815W        W72075   1.895  24.581  13.271
 6816W        W72076  42.196  35.938  13.951
 6817W        W72077  38.906  42.440   1.895
 6818W        W72078  35.971   1.177   1.738
 6819W        W72079  42.297  13.695   1.715
 6820W        W72080  22.223  18.320   4.590
 6821W        W72081   2.907   9.834  11.659
 6822W        W72082   5.675   6.026   3.300
 6823W        W72083  16.805   3.678  11.067
 6824W        W72084  18.526  37.433   3.235
 6825W        W72085   4.797  11.344  12.604
 6826W        W72086   1.461  14.325   4.219
 6827W        W72087  20.016  21.782   4.494
 6828W        W72088  32.141   1.490   3.148
 6829W        W72089   6.631  35.878   3.627
 6830W        W72090  18.180  21.075   2.112
 6831W        W72091  26.100  35.624  14.459
 6832W        W72092  42.472   5.447   4.588
 6833W        W72093  19.324   3.287   2.790
 6834W        W72094  12.650  24.471  12.607
 6835W        W72095  31.219  18.973   0.500
 6836W        W72096  36.607  10.243  12.821
 6837W        W72097  19.086  19.316   3.201
 6838W        W72098  39.136  43.441  13.482
 6839W        W72099  34.434  38.133   4.789
 6840W        W72100   0.039  13.848   3.179
 6841W        W72101  35.645  24.103  14.425
 6842W        W72102  12.305  11.500  11.575
 6843W        W72103   7.871   0.141  14.782
 6844W        W72104  35.209   0.460   4.426
 6845W        W72105  27.065  23.830   3.095
 6846W        W72106  21.197  13.039   4.748
 6847W        W72107   5.314  34.457  14.030
 6848W        W72108  44.243  13.323   3.048
 6849W        W72109  40.614  31.510  13.085
 6850W        W72110  24.646  13.153   1.794
 6851W        W72111   7.728   9.035   0.757
 6852W        W72112  34.375   7.037   3.568
 6853W        W72113  26.163  14.849   1.616
 6854W        W72114   6.389   7.762   2.216
 6855W        W72115  23.966  18.845  12.550
 6856W        W72116  19.163  38.952   5.053
 6857W        W72117  42.045   6.839  11.487
 6858W        W72118  40.315   8.191   4.600
 6859W        W72119  40.517  21.277  11.280
 6860W        W72120  26.712  27.367   1.905
 6861W        W72121  21.823  16.230   4.624
 6862W        W72122   2.251  21.141   1.385
 6863W        W72123   0.921  14.723  13.073
 6864W        W72124  27.191  32.167  11.505
 6865W        W72125  16.045   0.845   1.855
 6866W        W72126  39.750  44.320  14.757
 6867W        W72127   9.320  28.705   1.139
 6868W        W72128  33.765  36.551   5.013
 6869W        W72129  32.919  14.305   3.557
 6870W        W72130   8.874  36.771  10.748
 6871W        W72131  39.054  31.048   4.098
 6872W        W72132  30.441  31.185   2.449
 6873W        W72133  18.302  18.665  10.401
 6874W        W72134  18.566  13.856   0.400
 6875W        W72135  39.527  37.782  14.967
 6876W        W72136   5.666  17.300   3.148
 6877W        W72137  29.927  43.573   4.598
 6878W        W72138   4.644  18.054  10.683
 6879W        W72139  22.408  39.931  10.554
 6880W        W72140   0.963  15.901   1.253
 6881W        W72141  28.588  14.332  14.535
 6882W        W72142  24.490  16.106   1.382
 6883W        W72143  43.290  44.374   4.487
 6884W        W72144  10.866  14.088  11.739
 6885W        W72145   2.684  20.122  14.525
 6886W        W72146  20.958  22.652   0.841
 6887W        W72147  40.284  15.689  14.352
 6888W        W72148   8.864   7.556  11.955
 6889W        W72149  16.821  15.068   3.234
 6890W        W72150  43.305  28.023  14.879
 6891W        W72151  39.816   3.254   0.985
 6892W        W72152  30.135  18.178   2.567
 6893W        W72153  37.669  26.627   1.802
 6894W        W72154  18.087  18.112  10.259
 6895W        W72155  40.276  13.282  12.897
 6896W        W72156  27.692  35.510  12.844
 6897W        W72157   5.841  20.563   0.892
 6898W        W72158  15.004   3.719  10.667
 6899W        W72159  18.414  40.683   3.811
 6900W        W72160  27.485  28.961   4.536
 6901W        W72161  42.600  38.513  14.845
 6902W        W72162  30.056  19.263   0.842
 6903W        W72163   4.170  40.001   1.765
 6904W        W72164  30.985  43.213   3.067
 6905W        W72165  12.133   2.617  13.285
 6906W        W72166   5.896   1.279  12.486
 6907W        W72167  27.973  18.667  14.384
 6908W        W72168  31.677   3.387  12.168
 6909W        W72169  25.166  17.427   9.748
 6910W        W72170  37.840  36.104  14.791
 6911W        W72171  35.357  23.317  10.836
 6912W        W72172   9.850  32.124  12.118
 6913W        W72173  22.704  40.436  14.358
 6914W        W72174  21.232  27.956  14.299
 6915W        W72175   0.689   2.655  10.661
 6916W        W72176  25.435   2.943   2.396
 6917W        W72177  44.203   7.304   2.329
 6918W        W72178  12.659  44.764  10.622
 6919W        W72179  38.293  38.533  12.865
 6920W        W72180  20.313  33.846  11.495
 6921W        W72181  32.119  35.783  13.037
 6922W        W72182   5.853  37.868  10.676
 6923W        W72183  40.606   1.400  13.114
 6924W        W72184  19.955  14.708   0.493
 6925W        W72185   3.929  33.879   3.823
 6926W        W72186  10.611   8.879   0.810
 6927W        W72187   7.116  26.171  12.418
 6928W        W72188  22.464  14.645  13.132
 6929W        W72189  40.853  14.584  12.108
 6930W        W72190  21.788  30.563  12.878
 6931W        W72191  20.688  28.452  14.827
 6932W        W72192   9.125  10.979  14.756
 6933W        W72193  22.634  37.644   1.944
 6934W        W72194  21.906  43.308   1.413
 6935W        W72195  28.328   2.655   4.207
 6936W        W72196  10.465   2.487   4.179
 6937W        W72197  33.818  13.645   3.511
 6938W        W72198   9.868  28.631  11.576
 6939W        W72199  20.195   5.663  14.478
 6940W        W72200  42.840  20.578   4.846
 6941W        W72201  30.248  39.157   0.339
 6942W        W72202  33.616  37.474   1.214
 6943W        W72203  16.495  21.232  12.623
 6944W        W72204  23.591  35.872   1.310
 6945W        W72205   3.994  43.284  14.375
 6946W        W72206  34.356  22.056  13.856
 6947W        W72207  23.882  25.215  12.396
 6948W        W72208  22.606   9.419  12.975
 6949W        W72209   9.700  30.903  12.431
 6950W        W72210  11.846  34.544   4.614
 6951W        W72211   6.855   3.414  13.776
 6952W        W72212  42.151  33.076   4.686
 6953W        W72213   0.979  15.267   4.028
 6954W        W72214  27.788  35.976   4.453
 6955W        W72215  41.242  37.542   1.314
 6956W        W72216   3.297  42.844  13.973
 6957W        W72217   0.910   8.920   1.332
 6958W        W72218   6.588  33.238   2.307
 6959W        W72219  37.107   0.935  13.944
 6960W        W72220  35.091   3.180  12.622
 6961W        W72221  11.592  31.596   2.245
 6962W        W72222  14.746  28.493   4.034
 6963W        W72223   2.653  29.050   4.952
 6964W        W72224  24.756  42.571  14.397
 6965W        W72225  41.221   6.207   0.883
 6966W        W72226  31.045  41.073   4.621
 6967W        W72227  30.306  26.781  10.707
 6968W        W72228  44.318  29.701   4.491
 6969W        W72229  27.052  35.828  11.044
 6970W        W72230  41.053  34.404   4.915
 6971W        W72231  17.738   4.977   4.135
 6972W        W72232  11.232  16.577   4.088
 6973W        W72233  26.480   1.029  13.410
 6974W        W72234  19.676  11.313  10.228
 6975W        W72235   9.705  30.820  13.918
 6976W        W72236  12.157  15.167  10.712
 6977W        W72237  31.589  10.614  14.711
 6978W        W72238  18.958  43.390   1.338
 6979W        W72239  34.484  43.301  13.823
 6980W        W72240   1.701  28.980  11.411
 6981W        W72241  18.573  18.044   1.281
 6982W        W72242   1.226  29.430   1.311
 6983W        W72243  20.732  11.287  12.871
 6984W        W72244  19.055   8.317   4.200
 6985W        W72245  18.565   0.429   3.876
 6986W        W72246  18.301  40.603   5.126
 6987W        W72247  23.243  25.075   2.812
 6988W        W72248  33.446  24.656  12.450
 6989W        W72249  42.586  41.489  11.595
 6990W        W72250  31.658  18.972   0.761
 6991W        W72251  31.945  40.803  14.753
 6992W        W72252  14.818  31.553   1.164
 6993W        W72253  11.152  31.172  11.498
 6994W        W72254  10.517   3.203   4.101
 6995W        W72255   1.135  40.492   5.444
 6996W        W72256  37.212  41.823   4.080
 6997W        W72257  32.636   1.047  12.486
 6998W        W72258  37.345   5.813   4.602
 6999W        W72259  22.197  20.028   4.271
 7000W        W72260   7.108  20.479   2.715
 7001W        W72261   2.299   0.005  13.026
 7002W        W72262  17.695  26.061   3.669
 7003W        W72263  26.576  18.299  13.821
 7004W        W72264   2.374   9.140   3.569
 7005W        W72265  21.557  31.397   0.520
 7006W        W72266  25.307  17.218  13.496
 7007W        W72267  28.231  40.476   3.638
 7008W        W72268  10.629  27.538   2.706
 7009W        W72269   1.431  12.215   1.752
 7010W        W72270  31.678  37.869   3.678
 7011W        W72271  12.175  31.522  12.004
 7012W        W72272  32.024  31.302   2.536
 7013W        W72273  40.551  32.980  14.341
 7014W        W72274  39.458  39.613   0.355
 7015W        W72275  38.961  31.451  14.266
 7016W        W72276  36.885  19.650  13.131
 7017W        W72277  37.050   0.809   3.556
 7018W        W72278  15.325  40.321   2.871
 7019W        W72279  26.444  22.138  11.930
 7020W        W72280  16.548   0.060  12.575
 7021W        W72281  31.338  36.330   4.885
 7022W        W72282   8.072  26.957   2.125
 7023W        W72283   6.537  41.358   5.036
 7024W        W72284  22.506  39.916  14.381
 7025W        W72285  22.618   6.560   3.586
 7026W        W72286  25.692  42.831   4.436
 7027W        W72287  35.952  35.139  11.186
 7028W        W72288  18.471   5.880   3.692
 7029W        W72289  10.691   5.208  13.771
 7030W        W72290   5.848  19.515   0.481
 7031W        W72291  42.735  35.580   3.715
 7032W        W72292  44.830   9.187   2.864
 7033W        W72293  38.557  27.193  12.058
 7034W        W72294  11.548  27.790  12.381
 7035W        W72295   7.012  35.515  11.295
 7036W        W72296  27.305  20.558  13.621
 7037W        W72297  24.903   8.284  12.106
 7038W        W72298  21.508  41.529  13.928
 7039W        W72299  13.719  39.846  14.905
 7040W        W72300  13.384  23.232   0.035
 7041W        W72301  25.198  31.417  12.923
 7042W        W72302  42.889  27.680  10.134
 7043W        W72303  39.834  33.388   2.923
 7044W        W72304  37.861  19.068   0.076
 7045W        W72305  19.304  18.114  12.113
 7046W        W72306  20.244   0.811  13.341
 7047W        W72307  37.928  10.921  14.437
 7048W        W72308  16.251   7.238   3.952
 7049W        W72309  14.244   7.288   1.802
 7050W        W72310   5.862  34.078  12.060
 7051W        W72311  24.406  19.967  14.391
 7052W        W72312  23.592  36.102  14.937
 7053W        W72313  32.715  23.960   3.476
 7054W        W72314  36.949  36.595  14.927
 7055W        W72315  17.981  37.474   3.398
 7056W        W72316  20.294  23.694  14.829
 7057W        W72317  36.106  15.475  11.872
 7058W        W72318  41.050  14.005  12.995
 7059W        W72319  28.512   0.825  10.931
 7060W        W72320  33.384  12.884  12.113
 7061W        W72321  16.117  15.689   3.899
 7062W        W72322  19.990  24.849   0.873
 7063W        W72323   4.435   4.209   0.338
 7064W        W72324   6.951  37.509   0.701
 7065W        W72325   3.913  30.632  10.740
 7066W        W72326  24.093  28.017   2.604
 7067W        W72327  40.491  10.881   0.937
 7068W        W72328  40.768  36.588  11.642
 7069W        W72329  27.022  38.473  11.907
 7070W        W72330   8.954  34.450  14.507
 7071W        W72331   3.239  31.430   3.949
 7072W        W72332  32.646   7.450   4.605
 7073W        W72333  17.865  33.284   2.243
 7074W        W72334   8.182  21.198  11.944
 7075W        W72335   6.260   4.032  12.852
 7076W        W72336  26.914  33.070   0.411
 7077W        W72337  29.390  15.286   3.104
 7078W        W72338  19.982   2.784  14.759
 7079W        W72339   1.493  15.324   4.540
 7080W        W72340  16.800  31.095  11.958
 7081W        W72341  35.434  29.553   3.811
 7082W        W72342   3.861  38.608   0.919
 7083W        W72343   9.131  22.119  11.237
 7084W        W72344  27.564   4.722  12.552
 7085W        W72345  37.800   8.170   4.701
 7086W        W72346   4.279  43.709   0.067
 7087W        W72347  25.150  33.445  13.788
 7088W        W72348  22.678  22.405   3.794
 7089W        W72349  12.829  30.301   4.029
 7090W        W72350  18.820  11.918   1.726
 7091W        W72351  17.704  27.302   1.097
 7092W        W72352   9.555   9.273   2.157
 7093W        W72353  33.534  25.125  12.635
 7094W        W72354  40.922   8.819  14.399
 7095W        W72355  23.910  39.371  13.733
 7096W        W72356  36.148  32.411  10.685
 7097W        W72357  35.764  34.932   3.059
 7098W        W72358   7.660  37.176  12.976
 7099W        W72359   9.385  35.346   3.346
 7100W        W72360  33.514   0.100   2.972
 7101W        W72361  28.477  41.060  12.000
 7102W        W72362  12.124  14.243  14.741
 7103W        W72363  41.953  24.031   2.153
 7104W        W72364   7.096  32.539  12.478
 7105W        W72365  19.274   1.250   1.477
 7106W        W72366   6.847   7.877   4.097
 7107W        W72367  14.735   3.248  11.560
 7108W        W72368  38.768   6.942   4.201
 7109W        W72369  43.417  13.738  11.545
 7110W        W72370  23.593  31.259  11.696
 7111W        W72371  28.913  18.778   4.313
 7112W        W72372  32.054  44.387  13.586
 7113W        W72373  28.663   0.756   1.993
 7114W        W72374  20.241  34.433   0.269
 7115W        W72375  31.165  41.906  11.969
 7116W        W72376  25.117   4.395  12.106
 7117W        W72377  26.016   7.322  12.221
 7118W        W72378  12.272  11.293  10.664
 7119W        W72379  16.023  41.367  11.409
 7120W        W72380  34.545   6.741  11.647
 7121W        W72381  17.904  44.494   0.797
 7122W        W72382  21.778   6.612  14.906
 7123W        W72383  43.417  43.531  13.920
 7124W        W72384  18.368  36.392   1.174
 7125W        W72385  20.718  40.833   2.176
 7126W        W72386  12.148  31.093   1.449
 7127W        W72387  42.814  15.394   1.963
 7128W        W72388   9.185  37.159  10.606
 7129W        W72389  29.051   3.299  12.024
 7130W        W72390   3.382  10.176  11.158
 7131W        W72391  12.012  10.403  12.424
 7132W        W72392   5.698  27.053   3.597
 7133W        W72393  44.917   2.013   0.016
 7134W        W72394   6.921  18.342  10.995
 7135W        W72395  39.900  26.785   0.465
 7136W        W72396  35.021  38.042   4.093
 7137W        W72397  26.631   4.086  10.448
 7138W        W72398  24.464   8.931  11.474
 7139W        W72399   0.083   9.792  14.281
 7140W        W72400  24.023  41.930   1.825
 7141W        W72401  33.438   9.369  14.758
 7142W        W72402  19.188  42.776   2.459
 7143W        W72403   9.932   2.774  11.985
 7144W        W72404  38.954  25.191   1.942
 7145W        W72405   5.734   8.482  13.798
 7146W        W72406  14.578  20.003   0.477
 7147W        W72407  28.399  42.471  13.526
 7148W        W72408   4.715  36.411  13.083
 7149W        W72409  19.983  13.320   2.848
 7150W        W72410  38.309  38.859   0.828
 7151W        W72411  19.636  20.715  10.325
 7152W        W72412  12.796  25.742  10.751
 7153W        W72413  19.589  11.108  14.465
 7154W        W72414  26.239  15.656  14.848
 7155W        W72415  14.282  30.695  14.029
 7156W        W72416  31.362  23.007   2.738
 7157W        W72417   7.420   3.264   1.333
 7158W        W72418  16.693  39.234   1.288
 7159W        W72419  13.391  40.245  11.315
 7160W        W72420  23.363  13.714  12.140
 7161W        W72421  41.456  10.578   0.756
 7162W        W72422  23.809  29.903  12.393
 7163W        W72423   7.762   0.850  13.278
 7164W        W72424  18.064   6.858  14.289
 7165W        W72425  28.233   3.822  14.542
 7166W        W72426   5.866   6.634   4.255
 7167W        W72427   1.802  10.673   2.834
 7168W        W72428   0.876  20.073   3.835
 7169W        W72429  31.144   4.045   1.324
 7170W        W72430  21.737   4.427  13.501
 7171W        W72431  44.801  41.362   4.347
 7172W        W72432  37.601  28.799   4.055
 7173W        W72433  35.320  23.859  12.605
 7174W        W72434   0.566   4.692  13.623
 7175W        W72435  12.242   8.868   3.600
 7176W        W72436  38.086  21.499   0.328
 7177W        W72437  39.033  31.849  12.445
 7178W        W72438  16.649  18.803  12.251
 7179W        W72439  22.991  19.214  12.509
 7180W        W72440  32.985   8.234  13.035
 7181W        W72441  34.794   7.737  14.994
 7182W        W72442  25.295  10.828   3.146
 7183W        W72443   5.468  23.420   0.688
 7184W        W72444  15.996   3.769   0.842
 7185W        W72445  33.039  43.006   3.907
 7186W        W72446   0.278   1.506  10.950
 7187W        W72447   7.695  41.901   1.273
 7188W        W72448  10.851  27.602   0.569
 7189W        W72449  41.600   3.038   0.375
 7190W        W72450  42.635  29.561   0.008
 7191W        W72451  35.246  19.744   2.717
 7192W        W72452  15.826  35.360   2.409
 7193W        W72453  28.806  34.409   2.813
 7194W        W72454  18.328   1.515  12.598
 7195W        W72455  10.381  10.368   4.087
 7196W        W72456  36.571  40.107  12.185
 7197W        W72457  10.709  31.206   5.451
 7198W        W72458   4.916  19.295  14.406
 7199W        W72459   6.681  25.649  11.634
 7200W        W72460  19.295   1.432   3.236
 7201W        W72461  44.991  34.866   3.985
 7202W        W72462  13.207   4.296   4.055
 7203W        W72463  26.897  25.634   4.170
 7204W        W72464   5.455   9.806   2.141
 7205W        W72465   5.835  26.175   1.810
 7206W        W72466   9.144  14.045  14.933
 7207W        W72467   6.192  32.369   3.461
 7208W        W72468  44.473  11.914   1.297
 7209W        W72469  16.971  26.166  11.207
 7210W        W72470  32.365  39.620   1.727
 7211W        W72471  25.980  24.464   0.930
 7212W        W72472  15.058  36.867   3.426
 7213W        W72473   2.497  22.820  10.516
 7214W        W72474  14.037  23.495  14.235
 7215W        W72475  23.235  20.177  13.361
 7216W        W72476  24.937  27.267  13.396
 7217W        W72477  20.066   9.716  14.989
 7218W        W72478   4.737  39.437   2.600
 7219W        W72479  20.272  31.063   3.670
 7220W        W72480  10.559  44.232  13.082
 7221W        W72481   3.773   4.270  13.829
 7222W        W72482  30.979   1.829  10.682
 7223W        W72483  44.899   1.800  14.338
 7224W        W72484  29.644  26.491  12.215
 7225W        W72485   2.529  41.383   4.727
 7226W        W72486   7.810  41.411   2.155
 7227W        W72487  35.583   7.642   4.086
 7228W        W72488  15.187   0.311   4.576
 7229W        W72489  22.206   6.538  11.407
 7230W        W72490  37.963  22.042   2.826
 7231W        W72491   8.470   5.756  10.151
 7232W        W72492   2.753   5.357   1.856
 7233W        W72493   2.596  37.155  12.065
 7234W        W72494  26.643  36.893   1.992
 7235W        W72495  13.660  33.058  10.746
 7236W        W72496  33.791   5.775   9.857
 7237W        W72497   3.273  27.113   3.813
 7238W        W72498  41.536  22.803   4.078
 7239W        W72499   7.170  27.948   1.898
 7240W        W72500  30.968  33.094   4.673
 7241W        W72501  41.556  11.446   9.857
 7242W        W72502  32.911  10.402  13.679
 7243W        W72503  27.391  26.934  14.511
 7244W        W72504  13.511  23.056   4.139
 7245W        W72505   0.324  21.097   1.212
 7246W        W72506  23.126   5.898   0.310
 7247W        W72507  31.895  23.024   2.758
 7248W        W72508  42.025  16.807   0.507
 7249W        W72509  28.100  15.786   0.751
 7250W        W72510  22.675  22.984  12.610
 7251W        W72511   8.678  23.946   4.969
 7252W        W72512   5.865   4.264  10.681
 7253W        W72513   7.682  14.316  12.985
 7254W        W72514  12.095   3.375  11.100
 7255W        W72515  29.705  35.839  13.166
 7256W        W72516  25.519   4.022   3.267
 7257W        W72517  17.047   1.039  11.084
 7258W        W72518   1.197  23.525  11.999
 7259W        W72519   1.986  20.676   2.655
 7260W        W72520  20.694   3.425  13.496
 7261W        W72521  44.779  41.999   0.017
 7262W        W72522  20.853  32.648   2.037
 7263W        W72523  37.123  21.508   0.331
 7264W        W72524   3.419  34.823  12.182
 7265W        W72525  19.059  42.993   0.378
 7266W        W72526  36.265  26.686  14.040
 7267W        W72527  15.371   8.793   3.342
 7268W        W72528   6.504   7.773  11.187
 7269W        W72529  35.623  16.531  11.597
 7270W        W72530  13.802  25.362   0.292
 7271W        W72531  19.115  35.237  14.924
 7272W        W72532  16.134  20.935  13.800
 7273W        W72533  20.179  38.504  14.410
 7274W        W72534  33.065  39.134  11.633
 7275W        W72535  12.241  10.719   3.765
 7276W        W72536  24.433   8.176   2.872
 7277W        W72537  13.382  12.178   2.715
 7278W        W72538  25.535  14.994   4.820
 7279W        W72539  35.619  28.082  11.139
 7280W        W72540   9.705  13.440  11.022
 7281W        W72541  33.815  34.489  12.170
 7282W        W72542  19.517  39.453   1.671
 7283W        W72543  12.691  35.461  14.749
 7284W        W72544  38.124  36.567  12.941
 7285W        W72545   9.339  42.324  12.833
 7286W        W72546   4.809   7.605  12.967
 7287W        W72547  21.668  43.739  12.988
 7288W        W72548  28.200  28.658  14.019
 7289W        W72549  12.829  37.358  11.950
 7290W        W72550  10.191  25.568  12.348
 7291W        W72551   1.901  40.371   1.822
 7292W        W72552  34.629  21.264  12.454
 7293W        W72553  42.364  35.443   4.041
 7294W        W72554  37.890  32.394  14.078
 7295W        W72555  31.705  41.272  14.776
 7296W        W72556  19.724   2.689  11.852
 7297W        W72557  16.748  25.010   3.704
 7298W        W72558  34.081  18.344   4.327
 7299W        W72559   6.722   9.866  10.783
 7300W        W72560  19.930  19.018  10.868
 7301W        W72561  35.986   5.097   3.629
 7302W        W72562  42.091  30.507   1.706
 7303W        W72563  32.430  23.230  13.569
 7304W        W72564   8.646  31.286   4.678
 7305W        W72565  17.613  22.173   4.317
 7306W        W72566  28.514   7.860  11.310
 7307W        W72567  23.120  21.981   0.423
 7308W        W72568   4.777  14.163   0.535
 7309W        W72569  22.134   0.170   0.755
 7310W        W72570  17.109   9.789   3.162
 7311W        W72571  36.581  24.641   4.132
 7312W        W72572   3.486  11.810   2.165
 7313W        W72573  44.355   4.847   3.753
 7314W        W72574   2.265  33.686  13.533
 7315W        W72575   2.523  18.042   0.422
 7316W        W72576  11.815  20.508  12.443
 7317W        W72577  39.190  29.228   2.788
 7318W        W72578   9.855  30.186   1.305
 7319W        W72579  41.730  39.509  11.126
 7320W        W72580   9.191  25.160  12.461
 7321W        W72581  19.540   8.223   1.318
 7322W        W72582  13.858  36.131   1.321
 7323W        W72583  40.513  19.842  11.189
 7324W        W72584  12.592  27.814   0.788
 7325W        W72585  24.704  31.085   4.316
 7326W        W72586   4.757  23.212   0.220
 7327W        W72587  14.317  11.068   2.281
 7328W        W72588  40.159  35.940   2.323
 7329W        W72589   8.844  13.096   4.568
 7330W        W72590  41.132  42.470   0.953
 7331W        W72591  14.017  34.092   4.302
 7332W        W72592  24.120  23.152   4.482
 7333W        W72593  14.587  13.660   1.907
 7334W        W72594  30.104  29.546  14.388
 7335W        W72595  18.087   0.744  10.342
 7336W        W72596   5.471  25.168   4.247
 7337W        W72597   0.116  15.367  10.614
 7338W        W72598  32.906  34.807  11.412
 7339W        W72599  38.963  18.956  11.850
 7340W        W72600  19.157  20.976  13.152
 7341W        W72601  34.124  16.613  12.999
 7342W        W72602  43.839   3.501   1.755
 7343W        W72603   3.915  39.044   3.668
 7344W        W72604  28.061  19.619  14.300
 7345W        W72605  25.006  24.697  13.946
 7346W        W72606   9.599  19.663   0.324
 7347W        W72607  43.135  29.373  11.523
 7348W        W72608  23.089  16.018   2.202
 7349W        W72609  11.776  14.569   3.156
 7350W        W72610  15.271  12.908   1.421
 7351W        W72611  41.989  36.802   3.946
 7352W        W72612   0.883  10.161  12.102
 7353W        W72613   0.281  18.631  13.950
 7354W        W72614   4.460  10.163  12.377
 7355W        W72615   9.217  12.543   0.454
 7356W        W72616   3.183  22.114  10.761
 7357W        W72617  14.285  43.963   3.680
 7358W        W72618   7.880   7.915  11.112
 7359W        W72619  29.991  14.094  12.585
 7360W        W72620   2.683  41.106   2.222
 7361W        W72621  23.826   0.207  13.903
 7362W        W72622  39.629  26.994   2.227
 7363W        W72623   6.150   1.906  12.169
 7364W        W72624  30.434   2.897   2.411
 7365W        W72625  38.058  21.209   3.669
 7366W        W72626  16.590   6.019   3.600
 7367W        W72627  20.466  24.620  11.461
 7368W        W72628  34.537  33.209   0.241
 7369W        W72629  19.058  19.608  13.589
 7370W        W72630  32.241  33.591   4.883
 7371W        W72631  29.583   3.317   5.044
 7372W        W72632   4.280  10.914  11.953
 7373W        W72633  41.604  22.394  14.258
 7374W        W72634  28.189  15.335  11.403
 7375W        W72635   6.321  12.640   2.830
 7376W        W72636  30.290  44.463  12.806
 7377W        W72637   4.805  25.984  10.166
 7378W        W72638  43.022  43.774   4.099
 7379W        W72639  39.867   0.785   0.034
 7380W        W72640  34.151  15.546  10.125
 7381W        W72641  43.833  42.004   1.760
 7382W        W72642  40.942  28.201  12.011
 7383W        W72643  27.698  35.674   1.438
 7384W        W72644   0.010   7.003   5.081
 7385W        W72645  33.008  35.845   3.721
 7386W        W72646  13.159   8.775  13.105
 7387W        W72647  18.704  31.046   4.732
 7388W        W72648  36.805  32.919   1.842
 7389W        W72649  34.350  30.861  14.872
 7390W        W72650   0.574  13.850   3.193
 7391W        W72651   5.201  33.993  14.889
 7392W        W72652  39.808  22.452  13.879
 7393W        W72653   9.665  16.105  14.001
 7394W        W72654  14.106  27.817  11.694
 7395W        W72655   9.018  37.272   4.679
 7396W        W72656  37.010  42.346  14.882
 7397W        W72657  24.724   9.731   1.516
 7398W        W72658  35.801  20.662  13.715
 7399W        W72659   9.576  27.054  14.012
 7400W        W72660  21.367  20.973   0.151
 7401W        W72661   7.720   5.399   3.201
 7402W        W72662  35.864  28.036  14.295
 7403W        W72663  28.691  36.059   2.639
 7404W        W72664  43.217  26.564  14.379
 7405W        W72665  19.241   4.363  10.674
 7406W        W72666  30.427   4.361  12.511
 7407W        W72667  13.195  40.853  11.789
 7408W        W72668  40.802  43.842   0.899
 7409W        W72669  40.810  14.413   4.950
 7410W        W72670  31.749  33.350   0.293
 7411W        W72671  34.073  27.928   1.267
 7412W        W72672  21.284  27.312  10.273
 7413W        W72673  14.296  10.643   0.678
 7414W        W72674  14.759  16.647   3.722
 7415W        W72675  24.514  32.011  10.232
 7416W        W72676  41.456   5.441  12.869
 7417W        W72677   9.425  43.800  14.327
 7418W        W72678  33.727  33.948   2.882
 7419W        W72679  28.488  37.606  11.017
 7420W        W72680  21.097  27.666   1.003
 7421W        W72681   5.134   6.833   4.733
 7422W        W72682  39.464  27.049  14.788
 7423W        W72683  18.617   0.469  10.768
 7424W        W72684  26.887   6.756   1.946
 7425W        W72685   3.826  27.911  10.916
 7426W        W72686  12.470  28.979   3.937
 7427W        W72687  42.006  13.705  10.693
 7428W        W72688   5.358  13.649   2.087
 7429W        W72689  21.292  19.293  11.098
 7430W        W72690  33.094  27.929   0.599
 7431W        W72691   2.318  13.275  10.126
 7432W        W72692  38.039   3.727   3.419
 7433W        W72693  12.162  44.715   0.029
 7434W        W72694   4.891  18.996  12.673
 7435W        W72695  21.525  16.104  11.132
 7436W        W72696  23.146  35.682   4.323
 7437W        W72697  31.514  24.460  13.428
 7438W        W72698  27.260  33.386   4.710
 7439W        W72699  32.433  16.847  10.711
 7440W        W72700   3.343  37.303  10.610
 7441W        W72701  23.427  30.392  11.983
 7442W        W72702  35.911   8.213  13.670
 7443W        W72703  32.412  16.247   4.255
 7444W        W72704  27.544  36.138   1.154
 7445W        W72705   4.613  37.244  11.165
 7446W        W72706  28.041  32.447   1.418
 7447W        W72707  33.963  18.046   3.925
 7448W        W72708  30.169  40.527   1.284
 7449W        W72709   9.258  12.817  11.130
 7450W        W72710  33.891  38.515   1.414
 7451W        W72711   5.836  33.324   4.132
 7452W        W72712  31.615  24.498  11.119
 7453W        W72713  40.449  39.591  11.114
 7454W        W72714   3.029  35.021   3.048
 7455W        W72715  42.496  25.564  14.867
 7456W        W72716  43.327  36.844   1.725
 7457W        W72717  32.999  24.621  10.246
 7458W        W72718  27.628   4.946  11.650
 7459W        W72719   2.709  22.480   3.636
 7460W        W72720  17.312  26.756  11.650
 7461W        W72721  20.340   8.900   2.268
 7462W        W72722  17.674   5.920  13.897
 7463W        W72723  32.442  12.903  12.082
 7464W        W72724  15.533  31.951  10.735
 7465W        W72725  29.168  32.466   1.903
 7466W        W72726   8.552  23.689   2.749
 7467W        W72727  44.463   7.783  12.761
 7468W        W72728   7.114  38.334  12.481
 7469W        W72729   9.785  42.795   4.647
 7470W        W72730  44.280  44.342   1.905
 7471W        W72731  18.549   8.932  14.733
 7472W        W72732   1.781  40.993  11.544
 7473W        W72733  40.531  14.057  13.414
 7474W        W72734   1.349  37.858   2.184
 7475W        W72735   5.202  29.133  10.015
 7476W        W72736  27.935   7.484   2.673
 7477W        W72737  29.676  39.374  12.448
 7478W        W72738  10.663  18.046   0.768
 7479W        W72739  38.343  11.371  11.247
 7480W        W72740   9.772  44.822  11.074
 7481W        W72741   8.462  33.443  11.056
 7482W        W72742  22.188  13.633  10.728
 7483W        W72743  44.732  16.810   3.342
 7484W        W72744   5.785  38.839   2.216
 7485W        W72745  40.929  35.543  14.126
 7486W        W72746  24.255  20.726   4.424
 7487W        W72747  41.237  14.160  11.004
 7488W        W72748  11.144  40.893  14.419
 7489W        W72749  16.231  23.789  10.769
 7490W        W72750  23.185   8.133  13.856
 7491W        W72751   8.754  39.487   1.782
 7492W        W72752   4.697  44.464  11.044
 7493W        W72753  38.080  23.567  13.719
 7494W        W72754  13.374  26.681   2.339
 7495W        W72755   3.377  15.170   4.124
 7496W        W72756  21.692  27.913   2.225
 7497W        W72757  36.857  17.670   1.439
 7498W        W72758   0.316   7.401  14.278
 7499W        W72759  14.304  18.620  13.877
 7500W        W72760   6.866  26.911  11.121
 7501W        W72761  26.730  34.571   1.391
 7502W        W72762   6.229  40.453  14.890
 7503W        W72763  41.559  27.955  13.450
 7504W        W72764  39.518  30.872  11.139
 7505W        W72765  16.105  44.823   0.998
 7506W        W72766  39.448  30.607   3.190
 7507W        W72767  23.637  41.451  13.250
 7508W        W72768  28.970  20.201   3.543
 7509W        W72769   3.738   1.478  12.070
 7510W        W72770  20.509   2.870   1.527
 7511W        W72771  21.873   8.460   2.223
 7512W        W72772  43.016  35.845  12.846
 7513W        W72773   9.720  30.973   3.828
 7514W        W72774  19.664  30.316   1.555
 7515W        W72775  36.527  40.308  14.831
 7516W        W72776  22.530  43.872   4.616
 7517W        W72777  22.224  21.538   1.855
 7518W        W72778   4.198  25.133  13.871
 7519W        W72779  44.206   2.746  14.003
 7520W        W72780  20.643  15.762  10.092
 7521W        W72781  39.306  12.204  10.649
 7522W        W72782  22.476  32.108  14.421
 7523W        W72783  21.155  15.785  12.186
 7524W        W72784  33.273  15.556   2.623
 7525W        W72785   4.426  38.088   0.930
 7526W        W72786  40.855   6.400   3.065
 7527W        W72787  20.089  10.400  14.367
 7528W        W72788  14.341  24.734   0.700
 7529W        W72789  20.081  38.068  12.221
 7530W        W72790  31.875  33.494   1.519
 7531W        W72791  24.068   2.441  14.871
 7532W        W72792  30.898   2.625   4.704
 7533W        W72793  14.364  13.682  11.846
 7534W        W72794  23.622   9.566  10.143
 7535W        W72795  24.072  24.706  14.847
 7536W        W72796   0.965  41.410  11.997
 7537W        W72797  25.981  37.394  10.626
 7538W        W72798  24.804  37.677  12.927
 7539W        W72799   7.128  29.269  12.631
 7540W        W72800  38.237  38.873   2.242
 7541W        W72801  38.485  12.091  11.696
 7542W        W72802  34.126  22.247  12.013
 7543W        W72803  23.886  26.301   5.204
 7544W        W72804   5.412   2.273  11.144
 7545W        W72805  30.210  25.583  12.728
 7546W        W72806  10.413  42.484   2.405
 7547W        W72807  32.931  27.418   5.370
 7548W        W72808  38.526  22.355   3.961
 7549W        W72809  44.020  12.501  12.532
 7550W        W72810   4.646  40.411   4.142
 7551W        W72811   1.360  14.772   0.940
 7552W        W72812  37.832  24.599   0.856
 7553W        W72813  23.912   3.596  10.442
 7554W        W72814  41.812   5.894   2.231
 7555W        W72815  42.624   1.119   1.419
 7556W        W72816  30.150  17.308   1.221
 7557W        W72817  41.234  12.206  13.383
 7558W        W72818  37.134   6.317  14.995
 7559W        W72819  37.481  16.783  11.164
 7560W        W72820   1.134   2.445   2.686
 7561W        W72821   9.647  35.074   2.332
 7562W        W72822  28.142   6.858   1.370
 7563W        W72823  29.199  39.493   4.549
 7564W        W72824  30.017  39.212   3.648
 7565W        W72825  10.759  33.958   4.156
 7566W        W72826  42.852  23.789  14.456
 7567W        W72827  20.951  35.868   2.235
 7568W        W72828  32.489  38.107   1.296
 7569W        W72829  39.021  33.176  13.473
 7570W        W72830  13.149  26.787   1.350
 7571W        W72831  16.341  33.669   2.348
 7572W        W72832  35.204  11.341   0.027
 7573W        W72833   4.530  21.105  11.080
 7574W        W72834  32.546  32.973   2.295
 7575W        W72835  17.667  21.370   0.412
 7576W        W72836  32.156  16.276   3.775
 7577W        W72837  24.976  23.568  10.798
 7578W        W72838   5.502  15.242  14.295
 7579W        W72839  33.055  10.820  10.598
 7580W        W72840   3.009  41.006   1.811
 7581W        W72841  37.421  12.255   1.961
 7582W        W72842  43.910   4.197   3.230
 7583W        W72843   5.385  11.790   2.092
 7584W        W72844   4.301   2.642   0.925
 7585W        W72845  10.845  18.376  14.420
 7586W        W72846  38.914  18.827   3.583
 7587W        W72847  18.073  14.995  13.991
 7588W        W72848  38.050  11.762  10.934
 7589W        W72849  11.119  28.176   3.168
 7590W        W72850  19.655  44.486  10.684
 7591W        W72851  27.401  31.397   1.805
 7592W        W72852   3.538  38.766   1.920
 7593W        W72853  35.797  22.774  13.425
 7594W        W72854   6.039  27.634   4.678
 7595W        W72855  43.293  42.889   1.727
 7596W        W72856  36.993  20.131  11.574
 7597W        W72857  35.683  36.073  11.305
 7598W        W72858   8.958   7.083   3.626
 7599W        W72859  42.185  13.276   0.941
 7600W        W72860  13.926  17.570  12.976
 7601W        W72861  28.703  17.258  10.672
 7602W        W72862  43.696  39.899   0.705
 7603W        W72863   0.955   8.216   2.943
 7604W        W72864  25.522  30.263  14.100
 7605W        W72865  18.115  28.671   3.810
 7606W        W72866  36.327  44.773  11.577
 7607W        W72867  33.171  22.052  12.163
 7608W        W72868  10.332   1.398  10.751
 7609W        W72869  22.796   0.884  14.541
 7610W        W72870  39.813   2.141   1.216
 7611W        W72871   4.915   0.500   0.719
 7612W        W72872  32.024  41.541  10.709
 7613W        W72873  38.109  42.393  11.946
 7614W        W72874  15.719   4.677   9.971
 7615W        W72875  17.723  11.018  14.374
 7616W        W72876  42.942  33.632  14.334
 7617W        W72877  15.235  10.428  14.077
 7618W        W72878  14.304  18.165  10.282
 7619W        W72879   7.290   4.491  11.942
 7620W        W72880  15.382  28.215   1.908
 7621W        W72881  38.854  37.062   3.417
 7622W        W72882  19.169  27.569  12.664
 7623W        W72883  23.582   8.816   4.563
 7624W        W72884  10.398  17.262  12.112
 7625W        W72885   5.811  42.542  10.188
 7626W        W72886   9.460  15.199  12.929
 7627W        W72887  34.619  22.155   4.452
 7628W        W72888  38.878  30.567  13.929
 7629W        W72889   3.750   5.256   0.844
 7630W        W72890  26.294  42.456  11.592
 7631W        W72891  43.335  40.409   2.480
 7632W        W72892  36.012   2.222  11.961
 7633W        W72893  42.887  28.993   1.450
 7634W        W72894  21.182  26.650   4.693
 7635W        W72895  34.017   7.586   2.296
 7636W        W72896  11.245  32.551  14.403
 7637W        W72897  41.556  38.457  12.591
 7638W        W72898   3.372   5.831   3.174
 7639W        W72899   1.838  15.905   1.218
 7640W        W72900  39.274   3.252   1.762
 7641W        W72901  22.583  30.998  14.830
 7642W        W72902   8.844  30.113   1.401
 7643W        W72903  27.660   3.007  10.587
 7644W        W72904  15.095  37.216  12.096
 7645W        W72905  23.616   5.794   3.645
 7646W        W72906  17.651  39.604  11.991
 7647W        W72907  38.826  41.004  12.315
 7648W        W72908  29.589  36.584   1.223
 7649W        W72909  44.963   5.325  12.051
 7650W        W72910  31.888  29.910   2.355
 7651W        W72911  15.171   9.254   3.409
 7652W        W72912  17.948   8.285  11.422
 7653W        W72913  31.419  21.808   3.171
 7654W        W72914  16.181   0.823  14.442
 7655W        W72915   0.243  11.670   2.620
 7656W        W72916  30.419  27.886  12.060
 7657W        W72917  28.039  21.088  14.139
 7658W        W72918  17.010  38.026  12.342
 7659W        W72919  41.358  12.043  14.933
 7660W        W72920  44.237  26.003  14.742
 7661W        W72921  13.386   4.421  11.432
 7662W        W72922  26.649  37.855   0.401
 7663W        W72923  19.050  20.269  12.054
 7664W        W72924  34.228  31.984   1.276
 7665W        W72925  18.116  41.829  14.201
 7666W        W72926   9.873   8.145   1.419
 7667W        W72927  14.886  26.339   5.035
 7668W        W72928  43.781  15.110  13.775
 7669W        W72929  38.398  42.495   1.233
 7670W        W72930   3.673   2.168  14.368
 7671W        W72931  19.494  26.007  13.504
 7672W        W72932  11.322  34.817  11.162
 7673W        W72933  16.682  30.873   1.394
 7674W        W72934  18.049  18.027   2.221
 7675W        W72935  12.704   9.048   3.774
 7676W        W72936  18.288  16.122   3.695
 7677W        W72937  10.149  42.741  12.048
 7678W        W72938  32.408  25.892  14.879
 7679W        W72939  43.278  11.125  11.970
 7680W        W72940  39.201  23.827  14.420
 7681W        W72941  37.962  36.270   2.702
 7682W        W72942  31.131  12.091  12.060
 7683W        W72943  42.281  34.956   4.405
 7684W        W72944  13.597  27.175  14.052
 7685W        W72945  30.054   7.417   4.696
 7686W        W72946  15.570   2.018   0.003
 7687W        W72947  33.562  12.677   3.799
 7688W        W72948  42.940   7.569   1.609
 7689W        W72949  11.566  18.643  11.248
 7690W        W72950  22.630  24.082  13.631
 7691W        W72951  21.228  37.121  11.672
 7692W        W72952  18.465  11.632  12.873
 7693W        W72953  41.171  20.562  11.828
 7694W        W72954  30.480  17.729  10.683
 7695W        W72955   4.840  43.014   0.972
 7696W        W72956  25.586   5.387  14.891
 7697W        W72957  38.796   6.442   4.098
 7698W        W72958   1.154  16.119  13.113
 7699W        W72959  23.234  28.370   4.088
 7700W        W72960  19.545  28.743  11.423
 7701W        W72961  32.383  13.170  12.541
 7702W        W72962  29.473  38.874   2.832
 7703W        W72963   6.206  13.041  12.522
 7704W        W72964  26.009  12.346   1.849
 7705W        W72965  14.322  17.430  11.217
 7706W        W72966  43.742  35.907  11.065
 7707W        W72967  44.807  11.672  14.346
 7708W        W72968  32.136  39.564   2.692
 7709W        W72969  10.700  42.346   1.872
 7710W        W72970  15.763  29.747  10.785
 7711W        W72971  34.815  11.432   2.650
 7712W        W72972  15.196  32.872  14.917
 7713W        W72973  33.715  39.946  13.936
 7714W        W72974  32.546  21.926  10.315
 7715W        W72975   8.673  30.262   4.537
 7716W        W72976  22.787  11.122  11.083
 7717W        W72977  18.554   0.411   2.927
 7718W        W72978  40.880  25.032   4.566
 7719W        W72979  12.244   5.702   1.727
 7720W        W72980  41.229  37.148  14.899
 7721W        W72981  36.058  19.217   4.544
 7722W        W72982  29.707  43.489  12.391
 7723W        W72983  24.266  23.945  12.886
 7724W        W72984  40.746   9.596   3.651
 7725W        W72985  26.099  18.211   0.663
 7726W        W72986   0.023  26.608   2.266
 7727W        W72987  34.341  15.239  14.350
 7728W        W72988   1.408   0.570  14.502
 7729W        W72989  40.872  30.691   2.764
 7730W        W72990  17.612   6.905  11.244
 7731W        W72991  41.470  38.197  11.577
 7732W        W72992  34.937  22.418   2.360
 7733W        W72993   7.296  22.898   4.568
 7734W        W72994  15.303   7.971   3.205
 7735W        W72995  20.965  38.878   3.033
 7736W        W72996   0.079  43.486   0.375
 7737W        W72997   1.895   5.396  13.891
 7738W        W72998  11.179   6.922  12.462
 7739W        W72999  12.807  40.515   1.765
 7740W        W73000  34.977  12.055   0.864
 7741W        W73001  43.080  17.728   0.344
 7742W        W73002  27.685   8.341  14.795
 7743W        W73003  36.152  43.180   1.234
 7744W        W73004   0.491  26.713  10.795
 7745W        W73005  20.254  20.045   1.710
 7746W        W73006   2.187   2.662   1.880
 7747W        W73007  17.238  35.961  10.643
 7748W        W73008  31.025  27.614   1.826
 7749W        W73009  19.886  40.380  14.885
 7750W        W73010  27.116  21.502   0.529
 7751W        W73011  27.220  15.757  13.853
 7752W        W73012  28.535  20.764  12.808
 7753W        W73013  26.927   9.392  12.053
 7754W        W73014  11.277  32.014   3.193
 7755W        W73015  34.376  34.574  13.514
 7756W        W73016  21.468  20.827  10.985
 7757W        W73017  13.921  43.066   3.679
 7758W        W73018  26.177  20.883  12.092
 7759W        W73019  22.032  30.091  10.728
 7760W        W73020   4.780  18.110  12.093
 7761W        W73021  24.520   5.540   3.192
 7762W        W73022  31.027  30.028   0.990
 7763W        W73023  40.019  29.120   3.241
 7764W        W73024  36.690  11.859   0.840
 7765W        W73025   3.947  29.191   4.190
 7766W        W73026  24.521  31.060  13.473
 7767W        W73027  42.277  11.742  14.520
 7768W        W73028   5.798  30.009  12.555
 7769W        W73029  42.748  28.374  12.545
 7770W        W73030   7.890   6.681   0.248
 7771W        W73031  38.843   6.429  10.719
 7772W        W73032   3.440  32.139  11.043
 7773W        W73033  28.496   5.849   4.881
 7774W        W73034  22.305  12.760   1.169
 7775W        W73035   2.552  13.263   0.950
 7776W        W73036  28.129  24.022   2.780
 7777W        W73037  38.182   7.524  12.967
 7778W        W73038  13.420  42.352   1.795
 7779W        W73039  12.538  16.380  11.862
 7780W        W73040  18.136  18.502   9.915
 7781W        W73041   4.988  17.236  11.555
 7782W        W73042  18.790  13.065  12.082
 7783W        W73043  12.772  35.467  14.238
 7784W        W73044  43.835  32.663  14.710
 7785W        W73045  38.283  21.621  13.031
 7786W        W73046   7.066  15.029  13.934
 7787W        W73047  16.335   3.508  10.884
 7788W        W73048  28.354  42.946   3.095
 7789W        W73049  16.227  14.041  11.763
 7790W        W73050  39.119  42.562   0.731
 7791W        W73051  34.668   9.696   3.287
 7792W        W73052   4.835  41.865   0.955
 7793W        W73053  13.264  39.569  10.669
 7794W        W73054  27.342  21.750   3.615
 7795W        W73055  11.332  21.090  11.920
 7796W        W73056  19.942   9.393   0.945
 7797W        W73057   1.197  36.501   4.047
 7798W        W73058  39.655  44.522   3.666
 7799W        W73059   7.493   8.624   3.919
 7800W        W73060   8.361   8.626   4.229
 7801W        W73061  30.939   9.165  14.499
 7802W        W73062   3.295  23.513   1.943
 7803W        W73063  37.503  32.186  12.525
 7804W        W73064  17.283  15.373   3.310
 7805W        W73065   7.465   3.853  10.839
 7806W        W73066  38.522  25.635  12.490
 7807W        W73067   1.997  26.186   1.832
 7808W        W73068  41.465  18.548   4.193
 7809W        W73069  20.278  40.993   0.652
 7810W        W73070  13.823  20.288  12.056
 7811W        W73071  18.505  15.596   1.821
 7812W        W73072   2.033  24.760   4.503
 7813W        W73073  22.048   6.051   2.216
 7814W        W73074  38.038  16.692  12.358
 7815W        W73075  35.077  20.440   2.234
 7816W        W73076  42.177   6.220   0.640
 7817W        W73077  16.658  22.919   1.856
 7818W        W73078  21.523  15.032  11.644
 7819W        W73079  23.442  27.338  12.090
 7820W        W73080  26.554  16.305  11.941
 7821W        W73081  17.619   3.226   4.896
 7822W        W73082  38.161  36.651   0.434
 7823W        W73083  19.176  20.211   1.783
 7824W        W73084  25.283   4.557   3.697
 7825W        W73085  21.682  25.953   3.205
 7826W        W73086  26.548  16.766  12.143
 7827W        W73087  30.457  44.300   3.590
 7828W        W73088   5.128  15.810   0.205
 7829W        W73089   6.978  39.807   0.038
 7830W        W73090  40.815  18.562  12.946
 7831W        W73091  32.666  22.284   4.581
 7832W        W73092  11.165  42.599   1.884
 7833W        W73093  29.227  42.046  14.310
 7834W        W73094  17.687  29.893   2.222
 7835W        W73095  37.269  41.570  12.016
 7836W        W73096  28.097   1.763   4.603
 7837W        W73097  23.024  43.055   2.792
 7838W        W73098  27.921  29.974   1.936
 7839W        W73099   9.930  15.780  11.278
 7840W        W73100  29.848  12.105  14.985
 7841W        W73101  44.393   5.814  10.301
 7842W        W73102  25.742   0.960  14.454
 7843W        W73103  23.766  12.217   2.847
 7844W        W73104  15.916  22.514  11.600
 7845W        W73105  33.682  24.560   5.008
 7846W        W73106  14.206  42.178  14.756
 7847W        W73107  26.632  24.059  13.374
 7848W        W73108  13.774  22.115   2.039
 7849W        W73109   6.954  18.292   1.687
 7850W        W73110  17.344  10.232  14.613
 7851W        W73111  37.494  23.776   2.636
 7852W        W73112  11.610  11.330   2.797
 7853W        W73113  43.262   9.197  10.265
 7854W        W73114  43.327   8.626  11.970
 7855W        W73115  37.314  38.781  11.870
 7856W        W73116   5.261  39.068  12.159
 7857W        W73117   3.243   7.956   4.692
 7858W        W73118  32.790  18.244  10.500
 7859W        W73119  26.819  32.912  11.761
 7860W        W73120  31.398  10.215   1.933
 7861W        W73121  27.891  43.412   5.101
 7862W        W73122  19.149  44.996  12.762
 7863W        W73123  35.644   1.345   2.130
 7864W        W73124  26.720  30.017  13.553
 7865W        W73125  40.788  23.167   1.283
 7866W        W73126  24.825  22.143  13.500
 7867W        W73127   7.088   3.684  10.468
 7868W        W73128  10.303   6.660  14.450
 7869W        W73129  18.623   3.672  11.112
 7870W        W73130   0.309  35.028  12.890
 7871W        W73131   3.851  33.050   2.833
 7872W        W73132  26.561   8.802   3.071
 7873W        W73133  12.391   2.150  13.117
 7874W        W73134  34.620  26.091   1.218
 7875W        W73135   0.992  25.960  13.466
 7876W        W73136  42.961  10.699   0.719
 7877W        W73137  30.387  44.452   0.694
 7878W        W73138  38.936  33.307   2.922
 7879W        W73139  31.203  38.373   2.142
 7880W        W73140  25.342  15.603  12.244
 7881W        W73141  12.869  18.870   4.639
 7882W        W73142  26.468   2.949   3.196
 7883W        W73143  32.616  31.060  14.664
 7884W        W73144   5.184  15.896  10.944
 7885W        W73145  23.722  11.609   1.956
 7886W        W73146  35.444  10.936   3.548
 7887W        W73147  36.997  16.358  13.305
 7888W        W73148  36.267  21.508  11.713
 7889W        W73149  40.474  37.174  14.234
 7890W        W73150  44.177  37.467  10.246
 7891W        W73151   3.658  35.107   3.607
 7892W        W73152  42.407  31.562  13.518
 7893W        W73153  21.519  21.272   1.928
 7894W        W73154   7.282  23.772   1.439
 7895W        W73155  15.162   7.852   0.334
 7896W        W73156  30.012  34.942   4.100
 7897W        W73157  21.471  28.816   0.712
 7898W        W73158  44.975  43.858   1.660
 7899W        W73159  19.749  15.912  12.067
 7900W        W73160  28.716  29.957  11.721
 7901W        W73161  43.062  44.241  14.770
 7902W        W73162  24.341   2.990   2.515
 7903W        W73163  26.898  29.525  14.611
 7904W        W73164   9.387  14.236   3.231
 7905W        W73165   3.374   8.596  10.050
 7906W        W73166  35.041  26.553   2.676
 7907W        W73167  35.373  16.085   3.794
 7908W        W73168   5.824   5.469   2.379
 7909W        W73169   9.388  23.222   0.715
 7910W        W73170  26.616  10.105   0.589
 7911W        W73171  35.003  16.672   1.953
 7912W        W73172   3.481   4.969   4.627
 7913W        W73173  11.365   2.366   4.851
 7914W        W73174  22.200  28.499  14.817
 7915W        W73175   2.182  44.218  11.469
 7916W        W73176  38.947  29.581  10.685
 7917W        W73177  14.102   7.407  14.081
 7918W        W73178  18.056   8.103   1.028
 7919W        W73179  44.688  32.623   4.573
 7920W        W73180  35.101   8.125   4.689
 7921W        W73181  35.062   3.847  11.422
 7922W        W73182  33.149  34.331   2.369
 7923W        W73183   0.903  27.013  11.768
 7924W        W73184  33.839  28.305   1.988
 7925W        W73185   6.588  40.477  12.335
 7926W        W73186  43.474   5.293   2.158
 7927W        W73187  18.386  18.080   5.016
 7928W        W73188  41.554  22.742   1.750
 7929W        W73189  11.732  18.632   0.359
 7930W        W73190  28.200  34.371  11.592
 7931W        W73191  36.890  40.819   4.273
 7932W        W73192  25.358  36.737  10.344
 7933W        W73193  33.110  33.261   2.364
 7934W        W73194   3.472  23.482   3.720
 7935W        W73195  18.632  31.328  13.447
 7936W        W73196   6.888  33.399   3.785
 7937W        W73197  12.202  11.612   0.298
 7938W        W73198  33.602  26.629  13.866
 7939W        W73199  35.048  16.572  13.914
 7940W        W73200   3.808   7.469   1.413
 7941W        W73201   9.430  40.553  13.556
 7942W        W73202  26.983   4.380  13.774
 7943W        W73203   8.195  21.227  12.818
 7944W        W73204  20.081  19.340   3.188
 7945W        W73205  13.154  14.227  12.500
 7946W        W73206  40.207  13.068  11.582
 7947W        W73207  43.818  23.604   3.990
 7948W        W73208  43.864  28.795   4.958
 7949W        W73209  42.411   2.796   2.725
 7950W        W73210  15.695  43.813  13.050
 7951W        W73211  11.250  11.719   2.803
 7952W        W73212   7.749  11.078  14.433
 7953W        W73213  41.292  37.108   4.190
 7954W        W73214  17.560  19.298  10.806
 7955W        W73215  22.813  24.699  12.032
 7956W        W73216  18.036   3.782  13.947
 7957W        W73217  29.018   8.848  14.490
 7958W        W73218  41.716  29.546  11.060
 7959W        W73219  41.429   8.387  12.927
 7960W        W73220   4.560   4.763   4.140
 7961W        W73221  11.286   4.934   4.149
 7962W        W73222  14.761  38.483  12.970
 7963W        W73223   5.774   3.398  11.820
 7964W        W73224  38.740   1.338   1.901
 7965W        W73225  13.875  22.948  10.647
 7966W        W73226  17.923  19.120   3.324
 7967W        W73227   0.485  12.141  13.268
 7968W        W73228  28.142  22.365  12.372
 7969W        W73229  35.202  21.100   1.678
 7970W        W73230  29.362   3.779   1.054
 7971W        W73231   0.526  12.725  12.612
 7972W        W73232  29.193  43.579  12.456
 7973W        W73233  29.213  18.241  13.396
 7974W        W73234  42.203  11.616   3.247
 7975W        W73235  32.214  18.575   0.640
 7976W        W73236  34.450   0.238  11.490
 7977W        W73237  11.742  15.042   1.407
 7978W        W73238   3.520   1.775   3.793
 7979W        W73239   3.272  30.958   3.724
 7980W        W73240  37.799  23.935   2.245
 7981W        W73241  29.064  30.795   4.511
 7982W        W73242  37.747   7.250  11.575
 7983W        W73243  34.948  15.827   0.013
 7984W        W73244  44.190   1.967   4.681
 7985W        W73245  18.556  19.534   0.392
 7986W        W73246  19.089   9.650  13.939
 7987W        W73247  18.197  12.795   1.760
 7988W        W73248  28.460  40.447   4.643
 7989W        W73249   5.851  22.664  14.026
 7990W        W73250  20.358  22.009   0.471
 7991W        W73251  14.354  25.557   2.913
 7992W        W73252  26.573  38.846   0.369
 7993W        W73253  14.152  26.278  12.409
 7994W        W73254  23.649  30.673   2.854
 7995W        W73255  22.900  38.584   3.902
 7996W        W73256  28.668  10.773   1.864
 7997W        W73257   6.196   4.278   2.813
 7998W        W73258   1.738  42.637   3.415
 7999W        W73259   5.832  37.519  13.946
 8000W        W73260  26.562  11.282   3.803
 8001W        W73261  14.644  10.186  10.133
 8002W        W73262  39.404  39.049  14.426
 8003W        W73263  40.537  12.843   2.343
 8004W        W73264  14.510  34.950   2.652
 8005W        W73265  19.392  27.632  14.502
 8006W        W73266  34.160   3.478  14.306
 8007W        W73267  31.445  23.886   9.864
 8008W        W73268  26.349  44.082  12.319
 8009W        W73269  28.057  43.342   1.347
 8010W        W73270  32.570  27.461  11.563
 8011W        W73271  38.374   6.639   4.384
 8012W        W73272   2.773  10.411   2.404
 8013W        W73273  37.377  27.237   2.252
 8014W        W73274  35.852  41.625   3.134
 8015W        W73275  29.380  16.163   1.616
 8016W        W73276   6.971  18.821   2.433
 8017W        W73277  10.820  38.265  11.115
 8018W        W73278  44.825  34.025   3.720
 8019W        W73279   5.343  33.140  14.411
 8020W        W73280   2.447  29.995   1.944
 8021W        W73281  35.267  34.998   5.102
 8022W        W73282   4.829  29.104   0.256
 8023W        W73283  38.924  31.543   2.136
 8024W        W73284  25.466   4.428  12.639
 8025W        W73285  35.788  30.010   0.498
 8026W        W73286  19.225   7.419   2.761
 8027W        W73287  12.577  37.161   3.387
 8028W        W73288  13.923  30.409  13.799
 8029W        W73289  28.434  22.981   3.616
 8030W        W73290  17.239   7.941  14.988
 8031W        W73291   8.446  41.411  11.584
 8032W        W73292   5.356   0.267  11.227
 8033W        W73293  42.761  42.989   1.777
 8034W        W73294  37.751  30.150   4.574
 8035W        W73295  14.190  28.721   4.245
 8036W        W73296   8.631   5.735  12.167
 8037W        W73297  43.519  41.767  14.852
 8038W        W73298   5.662  18.079   3.643
 8039W        W73299   4.537  27.730   2.179
 8040W        W73300  11.087  13.665   3.189
 8041W        W73301   1.013  21.293   1.827
 8042W        W73302  42.763  18.788   4.572
 8043W        W73303   9.859   7.291   0.819
 8044W        W73304  28.355   4.986   2.879
 8045W        W73305  15.760  15.307  11.883
 8046W        W73306  38.326  39.484   3.479
 8047W        W73307  23.567   3.644   5.735
 8048W        W73308  37.185  37.453   2.194
 8049W        W73309  35.137   8.417  14.836
 8050W        W73310  25.678   9.799  11.229
 8051W        W73311  12.426  17.471   1.437
 8052W        W73312  24.558  31.958  11.110
 8053W        W73313  40.616  38.386  12.193
 8054W        W73314  26.884  31.647   0.924
 8055W        W73315  44.380  40.510  13.872
 8056W        W73316  20.313  13.408  11.131
 8057W        W73317  32.093   2.933  14.982
 8058W        W73318   7.959  12.250   3.790
 8059W        W73319   3.305  15.112   0.898
 8060W        W73320  23.540  28.324   0.261
 8061W        W73321  20.213  25.279   2.078
 8062W        W73322  41.639  44.983  14.320
 8063W        W73323  43.425   3.947   3.181
 8064W        W73324  31.138  32.156  12.522
 8065W        W73325   5.164   2.253   4.485
 8066W        W73326  42.460  15.072  11.580
 8067W        W73327   1.610  34.951  11.196
 8068W        W73328  21.810  20.400   3.579
 8069W        W73329  34.006  40.563   0.855
 8070W        W73330  42.755  19.574  14.407
 8071W        W73331  22.262  26.632   3.840
 8072W        W73332  44.635  37.874   0.714
 8073W        W73333   6.745  44.003  14.683
 8074W        W73334  44.275  42.789  11.242
 8075W        W73335  35.898  14.059  11.589
 8076W        W73336  44.698   2.768   4.146
 8077W        W73337  24.054  20.726   2.421
 8078W        W73338   3.807   0.922   4.048
 8079W        W73339   8.333  28.606  12.507
 8080W        W73340   4.659  26.605   3.175
 8081W        W73341  25.961   9.428   4.145
 8082W        W73342   6.765  28.402  12.447
 8083W        W73343  18.037   1.968  12.806
 8084W        W73344  27.412  41.268   3.645
 8085W        W73345  30.047  31.403  14.079
 8086W        W73346  44.365   0.141   9.641
 8087W        W73347   5.347  26.736   0.292
 8088W        W73348   8.666   2.298  11.003
 8089W        W73349  23.616  30.546   3.756
 8090W        W73350  14.514  38.794   3.301
 8091W        W73351  23.513   9.906  12.915
 8092W        W73352  38.992  42.359  12.960
 8093W        W73353  27.006  40.408   0.945
 8094W        W73354   0.860  42.828   0.369
 8095W        W73355  14.739  38.410  14.463
 8096W        W73356  13.626  26.510  11.529
 8097W        W73357  10.264  22.815  14.429
 8098W        W73358  18.060  31.032  12.605
 8099W        W73359  37.188   0.429   1.407
 8100W        W73360  44.531  29.876  13.841
 8101W        W73361  41.853   2.841  13.239
 8102W        W73362   5.168  25.221  14.884
 8103W        W73363   7.876  21.326  12.349
 8104W        W73364  31.497  18.781  14.505
 8105W        W73365  13.058   4.764   2.754
 8106W        W73366  11.901  39.291  10.662
 8107W        W73367  15.521  16.596  13.987
 8108W        W73368  38.740   4.320   0.573
 8109W        W73369  41.580  11.145  12.632
 8110W        W73370  37.069  33.428  10.357
 8111W        W73371  31.438  21.900  12.909
 8112W        W73372   3.183  41.723  13.602
 8113W        W73373   2.091   1.771  12.562
 8114W        W73374  36.923   0.230   1.857
 8115W        W73375  39.562   0.570   1.289
 8116W        W73376  39.010   8.056  11.632
 8117W        W73377   0.585  22.242  14.954
 8118W        W73378  32.031  40.918  11.412
 8119W        W73379  18.542  32.248   1.548
 8120W        W73380  39.278  39.335   3.098
 8121W        W73381  35.693  32.596  12.499
 8122W        W73382  11.252   4.578   1.874
 8123W        W73383  13.924  13.610   3.764
 8124W        W73384  35.013  24.058   4.690
 8125W        W73385   8.938  28.480  11.601
 8126W        W73386   6.347  16.299   1.920
 8127W        W73387  22.274  11.094   0.214
 8128W        W73388  38.951  23.796  11.505
 8129W        W73389  13.601  42.503   4.068
 8130W        W73390  23.274  38.188   4.398
 8131W        W73391  38.821  19.517   3.512
 8132W        W73392  33.302  14.098   1.260
 8133W        W73393   6.865  42.855  14.245
 8134W        W73394  33.136  18.030   3.647
 8135W        W73395   9.273  31.212   1.994
 8136W        W73396  12.721  24.765   1.929
 8137W        W73397  41.417   5.413  12.024
 8138W        W73398   3.327  40.069  12.401
 8139W        W73399  29.098  14.834   3.735
 8140W        W73400  35.818  36.525   3.997
 8141W        W73401  27.066   1.800  12.030
 8142W        W73402  44.297  23.913  13.918
 8143W        W73403   9.187  22.571   2.624
 8144W        W73404   5.918  35.628   4.044
 8145W        W73405  12.543  30.522   1.679
 8146W        W73406  13.534  36.130   3.331
 8147W        W73407  39.619   1.098   1.339
 8148W        W73408  41.916  33.539   9.888
 8149W        W73409   8.762  31.118   4.202
 8150W        W73410  21.845  22.372  14.848
 8151W        W73411  30.028  35.627  11.407
 8152W        W73412  30.284  14.078  14.020
 8153W        W73413  41.933  33.406  13.426
 8154W        W73414   5.335  18.585   1.373
 8155W        W73415  16.847  35.360   0.750
 8156W        W73416  42.711  17.933  13.535
 8157W        W73417   8.422  32.497  14.951
 8158W        W73418  15.638  30.664   4.148
 8159W        W73419  32.859  33.372   1.450
 8160W        W73420  31.978  28.207  13.297
 8161W        W73421   7.831   7.356   1.457
 8162W        W73422  14.313  12.895   0.474
 8163W        W73423   5.343  41.389   0.783
 8164W        W73424  34.969  12.122   3.894
 8165W        W73425  27.288  41.548   2.613
 8166W        W73426  16.648  44.045  11.564
 8167W        W73427   4.530  25.289  12.382
 8168W        W73428  10.355   8.339   3.200
 8169W        W73429  25.055  26.191   3.299
 8170W        W73430  39.921  11.729   5.085
 8171W        W73431  29.500  25.977   2.881
 8172W        W73432  28.953  35.090  12.397
 8173W        W73433   1.994   1.709  14.881
 8174W        W73434  27.225  15.131   3.125
 8175W        W73435  30.602  13.652   4.780
 8176W        W73436  10.432  34.980   1.857
 8177W        W73437  22.876  30.159   2.404
 8178W        W73438  36.848  21.285  11.139
 8179W        W73439  10.821  10.413  12.119
 8180W        W73440  16.095  35.696  13.905
 8181W        W73441  16.777  17.122  12.946
 8182W        W73442  44.403  13.734  12.175
 8183W        W73443   4.646   3.846   0.682
 8184W        W73444  34.841  21.969  12.626
 8185W        W73445  15.828  36.865  14.301
 8186W        W73446  38.022  36.737  13.807
 8187W        W73447  12.852  31.498   0.793
 8188W        W73448   2.988  26.009  14.009
 8189W        W73449  30.058  36.909   3.806
 8190W        W73450   0.974  40.517   3.952
 8191W        W73451  39.395  31.684   2.610
 8192W        W73452  29.034  20.181  10.625
 8193W        W73453  20.574  25.228  12.593
 8194W        W73454  38.806   1.329   1.289
 8195W        W73455  30.649   6.720  12.999
 8196W        W73456  11.184  14.853  11.704
 8197W        W73457  14.341   9.443   1.773
 8198W        W73458  43.335  20.061  12.449
 8199W        W73459   2.921  23.540   4.498
 8200W        W73460  13.181   2.527   4.188
 8201W        W73461  17.474  28.504  14.881
 8202W        W73462  34.899   9.126   2.063
 8203W        W73463  25.066   1.463  14.957
 8204W        W73464  31.972  35.267  12.194
 8205W        W73465  43.051  21.759   5.287
 8206W        W73466  31.926   9.271  11.438
 8207W        W73467   4.714   7.695  14.865
 8208W        W73468  44.387  11.680  10.797
 8209W        W73469  39.143  44.666   1.420
 8210W        W73470   0.817  23.730   4.118
 8211W        W73471  31.797  10.189   0.460
 8212W        W73472   0.222  42.618   3.768
 8213W        W73473  26.825  29.131   2.811
 8214W        W73474   6.952   7.765   2.762
 8215W        W73475  20.989  35.677   4.900
 8216W        W73476  39.064  19.540   4.600
 8217W        W73477  44.867  24.067   4.323
 8218W        W73478  15.180  12.224  14.523
 8219W        W73479  18.071  40.883  10.641
 8220W        W73480  22.619  41.626   4.977
 8221W        W73481  11.796   2.715  14.993
 8222W        W73482   9.178  43.746   2.925
 8223W        W73483  27.951  18.967   0.740
 8224W        W73484  22.247  32.659  12.454
 8225W        W73485   9.392  36.828  10.933
 8226W        W73486  15.790  28.049  12.008
 8227W        W73487   7.983  43.401   2.808
 8228W        W73488  26.754  41.573   1.782
 8229W        W73489  14.267  39.567   2.811
 8230W        W73490  37.087  15.990  12.954
 8231W        W73491   3.766  38.544  14.419
 8232W        W73492   6.893  32.831  11.160
 8233W        W73493  33.548  31.891  13.371
 8234W        W73494  41.647  38.531   4.684
 8235W        W73495  19.505  16.859   3.614
 8236W        W73496  14.999  22.218  12.523
 8237W        W73497  31.218  39.465   2.908
 8238W        W73498  32.256  19.065  14.908
 8239W        W73499  23.906   0.753   4.956
 8240W        W73500  42.038  25.094  13.910
 8241W        W73501  32.115  42.552  12.559
 8242W        W73502  28.959  38.580   1.912
 8243W        W73503  33.043   4.400   0.927
 8244W        W73504  28.640  34.335   1.293
 8245W        W73505  18.207   1.886   1.767
 8246W        W73506  29.825   1.028   1.453
 8247W        W73507  39.417  41.115   3.732
 8248W        W73508  12.786   3.760  12.534
 8249W        W73509  14.601  13.097   2.750
 8250W        W73510   4.679  21.260  14.002
 8251W        W73511  24.467  31.207   2.928
 8252W        W73512  19.735  23.908  14.099
 8253W        W73513   4.749  42.056   2.301
 8254W        W73514  19.550   8.289   1.824
 8255W        W73515  17.739  11.917  11.061
 8256W        W73516  36.880  27.667  13.348
 8257W        W73517  11.788  14.844  13.925
 8258W        W73518  18.972  25.506   0.038
 8259W        W73519  38.061  30.436   4.904
 8260W        W73520  37.358  34.579   0.365
 8261W        W73521  43.965   3.887   4.600
 8262W        W73522  25.101  22.074   0.906
 8263W        W73523  32.571  37.438  14.412
 8264W        W73524  24.203  29.020   5.063
 8265W        W73525  29.550   5.323  12.256
 8266W        W73526   3.926  37.547   4.032
 8267W        W73527  30.166  17.675   2.817
 8268W        W73528   4.251  26.156   2.684
 8269W        W73529   4.319  27.059  14.227
 8270W        W73530  30.187  34.853   2.700
 8271W        W73531  22.460  33.879   0.232
 8272W        W73532  32.907  16.775   3.599
 8273W        W73533   3.363   5.452   4.095
 8274W        W73534  39.563  39.041  11.592
 8275W        W73535  21.077  40.889  11.200
 8276W        W73536  11.696  35.987  12.835
 8277W        W73537  15.045   5.985   0.254
 8278W        W73538  40.046  23.002  11.156
 8279W        W73539  41.511  37.989   3.206
 8280W        W73540  26.033  10.047   1.294
 8281W        W73541  21.519  13.914   4.713
 8282W        W73542  36.387  44.947   2.232
 8283W        W73543  38.910   4.817   1.926
 8284W        W73544   0.802  24.724  12.370
 8285W        W73545  10.426   4.373  14.705
 8286W        W73546  39.539  31.392  11.203
 8287W        W73547  19.710  14.224  11.241
 8288W        W73548  42.284  37.441   1.099
 8289W        W73549   0.991  19.577  13.448
 8290W        W73550  39.267  40.403   0.717
 8291W        W73551  10.918   5.849   9.849
 8292W        W73552  11.148   9.414  14.072
 8293W        W73553   0.688  40.947  10.690
 8294W        W73554  31.569  23.546  14.549
 8295W        W73555  29.121  19.502  10.234
 8296W        W73556   6.839  25.653   1.843
 8297W        W73557  18.131  18.276  14.203
 8298W        W73558  23.966   0.000   1.773
 8299W        W73559  23.559  28.581   4.491
 8300W        W73560   6.695  44.759  10.537
 8301W        W73561  32.567   4.204   2.335
 8302W        W73562  24.561  21.505   1.314
 8303W        W73563  21.132  11.094  13.355
 8304W        W73564  19.340  39.059  12.943
 8305W        W73565   0.709  14.544  14.987
 8306W        W73566  36.077  20.359   2.316
 8307W        W73567  17.135  38.397   1.358
 8308W        W73568  25.645  15.514  10.169
 8309W        W73569  29.162  40.927  13.477
 8310W        W73570   0.684  43.555   1.018
 8311W        W73571   1.270  35.373  13.765
 8312W        W73572  26.666   4.649   5.485
 8313W        W73573   0.851  42.906  12.565
 8314W        W73574  22.338  44.816  14.410
 8315W        W73575   4.356  30.611  10.445
 8316W        W73576  17.568  13.074   3.193
 8317W        W73577  18.384   1.867   4.509
 8318W        W73578  12.036  15.785   1.800
 8319W        W73579  43.585  25.304  12.554
 8320W        W73580  19.650   2.099   0.040
 8321W        W73581  11.886  21.219  13.688
 8322W        W73582  18.175  11.198   3.109
 8323W        W73583  37.044   3.771   1.213
 8324W        W73584   7.062   9.176  12.928
 8325W        W73585  37.890  35.119  12.660
 8326W        W73586  44.060  11.188  13.764
 8327W        W73587  11.965  34.312  11.410
 8328W        W73588  28.709  28.587   2.863
 8329W        W73589   3.963  37.099  11.717
 8330W        W73590  18.889  14.718   4.928
 8331W        W73591  39.910  25.923  12.633
 8332W        W73592  25.944  16.000   1.352
 8333W        W73593  32.706  16.375  12.939
 8334W        W73594   8.914  43.764   3.362
 8335W        W73595  21.586  19.270   4.088
 8336W        W73596   5.344  44.315   1.338
 8337W        W73597   3.870  38.010  11.209
 8338W        W73598  40.991   1.235   4.436
 8339W        W73599  29.840   2.770  10.790
 8340W        W73600  17.675  43.461  10.710
 8341W        W73601  19.353  13.699  12.971
 8342W        W73602   8.963  17.817   0.268
 8343W        W73603  24.473  16.186   1.896
 8344W        W73604  24.062  23.125   2.439
 8345W        W73605  34.217  21.548  14.191
 8346W        W73606  40.850  39.624   4.257
 8347W        W73607  43.890  31.039   1.352
 8348W        W73608  33.005   9.117  12.541
 8349W        W73609   1.620  11.826  12.449
 8350W        W73610   1.751  29.303  10.969
 8351W        W73611   3.664  19.012  11.672
 8352W        W73612  25.954  25.722  13.035
 8353W        W73613  32.462  13.818   0.947
 8354W        W73614  19.324   8.462   0.892
 8355W        W73615   9.435  15.712   4.655
 8356W        W73616  34.579   9.749  13.964
 8357W        W73617  20.201  13.252  14.658
 8358W        W73618  26.544  16.658   2.318
 8359W        W73619  31.991  35.098   1.648
 8360W        W73620  32.504  26.220   3.962
 8361W        W73621  29.152  19.241  13.770
 8362W        W73622   3.788  19.631  14.369
 8363W        W73623  11.985  31.682   0.862
 8364W        W73624  38.181  16.311   1.867
 8365W        W73625  21.274  34.634  14.616
 8366W        W73626  23.040  41.352   2.356
 8367W        W73627  21.003   7.683  14.916
 8368W        W73628  31.595  38.064   2.255
 8369W        W73629  11.782  27.533   3.616
 8370W        W73630   3.932  11.824   3.277
 8371W        W73631  22.483  28.127   0.047
 8372W        W73632  24.561  44.858  12.993
 8373W        W73633  17.231  13.535   0.874
 8374W        W73634  32.429  40.427  12.837
 8375W        W73635   9.354  42.810  10.731
 8376W        W73636  15.672   9.263   3.583
 8377W        W73637  44.466  23.723   4.628
 8378W        W73638   6.523   4.944  11.066
 8379W        W73639   4.461   0.576   2.788
 8380W        W73640  19.772  31.070   0.866
 8381W        W73641  13.333  35.349  11.780
 8382W        W73642  22.742  12.952  13.518
 8383W        W73643  18.801  11.077  12.026
 8384W        W73644  18.779  13.637  13.877
 8385W        W73645  11.438   3.391   3.276
 8386W        W73646  34.517  20.135  12.609
 8387W        W73647  38.250   7.078   4.078
 8388W        W73648  29.492  30.585   4.094
 8389W        W73649  15.268  33.344  13.570
 8390W        W73650  31.903  33.299  12.084
 8391W        W73651  40.076  32.703   3.573
 8392W        W73652   4.912  23.233  12.847
 8393W        W73653  10.318  18.176  14.500
 8394W        W73654  10.049  37.558   4.474
 8395W        W73655  15.307  12.707  10.452
 8396W        W73656  42.404  37.593  12.389
 8397W        W73657  42.383  15.142  10.688
 8398W        W73658  20.577  17.552   0.350
 8399W        W73659   6.375  36.329   1.205
 8400W        W73660  30.968  27.485  14.195
 8401W        W73661  24.689  18.287  13.812
 8402W        W73662  10.741  25.771  11.679
 8403W        W73663  38.395  27.052   0.693
 8404W        W73664  17.520   5.975  10.796
 8405W        W73665  39.049  28.147   2.727
 8406W        W73666  11.369  26.424  14.236
 8407W        W73667   5.863  23.128  14.525
 8408W        W73668  26.631  11.756   3.585
 8409W        W73669  27.146  27.716  13.375
 8410W        W73670  17.070  19.930  14.302
 8411W        W73671  29.631  15.640   2.822
 8412W        W73672   0.239  28.408  11.200
 8413W        W73673  23.571  44.765  13.713
 8414W        W73674  28.555  25.647   0.347
 8415W        W73675  38.332  36.852   3.287
 8416W        W73676  35.335  26.534   0.827
 8417W        W73677  33.864   2.875   9.799
 8418W        W73678  38.014  32.146   2.156
 8419W        W73679  20.081  31.914  13.345
 8420W        W73680  23.125  26.927   3.913
 8421W        W73681  23.421   3.573  10.315
 8422W        W73682  16.310  25.960  13.965
 8423W        W73683  42.045  14.741  11.562
 8424W        W73684  42.435   9.296   3.105
 8425W        W73685  33.616   0.438  14.069
 8426W        W73686   8.692   3.687   3.727
 8427W        W73687  25.595  34.834  12.663
 8428W        W73688  34.840  34.117  14.326
 8429W        W73689  16.271  17.134  12.874
 8430W        W73690  29.901  26.745  14.970
 8431W        W73691   9.818   0.977  11.574
 8432W        W73692   7.166  40.519   1.384
 8433W        W73693  17.104  36.984  10.924
 8434W        W73694   9.741  23.022   5.490
 8435W        W73695   9.237   2.510   1.193
 8436W        W73696   9.898   5.653   0.271
 8437W        W73697  34.645  26.666  11.243
 8438W        W73698  38.156  37.995   2.450
 8439W        W73699  17.315  39.825   2.847
 8440W        W73700  40.338   5.277   2.623
 8441W        W73701  40.857  10.787  14.523
 8442W        W73702   8.294  28.455   2.730
 8443W        W73703  29.416  43.364  13.507
 8444W        W73704   8.434  34.863   1.944
 8445W        W73705   1.557  16.630  13.938
 8446W        W73706  24.460   0.952   1.853
 8447W        W73707  43.239  34.809  13.433
 8448W        W73708  26.007  14.806  11.057
 8449W        W73709  39.299  16.823  11.879
 8450W        W73710  13.219  15.509   0.271
 8451W        W73711  36.874  24.674   1.998
 8452W        W73712   1.361  43.868   4.363
 8453W        W73713  31.052  10.275  10.618
 8454W        W73714  39.587  41.911   4.923
 8455W        W73715   8.680  42.980   1.487
 8456W        W73716   5.658  37.917   3.647
 8457W        W73717   2.726  10.594   2.907
 8458W        W73718  31.629   0.322  11.184
 8459W        W73719  23.465  10.159  12.379
 8460W        W73720  31.434   1.952  14.816
 8461W        W73721  38.806  21.612  12.887
 8462W        W73722  33.085  32.722  14.839
 8463W        W73723  33.542  13.138  10.838
 8464W        W73724  41.277  12.705  10.764
 8465W        W73725  43.272  27.185  10.668
 8466W        W73726  15.922  37.403   0.075
 8467W        W73727   7.099  38.768  13.898
 8468W        W73728  11.601  33.373   1.273
 8469W        W73729  26.405  12.815  11.145
 8470W        W73730  39.765  43.467  12.957
 8471W        W73731  19.906  22.212  11.849
 8472W        W73732  22.757  26.994   0.022
 8473W        W73733  17.888  35.457  12.550
 8474W        W73734  42.830  42.607   2.545
 8475W        W73735  36.430   6.036   5.067
 8476W        W73736   2.215  17.859   3.007
 8477W        W73737  35.496  42.977  11.196
 8478W        W73738  24.940   0.817  12.833
 8479W        W73739  40.783  23.222  12.851
 8480W        W73740  42.991  37.166  11.068
 8481W        W73741  26.712   5.830  10.711
 8482W        W73742  17.039  23.141   2.841
 8483W        W73743  40.383   8.556  12.520
 8484W        W73744  33.683  17.930  14.350
 8485W        W73745  28.141  25.213   2.165
 8486W        W73746  38.232  19.202   2.890
 8487W        W73747  13.817  36.609   4.103
 8488W        W73748   7.178  17.200   3.267
 8489W        W73749  24.499  17.905  14.177
 8490W        W73750  24.681  39.466   9.753
 8491W        W73751   7.009   3.767   3.357
 8492W        W73752  14.550  38.287  14.930
 8493W        W73753  17.113  11.830   1.475
 8494W        W73754  32.619  26.775  13.966
 8495W        W73755  39.803  14.148  11.641
 8496W        W73756  34.011   6.161  14.823
 8497W        W73757  20.423  18.860  10.987
 8498W        W73758  18.116  33.675  13.767
 8499W        W73759   1.126   6.249   1.791
 8500W        W73760  31.250   5.755  12.527
 8501W        W73761  29.400  20.995  10.549
 8502W        W73762  32.499  12.337  12.907
 8503W        W73763  31.524  39.082   2.341
 8504W        W73764  11.637  23.517  13.319
 8505W        W73765   2.077  35.381  11.171
 8506W        W73766  14.567  43.533  11.563
 8507W        W73767  28.173   9.486   3.639
 8508W        W73768  32.289  38.020   2.733
 8509W        W73769  11.138  18.997  10.618
 8510W        W73770  16.559  39.528   0.845
 8511W        W73771  22.223  43.027  14.257
 8512W        W73772  12.902  15.705  11.594
 8513W        W73773  28.197   0.395  10.872
 8514W        W73774  41.030   7.673  11.526
 8515W        W73775  26.131   0.796   3.790
 8516W        W73776  26.786  34.088  13.014
 8517W        W73777  40.204  29.306   2.717
 8518W        W73778  20.694  33.078  11.158
 8519W        W73779  22.163  15.044   0.822
 8520W        W73780  41.436   1.915  11.205
 8521W        W73781  27.459   3.957   4.676
 8522W        W73782  36.956  43.394  14.821
 8523W        W73783  21.475  31.777  10.621
 8524W        W73784  39.685   8.941   3.075
 8525W        W73785  38.193  36.322  14.091
 8526W        W73786   0.324   2.711   1.727
 8527W        W73787  10.938  23.553   1.753
 8528W        W73788  23.570   2.023   3.322
 8529W        W73789  32.004   2.246  10.975
 8530W        W73790  15.649  19.148   4.155
 8531W        W73791   8.572  39.020  11.605
 8532W        W73792  21.253  42.467  11.453
 8533W        W73793   6.234  30.593   0.252
 8534W        W73794  28.375   4.837   1.490
 8535W        W73795  26.078  14.909  14.390
 8536W        W73796  32.483  23.461  11.038
 8537W        W73797  35.755   1.685   2.797
 8538W        W73798  26.585  32.993   2.751
 8539W        W73799  36.513   2.480   0.497
 8540W        W73800  22.321   5.225   1.901
 8541W        W73801  35.429  44.196   0.751
 8542W        W73802  25.338  37.896  11.074
 8543W        W73803  19.791   4.948  10.540
 8544W        W73804   4.209  39.857   4.674
 8545W        W73805   8.511  11.402  11.159
 8546W        W73806  20.510  12.423  12.461
 8547W        W73807  25.980  36.439  11.157
 8548W        W73808  33.887  33.343  14.028
 8549W        W73809  19.794  24.447   1.152
 8550W        W73810  14.766  15.314  13.309
 8551W        W73811  19.763  26.015   0.028
 8552W        W73812  26.466  39.309   3.247
 8553W        W73813  18.475   1.401   3.662
 8554W        W73814  15.837   3.445   0.302
 8555W        W73815   3.939   2.276  11.684
 8556W        W73816  29.587   5.982   4.680
 8557W        W73817  28.110  39.057  10.208
 8558W        W73818   3.920  39.361   3.244
 8559W        W73819  29.744   3.319   3.650
 8560W        W73820   6.283   8.232  14.052
 8561W        W73821  44.720  42.275   1.692
 8562W        W73822  13.515   6.122  11.039
 8563W        W73823  41.464   0.850  13.792
 8564W        W73824  14.735  12.324  10.661
 8565W        W73825  20.529   4.506   3.235
 8566W        W73826  37.267  21.263  14.751
 8567W        W73827  42.017   1.259  14.320
 8568W        W73828  34.717   8.476   2.715
 8569W        W73829  21.519   4.728  11.688
 8570W        W73830  16.934  34.690   4.132
 8571W        W73831  20.771  21.514   0.789
 8572W        W73832  32.141  42.421  14.449
 8573W        W73833  22.252  12.299   2.767
 8574W        W73834  37.925  10.453  10.280
 8575W        W73835   0.034  29.420   3.946
 8576W        W73836  41.531  26.126   0.323
 8577W        W73837   3.371  14.579   0.977
 8578W        W73838  24.403  10.125  12.886
 8579W        W73839  35.345   6.384   0.628
 8580W        W73840   7.359  24.989   0.394
 8581W        W73841  40.537   7.550  11.409
 8582W        W73842  41.336   0.181  11.201
 8583W        W73843  44.020  27.208  12.978
 8584W        W73844   2.874  36.703   1.880
 8585W        W73845  16.696  27.446   3.820
 8586W        W73846  28.219   9.485  10.724
 8587W        W73847  28.303   5.281  11.075
 8588W        W73848   0.652  28.147  11.000
 8589W        W73849  36.598  35.811   0.380
 8590W        W73850   8.616  34.548  12.466
 8591W        W73851  38.408  33.989  10.725
 8592W        W73852  30.796   7.358  12.679
 8593W        W73853  20.093  22.708  11.909
 8594W        W73854  42.320  37.516   4.114
 8595W        W73855   4.878  38.325   0.285
 8596W        W73856   4.762  17.437  14.935
 8597W        W73857  25.185  21.416   4.965
 8598W        W73858   0.357   7.374   0.680
 8599W        W73859  23.071   6.849   4.393
 8600W        W73860  21.131  28.046   4.274
 8601W        W73861  36.466  28.229   1.416
 8602W        W73862  38.897  24.491   4.045
 8603W        W73863  36.728  10.611  12.483
 8604W        W73864  43.520   1.748   5.297
 8605W        W73865  34.205  17.994  14.280
 8606W        W73866  37.233  33.868  11.721
 8607W        W73867   0.769   6.461  13.386
 8608W        W73868  34.607  24.201   1.158
 8609W        W73869  17.998   3.454   2.968
 8610W        W73870  35.574   4.000  11.447
 8611W        W73871  19.657  40.518   0.332
 8612W        W73872   5.987  27.221   0.842
 8613W        W73873  21.239  17.851   5.413
 8614W        W73874  21.665  41.784   4.517
 8615W        W73875  30.070  22.022  14.808
 8616W        W73876  16.966  43.446   1.752
 8617W        W73877  33.964  20.870   1.727
 8618W        W73878  21.990  14.720   4.376
 8619W        W73879  44.615   8.984   4.705
 8620W        W73880  18.574  36.450   4.357
 8621W        W73881   4.354  15.653   2.933
 8622W        W73882   3.377  30.998  14.278
 8623W        W73883   8.666  24.794   0.449
 8624W        W73884  18.966  25.193  11.089
 8625W        W73885  37.044   3.930  11.527
 8626W        W73886  42.259   7.287  10.735
 8627W        W73887   6.891  31.199   2.837
 8628W        W73888  17.141   9.736   2.595
 8629W        W73889  19.080  41.079  11.237
 8630W        W73890   9.407  39.348   4.587
 8631W        W73891  38.150  13.783   2.793
 8632W        W73892   1.027  18.533   2.596
 8633W        W73893   3.112   6.771   2.420
 8634W        W73894  22.562  18.268   4.089
 8635W        W73895  30.644   5.876   3.703
 8636W        W73896  17.124  23.300  12.975
 8637W        W73897  11.158  13.874   1.328
 8638W        W73898  11.443  15.859   3.633
 8639W        W73899  25.523  44.096  13.401
 8640W        W73900  26.864   8.274  13.445
 8641W        W73901   0.562  12.805  10.456
 8642W        W73902  29.585   4.277   0.290
 8643W        W73903   5.509  29.550   2.623
 8644W        W73904  21.727   2.743  12.421
 8645W        W73905  34.079  16.697  14.357
 8646W        W73906  17.690   0.492   2.878
 8647W        W73907  23.524  26.174  10.748
 8648W        W73908  10.773  30.988  12.443
 8649W        W73909  21.100  15.049   3.562
 8650W        W73910   2.169  25.709   1.940
 8651W        W73911  33.088  29.053   4.825
 8652W        W73912  13.143  13.569   0.315
 8653W        W73913  36.949  31.835   0.531
 8654W        W73914  26.632  11.653   0.757
 8655W        W73915   7.903   0.744  13.791
 8656W        W73916   5.907  26.195   3.824
 8657W        W73917  21.652  33.919   4.051
 8658W        W73918  39.140  12.630   4.083
 8659W        W73919  12.764  18.502  10.483
 8660W        W73920   3.973  20.611   1.262
 8661W        W73921  26.718  37.603   0.855
 8662W        W73922  33.841  19.330  12.739
 8663W        W73923  26.377  20.271   0.170
 8664W        W73924   6.896  25.488   2.877
 8665W        W73925  35.009  29.754  13.318
 8666W        W73926  37.335  29.450   1.054
 8667W        W73927  35.925  38.348  13.876
 8668W        W73928  18.968   5.811   3.226
 8669W        W73929  25.218  16.067   4.377
 8670W        W73930  30.121  10.450   1.326
 8671W        W73931   4.911  19.205  10.250
 8672W        W73932  40.251  14.529   0.950
 8673W        W73933  40.875   5.509   4.351
 8674W        W73934  24.185  26.477  11.662
 8675W        W73935  24.497  27.215   3.775
 8676W        W73936   3.311  42.313  13.952
 8677W        W73937  25.711  42.326   2.982
 8678W        W73938  36.852   0.703   2.070
 8679W        W73939  24.999   9.232   1.164
 8680W        W73940  14.188   9.189   2.714
 8681W        W73941  22.891  12.010  12.582
 8682W        W73942  31.688  42.275   3.190
 8683W        W73943   3.250  27.691  14.386
 8684W        W73944  31.045   2.304   2.843
 8685W        W73945  10.225  34.162  13.946
 8686W        W73946  15.572  38.531  11.979
 8687W        W73947  32.181  26.778  12.780
 8688W        W73948   8.400  13.751  12.113
 8689W        W73949   6.217  38.292  12.522
 8690W        W73950   5.061   6.480  10.314
 8691W        W73951   2.122  21.156   2.332
 8692W        W73952  16.121  24.002   4.302
 8693W        W73953   8.718  38.520  12.818
 8694W        W73954  27.136  20.492  12.730
 8695W        W73955   0.637  32.168  11.279
 8696W        W73956  18.467  17.157   1.728
 8697W        W73957  20.919   4.029   5.143
 8698W        W73958   7.919  36.979  11.104
 8699W        W73959  43.362  27.052   4.757
 8700W        W73960   6.800  42.321   3.915
 8701W        W73961  39.912  27.858   3.699
 8702W        W73962  40.446  34.887  12.098
 8703W        W73963   4.330   6.445  14.850
 8704W        W73964  12.754   5.506  14.503
 8705W        W73965   9.402  36.889   2.314
 8706W        W73966  15.313  40.361  14.868
 8707W        W73967   5.931  20.990  11.703
 8708W        W73968  14.313  43.970   1.144
 8709W        W73969  19.933  36.764   3.105
 8710W        W73970  11.664  29.644   3.044
 8711W        W73971  12.043   5.777  10.696
 8712W        W73972  27.040  30.586   1.870
 8713W        W73973  28.867   1.755  10.653
 8714W        W73974  31.949  43.859   4.339
 8715W        W73975  15.991  22.787   0.846
 8716W        W73976  20.055  11.429   3.219
 8717W        W73977  41.329  43.974  13.430
 8718W        W73978  41.283   0.762  10.742
 8719W        W73979   0.897   0.180  11.564
 8720W        W73980  26.085  14.878  13.036
 8721W        W73981   3.774   0.989   3.166
 8722W        W73982  40.500  44.559  12.569
 8723W        W73983  42.504  27.460  13.494
 8724W        W73984  16.529  13.731   1.626
 8725W        W73985  20.538   1.939   3.284
 8726W        W73986  16.294   3.351   3.961
 8727W        W73987  22.519  30.649  13.466
 8728W        W73988  17.954   7.834  11.691
 8729W        W73989  28.171  10.268  10.329
 8730W        W73990   6.611  19.486  11.719
 8731W        W73991  29.000  39.392  10.626
 8732W        W73992   5.396  34.370  10.744
 8733W        W73993  32.560   8.045   0.627
 8734W        W73994  44.603  36.820   2.723
 8735W        W73995  25.718  33.641  13.476
 8736W        W73996  13.082  26.538  14.355
 8737W        W73997  18.508  11.526  13.869
 8738W        W73998  31.581   0.447  12.963
 8739W        W73999  31.564  34.974   2.834
 8740W        W74000  10.911  33.598  13.040
 8741W        W74001  25.427  28.412   2.253
 8742W        W74002  31.954  34.609   1.813
 8743W        W74003   6.606  18.864  12.368
 8744W        W74004  40.230  26.035  14.447
 8745W        W74005  28.465  42.769   1.777
 8746W        W74006  27.252  36.941  12.854
 8747W        W74007   7.775  33.879  11.431
 8748W        W74008   1.556   6.398  13.053
 8749W        W74009  26.280  11.832  13.826
 8750W        W74010  14.546  39.854  10.325
 8751W        W74011  36.126  13.280   1.631
 8752W        W74012  21.271  25.778  13.299
 8753W        W74013  33.450  26.637  14.774
 8754W        W74014   5.325  15.314   0.375
 8755W        W74015  26.759  19.121   3.445
 8756W        W74016  32.384  42.804   5.072
 8757W        W74017  14.216  42.389   0.227
 8758W        W74018  24.573  34.948   2.612
 8759W        W74019   4.516  31.701  13.515
 8760W        W74020  31.935  28.162  14.524
 8761W        W74021  31.448   6.826   0.420
 8762W        W74022  43.356  19.130  14.877
 8763W        W74023  35.854   7.926  12.455
 8764W        W74024  21.522  27.149  11.522
 8765W        W74025  30.738  33.179   0.748
 8766W        W74026  43.065  36.521  12.155
 8767W        W74027  40.544   2.880   3.336
 8768W        W74028  18.634   1.894   3.496
 8769W        W74029  15.788  39.443   4.984
 8770W        W74030  38.025  44.340   0.806
 8771W        W74031  30.589  40.284   3.002
 8772W        W74032  32.946  36.125  14.356
 8773W        W74033  24.590  13.752  14.250
 8774W        W74034   2.354  41.552   1.198
 8775W        W74035  13.100  23.039  11.076
 8776W        W74036   5.005  15.914  12.908
 8777W        W74037  22.541  19.349   1.569
 8778W        W74038   2.796  10.121   1.958
 8779W        W74039   5.726   1.210  10.999
 8780W        W74040  25.782  16.691   1.701
 8781W        W74041  22.177  11.873   1.744
 8782W        W74042  34.843  29.928  12.532
 8783W        W74043   8.611  35.523  12.582
 8784W        W74044  24.177  11.907   1.965
 8785W        W74045   9.746  28.959   0.961
 8786W        W74046  40.706  38.339   3.719
 8787W        W74047   0.786   5.996  13.626
 8788W        W74048  36.844  16.117   2.766
 8789W        W74049  22.008  12.973  11.917
 8790W        W74050  44.451   8.046   4.177
 8791W        W74051   7.175  30.593   2.873
 8792W        W74052   8.875  20.058   1.287
 8793W        W74053  30.942  18.001   3.653
 8794W        W74054  41.571  17.746   1.745
 8795W        W74055  16.312  32.414  10.705
 8796W        W74056  23.547  13.283   1.380
 8797W        W74057  34.339  32.638  14.389
 8798W        W74058  41.273  29.951  10.650
 8799W        W74059   4.937   2.352   3.148
 8800W        W74060  34.784   6.783  14.847
 8801W        W74061  31.252  37.162   5.071
 8802W        W74062  22.305  16.131  10.668
 8803W        W74063  25.358  35.078  14.573
 8804W        W74064  25.180   4.021   3.632
 8805W        W74065   2.863  42.578  13.826
 8806W        W74066   6.288   0.420   0.520
 8807W        W74067  41.262   2.624   2.149
 8808W        W74068  20.744   1.075   2.765
 8809W        W74069  31.450  28.026  14.569
 8810W        W74070  11.768  18.668   4.556
 8811W        W74071   2.990   3.972  10.702
 8812W        W74072  13.080   0.458   0.284
 8813W        W74073  25.444  26.689  12.409
 8814W        W74074  38.360  31.635  12.495
 8815W        W74075  34.375  37.939  13.557
 8816W        W74076  13.701  13.281  11.600
 8817W        W74077  10.582  28.459  11.989
 8818W        W74078  40.644  25.505   4.862
 8819W        W74079   2.217  16.499   2.907
 8820W        W74080  44.293  25.280  13.786
 8821W        W74081  20.698  15.146  14.910
 8822W        W74082  14.671  29.953   1.774
 8823W        W74083   2.424  38.002  11.856
 8824W        W74084  40.834   1.830  13.463
 8825W        W74085  24.625  12.480   3.615
 8826W        W74086  36.928  35.992   2.517
 8827W        W74087  17.195  14.212   5.026
 8828W        W74088   9.907   2.238  11.973
 8829W        W74089  41.758  44.962  11.411
 8830W        W74090  35.294  19.008   1.003
 8831W        W74091  16.262   7.814   4.791
 8832W        W74092  39.227   7.267  14.648
 8833W        W74093  31.780   8.385  11.608
 8834W        W74094  21.015  11.553  11.654
 8835W        W74095   6.118  37.113   0.946
 8836W        W74096  19.978   3.735   0.936
 8837W        W74097  33.362  42.540  13.938
 8838W        W74098   5.815   7.949   4.142
 8839W        W74099  20.099  42.994   2.380
 8840W        W74100  32.949  42.810   2.848
 8841W        W74101  16.252   1.982   1.617
 8842W        W74102   7.661  29.653   4.296
 8843W        W74103  17.731   3.246  12.599
 8844W        W74104  29.685  11.405   0.330
 8845W        W74105  43.444  34.437  11.251
 8846W        W74106   0.736   9.407   4.079
 8847W        W74107   4.741   5.142   3.812
 8848W        W74108  24.337  43.799   4.161
 8849W        W74109   1.490  33.595  14.834
 8850W        W74110   1.229  42.416   0.397
 8851W        W74111  44.022  34.615  12.487
 8852W        W74112  42.467   7.104  12.927
 8853W        W74113  18.001  13.890  12.513
 8854W        W74114  34.354  37.634   2.596
 8855W        W74115  12.788  33.408  14.461
 8856W        W74116  15.278  29.163  13.731
 8857W        W74117  33.715  25.202   1.836
 8858W        W74118  27.027   8.763  13.366
 8859W        W74119   3.206  23.017   3.722
 8860W        W74120   9.093  24.743   2.225
 8861W        W74121  32.221  17.607  11.896
 8862W        W74122   9.091   7.729  14.890
 8863W        W74123  34.135   9.343   0.423
 8864W        W74124  21.746  23.498   4.559
 8865W        W74125   0.050  30.235  11.106
 8866W        W74126  21.532  33.087  11.988
 8867W        W74127  24.120  20.152  11.206
 8868W        W74128  44.354  27.776   3.235
 8869W        W74129  18.012  27.384   4.308
 8870W        W74130  40.857  17.119  14.826
 8871W        W74131  12.480  43.120  10.269
 8872W        W74132  36.567   1.057   2.825
 8873W        W74133   2.704   9.713  10.636
 8874W        W74134  16.282  30.133   3.603
 8875W        W74135  18.963   6.609  13.881
 8876W        W74136  38.705  14.464  12.402
 8877W        W74137  30.568  13.653   3.759
 8878W        W74138  39.558   1.928   2.138
 8879W        W74139   3.790   8.800  11.410
 8880W        W74140  18.357  29.653   4.093
 8881W        W74141  40.961  22.227   1.277
 8882W        W74142  26.533  40.910  14.290
 8883W        W74143  13.794  25.575  12.777
 8884W        W74144  10.264  38.044   4.550
 8885W        W74145  39.088  37.568  13.548
 8886W        W74146  29.904  15.913   4.143
 8887W        W74147  40.645   5.201  14.332
 8888W        W74148  30.917  15.285  11.104
 8889W        W74149  23.695  41.522   5.060
 8890W        W74150  14.159  11.721  11.965
 8891W        W74151  29.433   1.108  14.352
 8892W        W74152  41.885  44.560  13.383
 8893W        W74153  31.871  15.344  13.449
 8894W        W74154  35.856  26.794   3.592
 8895W        W74155  43.877  23.742   0.892
 8896W        W74156   2.924  30.631  13.594
 8897W        W74157  29.108  20.616   2.670
 8898W        W74158   1.448  38.336   1.699
 8899W        W74159   4.358  12.055  13.999
 8900W        W74160  26.529   7.574   1.806
 8901W        W74161  42.991  28.135  10.436
 8902W        W74162  29.443  36.781   0.773
 8903W        W74163  19.590   4.454   0.296
 8904W        W74164  25.116  42.336   4.620
 8905W        W74165   6.744  33.119  11.555
 8906W        W74166  43.342  37.040   4.585
 8907W        W74167  21.690  27.375  13.681
 8908W        W74168  23.909  15.058  14.884
 8909W        W74169  30.180  39.767  11.621
 8910W        W74170  31.590  17.125  11.215
 8911W        W74171  26.898  18.720  13.446
 8912W        W74172  13.868  39.035  13.843
 8913W        W74173  37.470  42.813   0.972
 8914W        W74174  30.414  31.874  11.848
 8915W        W74175   6.094  29.708  14.394
 8916W        W74176  25.793  42.491  11.678
 8917W        W74177   8.404   4.917  11.148
 8918W        W74178  31.867  36.920   1.881
 8919W        W74179  13.323  27.976   4.269
 8920W        W74180  16.226   1.692  11.372
 8921W        W74181   5.157  43.813   2.825
 8922W        W74182  44.829  32.850   2.009
 8923W        W74183  13.154   3.145   2.761
 8924W        W74184  19.770   6.308   3.329
 8925W        W74185  36.067  42.750  13.939
 8926W        W74186  12.930  23.169  13.328
 8927W        W74187  12.583   9.785   1.282
 8928W        W74188  15.118  21.129  13.870
 8929W        W74189   9.196  38.368   2.599
 8930W        W74190  28.494  14.321  13.938
 8931W        W74191  14.085  23.299  11.117
 8932W        W74192  37.922   3.388   5.514
 8933W        W74193   6.817  19.691  10.706
 8934W        W74194  20.747   7.695  11.702
 8935W        W74195   8.304  28.120   2.168
 8936W        W74196  13.675   4.526  14.274
 8937W        W74197  13.573  29.380  11.991
 8938W        W74198  25.954  10.645   2.591
 8939W        W74199  33.675   0.871  13.736
 8940W        W74200  30.517  42.531  10.735
 8941W        W74201  24.613  17.032   5.544
 8942W        W74202  36.402  39.784  11.217
 8943W        W74203  34.788  29.574  12.885
 8944W        W74204  29.517  38.290   4.126
 8945W        W74205  15.617   3.629  13.442
 8946W        W74206   7.096   1.453   0.305
 8947W        W74207  30.398  43.530   4.368
 8948W        W74208  29.393  11.335  14.040
 8949W        W74209  26.068  35.828   2.656
 8950W        W74210  36.447   7.667   4.124
 8951W        W74211  33.004  24.624   2.731
 8952W        W74212  36.517  18.840  11.003
 8953W        W74213  10.616  28.079   3.249
 8954W        W74214  22.472  27.506   2.262
 8955W        W74215  31.620   5.799  14.356
 8956W        W74216   2.805  33.046   0.003
 8957W        W74217  13.244  33.076   3.136
 8958W        W74218  37.771  22.183  10.210
 8959W        W74219   6.963  42.778   3.317
 8960W        W74220  24.803  27.507   0.941
 8961W        W74221  21.583   0.010  14.780
 8962W        W74222  40.370  17.190   1.081
 8963W        W74223   2.938   0.985   3.827
 8964W        W74224  17.721  15.551   2.533
 8965W        W74225  34.317  43.910   0.319
 8966W        W74226  19.637   3.607   2.473
 8967W        W74227  31.330   2.222   3.903
 8968W        W74228  17.110  28.599   1.794
 8969W        W74229   2.362  34.427  11.053
 8970W        W74230  15.680  18.768   3.193
 8971W        W74231  40.060   2.265  11.696
 8972W        W74232  22.555   9.674   0.422
 8973W        W74233  35.930  37.289   0.919
 8974W        W74234  24.031  19.823   4.324
 8975W        W74235  34.435  22.215  12.429
 8976W        W74236  27.969  26.568  10.610
 8977W        W74237  36.425  17.821  14.033
 8978W        W74238  15.501  33.189   3.692
 8979W        W74239  27.521  22.254   2.666
 8980W        W74240  15.583   8.884   2.199
 8981W        W74241  28.983  14.638  13.076
 8982W        W74242  26.498  35.740  11.683
 8983W        W74243  23.053  14.074  11.398
 8984W        W74244  36.934  34.150  12.484
 8985W        W74245  16.062  27.726  14.105
 8986W        W74246  36.045  28.252  13.403
 8987W        W74247  34.610  37.067   4.554
 8988W        W74248  27.771   3.380   2.676
 8989W        W74249  35.665  35.692  10.420
 8990W        W74250  30.821  33.817   2.645
 8991W        W74251   6.750   4.153   4.766
 8992W        W74252  12.171  18.752  12.503
 8993W        W74253  34.075  35.503   0.736
 8994W        W74254  30.098  18.334  13.236
 8995W        W74255   1.065  19.500  11.553
 8996W        W74256  35.591   5.951   4.536
 8997W        W74257  22.092  32.197   0.281
 8998W        W74258  44.689  29.180  14.435
 8999W        W74259  14.768  29.082  11.461
 9000W        W74260  18.060  34.949  11.720
 9001W        W74261  14.435  18.197   1.883
 9002W        W74262   5.860  23.722   1.764
 9003W        W74263  30.460  13.531   2.003
 9004W        W74264  40.610   7.265   1.293
 9005W        W74265  13.195   9.668   1.354
 9006W        W74266   5.341  17.280  14.614
 9007W        W74267  32.429  25.857   3.590
 9008W        W74268   5.394  39.995   3.162
 9009W        W74269   8.169  20.202  10.526
 9010W        W74270  16.002  34.336  14.840
 9011W        W74271  31.175  27.403  11.947
 9012W        W74272  31.625  10.832   3.641
 9013W        W74273  14.543   9.220  13.245
 9014W        W74274  14.227  10.798   0.181
 9015W        W74275  38.903  18.510   0.829
 9016W        W74276  28.022   0.342   3.108
 9017W        W74277   5.944  11.661   3.389
 9018W        W74278   1.718   2.451   4.536
 9019W        W74279  21.181   8.585  12.952
 9020W        W74280   1.424   6.337  10.877
 9021W        W74281  26.228  20.627   1.196
 9022W        W74282  36.251   2.461   3.201
 9023W        W74283  31.961  14.598  13.029
 9024W        W74284  39.251  42.789   3.294
 9025W        W74285  36.914  27.179   3.928
 9026W        W74286  40.713  18.769   0.807
 9027W        W74287   1.462   1.642   2.235
 9028W        W74288   5.130  12.708   1.735
 9029W        W74289  14.643  29.505   2.021
 9030W        W74290  35.448  26.017  10.271
 9031W        W74291  23.267   4.356  12.586
 9032W        W74292  40.766  14.165   3.519
 9033W        W74293  44.583  30.590   5.046
 9034W        W74294  27.855  38.405   0.894
 9035W        W74295  22.584  34.382   9.707
 9036W        W74296  23.332  42.501   3.005
 9037W        W74297  19.185  15.510   0.037
 9038W        W74298  25.607  34.752  11.661
 9039W        W74299  18.803  21.089  13.540
 9040W        W74300  24.789  22.578  12.031
 9041W        W74301  19.571   0.437  14.956
 9042W        W74302  36.225  19.562   2.658
 9043W        W74303  41.926  40.828   1.724
 9044W        W74304  16.913  43.508  11.109
 9045W        W74305  37.308  29.897   4.772
 9046W        W74306  14.307   7.783   5.130
 9047W        W74307  21.860  15.992   0.872
 9048W        W74308   5.962  17.775  14.376
 9049W        W74309  20.283   3.396   1.760
 9050W        W74310  31.368  33.295   2.848
 9051W        W74311  35.971   8.751   4.369
 9052W        W74312  21.644   5.318  11.766
 9053W        W74313  35.658  39.946  12.114
 9054W        W74314  22.217  37.393   2.214
 9055W        W74315  22.404  33.851   5.345
 9056W        W74316  19.907   3.674  11.502
 9057W        W74317  36.037  25.892   1.445
 9058W        W74318  39.185   4.218   0.913
 9059W        W74319  20.488  35.808   1.300
 9060W        W74320  41.332  30.270  12.496
 9061W        W74321  18.280  27.058   1.717
 9062W        W74322  20.751  12.689   4.062
 9063W        W74323   9.743  44.845   0.757
 9064W        W74324  32.533  27.637   2.589
 9065W        W74325  13.194   2.239  13.420
 9066W        W74326   7.643  25.282  12.462
 9067W        W74327  11.125  18.078  13.019
 9068W        W74328  32.943   0.224   4.684
 9069W        W74329   8.826   5.912  13.892
 9070W        W74330   3.425  11.196  13.145
 9071W        W74331  32.350  32.519  14.371
 9072W        W74332  12.495  31.850   0.956
 9073W        W74333  20.613  29.559   4.325
 9074W        W74334  33.361  39.037   3.708
 9075W        W74335   0.626  34.994  12.404
 9076W        W74336   8.644  24.998   5.019
 9077W        W74337  29.180  24.009  13.429
 9078W        W74338   7.871  22.310   2.731
 9079W        W74339  38.445   5.222   4.229
 9080W        W74340   0.307  44.334  12.483
 9081W        W74341  11.200  14.887   4.575
 9082W        W74342  39.760  31.324  10.725
 9083W        W74343  39.055  13.263   4.604
 9084W        W74344  38.880  26.099   0.740
 9085W        W74345   6.457  14.135  13.685
 9086W        W74346   9.935   2.801   3.621
 9087W        W74347   6.217  44.342  10.502
 9088W        W74348  31.460  37.047  12.997
 9089W        W74349  27.730  29.432   2.793
 9090W        W74350  24.111  14.762   3.556
 9091W        W74351   9.237  34.345   0.765
 9092W        W74352  22.118  41.573   2.455
 9093W        W74353  28.896  11.752  14.252
 9094W        W74354  33.861  16.809   2.194
 9095W        W74355   3.432  20.991  13.909
 9096W        W74356  34.775  10.678   0.990
 9097W        W74357  32.009  28.546   4.540
 9098W        W74358  21.837  40.595  13.869
 9099W        W74359  10.134  12.960   0.916
 9100W        W74360  19.993  16.562  14.018
 9101W        W74361  32.648  10.650   1.495
 9102W        W74362  12.279  17.358   2.367
 9103W        W74363  13.495  18.975  10.836
 9104W        W74364  30.049  24.384   0.678
 9105W        W74365  15.033  28.603   1.341
 9106W        W74366  11.869  43.832   0.889
 9107W        W74367  28.438  16.151  12.551
 9108W        W74368   5.965  38.214  13.441
 9109W        W74369  36.600  37.620   0.415
 9110W        W74370   6.771  37.094  13.449
 9111W        W74371  38.123  10.333  12.938
 9112W        W74372   9.322  14.792  14.404
 9113W        W74373  27.648  22.616   0.420
 9114W        W74374  42.712  34.534  10.868
 9115W        W74375  31.020  39.497   0.731
 9116W        W74376  24.696  44.839  14.176
 9117W        W74377  37.163  25.496   4.958
 9118W        W74378   9.600  27.973   3.535
 9119W        W74379  35.034  18.752  13.444
 9120W        W74380  24.683  42.483  12.493
 9121W        W74381   4.439   8.143   2.378
 9122W        W74382  23.162  30.620  11.538
 9123W        W74383  20.828  10.175  13.334
 9124W        W74384  43.069   9.074   0.553
 9125W        W74385  23.117   2.423   0.329
 9126W        W74386  22.104   7.942   1.803
 9127W        W74387  11.407  30.454  11.169
 9128W        W74388   3.874   5.031   2.666
 9129W        W74389  40.828  33.863   4.231
 9130W        W74390  23.422  35.812  12.984
 9131W        W74391  30.386  16.028   1.874
 9132W        W74392  40.011  26.672   5.108
 9133W        W74393  34.570  34.918  14.208
 9134W        W74394  36.667  42.371  14.447
 9135W        W74395  17.079  27.750   1.170
 9136W        W74396  18.977   8.027   3.538
 9137W        W74397  39.768  21.762   3.097
 9138W        W74398  38.816  37.285   0.255
 9139W        W74399  16.280  10.747   0.999
 9140W        W74400  13.866  38.057   4.118
 9141W        W74401  44.349   0.244   4.189
 9142W        W74402   7.461  37.970   4.080
 9143W        W74403   3.301  33.145  12.866
 9144W        W74404  15.698  17.036  14.624
 9145W        W74405  12.286  23.685  12.567
 9146W        W74406  13.093  30.049   2.273
 9147W        W74407  30.791  29.671  10.215
 9148W        W74408  18.317  43.363   0.484
 9149W        W74409  35.479  20.677   1.792
 9150W        W74410  43.526  17.201   2.824
 9151W        W74411   0.249  30.258   1.284
 9152W        W74412  30.161  26.238   0.848
 9153W        W74413  36.045  11.596  11.805
 9154W        W74414  15.086  22.743  14.073
 9155W        W74415  40.025  31.281   4.113
 9156W        W74416   2.642  30.168   2.556
 9157W        W74417  29.621  36.944  12.831
 9158W        W74418  22.751  36.666  14.959
 9159W        W74419  25.623   2.366   4.146
 9160W        W74420  28.941  36.341  12.111
 9161W        W74421  17.367  22.609   4.053
 9162W        W74422  37.841  40.975   4.088
 9163W        W74423  41.806  11.128   0.068
 9164W        W74424  19.808  25.138   0.470
 9165W        W74425  35.359  41.437   1.164
 9166W        W74426  24.390   8.421   1.955
 9167W        W74427  11.450   2.376   1.371
 9168W        W74428  44.439  33.673   3.734
 9169W        W74429  43.939  43.869   3.509
 9170W        W74430   8.322   7.664   2.227
 9171W        W74431  12.192   4.266   0.567
 9172W        W74432  41.942  25.022   1.882
 9173W        W74433   9.247  34.062  13.972
 9174W        W74434  21.009  38.267   1.855
 9175W        W74435  38.860   7.726   4.862
 9176W        W74436  19.826   5.507  14.850
 9177W        W74437  42.741  44.009   0.963
 9178W        W74438  25.522   0.337  14.893
 9179W        W74439  18.021   1.472   2.769
 9180W        W74440  42.244   7.423   0.058
 9181W        W74441  14.369  42.190  13.069
 9182W        W74442  36.912  23.919   2.292
 9183W        W74443  14.909  11.199  12.828
 9184W        W74444  41.644  21.301  10.362
 9185W        W74445  12.933  18.791   0.434
 9186W        W74446  16.682  16.697  13.253
 9187W        W74447  23.533  35.021  10.252
 9188W        W74448  28.559  17.793   1.864
 9189W        W74449  17.151  41.803  14.493
 9190W        W74450  20.691  16.669   0.763
 9191W        W74451  25.332  22.475  12.010
 9192W        W74452  36.421   8.815   3.063
 9193W        W74453  17.879  31.141   2.881
 9194W        W74454  11.351  18.559  14.296
 9195W        W74455  39.936  39.491   4.305
 9196W        W74456  16.863   1.062  12.929
 9197W        W74457   9.087   9.178   1.934
 9198W        W74458  23.603  31.467  13.513
 9199W        W74459   2.496  29.491  11.911
 9200W        W74460  18.136  18.661  11.401
 9201W        W74461  24.296  30.137  13.457
 9202W        W74462   0.016  21.151  11.977
 9203W        W74463  27.031   6.336   3.581
 9204W        W74464   2.261   3.949  13.368
 9205W        W74465  29.931  11.354   4.190
 9206W        W74466  10.982  36.198   3.759
 9207W        W74467   9.253  25.021   2.716
 9208W        W74468  22.143  27.651   4.756
 9209W        W74469  10.378  43.961  12.584
 9210W        W74470  13.354  40.463  14.299
 9211W        W74471  42.077  10.631   4.115
 9212W        W74472  16.170  28.726   0.756
 9213W        W74473  31.603  40.387  14.839
 9214W        W74474   5.300  17.735  11.444
 9215W        W74475   8.871  36.648   3.704
 9216W        W74476  28.217  41.942  12.021
 9217W        W74477  35.441  12.840  13.931
 9218W        W74478  17.054   6.170   3.748
 9219W        W74479  13.826  43.258  12.078
 9220W        W74480  25.882  25.967  14.940
 9221W        W74481  10.787  13.069   4.920
 9222W        W74482  41.742  43.543  12.462
 9223W        W74483  24.036  24.063   0.766
 9224W        W74484   5.854   8.373   0.907
 9225W        W74485   4.148   7.763   4.516
 9226W        W74486  10.141  21.413  11.436
 9227W        W74487  37.316  11.170  13.555
 9228W        W74488   5.656  36.986  14.853
 9229W        W74489   9.747  31.189   0.301
 9230W        W74490  36.087  18.957  14.817
 9231W        W74491  31.206   3.340  11.250
 9232W        W74492  39.813   8.253   0.236
 9233W        W74493  26.549  21.101  12.370
 9234W        W74494  18.035   3.728   1.633
 9235W        W74495  10.589  22.441  11.150
 9236W        W74496  25.885   5.460  11.728
 9237W        W74497  22.022  18.772   0.672
 9238W        W74498  39.873  20.264  14.174
 9239W        W74499   8.657   0.244  12.089
 9240W        W74500  20.806  15.316  12.805
 9241W        W74501  12.458   6.307  10.100
 9242W        W74502  10.373   4.799   1.358
 9243W        W74503  15.405  11.375   9.732
 9244W        W74504  12.436  19.999  13.379
 9245W        W74505  26.927  22.027   0.284
 9246W        W74506  39.023  23.025  11.057
 9247W        W74507  17.219  35.551   4.760
 9248W        W74508  27.412   7.835   3.566
 9249W        W74509  14.166   6.395   3.379
 9250W        W74510  28.640  16.852   4.478
 9251W        W74511  21.028  27.612   1.510
 9252W        W74512  43.009  23.497   1.042
 9253W        W74513  14.177  11.534  12.428
 9254W        W74514   4.717  16.768   0.238
 9255W        W74515  25.738  30.470   3.487
 9256W        W74516   6.639  30.526  11.900
 9257W        W74517  29.307   3.252  13.372
 9258W        W74518   2.909  27.561   4.756
 9259W        W74519  16.074  19.252  12.983
 9260W        W74520   7.537  41.775  10.996
 9261W        W74521  19.998  16.804   3.672
 9262W        W74522  29.700  35.837  13.993
 9263W        W74523  27.378  44.319   2.410
 9264W        W74524   2.804  12.285  11.258
 9265W        W74525  27.122   5.817   3.558
 9266W        W74526  20.806   4.331  11.988
 9267W        W74527  25.551  41.074   0.031
 9268W        W74528  37.587  42.431  13.439
 9269W        W74529  17.313  12.413  12.941
 9270W        W74530  15.138  25.682   4.115
 9271W        W74531  14.187  20.817   0.631
 9272W        W74532  32.049  40.560   1.890
 9273W        W74533  16.236  36.865  10.506
 9274W        W74534  28.663  36.626   3.821
 9275W        W74535  26.131  24.720  12.107
 9276W        W74536  40.051  31.371  11.168
 9277W        W74537  28.183  10.997   1.940
 9278W        W74538  28.877  38.087   1.842
 9279W        W74539   9.668  33.140  10.700
 9280W        W74540   0.962  13.310   2.346
 9281W        W74541  25.634   5.237   9.931
 9282W        W74542   0.766  33.276  12.609
 9283W        W74543   1.423  42.255  13.529
 9284W        W74544   9.881  42.123   1.267
 9285W        W74545  33.605  24.927   0.298
 9286W        W74546  11.876   9.638   0.990
 9287W        W74547  18.716  27.416   0.475
 9288W        W74548  36.037  22.817  10.948
 9289W        W74549  34.283  14.123  14.363
 9290W        W74550  41.589  25.081   2.706
 9291W        W74551  16.159  17.110   4.425
 9292W        W74552  15.383  11.702   0.708
 9293W        W74553  18.092  35.938  12.605
 9294W        W74554  22.109   5.789  12.295
 9295W        W74555  12.196  31.915   3.093
 9296W        W74556  33.000  20.132   4.666
 9297W        W74557   8.958  25.127  11.521
 9298W        W74558  26.899   7.905   3.591
 9299W        W74559   6.900   0.220   3.183
 9300W        W74560  44.800  44.488   0.390
 9301W        W74561  30.646   6.901   0.713
 9302W        W74562  43.508  14.075   1.030
 9303W        W74563   6.597  27.963   0.101
 9304W        W74564  23.164  40.235  11.113
 9305W        W74565  16.635   3.218  13.921
 9306W        W74566  16.734  42.948   3.106
 9307W        W74567   5.277  19.722  11.832
 9308W        W74568   4.421  32.556   2.287
 9309W        W74569  40.816  12.706   4.829
 9310W        W74570  19.552  20.460   0.031
 9311W        W74571  25.431  20.986  14.404
 9312W        W74572  36.485  42.203   3.642
 9313W        W74573  33.137  38.265  12.509
 9314W        W74574  12.935  23.391   2.836
 9315W        W74575  12.827  35.952  14.481
 9316W        W74576  12.678   2.813   1.633
 9317W        W74577  33.131   0.354   1.787
 9318W        W74578  13.028   0.432   1.234
 9319W        W74579  25.328  28.016  13.572
 9320W        W74580  42.819  35.133  13.523
 9321W        W74581  27.663  22.465   3.137
 9322W        W74582  10.615  32.636   1.927
 9323W        W74583  21.023  10.223   1.375
 9324W        W74584   8.176   0.477  11.184
 9325W        W74585   4.852  28.883   2.810
 9326W        W74586  31.834  32.904   0.558
 9327W        W74587   1.331  35.108   0.052
 9328W        W74588  34.595  18.215  12.506
 9329W        W74589   0.873  29.739   3.811
 9330W        W74590  19.344  41.933   0.373
 9331W        W74591   0.739   6.973   2.216
 9332W        W74592  15.721  30.126  12.500
 9333W        W74593  38.452  33.134   2.724
 9334W        W74594  23.911  11.821  12.528
 9335W        W74595  38.940   5.939   4.775
 9336W        W74596   9.403  43.756  10.634
 9337W        W74597  23.541  37.318   2.352
 9338W        W74598  10.266  14.800  10.663
 9339W        W74599  43.430   8.739   4.681
 9340W        W74600  20.649   4.135   2.657
 9341W        W74601   3.423  14.133  14.732
 9342W        W74602  15.538  23.587   4.605
 9343W        W74603  37.870  29.572   3.315
 9344W        W74604  32.797  16.059   2.375
 9345W        W74605   3.966  38.511  13.905
 9346W        W74606  35.656  32.140  11.137
 9347W        W74607  39.466  18.081  10.744
 9348W        W74608  34.031  24.182   3.855
 9349W        W74609  42.533   6.258   1.595
 9350W        W74610  30.218  13.382  14.392
 9351W        W74611  42.388   0.229  13.985
 9352W        W74612   0.438  43.078   1.139
 9353W        W74613  35.409  40.881  11.047
 9354W        W74614   6.150  19.188  13.508
 9355W        W74615   3.694  34.423  11.514
 9356W        W74616  36.874  23.246   0.730
 9357W        W74617  42.663   0.995  12.033
 9358W        W74618  41.857  29.124   4.672
 9359W        W74619  31.123  37.856   2.174
 9360W        W74620  10.295  33.783   1.467
 9361W        W74621  31.426  31.525  14.442
 9362W        W74622   8.521   6.767  10.207
 9363W        W74623  17.482  15.723   0.732
 9364W        W74624  38.771  17.337   1.468
 9365W        W74625  37.143  12.915   1.111
 9366W        W74626  38.635  43.245   2.764
 9367W        W74627  32.049  19.778  11.618
 9368W        W74628  18.480  26.125   2.696
 9369W        W74629  18.961  31.074  13.124
 9370W        W74630  25.178  27.148  13.868
 9371W        W74631  32.564  42.908  12.434
 9372W        W74632   0.259  14.323  10.580
 9373W        W74633  35.907  37.930   1.434
 9374W        W74634  37.354  32.298  11.024
 9375W        W74635  24.859   3.490   4.439
 9376W        W74636   9.134  41.475  10.951
 9377W        W74637  33.100  10.055   2.230
 9378W        W74638  33.636  15.291   0.950
 9379W        W74639  44.684   7.323  13.513
 9380W        W74640   7.383  40.932  12.508
 9381W        W74641  44.903  22.575  11.876
 9382W        W74642  28.962   0.936   3.936
 9383W        W74643  34.389  39.552   1.024
 9384W        W74644  24.901   9.654  10.643
 9385W        W74645  42.364   8.395   3.010
 9386W        W74646  35.596  35.500   1.405
 9387W        W74647  17.270  38.029  12.782
 9388W        W74648   8.488  26.563   2.712
 9389W        W74649  21.568  24.261   3.514
 9390W        W74650  14.836  18.261   4.273
 9391W        W74651  18.683  23.379   4.600
 9392W        W74652  24.161  12.419   1.913
 9393W        W74653  36.087  14.979   2.670
 9394W        W74654  44.060  15.204  12.381
 9395W        W74655   5.981   1.390  10.550
 9396W        W74656  35.352   8.097   1.169
 9397W        W74657  38.402   8.833   1.876
 9398W        W74658   3.636  12.406   0.829
 9399W        W74659  36.896  36.021  12.331
 9400W        W74660  23.682  13.376  11.882
 9401W        W74661  27.021  26.620  11.249
 9402W        W74662  44.259  41.098  14.548
 9403W        W74663  18.809  23.721  10.525
 9404W        W74664  28.486   0.084   3.199
 9405W        W74665  39.699  24.277   1.281
 9406W        W74666   2.927  13.258   4.559
 9407W        W74667  34.403  21.795   0.027
 9408W        W74668  20.047  35.455   1.340
 9409W        W74669  24.505  13.103   2.300
 9410W        W74670  43.993  43.953   2.967
 9411W        W74671  26.155  41.832   0.002
 9412W        W74672  44.532  27.214  14.457
 9413W        W74673  11.895  13.266   2.970
 9414W        W74674  40.272  31.712  11.659
 9415W        W74675  15.215  39.540   1.320
 9416W        W74676   1.699  31.114   1.010
 9417W        W74677  17.808  38.877   0.742
 9418W        W74678  42.392  21.673   4.149
 9419W        W74679   8.446   0.391   1.826
 9420W        W74680  28.226  40.920   4.510
 9421W        W74681   4.225  41.492  13.130
 9422W        W74682  39.876   6.184   2.909
 9423W        W74683  38.513  38.539   1.929
 9424W        W74684  13.050  15.849   1.758
 9425W        W74685  41.452   2.826   3.380
 9426W        W74686  22.303   3.724   2.724
 9427W        W74687  13.949  39.318   4.790
 9428W        W74688  36.956  35.057   1.039
 9429W        W74689  11.202   8.598   0.014
 9430W        W74690   9.314  43.053   3.740
 9431W        W74691  44.800  29.766  13.398
 9432W        W74692  29.009   7.819  10.693
 9433W        W74693  38.981   5.767   3.643
 9434W        W74694  16.429  37.537   3.978
 9435W        W74695  22.161  23.946   4.211
 9436W        W74696  31.381  40.041  10.904
 9437W        W74697   3.648  37.849   0.243
 9438W        W74698  43.913  21.613  10.358
 9439W        W74699   3.833   3.910   0.974
 9440W        W74700  15.845  25.626   2.140
 9441W        W74701  37.169   5.416  11.766
 9442W        W74702  18.782   4.790  10.338
 9443W        W74703  17.814  38.208  10.570
 9444W        W74704  37.382   9.903  11.453
 9445W        W74705  11.022  35.798  12.102
 9446W        W74706  17.963  43.749   0.285
 9447W        W74707  14.078  23.708   2.183
 9448W        W74708  28.053  29.205  11.663
 9449W        W74709  33.348  39.313  12.031
 9450W        W74710  25.718   5.815   0.863
 9451W        W74711  23.176  40.315  14.578
 9452W        W74712  37.021  29.587   2.215
 9453W        W74713   0.214  30.936  12.407
 9454W        W74714   6.183  43.260   4.590
 9455W        W74715  30.740   0.888   4.717
 9456W        W74716   4.954   8.095  12.084
 9457W        W74717  30.451  42.309  11.989
 9458W        W74718  24.560   9.742  14.668
 9459W        W74719  26.395   3.455  12.879
 9460W        W74720  10.300  28.117   1.025
 9461W        W74721   5.760  34.563  13.745
 9462W        W74722  25.113  15.909  14.625
 9463W        W74723  34.898  17.224   4.692
 9464W        W74724  31.136  35.324  11.875
 9465W        W74725  16.307  11.341   1.727
 9466W        W74726  33.955  37.042  13.411
 9467W        W74727   4.272  18.224  14.485
 9468W        W74728  41.341   5.244   0.851
 9469W        W74729  32.467  28.215   3.140
 9470W        W74730  18.800   6.487   1.374
 9471W        W74731   7.202  10.458  12.423
 9472W        W74732  39.397  38.372  13.394
 9473W        W74733  23.558   6.876   4.616
 9474W        W74734  40.843  11.100  12.132
 9475W        W74735  39.332  13.862   3.597
 9476W        W74736  44.877  15.670  14.996
 9477W        W74737  36.669  12.729   1.180
 9478W        W74738  32.527  34.867   0.934
 9479W        W74739  38.977  21.323  10.569
 9480W        W74740   9.467  26.726  14.392
 9481W        W74741  15.067   6.445   0.510
 9482W        W74742  32.148  25.205  13.037
 9483W        W74743  31.609   0.724  12.509
 9484W        W74744  24.980   2.718  14.044
 9485W        W74745   8.685  22.684   2.724
 9486W        W74746  22.533  15.841  14.871
 9487W        W74747  10.256  28.228  14.002
 9488W        W74748   6.843  16.205   2.070
 9489W        W74749  35.111  38.341   0.762
 9490W        W74750   6.348  30.964   1.621
 9491W        W74751  22.809  16.682  13.040
 9492W        W74752  43.612  39.809  12.537
 9493W        W74753  35.384  42.505   4.111
 9494W        W74754  36.018  15.012  14.937
 9495W        W74755  32.860  30.419  12.596
 9496W        W74756  32.487  24.636  10.352
 9497W        W74757  13.912  28.633  11.556
 9498W        W74758  33.903  26.007  12.790
 9499W        W74759  26.926   0.074   2.671
 9500W        W74760  13.612  13.596  12.024
 9501W        W74761  42.204  41.046  13.045
 9502W        W74762  35.495  39.897  14.873
 9503W        W74763  43.353  41.017   0.300
 9504W        W74764  35.465  13.965   2.352
 9505W        W74765  21.212  13.967   2.098
 9506W        W74766  11.563  34.558  14.919
 9507W        W74767   0.266  14.373  12.970
 9508W        W74768  33.646  20.233   2.396
 9509W        W74769  19.057  12.344  11.141
 9510W        W74770  18.524  27.262   4.417
 9511W        W74771  34.389  33.857   4.596
 9512W        W74772  14.635  32.924   3.823
 9513W        W74773  13.074  21.005   4.516
 9514W        W74774  36.803  16.824   0.836
 9515W        W74775   3.132  27.407  11.554
 9516W        W74776   9.934   3.302   0.408
 9517W        W74777  21.616  20.318   4.978
 9518W        W74778  12.542  35.131  12.097
 9519W        W74779  35.968  13.236  10.666
 9520W        W74780   8.933  16.888  13.771
 9521W        W74781  25.731  13.536   0.184
 9522W        W74782  25.130   3.650  13.866
 9523W        W74783  19.146  32.956  14.441
 9524W        W74784  16.733  10.980   3.073
 9525W        W74785  19.512  28.743  14.952
 9526W        W74786  17.647   9.236  13.991
 9527W        W74787   9.714  16.309   0.312
 9528W        W74788   8.134  21.575  10.677
 9529W        W74789  16.795   5.919  13.966
 9530W        W74790  13.026   4.393  12.953
 9531W        W74791   4.372  37.744   3.753
 9532W        W74792  24.912  20.767   1.742
 9533W        W74793  36.299  36.588  13.844
 9534W        W74794   4.257  28.061  13.547
 9535W        W74795  39.088  17.560   3.622
 9536W        W74796  37.039  34.873  11.383
 9537W        W74797  23.966  29.911  14.944
 9538W        W74798  12.776  16.016   4.609
 9539W        W74799  40.767  39.659  10.704
 9540W        W74800  10.393  26.645  13.185
 9541W        W74801  30.917   3.278  11.682
 9542W        W74802  21.255   5.173  14.830
 9543W        W74803  14.213   0.569   3.080
 9544W        W74804  11.953  32.018  14.251
 9545W        W74805   1.315  13.864   0.946
 9546W        W74806  25.645  11.609   1.837
 9547W        W74807   4.449  42.071  12.588
 9548W        W74808  29.627   6.794  12.992
 9549W        W74809  10.841  23.405  14.030
 9550W        W74810  33.471  32.531  11.668
 9551W        W74811  29.206  22.971  10.579
 9552W        W74812  12.822  34.531   1.066
 9553W        W74813   2.724   7.177   2.767
 9554W        W74814  18.078  18.364  13.338
 9555W        W74815  37.221  22.157  12.076
 9556W        W74816  20.213  14.377   1.105
 9557W        W74817   6.426   7.798  12.124
 9558W        W74818   1.353  27.138  14.982
 9559W        W74819  32.135  16.100   4.696
 9560W        W74820  19.054   7.427  12.454
 9561W        W74821  10.348   8.682   1.926
 9562W        W74822  17.527  38.012  14.496
 9563W        W74823  43.386  35.110  12.160
 9564W        W74824   6.676  31.557  11.683
 9565W        W74825  44.922  40.112  10.782
 9566W        W74826   3.989  18.542  11.087
 9567W        W74827  15.340  20.121  10.205
 9568W        W74828  17.528  22.468   2.763
 9569W        W74829  11.883  12.235  12.517
 9570W        W74830  36.775   9.774   0.091
 9571W        W74831   7.242  41.970   0.709
 9572W        W74832  21.994  42.876  12.383
 9573W        W74833  27.110   6.406  12.515
 9574W        W74834  18.500   4.334   4.493
 9575W        W74835  37.013  33.066   2.292
 9576W        W74836   4.617  15.755  14.281
 9577W        W74837  24.483  40.152  14.086
 9578W        W74838  13.806   3.636   1.827
 9579W        W74839  30.554  10.047  10.680
 9580W        W74840  34.579  19.376  12.097
 9581W        W74841  41.072  12.314   1.694
 9582W        W74842  34.919   7.351  10.413
 9583W        W74843  44.020   9.609  10.355
 9584W        W74844   3.838  44.418  11.634
 9585W        W74845   2.293  27.550  13.366
 9586W        W74846   3.977  19.931  11.055
 9587W        W74847  22.019   3.058   1.240
 9588W        W74848  16.171  35.622  11.179
 9589W        W74849  11.712  13.844   1.756
 9590W        W74850   4.161  34.203  11.524
 9591W        W74851  40.096  33.080   0.816
 9592W        W74852   9.319   7.286   2.767
 9593W        W74853  20.569  25.707   4.275
 9594W        W74854  28.620  25.620  14.356
 9595W        W74855  23.250   6.099   5.323
 9596W        W74856   6.424  31.638  14.500
 9597W        W74857  39.362  38.831  13.607
 9598W        W74858  35.652  13.074  13.498
 9599W        W74859  15.334  20.972   5.359
 9600W        W74860  20.091  28.482  11.603
 9601W        W74861  28.197  14.111  11.587
 9602W        W74862  24.761  16.579   1.775
 9603W        W74863  24.024  42.905   3.912
 9604W        W74864  37.869  28.006   1.945
 9605W        W74865   9.380  10.882  13.353
 9606W        W74866  10.427   1.391   4.055
 9607W        W74867  41.540  35.593   0.380
 9608W        W74868  40.835  33.112   2.355
 9609W        W74869   9.146  29.620   3.850
 9610W        W74870  24.149  27.979   1.546
 9611W        W74871  27.728   9.739  12.897
 9612W        W74872  42.595  25.975  12.066
 9613W        W74873  26.662  12.182   0.800
 9614W        W74874  34.587  38.017  13.075
 9615W        W74875  26.790  39.578  12.591
 9616W        W74876  24.902  19.110  12.572
 9617W        W74877  36.877  23.326  11.599
 9618W        W74878  17.708   3.889   1.259
 9619W        W74879   9.865   8.310   2.711
 9620W        W74880  38.930  44.018  11.094
 9621W        W74881  32.545  23.711   4.546
 9622W        W74882  12.112   2.095   1.805
 9623W        W74883  15.678  42.468   0.014
 9624W        W74884  34.984   5.704  10.215
 9625W        W74885   9.677  28.255   0.311
 9626W        W74886   2.278  28.141  11.504
 9627W        W74887  13.022  21.819   3.556
 9628W        W74888  44.839  13.269  14.578
 9629W        W74889  41.040  43.163  14.935
 9630W        W74890  39.355   5.350   3.075
 9631W        W74891   7.431   7.853   3.912
 9632W        W74892  34.365  15.238  11.571
 9633W        W74893  30.019  16.545  11.458
 9634W        W74894  20.549  26.429   2.189
 9635W        W74895  16.462  24.602   2.473
 9636W        W74896  36.923   2.890   2.670
 9637W        W74897  36.113  23.188  12.551
 9638W        W74898   7.226  27.299  14.428
 9639W        W74899  12.582  21.207  14.483
 9640W        W74900  38.311  16.589   0.763
 9641W        W74901   7.312   4.168   3.093
 9642W        W74902  18.870  17.670   1.862
 9643W        W74903  33.558  12.606   1.462
 9644W        W74904  27.351   3.174   3.494
 9645W        W74905  15.191   9.744   0.718
 9646W        W74906  41.310  31.625  12.376
 9647W        W74907  38.321  23.732  14.964
 9648W        W74908  30.175  36.164   0.498
 9649W        W74909  26.096  19.138   9.906
 9650W        W74910  21.976  31.656   0.284
 9651W        W74911  25.132  40.039   2.517
 9652W        W74912  11.176  22.576  14.051
 9653W        W74913  43.791  33.421   2.331
 9654W        W74914  24.480  41.073  10.686
 9655W        W74915  38.788  11.237   3.360
 9656W        W74916  14.298  43.204  14.790
 9657W        W74917  42.374  22.383  14.349
 9658W        W74918  41.375  35.736   2.901
 9659W        W74919  34.049  37.507   2.185
 9660W        W74920  23.486   9.404   1.498
 9661W        W74921  26.292  15.859  13.491
 9662W        W74922  39.046   5.123   0.892
 9663W        W74923  31.356  31.217  14.040
 9664W        W74924  15.458  29.994  14.901
 9665W        W74925  37.569   0.134   4.055
 9666W        W74926  28.321  11.377   0.726
 9667W        W74927  15.254  35.974  14.979
 9668W        W74928  43.053  38.577  14.627
 9669W        W74929   7.666  12.340   4.706
 9670W        W74930  35.889  38.428   2.353
 9671W        W74931  44.698   5.402   0.981
 9672W        W74932  21.121  29.390  14.387
 9673W        W74933  23.276  17.762  14.923
 9674W        W74934  33.544  33.572   2.116
 9675W        W74935  10.480  41.025  13.992
 9676W        W74936  14.714  37.008   0.793
 9677W        W74937  30.865  39.097   1.678
 9678W        W74938   3.319  14.202  14.238
 9679W        W74939   9.701   6.764  12.104
 9680W        W74940  11.167   8.732  14.476
 9681W        W74941  41.192  38.330  14.337
 9682W        W74942  32.652   1.873  11.158
 9683W        W74943  33.915   7.258  13.547
 9684W        W74944   3.986  14.719   1.789
 9685W        W74945  41.092  43.072  11.217
 9686W        W74946  23.462   6.824   1.783
 9687W        W74947  31.984  11.903   1.692
 9688W        W74948  24.951  16.228  13.475
 9689W        W74949  24.325  21.681  12.062
 9690W        W74950  32.917  11.860   1.301
 9691W        W74951  28.388  11.749   4.436
 9692W        W74952  30.957  19.578  13.877
 9693W        W74953  35.850  18.489  14.307
 9694W        W74954   8.767  17.705  12.761
 9695W        W74955  42.370  12.836   1.151
 9696W        W74956  21.521  40.069  14.635
 9697W        W74957  26.349  14.066   1.911
 9698W        W74958  21.497  44.397   3.134
 9699W        W74959  37.491  25.182  13.845
 9700W        W74960  19.496  28.204   0.821
 9701W        W74961  38.744  23.492   3.410
 9702W        W74962   5.669  44.570   4.182
 9703W        W74963   4.378   4.957  12.638
 9704W        W74964  19.609  35.388  11.628
 9705W        W74965   3.509  37.853   1.151
 9706W        W74966  12.027  22.418  12.015
 9707W        W74967  28.573  30.219   4.055
 9708W        W74968  28.041  39.284  10.666
 9709W        W74969  37.917  34.590  13.843
 9710W        W74970  29.410  11.842  12.873
 9711W        W74971  24.451  34.013  13.829
 9712W        W74972  21.213  21.693  10.651
 9713W        W74973  16.182  27.213  11.167
 9714W        W74974  27.501  30.582  13.037
 9715W        W74975  40.268  34.308  12.901
 9716W        W74976  13.187  20.275   1.401
 9717W        W74977  10.449  28.088  14.842
 9718W        W74978  35.902   3.450  13.347
 9719W        W74979  44.480  10.884  13.829
 9720W        W74980  20.087   4.494  14.997
 9721W        W74981  34.083  22.509  11.565
 9722W        W74982  21.791  12.859  10.694
 9723W        W74983  15.164   2.745  10.543
 9724W        W74984  30.881  19.761   3.178
 9725W        W74985  21.057  21.700  13.425
 9726W        W74986   8.999  15.335  12.792
 9727W        W74987  41.347   1.939  10.693
 9728W        W74988  15.110  26.632   1.518
 9729W        W74989   4.934  17.091   4.962
 9730W        W74990  30.898  29.177  11.191
 9731W        W74991   7.797   1.279  13.563
 9732W        W74992  39.009  17.640  13.880
 9733W        W74993  24.581   2.750  14.950
 9734W        W74994   4.200  12.776   1.652
 9735W        W74995  29.627  42.983   3.147
 9736W        W74996  39.416  13.621   4.077
 9737W        W74997   0.941  29.708   0.924
 9738W        W74998  41.808  39.440   0.435
 9739W        W74999  29.030  30.921  12.429
 9740W        W75000  30.153  22.213  12.958
 9741W        W75001  12.159  12.620   3.229
 9742W        W75002  25.012  24.058   3.362
 9743W        W75003   9.293  13.285   3.241
 9744W        W75004  16.560  40.272   1.289
 9745W        W75005  43.069   8.922  12.800
 9746W        W75006  23.083  41.587   2.815
 9747W        W75007  32.333   6.616  11.195
 9748W        W75008  21.321  37.522   1.214
 9749W        W75009   2.252  35.992  13.487
 9750W        W75010  28.104  44.723  12.006
 9751W        W75011  15.344  38.464   2.145
 9752W        W75012   3.945  41.361  10.565
 9753W        W75013  15.165  22.754   4.686
 9754W        W75014  38.362  12.514  10.601
 9755W        W75015  34.590   7.965   2.763
 9756W        W75016  24.639  16.304  10.459
 9757W        W75017   3.825  34.871   2.360
 9758W        W75018  35.413  21.294  14.109
 9759W        W75019  16.480  10.378  14.415
 9760W        W75020  17.821   1.523   0.905
 9761W        W75021  38.644  13.251   3.158
 9762W        W75022   0.788  27.669  11.138
 9763W        W75023  14.200  10.075  11.458
 9764W        W75024  12.706  24.341   2.290
 9765W        W75025  37.480   7.608  13.926
 9766W        W75026  35.989  23.109  13.039
 9767W        W75027  23.484   5.689  12.437
 9768W        W75028  40.029  43.399  14.458
 9769W        W75029  22.900  24.473  10.766
 9770W        W75030  25.619  10.716  11.463
 9771W        W75031  42.843   3.182  12.276
 9772W        W75032  37.116   1.328   1.206
 9773W        W75033  42.971  18.310  12.593
 9774W        W75034  34.382  18.027   4.636
 9775W        W75035  17.701   5.666  13.437
 9776W        W75036  36.027  28.649   2.412
 9777W        W75037  43.496   5.865   2.798
 9778W        W75038  21.064   6.912   3.993
 9779W        W75039  35.966  27.409  12.436
 9780W        W75040  29.710  35.490   0.290
 9781W        W75041  37.578  35.068  14.378
 9782W        W75042  33.429  41.524  10.108
 9783W        W75043  20.469   2.379   0.321
 9784W        W75044  17.577   7.331  11.534
 9785W        W75045  30.404  15.711  14.245
 9786W        W75046  34.569  33.111  13.395
 9787W        W75047  33.810  44.110  13.097
 9788W        W75048  31.163  38.864  12.963
 9789W        W75049  23.897  10.787   1.045
 9790W        W75050  25.720  20.149   2.638
 9791W        W75051   5.862  43.480  11.059
 9792W        W75052  30.042   9.584  13.375
 9793W        W75053  38.071   6.243  13.300
 9794W        W75054  27.138   4.645   5.280
 9795W        W75055  25.525  20.024  12.853
 9796W        W75056  41.995  23.895  12.757
 9797W        W75057  36.943  17.688   0.927
 9798W        W75058  25.248   5.223   2.509
 9799W        W75059  28.447  14.602   0.701
 9800W        W75060   0.998  21.040  10.414
 9801W        W75061   4.963  22.601  14.112
 9802W        W75062  22.565   1.002   3.727
 9803W        W75063  32.130   6.459  11.678
 9804W        W75064  27.335  15.746  10.178
 9805W        W75065   4.565  17.724  13.636
 9806W        W75066  14.540  31.219  12.112
 9807W        W75067   0.425   8.170   1.202
 9808W        W75068  34.944  38.107  11.562
 9809W        W75069  13.356   0.251   2.979
 9810W        W75070   5.955   6.742  13.044
 9811W        W75071  33.987   5.462  11.933
 9812W        W75072   6.766  25.836   4.085
 9813W        W75073   9.764  23.880  11.629
 9814W        W75074   2.769  27.114   3.507
 9815W        W75075  25.690   3.638  14.435
 9816W        W75076  16.810  31.836  12.974
 9817W        W75077  29.603  19.691  10.231
 9818W        W75078  25.614  28.127  12.747
 9819W        W75079  35.756  26.245   4.015
 9820W        W75080  37.635  41.932   1.983
 9821W        W75081  35.641  36.760   3.572
 9822W        W75082  42.169  24.243  11.074
 9823W        W75083  41.402  11.161   2.301
 9824W        W75084  13.873  30.901  13.002
 9825W        W75085   4.198  16.693   1.375
 9826W        W75086  29.613   7.283   3.862
 9827W        W75087   2.606   5.935  14.403
 9828W        W75088  42.337  23.980   0.983
 9829W        W75089  14.280  12.096   2.921
 9830W        W75090  38.936   8.984  11.504
 9831W        W75091  17.124  23.270  13.931
 9832W        W75092   9.492   2.926   1.392
 9833W        W75093   8.082   7.181  12.106
 9834W        W75094   3.401  14.887   1.378
 9835W        W75095  24.987  39.498   3.325
 9836W        W75096  23.708  41.766   3.163
 9837W        W75097   5.992  10.782   3.323
 9838W        W75098  44.549  22.132  13.501
 9839W        W75099   7.266   9.616   4.148
 9840W        W75100  12.802  26.406  12.455
 9841W        W75101  11.667  29.922   4.676
 9842W        W75102  33.336  18.529  14.334
 9843W        W75103  20.737  38.587  10.619
 9844W        W75104  35.110  34.240  14.761
 9845W        W75105  44.444   4.681  11.578
 9846W        W75106  14.819  36.432  14.284
 9847W        W75107  28.946  26.062   1.428
 9848W        W75108  22.706  13.816   1.396
 9849W        W75109   9.292  12.422   1.445
 9850W        W75110  13.088  40.419   2.206
 9851W        W75111  29.116  24.064   0.205
 9852W        W75112  36.925  26.415   1.369
 9853W        W75113  23.942  37.043   3.256
 9854W        W75114  36.982   3.747   2.298
 9855W        W75115  38.824  42.395   2.888
 9856W        W75116  34.474  16.612  13.471
 9857W        W75117   7.885  12.840  14.873
 9858W        W75118  30.008  35.705   2.157
 9859W        W75119  29.246  35.453  14.409
 9860W        W75120  10.423  15.021   4.213
 9861W        W75121  11.097  31.616   4.112
 9862W        W75122  23.042  13.798  10.493
 9863W        W75123   7.427  38.193  11.192
 9864W        W75124  29.575  28.705   1.550
 9865W        W75125  16.195  28.169   0.748
 9866W        W75126  24.085   7.301  11.988
 9867W        W75127  22.416   6.404   2.283
 9868W        W75128  19.439  17.791   0.074
 9869W        W75129  17.796   2.476  14.325
 9870W        W75130  27.925   4.702  14.018
 9871W        W75131  39.330  31.846   0.407
 9872W        W75132   7.697  10.573   2.731
 9873W        W75133  21.251  23.740   4.517
 9874W        W75134  23.150  27.891   0.476
 9875W        W75135  11.673  26.002  14.063
 9876W        W75136   3.751  19.793   0.225
 9877W        W75137  15.330  38.441  10.651
 9878W        W75138   2.962  38.639  11.995
 9879W        W75139  11.706   1.509  14.071
 9880W        W75140  11.839  30.332   1.308
 9881W        W75141  43.389  13.799  12.060
 9882W        W75142  10.521  19.236  14.238
 9883W        W75143   8.895  11.255   0.166
 9884W        W75144  42.826  25.997  14.966
 9885W        W75145   8.422   0.373  11.647
 9886W        W75146  40.999  25.184  12.002
 9887W        W75147  25.652  37.805   1.839
 9888W        W75148   3.519   1.962  13.337
 9889W        W75149  27.706  22.374  14.036
 9890W        W75150  12.540  43.379   2.324
 9891W        W75151  19.071   4.764  14.067
 9892W        W75152  38.165  21.637  13.728
 9893W        W75153   0.836  33.348   2.203
 9894W        W75154  14.867  36.577  10.532
 9895W        W75155  33.562   3.254   3.095
 9896W        W75156  13.139   0.222  11.592
 9897W        W75157  15.986  35.203  12.571
 9898W        W75158   4.802  24.608  12.624
 9899W        W75159  13.686  11.121   3.658
 9900W        W75160  30.898   7.951   1.417
 9901W        W75161  10.931   3.273   3.277
 9902W        W75162  39.257  12.202   1.506
 9903W        W75163  10.239  23.335  10.976
 9904W        W75164  38.883  21.552  11.040
 9905W        W75165  41.110  14.461   9.904
 9906W        W75166  43.941  10.640   4.477
 9907W        W75167  23.791  13.915   4.637
 9908W        W75168  41.261  33.044  12.452
 9909W        W75169  24.751  15.343   1.809
 9910W        W75170  20.283  11.421  11.021
 9911W        W75171  20.605  26.824   3.182
 9912W        W75172  20.442  39.292   3.152
 9913W        W75173  27.560   0.600   2.363
 9914W        W75174  20.585  11.331   2.578
 9915W        W75175  13.759  44.428  11.172
 9916W        W75176   3.341  12.919   5.119
 9917W        W75177   2.548  14.637   0.355
 9918W        W75178  40.026  41.133  11.667
 9919W        W75179  20.802  27.016  12.624
 9920W        W75180  39.292  37.110   4.170
 9921W        W75181  37.979  27.950   0.237
 9922W        W75182  40.618   5.766  13.502
 9923W        W75183  34.608  40.847   2.746
 9924W        W75184  20.512  40.108  10.721
 9925W        W75185  24.721  24.731   0.448
 9926W        W75186   3.521   2.934  13.944
 9927W        W75187  22.532  25.456  11.046
 9928W        W75188  39.330  44.450  12.689
 9929W        W75189  21.821   2.265  14.900
 9930W        W75190  31.469  24.656   5.133
 9931W        W75191  14.563  30.445   1.824
 9932W        W75192   1.442  23.679  12.882
 9933W        W75193   2.203   2.485  12.001
 9934W        W75194  17.868   2.449  12.901
 9935W        W75195  28.591  43.790  14.228
 9936W        W75196  30.698  37.973   1.207
 9937W        W75197  23.211  28.734  14.979
 9938W        W75198  18.486  13.242  11.149
 9939W        W75199  28.889  14.479  14.925
 9940W        W75200  43.458  26.982   3.252
 9941W        W75201  15.054  12.625  11.478
 9942W        W75202  14.303  17.651   0.373
 9943W        W75203  17.663   6.376   0.610
 9944W        W75204   3.254  36.964   1.606
 9945W        W75205  12.342  11.058   4.162
 9946W        W75206   4.679  21.643   2.183
 9947W        W75207  16.908  35.020  12.524
 9948W        W75208   1.548   1.407   4.296
 9949W        W75209   6.311  25.111  12.334
 9950W        W75210  22.194  38.761  11.062
 9951W        W75211  41.549   5.352   2.754
 9952W        W75212  39.593  21.078   3.680
 9953W        W75213  16.219  30.161  12.614
 9954W        W75214   7.376   8.680   1.221
 9955W        W75215  33.315  18.158   0.267
 9956W        W75216  23.177  20.822  11.681
 9957W        W75217   9.593   5.750   1.778
 9958W        W75218  10.033  37.551   2.671
 9959W        W75219  20.763   6.240  11.985
 9960W        W75220  14.797   7.367  12.702
 9961W        W75221  44.517   0.515  12.501
 9962W        W75222  32.637  20.336   0.687
 9963W        W75223  26.913  22.063   3.682
 9964W        W75224  15.707  26.463  10.649
 9965W        W75225  12.225   5.470   2.194
 9966W        W75226  35.617   8.359  14.995
 9967W        W75227  18.540   1.347  14.564
 9968W        W75228  28.997   4.604  11.717
 9969W        W75229  12.795  34.850  13.406
 9970W        W75230  19.642  16.707  11.513
 9971W        W75231  43.888   9.200   3.356
 9972W        W75232  26.259  22.356   9.324
 9973W        W75233   3.708  11.455  13.501
 9974W        W75234  27.128   3.262  12.068
 9975W        W75235  39.401  23.265  12.612
 9976W        W75236  40.057  35.339  13.858
 9977W        W75237   7.302  21.912   4.557
 9978W        W75238  31.523  21.486   2.337
 9979W        W75239   3.292   3.437  11.159
 9980W        W75240  35.463  14.889  14.879
 9981W        W75241  19.618  10.454   1.005
 9982W        W75242  21.869  39.043   0.675
 9983W        W75243  10.517  22.072   0.435
 9984W        W75244   0.242  25.512   3.240
 9985W        W75245  12.813  21.033   3.549
 9986W        W75246  19.085   7.202   5.053
 9987W        W75247  41.082  29.748   3.745
 9988W        W75248   9.652  37.577  11.199
 9989W        W75249   1.959  36.095   4.968
 9990W        W75250  28.628  28.382   4.453
 9991W        W75251  14.612  43.053  13.322
 9992W        W75252  21.179  38.541   0.230
 9993W        W75253   9.931  44.467   0.465
 9994W        W75254  33.940  30.707   4.642
 9995W        W75255  15.219  18.850   4.144
 9996W        W75256  23.220  33.931  11.486
 9997W        W75257  25.656  41.520   0.281
 9998W        W75258  15.245  14.827  14.422
 9999W        W75259  38.822  18.287   4.229
10000W        W75260  22.420   0.756  14.041
10001W        W75261  37.437  32.047   0.464
10002W        W75262  12.413  44.893  13.562
10003W        W75263  43.972  34.594   2.871
10004W        W75264   7.133  17.378  14.872
10005W        W75265  28.664  35.857  12.857
10006W        W75266  15.807  40.015   1.735
10007W        W75267  39.322  37.827   3.082
10008W        W75268  27.973   9.328   0.744
10009W        W75269  26.513  37.121  11.193
10010W        W75270  35.852  24.742   3.713
10011W        W75271  40.440   3.960   2.306
10012W        W75272  31.817  43.839  13.890
10013W        W75273   1.885  43.015   0.702
10014W        W75274   6.228  41.258  10.319
10015W        W75275  39.768  21.245   3.203
10016W        W75276  29.792  16.427   4.190
10017W        W75277  40.419  30.937  14.760
10018W        W75278  22.533  42.508   1.414
10019W        W75279  33.671   2.766   1.488
10020W        W75280   3.707  31.041   4.892
10021W        W75281  30.249   6.371  12.893
10022W        W75282  34.159  19.518   0.569
10023W        W75283  42.014  19.165   1.679
10024W        W75284  41.484  38.766  12.189
10025W        W75285   4.289  22.782  12.428
10026W        W75286  24.133  36.056   1.790
10027W        W75287  33.983  34.598  14.779
10028W        W75288  12.439  11.763  12.812
10029W        W75289  16.811  38.441  13.471
10030W        W75290  42.583  32.846   3.416
10031W        W75291  42.912  19.030   2.648
10032W        W75292  10.141  15.859   3.144
10033W        W75293  44.753   9.397  14.141
10034W        W75294  44.041   2.185  10.799
10035W        W75295  39.488   7.876   3.779
10036W        W75296  19.233   5.120   3.719
10037W        W75297  17.021  12.766  11.682
10038W        W75298  38.576  43.493   2.293
10039W        W75299  11.760  22.501   3.340
10040W        W75300   6.067  21.581   0.805
10041W        W75301  11.413  31.143  13.001
10042W        W75302  34.676  23.048   4.559
10043W        W75303   0.794   6.420  11.160
10044W        W75304   5.388  15.158  11.652
10045W        W75305  36.636  36.303   2.222
10046W        W75306  26.661   6.304  11.203
10047W        W75307  13.576  26.159   3.351
10048W        W75308   8.213   8.862   0.774
10049W        W75309  36.773  38.426  12.960
10050W        W75310   8.457  41.890   1.903
10051W        W75311  16.741  15.945   4.642
10052W        W75312  38.480  28.503   1.921
10053W        W75313  16.165  28.929  13.179
10054W        W75314   7.869  20.152  11.884
10055W        W75315  39.844  26.584  12.025
10056W        W75316  31.870  14.296   0.283
10057W        W75317  43.228  43.751  14.801
10058W        W75318  22.570  44.980  13.375
10059W        W75319  23.145  28.446   3.415
10060W        W75320  25.688  33.538   0.551
10061W        W75321  20.339   5.319   1.831
10062W        W75322  10.726  20.485  12.174
10063W        W75323  15.826  39.897  12.623
10064W        W75324  15.527  31.414  13.592
10065W        W75325  37.659   5.401   2.133
10066W        W75326  13.880  27.949   0.427
10067W        W75327  21.284  15.896  14.433
10068W        W75328  17.682  13.081  11.580
10069W        W75329  25.242   0.513  13.974
10070W        W75330  38.476  23.044   3.367
10071W        W75331  36.468   5.103   2.695
10072W        W75332  40.408  27.388  11.055
10073W        W75333  44.151  33.120  13.308
10074W        W75334  31.589  20.600   1.848
10075W        W75335  40.913   8.801  13.432
10076W        W75336  39.809  43.274   3.751
10077W        W75337  26.158  12.654  10.732
10078W        W75338  18.352  25.641   4.115
10079W        W75339  35.159  13.038  14.406
10080W        W75340   5.353  23.472   1.759
10081W        W75341  44.367  19.073   3.250
10082W        W75342  33.501  42.434  12.547
10083W        W75343  17.387  16.290  12.969
10084W        W75344  27.481  39.069   1.345
10085W        W75345  17.191  20.109   2.415
10086W        W75346  10.294  20.750  12.075
10087W        W75347  42.496  18.075  12.497
10088W        W75348  18.676  31.450   2.663
10089W        W75349  43.811  40.828   0.465
10090W        W75350   4.364  22.645   2.908
10091W        W75351   2.463  13.025  14.079
10092W        W75352  34.578  33.980   3.265
10093W        W75353   8.847  13.083   4.048
10094W        W75354  31.885  20.666   0.569
10095W        W75355  35.025  31.547  14.893
10096W        W75356  20.519  19.636  12.479
10097W        W75357   5.255  35.813  13.729
10098W        W75358  34.078  33.428  10.675
10099W        W75359  42.954   7.954   4.557
10100W        W75360  38.946  38.986  13.325
10101W        W75361   4.992  12.628  12.721
10102W        W75362  24.983  27.212   3.620
10103W        W75363  38.944  11.893   0.567
10104W        W75364  40.401  19.257   3.672
10105W        W75365  25.130  21.157  14.816
10106W        W75366  37.888  35.155   0.430
10107W        W75367  36.570  12.551  12.682
10108W        W75368  44.435  44.213   1.304
10109W        W75369  38.752   2.360  11.101
10110W        W75370  37.763   1.462  12.431
10111W        W75371  31.049  43.849  11.693
10112W        W75372  20.528  26.091   3.910
10113W        W75373  32.097   3.397  14.397
10114W        W75374  35.397  38.812  11.728
10115W        W75375  22.180  11.264  13.755
10116W        W75376  30.469  38.319   1.500
10117W        W75377  30.670  19.716   4.781
10118W        W75378  41.852  30.842  13.362
10119W        W75379   9.710  44.733   3.250
10120W        W75380  39.994  18.239   1.724
10121W        W75381  12.651  19.477  14.235
10122W        W75382  14.366  13.669   0.087
10123W        W75383  33.907   1.214  12.866
10124W        W75384   5.392  23.998  10.211
10125W        W75385  18.577  25.050  14.373
10126W        W75386  10.981  28.837  11.166
10127W        W75387  23.654  35.412   3.400
10128W        W75388  10.108  36.969  12.838
10129W        W75389  12.298   1.012   1.421
10130W        W75390  28.596   8.244   4.025
10131W        W75391  15.771  26.355   1.731
10132W        W75392  40.880   2.360   2.388
10133W        W75393  31.743  19.762   0.424
10134W        W75394  36.396  24.436  12.880
10135W        W75395  19.552   8.168   4.183
10136W        W75396   2.237  44.700   1.201
10137W        W75397   1.130  12.054   1.380
10138W        W75398  27.546  21.124   1.477
10139W        W75399  17.325  42.832  12.522
10140W        W75400  35.414  36.482  10.888
10141W        W75401  15.613  22.473  14.925
10142W        W75402  40.802   7.746   1.287
10143W        W75403  29.420   6.403  12.358
10144W        W75404   5.608   9.117  11.098
10145W        W75405  40.849   2.778  13.464
10146W        W75406  10.635   3.481   0.784
10147W        W75407   4.316  38.901  14.590
10148W        W75408  30.918  15.577   5.023
10149W        W75409  24.060  13.879   4.154
10150W        W75410   0.536  33.919   3.166
10151W        W75411  17.147  10.959  12.960
10152W        W75412  39.330   5.596  12.324
10153W        W75413  38.570  29.661  14.955
10154W        W75414  15.735  14.697   0.861
10155W        W75415  21.226  43.503   0.733
10156W        W75416  34.883  43.332  10.557
10157W        W75417   9.359  24.610   0.771
10158W        W75418  20.069  37.272  11.574
10159W        W75419  34.269   0.632   3.583
10160W        W75420   9.276  16.778   3.692
10161W        W75421  38.941  18.055   4.712
10162W        W75422  37.936  16.934  10.262
10163W        W75423  24.853  30.595   4.239
10164W        W75424  25.625  18.877   1.390
10165W        W75425  26.070  40.787  10.774
10166W        W75426  26.753   5.881  13.467
10167W        W75427  19.619  18.600  13.828
10168W        W75428  40.833  15.288   1.871
10169W        W75429  22.610  16.779  12.535
10170W        W75430   4.629  34.037  14.839
10171W        W75431  37.424  24.428  11.453
10172W        W75432  38.238   4.552   3.510
10173W        W75433  15.561  39.012   3.348
10174W        W75434  32.136  38.480   1.243
10175W        W75435  35.197   0.236  13.048
10176W        W75436  21.054  22.592   2.235
10177W        W75437  11.845  36.560   2.773
10178W        W75438  21.088  22.210   9.857
10179W        W75439  35.097  12.171  13.546
10180W        W75440   2.361   3.554  11.439
10181W        W75441  43.437   1.256   4.374
10182W        W75442   8.831   2.763   3.622
10183W        W75443  29.749  42.135  14.341
10184W        W75444  23.996  41.483   4.632
10185W        W75445   0.348   7.546  10.962
10186W        W75446   3.663  37.476  12.988
10187W        W75447   7.823  36.295  14.496
10188W        W75448  35.028   7.861  10.499
10189W        W75449   0.795   5.158  14.214
10190W        W75450   3.153   3.660   1.839
10191W        W75451  44.358  41.570   4.170
10192W        W75452  43.946   1.560   0.462
10193W        W75453   7.907  36.864   2.570
10194W        W75454  14.195  44.430  11.964
10195W        W75455  25.065  42.029  11.450
10196W        W75456   5.900   0.730   3.052
10197W        W75457  13.678   2.906   0.285
10198W        W75458  16.588  31.120   4.632
10199W        W75459  30.054  12.084   3.678
10200W        W75460   4.413   7.882   1.184
10201W        W75461  11.785  13.530  10.708
10202W        W75462  38.357  22.100  13.577
10203W        W75463  15.626  16.022  12.931
10204W        W75464   0.648   2.353   2.903
10205W        W75465   0.794   9.128   2.735
10206W        W75466  25.386  34.699   0.823
10207W        W75467   3.961  35.594   1.794
10208W        W75468  35.361  16.432   0.752
10209W        W75469  11.305  15.242   1.999
10210W        W75470  12.440  25.607  14.938
10211W        W75471  15.575  42.572  11.452
10212W        W75472   2.753  10.788   4.294
10213W        W75473   2.786  34.564   3.278
10214W        W75474   7.339  13.110   1.343
10215W        W75475  44.129   7.785  11.901
10216W        W75476   4.244  25.198   1.184
10217W        W75477  10.698   8.728  14.203
10218W        W75478   8.613  20.218  13.467
10219W        W75479  38.072  42.505  14.779
10220W        W75480  25.396   6.196  12.338
10221W        W75481  17.198   6.631  13.992
10222W        W75482  44.814  13.846   3.653
10223W        W75483  11.697  31.441   0.059
10224W        W75484  32.412   2.445   2.792
10225W        W75485   7.404  26.517  14.255
10226W        W75486  11.261   6.697   1.163
10227W        W75487  10.706  38.004   4.839
10228W        W75488   5.884   9.799   3.611
10229W        W75489   4.920  33.571   2.544
10230W        W75490  36.359  33.264   2.760
10231W        W75491  24.729  22.766  12.984
10232W        W75492  41.848  16.128   0.007
10233W        W75493  42.419  13.090  14.292
10234W        W75494  24.092  36.836  13.734
10235W        W75495  36.383  29.994  13.417
10236W        W75496  36.099  39.921  13.391
10237W        W75497  16.281  43.482  11.988
10238W        W75498  38.676   1.940   0.563
10239W        W75499   9.761  12.973   2.203
10240W        W75500   4.318   3.423  11.092
10241W        W75501  14.208  37.030   3.074
10242W        W75502   4.792  38.520   3.587
10243W        W75503  20.135  14.631  13.954
10244W        W75504  15.032  14.094   4.036
10245W        W75505  37.472   8.446   4.391
10246W        W75506   1.442   2.362  13.811
10247W        W75507  23.387   1.814   2.471
10248W        W75508  11.209  35.764  13.459
10249W        W75509  29.902  39.833  14.554
10250W        W75510  41.849  33.170  14.412
10251W        W75511  21.234  13.788  11.181
10252W        W75512  37.541  39.008   3.724
10253W        W75513   1.704  20.832   0.909
10254W        W75514  34.557  39.401  11.382
10255W        W75515  33.613   4.887  13.406
10256W        W75516  16.401  36.415  13.517
10257W        W75517  13.597  43.616  11.761
10258W        W75518   1.292  31.352  14.529
10259W        W75519  11.656  36.005   3.113
10260W        W75520  20.911   6.288  12.758
10261W        W75521  25.209   3.960  13.416
10262W        W75522   3.479  20.265  14.945
10263W        W75523  28.953  16.770   3.196
10264W        W75524  31.582  29.891   0.481
10265W        W75525  28.019  11.503  13.387
10266W        W75526  26.564  19.228  14.986
10267W        W75527  24.942  15.563   1.029
10268W        W75528  32.371   4.244  13.166
10269W        W75529  43.499  19.158  11.933
10270W        W75530  12.626  37.138   0.736
10271W        W75531  17.621   4.723  11.168
10272W        W75532  22.626  29.922   3.724
10273W        W75533  39.946  39.835  11.174
10274W        W75534  16.318  29.420   2.258
10275W        W75535  19.042  27.599  14.114
10276W        W75536  10.305  42.870   1.451
10277W        W75537   1.817  30.018   3.254
10278W        W75538   9.743  30.542   4.744
10279W        W75539  22.162  18.624  13.789
10280W        W75540  41.371   5.455  11.097
10281W        W75541  42.754  27.142  11.403
10282W        W75542  26.962  10.190  13.097
10283W        W75543  32.888  12.270   0.395
10284W        W75544  28.592  20.075  13.474
10285W        W75545  13.276  11.350  14.102
10286W        W75546  28.457  17.989   3.271
10287W        W75547  17.492  38.190  14.996
10288W        W75548  19.752   7.083  12.528
10289W        W75549  39.585  21.953   0.126
10290W        W75550  20.162  24.364   1.760
10291W        W75551  37.345  21.507  11.537
10292W        W75552  31.578  35.365   4.940
10293W        W75553  10.725   5.609   0.064
10294W        W75554  20.125  17.330   0.191
10295W        W75555  21.264  43.372   2.339
10296W        W75556  28.064  30.952   2.267
10297W        W75557  44.674  21.312  11.542
10298W        W75558  10.054  34.798   1.547
10299W        W75559  28.387  23.672   0.863
10300W        W75560  36.143  35.853   5.123
10301W        W75561  25.616   4.619   4.114
10302W        W75562   8.355  17.991   1.827
10303W        W75563  12.214   6.924  12.789
10304W        W75564   7.722  38.023   1.717
10305W        W75565  31.908  15.320  14.420
10306W        W75566   8.951  18.215   3.961
10307W        W75567  25.250  35.439   5.153
10308W        W75568  32.242  34.425   0.894
10309W        W75569  12.787   4.176   2.309
10310W        W75570   7.666  15.633  13.370
10311W        W75571   0.920  33.273  11.056
10312W        W75572  40.831  14.330   4.402
10313W        W75573  17.038   5.421  12.584
10314W        W75574  40.546  28.366   4.621
10315W        W75575   6.744  17.315   0.893
10316W        W75576   8.249  38.939  13.431
10317W        W75577   4.164   5.772   3.767
10318W        W75578   9.316  23.977   0.155
10319W        W75579   7.601  26.891  14.544
10320W        W75580  19.094  13.920  12.076
10321W        W75581  33.390  10.397  15.000
10322W        W75582  38.842  44.504  12.869
10323W        W75583  19.237   2.969   0.737
10324W        W75584  14.366  31.391   0.966
10325W        W75585  30.189  30.053   0.668
10326W        W75586  39.693   4.857   0.359
10327W        W75587  17.101   0.006   0.771
10328W        W75588  30.741  10.827   2.589
10329W        W75589  33.650  12.439   0.118
10330W        W75590   7.508  29.979  10.101
10331W        W75591  44.938  33.495   3.792
10332W        W75592  23.626  33.297   4.664
10333W        W75593  11.831  21.740  13.916
10334W        W75594  34.174   8.969  12.947
10335W        W75595   7.180   0.014  13.477
10336W        W75596  12.692  24.045  11.344
10337W        W75597  37.957  32.914   4.759
10338W        W75598  44.267  27.554   2.351
10339W        W75599  42.473  36.623  11.533
10340W        W75600  36.257   7.625  11.161
10341W        W75601  41.254   9.834  14.845
10342W        W75602  31.431  20.962  14.962
10343W        W75603  25.777  28.882  13.977
10344W        W75604  35.551  21.802  12.440
10345W        W75605  27.900  23.025   2.717
10346W        W75606  12.825  29.999  10.621
10347W        W75607  44.010  27.397   0.368
10348W        W75608  41.574  26.916   3.971
10349W        W75609  29.696  40.554   2.540
10350W        W75610  24.199  37.313   2.849
10351W        W75611  12.040  34.055  10.605
10352W        W75612  35.739  27.181  12.029
10353W        W75613  15.251  40.537  10.837
10354W        W75614  22.088  44.893  12.596
10355W        W75615  11.882  15.353  11.108
10356W        W75616  20.221  44.685   2.863
10357W        W75617  36.572  36.077  12.966
10358W        W75618   1.295  15.630   2.354
10359W        W75619  17.189  37.797   1.108
10360W        W75620  23.770   2.940  12.518
10361W        W75621  19.970   4.454  11.006
10362W        W75622  42.381  28.218  14.807
10363W        W75623  21.602  16.313  14.318
10364W        W75624  19.545  36.568  14.424
10365W        W75625  26.652  44.080  14.412
10366W        W75626   1.464  32.030   2.298
10367W        W75627  12.377  21.572   4.591
10368W        W75628   5.371  31.586   3.322
10369W        W75629  29.360  38.215   2.739
10370W        W75630  10.717  34.308  13.840
10371W        W75631  26.206  35.615  13.065
10372W        W75632  18.775  29.123  13.096
10373W        W75633  42.364  41.110   1.827
10374W        W75634   8.158   6.356   4.283
10375W        W75635  36.990  34.497  11.738
10376W        W75636  41.905   4.145  11.215
10377W        W75637   3.485   4.363  10.676
10378W        W75638  31.344  38.515   0.955
10379W        W75639   6.168  18.951  13.972
10380W        W75640  26.419   7.894   4.884
10381W        W75641   4.721  42.878  14.575
10382W        W75642  39.491  33.744   3.673
10383W        W75643   3.260  44.060  14.589
10384W        W75644  22.415  32.945  11.284
10385W        W75645  24.385  25.612  13.024
10386W        W75646  14.293  44.808   4.082
10387W        W75647  10.126   3.315   2.869
10388W        W75648  33.319   2.285   2.690
10389W        W75649  17.614   7.394  12.479
10390W        W75650  16.756  28.955  11.475
10391W        W75651  34.976  18.689   4.744
10392W        W75652  33.577  15.237   1.849
10393W        W75653  25.563   6.667  11.748
10394W        W75654   2.274  37.850   4.568
10395W        W75655  30.449  20.025  14.920
10396W        W75656  22.521  32.451  13.670
10397W        W75657   7.288  14.837  11.459
10398W        W75658  18.479  22.483  13.406
10399W        W75659  38.961  27.700  14.673
10400W        W75660  13.378  24.672   0.733
10401W        W75661  42.386   7.290   3.400
10402W        W75662   1.317  20.644  10.562
10403W        W75663  25.961   1.918  14.639
10404W        W75664   6.965  20.601  14.449
10405W        W75665  43.929   3.979   1.855
10406W        W75666  43.362  36.397  13.494
10407W        W75667  20.868  30.473   0.821
10408W        W75668  32.693  10.814   0.347
10409W        W75669  10.850  32.093  11.906
10410W        W75670  25.017  13.354   3.171
10411W        W75671   4.969  35.301   1.021
10412W        W75672   6.625  40.272   0.179
10413W        W75673   4.484   8.654   2.262
10414W        W75674  22.528  10.430  10.460
10415W        W75675  44.394   9.368  11.590
10416W        W75676  39.877   5.681  12.936
10417W        W75677  22.525  42.453  12.523
10418W        W75678  19.164  21.202   3.056
10419W        W75679  31.967  36.677  10.763
10420W        W75680  11.005   5.098   4.999
10421W        W75681  17.258  43.137  14.183
10422W        W75682   2.959   7.224  11.720
10423W        W75683  14.147  43.992   2.311
10424W        W75684  31.121   5.370  10.720
10425W        W75685  29.722  15.235   2.185
10426W        W75686   3.034  28.764   2.039
10427W        W75687   3.527  27.576   2.138
10428W        W75688   9.961  35.671   4.527
10429W        W75689  27.050  19.168  10.283
10430W        W75690  34.824   0.824   5.338
10431W        W75691  14.516  18.760   3.028
10432W        W75692  43.113  38.994  12.814
10433W        W75693   9.754  40.469   4.469
10434W        W75694  29.218  31.674   4.971
10435W        W75695   8.130  27.919   0.275
10436W        W75696  18.574  35.548   2.719
10437W        W75697  31.782   9.679  14.323
10438W        W75698  28.720  28.464   2.367
10439W        W75699  13.574  44.510  12.129
10440W        W75700   5.270  38.761  12.589
10441W        W75701  29.055  39.518   2.338
10442W        W75702  24.654  22.757   1.879
10443W        W75703  38.960  15.307   1.549
10444W        W75704  19.415  28.031  11.970
10445W        W75705  25.254  42.343   2.739
10446W        W75706  15.272  35.312   2.358
10447W        W75707  20.590  14.634  14.826
10448W        W75708   0.244  30.099   1.773
10449W        W75709  10.345   6.216   3.497
10450W        W75710  16.010  20.802   2.593
10451W        W75711  28.340  21.765  11.442
10452W        W75712  17.745  29.896  14.432
10453W        W75713  33.822   4.322   3.135
10454W        W75714  22.433  39.928  13.315
10455W        W75715  44.383  38.292   0.517
10456W        W75716   8.623  40.894   0.897
10457W        W75717  29.977  39.546   0.531
10458W        W75718   3.218  27.762   4.203
10459W        W75719  20.793  29.413   2.498
10460W        W75720  15.623   4.349   0.664
10461W        W75721  13.046  44.035   0.238
10462W        W75722   5.978  40.731   3.956
10463W        W75723  21.592  36.061  14.905
10464W        W75724  37.470   2.274  11.486
10465W        W75725  32.430  30.458  13.383
10466W        W75726   0.320   3.961  14.754
10467W        W75727  24.630  38.805  14.407
10468W        W75728  23.573  19.373  12.955
10469W        W75729  11.854  27.383  12.509
10470W        W75730  11.251  27.424  14.206
10471W        W75731  23.187  11.669   1.839
10472W        W75732  30.540  18.056   2.856
10473W        W75733  29.378  39.620  14.592
10474W        W75734  30.615  20.077  12.416
10475W        W75735  40.512  28.905  11.223
10476W        W75736  22.700  26.993   4.401
10477W        W75737  23.021   5.503   0.671
10478W        W75738  18.268  23.723   4.661
10479W        W75739  22.281  33.346   3.316
10480W        W75740  34.051   1.343   1.357
10481W        W75741  26.427  23.982  12.515
10482W        W75742  27.757  37.527  13.865
10483W        W75743  17.199  41.960  12.262
10484W        W75744  21.382  25.874  12.158
10485W        W75745  34.419  11.591   3.163
10486W        W75746  32.599  20.805   0.952
10487W        W75747  17.846  35.415  11.131
10488W        W75748   7.172  21.193  12.929
10489W        W75749  43.396   1.751  11.162
10490W        W75750  29.904  16.687   1.045
10491W        W75751   1.763  34.521  14.826
10492W        W75752   0.809  17.539  10.889
10493W        W75753  27.413   2.284   3.911
10494W        W75754  34.436  36.462  11.734
10495W        W75755   1.656  32.931  11.535
10496W        W75756  20.019  23.207  13.146
10497W        W75757   1.207  19.572   0.615
10498W        W75758  26.942  12.709   0.687
10499W        W75759  25.139  37.002   0.261
10500W        W75760  35.631  22.065   0.282
10501W        W75761   6.998   7.463   0.497
10502W        W75762  16.647  35.999  13.352
10503W        W75763  22.128  44.240  11.023
10504W        W75764  23.159  43.115   4.508
10505W        W75765  31.988  27.610  10.240
10506W        W75766   8.206   4.985  14.491
10507W        W75767   4.765  10.881   1.321
10508W        W75768  14.446   5.131   4.580
10509W        W75769  21.280  32.902   2.241
10510W        W75770  24.545  35.918   2.896
10511W        W75771  23.040   4.667  14.695
10512W        W75772   6.236  29.504  10.642
10513W        W75773  20.980   5.873  11.169
10514W        W75774  44.677  22.727   1.145
10515W        W75775  23.334  16.818  13.069
10516W        W75776  39.110  16.331   0.084
10517W        W75777  31.216  22.679   3.666
10518W        W75778  37.068  42.379  13.489
10519W        W75779  40.372  17.988   2.870
10520W        W75780  22.567   1.219  14.889
10521W        W75781   1.187  41.771  13.531
10522W        W75782  34.126  41.238  13.523
10523W        W75783  42.360  13.248   3.321
10524W        W75784   4.333  41.842   3.696
10525W        W75785  35.928  33.152  12.946
10526W        W75786   2.377  39.905  10.099
10527W        W75787   1.818   6.313  12.434
10528W        W75788  18.501  30.377  12.062
10529W        W75789   4.875  29.034   2.302
10530W        W75790   0.390  32.505   4.560
10531W        W75791  29.292   5.583   0.733
10532W        W75792  34.921   3.933   3.404
10533W        W75793  33.057  41.169  14.058
10534W        W75794  40.859  32.616  14.035
10535W        W75795  28.701  35.429   4.605
10536W        W75796  41.925  11.866  13.755
10537W        W75797  11.794  38.269  13.841
10538W        W75798  27.281  35.329   4.192
10539W        W75799  13.204  44.314   4.208
10540W        W75800   6.049   5.376   3.288
10541W        W75801  32.768   9.106  13.480
10542W        W75802  34.026  24.581   2.593
10543W        W75803  43.938   7.896   0.479
10544W        W75804  24.149  14.317   3.890
10545W        W75805  11.302  20.078   1.228
10546W        W75806  31.527   9.052   5.138
10547W        W75807  39.910  37.557   2.023
10548W        W75808  19.017   6.957   4.277
10549W        W75809  34.085  18.969  11.559
10550W        W75810  17.383  27.232  10.695
10551W        W75811  36.053  23.618  12.123
10552W        W75812  39.610  21.807  13.573
10553W        W75813  22.149  25.410   0.904
10554W        W75814  41.506  33.567  13.154
10555W        W75815  26.719  35.027   1.653
10556W        W75816  43.938  17.663   1.767
10557W        W75817  24.994   7.729   3.574
10558W        W75818  29.305   2.469   2.176
10559W        W75819   6.769   4.405   0.235
10560W        W75820  20.189  25.652   2.430
10561W        W75821  44.950  34.432   1.847
10562W        W75822  27.230   0.467  12.964
10563W        W75823  20.999   9.265   1.543
10564W        W75824  10.841  37.915   1.233
10565W        W75825   2.401  38.798   0.689
10566W        W75826   1.796   7.070   2.830
10567W        W75827  29.885   8.671   1.827
10568W        W75828  11.840  33.081  14.883
10569W        W75829  14.073  37.970   3.259
10570W        W75830  14.219  30.255   4.919
10571W        W75831  37.441  32.150  13.317
10572W        W75832   1.556  13.221   1.911
10573W        W75833  43.355  35.857  13.480
10574W        W75834  18.152  29.591   0.104
10575W        W75835  25.103  30.585  13.424
10576W        W75836  27.122  40.804   4.404
10577W        W75837   6.258  36.134  14.708
10578W        W75838  24.975  37.428  13.353
10579W        W75839  21.240   2.759   1.700
10580W        W75840  16.761   0.973  14.682
10581W        W75841  15.718  23.491  11.597
10582W        W75842  22.151  15.024   1.744
10583W        W75843  11.564   5.175   5.019
10584W        W75844  44.904  19.009   3.903
10585W        W75845  31.579   6.357  10.815
10586W        W75846  33.367   0.844  12.015
10587W        W75847  29.446   0.608  14.460
10588W        W75848  30.857   6.815   3.171
10589W        W75849   0.903   1.655   4.997
10590W        W75850  35.285  27.698   4.916
10591W        W75851  15.900  21.375  11.509
10592W        W75852  14.601  37.040  10.423
10593W        W75853  23.213  29.805   2.589
10594W        W75854   8.567  33.587   2.346
10595W        W75855  40.910  20.944  13.951
10596W        W75856  34.414  34.404  13.022
10597W        W75857   5.519  31.291   2.939
10598W        W75858   2.071  24.145  14.847
10599W        W75859  11.219  12.888   0.204
10600W        W75860  29.690  42.427   1.658
10601W        W75861   4.882  27.214   3.839
10602W        W75862  24.524  24.844  12.675
10603W        W75863  27.472   9.334  14.838
10604W        W75864   0.812   8.633  14.273
10605W        W75865  25.167   9.760  14.312
10606W        W75866   6.760  19.157   3.225
10607W        W75867  26.304  28.535   3.775
10608W        W75868  39.432  44.771   1.853
10609W        W75869  21.248  43.323   4.119
10610W        W75870  15.536   5.105  11.089
10611W        W75871   9.453  33.175  14.108
10612W        W75872  42.532  33.060   4.340
10613W        W75873   3.687  43.855  12.424
10614W        W75874   1.748  40.241   3.449
10615W        W75875  32.924  10.096  14.174
10616W        W75876  38.138  39.720   0.954
10617W        W75877  43.059  43.254   5.087
10618W        W75878  36.069  33.090  12.046
10619W        W75879   1.260  23.576  11.073
10620W        W75880   9.652  39.176  12.140
10621W        W75881  15.608  35.429  14.388
10622W        W75882  44.698   4.500   0.920
10623W        W75883   8.230   3.813   4.079
10624W        W75884  17.875  37.328  12.405
10625W        W75885  25.502  23.116   3.280
10626W        W75886  28.703  32.270   2.231
10627W        W75887  42.464  23.520  12.000
10628W        W75888  24.877  11.806   4.096
10629W        W75889  22.777  41.704   2.053
10630W        W75890  19.060  23.945  11.465
10631W        W75891   6.624  38.166   2.915
10632W        W75892   3.394  25.898   0.917
10633W        W75893   7.231  38.030   4.546
10634W        W75894  18.123   9.369  13.915
10635W        W75895  10.512  18.936  14.983
10636W        W75896  39.048  24.457  13.584
10637W        W75897  11.868  22.319   0.815
10638W        W75898  39.873  15.265   3.388
10639W        W75899  31.939  39.501  14.023
10640W        W75900  22.394  38.736  13.997
10641W        W75901  35.601  11.030   0.725
10642W        W75902   8.829  11.295  10.764
10643W        W75903  23.277  13.234  11.570
10644W        W75904  40.595  17.799   1.470
10645W        W75905  24.150  14.293   3.345
10646W        W75906  21.580  24.155  10.798
10647W        W75907  19.651   0.432   0.471
10648W        W75908  14.963  34.307  14.957
10649W        W75909  37.814  36.531  11.161
10650W        W75910  38.322  34.000  11.599
10651W        W75911   3.994  10.416   1.358
10652W        W75912  16.006  40.131   5.145
10653W        W75913  42.593  29.864   4.116
10654W        W75914   1.791   5.252   3.222
10655W        W75915  10.333  28.370  11.554
10656W        W75916   8.838  26.283  12.520
10657W        W75917  43.700  44.352   0.363
10658W        W75918  21.215   4.026   4.274
10659W        W75919  39.505  40.138  13.094
10660W        W75920  35.785  31.983  13.809
10661W        W75921  41.976   8.773   4.569
10662W        W75922   1.218  22.044  14.247
10663W        W75923  26.513  37.620  13.602
10664W        W75924  37.116  18.274  13.399
10665W        W75925  43.685  14.514   1.325
10666W        W75926  36.409  17.478   0.001
10667W        W75927  11.612   6.722  14.050
10668W        W75928  27.104  18.258   0.822
10669W        W75929  13.842  18.895   0.359
10670W        W75930  30.891  40.937   3.270
10671W        W75931  35.775  41.278   0.188
10672W        W75932  27.060  14.612   1.014
10673W        W75933  20.052  37.773  11.536
10674W        W75934  43.583  14.813  11.093
10675W        W75935  39.442   8.406  12.371
10676W        W75936  23.971  25.578  13.364
10677W        W75937  20.074   7.403   3.238
10678W        W75938  27.790  29.411   4.519
10679W        W75939  15.314   4.708   3.691
10680W        W75940   1.688   4.685   0.295
10681W        W75941  12.171  13.863   0.501
10682W        W75942  39.377  23.156  13.551
10683W        W75943  32.862  17.547  11.062
10684W        W75944  28.696  24.311   3.794
10685W        W75945   0.356   6.814   3.776
10686W        W75946  17.159  21.186   0.009
10687W        W75947   8.832   8.714   2.200
10688W        W75948  38.383   8.239   2.874
10689W        W75949  31.634  39.315   3.185
10690W        W75950   3.977  12.125   1.945
10691W        W75951   9.257  34.065   4.141
10692W        W75952  36.401  36.339   3.228
10693W        W75953  12.227   5.455  11.064
10694W        W75954   4.414   3.412   0.520
10695W        W75955  11.191  27.446   9.710
10696W        W75956  32.135  11.910  14.296
10697W        W75957   9.930  11.256  10.236
10698W        W75958  35.591  13.855  14.502
10699W        W75959  16.238  38.052  12.942
10700W        W75960   8.874  28.128  14.801
10701W        W75961  11.161  13.569  14.516
10702W        W75962   4.115  42.822   5.137
10703W        W75963  42.847  16.638  14.937
10704W        W75964  22.775  10.777   4.471
10705W        W75965   2.458  40.745  14.789
10706W        W75966  36.756  19.748   0.447
10707W        W75967   3.007  22.566   2.790
10708W        W75968   2.688  39.872  12.434
10709W        W75969  15.869  18.881   4.964
10710W        W75970  20.789   5.056   1.941
10711W        W75971  44.491  30.216  13.422
10712W        W75972   7.787  29.890  11.462
10713W        W75973  32.931  35.293   0.879
10714W        W75974   8.895  40.566  10.556
10715W        W75975  15.773  18.836   1.313
10716W        W75976  31.835   3.610   1.943
10717W        W75977   8.880  21.611  11.147
10718W        W75978  18.941  35.889   3.714
10719W        W75979  22.657  37.339   9.997
10720W        W75980  36.703  35.923   3.185
10721W        W75981  22.130  35.865  12.699
10722W        W75982   7.858  13.284  12.937
10723W        W75983  40.343  11.274  12.021
10724W        W75984  22.257  43.446   2.349
10725W        W75985  10.863  37.155  12.671
10726W        W75986  40.077   5.301  13.649
10727W        W75987  36.362  36.887  12.480
10728W        W75988   1.464  12.047   3.680
10729W        W75989  24.569  39.822   3.230
10730W        W75990  44.709   6.139  10.580
10731W        W75991  30.622   3.791   1.383
10732W        W75992  22.702  12.335   4.370
10733W        W75993  35.016  20.581   3.109
10734W        W75994   8.438  26.023  12.320
10735W        W75995  38.844  27.141   1.639
10736W        W75996  23.248   5.938   3.093
10737W        W75997   6.940  31.409   3.605
10738W        W75998  22.133  32.404  11.993
10739W        W75999  10.607   7.784  14.614
10740W        W76000   8.712  30.767   4.606
10741W        W76001  38.401  22.813  13.989
10742W        W76002  28.900  22.514  13.063
10743W        W76003   8.268   0.445  14.704
10744W        W76004  22.256  28.564   0.321
10745W        W76005  16.217  41.074  14.524
10746W        W76006   8.473  12.283   1.688
10747W        W76007  22.483  38.336  11.173
10748W        W76008  41.385  20.879   2.597
10749W        W76009  25.352   4.170   1.745
10750W        W76010  38.430  37.145   2.886
10751W        W76011  20.976  13.697   1.141
10752W        W76012  29.161  27.917   1.843
10753W        W76013   7.178  32.296  10.747
10754W        W76014  10.318  31.340   4.538
10755W        W76015  40.022  19.040  12.954
10756W        W76016  22.920  26.044  11.973
10757W        W76017  33.610  21.260   1.740
10758W        W76018   2.253  24.049  12.571
10759W        W76019  33.816  36.600   1.750
10760W        W76020  34.555   5.179  13.775
10761W        W76021  13.662  35.751   2.336
10762W        W76022  26.554   3.983  10.949
10763W        W76023  13.241  18.615   4.932
10764W        W76024  14.541  19.943  10.671
10765W        W76025   6.262  19.252  12.559
10766W        W76026  30.130  21.810  11.174
10767W        W76027  38.948  44.726   0.273
10768W        W76028  13.634  12.125   3.762
10769W        W76029  20.788   6.811  12.395
10770W        W76030  23.897  43.707   0.254
10771W        W76031  12.051  27.941   3.481
10772W        W76032  32.585   3.886  11.263
10773W        W76033  39.775  42.382  12.103
10774W        W76034  33.126  15.795   1.239
10775W        W76035  14.476  15.376   0.261
10776W        W76036  25.729  38.621   1.339
10777W        W76037  29.572  11.681   2.339
10778W        W76038  42.421  40.298   3.712
10779W        W76039  25.349   4.705  13.067
10780W        W76040  22.243  27.049   2.375
10781W        W76041  16.781  34.129  13.544
10782W        W76042   7.393  21.288  10.660
10783W        W76043  32.135  43.201  11.534
10784W        W76044  32.381  43.333   2.277
10785W        W76045   9.910  44.044   4.608
10786W        W76046   1.365   7.634   3.552
10787W        W76047   7.909  41.572  10.076
10788W        W76048  32.409  24.185  12.534
10789W        W76049   4.303  41.908   4.558
10790W        W76050  12.879  27.809   9.963
10791W        W76051   9.141  41.155   1.626
10792W        W76052   3.714  24.999  13.738
10793W        W76053  26.081  18.615  12.164
10794W        W76054  34.008  39.042  11.654
10795W        W76055  26.749  30.638   1.463
10796W        W76056  16.174  31.876   1.778
10797W        W76057  25.934  25.439  13.480
10798W        W76058   6.221  30.109  11.036
10799W        W76059  27.181   2.156  13.404
10800W        W76060  29.063  39.508   2.879
10801W        W76061   4.501   6.793  14.511
10802W        W76062  37.085  12.651   0.269
10803W        W76063  14.648  23.021  13.863
10804W        W76064  32.009   3.732   0.867
10805W        W76065   5.434  14.348  14.906
10806W        W76066  44.943   5.442  14.918
10807W        W76067  14.049  26.073   2.375
10808W        W76068  34.932  15.525  14.078
10809W        W76069  28.270  19.383  13.838
10810W        W76070  23.621   1.693   1.261
10811W        W76071  31.715  12.392   0.247
10812W        W76072  23.623   9.194  13.577
10813W        W76073  43.895  42.366   3.998
10814W        W76074  36.975  18.425   1.472
10815W        W76075  25.762  42.209  10.882
10816W        W76076  31.904  25.012  10.747
10817W        W76077   3.363  39.556   3.727
10818W        W76078  26.679  15.720   2.664
10819W        W76079  41.848  31.927   1.219
10820W        W76080  26.619   7.333   4.227
10821W        W76081  28.619  18.832   2.700
10822W        W76082  30.556  16.664  12.036
10823W        W76083   1.224  24.311  11.650
10824W        W76084  20.226  11.861   0.506
10825W        W76085  35.947  40.808   4.156
10826W        W76086   5.458  11.186   3.687
10827W        W76087  28.505  32.103  10.630
10828W        W76088  40.687  36.522   0.808
10829W        W76089  23.726  22.776   0.976
10830W        W76090  17.245   9.678   4.137
10831W        W76091  43.538   9.247   0.273
10832W        W76092  44.269   9.815   1.560
10833W        W76093  10.972  23.771  13.154
10834W        W76094  41.097  38.359  10.556
10835W        W76095  26.785  24.654   2.201
10836W        W76096  27.662  24.177   2.596
10837W        W76097  30.202  41.035   4.135
10838W        W76098  29.099  25.976  10.824
10839W        W76099   0.619  13.047   5.300
10840W        W76100   0.833  12.117   1.864
10841W        W76101  37.871  35.936  12.423
10842W        W76102  41.011  17.301  12.512
10843W        W76103  23.600   8.412  14.021
10844W        W76104   5.710  44.981   3.666
10845W        W76105  33.406   3.204  14.445
10846W        W76106  32.462  40.976  11.132
10847W        W76107   1.349   8.952  14.368
10848W        W76108  21.552   8.900   4.909
10849W        W76109  23.744  29.444   1.889
10850W        W76110  19.841  32.411  13.419
10851W        W76111   1.211  44.402   3.266
10852W        W76112  39.438  19.500   4.980
10853W        W76113  12.177  18.194   3.255
10854W        W76114   1.022  15.378   1.239
10855W        W76115  24.528  32.550  11.960
10856W        W76116  20.797  36.163   1.064
10857W        W76117  17.622  14.360   3.682
10858W        W76118  31.914  38.637  14.341
10859W        W76119  37.533  42.055  11.697
10860W        W76120  42.233   5.444   1.002
10861W        W76121  38.993  44.063   1.646
10862W        W76122  31.335  25.334   1.343
10863W        W76123   4.989  10.878  12.429
10864W        W76124  13.321  25.813  14.916
10865W        W76125  28.600   1.452   3.652
10866W        W76126  30.599  21.471   3.605
10867W        W76127  19.306  28.828  10.970
10868W        W76128  13.536  22.038   4.254
10869W        W76129  29.966  24.689  11.685
10870W        W76130   7.309  23.771  13.614
10871W        W76131  37.518  39.916   3.336
10872W        W76132  36.873  38.835  12.635
10873W        W76133  39.420  41.028  13.581
10874W        W76134  16.348  12.171  14.742
10875W        W76135  30.501  40.445  10.684
10876W        W76136  22.121  41.283  12.843
10877W        W76137  35.867  36.190  12.062
10878W        W76138  44.525  27.019   1.612
10879W        W76139  37.383  21.899   1.392
10880W        W76140  35.363  23.066  13.943
10881W        W76141  37.026  39.751  13.849
10882W        W76142  14.283  36.678  11.178
10883W        W76143  20.577  42.554  12.223
10884W        W76144  42.307   3.470   0.845
10885W        W76145   7.056  42.436  12.477
10886W        W76146  30.988  28.642   1.896
10887W        W76147  24.491  27.403   0.393
10888W        W76148  28.679  33.028  14.781
10889W        W76149  25.115  39.964  13.938
10890W        W76150   9.330   6.744   9.754
10891W        W76151  15.558  24.201   2.336
10892W        W76152   3.356  34.699  13.133
10893W        W76153  10.351   8.758   2.463
10894W        W76154  23.443  19.866  12.994
10895W        W76155   7.133  39.340  12.447
10896W        W76156  38.355  33.590  12.603
10897W        W76157   8.829  40.696   4.624
10898W        W76158  32.333  19.246  12.094
10899W        W76159  42.351  40.099  12.553
10900W        W76160  31.551  42.083   3.928
10901W        W76161   0.793  33.349   3.544
10902W        W76162  22.615   2.975   2.569
10903W        W76163   9.439  12.222  14.294
10904W        W76164  31.803  40.863  11.867
10905W        W76165   2.256  44.949  12.119
10906W        W76166  15.677  39.113  11.217
10907W        W76167   5.257   7.256  13.823
10908W        W76168  39.739   3.193   1.488
10909W        W76169  34.334  34.068  14.269
10910W        W76170  23.915  30.848   4.160
10911W        W76171  42.425  42.999  11.464
10912W        W76172  28.414  16.550   2.176
10913W        W76173  37.382  22.780  14.876
10914W        W76174   0.518  33.959   1.338
10915W        W76175  34.295  11.703  10.453
10916W        W76176  17.708   9.773   2.369
10917W        W76177  44.229  42.897  14.550
10918W        W76178   8.268  41.030  14.137
10919W        W76179  32.965   0.879   1.513
10920W        W76180   0.873  26.420   1.234
10921W        W76181  30.171  35.347  14.560
10922W        W76182   8.673  22.620   0.890
10923W        W76183  28.941  41.445   2.119
10924W        W76184  43.810   2.341   0.660
10925W        W76185   7.600   7.841   3.441
10926W        W76186   0.696  32.910   2.457
10927W        W76187  40.141  44.517  11.027
10928W        W76188  29.016   3.980  13.836
10929W        W76189  11.334  19.222   2.904
10930W        W76190  33.454  30.089  10.017
10931W        W76191  29.346  35.324   2.850
10932W        W76192  15.900  19.305   5.284
10933W        W76193  42.558  19.232  13.141
10934W        W76194   8.240  11.324  14.927
10935W        W76195  14.353  42.714  13.011
10936W        W76196  17.251  23.910  12.372
10937W        W76197  26.330  37.045  14.453
10938W        W76198  28.015  29.523   4.994
10939W        W76199  38.956  15.849  12.485
10940W        W76200  14.148  38.267  11.996
10941W        W76201  37.066  38.997   4.619
10942W        W76202  24.034  16.266  13.326
10943W        W76203  17.855  27.777   0.946
10944W        W76204  17.369  30.074   2.781
10945W        W76205  28.611   8.151  14.066
10946W        W76206  43.478  36.381  12.495
10947W        W76207   7.157  39.553   4.709
10948W        W76208  16.232  40.313  11.248
10949W        W76209  33.929  41.034   2.645
10950W        W76210   6.665  38.006  10.708
10951W        W76211  19.251   9.263   2.880
10952W        W76212  39.334   8.886  12.168
10953W        W76213  28.105  17.874   3.660
10954W        W76214  40.765  17.265   0.317
10955W        W76215  19.707  10.946  11.581
10956W        W76216  19.443  44.427  13.821
10957W        W76217  18.694   8.658  12.939
10958W        W76218  10.287  38.136  12.988
10959W        W76219  28.758   7.224   1.746
10960W        W76220  34.257  43.590  12.493
10961W        W76221  35.320  23.313   0.683
10962W        W76222   6.373  23.047   1.866
10963W        W76223  36.007   5.813  13.279
10964W        W76224  41.095  33.656  13.919
10965W        W76225  27.038   5.142  12.369
10966W        W76226  42.387  26.950   0.839
10967W        W76227  39.775  38.235  14.037
10968W        W76228  42.191  44.928   0.238
10969W        W76229  23.554  10.198  11.489
10970W        W76230  20.895  17.096   2.433
10971W        W76231  23.100  30.727   3.671
10972W        W76232  44.855  41.994   3.181
10973W        W76233  42.857  14.867   1.830
10974W        W76234  16.705   9.765  14.891
10975W        W76235   9.800  19.402  10.478
10976W        W76236  30.648   7.254  12.202
10977W        W76237   4.449  41.293   2.672
10978W        W76238   4.962  18.323   4.435
10979W        W76239  26.684  37.094   9.737
10980W        W76240  22.766  31.144   4.884
10981W        W76241  40.888  16.675  11.033
10982W        W76242   8.643  40.370   0.219
10983W        W76243  39.292   8.623  11.428
10984W        W76244  10.773  33.663   3.727
10985W        W76245   8.969  21.086  12.544
10986W        W76246  33.467  13.600   4.283
10987W        W76247   1.827  14.584   4.514
10988W        W76248  11.388  16.744   2.637
10989W        W76249   8.243   4.765   3.060
10990W        W76250   5.730  40.787   0.315
10991W        W76251   0.684  42.181   3.703
10992W        W76252  44.707   2.421  13.550
10993W        W76253  34.590  29.060   0.822
10994W        W76254   0.362  23.361  13.806
10995W        W76255  13.598  33.629  12.993
10996W        W76256  30.370  32.456  14.356
10997W        W76257  33.327  35.225   2.232
10998W        W76258  15.920  15.021   3.137
10999W        W76259  25.955  42.274   1.261
11000W        W76260  32.526   7.845   2.905
11001W        W76261   0.892   0.738   4.527
11002W        W76262  26.904   8.874  13.867
11003W        W76263  29.239  37.928   1.527
11004W        W76264  42.511  36.041   4.059
11005W        W76265  44.405  10.864   1.340
11006W        W76266  25.260  23.582   3.230
11007W        W76267   6.801   0.442  13.948
11008W        W76268   7.831  39.184  12.921
11009W        W76269   2.498  29.213  12.548
11010W        W76270  36.994  28.949  10.538
11011W        W76271  20.027  23.118   1.176
11012W        W76272  26.168   9.340  13.572
11013W        W76273  30.149  20.264  14.435
11014W        W76274  21.410  44.785   1.266
11015W        W76275  26.942   6.424  11.614
11016W        W76276  33.381  22.963   4.508
11017W        W76277  34.719  12.697  12.841
11018W        W76278  27.521  17.105   2.233
11019W        W76279  30.155  40.714  14.973
11020W        W76280  26.857  36.719   5.585
11021W        W76281  16.602  30.903   3.165
11022W        W76282  28.562   4.020  12.176
11023W        W76283  18.687  10.146  14.449
11024W        W76284  27.056  20.203   2.353
11025W        W76285   3.896  30.567   3.190
11026W        W76286   7.590  43.764  12.859
11027W        W76287  26.063   4.166  11.185
11028W        W76288  16.817  26.617  10.984
11029W        W76289  42.221  36.361   3.747
11030W        W76290  32.489  44.190  13.353
11031W        W76291  37.349  43.286  13.028
11032W        W76292  32.525  44.505  12.382
11033W        W76293  36.115  31.795  12.102
11034W        W76294  37.956  20.950   4.447
11035W        W76295   5.494  20.963  11.085
11036W        W76296  38.050  43.313  11.987
11037W        W76297  43.727  27.655   0.001
11038W        W76298   9.810  17.638  11.889
11039W        W76299  13.255  37.957  11.558
11040W        W76300  36.510  35.628  10.584
11041W        W76301  16.994  32.459   3.879
11042W        W76302  27.081  12.306  14.628
11043W        W76303   8.548   0.833   1.537
11044W        W76304  16.565  13.942   3.212
11045W        W76305  41.657   3.195   1.531
11046W        W76306  27.664  20.606  12.139
11047W        W76307  28.626  30.704   3.116
11048W        W76308   4.329  28.071   4.542
11049W        W76309   8.398  19.998   3.182
11050W        W76310  34.169  26.443  11.170
11051W        W76311  35.625   8.767  13.317
11052W        W76312  16.924  11.721  12.694
11053W        W76313  11.467   2.872  12.528
11054W        W76314  43.241  35.869  11.640
11055W        W76315  19.065  17.525   0.353
11056W        W76316  27.128  32.238  12.519
11057W        W76317   0.396  15.848   4.976
11058W        W76318  13.034  37.571   3.591
11059W        W76319  38.262  14.276   1.660
11060W        W76320  21.458  30.871  14.356
11061W        W76321  24.279  19.844  12.497
11062W        W76322  16.879   5.370  13.428
11063W        W76323   0.862   4.761   1.276
11064W        W76324  25.414  39.277  11.063
11065W        W76325  15.702  41.434   2.798
11066W        W76326  40.573   6.722  11.802
11067W        W76327  40.315   0.990  10.762
11068W        W76328  18.859  23.745   3.793
11069W        W76329  37.426  28.454   0.449
11070W        W76330  22.312  35.328  12.002
11071W        W76331  14.689   7.495   4.633
11072W        W76332  26.659  19.303  11.206
11073W        W76333  35.998  26.876   2.183
11074W        W76334  40.817   3.558   4.074
11075W        W76335   2.163  43.128  13.007
11076W        W76336  34.652  15.580   1.297
11077W        W76337  10.111  32.617   3.189
11078W        W76338  33.879  44.344   4.592
11079W        W76339  38.443  20.058  12.603
11080W        W76340  12.708   8.102  11.570
11081W        W76341  40.920  15.260  14.420
11082W        W76342  34.484  28.948  14.749
11083W        W76343  20.817  36.476  14.812
11084W        W76344  23.434   2.040  10.254
11085W        W76345  43.199   7.950   3.252
11086W        W76346  15.982  30.188   1.646
11087W        W76347  29.137  36.495  14.941
11088W        W76348  21.780  24.101  11.254
11089W        W76349  26.010  20.741   1.659
11090W        W76350  38.848  39.418   4.316
11091W        W76351  24.218  39.650  11.500
11092W        W76352  12.400  42.940   0.841
11093W        W76353   6.915  22.199  10.514
11094W        W76354  15.585  37.774   1.235
11095W        W76355   1.870  26.671   4.468
11096W        W76356   6.054  13.596   1.221
11097W        W76357   8.912  40.390  11.396
11098W        W76358  13.326   4.886  11.618
11099W        W76359  41.780  26.533   4.217
11100W        W76360  37.956  32.979   4.244
11101W        W76361  31.187  17.656  14.856
11102W        W76362   1.859  11.454   0.394
11103W        W76363  38.950   4.420   3.845
11104W        W76364  23.725  26.489   0.206
11105W        W76365  35.300  25.874   0.169
11106W        W76366  41.612  11.608   1.209
11107W        W76367  43.820  40.603   3.811
11108W        W76368  35.914   5.280  10.881
11109W        W76369  40.045  19.525  14.867
11110W        W76370  17.154  14.323   4.114
11111W        W76371   7.686   8.372  13.285
11112W        W76372  38.088  16.127  12.577
11113W        W76373  13.261  26.345  11.917
11114W        W76374  22.224  12.258   1.363
11115W        W76375   7.746  41.272   3.737
11116W        W76376  25.571  27.969   4.185
11117W        W76377   8.288  14.353  12.629
11118W        W76378   7.311  44.450  13.015
11119W        W76379  41.318   2.416   9.886
11120W        W76380  15.634  26.505  12.127
11121W        W76381  23.135  14.065   1.763
11122W        W76382  39.792   9.228   3.771
11123W        W76383   7.213  43.399   2.122
11124W        W76384  39.942  35.308  14.723
11125W        W76385  23.108   0.596   3.133
11126W        W76386  42.001   1.333  12.791
11127W        W76387   1.958   4.373  10.698
11128W        W76388  43.271  27.150  13.928
11129W        W76389  42.296  23.201  13.078
11130W        W76390  20.949  23.161   1.000
11131W        W76391  24.430  33.466  11.168
11132W        W76392   0.958  22.571   2.833
11133W        W76393  34.118   5.693  12.602
11134W        W76394  24.624  14.174   1.781
11135W        W76395   8.249  11.891   3.481
11136W        W76396  13.777   0.400   3.755
11137W        W76397  16.896  21.820   3.182
11138W        W76398   4.136  17.657   1.921
11139W        W76399  34.576   6.993  11.186
11140W        W76400  29.501  22.083   0.328
11141W        W76401  16.163   1.958  13.258
11142W        W76402  23.678   0.960   0.413
11143W        W76403  37.183   5.902  11.937
11144W        W76404  17.547  28.351   1.604
11145W        W76405  12.196   8.052  11.793
11146W        W76406  15.473  13.568  13.435
11147W        W76407  12.312  24.781  12.366
11148W        W76408  15.941  24.527   2.512
11149W        W76409  32.662  34.586  10.991
11150W        W76410  12.676  37.947   0.295
11151W        W76411  12.860   9.661   2.097
11152W        W76412  19.153  37.799   0.445
11153W        W76413   6.476   2.458   0.847
11154W        W76414  43.502  42.383   3.616
11155W        W76415  16.774  40.458   4.313
11156W        W76416  12.364  27.130  10.252
11157W        W76417  27.007  43.342   2.252
11158W        W76418   5.824  23.031  10.746
11159W        W76419  38.271  26.091  14.811
11160W        W76420   6.190   3.472   1.106
11161W        W76421   0.595  32.945   3.208
11162W        W76422  16.312  26.371  13.600
11163W        W76423  12.645  36.663   1.713
11164W        W76424   3.998   9.623   4.592
11165W        W76425  30.065  18.110  13.705
11166W        W76426   0.966  32.716   4.123
11167W        W76427   3.645  40.441   4.147
11168W        W76428  12.713  35.769   3.611
11169W        W76429   9.463  33.921   0.982
11170W        W76430  40.988   5.342   0.250
11171W        W76431  29.763   8.754  12.910
11172W        W76432   8.680  30.783   3.216
11173W        W76433  29.087   4.728   1.749
11174W        W76434   7.882  12.219  10.558
11175W        W76435  32.042   7.395   1.731
11176W        W76436  29.538  34.919   3.691
11177W        W76437  18.869  12.141   2.179
11178W        W76438  19.650  30.712   3.988
11179W        W76439  11.869   9.355   4.989
11180W        W76440   5.828  15.190   0.344
11181W        W76441  43.967   8.659   2.054
11182W        W76442   4.520  26.045   5.078
11183W        W76443  35.113  40.991  14.970
11184W        W76444   8.716  33.157   0.777
11185W        W76445  30.025  26.117  13.433
11186W        W76446  17.117   6.681  11.170
11187W        W76447  36.718   5.924   2.780
11188W        W76448  35.420   7.661   3.200
11189W        W76449  32.573  39.910  11.281
11190W        W76450  43.490  38.469   4.417
11191W        W76451  32.906  42.449   3.207
11192W        W76452  32.826  34.970  14.693
11193W        W76453   3.429  11.051  14.099
11194W        W76454  35.114  38.910  12.872
11195W        W76455  41.150  22.661  13.507
11196W        W76456   7.137   0.315  11.176
11197W        W76457  43.444  20.293   3.777
11198W        W76458  44.486  15.994  11.377
11199W        W76459  44.695   2.575   0.904
11200W        W76460  36.989  28.708  14.381
11201W        W76461  44.259  36.112   2.398
11202W        W76462  24.367   6.943   3.355
11203W        W76463   0.210  32.406  14.606
11204W        W76464  20.613   1.956   1.437
11205W        W76465  36.132  21.574  11.240
11206W        W76466  14.012  39.024   2.440
11207W        W76467  21.639   4.834  13.189
11208W        W76468  15.471   1.320  11.576
11209W        W76469  40.232  19.031  14.232
11210W        W76470   8.006  20.683  10.644
11211W        W76471   9.392  33.544   1.870
11212W        W76472  23.687  15.882   3.583
11213W        W76473  28.256  38.886   4.765
11214W        W76474  19.347  40.346  14.299
11215W        W76475  11.438  13.119  11.067
11216W        W76476   1.958   7.561  12.572
11217W        W76477  27.763  34.658   1.235
11218W        W76478  30.446  31.670   1.719
11219W        W76479  44.442  30.729  13.544
11220W        W76480  25.072  31.100  10.629
11221W        W76481  20.297  42.463  13.064
11222W        W76482  12.273  40.449  10.707
11223W        W76483   9.813   8.767   2.434
11224W        W76484  18.647   7.174  13.991
11225W        W76485  14.851  23.970  14.785
11226W        W76486  33.536  34.351  13.136
11227W        W76487   9.698  31.620  11.985
11228W        W76488  35.618  13.367  14.366
11229W        W76489  27.513  30.552   0.089
11230W        W76490  26.883  41.773   4.501
11231W        W76491  28.062  13.380  10.976
11232W        W76492  28.689   8.071   2.323
11233W        W76493  42.760  38.448   3.153
11234W        W76494   6.588   3.913   0.324
11235W        W76495   6.158  16.743  13.017
11236W        W76496  28.766  41.322   1.096
11237W        W76497  36.032  22.350  14.826
11238W        W76498   3.797  19.291   0.460
11239W        W76499  42.847   6.298  13.027
11240W        W76500  39.308  28.979   0.349
11241W        W76501  23.857  14.193  11.441
11242W        W76502   4.549  10.023   3.478
11243W        W76503   4.217  42.573   4.286
11244W        W76504   9.337   7.095   3.258
11245W        W76505  23.169  35.512   3.247
11246W        W76506  22.014  11.604   2.151
11247W        W76507  35.113  28.204   3.142
11248W        W76508   9.114   3.557   0.665
11249W        W76509  18.643   8.609  13.810
11250W        W76510   8.251  37.706   3.587
11251W        W76511  10.865  43.475  13.364
11252W        W76512  10.698   6.231   2.292
11253W        W76513  17.017  24.807  11.355
11254W        W76514  36.615  42.860   1.697
11255W        W76515  14.685  27.897  10.610
11256W        W76516  37.067  23.980  13.099
11257W        W76517  11.900  29.667  13.015
11258W        W76518  21.017  32.765  12.775
11259W        W76519   3.199   8.180  10.314
11260W        W76520  42.755   8.059   2.373
11261W        W76521  14.652  15.273   1.164
11262W        W76522  10.230   5.648  14.562
11263W        W76523  11.678  12.822   3.138
11264W        W76524  32.850   0.826   0.166
11265W        W76525  16.057  41.971   1.777
11266W        W76526  41.906   3.226  10.247
11267W        W76527  17.860  36.880  12.693
11268W        W76528  42.462   3.776   4.239
11269W        W76529   8.626  28.491  12.042
11270W        W76530   4.264   4.935  11.640
11271W        W76531   2.072  12.802  14.355
11272W        W76532   6.758  38.566   0.812
11273W        W76533  29.885  21.637  14.512
11274W        W76534  20.082  28.705   4.668
11275W        W76535  21.772   6.023   0.269
11276W        W76536   7.431  26.055  11.449
11277W        W76537  24.179  20.502   3.723
11278W        W76538  19.188  24.784  12.532
11279W        W76539  14.655   2.011   0.703
11280W        W76540  40.026   2.403  13.528
11281W        W76541   3.370   7.841   1.218
11282W        W76542  44.790  30.542  10.716
11283W        W76543   6.577  27.758  11.263
11284W        W76544  16.554  25.016  10.560
11285W        W76545   9.272  22.529  13.491
11286W        W76546  27.121  34.730   2.337
11287W        W76547  44.273  25.725   4.763
11288W        W76548   9.895  17.432  10.476
11289W        W76549  14.894  25.971  14.007
11290W        W76550   4.139  29.918   0.866
11291W        W76551  13.817  38.111  11.626
11292W        W76552   1.902  38.643   4.468
11293W        W76553   7.002  19.228   2.767
11294W        W76554  14.180   2.475  11.549
11295W        W76555  13.771   0.748   2.400
11296W        W76556  39.070  15.342  12.473
11297W        W76557  15.279   6.916   1.347
11298W        W76558  14.796  27.057   1.370
11299W        W76559  33.875  21.172  14.520
11300W        W76560  20.042  38.388   3.781
11301W        W76561  30.134  30.438   0.286
11302W        W76562  18.678  20.528  13.923
11303W        W76563   5.194  28.933  13.909
11304W        W76564  17.219  16.064  10.517
11305W        W76565   8.717  41.356  14.355
11306W        W76566  43.498  24.790  12.489
11307W        W76567  37.486  36.127  11.146
11308W        W76568   6.931  41.387   3.733
11309W        W76569  37.278  32.908   2.710
11310W        W76570  28.025  23.784   3.253
11311W        W76571  38.436   7.154   4.553
11312W        W76572  44.833  11.001   2.440
11313W        W76573  12.973  16.364   1.667
11314W        W76574   1.477  41.931   0.294
11315W        W76575  22.926  10.669   2.571
11316W        W76576   1.461  12.389   0.305
11317W        W76577  27.196  24.791  11.381
11318W        W76578  29.887   3.712   0.335
11319W        W76579  42.102  28.122   0.317
11320W        W76580  12.695   6.144   0.454
11321W        W76581   9.607  25.580  13.559
11322W        W76582  20.002   5.723   0.804
11323W        W76583  21.989  34.897  13.327
11324W        W76584  10.367  40.447   0.905
11325W        W76585   8.204  22.431  11.013
11326W        W76586  37.601  19.986   3.300
11327W        W76587   3.333  34.932   4.018
11328W        W76588  18.502  13.189  13.886
11329W        W76589  43.047  26.699  11.502
11330W        W76590  34.891  33.004   2.005
11331W        W76591  33.517   1.892   4.621
11332W        W76592  28.468   2.410  11.870
11333W        W76593  14.759  18.733   0.778
11334W        W76594  17.765  20.755  11.009
11335W        W76595   8.686  41.871   0.892
11336W        W76596   3.452  38.478  13.998
11337W        W76597  31.467  30.248   0.823
11338W        W76598  38.691  11.701   0.968
11339W        W76599  41.035  35.504   0.385
11340W        W76600  36.877   4.909   4.482
11341W        W76601   0.491  31.183   0.295
11342W        W76602  37.818  18.388   1.380
11343W        W76603  15.979  16.798  12.103
11344W        W76604  34.085  35.340  12.514
11345W        W76605  26.482  27.975   1.182
11346W        W76606   1.011   8.203  13.997
11347W        W76607  18.236  22.293  12.542
11348W        W76608  13.068   4.659   1.875
11349W        W76609  21.520  21.431  14.971
11350W        W76610  17.196  42.925  10.346
11351W        W76611  28.176   1.741   3.586
11352W        W76612  35.562  30.417  10.510
11353W        W76613  44.404  10.353   2.817
11354W        W76614  32.857   6.149   0.465
11355W        W76615   0.439  30.503   4.762
11356W        W76616  15.204   1.264   0.772
11357W        W76617  14.229   1.480   2.930
11358W        W76618  28.552  21.169   1.808
11359W        W76619  23.642  24.110  10.595
11360W        W76620  14.210  31.886   1.118
11361W        W76621  15.227  34.577  12.957
11362W        W76622  39.052  33.378   0.310
11363W        W76623  28.365  41.467  13.184
11364W        W76624  39.099  26.939   2.159
11365W        W76625  37.916  40.597  14.374
11366W        W76626  14.773  41.883  10.644
11367W        W76627  20.060  36.390  13.049
11368W        W76628  27.589   2.984   4.500
11369W        W76629  31.971   8.822  12.489
11370W        W76630  32.077  40.060  11.230
11371W        W76631  14.135  17.546  10.534
11372W        W76632  23.222  10.096  14.179
11373W        W76633  36.596  26.348   3.425
11374W        W76634  41.859  27.971  14.876
11375W        W76635  21.610   1.228  10.717
11376W        W76636   0.398   4.447  14.496
11377W        W76637  38.320  35.454  12.829
11378W        W76638  21.629  20.197  12.185
11379W        W76639  35.011  42.748   0.933
11380W        W76640   4.839  32.226   2.890
11381W        W76641  20.109   4.879   1.964
11382W        W76642   6.387  32.934   1.703
11383W        W76643  20.012   3.331  14.428
11384W        W76644  42.384  14.211   5.495
11385W        W76645  15.082  42.038   3.389
11386W        W76646  43.774  28.176   3.685
11387W        W76647  20.582   9.236  11.456
11388W        W76648  12.392  41.242   2.693
11389W        W76649  13.227  16.579   4.350
11390W        W76650  13.528  36.345   1.659
11391W        W76651  42.826  42.306  12.172
11392W        W76652  11.334  34.352   1.782
11393W        W76653   0.753  38.476  10.735
11394W        W76654  32.518  40.067  14.510
11395W        W76655  26.606  37.023  11.671
11396W        W76656  26.180  39.531  11.447
11397W        W76657  31.472  26.429   1.805
11398W        W76658  33.509  19.856  14.415
11399W        W76659  33.002  19.507  10.572
11400W        W76660  15.443   8.269   5.647
11401W        W76661   4.340  44.344   1.508
11402W        W76662  15.143  12.639  14.969
11403W        W76663   8.562  24.157   3.694
11404W        W76664  16.094  43.567  12.859
11405W        W76665  22.583  18.100   2.766
11406W        W76666   7.165  28.368  12.107
11407W        W76667  38.576   7.330  11.187
11408W        W76668  43.474  21.431   2.802
11409W        W76669   9.952   6.328   3.096
11410W        W76670  14.602  29.034   0.415
11411W        W76671  37.149  40.167   2.314
11412W        W76672  35.408  27.098  11.617
11413W        W76673  31.472  17.653  12.495
11414W        W76674   2.202  41.295  13.799
11415W        W76675  18.322   0.220  13.588
11416W        W76676   0.338  18.728  12.133
11417W        W76677  32.499   6.896  14.276
11418W        W76678  16.091  16.753  13.172
11419W        W76679  41.588  11.588  14.944
11420W        W76680  34.535  17.605  14.414
11421W        W76681  10.169  21.459   3.178
11422W        W76682  42.017   8.733   2.826
11423W        W76683  35.046  29.847   3.622
11424W        W76684  34.589  34.922   0.151
11425W        W76685   2.310  10.099  12.383
11426W        W76686  13.844  18.862  13.179
11427W        W76687  19.152  24.671  14.879
11428W        W76688  35.037  28.775   0.215
11429W        W76689  31.377  16.067   3.287
11430W        W76690   5.803  39.642   3.194
11431W        W76691  22.691  37.439  11.297
11432W        W76692   6.919   2.063  13.432
11433W        W76693   3.168  29.921  12.107
11434W        W76694   8.922   2.624  14.594
11435W        W76695  28.520  26.544  11.778
11436W        W76696  41.495  37.798  11.945
11437W        W76697  22.490   0.763  11.992
11438W        W76698  34.845   3.319  10.690
11439W        W76699   8.969   8.711  14.502
11440W        W76700   0.140   9.572   1.422
11441W        W76701  26.282   8.577  12.019
11442W        W76702  32.302  39.554  12.900
11443W        W76703   7.885  38.704   4.052
11444W        W76704  21.174  15.222   1.812
11445W        W76705  11.678   5.719   0.467
11446W        W76706  36.749  21.616  11.515
11447W        W76707  34.529  18.282  13.565
11448W        W76708  37.455  40.294   0.446
11449W        W76709   1.472  16.517  12.975
11450W        W76710   6.483  43.427   2.821
11451W        W76711  42.617  29.654  13.673
11452W        W76712  31.702  29.311  11.138
11453W        W76713  18.200  17.181   4.515
11454W        W76714  22.117  17.237   3.703
11455W        W76715  24.678  14.823  12.605
11456W        W76716  44.895  21.861   3.859
11457W        W76717  31.775  32.047   2.056
11458W        W76718  38.734  40.617   2.736
11459W        W76719  38.791  12.627   0.971
11460W        W76720   2.338  42.545   1.417
11461W        W76721  32.653   4.489  14.160
11462W        W76722  18.494  26.449   0.301
11463W        W76723  23.500  39.034  13.286
11464W        W76724  32.225  34.551  11.317
11465W        W76725  19.823  39.005  11.520
11466W        W76726  35.537  35.119  14.555
11467W        W76727  33.429  39.663  14.285
11468W        W76728  34.936  33.555  12.811
11469W        W76729  33.981  22.488   0.808
11470W        W76730   3.824  41.406   3.183
11471W        W76731   5.653   6.309   1.526
11472W        W76732  33.191  40.091   3.147
11473W        W76733  42.408  37.914  13.212
11474W        W76734  37.136  22.646  11.239
11475W        W76735  29.278  43.040  14.329
11476W        W76736  26.770  11.848  12.136
11477W        W76737   4.976  43.541   4.529
11478W        W76738  18.756  16.664   3.248
11479W        W76739  27.200  16.542  14.235
11480W        W76740  11.839  34.018  11.816
11481W        W76741  11.784   6.416   3.355
11482W        W76742  41.842  38.940   1.609
11483W        W76743  27.590  24.520  11.246
11484W        W76744   6.371  42.255  14.733
11485W        W76745  25.175  37.116   3.139
11486W        W76746  30.536  22.224   0.389
11487W        W76747  15.871  13.234  13.472
11488W        W76748   5.440  34.942  13.921
11489W        W76749   1.224   0.225   0.904
11490W        W76750  30.519  40.245  11.155
11491W        W76751  20.046   5.444   0.329
11492W        W76752  37.481  38.110   3.785
11493W        W76753   8.726   9.413  11.386
11494W        W76754  26.641  15.118   4.271
11495W        W76755   2.497  34.372  13.065
11496W        W76756  43.982  22.057   1.014
11497W        W76757  42.901   8.869  11.794
11498W        W76758  36.008  23.044   1.866
11499W        W76759  12.278   6.445   0.457
11500W        W76760  19.709   3.311   3.675
11501W        W76761  14.797  13.751  12.158
11502W        W76762  22.578  29.915   0.280
11503W        W76763   8.365  36.703   3.838
11504W        W76764  28.551   9.393  11.241
11505W        W76765  20.757  44.367   3.571
11506W        W76766  44.113  26.310  13.960
11507W        W76767  40.946  18.827  11.663
11508W        W76768  31.444  38.922   2.854
11509W        W76769  27.494  29.018  12.343
11510W        W76770  41.403  26.402   2.398
11511W        W76771  27.812  28.854  11.007
11512W        W76772  25.773  38.474  11.596
11513W        W76773   4.452  29.729  10.743
11514W        W76774  25.915  15.291  13.821
11515W        W76775  27.746   9.665   3.878
11516W        W76776  16.553  43.037   2.617
11517W        W76777   4.252   2.476   1.499
11518W        W76778  20.744   7.708  13.026
11519W        W76779  35.836  41.910   3.622
11520W        W76780  12.083  42.789  13.356
11521W        W76781  44.302  16.703   0.576
11522W        W76782  20.264  23.017   2.335
11523W        W76783  42.388  19.584   4.171
11524W        W76784  44.930  27.152  13.400
11525W        W76785  39.366  14.004  11.315
11526W        W76786  38.272  16.490  13.714
11527W        W76787  13.712   1.789   4.409
11528W        W76788   8.375  15.320   1.478
11529W        W76789  40.323  25.469   3.838
11530W        W76790  40.115  14.383  12.940
11531W        W76791  28.532   0.523   4.601
11532W        W76792  10.851  38.909   1.268
11533W        W76793  37.788   3.459  10.234
11534W        W76794  10.256  44.988   2.916
11535W        W76795  38.661  31.978   5.344
11536W        W76796  43.495  32.587   4.119
11537W        W76797   2.466  16.519   4.806
11538W        W76798  42.326  27.710  14.885
11539W        W76799   3.889  24.894   3.624
11540W        W76800  42.410  30.683   3.369
11541W        W76801  37.154   9.059   5.145
11542W        W76802  40.470  34.606  11.671
11543W        W76803   6.223  18.991  10.620
11544W        W76804  13.279  31.471   0.482
11545W        W76805  41.575  33.398  12.667
11546W        W76806  14.766  38.059   3.740
11547W        W76807  39.506  30.578  12.357
11548W        W76808  28.175  34.637   3.218
11549W        W76809  11.242  38.624   4.902
11550W        W76810  17.376   3.274  12.207
11551W        W76811  29.030  19.589   5.286
11552W        W76812  34.965   6.155   3.445
11553W        W76813  24.431  22.966   1.451
11554W        W76814   6.803   1.876  13.938
11555W        W76815  10.763  14.655   3.327
11556W        W76816  22.902  39.947   3.726
11557W        W76817  31.653   9.741  14.849
11558W        W76818  39.517  23.328   4.602
11559W        W76819  15.504  42.617   0.483
11560W        W76820  43.334  17.439  12.547
11561W        W76821  13.081  28.742  10.237
11562W        W76822  27.248  21.150   2.791
11563W        W76823   9.614   5.266   0.466
11564W        W76824  24.149  29.108  13.947
11565W        W76825  39.119   7.330  13.920
11566W        W76826   8.400  35.821   0.794
11567W        W76827  16.773  38.036  13.008
11568W        W76828   1.959  12.909  11.061
11569W        W76829  17.238  30.438  14.837
11570W        W76830  29.062  31.137  14.278
11571W        W76831  15.671   4.955   4.012
11572W        W76832  39.449   5.375  11.725
11573W        W76833  21.574  12.784  12.878
11574W        W76834  20.846  12.831   2.206
11575W        W76835  23.254   1.442  11.156
11576W        W76836  42.867  12.199   0.399
11577W        W76837  12.743  40.620  11.863
11578W        W76838  13.279   5.945   2.227
11579W        W76839  34.404  15.809  14.930
11580W        W76840   6.264  12.349   3.244
11581W        W76841  39.920  11.206   5.095
11582W        W76842  27.174  24.956  14.254
11583W        W76843   1.780  13.605   0.788
11584W        W76844  42.506  27.161  13.067
11585W        W76845  25.980  28.615   3.094
11586W        W76846  33.888  36.407  14.862
11587W        W76847  14.325   8.929   3.137
11588W        W76848  33.199   3.440  13.873
11589W        W76849  14.364  32.181  12.158
11590W        W76850  20.549  18.596  12.082
11591W        W76851  33.910   0.859  10.355
11592W        W76852  35.091   1.302  14.114
11593W        W76853  11.897   7.787  13.186
11594W        W76854  15.464  11.644   2.687
11595W        W76855   2.025  23.094  14.012
11596W        W76856   2.692   1.261  10.913
11597W        W76857   9.084  14.812   4.067
11598W        W76858  37.557  10.069   2.730
11599W        W76859  35.382  37.578  13.152
11600W        W76860  27.632  44.185   4.150
11601W        W76861  21.717  32.790   3.163
11602W        W76862  15.040   1.425  13.020
11603W        W76863   9.347  39.280   3.694
11604W        W76864  36.636   1.736   1.780
11605W        W76865  34.531  26.415  14.335
11606W        W76866   8.348  14.625  13.058
11607W        W76867   9.410   0.381  14.487
11608W        W76868  12.278  14.199   4.865
11609W        W76869  22.158  38.785  12.934
11610W        W76870  17.580  18.756   1.195
11611W        W76871  29.524  33.003   0.076
11612W        W76872   6.668  26.581   5.248
11613W        W76873  42.475  24.227  13.996
11614W        W76874  22.377  23.226  11.078
11615W        W76875  11.731  21.823   2.580
11616W        W76876  41.168   9.160   3.722
11617W        W76877  26.611   4.803  11.588
11618W        W76878  16.738  16.194  12.186
11619W        W76879  31.051  35.357  12.373
11620W        W76880  32.143  14.155   2.499
11621W        W76881  15.751   8.120  11.042
11622W        W76882  18.750  33.582  11.967
11623W        W76883  11.487   9.902  12.478
11624W        W76884  11.785  21.701   1.699
11625W        W76885  27.178  15.049  14.435
11626W        W76886  40.237  38.076  11.460
11627W        W76887  11.098  41.451  14.786
11628W        W76888  42.240  22.166  13.905
11629W        W76889  10.313  26.019   2.771
11630W        W76890  27.513  11.194   1.217
11631W        W76891   6.951  10.609  12.991
11632W        W76892  32.905  37.545   1.810
11633W        W76893   1.707  40.414  13.426
11634W        W76894   7.541  14.210   1.466
11635W        W76895  24.790   2.240  12.092
11636W        W76896   0.104  20.122  12.415
11637W        W76897  44.265   9.595  14.020
11638W        W76898   8.412   9.072  13.894
11639W        W76899  18.319  29.506  11.141
11640W        W76900   4.445  24.716  14.911
11641W        W76901  39.000  34.077   2.406
11642W        W76902  29.875  24.202  12.980
11643W        W76903  16.188  23.644  13.091
11644W        W76904  30.510  23.861   3.658
11645W        W76905   1.485  24.028   1.166
11646W        W76906  37.584   1.625  10.754
11647W        W76907  13.896  25.294   3.928
11648W        W76908   9.970   1.998  10.195
11649W        W76909  29.686  16.980   3.287
11650W        W76910  34.970  18.571  12.329
11651W        W76911   1.734  29.499   3.379
11652W        W76912  35.057   6.777   1.572
11653W        W76913  26.118   5.332   1.957
11654W        W76914  38.286  32.139   0.781
11655W        W76915  32.161  29.882  14.832
11656W        W76916  21.307  14.278   1.674
11657W        W76917  11.204  41.837   1.510
11658W        W76918  15.163  13.594  12.513
11659W        W76919  40.332  11.098   2.791
11660W        W76920  21.272   8.368   2.459
11661W        W76921  38.466  25.635  13.040
11662W        W76922  27.169  44.295  13.779
11663W        W76923  10.810  14.715  12.380
11664W        W76924   9.410  25.585  11.643
11665W        W76925  21.055  37.331   0.760
11666W        W76926  23.133  42.657   4.273
11667W        W76927   9.700  28.682   3.133
11668W        W76928  15.597  19.674   4.236
11669W        W76929  15.405   9.987   2.386
11670W        W76930  23.984   3.475  13.352
11671W        W76931   5.242  43.231  12.456
11672W        W76932  44.767  44.809  11.375
11673W        W76933  15.316  11.061   4.153
11674W        W76934   2.318  13.637   2.931
11675W        W76935   1.565  22.774   0.107
11676W        W76936   7.808  32.003   0.416
11677W        W76937  42.455  34.151   2.313
11678W        W76938  32.944  36.846  14.803
11679W        W76939  40.966  26.941  10.638
11680W        W76940  42.077  17.796  12.792
11681W        W76941  44.218  12.012   0.008
11682W        W76942   2.806  13.851   1.810
11683W        W76943  10.094   0.696  12.023
11684W        W76944  11.623  13.643   3.253
11685W        W76945  13.537  30.316  11.882
11686W        W76946  19.216  33.414   1.333
11687W        W76947   6.232  41.565  13.995
11688W        W76948   0.795   1.722  11.109
11689W        W76949   1.861  44.049  13.072
11690W        W76950   2.358   6.697  13.920
11691W        W76951  26.702  14.774  14.920
11692W        W76952  38.708   8.659  12.481
11693W        W76953  20.733  14.587  10.414
11694W        W76954  24.408  23.499  13.079
11695W        W76955  29.623  38.444  12.095
11696W        W76956  36.804  41.371   2.631
11697W        W76957  29.197  37.122   0.483
11698W        W76958  41.494   5.765   0.802
11699W        W76959  21.961  38.098  11.654
11700W        W76960  25.011  22.980   2.507
11701W        W76961  42.813   7.345  12.106
11702W        W76962  32.591  24.282   1.811
11703W        W76963  17.212  10.547   9.876
11704W        W76964  17.411  37.583  12.513
11705W        W76965  20.181  36.110  13.482
11706W        W76966  42.389  10.595  11.859
11707W        W76967  12.708   2.548   4.513
11708W        W76968  26.607   8.170  13.932
11709W        W76969   1.895  36.771  10.754
11710W        W76970  39.405  24.046  10.901
11711W        W76971  43.756   8.544  14.862
11712W        W76972  33.406  34.811   1.463
11713W        W76973  22.550  34.027   0.742
11714W        W76974  38.652  33.434  14.098
11715W        W76975   7.403  32.555   2.326
11716W        W76976   2.965  37.869   2.658
11717W        W76977  16.413   9.899   1.879
11718W        W76978  31.490  43.346   3.261
11719W        W76979  27.068  40.443   2.216
11720W        W76980  23.963  34.810  12.502
11721W        W76981  42.217  40.549  13.921
11722W        W76982   9.550   4.713  13.551
11723W        W76983  19.687  27.382  11.405
11724W        W76984  16.575  32.207   1.740
11725W        W76985  12.041   7.125   3.719
11726W        W76986  23.603  10.786  13.172
11727W        W76987  26.203  32.946   1.914
11728W        W76988  35.710  19.744   4.591
11729W        W76989  32.580  32.667   4.548
11730W        W76990  23.858  36.424  11.625
11731W        W76991  10.690  39.491   0.030
11732W        W76992  21.723  11.212   3.656
11733W        W76993  42.466  30.037  14.927
11734W        W76994   0.191  40.503  13.493
11735W        W76995  40.253  32.627   2.279
11736W        W76996  27.060   9.610   4.088
11737W        W76997  42.632  34.058   4.443
11738W        W76998  10.422  35.507   0.232
11739W        W76999  17.634  41.877  12.550
11740W        W77000   7.322   7.158   4.937
11741W        W77001  41.975   5.636   3.582
11742W        W77002  10.329  25.486  11.860
11743W        W77003  23.201  11.287   3.926
11744W        W77004  37.922  37.130   2.138
11745W        W77005  31.347  11.433   4.909
11746W        W77006  25.641   1.991   1.368
11747W        W77007  41.482  37.508   3.958
11748W        W77008   2.404  17.884  12.197
11749W        W77009   3.663  11.161   3.279
11750W        W77010   5.851  15.162   4.531
11751W        W77011  34.835  31.920  11.520
11752W        W77012  40.600  19.348  13.879
11753W        W77013  26.162  37.880   1.734
11754W        W77014   5.696   2.552   3.616
11755W        W77015  13.952  37.412   3.947
11756W        W77016  38.359  34.105  12.482
11757W        W77017   6.643  15.961  14.053
11758W        W77018  10.300   6.904  14.954
11759W        W77019  30.385  24.250  14.703
11760W        W77020  16.628   7.789   0.332
11761W        W77021  22.292  39.865  14.882
11762W        W77022  43.606  30.310  12.735
11763W        W77023   6.324  20.023   1.337
11764W        W77024  19.428  33.672  12.546
11765W        W77025  25.786  26.235   2.454
11766W        W77026  33.623  10.276  11.178
11767W        W77027   2.311   3.700  10.602
11768W        W77028   0.438  18.764  13.464
11769W        W77029  13.880   4.451   4.754
11770W        W77030   4.864   5.441   2.347
11771W        W77031  20.787  20.797  10.593
11772W        W77032   3.618  43.417  11.242
11773W        W77033  19.776  15.414  11.950
11774W        W77034  21.347  15.825  10.703
11775W        W77035  30.134  26.491   3.181
11776W        W77036  32.590   0.568  11.504
11777W        W77037   6.435  24.953   4.211
11778W        W77038  42.054   3.453  10.743
11779W        W77039  26.223   8.271  10.128
11780W        W77040  38.547   8.586   2.296
11781W        W77041   3.878  17.582   0.454
11782W        W77042  17.381  36.119   1.631
11783W        W77043   8.807  10.753   3.616
11784W        W77044  12.432  20.103   0.286
11785W        W77045  24.706  32.770   1.778
11786W        W77046   6.362  29.861  13.927
11787W        W77047   4.302  28.398  13.050
11788W        W77048  36.822   8.775  13.986
11789W        W77049  25.540  14.478   3.294
11790W        W77050  17.523  40.040  12.971
11791W        W77051  26.462  32.783  13.344
11792W        W77052  11.168  26.617   0.291
11793W        W77053  20.783  28.430   2.202
11794W        W77054  12.739  38.217  14.846
11795W        W77055  41.329  18.861  11.143
11796W        W77056  43.032  25.565   1.757
11797W        W77057  18.644  12.653   0.503
11798W        W77058   7.796  27.913   1.442
11799W        W77059  35.693  42.986  12.640
11800W        W77060  33.402   2.734  10.655
11801W        W77061  42.837  18.669   3.066
11802W        W77062  18.513   1.999   2.245
11803W        W77063  42.895  30.980   1.161
11804W        W77064   6.590  11.414   3.510
11805W        W77065  29.672  34.926   2.727
11806W        W77066  16.884  30.120   1.889
11807W        W77067  26.107  30.403   4.642
11808W        W77068   4.922  23.522   1.457
11809W        W77069  10.856  41.923  11.053
11810W        W77070  26.664  30.020   0.966
11811W        W77071  17.099  25.745  12.551
11812W        W77072  40.436  33.984   1.812
11813W        W77073   7.379  25.659   1.899
11814W        W77074  26.035  21.828  12.563
11815W        W77075  39.144  14.258   2.286
11816W        W77076  40.341  34.219   0.885
11817W        W77077  22.664  18.326   3.236
11818W        W77078   5.158  21.948  11.166
11819W        W77079  11.692   9.803   2.793
11820W        W77080  38.057  16.710   3.593
11821W        W77081  42.376  39.637  14.034
11822W        W77082   2.047  37.053   2.834
11823W        W77083  28.395  25.065  14.099
11824W        W77084   6.589  35.917  13.589
11825W        W77085  35.029  18.516  13.898
11826W        W77086  27.548   4.535   4.908
11827W        W77087  13.252  14.805   0.813
11828W        W77088  39.083   9.625  12.597
11829W        W77089  10.725  34.376   2.137
11830W        W77090  34.653  22.549  13.054
11831W        W77091   5.841  25.659   1.791
11832W        W77092  24.911  24.977   2.243
11833W        W77093  43.743  38.895  11.077
11834W        W77094  31.407  43.340  10.398
11835W        W77095   8.444   5.545   4.154
11836W        W77096   2.462  30.939   1.314
11837W        W77097  41.238   5.242   1.361
11838W        W77098   2.764  11.451   3.086
11839W        W77099  40.333  11.664   0.509
11840W        W77100  34.389  38.062  11.129
11841W        W77101  27.194  39.498  10.605
11842W        W77102  44.256   4.984  14.285
11843W        W77103   4.673   1.810   1.839
11844W        W77104   7.304  17.608   1.034
11845W        W77105  34.492  31.392   0.750
11846W        W77106  38.247  25.977   1.800
11847W        W77107   4.674  27.594   0.836
11848W        W77108  33.988  10.739  14.057
11849W        W77109   7.804  16.675   4.614
11850W        W77110  42.044  23.399  12.669
11851W        W77111  43.047  11.660   2.925
11852W        W77112  24.886  34.511   3.650
11853W        W77113  24.429  34.003   0.272
11854W        W77114  19.002  41.379  14.007
11855W        W77115  24.773  44.690   2.025
11856W        W77116   4.309  29.414   3.247
11857W        W77117   3.595   3.863   0.499
11858W        W77118   1.319  20.255  12.785
11859W        W77119   2.597  44.430  10.259
11860W        W77120   4.657  36.870   1.946
11861W        W77121  39.006  30.897   0.813
11862W        W77122  10.645  14.025   1.965
11863W        W77123  13.102  40.281   2.712
11864W        W77124  44.438  36.445   0.382
11865W        W77125  27.939  16.390   1.234
11866W        W77126  30.880  21.573  10.623
11867W        W77127   0.990  37.345   2.787
11868W        W77128  21.290  36.231  12.383
11869W        W77129  19.523   1.578  14.823
11870W        W77130   3.188   9.368  13.350
11871W        W77131  34.827  16.320   4.577
11872W        W77132  39.939  18.477  11.180
11873W        W77133  40.519  43.899   2.154
11874W        W77134  32.956  42.604  11.597
11875W        W77135  13.707  36.747  13.537
11876W        W77136   2.005  43.693  11.337
11877W        W77137  23.569  17.166   4.030
11878W        W77138  32.663   0.922  10.647
11879W        W77139  41.016  20.660  12.946
11880W        W77140  33.858  27.039   4.133
11881W        W77141   2.965  36.275   2.162
11882W        W77142   7.680  20.612  11.975
11883W        W77143  32.878   7.907   1.934
11884W        W77144  12.963   9.148   2.038
11885W        W77145   1.479  16.292  13.497
11886W        W77146   7.008  39.609  14.020
11887W        W77147  11.594  18.173  12.024
11888W        W77148  38.052  30.246   2.514
11889W        W77149  35.282  44.227   2.736
11890W        W77150  28.258   2.860   3.724
11891W        W77151   6.599  22.535   0.669
11892W        W77152   5.534  40.570   4.222
11893W        W77153  24.863   8.466   2.856
11894W        W77154  24.751   1.234   0.899
11895W        W77155  34.352  17.575   4.338
11896W        W77156   3.881  31.533  10.735
11897W        W77157   1.654  38.431   1.225
11898W        W77158  29.183  29.133  14.933
11899W        W77159  18.530  10.911   4.507
11900W        W77160  11.671  27.911  10.600
11901W        W77161  41.281  44.378   4.059
11902W        W77162  22.794  12.631  14.754
11903W        W77163  35.996  42.475  14.463
11904W        W77164  33.031  28.170   4.868
11905W        W77165  38.420  34.972  10.965
11906W        W77166  11.927  27.504   2.234
11907W        W77167  22.230  23.198  13.493
11908W        W77168   6.116  42.364  12.935
11909W        W77169  29.649  38.912   2.325
11910W        W77170  33.795  22.348   4.126
11911W        W77171  27.438  20.069  12.639
11912W        W77172  11.316  36.495   2.836
11913W        W77173  22.383   6.465   0.796
11914W        W77174   5.269  30.699   1.255
11915W        W77175  41.930   7.727  13.409
11916W        W77176  18.268   4.713  11.510
11917W        W77177  35.271  32.885  14.676
11918W        W77178  41.515  10.650   2.268
11919W        W77179  20.020  19.725   2.804
11920W        W77180  23.972  32.167  11.607
11921W        W77181   7.422  42.703  14.806
11922W        W77182  22.158   3.744  10.911
11923W        W77183  41.845  16.008   3.668
11924W        W77184  42.534  34.622   2.125
11925W        W77185  12.094  38.075  12.564
11926W        W77186  12.791  41.569  12.037
11927W        W77187  27.398   8.717   3.669
11928W        W77188  31.585  28.526  11.577
11929W        W77189  14.095  40.577   2.820
11930W        W77190  17.112  24.773  12.610
11931W        W77191  35.135  22.068   4.624
11932W        W77192  36.879  17.999  14.248
11933W        W77193  22.698  41.293   4.072
11934W        W77194  23.225  38.938  11.024
11935W        W77195  36.868  22.020   0.803
11936W        W77196  12.288  39.150   3.394
11937W        W77197   6.431  31.393  13.791
11938W        W77198  38.010   6.198   2.317
11939W        W77199  17.749  38.348  12.361
11940W        W77200  21.958  39.444  14.103
11941W        W77201   5.289   1.965   3.154
11942W        W77202  41.865  31.726  11.524
11943W        W77203  25.072  18.721   1.350
11944W        W77204  36.885   9.311  14.664
11945W        W77205  31.158   9.235   1.790
11946W        W77206  34.027  16.051   2.789
11947W        W77207  24.005  38.565  11.943
11948W        W77208   6.703  44.886  13.366
11949W        W77209   0.800  25.715  14.311
11950W        W77210  18.116  27.707   1.410
11951W        W77211  16.051  31.960  10.692
11952W        W77212  32.160   2.844   4.719
11953W        W77213  18.056  26.585   1.761
11954W        W77214  36.976  38.877  13.641
11955W        W77215   8.216   3.990  10.807
11956W        W77216  13.065   1.026  12.930
11957W        W77217  37.969   4.251  14.244
11958W        W77218   9.812  16.091  10.891
11959W        W77219   6.934   1.976   3.565
11960W        W77220   3.688  21.797  11.599
11961W        W77221   0.873   7.904  14.980
11962W        W77222  23.305  24.543  12.060
11963W        W77223  16.675  36.378   4.715
11964W        W77224   8.446  37.613  13.825
11965W        W77225  29.665  24.654   0.449
11966W        W77226   8.458  38.050  13.557
11967W        W77227  32.695   5.009   2.878
11968W        W77228  40.317   4.263  12.930
11969W        W77229  28.006   8.008  11.425
11970W        W77230  43.960  24.951   1.459
11971W        W77231  19.002  10.134   4.558
11972W        W77232  20.459  35.068  14.601
11973W        W77233   5.105   0.931   4.081
11974W        W77234  22.735   8.370  13.013
11975W        W77235  27.068  33.827  13.880
11976W        W77236  30.687  18.547   0.842
11977W        W77237   4.057  35.920  14.741
11978W        W77238  31.570  19.297  14.337
11979W        W77239  42.033  44.877  11.819
11980W        W77240   7.655  29.953   2.501
11981W        W77241  16.868  30.685   0.410
11982W        W77242  31.469  25.233  12.451
11983W        W77243  33.357  44.456   4.517
11984W        W77244   2.848  43.490   2.958
11985W        W77245   0.770  24.078  11.690
11986W        W77246  44.737  22.742  10.347
11987W        W77247  28.666   2.216  12.673
11988W        W77248  29.912   3.406   1.329
11989W        W77249  44.985  24.990  10.862
11990W        W77250  41.764  35.556  13.210
11991W        W77251   4.065   8.939  11.973
11992W        W77252  36.948  36.093  13.378
11993W        W77253  25.118  26.719   4.928
11994W        W77254  28.297  12.455  14.164
11995W        W77255   5.173  31.999   0.969
11996W        W77256  36.907  35.012  14.992
11997W        W77257  17.659  14.133  10.740
11998W        W77258   1.786   2.957  10.787
11999W        W77259  13.300  12.114  12.029
12000W        W77260  17.325   0.066  11.920
12001W        W77261   6.197  39.772  12.528
12002W        W77262  38.497   3.611   3.589
12003W        W77263  40.811  44.435  11.822
12004W        W77264  37.636   3.186  12.016
12005W        W77265   9.407  29.136   3.065
12006W        W77266  30.959  15.672  12.889
12007W        W77267  38.595   2.453  12.990
12008W        W77268  37.144   7.344   3.119
12009W        W77269  26.457  18.986  10.244
12010W        W77270  37.583  13.815  14.478
12011W        W77271  15.093  10.723  11.914
12012W        W77272  13.768   3.818  14.537
12013W        W77273   7.969  18.492  10.805
12014W        W77274   8.150   7.224  14.594
12015W        W77275  18.057  10.799   3.614
12016W        W77276  16.117  12.420  14.276
12017W        W77277  37.446  14.719   2.606
12018W        W77278  13.648   2.794   4.099
12019W        W77279   5.963  33.156  13.028
12020W        W77280  32.010  14.572  11.654
12021W        W77281  42.582  13.742   2.134
12022W        W77282  18.600  20.713  11.424
12023W        W77283  39.367  16.621  13.291
12024W        W77284  17.764  43.012   2.598
12025W        W77285  36.511  29.525   2.206
12026W        W77286   1.938  35.623  14.484
12027W        W77287  38.374  40.492   3.116
12028W        W77288  13.165  21.004   5.015
12029W        W77289  41.694   0.267   3.579
12030W        W77290  42.402  11.081   2.876
12031W        W77291   3.668  30.049   4.762
12032W        W77292   3.899  11.319  11.115
12033W        W77293  26.258  32.074  11.843
12034W        W77294   2.456  31.668  11.040
12035W        W77295  22.417  15.166   3.301
12036W        W77296  24.556  32.197  14.892
12037W        W77297  15.900  19.437  10.320
12038W        W77298  14.283  32.081   2.829
12039W        W77299   7.839   1.538   2.873
12040W        W77300  34.233  12.642  13.508
12041W        W77301   2.667  19.079  12.954
12042W        W77302  36.136   5.988  12.356
12043W        W77303  13.718  34.953   0.958
12044W        W77304  42.116   8.859  11.443
12045W        W77305  16.633  43.541  11.552
12046W        W77306   0.763   5.896  14.119
12047W        W77307  40.517   2.859  10.891
12048W        W77308  15.658  34.668   1.788
12049W        W77309  14.501  12.106  11.049
12050W        W77310  32.510  37.150  13.934
12051W        W77311  31.596  40.303  12.597
12052W        W77312  24.942  25.970  12.007
12053W        W77313  12.616  13.113   0.624
12054W        W77314  10.678   1.395   0.918
12055W        W77315  39.314  31.930  12.907
12056W        W77316  20.342  15.728  10.520
12057W        W77317  41.800   1.738  14.271
12058W        W77318  24.549  10.418   2.687
12059W        W77319   0.588  22.978  10.740
12060W        W77320  30.905  36.047  12.499
12061W        W77321   4.838   1.812   0.304
12062W        W77322  39.237  25.649   1.820
12063W        W77323   9.830   9.707  14.974
12064W        W77324  39.061  14.912   1.228
12065W        W77325   5.612  20.276  14.435
12066W        W77326  19.899  42.241   3.605
12067W        W77327  15.203  16.326   1.222
12068W        W77328  32.990  30.674  14.070
12069W        W77329   2.954  18.276   0.240
12070W        W77330  15.723  26.058  11.442
12071W        W77331   6.811  19.827   0.085
12072W        W77332  38.489   3.120  11.317
12073W        W77333  23.053  28.928  14.499
12074W        W77334  16.068  18.599   3.684
12075W        W77335  11.219   6.009  13.333
12076W        W77336  34.508   1.072   9.869
12077W        W77337   4.780  28.449   1.475
12078W        W77338  16.692  36.738   2.488
12079W        W77339   0.157   7.676  14.801
12080W        W77340   6.062   4.882   0.683
12081W        W77341  25.024  11.119  13.022
12082W        W77342   2.520  24.139   3.300
12083W        W77343  41.657  39.557   2.823
12084W        W77344   0.734  23.582   3.165
12085W        W77345  15.604  19.659   5.581
12086W        W77346  21.251  43.073   4.570
12087W        W77347  37.963   6.654   4.722
12088W        W77348  39.892  13.368   4.093
12089W        W77349   2.790  38.849  14.820
12090W        W77350  37.421  42.862   2.311
12091W        W77351  33.623   3.590  10.173
12092W        W77352  31.891  22.783   3.236
12093W        W77353  36.434  22.696  10.653
12094W        W77354  30.097  39.944  13.525
12095W        W77355  36.537  15.547   4.125
12096W        W77356  18.940  42.372   2.216
12097W        W77357  34.057  26.978   2.972
12098W        W77358  20.721  31.388   2.401
12099W        W77359  22.951  18.008   0.235
12100W        W77360  11.128  43.346  13.778
12101W        W77361   5.874  29.854  14.842
12102W        W77362  41.420  21.211   0.252
12103W        W77363  10.628  33.377   4.152
12104W        W77364  11.091  36.034   0.281
12105W        W77365   4.449  11.411   1.918
12106W        W77366  24.043  44.090   1.853
12107W        W77367  22.168   8.832  12.633
12108W        W77368  22.104  43.808   0.422
12109W        W77369   9.925  27.877  12.918
12110W        W77370  37.032  29.468   3.625
12111W        W77371  10.399  33.579   1.001
12112W        W77372  41.894  12.568   0.382
12113W        W77373  11.842  37.484  13.384
12114W        W77374  11.840  35.442  10.666
12115W        W77375  10.843  39.574  12.620
12116W        W77376  37.093  16.841  13.430
12117W        W77377  19.450   3.413  12.974
12118W        W77378  18.741  24.197  13.813
12119W        W77379  25.959  12.286   3.414
12120W        W77380   8.486   3.394   4.284
12121W        W77381  15.976  19.716  11.717
12122W        W77382  44.468  21.764   1.820
12123W        W77383  44.781  37.501  12.953
12124W        W77384   7.626  33.563  13.954
12125W        W77385  20.784  37.998  14.354
12126W        W77386  12.590  44.815   3.398
12127W        W77387   3.187  14.799  10.690
12128W        W77388  38.236   2.444  14.222
12129W        W77389   8.352  14.542   1.660
12130W        W77390  41.546   2.700   1.710
12131W        W77391  37.454  43.012  11.431
12132W        W77392   2.802  31.378  14.945
12133W        W77393   1.071  44.542   0.888
12134W        W77394  14.006   9.398  11.191
12135W        W77395  24.783  11.766   0.819
12136W        W77396  44.947   0.605   1.597
12137W        W77397  24.208  21.311   3.325
12138W        W77398   8.369  15.283  11.969
12139W        W77399  36.454  41.820   4.605
12140W        W77400  10.855  20.538   2.425
12141W        W77401  22.208   3.853  12.581
12142W        W77402  32.863  42.416  13.926
12143W        W77403  14.385   9.790  14.199
12144W        W77404  23.740  11.942  11.198
12145W        W77405  20.772  35.073  11.595
12146W        W77406  10.209   5.703  13.999
12147W        W77407  40.312  30.201   1.795
12148W        W77408  20.380   9.909  11.911
12149W        W77409  38.314  26.685  12.118
12150W        W77410  43.318  37.295   1.984
12151W        W77411  28.398  29.151   4.978
12152W        W77412  17.652  14.465   2.403
12153W        W77413  28.111  24.472   1.874
12154W        W77414   3.197  32.185  13.391
12155W        W77415  38.148   5.660  14.435
12156W        W77416  39.622  35.186   4.158
12157W        W77417  18.623   5.369   4.998
12158W        W77418  30.378  34.341  13.369
12159W        W77419  38.832  12.228   4.148
12160W        W77420  30.956  22.529  14.988
12161W        W77421   2.239   0.916   3.174
12162W        W77422   4.936  30.672  11.048
12163W        W77423   8.267   8.129   4.181
12164W        W77424  15.161  26.733  13.311
12165W        W77425  35.879  44.742  12.473
12166W        W77426  15.561  36.140   3.513
12167W        W77427  14.849  20.556  14.294
12168W        W77428  17.056  21.742  11.979
12169W        W77429  41.488  35.494   1.721
12170W        W77430  12.199  28.867  11.550
12171W        W77431   2.105  16.124  11.921
12172W        W77432  24.310  34.922   3.986
12173W        W77433  32.640  18.280   1.587
12174W        W77434  37.977  14.661  14.076
12175W        W77435  12.776   0.809   2.900
12176W        W77436   4.233   3.148   4.153
12177W        W77437  37.099  11.395   2.788
12178W        W77438   5.835  21.247   3.162
12179W        W77439  11.882   4.426  11.826
12180W        W77440  24.145  11.368  11.982
12181W        W77441  24.729  14.917   1.514
12182W        W77442  38.960  10.293   3.833
12183W        W77443  29.438   4.229   3.805
12184W        W77444   6.148  44.411   5.078
12185W        W77445  28.700  31.472  13.073
12186W        W77446  39.035  22.615  13.156
12187W        W77447   9.486   9.883  14.236
12188W        W77448   5.998  32.601   1.394
12189W        W77449   0.364  31.892  13.029
12190W        W77450  42.090  23.905   3.695
12191W        W77451  25.653  32.425   4.534
12192W        W77452  26.140   2.007   1.937
12193W        W77453  44.822  29.400   2.253
12194W        W77454  13.675  36.573   2.616
12195W        W77455  38.085  24.868  11.842
12196W        W77456  29.152  31.622   0.433
12197W        W77457  36.712  12.352  13.564
12198W        W77458  40.124   2.480   4.127
12199W        W77459  34.095  43.846   0.797
12200W        W77460   9.596  16.596   0.728
12201W        W77461  17.559  24.932   1.521
12202W        W77462  29.664  20.965  10.978
12203W        W77463   5.364  19.720  12.811
12204W        W77464  21.285  41.319  10.916
12205W        W77465  31.922  12.589   3.599
12206W        W77466  20.987  43.300  10.979
12207W        W77467  15.343  27.960  10.569
12208W        W77468  19.058  28.030  14.412
12209W        W77469  16.771  43.268   3.887
12210W        W77470  34.566  14.851  11.051
12211W        W77471  30.592  10.628  11.575
12212W        W77472  14.929  19.374   5.057
12213W        W77473   0.253  40.907  12.530
12214W        W77474   2.032  17.516  12.525
12215W        W77475  41.485  19.009  11.626
12216W        W77476  26.216  28.479   4.760
12217W        W77477  25.296  13.160   3.569
12218W        W77478  32.148   5.336   2.171
12219W        W77479   6.724  13.189  12.451
12220W        W77480  15.075  28.198   4.583
12221W        W77481  30.197   3.163  14.332
12222W        W77482  11.841   4.183   2.292
12223W        W77483   6.232  33.625   2.174
12224W        W77484  40.053  37.494  10.615
12225W        W77485  26.144  38.837  14.057
12226W        W77486  12.415  12.193   1.414
12227W        W77487  27.583   0.826  13.887
12228W        W77488  21.581   6.625  11.988
12229W        W77489  39.353  25.219  14.445
12230W        W77490  38.080   2.344  12.879
12231W        W77491  44.028   1.290  14.116
12232W        W77492  14.408  13.172   3.566
12233W        W77493  12.366  19.279  11.536
12234W        W77494  43.594  21.971   2.831
12235W        W77495  43.434  16.566   4.671
12236W        W77496  42.738  25.744   4.522
12237W        W77497  19.254   7.845  14.191
12238W        W77498  42.459  33.230  10.660
12239W        W77499  35.006  44.100   2.296
12240W        W77500  38.502  24.532   0.324
12241W        W77501   1.798   9.204   1.880
12242W        W77502   8.583   1.292  14.429
12243W        W77503  22.964  43.072  13.846
12244W        W77504  10.702  42.095  12.132
12245W        W77505  32.934  39.943  11.683
12246W        W77506  20.395   8.126  12.990
12247W        W77507  23.622  21.321   2.833
12248W        W77508  20.317  33.278   2.156
12249W        W77509  28.187  17.182  10.745
12250W        W77510  43.435  12.862   2.926
12251W        W77511  10.570  41.705  11.409
12252W        W77512  32.387  12.704  13.951
12253W        W77513  15.273  17.189  11.482
12254W        W77514  40.990  36.135  13.626
12255W        W77515  15.757   9.871  13.452
12256W        W77516  12.042  42.079   1.852
12257W        W77517  32.102   6.717   4.625
12258W        W77518  29.606   7.725  11.921
12259W        W77519  16.199  35.606  11.687
12260W        W77520  23.597  14.308   0.443
12261W        W77521   2.198  28.115   3.658
12262W        W77522   0.487  29.463  14.875
12263W        W77523  32.037  11.355   3.080
12264W        W77524   7.516  11.258   0.742
12265W        W77525  22.690  31.657  14.281
12266W        W77526  37.121  13.280  12.783
12267W        W77527  15.684   5.492   3.986
12268W        W77528  10.650  29.117   3.792
12269W        W77529  24.964  32.994  12.447
12270W        W77530   1.430  18.812  12.890
12271W        W77531  19.361  27.850   3.305
12272W        W77532  20.740  37.204  13.866
12273W        W77533  11.885  33.363   0.421
12274W        W77534  20.706   4.648   2.760
12275W        W77535  18.802  22.553  12.414
12276W        W77536  17.380  12.123  11.888
12277W        W77537  15.862  44.544   3.547
12278W        W77538   9.405  36.339   3.026
12279W        W77539  25.016  19.887   9.910
12280W        W77540  34.481   4.994  11.071
12281W        W77541  37.456  22.390   1.572
12282W        W77542  42.961  21.958   4.095
12283W        W77543  28.514  39.763  11.476
12284W        W77544  36.122  25.543   0.041
12285W        W77545   4.886  22.314  11.410
12286W        W77546  39.785  20.604  13.217
12287W        W77547  35.029  30.779   2.344
12288W        W77548  41.374  24.711   0.743
12289W        W77549  13.087  37.015   4.280
12290W        W77550   9.650  41.144   1.741
12291W        W77551  35.962  27.900   1.263
12292W        W77552  10.970  15.106  14.815
12293W        W77553  22.074   1.250   0.680
12294W        W77554  32.161  27.954   2.323
12295W        W77555  21.713  20.626  11.901
12296W        W77556  24.362  36.897  10.799
12297W        W77557  16.652  16.574  11.236
12298W        W77558   6.136   8.870  11.645
12299W        W77559  16.019   5.257  10.997
12300W        W77560  19.644  13.664  13.440
12301W        W77561  10.703  43.766   4.146
12302W        W77562  33.045   1.472  11.172
12303W        W77563  18.424  33.127   2.348
12304W        W77564  38.317   2.574   0.319
12305W        W77565   1.751  34.029   1.764
12306W        W77566   0.369   6.128  11.061
12307W        W77567  22.855  36.536   1.331
12308W        W77568  21.258  42.471   0.943
12309W        W77569  21.673  31.164   2.224
12310W        W77570  35.990  31.582   3.913
12311W        W77571  39.998  39.008   4.098
12312W        W77572  25.242  40.864  11.125
12313W        W77573  17.560  36.680   2.805
12314W        W77574  44.299  22.132  10.560
12315W        W77575   8.121  23.741  14.448
12316W        W77576  29.036  20.009   1.500
12317W        W77577  24.719  41.989  12.747
12318W        W77578  23.102  21.631  11.032
12319W        W77579  39.185  28.032   1.755
12320W        W77580   1.684  24.453   4.027
12321W        W77581  18.775  12.276  14.433
12322W        W77582  16.729  10.574   1.183
12323W        W77583   5.244   4.653  12.663
12324W        W77584  25.071  31.049  12.578
12325W        W77585  28.988  36.454   1.979
12326W        W77586  36.523  29.570  13.056
12327W        W77587   4.212  36.863   2.664
12328W        W77588  15.014  42.039   1.090
12329W        W77589  24.270  28.295   4.411
12330W        W77590  12.771   7.240  14.740
12331W        W77591   3.628  13.648  13.423
12332W        W77592  19.998  34.875   0.406
12333W        W77593  11.413  36.987   3.602
12334W        W77594   1.358  15.007  10.447
12335W        W77595  14.901   7.392   3.717
12336W        W77596  15.376  33.373  11.647
12337W        W77597  13.235  23.632   3.240
12338W        W77598  23.517  23.471   3.735
12339W        W77599  32.132  13.369   1.780
12340W        W77600  28.460  25.614   2.090
12341W        W77601  42.582  30.885  13.964
12342W        W77602  12.111  16.469   3.220
12343W        W77603  25.010  39.706  13.431
12344W        W77604  29.981  24.191   4.321
12345W        W77605  17.347  21.193   2.979
12346W        W77606  14.160  41.379   4.368
12347W        W77607   8.767  12.166  11.504
12348W        W77608  22.251   7.233  11.969
12349W        W77609  14.018  10.644   4.547
12350W        W77610   3.778  44.794   3.861
12351W        W77611  39.822  42.020  10.651
12352W        W77612  38.602  25.593   3.379
12353W        W77613  37.951  24.485  13.286
12354W        W77614  41.980  19.035   1.163
12355W        W77615  13.015  24.429   1.665
12356W        W77616  37.689  29.244  11.133
12357W        W77617  16.755   5.141   3.280
12358W        W77618  26.233  26.017   1.197
12359W        W77619  13.274  44.618  12.548
12360W        W77620  37.453  13.883  11.113
12361W        W77621  12.286  11.848   4.565
12362W        W77622  37.033  36.621  14.420
12363W        W77623  39.883  37.791  11.088
12364W        W77624  41.422  31.976   0.903
12365W        W77625  16.404  35.045  14.544
12366W        W77626  20.119   6.712   2.220
12367W        W77627  10.435  19.575  11.052
12368W        W77628  27.421  31.038  11.933
12369W        W77629  18.588  20.964   2.813
12370W        W77630  42.606  29.201  11.136
12371W        W77631  39.007  43.523  14.308
12372W        W77632  32.158  43.829  14.297
12373W        W77633  19.709  19.754   3.225
12374W        W77634  24.047  34.107   4.566
12375W        W77635  31.043   8.913  12.660
12376W        W77636   9.589  28.356   2.714
12377W        W77637   7.372   3.731  12.236
12378W        W77638  32.497  18.168  14.384
12379W        W77639  23.803  31.518  14.357
12380W        W77640  34.997  21.918   2.271
12381W        W77641   0.071  42.542  13.075
12382W        W77642  34.420  21.957  11.099
12383W        W77643  25.295  26.178   1.826
12384W        W77644   6.307  12.826   1.398
12385W        W77645  34.621  40.320  13.865
12386W        W77646  16.258  34.003   5.004
12387W        W77647  41.001  28.537   0.087
12388W        W77648  26.843  16.717   3.669
12389W        W77649  32.240   1.951   2.907
12390W        W77650  44.829  40.293   2.327
12391W        W77651  32.763   7.599   1.523
12392W        W77652  23.527   1.742   1.969
12393W        W77653  35.736  19.029   1.430
12394W        W77654  12.817  11.126  14.298
12395W        W77655  14.661  17.360   4.236
12396W        W77656  44.714  34.492   0.296
12397W        W77657  17.903  31.594  14.555
12398W        W77658  13.223  12.928   4.623
12399W        W77659  21.465   7.161  12.986
12400W        W77660   6.234  42.641   1.867
12401W        W77661  27.664  25.108   2.015
12402W        W77662  25.207  14.777   1.373
12403W        W77663   0.857   0.222  12.641
12404W        W77664  27.956  35.290  14.972
12405W        W77665  39.558  27.877  10.897
12406W        W77666  19.817  29.714   0.697
12407W        W77667  21.137   4.348  14.363
12408W        W77668   9.371  24.121  13.411
12409W        W77669  26.032   7.096   0.442
12410W        W77670   2.152   1.203   1.737
12411W        W77671  42.586  14.859   3.392
12412W        W77672   4.895  14.708  11.173
12413W        W77673  30.049  22.697   2.172
12414W        W77674  44.524  44.210   4.926
12415W        W77675  24.554   0.956  13.119
12416W        W77676  23.738   9.245  11.509
12417W        W77677  34.449  35.060   0.983
12418W        W77678  20.710   6.247   2.628
12419W        W77679  27.996  14.187   0.720
12420W        W77680  33.949  17.707   0.604
12421W        W77681  30.563  22.136   1.310
12422W        W77682  35.631  24.031   0.348
12423W        W77683  16.204  13.883  14.301
12424W        W77684  32.186  13.026   3.749
12425W        W77685  36.407  28.273  12.295
12426W        W77686  28.886   2.376   3.053
12427W        W77687  23.511  27.572   2.285
12428W        W77688  24.769  33.908   1.774
12429W        W77689  35.544   6.867   1.788
12430W        W77690  28.189   7.822   3.913
12431W        W77691  27.673  11.331   0.041
12432W        W77692   2.371   1.437  14.296
12433W        W77693  42.063  41.491   2.256
12434W        W77694  22.489  25.511   1.454
12435W        W77695  33.603  30.867   2.648
12436W        W77696   5.263  37.580   0.845
12437W        W77697  28.525  30.081   1.336
12438W        W77698  29.534  20.169  11.516
12439W        W77699  40.874  41.906   4.081
12440W        W77700  41.426   4.204  11.009
12441W        W77701  38.448  30.339   3.196
12442W        W77702  39.923  24.990   2.826
12443W        W77703   9.406  16.597   3.202
12444W        W77704   4.267   7.342  13.816
12445W        W77705  18.663  18.753  11.278
12446W        W77706  29.862  23.480  14.436
12447W        W77707  24.729  32.343   0.483
12448W        W77708   2.190   0.908  14.930
12449W        W77709   0.703   1.840   0.404
12450W        W77710  36.090  26.957  12.665
12451W        W77711  14.147  20.297   0.493
12452W        W77712  35.604  24.002   1.303
12453W        W77713  19.969  34.560   2.876
12454W        W77714   8.209   3.618  12.475
12455W        W77715  28.577   8.583   2.253
12456W        W77716  37.559  33.062   2.246
12457W        W77717   8.903  10.270   4.228
12458W        W77718  30.521  11.769   1.269
12459W        W77719  27.610  18.044   0.899
12460W        W77720  41.451  20.104  14.433
12461W        W77721   5.464   5.588  11.455
12462W        W77722  24.710  33.354   0.741
12463W        W77723   9.329  11.468   1.945
12464W        W77724   6.771  18.807   4.799
12465W        W77725  32.001   9.434  10.961
12466W        W77726  41.926  32.609   4.719
12467W        W77727  22.725  17.640  14.074
12468W        W77728   4.405  29.035   2.072
12469W        W77729  18.158  11.969  13.900
12470W        W77730  10.731  18.180   2.693
12471W        W77731   1.761   7.799  14.080
12472W        W77732   7.715  28.193   4.346
12473W        W77733  42.010  40.870   4.547
12474W        W77734  16.655   7.116  12.765
12475W        W77735  39.132  36.340  13.084
12476W        W77736   8.080  18.111   0.045
12477W        W77737  24.979  34.467  10.986
12478W        W77738  13.173  33.718   0.893
12479W        W77739  22.175  41.380   0.718
12480W        W77740  30.427  42.196   0.352
12481W        W77741  28.091   8.263   4.166
12482W        W77742  27.982   2.287   1.901
12483W        W77743  10.256  29.394  13.440
12484W        W77744   6.039  23.608  12.387
12485W        W77745  42.096  43.694  11.561
12486W        W77746  43.396  13.346   2.755
12487W        W77747  23.055  20.183   3.075
12488W        W77748   1.730  30.043  11.963
12489W        W77749  32.753  30.950   2.606
12490W        W77750  13.906   5.275  12.719
12491W        W77751  39.507   6.418   2.392
12492W        W77752   1.422  39.546   3.730
12493W        W77753  22.650  23.383  12.302
12494W        W77754   0.259  41.021   4.320
12495W        W77755  13.710  42.237   3.214
12496W        W77756  11.573  36.855  14.818
12497W        W77757  37.554  10.984   1.913
12498W        W77758  36.383  17.171  10.154
12499W        W77759  10.253  32.572   0.245
12500W        W77760  25.490  29.879  13.773
12501W        W77761  20.585  37.595   3.751
12502W        W77762  27.770  10.092  13.520
12503W        W77763   0.975  43.784  12.635
12504W        W77764  34.607  12.256   1.834
12505W        W77765  39.070  32.603   1.564
12506W        W77766  33.896  12.938  11.379
12507W        W77767  35.353  35.577  14.390
12508W        W77768  34.352  31.122  10.571
12509W        W77769   7.839   6.297  10.294
12510W        W77770  32.667  34.618   4.209
12511W        W77771  12.494  14.068  13.892
12512W        W77772  41.954   6.894   0.042
12513W        W77773  13.298  13.106   0.531
12514W        W77774   0.559  28.631  12.657
12515W        W77775   3.503  29.635   4.101
12516W        W77776  27.174  33.244  11.602
12517W        W77777  42.789  37.333   4.139
12518W        W77778  34.074   8.757  12.479
12519W        W77779  20.196  12.835   4.798
12520W        W77780  42.463  34.657  11.611
12521W        W77781  31.310  21.989  11.266
12522W        W77782  17.736   1.896  14.969
12523W        W77783  34.274  10.055  14.291
12524W        W77784  31.800  41.822   4.301
12525W        W77785   7.430  13.361  10.494
12526W        W77786  22.477   2.385  11.708
12527W        W77787  13.115  29.914   1.222
12528W        W77788   0.893   5.793   1.162
12529W        W77789   6.430  21.653   2.280
12530W        W77790  32.725  11.676   0.694
12531W        W77791   1.889  33.969   4.833
12532W        W77792  12.186  37.871   3.854
12533W        W77793   4.395   0.842  12.363
12534W        W77794  32.495  12.392  12.071
12535W        W77795  38.429  18.064   0.141
12536W        W77796  12.808  24.478   3.400
12537W        W77797  34.671  19.954  12.135
12538W        W77798  20.016  25.298  12.159
12539W        W77799  35.246  24.455  10.937
12540W        W77800   0.557  31.418  13.973
12541W        W77801  44.714  35.143   1.166
12542W        W77802  25.725  30.706   0.368
12543W        W77803  34.047   2.324  13.818
12544W        W77804  29.557  32.378  12.707
12545W        W77805  12.761  27.558   0.378
12546W        W77806  26.279   5.038  10.176
12547W        W77807  36.549  27.431  10.541
12548W        W77808   7.073   6.187   0.326
12549W        W77809  29.402   3.319   4.583
12550W        W77810  43.741  10.487   1.969
12551W        W77811  27.084  43.931   2.738
12552W        W77812  30.482  42.359   4.564
12553W        W77813  30.113  14.621   3.675
12554W        W77814  32.230  41.927   2.250
12555W        W77815  32.917   6.667  13.399
12556W        W77816  30.941  41.627   2.724
12557W        W77817  39.809  25.020  13.193
12558W        W77818  31.552  20.499   0.949
12559W        W77819  26.756  10.624   0.709
12560W        W77820  10.132  20.270   2.914
12561W        W77821  35.949   5.328  13.867
12562W        W77822  19.705  29.756  14.951
12563W        W77823  41.928  19.232  12.528
12564W        W77824  26.156  44.380   2.758
12565W        W77825  13.666  37.626  11.680
12566W        W77826  42.038  10.662   2.335
12567W        W77827  29.635   7.379   1.960
12568W        W77828  27.550   0.432   4.889
12569W        W77829  14.778  21.725   3.231
12570W        W77830   9.821  34.016   2.219
12571W        W77831  12.662  43.788  12.877
12572W        W77832   0.710  16.890   0.395
12573W        W77833  34.827  41.801   4.105
12574W        W77834  18.615  29.602   4.934
12575W        W77835  16.047  34.032   2.572
12576W        W77836  28.654  39.810  14.016
12577W        W77837  32.094   7.444   0.842
12578W        W77838   4.887   9.279   0.360
12579W        W77839  20.402  14.132   2.065
12580W        W77840   6.274   7.712  14.986
12581W        W77841  44.728  42.920  14.549
12582W        W77842  38.533  26.184  13.877
12583W        W77843  16.418  17.107  14.652
12584W        W77844  10.844  16.548  12.940
12585W        W77845  30.988  23.610   1.307
12586W        W77846   6.616  17.296  14.986
12587W        W77847   3.354  44.290   2.606
12588W        W77848   6.234  32.469  13.136
12589W        W77849  33.547   1.381   2.900
12590W        W77850  16.001  34.956  12.131
12591W        W77851  33.365   0.973   3.198
12592W        W77852   9.296  36.780   2.809
12593W        W77853  11.614  19.058  10.796
12594W        W77854  10.203  31.701  12.043
12595W        W77855  25.936   3.374  11.557
12596W        W77856  43.018  23.334   0.543
12597W        W77857  16.132  21.806   0.119
12598W        W77858  35.653  25.650  12.013
12599W        W77859  21.731  18.354  13.025
12600W        W77860  32.525  17.028   0.876
12601W        W77861  29.858  38.197  12.734
12602W        W77862  32.881  42.803  14.281
12603W        W77863  12.184  40.777   2.700
12604W        W77864  20.706   1.780   4.731
12605W        W77865  14.653  21.983   1.965
12606W        W77866  40.595  26.527  14.221
12607W        W77867  12.362  24.225  14.964
12608W        W77868  38.875  13.325  13.308
12609W        W77869   4.126   7.811  12.501
12610W        W77870  10.947  24.961  12.470
12611W        W77871   3.963   0.336  13.880
12612W        W77872  13.836  28.029  13.932
12613W        W77873  26.628  37.097   0.942
12614W        W77874  31.539   6.444  12.074
12615W        W77875  35.383  16.182  11.894
12616W        W77876  40.841  30.846  12.006
12617W        W77877  42.287  31.875  11.252
12618W        W77878  37.552  38.818  11.042
12619W        W77879  12.189  37.713  11.053
12620W        W77880  25.003  22.078  13.985
12621W        W77881  38.771   1.661   2.293
12622W        W77882   3.271  35.849   3.609
12623W        W77883  19.273  18.423   0.355
12624W        W77884   5.948  14.672  11.033
12625W        W77885   4.377  40.275  11.071
12626W        W77886   3.349  35.617  14.378
12627W        W77887  43.437  32.073   4.219
12628W        W77888  20.502  12.501   4.509
12629W        W77889  29.863  44.577  13.748
12630W        W77890  36.610  31.477   2.240
12631W        W77891  26.267  34.181  13.029
12632W        W77892  15.054   4.289  12.978
12633W        W77893  38.069  28.941   1.492
12634W        W77894  38.846  29.360   2.034
12635W        W77895  21.491  40.793   3.349
12636W        W77896  18.999   3.062   3.200
12637W        W77897  18.558   0.935  12.851
12638W        W77898  33.928  34.417   4.056
12639W        W77899   8.010  23.721  14.970
12640W        W77900  17.746  42.442  13.989
12641W        W77901  44.498  32.173   2.688
12642W        W77902  19.367  12.767   3.189
12643W        W77903  40.330  38.186  12.761
12644W        W77904  24.443  16.202   4.958
12645W        W77905  20.178  41.353  10.407
12646W        W77906  15.295  30.129  13.781
12647W        W77907  40.685  37.077   0.008
12648W        W77908  42.720  35.831   3.248
12649W        W77909  23.730  13.491   3.350
12650W        W77910  34.363  30.746  11.724
12651W        W77911  42.066  40.027   1.267
12652W        W77912  16.139  31.547  12.849
12653W        W77913  35.517   2.242  10.175
12654W        W77914  43.275   3.131  13.399
12655W        W77915  31.414  39.810   3.275
12656W        W77916  36.859  36.843  13.921
12657W        W77917  13.705  42.615   3.569
12658W        W77918  17.232  25.291   5.134
12659W        W77919  27.437  34.927  11.671
12660W        W77920  18.562  28.508   3.544
12661W        W77921  23.213  39.304  14.795
12662W        W77922  17.743   9.254  11.586
12663W        W77923   4.938  21.278   1.882
12664W        W77924  11.498  34.208   4.844
12665W        W77925   5.806  23.645  14.345
12666W        W77926  10.217  36.068  13.128
12667W        W77927   0.348  17.093  14.771
12668W        W77928  10.338  40.729  14.798
12669W        W77929  32.534  16.354  11.594
12670W        W77930  12.493  14.866  12.452
12671W        W77931  25.544  34.448  11.218
12672W        W77932  19.994  25.212   5.051
12673W        W77933  30.581   4.778  10.698
12674W        W77934   2.598   3.538   2.668
12675W        W77935   6.723   9.644   0.091
12676W        W77936  25.123  40.836   3.813
12677W        W77937  22.935   4.187   2.728
12678W        W77938  13.140  14.213  14.960
12679W        W77939  35.853   8.079   0.350
12680W        W77940  30.018  19.431   3.611
12681W        W77941   0.676  28.454   1.354
12682W        W77942  20.875   1.900   2.911
12683W        W77943  44.908  18.157   4.297
12684W        W77944  19.718   1.436  13.894
12685W        W77945  41.984   8.234   2.679
12686W        W77946  42.428  13.115  11.387
12687W        W77947  22.338  26.636  11.630
12688W        W77948  43.838   3.381   2.813
12689W        W77949  11.130  28.702   1.379
12690W        W77950  32.781  19.493  12.068
12691W        W77951  21.596   8.811   0.367
12692W        W77952  33.882  24.163  11.284
12693W        W77953   2.881  29.783   5.440
12694W        W77954  33.171   4.827  12.182
12695W        W77955  25.755  16.615   5.033
12696W        W77956  14.874  31.024  11.554
12697W        W77957  41.280   2.051  13.119
12698W        W77958  43.315   7.217  12.815
12699W        W77959  27.731  21.307   1.981
12700W        W77960   8.982  11.188  11.252
12701W        W77961   3.948  40.700   3.199
12702W        W77962   5.663  36.690   1.762
12703W        W77963  17.757  10.261  14.934
12704W        W77964  34.448  25.017   4.661
12705W        W77965  28.481  44.448   1.286
12706W        W77966   3.238  27.042   0.414
12707W        W77967  13.864  26.653   3.672
12708W        W77968  32.572  20.784   4.693
12709W        W77969  42.779  17.287   4.680
12710W        W77970  28.221  35.627   3.196
12711W        W77971   2.918  16.863  10.798
12712W        W77972  15.673  44.676   2.210
12713W        W77973  24.986  33.437  14.824
12714W        W77974  24.212  20.131  13.521
12715W        W77975  42.205   5.752   5.041
12716W        W77976   3.425  28.501   2.279
12717W        W77977   3.469   0.271   3.706
12718W        W77978  24.124  24.024   4.103
12719W        W77979  35.678  38.617  12.093
12720W        W77980  25.384  13.112   2.865
12721W        W77981  38.118  10.648  13.405
12722W        W77982  27.574  32.479  13.887
12723W        W77983  41.588  36.622  14.585
12724W        W77984  34.165   5.024   2.753
12725W        W77985  36.804   5.418  10.620
12726W        W77986  20.239  33.837  13.149
12727W        W77987  16.656   9.155   2.205
12728W        W77988   5.853  44.841   0.645
12729W        W77989   2.731   8.001   2.205
12730W        W77990  44.974  28.975  12.018
12731W        W77991   8.902   5.869  11.762
12732W        W77992  18.486  24.321   1.267
12733W        W77993  11.962  26.674  12.931
12734W        W77994  28.597   1.940  13.990
12735W        W77995   9.131   3.278   4.544
12736W        W77996  38.537  23.983  12.927
12737W        W77997  20.664  31.535  13.359
12738W        W77998  41.292  41.349  13.442
12739W        W77999  16.783  15.111   1.674
12740W        W78000  36.269  44.923  10.368
12741W        W78001  28.091  22.727   3.311
12742W        W78002  17.218  22.654  10.373
12743W        W78003  17.088  36.538   1.730
12744W        W78004  31.864  30.032   4.376
12745W        W78005  33.375  29.037   1.943
12746W        W78006   4.882  30.709   4.591
12747W        W78007  38.870   8.344  10.721
12748W        W78008  22.492  44.211   1.266
12749W        W78009  34.125  28.456   3.856
12750W        W78010  19.122  13.826   0.936
12751W        W78011  23.102  22.530  13.695
12752W        W78012  33.695  30.850   3.627
12753W        W78013  44.719   6.173  12.323
12754W        W78014  38.260  28.444  14.374
12755W        W78015  29.363  14.284   3.141
12756W        W78016  40.842   6.277  12.012
12757W        W78017  18.207  22.405  14.355
12758W        W78018   3.352  17.282   4.674
12759W        W78019   0.510   8.234  14.059
12760W        W78020  12.687  38.028   4.610
12761W        W78021   8.004  23.919  13.360
12762W        W78022  26.802  10.756  14.309
12763W        W78023   9.363  36.299   1.649
12764W        W78024   3.412  20.818   2.543
12765W        W78025  39.906  41.825   2.268
12766W        W78026  33.571  36.065   4.792
12767W        W78027   4.338  28.066  12.602
12768W        W78028  26.193  14.314   0.453
12769W        W78029  17.179  24.023   1.445
12770W        W78030  14.324  31.683  12.297
12771W        W78031  12.510  28.707  12.123
12772W        W78032  26.648  43.813  11.369
12773W        W78033  30.810  27.426  13.720
12774W        W78034  39.557  16.179   2.959
12775W        W78035  35.778  33.624   0.086
12776W        W78036  41.731  34.845  14.224
12777W        W78037  21.853  26.057  14.069
12778W        W78038   5.253  42.491  13.956
12779W        W78039   4.285  24.486  14.470
12780W        W78040   1.012  31.681   0.949
12781W        W78041  14.834   4.600   2.445
12782W        W78042  24.160  25.682  12.440
12783W        W78043   9.343  25.637  12.625
12784W        W78044  38.860  32.590   3.207
12785W        W78045   0.938   8.648   0.852
12786W        W78046  10.320  29.415  11.676
12787W        W78047  15.314  28.045   0.982
12788W        W78048   0.974  37.426  11.499
12789W        W78049  11.559   3.370   0.662
12790W        W78050  44.083  16.774  14.104
12791W        W78051  17.988  20.356  10.753
12792W        W78052  14.931  15.284   2.134
12793W        W78053   2.216  12.904   9.773
12794W        W78054  31.176  25.900   3.046
12795W        W78055   6.332  11.900   0.979
12796W        W78056  28.173  32.110   3.061
12797W        W78057   6.699  11.585   2.127
12798W        W78058  37.339  31.592   4.741
12799W        W78059   2.144   9.264  12.657
12800W        W78060  41.987   3.934   4.463
12801W        W78061  37.387   8.574  14.835
12802W        W78062   2.412  32.901   4.578
12803W        W78063   6.152  41.285   0.998
12804W        W78064   2.568  37.906   1.319
12805W        W78065  38.107   4.012   0.012
12806W        W78066  32.966   5.732   4.143
12807W        W78067   5.404  27.298  11.205
12808W        W78068  38.985  42.350   0.268
12809W        W78069  34.090   0.043   1.747
12810W        W78070  11.282  29.780  13.862
12811W        W78071   2.322  19.764  10.507
12812W        W78072  27.072  42.144   4.809
12813W        W78073  22.774  36.186   2.331
12814W        W78074  15.526  12.364  11.509
12815W        W78075  44.176  20.988  13.930
12816W        W78076  17.269  40.940  11.212
12817W        W78077  32.560  42.149  12.029
12818W        W78078  34.884   5.380  13.115
12819W        W78079  23.641  40.838  10.619
12820W        W78080  10.118  11.214   4.433
12821W        W78081   2.969   8.258  12.123
12822W        W78082  10.965  31.426  13.943
12823W        W78083   3.134  19.713   4.396
12824W        W78084  42.443   7.838  11.580
12825W        W78085  20.842  25.076  10.830
12826W        W78086  18.215  16.784  10.713
12827W        W78087  10.911   3.837  14.417
12828W        W78088   2.920   5.822  11.156
12829W        W78089   7.354  31.488  12.276
12830W        W78090  30.045  38.289   0.799
12831W        W78091   0.158  10.095  11.354
12832W        W78092   7.477  12.746  11.550
12833W        W78093  13.158  23.587  14.701
12834W        W78094  18.367  23.420  11.133
12835W        W78095  38.450  11.315   0.669
12836W        W78096  15.782  17.976   1.851
12837W        W78097  43.010  11.139   5.384
12838W        W78098   7.632  33.440   4.503
12839W        W78099  33.458   5.790   2.578
12840W        W78100   9.903  30.896   0.865
12841W        W78101   2.945  36.398   2.693
12842W        W78102  22.034  31.088  12.550
12843W        W78103  13.566  37.094  14.447
12844W        W78104  14.338  26.302   0.965
12845W        W78105  18.983   7.341  12.985
12846W        W78106  24.222  36.140   2.279
12847W        W78107  38.892  37.899   1.818
12848W        W78108  13.765   5.840   0.803
12849W        W78109   3.319   3.772   3.032
12850W        W78110  41.511  32.811  14.297
12851W        W78111  22.954   3.581   9.853
12852W        W78112  43.404  25.301  13.853
12853W        W78113  25.274   8.659  12.100
12854W        W78114  18.751  12.399  11.601
12855W        W78115   3.316  19.850   2.884
12856W        W78116  29.936  37.503   1.216
12857W        W78117  23.573  23.942   4.594
12858W        W78118  20.144  43.131  11.768
12859W        W78119  27.394  38.234  14.500
12860W        W78120  23.284  16.257  11.621
12861W        W78121  16.125  10.049   2.308
12862W        W78122  29.624  15.674   3.350
12863W        W78123  28.072  26.866  13.435
12864W        W78124  18.125  11.679  14.918
12865W        W78125  38.597   5.184  12.599
12866W        W78126   5.774  18.983  11.830
12867W        W78127  10.394  38.037  14.029
12868W        W78128  16.435   9.702  12.317
12869W        W78129   4.543  16.452  14.851
12870W        W78130   4.390  27.924  12.085
12871W        W78131  21.202  41.316  10.418
12872W        W78132   2.749  38.023   0.796
12873W        W78133  24.061  37.371  12.391
12874W        W78134  16.658  10.125   4.778
12875W        W78135   2.807  15.642   3.551
12876W        W78136  17.675  40.609   4.094
12877W        W78137  28.315   9.357   0.132
12878W        W78138   3.604  38.326   2.215
12879W        W78139  16.838  31.525  10.639
12880W        W78140  44.281  37.823   1.081
12881W        W78141  13.057  33.515   1.340
12882W        W78142  35.940  18.015  13.870
12883W        W78143  26.018  44.724  14.603
12884W        W78144  28.493  30.218   3.205
12885W        W78145  29.444   6.844   0.724
12886W        W78146  37.393  21.144  12.130
12887W        W78147   8.429  42.848  12.572
12888W        W78148   8.859   7.831   0.689
12889W        W78149  19.895   7.230  13.460
12890W        W78150  43.286   3.824  14.299
12891W        W78151  37.957  32.875  10.705
12892W        W78152  36.990   9.433  11.274
12893W        W78153   5.044  15.312   1.960
12894W        W78154  42.476  23.280   0.483
12895W        W78155  39.823  37.295  11.024
12896W        W78156  41.512  21.329  13.413
12897W        W78157  31.369  12.746  13.848
12898W        W78158  25.774  14.532   0.234
12899W        W78159  25.213   5.713   1.027
12900W        W78160  10.069  15.288   2.376
12901W        W78161  28.530   5.928   2.933
12902W        W78162   4.245   4.880  14.337
12903W        W78163  17.230   3.824  14.433
12904W        W78164   7.403  14.379   2.334
12905W        W78165   4.511  10.428   1.363
12906W        W78166  23.239  11.721   4.210
12907W        W78167  27.051   0.641  13.727
12908W        W78168  36.295  12.739  13.109
12909W        W78169  20.468  31.607  13.869
12910W        W78170   5.598   2.826  14.895
12911W        W78171  19.101   5.040  11.745
12912W        W78172   8.689  36.340   2.161
12913W        W78173  30.397  27.496  11.734
12914W        W78174  17.515  24.421   1.490
12915W        W78175  36.046  44.936   1.459
12916W        W78176   0.022  17.458  12.313
12917W        W78177  17.822  25.050   2.807
12918W        W78178   5.351  42.856  11.020
12919W        W78179  39.466  29.680  11.577
12920W        W78180  17.744  25.022   1.043
12921W        W78181  43.836   8.829  12.115
12922W        W78182   4.487  11.205  10.633
12923W        W78183  13.569  38.139  12.511
12924W        W78184   9.374  32.569  12.933
12925W        W78185  38.998  22.524  11.100
12926W        W78186  30.401  32.617  10.753
12927W        W78187  35.507   1.970  14.500
12928W        W78188  37.906  14.664   2.875
12929W        W78189   8.428   9.114  14.899
12930W        W78190  41.895  27.169   4.811
12931W        W78191   4.774  10.623  13.355
12932W        W78192  21.476  38.325   4.349
12933W        W78193   8.995  33.013   1.207
12934W        W78194  21.032  18.100  12.314
12935W        W78195   3.732  42.305   1.497
12936W        W78196  37.598  39.871   4.362
12937W        W78197  16.215   8.251   4.049
12938W        W78198  18.763   3.167  11.105
12939W        W78199  17.744  38.811  11.407
12940W        W78200  37.953  44.907   0.145
12941W        W78201   8.154  32.553  14.278
12942W        W78202  30.902   0.278   0.368
12943W        W78203   5.385  26.444   1.929
12944W        W78204  20.478  15.537   4.153
12945W        W78205  42.472  42.567   0.801
12946W        W78206  30.860  34.652   3.708
12947W        W78207  39.236  13.244  11.761
12948W        W78208  12.314  33.959  11.583
12949W        W78209  31.403  39.613  11.950
12950W        W78210   8.812  44.522  11.693
12951W        W78211   4.036  12.276   3.977
12952W        W78212  23.124  24.098  12.355
12953W        W78213  32.416  11.384  12.204
12954W        W78214   6.847  17.108  11.342
12955W        W78215  25.672  31.068  11.399
12956W        W78216  36.338  21.056   9.849
12957W        W78217  29.577  33.971  14.422
12958W        W78218  17.754  39.995  13.993
12959W        W78219  37.359  37.613  11.692
12960W        W78220  17.388  15.023   2.400
12961W        W78221  37.350  14.644  10.448
12962W        W78222   6.474  44.967   4.302
12963W        W78223  13.470  44.721   4.424
12964W        W78224  27.358  23.258  14.055
12965W        W78225  27.705  27.637  11.695
12966W        W78226  21.885  39.159  10.916
12967W        W78227  37.405  24.674  13.985
12968W        W78228  30.301  19.203   0.359
12969W        W78229   2.128  39.391  11.898
12970W        W78230  34.082  16.875   3.149
12971W        W78231  28.789  39.928   4.896
12972W        W78232  20.601  17.353  12.658
12973W        W78233  24.102  26.526   0.575
12974W        W78234  43.437  39.754  11.968
12975W        W78235  26.237  37.916  12.287
12976W        W78236  33.095  34.153  13.452
12977W        W78237  38.360  37.562  11.733
12978W        W78238  39.839  33.848   0.090
12979W        W78239  30.192  44.516   1.757
12980W        W78240  31.396  23.775   4.123
12981W        W78241   3.140  13.831  13.453
12982W        W78242  20.455  30.133  12.857
12983W        W78243  38.859  38.053  12.418
12984W        W78244  21.820   3.286  14.860
12985W        W78245  40.995  37.299   4.578
12986W        W78246  39.575  31.478  13.009
12987W        W78247  10.196   2.320  11.560
12988W        W78248   7.935   2.754   3.298
12989W        W78249  12.234  29.058  12.540
12990W        W78250  12.698   6.548   2.861
12991W        W78251  32.631   3.080   1.909
12992W        W78252  24.961  24.657  12.884
12993W        W78253  21.020   0.289  11.458
12994W        W78254  33.092  43.375  11.190
12995W        W78255  18.281  34.890  12.177
12996W        W78256  28.990   5.784   0.373
12997W        W78257  27.629  40.261   0.407
12998W        W78258   3.361  31.511  12.833
12999W        W78259  37.084  24.839  14.646
13000W        W78260  24.037  20.856   0.996
13001W        W78261  29.648   8.252   0.018
13002W        W78262  11.798  17.244  10.872
13003W        W78263  17.494   3.835  13.948
13004W        W78264  27.710   9.235  13.470
13005W        W78265  15.345  29.514   4.650
13006W        W78266   4.767  44.556  11.537
13007W        W78267  18.638   6.386  11.011
13008W        W78268  35.945   1.548  12.880
13009W        W78269  23.661   2.186   1.096
13010W        W78270  27.732   9.141   3.758
13011W        W78271  37.283  23.946  11.672
13012W        W78272  36.519  13.695   1.261
13013W        W78273  11.821  27.966  12.805
13014W        W78274  33.561  39.945   0.904
13015W        W78275  44.951   6.872   1.340
13016W        W78276  25.803  36.908   4.224
13017W        W78277   9.748  43.307   4.013
13018W        W78278   5.718  23.211  14.034
13019W        W78279  32.200  28.894  14.941
13020W        W78280  13.611  20.616   3.552
13021W        W78281   9.591  25.104  12.823
13022W        W78282  42.641  24.402  11.143
13023W        W78283   9.765  11.272   2.163
13024W        W78284  18.272  44.482  14.939
13025W        W78285  30.919   3.640   1.789
13026W        W78286  38.873   2.994  13.757
13027W        W78287  41.765  22.144  12.954
13028W        W78288   3.301  44.200  13.422
13029W        W78289   2.377   3.909   3.267
13030W        W78290  38.457  25.633   0.514
13031W        W78291  13.454  10.455  14.774
13032W        W78292  28.124  10.965   3.739
13033W        W78293  21.669  42.771   1.020
13034W        W78294  41.066  17.742  13.430
13035W        W78295   3.684  34.986  12.590
13036W        W78296  21.846  19.165  11.976
13037W        W78297  30.428   8.359   4.593
13038W        W78298  43.215  27.177  12.268
13039W        W78299  31.905  16.019   3.356
13040W        W78300  15.189  33.078   1.213
13041W        W78301  15.811  15.411  12.375
13042W        W78302   2.818  37.294   0.591
13043W        W78303   9.834  43.395   5.005
13044W        W78304  38.563  12.732   0.503
13045W        W78305  33.147   3.453   4.408
13046W        W78306  28.609  41.795   4.290
13047W        W78307  28.380  21.327   0.716
13048W        W78308  19.215   0.715  11.588
13049W        W78309  42.368   8.152  11.982
13050W        W78310  25.227  42.587  12.938
13051W        W78311  36.574   2.985  12.925
13052W        W78312   3.349  39.570  10.974
13053W        W78313  40.356  35.722   4.893
13054W        W78314   8.970  33.612  11.095
13055W        W78315   6.901  29.034   4.280
13056W        W78316  31.293  26.338   2.747
13057W        W78317  15.128  32.195   3.087
13058W        W78318  20.461   3.743  10.696
13059W        W78319   1.785  26.978   3.149
13060W        W78320  37.688  13.568   2.845
13061W        W78321  19.614  22.948  11.159
13062W        W78322  30.229  44.885  13.581
13063W        W78323   7.712  12.054  12.348
13064W        W78324  37.163  25.441  10.962
13065W        W78325  12.052   1.691  11.116
13066W        W78326   7.898  25.697   4.493
13067W        W78327  43.320   3.729  12.451
13068W        W78328  38.360   4.702   4.992
13069W        W78329  26.075   4.825   0.926
13070W        W78330  36.467  25.343   0.405
13071W        W78331  21.957  32.499  14.827
13072W        W78332  13.386  32.407   0.844
13073W        W78333  13.694  33.093  12.926
13074W        W78334  20.032   9.715   4.066
13075W        W78335  21.178  10.619  10.443
13076W        W78336  11.937   4.579  14.845
13077W        W78337  40.820  28.740   1.855
13078W        W78338  13.392  36.842  11.465
13079W        W78339  20.093  25.796   4.426
13080W        W78340  22.259  35.427  13.906
13081W        W78341  27.950  35.086   5.044
13082W        W78342   7.932  36.447  13.445
13083W        W78343  41.300  16.269   0.302
13084W        W78344  43.857  26.142  11.589
13085W        W78345  31.992  12.450   1.706
13086W        W78346  36.562  13.440  11.263
13087W        W78347  18.488   6.188   0.446
13088W        W78348  15.324  24.988  12.496
13089W        W78349  20.786   1.381   0.306
13090W        W78350  33.043  24.202   0.573
13091W        W78351  18.416  36.446  10.839
13092W        W78352  43.641  24.637  11.038
13093W        W78353  11.936   6.354   0.856
13094W        W78354  35.618  14.936  13.616
13095W        W78355  29.355  24.570   1.784
13096W        W78356  27.907   7.491  11.409
13097W        W78357   1.462  10.683   3.215
13098W        W78358  22.868   4.034   4.237
13099W        W78359   6.459  21.214   0.243
13100W        W78360  10.823  33.304   0.964
13101W        W78361  17.609  31.080  12.345
13102W        W78362  14.568   6.177   1.392
13103W        W78363  29.989  28.869  12.645
13104W        W78364  26.458   4.112   4.127
13105W        W78365  18.769  22.323   3.096
13106W        W78366   1.015  27.606   3.581
13107W        W78367  24.851  43.446  11.988
13108W        W78368  23.470   7.178   2.434
13109W        W78369  22.933  26.990  13.559
13110W        W78370   6.323   0.750   2.723
13111W        W78371  22.207  21.545   3.896
13112W        W78372  42.159  41.532  10.447
13113W        W78373   7.451  32.600   1.418
13114W        W78374  34.570   6.285  14.948
13115W        W78375  16.354  11.671  14.948
13116W        W78376  17.694   6.149  14.439
13117W        W78377  24.727  11.571   3.283
13118W        W78378   2.860  27.751   1.419
13119W        W78379  28.232  11.848   3.885
13120W        W78380  28.301  13.733   1.839
13121W        W78381  15.361   5.746  10.563
13122W        W78382   9.419  29.948   1.473
13123W        W78383  36.812   9.123   3.212
13124W        W78384  21.496  14.130  12.462
13125W        W78385   2.780   9.382   2.304
13126W        W78386  27.716  15.991  10.867
13127W        W78387  44.605   1.488  13.506
13128W        W78388  34.016  10.478  10.300
13129W        W78389  21.037  36.814   0.759
13130W        W78390  11.766   3.522   4.530
13131W        W78391  37.056  18.422   4.308
13132W        W78392  11.709  12.028  10.413
13133W        W78393  17.744   2.207  13.778
13134W        W78394   6.910  13.675  12.952
13135W        W78395  22.550  43.290   2.809
13136W        W78396   0.108  17.520   0.544
13137W        W78397  38.733  37.630  14.835
13138W        W78398  34.814  23.573   4.631
13139W        W78399  42.171  10.232   1.215
13140W        W78400  43.047  29.599   3.713
13141W        W78401   1.472  27.761   2.260
13142W        W78402   1.727   3.364   4.651
13143W        W78403  42.318  11.283   2.396
13144W        W78404  25.099   3.713   4.046
13145W        W78405  19.255  32.384   0.438
13146W        W78406   0.930   0.452  14.679
13147W        W78407  20.329  25.683  12.563
13148W        W78408  21.149   4.698   3.370
13149W        W78409   4.458  28.143  14.933
13150W        W78410  36.949  27.933  11.141
13151W        W78411  12.006  35.097  13.313
13152W        W78412  32.627  36.949   0.782
13153W        W78413  15.942   8.006  13.180
13154W        W78414   3.308  39.339   0.827
13155W        W78415  36.876  17.588   4.583
13156W        W78416  29.935  24.114  13.873
13157W        W78417  38.459  44.883  11.171
13158W        W78418  11.270  39.019  13.100
13159W        W78419  38.000  10.418  11.880
13160W        W78420  22.551  24.928  14.335
13161W        W78421   5.164   2.555  14.606
13162W        W78422  15.246  34.339   3.746
13163W        W78423   2.270  17.389  12.080
13164W        W78424   9.813  17.658  14.297
13165W        W78425  28.451  13.137   0.314
13166W        W78426  42.766   2.875   3.097
13167W        W78427   2.172   8.879   1.720
13168W        W78428   1.947   7.082  12.380
13169W        W78429  37.223   2.687  10.613
13170W        W78430  36.625  22.629  13.805
13171W        W78431  10.381  37.520  10.648
13172W        W78432   2.961  29.589   2.954
13173W        W78433  39.294   1.493   2.213
13174W        W78434  42.929  31.073   2.809
13175W        W78435  26.646  17.459   4.533
13176W        W78436   9.746  43.599   0.263
13177W        W78437  29.461  40.651  14.483
13178W        W78438  12.205  34.356   1.774
13179W        W78439  25.422   6.513   0.131
13180W        W78440  34.531  37.189  11.077
13181W        W78441  28.992   5.603   1.177
13182W        W78442  43.008  34.478   2.871
13183W        W78443   0.343  13.023  14.392
13184W        W78444  14.061  17.613  11.632
13185W        W78445  44.846   3.455  10.313
13186W        W78446  30.912  38.548  14.486
13187W        W78447  29.555  19.649  11.163
13188W        W78448  18.350  19.817   3.419
13189W        W78449  22.312   8.353  11.178
13190W        W78450  18.699  31.146   0.280
13191W        W78451  33.939  28.440   0.426
13192W        W78452  40.652  43.449  11.257
13193W        W78453  36.929  29.743  12.121
13194W        W78454  17.074  16.913  10.721
13195W        W78455  22.285  12.102   4.160
13196W        W78456  30.595  31.912  14.527
13197W        W78457  12.296  16.558  11.437
13198W        W78458  38.338   6.769   0.645
13199W        W78459  29.340  11.090  14.799
13200W        W78460   2.297  32.935  12.068
13201W        W78461  20.026  11.855  14.463
13202W        W78462  36.533  31.407   1.439
13203W        W78463  13.251   3.789   4.233
13204W        W78464  30.900  24.172   0.609
13205W        W78465   4.949  10.242  13.068
13206W        W78466  34.672  32.583  13.400
13207W        W78467  32.028  32.944   0.092
13208W        W78468  37.506  37.246   0.947
13209W        W78469  20.604  40.816   3.387
13210W        W78470  35.652  25.261  13.520
13211W        W78471   2.089  12.302  10.898
13212W        W78472  17.752  33.538  12.898
13213W        W78473  25.747   3.811  11.411
13214W        W78474   2.839   3.820   0.031
13215W        W78475  31.485  27.939  13.533
13216W        W78476   1.774  42.913   1.205
13217W        W78477  38.913   7.820   3.223
13218W        W78478  41.922  19.093   2.859
13219W        W78479  28.541  20.119   1.351
13220W        W78480  15.234  26.263  13.053
13221W        W78481  38.625  11.287   1.681
13222W        W78482   4.843   5.872  11.710
13223W        W78483  39.377  18.030  14.963
13224W        W78484  14.305  32.500   2.500
13225W        W78485  27.506  21.839  13.951
13226W        W78486  38.151   7.647  11.847
13227W        W78487  20.082   9.362  10.758
13228W        W78488  44.481  40.005   9.803
13229W        W78489  20.996  21.524  11.549
13230W        W78490  22.449  14.893  14.500
13231W        W78491  13.589  26.188   3.866
13232W        W78492  23.873  40.820   3.550
13233W        W78493  42.864  30.714  11.993
13234W        W78494  43.273   8.137  11.898
13235W        W78495  17.803  17.513  11.072
13236W        W78496   6.236  21.823   1.228
13237W        W78497   5.263  41.354  10.687
13238W        W78498  31.123  13.210   4.655
13239W        W78499   9.776   9.759   3.824
13240W        W78500  34.432  13.730   2.463
13241W        W78501  11.909  28.453   3.758
13242W        W78502  13.321   6.649  14.983
13243W        W78503  13.379  25.501   3.271
13244W        W78504  12.125  14.357   1.264
13245W        W78505  15.909  17.640   1.479
13246W        W78506   8.051  13.648   3.279
13247W        W78507  19.056   5.542  10.459
13248W        W78508  35.578  16.069  12.814
13249W        W78509   7.866  41.410  13.309
13250W        W78510  43.950   5.649   1.391
13251W        W78511  34.223   9.846   0.312
13252W        W78512  33.060  24.267   3.227
13253W        W78513  31.886  42.334  14.891
13254W        W78514  27.123  44.330  13.276
13255W        W78515  27.557  26.931  10.590
13256W        W78516  16.790  31.851   1.436
13257W        W78517  36.002  36.182   2.491
13258W        W78518  19.644  44.885   1.204
13259W        W78519  41.290  25.134   1.321
13260W        W78520  41.318  44.244   0.307
13261W        W78521  42.421  41.925  11.397
13262W        W78522   7.717   5.932   3.474
13263W        W78523  29.021  39.057   2.626
13264W        W78524  30.590  12.891   4.127
13265W        W78525  39.702  29.145  13.305
13266W        W78526   8.625  27.211  12.516
13267W        W78527   6.442  15.840   2.181
13268W        W78528  35.889  33.937   2.332
13269W        W78529  24.256  25.695   0.401
13270W        W78530  18.746  17.288  11.525
13271W        W78531  32.350  11.903  10.992
13272W        W78532  20.743   4.672   0.421
13273W        W78533   5.189  30.741   0.305
13274W        W78534   9.616  35.537   4.141
13275W        W78535  13.319  39.559  14.259
13276W        W78536  15.128  33.647  13.968
13277W        W78537  33.133  36.288  12.910
13278W        W78538  14.464  35.995   0.039
13279W        W78539  22.349  41.497   2.945
13280W        W78540  22.775   9.096   3.258
13281W        W78541  20.797   4.388  13.934
13282W        W78542   8.436  19.788  10.727
13283W        W78543  20.606  39.268   2.297
13284W        W78544  18.810  40.718  11.005
13285W        W78545   5.796  15.577   3.314
13286W        W78546  19.597   5.254  11.697
13287W        W78547  32.091  22.761   2.362
13288W        W78548  18.568  24.696   4.720
13289W        W78549   1.779  25.002   0.415
13290W        W78550  33.361   3.206  13.444
13291W        W78551  29.836   9.754   1.738
13292W        W78552  15.623  27.104  12.829
13293W        W78553  37.576  10.327   4.801
13294W        W78554  13.351   6.650   0.912
13295W        W78555  16.220  40.814  14.977
13296W        W78556  36.005  24.481   4.148
13297W        W78557  21.601  37.485   4.292
13298W        W78558   9.569  44.105   0.359
13299W        W78559  42.315   0.949  12.481
13300W        W78560  25.802  44.343  14.918
13301W        W78561  24.447  22.763  14.420
13302W        W78562   3.740   2.049  13.834
13303W        W78563  10.820  38.011  13.264
13304W        W78564  21.947  35.144  14.433
13305W        W78565  43.982  13.751  13.519
13306W        W78566   1.827   4.177   0.310
13307W        W78567  39.043  17.100  13.822
13308W        W78568   1.770  23.210   0.829
13309W        W78569  34.086  22.346   2.730
13310W        W78570  20.964   5.451  12.588
13311W        W78571  30.748   7.405  10.940
13312W        W78572  30.343  33.314   1.286
13313W        W78573  39.523   4.458   1.233
13314W        W78574  11.246  43.746   2.687
13315W        W78575  27.531   5.814   0.382
13316W        W78576  20.066  27.922  12.407
13317W        W78577  20.295  33.834  14.004
13318W        W78578  19.089  44.811   3.227
13319W        W78579  44.005   2.266   4.073
13320W        W78580  34.121  28.980   4.188
13321W        W78581  36.926  21.284  12.371
13322W        W78582  19.860  17.000  14.326
13323W        W78583  33.136  41.313   1.303
13324W        W78584   2.318  35.106  13.780
13325W        W78585  27.747  10.323   1.321
13326W        W78586  14.995  29.642  13.626
13327W        W78587  11.222  15.113  14.369
13328W        W78588   5.655  26.983  11.507
13329W        W78589  19.704  40.014  11.687
13330W        W78590  32.691  24.939  12.761
13331W        W78591  11.736  33.623  10.535
13332W        W78592  35.462  18.678   0.606
13333W        W78593   4.349  36.559   1.385
13334W        W78594  15.783  27.736   0.024
13335W        W78595  12.634  21.114   4.775
13336W        W78596  25.051  37.496  10.933
13337W        W78597  25.388  10.261  12.988
13338W        W78598  25.876  29.445   1.860
13339W        W78599  40.288  28.310  14.167
13340W        W78600  26.212  29.164  13.951
13341W        W78601   4.793  13.097  12.752
13342W        W78602  27.926  41.008   2.742
13343W        W78603  27.056  34.598   1.822
13344W        W78604  34.585   7.489  13.239
13345W        W78605   0.381  33.508   2.514
13346W        W78606   2.525  22.582  14.814
13347W        W78607  24.156  38.393   0.239
13348W        W78608  18.608  28.238   2.355
13349W        W78609  41.795  12.045   0.268
13350W        W78610  33.424  22.627   3.179
13351W        W78611  31.824  14.536   3.816
13352W        W78612  36.979   3.498  11.235
13353W        W78613  43.364  28.207   4.898
13354W        W78614   3.677  27.373  11.593
13355W        W78615  36.718  33.519   2.319
13356W        W78616  36.932  25.597   1.359
13357W        W78617   5.031  21.131  11.167
13358W        W78618   9.312  14.344   1.321
13359W        W78619  35.304   3.737   4.208
13360W        W78620  10.542  24.956   4.549
13361W        W78621  42.994  32.199  13.801
13362W        W78622  13.171  17.957  11.610
13363W        W78623  17.194   0.872  12.579
13364W        W78624  40.720  26.739   4.279
13365W        W78625  24.518  34.904  14.005
13366W        W78626  22.142  42.903   2.368
13367W        W78627  26.656  26.639  11.645
13368W        W78628  22.823  19.277  13.500
13369W        W78629   4.905  21.150   2.814
13370W        W78630  15.075  16.331  11.958
13371W        W78631  42.398  30.690  14.412
13372W        W78632   1.955  24.552  12.219
13373W        W78633  12.832  31.704   0.310
13374W        W78634  39.004   7.182  12.103
13375W        W78635  17.599  14.218   4.673
13376W        W78636  37.442   0.648  14.809
13377W        W78637  10.329  26.969   0.818
13378W        W78638  12.845   5.900  14.126
13379W        W78639   3.234  25.804   2.425
13380W        W78640  32.087  40.444   5.230
13381W        W78641   3.472   6.963  11.112
13382W        W78642   2.740  23.751   0.238
13383W        W78643  38.201  37.384   4.188
13384W        W78644  29.652  40.668   1.328
13385W        W78645  20.645   0.998  12.563
13386W        W78646  26.627  36.127  13.922
13387W        W78647  31.485  44.792  13.773
13388W        W78648   7.372  34.196  14.337
13389W        W78649   9.883  35.063   2.813
13390W        W78650  32.587  26.725   0.503
13391W        W78651   0.062  15.789   1.323
13392W        W78652  10.296  22.555  13.956
13393W        W78653  40.790  15.942   1.280
13394W        W78654  36.937  37.462  12.021
13395W        W78655  44.700  27.088   3.496
13396W        W78656  16.133  37.162  10.895
13397W        W78657  40.827   9.115  14.818
13398W        W78658  44.373  12.606   1.882
13399W        W78659  24.041  44.378  14.535
13400W        W78660  24.535  27.431   2.387
13401W        W78661  40.400  23.844  11.871
13402W        W78662  31.349  34.517   4.600
13403W        W78663  34.900   2.043   2.125
13404W        W78664   1.843  38.760  12.481
13405W        W78665  28.523   2.867  11.630
13406W        W78666  39.121  35.588  14.914
13407W        W78667  22.500  23.421   3.657
13408W        W78668  39.437  13.237   1.275
13409W        W78669  36.915  19.241   3.210
13410W        W78670  12.839  35.436  10.966
13411W        W78671  42.694   0.401  13.532
13412W        W78672  44.772   0.791  10.829
13413W        W78673  14.067   9.495   0.476
13414W        W78674  37.632  30.596   0.226
13415W        W78675   1.692  44.477   0.346
13416W        W78676  29.963   2.682   2.394
13417W        W78677  14.258  38.907   4.711
13418W        W78678  29.678  25.617   3.324
13419W        W78679  26.402  21.332   3.637
13420W        W78680  22.267  10.917   0.683
13421W        W78681  40.851  40.589  13.669
13422W        W78682  29.683  27.068  11.419
13423W        W78683  15.620  25.464  14.349
13424W        W78684  39.942  16.378  12.311
13425W        W78685  20.843   8.328  14.840
13426W        W78686   6.795  35.361   2.784
13427W        W78687  31.311  15.212   1.424
13428W        W78688  25.545  10.694   4.481
13429W        W78689   2.821   7.286   0.508
13430W        W78690  35.281  20.233  11.996
13431W        W78691  11.848  34.103   0.852
13432W        W78692  40.330  16.718  14.745
13433W        W78693  23.681   4.633   2.262
13434W        W78694  39.456  39.251   3.619
13435W        W78695   8.764   8.916   4.035
13436W        W78696   2.005   0.824  11.170
13437W        W78697  10.102  43.054  12.482
13438W        W78698  43.698   0.326  13.446
13439W        W78699  11.415  13.219  11.970
13440W        W78700  31.986   7.747  13.145
13441W        W78701  11.003  20.721   1.704
13442W        W78702   8.661  21.217   2.795
13443W        W78703  35.960  14.453   4.863
13444W        W78704  25.793  16.318  10.387
13445W        W78705  42.540  14.556  11.610
13446W        W78706  27.948  19.507  11.505
13447W        W78707  27.143  35.951  12.992
13448W        W78708   6.815  11.073  14.993
13449W        W78709  38.975  16.856   1.399
13450W        W78710  41.948  34.606  13.208
13451W        W78711  10.705  44.271   3.371
13452W        W78712  39.870   1.000  13.134
13453W        W78713  39.237  36.948   0.193
13454W        W78714  28.805  41.030   4.684
13455W        W78715  27.048  23.813   1.177
13456W        W78716  30.314  43.000  14.437
13457W        W78717  40.017  11.099  11.160
13458W        W78718  23.696   3.822  11.016
13459W        W78719  25.329  37.869   0.793
13460W        W78720  11.228   0.145  12.447
13461W        W78721  12.669  25.125   0.849
13462W        W78722   5.243  17.141   0.836
13463W        W78723  25.640  42.657   2.583
13464W        W78724   5.913  29.712  11.906
13465W        W78725  44.749  31.019  11.531
13466W        W78726  37.898  32.369  10.893
13467W        W78727  18.189  41.356   2.370
13468W        W78728   8.800  10.698   0.967
13469W        W78729   5.683  42.969  12.401
13470W        W78730  40.389  16.296   1.303
13471W        W78731   0.385  28.660   0.435
13472W        W78732  30.152  33.988   0.991
13473W        W78733  21.476  27.103  13.246
13474W        W78734   3.987   7.796   0.721
13475W        W78735  19.738  29.422  13.570
13476W        W78736  13.116  30.323  14.897
13477W        W78737  39.020   7.655  13.102
13478W        W78738  36.934   6.055   0.941
13479W        W78739  12.351  44.290   1.261
13480W        W78740  27.953  10.059   4.218
13481W        W78741  36.680  19.479   5.065
13482W        W78742  21.195  34.742  11.545
13483W        W78743   1.495  18.696   1.124
13484W        W78744   5.209   0.268   3.317
13485W        W78745  27.658   4.317   2.479
13486W        W78746  35.982  19.458   3.897
13487W        W78747  13.989   9.701  13.860
13488W        W78748  44.838   1.773  12.053
13489W        W78749  15.318  38.834   3.790
13490W        W78750  31.009   9.696   3.250
13491W        W78751  24.735  27.444   4.612
13492W        W78752  44.915  15.502   0.483
13493W        W78753  25.167   1.425   4.435
13494W        W78754  20.223  29.939  11.079
13495W        W78755  28.042  34.116  14.570
13496W        W78756   3.880  19.064   4.711
13497W        W78757  24.084  36.042   3.120
13498W        W78758   7.510  15.367  10.710
13499W        W78759  33.574  24.530   1.307
13500W        W78760  25.533  20.797   4.149
13501W        W78761  21.441  22.711  14.796
13502W        W78762  17.562  43.759  11.535
13503W        W78763   4.367   7.959   4.088
13504W        W78764  27.517   3.300   3.989
13505W        W78765  22.349   2.011   1.420
13506W        W78766  15.853  42.040  14.732
13507W        W78767   7.325  22.643   3.059
13508W        W78768   8.636   7.251   0.691
13509W        W78769  37.836  25.890  14.332
13510W        W78770  26.666  36.524   2.870
13511W        W78771  28.185  36.255   0.041
13512W        W78772  21.225  26.250  10.464
13513W        W78773  17.609  29.246  12.385
13514W        W78774  18.460  25.263  11.114
13515W        W78775  33.614  24.510   3.654
13516W        W78776  35.898   2.130   5.294
13517W        W78777   6.054  29.298  10.226
13518W        W78778  22.042  29.711   1.768
13519W        W78779  18.084  19.658   2.207
13520W        W78780   9.193  19.720  12.958
13521W        W78781  30.497  36.437   1.562
13522W        W78782  14.571   1.377  13.942
13523W        W78783  15.645  29.837   4.391
13524W        W78784  30.927  12.379  12.453
13525W        W78785  42.834   8.405  11.994
13526W        W78786  14.186  15.130  14.893
13527W        W78787  33.391  17.746  12.775
13528W        W78788  38.884  33.051  14.901
13529W        W78789  12.866  11.379  12.385
13530W        W78790  35.664  26.852   5.240
13531W        W78791  35.080  39.324   4.786
13532W        W78792  12.647   0.756   2.380
13533W        W78793   4.789  12.754  14.013
13534W        W78794  18.604  24.809   1.085
13535W        W78795  19.204   0.738  12.470
13536W        W78796  25.674  28.921   4.788
13537W        W78797  34.299   2.469   5.466
13538W        W78798  40.774   3.795  13.439
13539W        W78799  41.960   8.822  11.941
13540W        W78800  26.881  26.029  11.123
13541W        W78801  28.099   4.655   0.722
13542W        W78802  15.728   2.227  11.968
13543W        W78803  25.578   3.397  14.010
13544W        W78804  33.002  12.832   2.352
13545W        W78805  38.395  10.333   3.067
13546W        W78806  39.418  42.745  14.467
13547W        W78807   9.362  21.436  12.621
13548W        W78808  23.065  20.630  11.181
13549W        W78809  21.122  29.634  13.933
13550W        W78810  39.524  35.029  12.329
13551W        W78811  16.817  42.855  12.595
13552W        W78812   2.863   0.432  11.111
13553W        W78813  30.987   1.956   1.380
13554W        W78814  15.871  18.343  11.190
13555W        W78815  20.692  11.094  14.857
13556W        W78816  22.299  12.869   3.674
13557W        W78817  24.061  33.005  14.375
13558W        W78818   9.158  12.660  14.230
13559W        W78819  35.394  22.864  12.048
13560W        W78820   1.973  42.480   4.290
13561W        W78821  13.452  14.338  13.803
13562W        W78822  30.414  35.778   4.233
13563W        W78823  39.306  14.686  14.959
13564W        W78824   7.690  29.053  13.321
13565W        W78825  39.613   0.399  11.159
13566W        W78826  43.078   5.717   1.907
13567W        W78827  24.564   9.622  12.099
13568W        W78828   9.619  12.834   0.343
13569W        W78829  25.995  30.056   3.739
13570W        W78830  30.749  39.393   0.249
13571W        W78831  23.691  40.517  12.420
13572W        W78832  44.258  29.638  12.454
13573W        W78833  16.086   2.862  13.614
13574W        W78834  41.492  37.318   0.900
13575W        W78835   4.657  43.342  10.412
13576W        W78836  27.622  26.476   2.240
13577W        W78837  28.999   9.569  11.564
13578W        W78838  10.842  37.546   3.306
13579W        W78839  13.546   8.748   4.659
13580W        W78840  11.866  39.330  12.402
13581W        W78841  34.776  30.114  13.866
13582W        W78842  16.019  16.252  14.914
13583W        W78843  22.656  38.032  13.526
13584W        W78844  10.931  12.145  13.444
13585W        W78845  36.100  34.095   1.883
13586W        W78846  36.014  16.718   1.913
13587W        W78847  29.905   8.645  13.465
13588W        W78848   8.200  38.254   0.034
13589W        W78849  12.326  39.456  11.672
13590W        W78850  21.851  42.134   3.067
13591W        W78851   1.316  26.660  14.531
13592W        W78852  34.574   9.461   1.843
13593W        W78853  34.960  21.229  10.101
13594W        W78854  25.679  23.593  12.855
13595W        W78855  19.240  32.130   4.355
13596W        W78856  36.841  26.961   1.976
13597W        W78857  20.959  40.303   2.172
13598W        W78858  27.483  18.107  14.217
13599W        W78859   2.402  14.015  12.846
13600W        W78860  41.909   4.654  11.127
13601W        W78861  12.395  13.686   2.342
13602W        W78862   0.054  32.409   0.127
13603W        W78863  37.648  14.686  14.478
13604W        W78864   5.943  30.047   3.771
13605W        W78865   0.730  20.112  14.428
13606W        W78866   3.697  14.031  11.092
13607W        W78867  24.883  34.717   0.927
13608W        W78868   7.112   1.020   1.397
13609W        W78869  28.232  13.850   2.780
13610W        W78870   3.763  42.060  11.201
13611W        W78871  13.513  18.029   5.253
13612W        W78872   9.972   0.684   2.564
13613W        W78873   4.355  14.178  14.248
13614W        W78874  21.093  29.647  12.960
13615W        W78875  23.459  43.424  12.642
13616W        W78876  41.263  43.986  10.838
13617W        W78877  38.880   4.750  12.613
13618W        W78878  28.347  27.035  11.782
13619W        W78879   5.995   0.881  10.711
13620W        W78880   5.332  28.480  14.433
13621W        W78881  41.900  44.922  12.306
13622W        W78882  16.899  14.866   0.728
13623W        W78883  34.742  20.643  13.578
13624W        W78884  15.712  28.606   2.656
13625W        W78885   1.650  24.213  12.490
13626W        W78886  35.040  40.300  13.540
13627W        W78887  37.532   4.349  12.449
13628W        W78888  22.433  35.052  13.591
13629W        W78889   2.431  31.962   4.610
13630W        W78890   3.341  33.500   4.764
13631W        W78891  35.280  26.903  12.938
13632W        W78892  11.088  10.844  14.460
13633W        W78893   0.365  23.464   4.197
13634W        W78894  41.953   7.674  10.892
13635W        W78895  10.510  43.987   1.247
13636W        W78896  18.326  35.807  11.761
13637W        W78897  27.723   3.896   4.219
13638W        W78898  44.325  41.876  13.543
13639W        W78899  42.865  12.328  12.725
13640W        W78900   6.014  22.630   4.938
13641W        W78901  14.294  17.133  10.789
13642W        W78902   6.231  11.143   2.249
13643W        W78903  14.105  21.477  13.894
13644W        W78904   0.994  30.799  13.500
13645W        W78905   4.212  17.434  14.733
13646W        W78906  14.612  16.641   2.265
13647W        W78907  28.242   9.742  12.868
13648W        W78908  18.476  12.300  13.430
13649W        W78909  28.162   6.389   2.120
13650W        W78910   5.944  11.257  13.903
13651W        W78911   5.852   0.965  14.438
13652W        W78912  17.831  22.571   1.481
13653W        W78913   8.990   0.448   0.430
13654W        W78914  30.322   4.358  10.847
13655W        W78915  44.057   2.984   4.619
13656W        W78916   0.193  32.394  13.854
13657W        W78917   5.650  24.112   1.998
13658W        W78918  21.605  29.187  14.494
13659W        W78919  26.495  27.154  14.726
13660W        W78920  16.087  29.642  14.300
13661W        W78921  18.305  43.498  13.604
13662W        W78922  26.941   3.321  10.443
13663W        W78923  30.153   8.793   4.550
13664W        W78924  18.262  39.237   4.866
13665W        W78925  29.038  34.577  11.962
13666W        W78926  38.860  43.040   0.764
13667W        W78927  17.811  25.843  13.005
13668W        W78928   0.732  22.948  13.045
13669W        W78929   9.849  27.227   0.252
13670W        W78930   7.790  39.889  11.201
13671W        W78931  37.919  40.235   1.801
13672W        W78932  22.126   5.762  12.797
13673W        W78933  31.061  42.052   4.175
13674W        W78934   6.859  14.879   3.863
13675W        W78935   9.990   2.363  10.660
13676W        W78936  25.950  32.976  12.150
13677W        W78937  41.414  40.902  11.540
13678W        W78938  12.087  34.968  10.683
13679W        W78939  11.334  22.048  12.871
13680W        W78940   8.477  35.659  11.060
13681W        W78941   9.721  38.603   3.086
13682W        W78942  17.432  43.231   1.691
13683W        W78943   1.937  29.039  14.390
13684W        W78944  19.192   3.704  14.579
13685W        W78945  16.217  15.288  14.165
13686W        W78946  41.749  38.252   2.829
13687W        W78947  40.104  13.315   3.243
13688W        W78948  34.912   8.784  14.504
13689W        W78949  19.589  24.810  14.609
13690W        W78950  31.443  15.220   0.905
13691W        W78951  44.219  44.382   0.451
13692W        W78952   6.395  21.433  12.687
13693W        W78953   1.330  34.096  12.037
13694W        W78954  31.206   8.391  14.938
13695W        W78955  42.469   9.899  13.903
13696W        W78956  23.642  27.647   4.506
13697W        W78957  21.069  31.575   0.705
13698W        W78958  40.578  26.394   1.927
13699W        W78959   9.718  37.842   1.941
13700W        W78960   1.871  21.263  14.507
13701W        W78961  40.439  25.169   0.445
13702W        W78962  10.176   5.858   0.920
13703W        W78963  20.208  27.449   2.858
13704W        W78964   0.516  11.269  10.339
13705W        W78965  13.397   1.610   2.815
13706W        W78966  20.002  34.317  12.209
13707W        W78967  43.682   8.685   1.605
13708W        W78968  16.221   0.505  14.001
13709W        W78969  24.881  23.167   3.630
13710W        W78970  11.634  32.522  10.569
13711W        W78971   6.633  19.218  10.840
13712W        W78972  10.346  33.959   3.804
13713W        W78973  22.059   5.527   2.275
13714W        W78974  24.665  12.669   2.021
13715W        W78975   0.602  39.637  13.510
13716W        W78976  14.387  26.961   0.143
13717W        W78977  24.948  28.822   3.338
13718W        W78978  24.671   8.624   4.246
13719W        W78979  36.824  35.552   2.250
13720W        W78980  23.622  10.201   2.695
13721W        W78981  19.051   1.428   4.717
13722W        W78982  33.181  27.799  10.702
13723W        W78983  36.313   5.706   3.023
13724W        W78984  21.670  43.237   0.668
13725W        W78985  20.519  42.239  13.481
13726W        W78986  18.860   1.242  12.545
13727W        W78987  17.732  43.057  14.727
13728W        W78988  36.025  42.609   0.064
13729W        W78989  18.547  36.256  12.670
13730W        W78990   2.811   6.845   1.953
13731W        W78991   1.451   3.065  11.275
13732W        W78992   1.014  43.318   0.291
13733W        W78993  43.315  18.316  12.968
13734W        W78994  14.313  19.586  12.913
13735W        W78995  17.319  36.086   3.120
13736W        W78996  31.876  32.895   1.441
13737W        W78997  16.811  19.271   1.291
13738W        W78998  38.165  31.228   3.186
13739W        W78999   9.378  13.637   4.678
13740W        W79000  20.742  16.853   4.263
13741W        W79001  37.547  30.671   3.796
13742W        W79002  31.532  29.256  12.901
13743W        W79003  26.532  43.857  11.876
13744W        W79004  12.305   9.082  12.883
13745W        W79005  22.677  23.244   4.116
13746W        W79006   6.848  38.377   3.318
13747W        W79007  32.892  21.946  13.124
13748W        W79008  14.561  19.658  10.248
13749W        W79009  17.335  41.022   0.409
13750W        W79010   4.978  23.100   1.784
13751W        W79011  33.818   2.353   1.213
13752W        W79012   5.953  41.008  12.801
13753W        W79013  13.296  43.465  13.483
13754W        W79014  10.137  28.567   3.962
13755W        W79015  14.809  41.734  11.979
13756W        W79016  40.667  36.762   1.857
13757W        W79017  19.235  10.729  13.853
13758W        W79018   9.217  13.740  13.487
13759W        W79019  44.336   6.771   2.251
13760W        W79020  37.895  30.150   1.330
13761W        W79021  17.761  16.564  13.372
13762W        W79022  15.754  21.138   0.300
13763W        W79023  14.394  34.848  14.461
13764W        W79024   6.458   0.045  13.817
13765W        W79025  32.064  18.565  13.321
13766W        W79026  44.217  35.826   4.182
13767W        W79027  14.754  42.217  11.086
13768W        W79028  30.189  14.828  14.462
13769W        W79029   7.572  21.461   1.337
13770W        W79030  23.484  21.882  10.775
13771W        W79031  36.119  43.541   2.646
13772W        W79032  37.578  10.310   2.257
13773W        W79033  34.972  25.598   2.727
13774W        W79034  39.725  32.654  11.461
13775W        W79035  11.133  17.574  12.406
13776W        W79036  38.249  29.419   4.284
13777W        W79037  31.531  44.013  13.379
13778W        W79038   7.821  33.844   2.380
13779W        W79039   1.781  16.088   1.690
13780W        W79040  10.918  21.635  14.469
13781W        W79041  29.712  11.145  11.563
13782W        W79042   5.851  25.668   3.632
13783W        W79043  10.431   4.754  13.800
13784W        W79044  30.486  15.023   2.777
13785W        W79045  12.450  37.324   2.898
13786W        W79046   5.493  34.186   2.313
13787W        W79047  26.170  43.934   0.948
13788W        W79048   5.185  40.334   2.804
13789W        W79049   1.427  35.601   2.040
13790W        W79050  26.549  10.302   4.143
13791W        W79051  25.517  14.311  14.794
13792W        W79052  42.938   2.812   1.018
13793W        W79053   2.573  39.462  12.106
13794W        W79054  39.078  28.968   1.778
13795W        W79055   4.681   1.302  11.022
13796W        W79056  44.844  44.019  12.420
13797W        W79057  19.449  10.100   4.241
13798W        W79058  18.470  39.268  11.976
13799W        W79059  17.977  34.534  14.408
13800W        W79060  38.274  32.035   1.685
13801W        W79061  29.129   9.823  12.442
13802W        W79062  16.334  24.497  13.131
13803W        W79063  16.149  10.566   2.419
13804W        W79064   9.346  22.234  12.106
13805W        W79065   3.368  25.136   3.047
13806W        W79066  23.186  12.153   4.519
13807W        W79067   4.376  42.473  12.921
13808W        W79068   2.658  39.620  13.429
13809W        W79069   4.976  12.766   0.481
13810W        W79070  29.923  15.394   4.283
13811W        W79071  44.671  39.781  12.756
13812W        W79072   6.764   4.089  10.708
13813W        W79073   5.846  41.914   1.198
13814W        W79074  11.355  42.903   4.500
13815W        W79075  32.728  28.646   3.325
13816W        W79076   1.325  37.859   4.671
13817W        W79077  14.828  44.321   4.667
13818W        W79078   6.761   8.365   2.823
13819W        W79079  31.589  42.163  12.144
13820W        W79080   1.068  12.170   0.531
13821W        W79081  26.154  31.605   0.274
13822W        W79082  10.376  26.449  14.834
13823W        W79083  11.417  20.943   4.086
13824W        W79084  32.832  44.024  13.983
13825W        W79085  39.129  15.589  12.944
13826W        W79086   9.872  37.805  13.374
13827W        W79087  37.595  30.087  13.872
13828W        W79088  30.699  36.030   2.674
13829W        W79089  29.387  10.627   1.246
13830W        W79090  22.479  26.908  12.060
13831W        W79091  12.818  26.116  10.343
13832W        W79092  34.628  32.718   0.435
13833W        W79093  25.703   7.730  13.623
13834W        W79094  41.156  16.698   0.946
13835W        W79095  18.236   0.235   2.241
13836W        W79096  35.604  15.634   4.722
13837W        W79097  15.789  19.635  14.303
13838W        W79098  43.841  20.293  11.262
13839W        W79099  16.088   8.659   0.368
13840W        W79100  37.690   0.931  12.522
13841W        W79101   2.368  17.023   2.702
13842W        W79102  24.676  21.106  13.910
13843W        W79103  33.271  37.940  14.118
13844W        W79104   4.596  12.482   4.575
13845W        W79105  33.948  33.138  14.536
13846W        W79106  36.034   5.383  11.404
13847W        W79107  35.958  36.549   4.499
13848W        W79108   8.191  28.019  11.207
13849W        W79109  42.723   4.756   4.459
13850W        W79110  40.456  43.074  12.496
13851W        W79111   5.703   6.724   2.247
13852W        W79112  39.526  10.869   0.827
13853W        W79113  16.525   5.372  14.650
13854W        W79114  19.671  39.047   2.716
13855W        W79115  41.383   1.653  12.134
13856W        W79116   0.688   4.316  14.913
13857W        W79117  22.545  29.918   4.608
13858W        W79118  10.667  30.312   4.346
13859W        W79119  30.928  22.447  11.260
13860W        W79120  33.922  29.967   2.210
13861W        W79121  21.334   9.668  10.374
13862W        W79122  18.174   5.947  11.879
13863W        W79123  34.183   5.774   4.677
13864W        W79124  41.653  29.927  13.415
13865W        W79125   7.184   5.314   3.848
13866W        W79126  35.517  10.250  14.854
13867W        W79127  20.069  22.193   4.146
13868W        W79128  17.609  40.309  11.410
13869W        W79129  36.617  35.290   0.459
13870W        W79130  23.771  29.158   1.454
13871W        W79131  19.020  18.197   2.278
13872W        W79132  17.281  42.387   0.741
13873W        W79133   2.351  27.676   2.694
13874W        W79134  20.724   1.390   1.948
13875W        W79135  43.838  10.006   9.983
13876W        W79136  41.513  13.447   0.454
13877W        W79137  33.432   6.314  12.885
13878W        W79138  36.817   0.380   0.995
13879W        W79139  35.971  43.429  11.540
13880W        W79140  16.729   1.305   2.291
13881W        W79141  19.746   5.479   2.679
13882W        W79142  28.098   1.272  13.885
13883W        W79143  33.182   1.530  14.647
13884W        W79144  11.107  24.704  13.068
13885W        W79145   6.700  31.533  13.053
13886W        W79146  38.263  44.421  14.472
13887W        W79147  32.154  39.748  14.963
13888W        W79148  17.553  22.108  14.967
13889W        W79149  30.135  15.569  11.511
13890W        W79150  13.423  13.758   3.722
13891W        W79151   2.739  26.511   0.801
13892W        W79152  22.056  12.083  13.007
13893W        W79153  23.151  44.229  11.353
13894W        W79154   8.412  40.787   0.024
13895W        W79155  38.459  20.798   4.537
13896W        W79156   0.100  10.217   4.334
13897W        W79157  15.982   1.358  14.825
13898W        W79158  34.856  30.926   2.810
13899W        W79159  30.377  28.067  10.920
13900W        W79160  15.824  10.937   0.813
13901W        W79161   4.821  36.191   2.710
13902W        W79162   0.425  36.652   0.235
13903W        W79163  40.889  35.258  11.020
13904W        W79164  19.036   0.498  12.922
13905W        W79165  26.042  44.998   0.451
13906W        W79166   9.018  21.744  11.633
13907W        W79167  40.477  27.899   1.803
13908W        W79168  20.195   9.847  11.417
13909W        W79169  17.187  39.249  13.957
13910W        W79170  41.770  12.826   3.787
13911W        W79171  42.942   6.975  14.683
13912W        W79172   6.447  12.890  14.841
13913W        W79173  15.506  40.346   1.228
13914W        W79174  13.353  21.745   0.398
13915W        W79175  10.162  23.460   4.155
13916W        W79176   5.675  11.326  11.536
13917W        W79177  10.903  18.416  12.604
13918W        W79178   4.985  20.755   0.176
13919W        W79179  21.708  21.721   4.399
13920W        W79180  36.049   2.106  12.911
13921W        W79181  14.055  30.621  14.532
13922W        W79182  25.659  30.156  12.119
13923W        W79183  20.157  16.097   1.014
13924W        W79184  18.343   9.558   0.329
13925W        W79185  15.041  15.479   0.823
13926W        W79186   3.421  40.351   0.787
13927W        W79187  27.042  34.139   2.327
13928W        W79188  13.094   4.143   1.883
13929W        W79189   0.780  36.840   2.271
13930W        W79190  30.466  19.791   2.304
13931W        W79191  20.401   5.879  12.067
13932W        W79192  24.677  36.379  14.841
13933W        W79193   4.311   5.642   3.184
13934W        W79194  35.848   5.861  14.738
13935W        W79195   4.401  38.605   0.881
13936W        W79196  33.836  20.259  14.348
13937W        W79197  44.960  37.522  11.540
13938W        W79198  41.354  22.725  13.968
13939W        W79199  19.115  23.704   0.976
13940W        W79200  27.839  32.282  13.089
13941W        W79201  39.784  10.734   1.293
13942W        W79202  36.778  17.170  12.700
13943W        W79203  31.816  36.168   4.099
13944W        W79204  16.135   5.398   4.728
13945W        W79205  17.619  29.991  11.341
13946W        W79206  28.442  41.270   1.538
13947W        W79207  11.303  31.190  10.654
13948W        W79208  36.543  38.832   0.951
13949W        W79209  29.655  41.566  13.044
13950W        W79210  40.203  15.796   4.205
13951W        W79211  20.776  29.684   1.525
13952W        W79212  33.540  20.490  12.625
13953W        W79213  41.561  31.015   2.357
13954W        W79214  28.440  21.958  12.430
13955W        W79215   8.426   0.230   3.750
13956W        W79216  21.261  15.688   3.774
13957W        W79217  11.670  40.987  11.125
13958W        W79218   4.603   1.437   4.700
13959W        W79219  26.435  35.981   4.437
13960W        W79220  32.936   0.772   2.977
13961W        W79221   7.817  28.549  10.761
13962W        W79222   6.274  20.272   4.607
13963W        W79223  11.383  15.722   4.932
13964W        W79224  28.440  27.606   1.380
13965W        W79225  28.226   8.219   0.977
13966W        W79226   2.275  15.658   4.109
13967W        W79227  13.563   4.040   2.772
13968W        W79228  21.131   9.268  10.663
13969W        W79229  37.783   4.531  13.253
13970W        W79230  20.137  18.746   4.161
13971W        W79231  40.441  36.388  12.633
13972W        W79232  43.536   2.333   1.800
13973W        W79233  38.935  41.364   3.835
13974W        W79234  35.863   8.972  12.491
13975W        W79235  21.697  44.766   3.435
13976W        W79236   5.721  23.552   3.333
13977W        W79237   6.773  14.716  13.668
13978W        W79238  25.200  41.087   3.218
13979W        W79239  39.183   2.058   5.349
13980W        W79240  21.678   5.373   1.159
13981W        W79241  23.951  41.104   2.202
13982W        W79242  43.885  39.259   2.081
13983W        W79243  17.340  28.352  13.893
13984W        W79244  37.950   4.993  10.398
13985W        W79245  11.647  16.712   4.381
13986W        W79246  40.487   4.855  13.979
13987W        W79247  22.938   3.389  12.489
13988W        W79248  31.758   5.007  13.615
13989W        W79249  28.659  10.116   1.222
13990W        W79250   2.183  17.342  14.871
13991W        W79251   3.402  26.200   1.868
13992W        W79252  22.517  16.822  13.493
13993W        W79253   0.159   7.136  11.208
13994W        W79254  28.571  19.161   4.188
13995W        W79255  14.667  37.829   0.171
13996W        W79256  36.941   6.179  12.983
13997W        W79257  18.302  35.147   4.103
13998W        W79258  18.177  32.674   0.751
13999W        W79259  30.173  33.732   2.355
14000W        W79260   9.601  32.631  14.377
14001W        W79261   1.978  39.938  14.637
14002W        W79262  14.015  11.576   0.801
14003W        W79263  11.367  21.833  12.384
14004W        W79264  10.670  12.229  12.944
14005W        W79265  43.286  42.389  11.624
14006W        W79266  11.260  31.615  14.335
14007W        W79267   7.878  32.407   2.224
14008W        W79268   6.284   4.690   2.510
14009W        W79269  16.346  17.187   2.373
14010W        W79270   4.369  23.528  12.047
14011W        W79271  12.856  12.383  12.354
14012W        W79272  18.339  17.596   4.801
14013W        W79273  44.503  41.594  11.528
14014W        W79274  43.310  17.260   0.283
14015W        W79275  12.846  16.698   1.275
14016W        W79276   8.072   6.281  14.786
14017W        W79277  32.433  21.004   3.724
14018W        W79278  16.327  26.501   2.391
14019W        W79279  17.642  30.828  10.362
14020W        W79280  36.028   5.837   4.256
14021W        W79281  14.224  11.182   3.203
14022W        W79282   2.702  24.358   4.122
14023W        W79283   7.001   2.389   3.261
14024W        W79284  20.212  15.834   2.873
14025W        W79285  35.906  37.940   0.256
14026W        W79286   6.916  35.857  13.969
14027W        W79287   3.775  41.717   1.735
14028W        W79288  33.307  44.968   2.087
14029W        W79289   8.639  17.005   2.124
14030W        W79290  44.792  10.105   3.372
14031W        W79291   7.368  36.345  13.139
14032W        W79292  28.026  15.042  14.941
14033W        W79293  30.847  29.147  12.618
14034W        W79294   6.685  44.296   2.459
14035W        W79295  34.179  25.204  10.378
14036W        W79296  17.766  15.728  14.281
14037W        W79297  23.127  14.743  10.510
14038W        W79298  32.128  44.824   2.692
14039W        W79299  24.753  20.645  11.641
14040W        W79300  26.444  12.714  12.076
14041W        W79301  18.755  17.224  13.960
14042W        W79302   6.902  44.069  11.132
14043W        W79303  16.350  12.937  12.917
14044W        W79304   4.968   4.859   1.351
14045W        W79305  11.121  21.692  13.739
14046W        W79306   3.446  26.945  13.292
14047W        W79307  30.755  26.158   2.833
14048W        W79308   8.938  35.869   0.403
14049W        W79309  26.533  28.057   2.100
14050W        W79310  44.554  17.247   3.614
14051W        W79311  33.522  11.623   0.449
14052W        W79312  27.208  31.266  13.561
14053W        W79313  26.029  43.306  12.447
14054W        W79314   3.456   2.204   2.158
14055W        W79315  16.777  39.378   3.653
14056W        W79316   3.116  42.962   4.781
14057W        W79317  43.323  34.086   1.858
14058W        W79318  21.211  36.457   3.426
14059W        W79319  32.175  39.078  13.053
14060W        W79320  10.591  32.930  11.062
14061W        W79321  44.156  39.658  14.348
14062W        W79322  26.023  24.874   0.486
14063W        W79323  43.444  10.007   3.030
14064W        W79324  39.835  31.949   2.781
14065W        W79325   8.695  29.051  13.273
14066W        W79326  21.511  39.956   0.351
14067W        W79327  25.218  10.466  14.915
14068W        W79328  12.529  10.702  14.445
14069W        W79329  15.073  20.638   0.031
14070W        W79330   8.356   4.384  11.142
14071W        W79331  21.186  41.780   3.609
14072W        W79332   2.515  38.986  11.864
14073W        W79333   7.339  20.554   4.061
14074W        W79334  29.444  26.117  10.482
14075W        W79335  24.105   5.734   3.446
14076W        W79336   1.358  39.925  13.555
14077W        W79337  43.824  38.490   3.369
14078W        W79338  11.771  27.193   3.095
14079W        W79339  32.049  25.164   3.103
14080W        W79340  25.714  29.553  11.499
14081W        W79341  24.389  11.675   1.181
14082W        W79342   0.790  20.976   0.440
14083W        W79343  33.535  30.032  14.953
14084W        W79344  23.595  41.873   4.609
14085W        W79345  11.840  42.803  14.739
14086W        W79346  30.664  43.290  13.300
14087W        W79347   0.219   9.732   3.140
14088W        W79348  36.504  17.576   1.806
14089W        W79349  10.618  19.723   3.670
14090W        W79350  14.917  35.869   4.663
14091W        W79351   3.739  32.137   4.966
14092W        W79352  26.109  34.855  14.857
14093W        W79353  27.143  33.523   4.157
14094W        W79354  10.869   6.835   0.837
14095W        W79355   7.985  21.728  11.178
14096W        W79356  10.828  43.649   1.512
14097W        W79357  20.599   8.023  10.289
14098W        W79358  35.800  35.352   2.732
14099W        W79359  30.455  16.370   2.286
14100W        W79360  10.226  44.837   2.424
14101W        W79361  39.373  32.489   3.230
14102W        W79362  34.811  12.531   4.180
14103W        W79363   1.320  42.306   0.888
14104W        W79364  42.203  30.162   2.689
14105W        W79365  10.450   0.502   4.605
14106W        W79366  12.173  26.584   1.834
14107W        W79367  16.072  13.798   3.148
14108W        W79368   2.523   9.647   3.642
14109W        W79369  12.044  17.705   2.750
14110W        W79370  32.578  15.362  10.512
14111W        W79371  23.133  43.952  14.799
14112W        W79372   3.703  36.933   1.924
14113W        W79373  42.823  17.761  14.888
14114W        W79374   8.835  11.782  10.927
14115W        W79375  40.293  19.634   0.330
14116W        W79376  14.000   1.854  14.481
14117W        W79377  44.228  23.463   4.241
14118W        W79378  27.439  38.785  11.627
14119W        W79379   0.060  32.056  12.490
14120W        W79380  34.144  31.435  13.771
14121W        W79381  23.722   0.030  12.745
14122W        W79382  27.067   9.807  14.766
14123W        W79383  19.080  15.575  14.092
14124W        W79384  11.635   8.021   4.995
14125W        W79385   4.430  14.194   4.196
14126W        W79386  40.106  43.971  11.724
14127W        W79387  21.150  11.302   3.797
14128W        W79388  28.277  30.521   1.377
14129W        W79389   4.426  25.265   0.351
14130W        W79390   4.994  29.538   0.534
14131W        W79391  24.291  15.356  14.164
14132W        W79392  36.925  44.787   5.184
14133W        W79393  26.519  26.742   4.228
14134W        W79394  33.928  44.269  10.297
14135W        W79395   0.911  28.690   1.756
14136W        W79396  17.314  33.266  12.860
14137W        W79397   3.691  36.073   2.884
14138W        W79398  16.603   4.425   1.025
14139W        W79399  15.726  26.131  12.967
14140W        W79400  33.428  31.943   0.013
14141W        W79401  29.542  11.807   4.557
14142W        W79402  43.669  31.934   1.375
14143W        W79403  16.124  11.519  11.605
14144W        W79404   3.281  17.855  12.374
14145W        W79405  37.190  27.991   3.696
14146W        W79406  30.103   5.217  11.548
14147W        W79407  13.390  24.540  14.758
14148W        W79408  34.683  19.382  13.004
14149W        W79409  29.879  10.428  13.121
14150W        W79410  39.817  23.529  12.036
14151W        W79411   4.021  17.040   2.195
14152W        W79412  21.746  21.682   3.680
14153W        W79413   0.905  16.441   1.264
14154W        W79414   2.853   5.164  11.206
14155W        W79415  44.733  18.109  13.404
14156W        W79416  29.089   1.661  13.920
14157W        W79417   2.259  14.576   2.196
14158W        W79418  40.388  21.790  10.692
14159W        W79419  15.511  36.987  11.494
14160W        W79420  40.918  31.489   4.063
14161W        W79421  22.772  29.673   0.696
14162W        W79422  12.312   5.340  14.271
14163W        W79423  32.559  19.564  14.380
14164W        W79424  23.757   1.217  10.298
14165W        W79425  25.101   8.760   1.926
14166W        W79426  21.043  28.397  12.525
14167W        W79427   9.457  17.963   0.032
14168W        W79428  13.590  24.032   4.141
14169W        W79429  22.253  28.051  12.113
14170W        W79430   9.333  35.514  10.865
14171W        W79431  29.098  15.752   1.733
14172W        W79432  27.507  13.074   1.757
14173W        W79433  30.892  19.784  11.601
14174W        W79434  37.078  17.612  11.395
14175W        W79435  38.456  19.063  11.861
14176W        W79436  11.418  42.392   0.898
14177W        W79437  29.655  41.084   1.679
14178W        W79438   3.521  19.586   2.502
14179W        W79439  43.916  19.117   2.741
14180W        W79440  37.227  10.731  12.399
14181W        W79441   2.480   4.920   2.599
14182W        W79442   6.153  23.613   2.178
14183W        W79443   2.442  32.182  12.693
14184W        W79444  31.526  20.995  13.027
14185W        W79445  43.885   1.274  12.625
14186W        W79446  15.513   4.207   3.717
14187W        W79447   8.411  31.580  10.527
14188W        W79448  33.605  38.614   0.465
14189W        W79449  39.022   5.656  11.943
14190W        W79450   2.770  16.793  11.768
14191W        W79451  17.525  17.750   0.217
14192W        W79452  27.703  13.236   3.140
14193W        W79453  21.115  21.351  10.254
14194W        W79454  28.641   7.344  12.106
14195W        W79455  19.109  20.847  12.664
14196W        W79456   6.479  31.420   3.842
14197W        W79457  19.259   3.313  14.906
14198W        W79458  38.925  34.067   0.879
14199W        W79459  36.324  11.662  13.792
14200W        W79460  34.464  13.527   4.268
14201W        W79461  12.391   0.826   4.262
14202W        W79462  36.565  30.154  12.033
14203W        W79463   6.633  12.570  12.140
14204W        W79464  44.466  23.016   4.172
14205W        W79465   3.266  11.119   1.298
14206W        W79466   9.330  12.532  12.905
14207W        W79467  28.488  38.320   3.262
14208W        W79468  40.830  33.761  13.094
14209W        W79469  42.916  25.081   1.955
14210W        W79470  19.216  40.452   3.129
14211W        W79471  24.095  18.510   3.316
14212W        W79472  29.293  24.916  14.488
14213W        W79473  20.943  42.295  13.779
14214W        W79474  42.812   0.855   0.744
14215W        W79475   5.460  41.746  12.898
14216W        W79476   1.728  22.258   0.859
14217W        W79477  11.852   6.770  10.608
14218W        W79478  43.090  38.356   4.078
14219W        W79479  12.622  27.622   3.272
14220W        W79480  34.903   8.200   0.306
14221W        W79481   2.558  31.335  11.685
14222W        W79482   5.287   8.960   1.037
14223W        W79483  22.516   4.536  12.189
14224W        W79484  44.757  20.580   1.743
14225W        W79485  16.943   8.738   4.192
14226W        W79486  36.985  26.217  12.843
14227W        W79487  15.668  43.295   4.092
14228W        W79488   9.917  24.169  13.500
14229W        W79489  39.316  18.556   0.003
14230W        W79490  16.536  19.286   0.432
14231W        W79491  29.387  19.794  13.088
14232W        W79492  36.933  43.287   1.707
14233W        W79493  22.565   5.661  13.945
14234W        W79494  17.651  11.540  12.425
14235W        W79495  28.508   5.874   1.944
14236W        W79496  37.691  20.741  10.706
14237W        W79497  38.630  29.135   4.076
14238W        W79498  35.281  13.283   0.293
14239W        W79499   5.087  28.374  12.996
14240W        W79500  28.833  10.619  14.119
14241W        W79501  27.455  30.418   0.985
14242W        W79502  37.132   8.860  14.398
14243W        W79503   3.860   8.925  13.278
14244W        W79504  43.871  13.581   2.750
14245W        W79505  13.371  30.000   0.768
14246W        W79506  35.882  30.133  13.567
14247W        W79507  14.846  35.068   2.119
14248W        W79508  10.881   0.457  10.803
14249W        W79509  32.621  22.186  10.755
14250W        W79510   4.270  16.258  11.113
14251W        W79511  26.157   3.820  14.313
14252W        W79512  37.049  39.984   3.684
14253W        W79513   8.813   7.311   3.190
14254W        W79514   8.007  24.171  14.718
14255W        W79515  34.208  15.714  13.533
14256W        W79516  32.529  28.145  12.581
14257W        W79517  28.152  17.092   3.390
14258W        W79518  40.536  16.304  11.087
14259W        W79519  18.932  39.562  11.855
14260W        W79520   5.044  30.143  10.228
14261W        W79521  44.629  25.590  13.515
14262W        W79522  24.663  26.719   3.723
14263W        W79523  32.007  42.414   2.211
14264W        W79524  23.520  42.026  13.211
14265W        W79525   0.882  28.141   3.588
14266W        W79526  35.898  33.752   0.897
14267W        W79527  37.844  44.637  14.723
14268W        W79528  15.790  30.930   0.880
14269W        W79529  29.785  10.845   4.037
14270W        W79530   8.865  13.605   4.720
14271W        W79531  10.141   9.819   1.634
14272W        W79532  13.921  30.181   3.640
14273W        W79533  12.715  38.519   4.798
14274W        W79534  38.959   2.405  11.587
14275W        W79535   1.477  17.345  11.265
14276W        W79536  32.629  11.702   4.145
14277W        W79537  18.187   3.246  13.999
14278W        W79538  16.079  36.304   4.216
14279W        W79539  22.042  22.532   3.280
14280W        W79540  34.120  21.028  12.076
14281W        W79541  23.464   8.217   2.880
14282W        W79542  28.695  29.431  13.939
14283W        W79543   0.153  14.722   1.393
14284W        W79544  41.971   8.588  13.853
14285W        W79545  35.489  11.884   0.881
14286W        W79546  32.545  31.320   3.797
14287W        W79547  39.815  16.686  11.718
14288W        W79548  24.385  15.694   1.744
14289W        W79549  24.413  16.221  14.179
14290W        W79550   2.516  30.443   3.244
14291W        W79551  18.606  26.967  11.152
14292W        W79552  18.711  32.214   0.017
14293W        W79553  28.666  41.832  12.924
14294W        W79554  29.211  14.652  13.536
14295W        W79555  40.469  38.058   2.509
14296W        W79556   5.405  38.486   3.107
14297W        W79557  11.650   8.632   1.773
14298W        W79558  38.082  19.556  14.850
14299W        W79559  17.109  24.909   4.092
14300W        W79560  19.219  26.591   2.244
14301W        W79561  32.171  20.476   0.965
14302W        W79562  22.936  42.850  10.577
14303W        W79563   7.754  15.739   0.238
14304W        W79564   6.854  32.551   3.177
14305W        W79565  16.470   4.260   3.928
14306W        W79566  30.057  32.365   0.153
14307W        W79567   7.226  28.168   4.185
14308W        W79568  11.800  10.208   0.271
14309W        W79569   1.534  27.115  11.280
14310W        W79570  26.732  25.096  14.526
14311W        W79571  25.557  10.043   1.541
14312W        W79572  11.778  33.008  10.766
14313W        W79573   3.122  12.083   1.459
14314W        W79574  44.828  23.135  13.008
14315W        W79575  39.913   5.739   3.679
14316W        W79576  30.026  38.480  11.294
14317W        W79577   9.269  34.638  10.751
14318W        W79578  21.566  41.405   0.474
14319W        W79579  35.133  16.310  11.464
14320W        W79580  26.175  40.797   3.064
14321W        W79581   7.870  33.670  11.894
14322W        W79582  43.882   6.900   0.354
14323W        W79583   5.907   6.891  14.040
14324W        W79584  22.663  26.661  12.933
14325W        W79585  43.979  20.142   4.609
14326W        W79586   6.753  44.420  14.309
14327W        W79587  22.201  25.249  14.553
14328W        W79588   2.983  14.162   3.279
14329W        W79589  12.698  15.154   3.817
14330W        W79590  31.350  37.053   3.247
14331W        W79591  18.039  21.993  10.788
14332W        W79592  32.215  28.536  13.661
14333W        W79593  25.591  13.369  11.929
14334W        W79594  16.192   4.461   1.809
14335W        W79595  28.705   3.285   0.945
14336W        W79596   1.773  41.869   1.749
14337W        W79597  44.967  43.241  14.916
14338W        W79598  10.948  39.050  14.902
14339W        W79599   4.896  31.925  13.257
14340W        W79600   3.427   5.263  10.675
14341W        W79601   4.914  41.927   3.259
14342W        W79602  17.817   5.849  12.973
14343W        W79603  12.093  24.984  10.741
14344W        W79604  43.474  41.619  14.359
14345W        W79605  39.473  15.285  14.296
14346W        W79606  40.983  16.627  14.062
14347W        W79607  11.839  12.204   2.277
14348W        W79608   1.946  42.133   0.263
14349W        W79609  16.109  10.164  12.777
14350W        W79610  39.060  29.444   4.785
14351W        W79611  35.134  20.247   2.719
14352W        W79612  27.117  19.978   3.227
14353W        W79613   5.723  35.331   3.092
14354W        W79614   4.965  32.899   1.008
14355W        W79615   9.704  24.193   1.836
14356W        W79616  39.775  38.912  13.307
14357W        W79617  36.548  16.825   3.747
14358W        W79618  20.152   6.158   4.504
14359W        W79619  41.610  38.829   2.086
14360W        W79620  12.342   1.052  14.669
14361W        W79621  34.336   2.203   1.187
14362W        W79622  37.918  43.174   4.509
14363W        W79623   5.319  13.707   4.488
14364W        W79624  32.070  27.529   1.650
14365W        W79625  44.283   9.053   4.303
14366W        W79626  43.331   9.069   0.988
14367W        W79627  44.385  31.935  10.708
14368W        W79628  19.166  27.520  13.159
14369W        W79629  22.076  11.549   0.371
14370W        W79630  16.658  31.629  14.948
14371W        W79631   1.460  11.663  10.357
14372W        W79632   0.412   2.949   2.802
14373W        W79633  27.987   0.896   0.244
14374W        W79634   8.923   1.346   4.146
14375W        W79635  18.121  29.738  10.715
14376W        W79636  17.988   0.868   2.255
14377W        W79637  33.703   8.228  11.245
14378W        W79638  28.448  34.380   0.812
14379W        W79639  12.450   8.857   2.746
14380W        W79640  31.200  35.976  13.838
14381W        W79641  13.212  25.003   5.059
14382W        W79642  25.348   1.300  12.469
14383W        W79643  30.955   2.020  13.589
14384W        W79644  38.525   9.226   4.066
14385W        W79645  25.175   1.834   3.665
14386W        W79646  25.546  35.034   3.679
14387W        W79647  43.577  22.415  11.944
14388W        W79648  12.167   8.621   1.795
14389W        W79649  28.117  26.504  12.067
14390W        W79650   1.270  34.197   1.838
14391W        W79651  19.205  28.351  14.042
14392W        W79652  30.963  18.445  10.082
14393W        W79653   0.504   3.159   0.553
14394W        W79654   6.856  15.333   3.631
14395W        W79655  35.468  26.220  10.801
14396W        W79656  41.992  40.801   3.135
14397W        W79657  21.228   1.250   4.191
14398W        W79658  24.501  25.436  11.176
14399W        W79659  26.964  17.715  11.622
14400W        W79660   7.304  35.029   2.768
14401W        W79661   8.872  23.311  11.828
14402W        W79662  26.179  36.157  14.730
14403W        W79663  18.597  28.753   0.725
14404W        W79664  28.887  30.694  14.065
14405W        W79665  19.009  22.219  12.034
14406W        W79666  36.566  35.880   1.861
14407W        W79667  44.789  23.730   0.123
14408W        W79668  11.108  17.058   4.112
14409W        W79669  29.983  17.734  14.643
14410W        W79670  25.758  19.769   3.438
14411W        W79671  32.254  11.866   0.623
14412W        W79672  33.436  35.113   3.143
14413W        W79673   9.754  23.779   4.159
14414W        W79674  17.432  11.831  12.804
14415W        W79675   0.213   1.304  14.863
14416W        W79676  26.604   7.311   2.318
14417W        W79677  33.165  19.276  11.525
14418W        W79678   4.120  16.120   0.065
14419W        W79679  21.626  17.067   4.771
14420W        W79680  12.847  29.383   1.871
14421W        W79681  42.804   5.175  14.844
14422W        W79682  20.501  40.314  11.189
14423W        W79683  20.581  32.029  13.566
14424W        W79684  11.661  14.583   1.141
14425W        W79685   7.147  19.206  10.760
14426W        W79686  27.920   2.952   4.109
14427W        W79687  22.026  12.600  11.104
14428W        W79688  14.297  17.086   4.546
14429W        W79689  37.026   8.316   2.043
14430W        W79690  12.801  15.024  11.220
14431W        W79691  37.763  32.519  11.729
14432W        W79692  38.880  40.965  14.411
14433W        W79693  32.451   0.271  12.826
14434W        W79694  21.864  13.775  12.527
14435W        W79695  29.297  22.608   2.822
14436W        W79696  17.701  32.565   4.614
14437W        W79697  25.742   9.123   4.740
14438W        W79698  11.722   5.912   0.955
14439W        W79699  24.104  33.532  14.433
14440W        W79700  27.470  43.102  11.493
14441W        W79701   9.881   4.433   0.852
14442W        W79702   8.879  14.276   3.177
14443W        W79703  31.122   4.954  12.999
14444W        W79704  17.412  21.238   3.470
14445W        W79705   2.192  25.617   4.552
14446W        W79706  43.794  23.268  12.134
14447W        W79707  43.552  30.608   2.910
14448W        W79708  31.322  18.345  10.798
14449W        W79709  11.425   5.820   4.070
14450W        W79710  30.750   6.723   2.620
14451W        W79711  35.671  20.609  11.947
14452W        W79712  44.867  13.768  11.944
14453W        W79713   5.894   1.030  11.635
14454W        W79714   0.986   4.989   3.975
14455W        W79715   9.953  36.810   2.347
14456W        W79716  41.782   0.398  14.944
14457W        W79717  24.282  37.879   0.062
14458W        W79718  36.515  33.812  12.401
14459W        W79719  23.905  36.429  13.469
14460W        W79720  24.434   3.948   2.201
14461W        W79721  11.762  36.249   2.136
14462W        W79722  28.224  32.011   1.217
14463W        W79723  43.773  11.444   2.231
14464W        W79724   2.490   4.191  10.668
14465W        W79725  19.138  42.251   1.718
14466W        W79726   8.310  40.137  11.074
14467W        W79727  25.016  10.677   4.242
14468W        W79728  38.969   4.790  14.019
14469W        W79729   2.974  20.077  12.562
14470W        W79730  11.828  17.115   1.993
14471W        W79731  11.671   7.633  13.621
14472W        W79732  29.671  20.105   4.286
14473W        W79733  29.496  19.293  10.544
14474W        W79734  16.288   8.421  14.889
14475W        W79735   0.592  10.219   2.270
14476W        W79736  33.626  19.754   3.729
14477W        W79737  23.874  29.437  12.081
14478W        W79738   6.394   1.907  13.495
14479W        W79739  28.635  42.916  14.770
14480W        W79740   9.391  37.995   4.174
14481W        W79741   3.558  41.876   4.151
14482W        W79742  18.783  23.738  13.576
14483W        W79743  32.053  13.734   1.359
14484W        W79744  35.359  13.105   2.663
14485W        W79745  39.451   1.044  12.409
14486W        W79746  35.877   8.709  13.769
14487W        W79747  15.044  32.040   0.357
14488W        W79748  25.938  30.656  12.172
14489W        W79749  12.387  40.035   3.178
14490W        W79750  23.507  24.624   1.959
14491W        W79751   5.190  24.931   3.545
14492W        W79752   2.219  23.604  13.956
14493W        W79753  41.432   1.235  10.573
14494W        W79754  33.273  24.527   0.238
14495W        W79755   0.434  31.891  12.153
14496W        W79756  23.635   5.554   1.388
14497W        W79757  43.618  10.880  14.029
14498W        W79758   6.197  38.802  12.546
14499W        W79759  15.321   0.997  14.258
14500W        W79760  42.866  25.132  11.849
14501W        W79761  29.873  44.804  13.207
14502W        W79762  44.754  12.392   1.212
14503W        W79763  22.343  30.676   1.762
14504W        W79764  20.028  36.090   2.703
14505W        W79765  26.385   5.833   2.434
14506W        W79766  13.245  30.101  14.323
14507W        W79767  27.575  15.205   3.823
14508W        W79768   0.710  13.317  11.492
14509W        W79769   7.275  44.756   2.783
14510W        W79770  42.022   0.432   0.396
14511W        W79771  21.593  12.408  10.816
14512W        W79772  16.180  18.193  10.782
14513W        W79773  25.743  13.575  14.275
14514W        W79774  37.861  42.353   1.646
14515W        W79775   9.944  34.543  13.519
14516W        W79776  31.681   1.516  11.635
14517W        W79777  43.880  44.147   2.489
14518W        W79778  11.045  44.280  13.443
14519W        W79779  34.350  15.316   2.307
14520W        W79780  27.095  30.363   3.140
14521W        W79781  35.320  15.187   3.688
14522W        W79782   3.655  26.937  10.401
14523W        W79783  28.742  44.883   3.606
14524W        W79784  15.903  32.930  14.527
14525W        W79785  37.187   0.309  12.240
14526W        W79786  25.498  19.591   0.668
14527W        W79787   8.991   7.432   5.046
14528W        W79788  12.696  26.276   3.978
14529W        W79789   6.425  30.232   1.397
14530W        W79790  33.110  26.930   2.858
14531W        W79791   7.835   1.389  12.614
14532W        W79792   3.686  19.263  10.667
14533W        W79793  20.448  16.686  13.784
14534W        W79794  21.830  27.908  11.880
14535W        W79795  31.072  30.894  13.553
14536W        W79796  11.230  41.566   3.337
14537W        W79797  15.026   3.913   1.288
14538W        W79798  15.753  32.444  10.717
14539W        W79799  23.431  40.189   1.270
14540W        W79800  32.046  23.677  14.441
14541W        W79801   3.511  16.579  13.913
14542W        W79802  20.156  36.333  10.432
14543W        W79803  16.648  39.012   1.888
14544W        W79804  39.273  15.763  13.437
14545W        W79805   0.342  25.156   1.764
14546W        W79806  20.111  10.344   1.203
14547W        W79807  23.024   1.361   0.864
14548W        W79808  36.526  13.433  14.431
14549W        W79809  10.110  16.304  14.926
14550W        W79810  20.538   9.202  13.870
14551W        W79811  40.088  34.605   3.453
14552W        W79812   7.168  35.071  10.770
14553W        W79813  11.807  40.696  10.722
14554W        W79814   7.154   8.790  14.921
14555W        W79815  40.285  14.832   2.342
14556W        W79816  19.096  11.580   3.760
14557W        W79817  13.973  22.246   4.086
14558W        W79818  28.188  38.788   1.210
14559W        W79819  32.036  27.009  11.893
14560W        W79820  24.265   5.251  14.864
14561W        W79821  23.965  42.295  12.000
14562W        W79822  17.106  22.811   0.833
14563W        W79823  11.898  38.832  12.553
14564W        W79824  13.291  40.235   1.774
14565W        W79825  41.755  32.920  12.548
14566W        W79826   9.097  17.794  10.532
14567W        W79827   8.172  18.146   3.564
14568W        W79828  11.926   2.425   0.424
14569W        W79829   6.171   6.902   2.391
14570W        W79830  25.742  12.428   1.393
14571W        W79831  32.967  13.040  12.958
14572W        W79832  42.025  25.426  10.676
14573W        W79833  30.470  21.303   4.570
14574W        W79834   5.401  43.269   4.415
14575W        W79835  29.496  24.203  11.691
14576W        W79836  36.494  18.063   2.699
14577W        W79837  13.661   7.832   1.344
14578W        W79838  41.826  36.306  10.735
14579W        W79839  28.163   7.785   0.662
14580W        W79840   7.084  30.676  11.493
14581W        W79841  11.146  22.051  13.361
14582W        W79842  10.008   7.489   2.688
14583W        W79843   7.708  23.194  11.236
14584W        W79844  24.289  44.276   3.612
14585W        W79845  12.855  33.017  13.151
14586W        W79846  32.569   0.006   1.239
14587W        W79847  19.056  28.449  14.956
14588W        W79848  32.242  34.024  13.472
14589W        W79849  18.837  20.685   1.799
14590W        W79850  41.361  15.730  13.375
14591W        W79851  13.641  40.695   0.393
14592W        W79852  43.065   1.566  11.511
14593W        W79853  18.604  17.192   4.978
14594W        W79854  31.741  37.965  11.756
14595W        W79855  23.147  37.479   4.985
14596W        W79856  39.923  29.952  10.774
14597W        W79857  12.725  28.399   1.809
14598W        W79858  11.697  19.669   2.162
14599W        W79859  33.198  22.063   4.871
14600W        W79860  14.580   9.864  11.872
14601W        W79861  26.878   0.725  13.252
14602W        W79862  17.555   3.435   4.417
14603W        W79863  27.246  19.223   5.335
14604W        W79864   0.024  31.365  14.866
14605W        W79865   2.392  11.314  11.451
14606W        W79866  35.400  17.670   4.286
14607W        W79867  10.765  37.552  13.526
14608W        W79868  31.013  10.093   0.850
14609W        W79869   1.851   9.704   4.079
14610W        W79870  43.711  31.083   0.783
14611W        W79871  26.107  13.969  14.539
14612W        W79872  18.803  33.651  12.894
14613W        W79873   5.487  20.057   3.343
14614W        W79874  15.594  10.685  11.922
14615W        W79875  38.915   5.949   2.724
14616W        W79876   5.132   1.705  10.324
14617W        W79877  29.650  30.039  11.416
14618W        W79878   9.770  21.802  13.316
14619W        W79879  15.634  24.505  12.446
14620W        W79880  31.024  33.956  10.682
14621W        W79881  24.037   0.531   2.910
14622W        W79882  38.350   8.303  10.751
14623W        W79883  16.376   9.731   1.376
14624W        W79884  25.188  28.397   4.092
14625W        W79885  43.584   9.833  14.618
14626W        W79886   5.699  38.468  11.640
14627W        W79887  43.860  14.634  14.494
14628W        W79888   5.404   8.884  12.117
14629W        W79889  39.366  14.481   5.021
14630W        W79890  19.320  28.757   2.962
14631W        W79891  25.600  43.637   0.707
14632W        W79892  20.877  28.596   2.810
14633W        W79893  16.625  36.250  14.967
14634W        W79894   8.265  19.994  13.136
14635W        W79895  11.636  21.488  12.111
14636W        W79896  23.135  13.511  14.800
14637W        W79897  38.286  21.484   2.370
14638W        W79898  16.103  21.210  13.327
14639W        W79899  44.317   4.663  13.872
14640W        W79900   3.902   2.291  13.080
14641W        W79901  23.061   4.897   0.158
14642W        W79902  38.991  25.506   4.143
14643W        W79903   7.735  20.758  11.078
14644W        W79904  13.845  19.299   4.265
14645W        W79905   8.229  29.030  11.242
14646W        W79906  36.984   3.678  12.517
14647W        W79907  32.292  37.981  10.622
14648W        W79908  11.597  14.352  10.696
14649W        W79909  36.087  14.819  14.462
14650W        W79910   3.005  24.669  13.151
14651W        W79911  29.290  13.759  12.048
14652W        W79912  39.959   5.298   0.063
14653W        W79913  24.573   3.025   0.387
14654W        W79914  14.937   5.126  14.181
14655W        W79915  42.272  12.297   3.258
14656W        W79916   4.397  23.929  14.457
14657W        W79917  17.622   5.980   1.842
14658W        W79918   6.499  36.860   4.905
14659W        W79919  42.451   0.189   1.126
14660W        W79920  25.188   8.679  13.471
14661W        W79921  39.185  12.691  12.489
14662W        W79922  43.658  21.097  11.752
14663W        W79923  18.173  43.324   1.339
14664W        W79924  10.064   7.726  13.985
14665W        W79925  23.626   6.243  13.677
14666W        W79926  24.239  30.534  14.399
14667W        W79927  26.580   1.439  13.694
14668W        W79928  26.094  43.916  11.614
14669W        W79929  29.893   0.138   1.072
14670W        W79930  10.810   6.011  12.573
14671W        W79931  13.158  18.477  11.648
14672W        W79932  28.035   8.762  14.566
14673W        W79933  24.673   9.647  14.178
14674W        W79934  20.233  44.690  12.498
14675W        W79935  37.931   1.678   2.210
14676W        W79936  35.799  10.672  14.921
14677W        W79937  43.467   5.325  14.555
14678W        W79938  22.567  21.501  13.812
14679W        W79939  18.046  20.160  14.927
14680W        W79940  23.583   5.866   1.848
14681W        W79941  39.603  23.616  13.507
14682W        W79942  33.744  25.497   1.193
14683W        W79943  27.928   6.692  13.351
14684W        W79944  22.602  22.997  14.428
14685W        W79945  39.608   0.719  10.294
14686W        W79946  42.542  18.556  11.177
14687W        W79947   7.718  28.626   4.614
14688W        W79948  21.361  18.339   4.572
14689W        W79949  39.356   2.931  12.604
14690W        W79950  17.142  28.711   3.777
14691W        W79951  16.797  44.489  10.733
14692W        W79952  17.218   2.604   0.270
14693W        W79953   5.006   3.352  13.985
14694W        W79954  20.987  23.681  14.370
14695W        W79955  43.367  44.670  10.769
14696W        W79956   3.522  44.162   0.723
14697W        W79957  41.323  44.063   1.703
14698W        W79958   2.375  14.839  13.955
14699W        W79959  38.060  21.849   4.228
14700W        W79960  25.250  43.158   0.471
14701W        W79961  20.299  29.728  12.058
14702W        W79962  40.979  42.710   3.298
14703W        W79963   9.118  32.238  13.934
14704W        W79964  25.669  25.805  12.286
14705W        W79965  18.548  25.009   3.315
14706W        W79966   0.256  22.227   2.843
14707W        W79967  36.937   2.399   2.789
14708W        W79968  42.518  16.104  14.477
14709W        W79969  16.313  18.119   0.417
14710W        W79970   1.012  17.998   4.614
14711W        W79971  30.994  33.697  11.131
14712W        W79972  23.116   6.435   1.376
14713W        W79973  29.374  19.134   0.545
14714W        W79974  26.159  17.031  12.855
14715W        W79975   4.927  42.627  11.249
14716W        W79976  41.963  13.296  12.842
14717W        W79977  17.146  32.835  10.714
14718W        W79978  19.698  21.033  12.338
14719W        W79979  18.510  42.497  10.711
14720W        W79980  42.789   1.906  12.963
14721W        W79981  15.819  22.256   2.169
14722W        W79982  22.189  20.621   3.288
14723W        W79983  27.720   4.632  11.259
14724W        W79984   2.388  31.112  13.504
14725W        W79985  39.607  22.705  13.458
14726W        W79986  11.741  35.037   3.181
14727W        W79987   3.089  37.843   1.461
14728W        W79988  21.132  16.643   0.501
14729W        W79989  32.924  43.324   3.203
14730W        W79990   7.391  28.241  10.796
14731W        W79991   8.675  40.341  14.725
14732W        W79992  24.026  18.320  12.581
14733W        W79993  37.376  26.140  14.425
14734W        W79994  23.748   4.118   1.365
14735W        W79995  38.974  44.471   2.849
14736W        W79996   8.214  27.949   2.647
14737W        W79997  40.317   9.208  13.013
14738W        W79998  34.025  21.341   0.515
14739W        W79999  12.751  39.577   1.653
14740W        W80000  27.635  10.354   3.274
14741W        W80001   9.803  40.468  12.460
14742W        W80002  44.502  40.054   1.280
14743W        W80003  39.376   1.340  14.005
14744W        W80004   3.381  15.298  14.532
14745W        W80005  29.408  30.719  14.006
14746W        W80006   3.736  29.989   1.529
14747W        W80007  22.983  38.479   2.384
14748W        W80008   7.788  44.861  11.656
14749W        W80009  28.375  44.973   1.013
14750W        W80010  35.927  28.731  13.539
14751W        W80011  10.604  21.915   2.382
14752W        W80012   2.963  16.787   0.838
14753W        W80013  31.709   7.734   4.663
14754W        W80014  14.986  15.295   0.322
14755W        W80015   9.760   3.097   3.209
14756W        W80016  40.082  11.613   4.143
14757W        W80017  18.291  41.262  13.542
14758W        W80018  35.064  22.104   2.873
14759W        W80019  29.946  20.242   4.701
14760W        W80020  17.054  21.298  12.847
14761W        W80021  44.600  15.369  10.686
14762W        W80022  44.535   3.368   5.029
14763W        W80023  17.059  36.606  14.203
14764W        W80024  18.314   1.040   1.821
14765W        W80025  28.048  36.516  11.714
14766W        W80026   0.811  25.816   0.456
14767W        W80027  38.927  44.817   2.416
14768W        W80028   8.711  36.627   2.607
14769W        W80029  24.426  26.097  12.014
14770W        W80030   0.728  17.840   3.343
14771W        W80031   7.948  13.592   4.345
14772W        W80032  16.751  25.513   3.161
14773W        W80033  22.891  38.825   3.064
14774W        W80034  33.642  38.152  14.500
14775W        W80035  11.792  26.090  13.563
14776W        W80036  14.703  28.158   0.053
14777W        W80037  39.885  36.321  14.978
14778W        W80038  33.309  43.918  13.847
14779W        W80039  43.058  26.601  12.985
14780W        W80040  14.356  14.502   0.360
14781W        W80041  22.981  36.557  11.985
14782W        W80042  31.291  18.682  11.475
14783W        W80043   8.344  13.686   4.702
14784W        W80044  24.057  36.985   1.106
14785W        W80045  10.827  33.629   4.554
14786W        W80046  30.078  35.038  11.242
14787W        W80047   7.432   0.897  13.666
14788W        W80048   8.410  26.592  12.531
14789W        W80049  17.749  39.433   2.049
14790W        W80050  10.845  33.171  10.659
14791W        W80051  11.715  29.634  14.216
14792W        W80052  21.266  19.231  14.931
14793W        W80053  17.758  20.912   3.185
14794W        W80054  31.158  44.837   3.852
14795W        W80055  35.263  23.791  11.056
14796W        W80056   6.474   4.503   1.909
14797W        W80057  37.436  42.310   4.159
14798W        W80058  18.865  20.046  13.768
14799W        W80059   5.233  20.601  11.903
14800W        W80060  29.228  13.208  11.980
14801W        W80061  37.580  19.132   1.877
14802W        W80062  14.814   7.801  12.374
14803W        W80063   4.935  43.550   3.636
14804W        W80064  19.765  40.931   0.847
14805W        W80065  17.379  15.200  12.606
14806W        W80066  38.939  13.608   3.824
14807W        W80067  29.920  27.504  14.327
14808W        W80068   7.420   5.093  13.651
14809W        W80069   0.690   9.737  12.832
14810W        W80070  14.726   8.731  11.340
14811W        W80071   1.823  17.032   0.620
14812W        W80072  32.333  35.117  14.132
14813W        W80073   7.198  37.579  14.384
14814W        W80074   0.023  18.186  13.860
14815W        W80075  33.091  33.599  14.727
14816W        W80076   2.726  22.611   1.436
14817W        W80077  42.214  13.637   4.063
14818W        W80078  19.908  28.179  11.985
14819W        W80079  40.420  41.334  14.806
14820W        W80080  14.972  36.710   1.187
14821W        W80081   7.415  17.211  10.692
14822W        W80082  14.279  30.854   1.721
14823W        W80083  15.215  36.559   2.257
14824W        W80084  32.723  38.958   9.982
14825W        W80085  36.279  20.839  13.805
14826W        W80086  18.112  26.169   3.944
14827W        W80087  36.162  35.454  12.569
14828W        W80088  42.460  32.093  13.585
14829W        W80089  22.596  18.797  13.553
14830W        W80090  22.733  41.226  10.387
14831W        W80091   8.305  37.849   0.894
14832W        W80092  10.409  44.946   0.014
14833W        W80093   8.064  35.663   3.040
14834W        W80094  34.379  30.092   1.011
14835W        W80095   6.462   6.052   2.779
14836W        W80096  15.353  25.040   4.246
14837W        W80097  24.171  42.020   3.883
14838W        W80098   9.633   6.420   4.037
14839W        W80099   0.869  29.382  13.419
14840W        W80100   5.159  30.451  11.472
14841W        W80101  21.022  38.837   3.975
14842W        W80102  20.247   8.900  12.558
14843W        W80103  25.646  35.936   0.382
14844W        W80104  28.941  17.081  14.404
14845W        W80105  32.875   8.290  10.715
14846W        W80106  21.711  31.981  11.048
14847W        W80107  36.031  19.944   0.911
14848W        W80108  31.854  29.660  12.857
14849W        W80109   2.728  28.014   5.534
14850W        W80110  39.528  17.795   1.502
14851W        W80111  10.835  24.969   1.150
14852W        W80112  30.922  24.310  14.727
14853W        W80113  15.168   6.972   3.980
14854W        W80114  33.372  15.246  14.579
14855W        W80115   3.142  20.981  12.127
14856W        W80116   2.197  25.742  14.140
14857W        W80117  42.873  14.215  13.940
14858W        W80118   3.915  42.306  13.408
14859W        W80119  16.578  38.893   3.256
14860W        W80120  24.753  35.584  12.399
14861W        W80121   9.178   2.984   3.953
14862W        W80122  44.329  13.522  14.403
14863W        W80123   8.129  34.394   0.212
14864W        W80124  34.227  39.933  13.923
14865W        W80125  32.576  42.833   2.133
14866W        W80126   4.193   0.459  12.057
14867W        W80127   2.433  12.674  12.271
14868W        W80128  31.230  42.988  12.672
14869W        W80129  38.226   9.813  13.043
14870W        W80130  32.468  15.346  11.872
14871W        W80131  25.423  30.620  12.132
14872W        W80132  13.302  19.478  12.007
14873W        W80133  21.317  11.804   4.221
14874W        W80134   2.280  18.850   0.812
14875W        W80135  18.805  18.030  11.988
14876W        W80136  28.266   3.076   1.223
14877W        W80137   8.807   4.013  14.734
14878W        W80138  16.700  39.756   1.302
14879W        W80139  32.582  15.254   0.859
14880W        W80140  22.471   2.313   4.932
14881W        W80141  37.091   5.776   0.514
14882W        W80142   0.275  31.126   4.276
14883W        W80143  16.626  43.941   2.335
14884W        W80144   1.879  39.503  11.460
14885W        W80145   8.162  32.576   4.763
14886W        W80146   9.317  38.811   2.823
14887W        W80147   5.858  20.299   1.363
14888W        W80148   9.436   2.928   2.402
14889W        W80149  26.962  14.149   4.106
14890W        W80150  37.369  38.605  14.593
14891W        W80151  11.391  43.575  12.503
14892W        W80152   5.477  29.076  11.574
14893W        W80153   4.692  33.665   1.549
14894W        W80154  42.398   0.260   2.136
14895W        W80155  21.493  15.798  12.998
14896W        W80156  24.041   4.259   2.296
14897W        W80157   7.631  12.553  12.516
14898W        W80158   8.383   8.980   1.266
14899W        W80159  26.585  38.786  12.824
14900W        W80160   8.153  23.624  12.520
14901W        W80161  24.082   8.052  13.275
14902W        W80162  12.038  17.577   1.781
14903W        W80163  25.523  41.287   2.727
14904W        W80164  14.634  42.200   0.469
14905W        W80165  33.452  33.551   1.611
14906W        W80166  36.757  29.594  14.737
14907W        W80167  40.441  34.489   4.195
14908W        W80168  41.890  44.488   4.507
14909W        W80169  41.524  20.777  13.125
14910W        W80170  16.580  11.681   3.628
14911W        W80171  24.597   9.432  13.484
14912W        W80172  12.329  18.131   2.731
14913W        W80173  10.706   1.839   0.021
14914W        W80174  27.130  44.399   4.146
14915W        W80175  32.914   8.623  14.747
14916W        W80176  23.555  34.927   3.573
14917W        W80177   9.374   0.672  11.562
14918W        W80178  29.073  28.111   3.393
14919W        W80179  30.517  31.097  10.870
14920W        W80180  13.346  31.554  12.535
14921W        W80181  38.342  30.705  11.451
14922W        W80182  11.332   8.978   0.409
14923W        W80183   1.786  15.086  14.995
14924W        W80184  34.827  34.045  13.017
14925W        W80185   6.278  13.210   4.121
14926W        W80186  28.580  11.384   3.137
14927W        W80187  31.742  20.145  12.834
14928W        W80188  38.585  30.103   0.783
14929W        W80189  11.940  37.487   2.919
14930W        W80190  38.303  23.567   4.588
14931W        W80191   9.368   7.880   2.176
14932W        W80192  23.210  44.472   1.778
14933W        W80193  30.436  14.598  11.595
14934W        W80194  38.408  31.500  10.713
14935W        W80195  25.448  13.221  11.438
14936W        W80196   3.440  16.270  11.509
14937W        W80197  21.848  13.721  13.071
14938W        W80198  40.014  37.994  13.124
14939W        W80199  19.489   0.942  13.892
14940W        W80200  12.937  30.844   1.894
14941W        W80201  20.484  32.675  14.737
14942W        W80202  16.101  44.011   3.165
14943W        W80203  25.177  16.206   0.507
14944W        W80204  26.611  33.225   1.771
14945W        W80205  19.201  22.496  11.591
14946W        W80206  27.952  28.136   3.077
14947W        W80207   4.836  24.413   4.890
14948W        W80208  17.656  27.006  11.093
14949W        W80209  10.755   1.945   3.625
14950W        W80210   4.519  37.930  14.514
14951W        W80211  22.597  36.070  13.571
14952W        W80212  14.703  26.962   3.858
14953W        W80213  26.144   9.122   2.784
14954W        W80214  39.841  34.902   2.159
14955W        W80215  30.843  21.600   1.762
14956W        W80216  12.748  36.880   1.203
14957W        W80217  33.040  27.462   2.753
14958W        W80218  19.641  23.554  12.009
14959W        W80219   2.524  20.558  12.953
14960W        W80220  13.224  12.864  10.690
14961W        W80221   4.008  44.447   0.807
14962W        W80222  20.732   5.968   3.071
14963W        W80223  37.879  28.634   0.654
14964W        W80224  35.732   2.452   3.312
14965W        W80225   3.055  30.637   3.337
14966W        W80226  34.135  31.264  12.558
14967W        W80227  11.114  32.897   1.927
14968W        W80228  28.417   4.809  13.909
14969W        W80229   9.434  27.847  11.677
14970W        W80230  23.435   9.674  11.498
14971W        W80231  34.380   8.656  14.699
14972W        W80232  40.789  39.712   5.093
14973W        W80233  12.515  41.217   3.854
14974W        W80234   0.280   0.177   1.022
14975W        W80235  23.145  38.083   2.099
14976W        W80236  26.048  41.326   3.771
14977W        W80237  44.741   9.361   4.407
14978W        W80238  19.553  10.887   4.568
14979W        W80239  27.949  18.014   4.221
14980W        W80240   7.414  28.508   2.813
14981W        W80241  18.104  22.268  11.774
14982W        W80242  30.584  35.978  11.187
14983W        W80243  38.502  26.538  14.987
14984W        W80244  15.289   7.373  10.470
14985W        W80245  32.070  15.585  12.096
14986W        W80246  37.950  13.242  11.039
14987W        W80247  36.599  34.938  11.066
14988W        W80248  14.753  38.833   4.541
14989W        W80249   8.870  17.676   4.285
14990W        W80250   4.473   7.816   2.769
14991W        W80251  35.857  42.369   4.887
14992W        W80252   1.797  20.738   3.670
14993W        W80253  10.860  18.497   4.811
14994W        W80254  43.763  36.832   4.046
14995W        W80255  30.130  10.703  14.940
14996W        W80256  18.252  19.311  11.057
14997W        W80257  18.858  30.106   4.910
14998W        W80258  35.832  11.957  11.512
14999W        W80259  14.421   6.180  12.620
15000W        W80260   2.547  19.796   1.636
15001W        W80261   6.250   3.932  10.718
15002W        W80262  35.856  11.410   4.209
15003W        W80263   0.714  29.461   0.449
15004W        W80264  14.065  38.824  11.184
15005W        W80265  21.423  35.580   4.191
15006W        W80266  26.926   8.187  14.349
15007W        W80267   6.838  35.544  11.799
15008W        W80268  27.970   2.830  13.390
15009W        W80269  37.033  16.585   0.359
15010W        W80270  27.955  36.759  14.948
15011W        W80271  16.061  29.694  12.825
15012W        W80272  21.011   8.872  12.067
15013W        W80273  31.357   1.334   2.824
15014W        W80274  35.198  20.123  11.054
15015W        W80275  11.212  43.027   0.378
15016W        W80276  20.659  28.576  13.829
15017W        W80277  44.751  17.658  14.306
15018W        W80278  22.816   1.430   0.326
15019W        W80279  12.779  28.486  14.280
15020W        W80280   2.306  33.493  12.085
15021W        W80281  24.489   2.493  14.532
15022W        W80282   7.866  30.408   2.383
15023W        W80283  19.548  34.776  10.274
15024W        W80284   4.916  21.692  11.998
15025W        W80285  21.457  23.555   2.317
15026W        W80286  25.094   1.385   3.930
15027W        W80287  17.749  24.036  14.019
15028W        W80288  14.165  15.313  12.654
15029W        W80289  20.663   2.746  11.976
15030W        W80290  30.421  39.621  13.063
15031W        W80291  34.247  26.902   1.543
15032W        W80292   9.130   6.325   4.094
15033W        W80293  28.544  34.047  14.467
15034W        W80294   4.900   6.401  12.481
15035W        W80295   9.441   6.503   3.184
15036W        W80296  18.695  32.597   0.778
15037W        W80297   8.286   8.294  10.467
15038W        W80298  20.281  43.373  12.892
15039W        W80299  33.565   2.488  13.967
15040W        W80300  15.664  13.428  10.716
15041W        W80301  41.549  38.601  10.635
15042W        W80302   0.722  13.072   2.740
15043W        W80303   8.258   2.295   3.203
15044W        W80304   5.768  11.890   1.761
15045W        W80305  41.600   5.337  11.537
15046W        W80306   4.041  43.915   1.443
15047W        W80307   0.337  32.129   0.469
15048W        W80308  28.442  27.662  14.564
15049W        W80309  10.860  15.651  10.730
15050W        W80310  34.824   7.262  14.608
15051W        W80311  23.408   2.231   2.890
15052W        W80312  37.050  24.244  12.226
15053W        W80313  15.292  38.436   0.341
15054W        W80314  41.837   4.351  14.861
15055W        W80315   2.337  27.788   1.310
15056W        W80316   2.541  28.611  14.969
15057W        W80317   2.783   0.041  12.809
15058W        W80318  32.171   6.436  13.469
15059W        W80319  27.976   9.862   1.229
15060W        W80320  10.438  15.045   1.435
15061W        W80321  12.683  40.089   0.906
15062W        W80322  15.211  14.072  12.355
15063W        W80323  11.930  22.277  12.933
15064W        W80324  36.052  40.474   1.394
15065W        W80325  27.515  17.731  13.866
15066W        W80326   1.333  14.581   3.333
15067W        W80327  36.880   0.623  14.397
15068W        W80328  31.474  18.289   0.027
15069W        W80329  29.224  20.520   4.333
15070W        W80330  24.179  43.367   3.666
15071W        W80331   0.714  13.440   1.471
15072W        W80332  14.725  35.573   1.518
15073W        W80333  37.818  12.796   0.701
15074W        W80334  15.327  29.966   2.488
15075W        W80335   4.971  27.487  12.516
15076W        W80336  38.182  15.567   2.196
15077W        W80337  15.162  19.452   9.770
15078W        W80338   0.583  24.082  14.618
15079W        W80339   9.910  19.457   4.099
15080W        W80340  43.204  13.346  11.288
15081W        W80341  38.791  20.725  12.226
15082W        W80342  40.532  40.910   3.122
15083W        W80343  15.524  31.975   0.493
15084W        W80344  38.198  34.527  13.391
15085W        W80345   2.052  39.080   4.211
15086W        W80346  20.644  41.410  14.748
15087W        W80347  29.618  40.228   2.149
15088W        W80348  34.434  39.904   4.518
15089W        W80349  39.929  30.208  14.911
15090W        W80350   1.999   6.111  11.056
15091W        W80351   8.374  13.847  11.236
15092W        W80352   1.690  12.678   1.789
15093W        W80353  43.482  15.119  11.526
15094W        W80354  32.316  37.049   4.180
15095W        W80355  21.189  15.226   4.529
15096W        W80356  35.851  27.991  10.677
15097W        W80357   1.683  41.377  13.830
15098W        W80358  15.728  30.012   3.517
15099W        W80359  36.559  25.656   2.343
15100W        W80360  23.226  39.523  13.515
15101W        W80361   8.771   1.248  11.649
15102W        W80362  39.988  22.495  11.177
15103W        W80363  30.676  18.106  12.535
15104W        W80364   3.405  23.006   2.081
15105W        W80365  15.765  41.263   0.365
15106W        W80366  13.614  41.574   4.526
15107W        W80367  41.245  37.348  11.852
15108W        W80368  20.063   4.180  11.439
15109W        W80369   3.815   3.308  12.844
15110W        W80370  38.272  26.688  14.550
15111W        W80371  25.658  35.064  10.708
15112W        W80372  43.104  13.712  12.498
15113W        W80373  11.974  26.193   0.288
15114W        W80374  22.098   1.388  10.805
15115W        W80375  40.362  27.596   3.759
15116W        W80376   0.509  38.586  12.972
15117W        W80377  39.153  34.005  11.162
15118W        W80378   4.719  28.736  12.897
15119W        W80379   8.712  22.259  14.803
15120W        W80380  40.036  13.597   2.344
15121W        W80381  38.478  40.367  14.378
15122W        W80382  17.602   8.313   4.304
15123W        W80383  35.453  35.826   3.678
15124W        W80384  28.324  14.927  11.688
15125W        W80385  38.151  33.180  11.070
15126W        W80386  15.356   5.404  14.035
15127W        W80387  43.344   3.383   1.704
15128W        W80388   0.222  40.300   2.735
15129W        W80389  37.765  44.725  13.857
15130W        W80390   7.960  40.374  11.348
15131W        W80391  28.400   6.554  10.647
15132W        W80392   8.358  15.109   3.621
15133W        W80393  36.100  31.035  11.605
15134W        W80394  42.588   1.854   4.188
15135W        W80395   5.817  13.465   0.753
15136W        W80396  15.182   8.543  13.002
15137W        W80397  18.312  23.349  12.478
15138W        W80398  29.611   7.571   1.476
15139W        W80399  40.657  38.205  14.268
15140W        W80400  24.990  31.712  13.714
15141W        W80401  27.872  41.562  13.030
15142W        W80402  10.372  39.503  12.997
15143W        W80403  11.537  30.764   4.107
15144W        W80404  32.184  34.479  10.813
15145W        W80405  34.968  37.771   3.055
15146W        W80406  41.882  24.396  10.677
15147W        W80407  44.651  14.831   1.378
15148W        W80408  37.201  40.579  10.633
15149W        W80409   4.836   0.132  11.607
15150W        W80410  34.699  24.117   2.675
15151W        W80411  40.823   1.791  14.407
15152W        W80412  12.428   7.435   2.810
15153W        W80413  35.048   1.821  14.292
15154W        W80414  39.998  22.510   4.831
15155W        W80415  35.497  28.191  12.552
15156W        W80416  36.484  22.152   1.287
15157W        W80417  28.922   4.635   0.282
15158W        W80418  42.690  30.465  12.402
15159W        W80419  28.371  26.306   2.666
15160W        W80420  41.948   1.003  13.652
15161W        W80421  37.032   2.748  12.737
15162W        W80422   2.390   3.357  10.978
15163W        W80423  15.753  41.231  10.964
15164W        W80424   3.930  31.388  12.067
15165W        W80425  32.089  44.297  10.557
15166W        W80426  30.567  34.983   2.333
15167W        W80427  10.063  31.591  10.748
15168W        W80428   7.357  27.384  12.965
15169W        W80429   9.929  41.544  14.515
15170W        W80430  22.916  37.313  13.014
15171W        W80431   4.340  30.233   2.673
15172W        W80432  25.101  26.687   3.453
15173W        W80433  41.478  23.746   1.665
15174W        W80434  28.500   1.107   3.267
15175W        W80435  37.804  29.119   0.476
15176W        W80436  10.844  38.001  13.777
15177W        W80437  28.327  33.007   0.762
15178W        W80438  31.644  30.429   0.341
15179W        W80439  42.878  35.002   4.561
15180W        W80440  36.943  38.632   2.294
15181W        W80441  20.187  22.033  10.738
15182W        W80442  27.718  35.826   1.943
15183W        W80443  26.758  20.426  11.639
15184W        W80444  38.318  24.150  13.441
15185W        W80445   9.256  20.013  11.995
15186W        W80446  41.867  13.224  10.501
15187W        W80447  24.423  26.105   0.687
15188W        W80448  35.134  22.436   1.883
15189W        W80449  26.330   9.854   2.242
15190W        W80450  36.535  28.520  14.145
15191W        W80451  28.365   3.192  14.386
15192W        W80452   5.158  25.725   2.348
15193W        W80453  40.954  16.201   4.153
15194W        W80454  15.693  30.971   3.130
15195W        W80455  28.947  16.763  12.421
15196W        W80456   6.451  38.962   3.915
15197W        W80457  32.063  42.211  13.397
15198W        W80458  15.424  32.316   0.872
15199W        W80459  27.794  26.096   0.008
15200W        W80460  30.915  33.902   4.847
15201W        W80461  25.506  43.377   1.186
15202W        W80462  12.488  20.520  14.930
15203W        W80463  38.314   1.535   0.253
15204W        W80464   0.501  33.935   2.247
15205W        W80465  16.767  29.734  10.997
15206W        W80466  27.486  23.544   1.320
15207W        W80467  35.851  13.163   2.922
15208W        W80468   6.695  25.142  10.748
15209W        W80469  12.592  31.472   3.679
15210W        W80470   8.015   2.827  11.418
15211W        W80471  10.244  32.877   3.623
15212W        W80472  30.290  14.605  14.925
15213W        W80473  32.461   8.687  13.446
15214W        W80474   0.690   6.316  14.425
15215W        W80475  30.197  41.853   3.680
15216W        W80476  11.594  44.866   1.718
15217W        W80477   9.395  20.095  11.481
15218W        W80478  11.882  42.254  12.002
15219W        W80479  18.582   1.807  10.114
15220W        W80480  23.772  43.276   2.818
15221W        W80481  23.014  31.851  11.026
15222W        W80482  30.820  13.386  10.693
15223W        W80483  40.540   2.797  13.075
15224W        W80484  41.701  36.471  12.007
15225W        W80485  16.177  18.570  13.740
15226W        W80486  23.547  43.302  12.074
15227W        W80487  40.562  29.082  13.540
15228W        W80488  14.228  36.461  12.051
15229W        W80489  14.810  14.795   1.931
15230W        W80490   4.640  32.443   1.826
15231W        W80491   4.472  23.631   3.631
15232W        W80492   7.945   4.936   4.494
15233W        W80493  35.603  37.751   4.751
15234W        W80494  32.451   3.506  12.914
15235W        W80495  15.030  21.530   3.613
15236W        W80496  32.764  33.036   1.819
15237W        W80497   2.208  31.219   0.912
15238W        W80498  24.541  19.645  12.060
15239W        W80499  15.365  41.551  10.108
15240W        W80500  21.433  30.931   1.809
15241W        W80501  17.691  16.299   4.335
15242W        W80502  14.119  25.715   1.934
15243W        W80503  11.365   2.186  13.593
15244W        W80504   2.232   8.109   2.098
15245W        W80505  38.588  35.904   2.309
15246W        W80506  17.990  36.934  13.218
15247W        W80507  27.601  25.375   4.599
15248W        W80508  20.323  17.540   1.635
15249W        W80509  28.021  25.327  12.450
15250W        W80510  43.401  43.020  14.068
15251W        W80511  25.567   2.175   3.663
15252W        W80512  13.320  21.234   4.136
15253W        W80513  19.740  16.388   1.008
15254W        W80514   0.427  26.905   1.898
15255W        W80515  30.669  44.941  14.937
15256W        W80516  15.689   3.367   3.381
15257W        W80517  40.516  21.575   4.826
15258W        W80518  14.387   4.861   0.366
15259W        W80519   0.789  23.525  11.679
15260W        W80520  11.482  38.560   0.906
15261W        W80521  34.608   8.851  12.712
15262W        W80522  20.754  34.593   0.886
15263W        W80523  21.560  37.513  13.706
15264W        W80524  40.470  41.269   3.497
15265W        W80525  32.404  38.182  14.019
15266W        W80526  20.302  36.560  14.878
15267W        W80527  36.775  39.422  11.626
15268W        W80528  30.460  28.908   2.891
15269W        W80529  20.382  36.342   1.337
15270W        W80530  18.744  13.719  11.228
15271W        W80531  16.063   0.101   3.862
15272W        W80532   7.500  13.874  11.151
15273W        W80533  10.812  40.255   3.090
15274W        W80534  30.969  19.010  12.005
15275W        W80535  37.956  37.111   1.182
15276W        W80536  39.755   5.217  10.712
15277W        W80537  38.583  39.464  13.874
15278W        W80538  32.845  31.724  11.935
15279W        W80539  10.754  30.052  10.166
15280W        W80540  17.772  16.137  10.962
15281W        W80541  28.848  36.981   4.171
15282W        W80542  26.658  43.580  10.548
15283W        W80543   5.359  28.568   2.708
15284W        W80544  25.347   2.423   0.218
15285W        W80545   2.455  15.177  11.378
15286W        W80546  21.478  28.227   3.566
15287W        W80547  42.786  17.936   2.184
15288W        W80548   1.768   6.790   4.410
15289W        W80549  31.651  38.278   1.280
15290W        W80550  32.555  10.243   2.797
15291W        W80551   7.741   2.322  14.386
15292W        W80552   8.781  17.517  11.846
15293W        W80553  34.196  40.006  13.038
15294W        W80554  23.919  41.853   0.416
15295W        W80555   9.726  30.079  12.679
15296W        W80556  11.586  36.826   4.075
15297W        W80557  17.651  44.402  12.687
15298W        W80558  43.031   1.456   4.128
15299W        W80559  23.620   5.850  14.057
15300W        W80560   2.274  23.272   3.692
15301W        W80561  10.087  33.838  10.632
15302W        W80562  12.130   8.248  14.247
15303W        W80563  14.689   4.075   2.691
15304W        W80564   0.270  11.672  14.122
15305W        W80565   2.956  27.276   1.234
15306W        W80566  33.395  33.538  12.919
15307W        W80567   3.284  34.257   9.908
15308W        W80568  32.948  31.549   0.926
15309W        W80569   0.215  14.266  11.479
15310W        W80570   2.116  42.036  11.040
15311W        W80571  41.160   9.801   0.937
15312W        W80572  36.137  11.096   1.706
15313W        W80573  36.820  30.441   1.658
15314W        W80574   6.760  10.057  14.775
15315W        W80575  42.954  26.941   3.428
15316W        W80576  21.164  34.242  12.748
15317W        W80577  36.985  22.140  13.225
15318W        W80578  17.829  37.570  11.935
15319W        W80579  11.245  14.267  11.064
15320W        W80580  31.905  34.538   2.863
15321W        W80581   7.203  35.638   2.627
15322W        W80582   7.860  36.087  10.735
15323W        W80583  15.649  44.769  14.858
15324W        W80584  27.742  38.316  11.638
15325W        W80585  11.819   4.458   4.307
15326W        W80586  19.729  29.455  14.445
15327W        W80587  42.073  40.547  13.065
15328W        W80588   2.303  35.453   2.746
15329W        W80589  32.438  35.005  10.731
15330W        W80590   5.848  24.978  13.653
15331W        W80591  10.763  23.047  14.453
15332W        W80592   8.038  16.252  14.418
15333W        W80593  27.863  21.301  10.847
15334W        W80594  17.244  18.734  12.912
15335W        W80595  26.022   5.937  11.884
15336W        W80596  22.163  21.274  11.153
15337W        W80597   9.222  20.719   2.413
15338W        W80598  20.631  39.083  10.561
15339W        W80599  22.561  24.941  12.422
15340W        W80600  29.676  20.705   3.513
15341W        W80601   2.220  23.962  11.663
15342W        W80602   1.626   0.723   2.651
15343W        W80603  14.397  33.354   2.361
15344W        W80604  11.284  24.678  12.148
15345W        W80605   0.357  16.305   3.310
15346W        W80606  44.453  33.589  10.088
15347W        W80607   8.994  17.761  11.437
15348W        W80608   3.963   9.678   2.685
15349W        W80609  35.173  11.350  12.042
15350W        W80610  41.457   9.366  11.261
15351W        W80611  28.073   8.227  10.969
15352W        W80612  20.132  40.755   3.644
15353W        W80613  30.414  41.162  14.927
15354W        W80614  28.585  21.504  12.271
15355W        W80615  14.142  35.857   0.987
15356W        W80616  41.256   3.493   4.918
15357W        W80617  31.076   2.339   0.503
15358W        W80618  32.426   1.198   2.232
15359W        W80619   0.761  38.878   2.313
15360W        W80620  11.602  17.577  14.487
15361W        W80621  20.540  37.799  12.200
15362W        W80622  11.229  25.476  13.379
15363W        W80623   2.922  12.689   5.333
15364W        W80624  25.353  43.290  14.401
15365W        W80625  21.056  16.815  13.353
15366W        W80626  25.659   6.389   1.901
15367W        W80627  12.043  44.360  14.385
15368W        W80628  32.542   5.822   0.240
15369W        W80629  16.136  28.549  10.847
15370W        W80630   3.389  29.321  13.498
15371W        W80631  10.593  21.830   0.899
15372W        W80632   9.859  13.464  11.907
15373W        W80633  12.104  27.101  12.065
15374W        W80634  28.684   7.860  12.098
15375W        W80635  34.479  19.275  13.957
15376W        W80636  38.045  32.995   0.808
15377W        W80637  10.794   9.379  11.512
15378W        W80638  39.203  12.175  12.562
15379W        W80639  39.265  28.775  13.352
15380W        W80640  24.214  10.818   2.501
15381W        W80641  15.599  15.671  13.902
15382W        W80642   0.749  15.772  11.472
15383W        W80643  30.496   7.309   3.816
15384W        W80644  43.226  44.927  13.078
15385W        W80645   7.639  26.402   3.169
15386W        W80646   4.324  12.561  13.985
15387W        W80647  25.077   7.292  11.114
15388W        W80648  29.959  17.617  11.567
15389W        W80649  21.018  27.501   4.253
15390W        W80650  36.963  30.002   4.340
15391W        W80651  11.216  42.092   4.171
15392W        W80652  38.796  43.142   5.030
15393W        W80653  40.952  44.521  12.859
15394W        W80654  35.378  11.026  13.214
15395W        W80655  10.092  19.794   3.681
15396W        W80656  21.720  14.626   2.484
15397W        W80657  15.623  14.358   2.675
15398W        W80658  24.711  23.681  11.624
15399W        W80659  22.531  35.543  13.452
15400W        W80660  37.971  29.797  13.148
15401W        W80661  23.211  34.923   4.523
15402W        W80662   1.506   8.188  11.998
15403W        W80663  16.567  43.145  11.145
15404W        W80664  20.587  38.738  11.872
15405W        W80665   5.143   5.164  14.530
15406W        W80666  30.728  12.869  10.862
15407W        W80667  25.437  22.005   2.403
15408W        W80668   2.761  18.847   1.063
15409W        W80669  10.712  34.559  12.136
15410W        W80670  37.340  37.057  10.858
15411W        W80671  29.873  27.238   3.595
15412W        W80672  32.036  26.023  12.363
15413W        W80673  18.897  37.528   3.581
15414W        W80674  11.089  22.573   1.433
15415W        W80675  12.202   9.419   1.374
15416W        W80676  19.654   8.368  11.175
15417W        W80677   4.577  35.999  11.688
15418W        W80678   7.810  19.965   2.380
15419W        W80679  37.438  40.015  11.583
15420W        W80680  25.319  20.089   0.716
15421W        W80681  21.022  11.138  14.352
15422W        W80682  17.691  14.158   5.203
15423W        W80683   5.162  33.923  12.502
15424W        W80684  44.475  18.051  10.707
15425W        W80685  15.357   5.378   4.742
15426W        W80686  43.655  26.044  14.060
15427W        W80687  14.851  36.521   0.651
15428W        W80688  11.736  24.650  14.365
15429W        W80689  10.243  40.624   4.558
15430W        W80690  28.221  33.050  13.526
15431W        W80691  17.790  40.288   3.140
15432W        W80692   3.092  28.610  14.855
15433W        W80693  27.134  10.138   4.688
15434W        W80694   4.421   3.035   1.739
15435W        W80695  25.151  23.087  10.956
15436W        W80696  39.309  40.707  14.528
15437W        W80697  21.278  14.663   2.763
15438W        W80698  12.433   1.912   3.120
15439W        W80699   9.955  28.909  12.122
15440W        W80700   0.701   8.736  12.397
15441W        W80701  15.570  22.869  10.314
15442W        W80702  39.550  44.518  11.110
15443W        W80703  26.480  18.694   3.487
15444W        W80704  44.249  38.961   0.287
15445W        W80705  42.495   8.776   4.598
15446W        W80706  43.570  39.384   1.675
15447W        W80707  23.703   0.796  11.566
15448W        W80708  31.955  20.155  14.222
15449W        W80709  28.199  29.478  13.086
15450W        W80710  19.636  41.430  11.930
15451W        W80711   5.815  38.505   3.435
15452W        W80712  24.269  22.597   4.147
15453W        W80713   9.451  22.038  11.635
15454W        W80714  17.233  32.555  14.268
15455W        W80715  10.604  25.507  10.825
15456W        W80716  14.975  43.568   2.676
15457W        W80717  32.068  24.762  14.265
15458W        W80718   0.150  27.049  11.106
15459W        W80719   7.573  11.797   2.157
15460W        W80720   3.143   5.730   2.716
15461W        W80721  21.158  16.770  10.627
15462W        W80722  14.805  27.417   4.137
15463W        W80723   5.962  39.101   1.819
15464W        W80724  24.305  32.424   4.049
15465W        W80725  40.675  41.407   1.448
15466W        W80726  26.694  20.671   1.398
15467W        W80727  33.844  20.862   3.994
15468W        W80728   9.323  22.761   0.450
15469W        W80729  36.889  31.471   0.946
15470W        W80730  32.128   2.712  12.849
15471W        W80731  18.099  43.924   1.290
15472W        W80732  26.251  37.581   4.456
15473W        W80733   4.891  40.467   2.229
15474W        W80734   2.245  40.645   1.425
15475W        W80735  16.476  44.827   4.068
15476W        W80736  14.920  25.314   1.176
15477W        W80737  23.306  31.587  14.523
15478W        W80738   4.681  27.106  13.335
15479W        W80739   1.770  37.079  13.985
15480W        W80740  27.129   3.551  13.441
15481W        W80741  14.170  43.006  10.290
15482W        W80742  41.366   3.331   3.269
15483W        W80743   1.799   9.873  14.384
15484W        W80744   1.406  28.031  14.847
15485W        W80745  27.569  15.108  10.766
15486W        W80746  14.228  17.024   1.566
15487W        W80747  26.575  40.456  14.545
15488W        W80748   1.215  19.222  11.970
15489W        W80749  37.362   2.238   4.978
15490W        W80750   4.862   2.793   1.726
15491W        W80751  28.986  26.648  14.834
15492W        W80752  42.057  32.366   4.224
15493W        W80753  37.834  43.852  11.535
15494W        W80754  41.305  16.431   2.385
15495W        W80755  31.400  31.714  13.951
15496W        W80756  11.096   0.264   0.418
15497W        W80757  32.165  28.088   4.315
15498W        W80758  11.826   5.947   1.895
15499W        W80759  23.473  18.198   0.194
15500W        W80760  26.688  25.623   3.699
15501W        W80761  19.603  39.464   0.828
15502W        W80762  23.274  30.325  14.314
15503W        W80763  27.698  25.723  12.989
15504W        W80764  29.445  10.964  11.165
15505W        W80765  20.028  21.802  12.185
15506W        W80766   8.401   4.331  12.942
15507W        W80767   9.400  15.121  11.931
15508W        W80768  33.166  13.110  13.867
15509W        W80769  31.984  35.941   3.208
15510W        W80770  31.673  38.506   4.133
15511W        W80771  29.551  12.343  12.950
15512W        W80772   4.202  34.478  11.063
15513W        W80773   1.714   2.024   1.915
15514W        W80774  40.025  27.915  14.423
15515W        W80775   0.301  15.850   2.160
15516W        W80776  18.003  38.793   3.159
15517W        W80777   2.716  22.089   3.309
15518W        W80778  37.883  28.901  12.489
15519W        W80779   6.746  27.072  10.612
15520W        W80780   3.240  32.833   0.898
15521W        W80781  24.301  19.680  13.787
15522W        W80782  38.232   5.945  10.822
15523W        W80783   8.495   1.550  13.978
15524W        W80784  21.657   5.752  12.044
15525W        W80785   2.784  24.263  12.354
15526W        W80786  28.864   8.232  11.661
15527W        W80787  39.058  26.422   5.037
15528W        W80788  14.002  29.062  11.232
15529W        W80789  23.000  43.261  11.202
15530W        W80790  27.927   5.426  10.737
15531W        W80791  39.094  28.923  14.340
15532W        W80792  15.562   0.609  11.051
15533W        W80793  30.556  43.067   2.810
15534W        W80794  39.366   8.249   0.491
15535W        W80795  16.716  34.010  12.646
15536W        W80796  25.022  22.167  10.608
15537W        W80797  44.763  28.942   1.352
15538W        W80798  19.852  28.926   5.190
15539W        W80799  40.079   1.851  12.473
15540W        W80800  18.827  29.925   4.088
15541W        W80801  28.606   2.978  13.969
15542W        W80802  18.972   6.893  11.855
15543W        W80803  44.123  42.530   3.018
15544W        W80804   4.388  23.143   4.202
15545W        W80805  32.958  19.753  11.593
15546W        W80806   6.377  24.068  11.485
15547W        W80807  11.121  12.760  11.240
15548W        W80808   4.982   8.474   1.421
15549W        W80809  42.960  38.416   1.226
15550W        W80810  43.614   9.659   1.610
15551W        W80811  33.528  30.986   4.520
15552W        W80812  31.376  39.445  13.181
15553W        W80813  24.228   9.759   3.170
15554W        W80814  34.091  41.991   1.472
15555W        W80815  15.629   8.438  13.387
15556W        W80816  30.084  13.622   4.576
15557W        W80817  17.273  15.891   3.208
15558W        W80818   4.282  22.252  14.839
15559W        W80819  25.019  26.486  12.686
15560W        W80820  10.862  20.247   1.453
15561W        W80821  37.785  26.839  14.408
15562W        W80822  21.188  35.553  14.974
15563W        W80823  41.436  42.104   1.153
15564W        W80824  18.709  36.322  13.650
15565W        W80825  13.603   5.449  14.266
15566W        W80826  24.182   7.956   4.084
15567W        W80827  15.990  19.365  12.124
15568W        W80828  28.898  25.524   0.756
15569W        W80829  34.810   4.465  12.594
15570W        W80830  40.533  43.027   2.560
15571W        W80831   0.489  23.104  14.227
15572W        W80832  20.697   9.726   0.774
15573W        W80833  35.917  14.536  13.477
15574W        W80834  16.234  34.091   3.069
15575W        W80835  29.544  43.248   4.703
15576W        W80836   2.315  16.895  11.987
15577W        W80837  30.076  28.406  10.299
15578W        W80838   3.043  21.778  14.347
15579W        W80839  21.034   5.328   1.567
15580W        W80840  23.017  22.553  12.523
15581W        W80841  25.048  34.955   3.867
15582W        W80842  26.683  34.619   9.821
15583W        W80843   5.263  44.568   0.434
15584W        W80844  28.590  16.236   3.682
15585W        W80845  19.710  44.566   3.690
15586W        W80846  24.751  19.755   4.544
15587W        W80847  38.435  36.328   3.262
15588W        W80848  13.432  38.829   1.625
15589W        W80849  23.495  35.085   0.822
15590W        W80850   7.754  41.387   4.242
15591W        W80851   0.499   7.296   1.836
15592W        W80852   4.717  34.628   1.803
15593W        W80853  17.306   5.374   2.806
15594W        W80854  29.574  22.233  14.784
15595W        W80855  42.477  14.170   1.757
15596W        W80856  18.598  30.048   1.791
15597W        W80857   1.072  42.324  14.453
15598W        W80858  27.136  13.270  13.648
15599W        W80859   2.308  33.343   1.495
15600W        W80860  37.837  27.593   3.258
15601W        W80861   2.367  43.423   1.328
15602W        W80862  22.099  10.317  10.734
15603W        W80863  15.675  16.587   1.871
15604W        W80864  23.261   1.395   4.083
15605W        W80865  14.830  34.019   3.607
15606W        W80866  10.650  31.474  13.169
15607W        W80867  40.542  30.093  13.461
15608W        W80868  12.210  16.700   2.754
15609W        W80869   8.314  22.454  13.283
15610W        W80870  40.766  20.467   3.656
15611W        W80871  18.113  15.585   3.712
15612W        W80872  41.592  39.932  13.515
15613W        W80873  33.465   4.470   2.705
15614W        W80874  28.184  32.403   5.140
15615W        W80875   4.095   6.355  11.553
15616W        W80876   8.343  33.985   0.002
15617W        W80877  25.114  14.030  13.087
15618W        W80878  14.745  11.446  10.461
15619W        W80879   4.345  40.506  12.871
15620W        W80880  17.560  27.945   0.472
15621W        W80881   0.622  44.870  10.835
15622W        W80882   8.693  37.820  11.595
15623W        W80883  35.599  16.795   3.620
15624W        W80884  42.214  11.240   0.379
15625W        W80885  18.219  16.270  10.748
15626W        W80886  11.008   9.725  12.406
15627W        W80887  36.703   3.732   4.813
15628W        W80888  24.092  30.626  11.421
15629W        W80889  42.303  18.069  11.113
15630W        W80890  36.984  15.730  13.964
15631W        W80891  41.347  42.269   4.780
15632W        W80892  33.923  20.704   4.487
15633W        W80893  42.813  24.448   3.699
15634W        W80894  32.955  22.660  11.474
15635W        W80895  32.913  23.846  11.959
15636W        W80896  44.448   8.750   3.370
15637W        W80897  43.798  36.470   0.804
15638W        W80898  12.807  10.896  14.847
15639W        W80899  34.545  22.129   2.881
15640W        W80900  14.612   2.994   4.811
15641W        W80901  23.709  31.983   2.313
15642W        W80902  23.103  10.198  13.127
15643W        W80903  38.105  33.923  12.062
15644W        W80904  14.803  25.394   2.594
15645W        W80905   7.422  42.521   0.298
15646W        W80906  15.091  17.341  11.933
15647W        W80907  35.731  40.960   3.714
15648W        W80908   8.019  31.106  12.703
15649W        W80909  30.406  34.130   2.776
15650W        W80910  16.129  39.071   4.217
15651W        W80911  41.110   4.373   4.920
15652W        W80912  20.982   8.224  10.660
15653W        W80913  39.391  22.258  13.362
15654W        W80914  42.380  29.208  13.439
15655W        W80915  29.705  25.237   2.191
15656W        W80916  14.599   7.187   2.286
15657W        W80917  25.171  21.671   3.193
15658W        W80918  18.422  19.232   2.138
15659W        W80919  32.631  15.695  13.516
15660W        W80920  44.017  33.141  13.875
15661W        W80921  34.633  41.236  13.466
15662W        W80922  20.278  29.789   1.901
15663W        W80923  23.968   7.145   2.597
15664W        W80924  26.930  26.054  14.113
15665W        W80925  43.584  13.791   2.346
15666W        W80926  36.032  25.519   4.116
15667W        W80927  23.903  40.240   4.974
15668W        W80928  29.736  29.945  13.079
15669W        W80929  22.271  14.312   3.701
15670W        W80930  44.033   2.046   2.157
15671W        W80931  44.847  23.574   0.652
15672W        W80932  43.775  14.386  10.219
15673W        W80933   1.032  30.782  12.487
15674W        W80934  35.635  35.746   4.836
15675W        W80935  23.818  28.131   4.562
15676W        W80936  33.860  39.003  14.471
15677W        W80937   7.291  43.446   4.345
15678W        W80938  27.642  15.996  13.035
15679W        W80939  12.937  30.136  13.844
15680W        W80940  40.319  37.828   0.638
15681W        W80941  12.751  35.328   1.280
15682W        W80942  29.941  21.108  11.830
15683W        W80943   9.289  34.061  12.912
15684W        W80944  28.200  42.048  14.359
15685W        W80945  16.562  22.937   2.777
15686W        W80946   2.819  29.378  13.055
15687W        W80947  37.035  12.568   2.157
15688W        W80948  38.860  32.222   0.505
15689W        W80949  35.020   3.839  10.547
15690W        W80950  37.878  38.616  14.488
15691W        W80951  28.460  36.178  11.890
15692W        W80952  30.196  24.104   3.301
15693W        W80953  23.269   4.891   2.051
15694W        W80954  12.472  10.217   3.969
15695W        W80955  42.291  13.140   4.182
15696W        W80956  38.271  15.849  13.527
15697W        W80957  37.985   0.261   0.951
15698W        W80958   6.905  15.501   1.179
15699W        W80959  35.599  13.103  11.295
15700W        W80960  17.283   1.895   3.607
15701W        W80961  18.181  31.136  11.719
15702W        W80962  12.770  26.410   1.265
15703W        W80963  24.414   2.144   4.589
15704W        W80964  31.898  33.081  12.554
15705W        W80965  39.793   6.460  11.119
15706W        W80966  17.609  11.356   0.874
15707W        W80967  10.812   4.975   2.523
15708W        W80968  25.299  10.878  11.843
15709W        W80969  30.413  38.925   0.859
15710W        W80970  15.625  17.503  14.411
15711W        W80971  31.855  11.509   5.073
15712W        W80972  26.341  20.369  12.029
15713W        W80973  37.360   1.878   4.084
15714W        W80974  23.609  12.680  13.402
15715W        W80975  32.592  29.933  10.470
15716W        W80976  43.567   1.664  13.387
15717W        W80977  26.876  14.945  11.541
15718W        W80978  30.082  43.482   1.754
15719W        W80979  22.112  28.446  14.317
15720W        W80980  43.538   1.683   4.071
15721W        W80981  15.904   6.189   0.015
15722W        W80982  34.198  24.589   4.879
15723W        W80983  36.421  43.319   1.786
15724W        W80984  34.670  38.611   0.827
15725W        W80985  42.481   9.511   0.676
15726W        W80986  23.176  31.749  13.400
15727W        W80987  26.494  28.032  10.704
15728W        W80988   4.902  19.662   0.949
15729W        W80989  20.166   8.809   0.612
15730W        W80990  14.343  38.344   3.039
15731W        W80991  16.998  15.066  10.776
15732W        W80992  12.252  44.561   1.902
15733W        W80993   1.478  21.051  10.201
15734W        W80994  30.925   0.668  11.109
15735W        W80995  42.558  44.813   1.922
15736W        W80996  44.398  41.555  14.350
15737W        W80997  29.054  31.074  10.655
15738W        W80998  40.306  25.664   3.358
15739W        W80999   0.376  18.045   4.092
15740W        W81000  27.423   4.254  12.311
15741W        W81001  34.420  20.231  13.542
15742W        W81002  21.439  10.864   3.921
15743W        W81003  32.081   2.366   0.647
15744W        W81004  27.233  25.667   1.278
15745W        W81005  43.738  38.464   2.834
15746W        W81006  35.131  15.740   1.391
15747W        W81007  30.040  10.322   2.416
15748W        W81008  11.444  20.194  14.441
15749W        W81009  31.686   4.781  12.939
15750W        W81010  33.437  29.497   1.665
15751W        W81011  29.612  17.925   3.763
15752W        W81012  36.087   0.744   0.020
15753W        W81013  13.135  40.868  14.511
15754W        W81014  32.046   9.709   2.227
15755W        W81015   3.434  19.113  14.507
15756W        W81016  37.546  15.044  13.463
15757W        W81017   8.370  21.218  13.349
15758W        W81018   8.774   6.404   2.265
15759W        W81019   9.923   4.193   3.913
15760W        W81020  40.985  14.318  13.414
15761W        W81021  18.690  31.750   1.378
15762W        W81022  43.752  18.441   1.386
15763W        W81023   0.429  28.424   0.895
15764W        W81024  13.579  29.875  11.525
15765W        W81025  17.765  36.388   3.831
15766W        W81026  42.024  28.795  13.518
15767W        W81027  35.528  14.170  13.363
15768W        W81028  36.489  29.485  13.558
15769W        W81029  32.394  36.954  12.538
15770W        W81030  23.135  36.660  11.230
15771W        W81031  29.436  33.533   3.027
15772W        W81032   6.357  23.174  11.433
15773W        W81033  27.533   1.524  11.624
15774W        W81034  34.854   4.737  14.338
15775W        W81035  43.872  43.264  14.064
15776W        W81036   0.324  24.018  12.271
15777W        W81037  20.716  30.227   2.798
15778W        W81038  38.362   1.161   1.061
15779W        W81039  27.429  31.502  13.015
15780W        W81040  15.465   1.506  14.943
15781W        W81041  22.276  28.525  13.466
15782W        W81042  38.442  19.645   1.765
15783W        W81043   1.265  17.775  11.442
15784W        W81044  39.476  30.507  14.845
15785W        W81045  30.651  30.137  10.436
15786W        W81046  12.291  22.911  14.366
15787W        W81047  15.862  31.156   2.700
15788W        W81048   6.180  22.143   3.345
15789W        W81049  30.898  11.678   2.767
15790W        W81050   1.438  41.490   0.534
15791W        W81051  41.048  11.558   2.302
15792W        W81052  42.015  42.723  14.962
15793W        W81053  16.505  25.078   2.258
15794W        W81054  44.636  36.216  12.017
15795W        W81055  11.098  27.697   1.828
15796W        W81056   1.404  40.565   3.673
15797W        W81057  16.652  41.506   2.862
15798W        W81058   7.868  11.674   1.312
15799W        W81059   9.895  12.392  10.954
15800W        W81060  43.522  38.881   1.849
15801W        W81061  38.062  26.546   4.706
15802W        W81062  33.863  43.969   0.077
15803W        W81063   6.819   9.869   4.024
15804W        W81064  31.475  20.897  12.018
15805W        W81065   4.669  32.411  12.613
15806W        W81066  25.410  26.453  11.014
15807W        W81067   3.697  34.487  10.146
15808W        W81068  29.060  14.343   3.578
15809W        W81069  32.658  28.473  13.415
15810W        W81070  22.206  15.640  13.284
15811W        W81071  16.985   2.883   4.928
15812W        W81072  34.697   2.887  10.973
15813W        W81073   6.712  27.041   4.498
15814W        W81074  39.496  12.355  12.189
15815W        W81075  34.312  18.608   2.774
15816W        W81076  39.559  41.358  12.754
15817W        W81077   9.631  43.292   4.527
15818W        W81078   9.646  21.569   3.142
15819W        W81079  43.925  34.340  11.056
15820W        W81080  15.055  35.157   0.124
15821W        W81081  17.419  35.483  12.333
15822W        W81082  28.954  41.313  12.117
15823W        W81083  28.922  41.911  11.060
15824W        W81084  44.024  14.715   2.200
15825W        W81085  12.431  28.573   4.662
15826W        W81086  13.710  41.333  13.829
15827W        W81087   6.658  21.981   3.663
15828W        W81088  20.345  17.015  14.156
15829W        W81089  38.128   6.764  11.991
15830W        W81090  24.614  41.782  11.291
15831W        W81091   1.144  41.164   2.263
15832W        W81092  22.550  27.155   3.320
15833W        W81093  35.933  41.445  12.348
15834W        W81094  25.229  29.386   0.054
15835W        W81095  32.655  18.208  13.430
15836W        W81096  15.203  26.334  10.645
15837W        W81097  32.621  19.482   2.964
15838W        W81098   9.419  41.188  11.469
15839W        W81099  33.685  14.826   0.463
15840W        W81100   8.218   9.115  11.939
15841W        W81101  14.603  43.305   2.911
15842W        W81102   4.892  43.717  13.985
15843W        W81103  40.417  39.406  13.440
15844W        W81104   2.081  36.618  14.606
15845W        W81105   0.864  25.601  11.823
15846W        W81106  37.013  16.159   4.495
15847W        W81107  18.305  20.735   1.705
15848W        W81108  35.051  26.230   4.604
15849W        W81109   6.016  19.044   2.716
15850W        W81110  44.081  31.110  14.481
15851W        W81111  13.609  44.851   4.896
15852W        W81112   2.704  15.615   1.581
15853W        W81113  24.704  42.986   2.137
15854W        W81114  15.836  29.610  14.782
15855W        W81115  39.393  39.907  14.489
15856W        W81116  18.754   5.797   4.137
15857W        W81117  24.749  28.703  13.394
15858W        W81118  14.829   0.149  11.001
15859W        W81119   8.381  15.682   0.007
15860W        W81120  11.228  23.469   1.276
15861W        W81121  22.223  27.464   1.051
15862W        W81122  30.616  23.160  13.370
15863W        W81123  17.806  17.464  14.386
15864W        W81124   7.379  25.426  12.909
15865W        W81125  29.141  22.473  12.543
15866W        W81126  39.585  31.025   2.379
15867W        W81127  25.462  33.548  11.102
15868W        W81128  42.314  31.712  14.436
15869W        W81129  28.410  43.925  13.349
15870W        W81130  39.174  23.392   0.434
15871W        W81131  23.269   2.207   3.748
15872W        W81132  30.627  31.949  13.542
15873W        W81133   5.471  21.761  11.838
15874W        W81134  21.292  39.314  13.502
15875W        W81135  23.333  38.794  14.764
15876W        W81136  23.019   4.838   1.174
15877W        W81137   2.237  10.884   4.211
15878W        W81138   8.726  28.605   0.315
15879W        W81139  21.295  32.690  12.317
15880W        W81140  27.834  21.069   3.714
15881W        W81141  29.824  28.613  10.731
15882W        W81142   1.674  38.828  13.823
15883W        W81143  12.282  25.191   4.662
15884W        W81144  12.264  14.304   2.802
15885W        W81145  27.530  40.368   3.830
15886W        W81146  23.668   7.744   2.855
15887W        W81147   6.325  43.367  13.136
15888W        W81148  31.629  11.841  14.362
15889W        W81149  21.236  10.930  13.883
15890W        W81150   5.885  10.788  11.548
15891W        W81151  11.066  40.101  13.969
15892W        W81152   4.944  35.910  14.958
15893W        W81153   5.675  39.945   0.738
15894W        W81154  21.658   4.870   0.995
15895W        W81155   6.721  13.703   1.926
15896W        W81156   4.479   2.842   4.517
15897W        W81157  14.546  34.648  14.943
15898W        W81158  23.636  30.397  12.483
15899W        W81159  34.514  35.271   0.515
15900W        W81160   8.628  21.356  14.955
15901W        W81161  21.361  11.941  14.017
15902W        W81162  43.110   6.427  11.613
15903W        W81163   1.598  23.069  10.766
15904W        W81164   1.510   8.248  13.963
15905W        W81165   8.704  14.734   3.351
15906W        W81166  26.609  36.531   2.350
15907W        W81167  16.524  14.317  10.784
15908W        W81168  43.894   3.822  14.421
15909W        W81169  27.126  43.531   0.775
15910W        W81170  23.013  30.788   3.150
15911W        W81171  12.715  22.884   3.410
15912W        W81172  33.310   3.437   2.689
15913W        W81173   4.954  36.577  11.206
15914W        W81174  27.897   1.504  11.263
15915W        W81175  20.699   2.437  10.939
15916W        W81176  37.499   9.361  12.476
15917W        W81177  22.520  23.034   0.744
15918W        W81178  26.098  20.722   4.923
15919W        W81179   3.129  35.945  13.211
15920W        W81180  29.578  21.312  10.147
15921W        W81181   1.357  12.250  12.305
15922W        W81182  14.025  18.750  12.470
15923W        W81183  29.343  42.519   1.283
15924W        W81184  22.478  31.681   4.235
15925W        W81185  35.885  11.832   4.539
15926W        W81186  30.388   7.770   4.022
15927W        W81187  35.626  18.765  11.220
15928W        W81188   4.630  28.774  13.999
15929W        W81189  29.473  40.618   0.841
15930W        W81190  17.797  35.954  13.024
15931W        W81191  37.919  43.405  13.813
15932W        W81192  43.391  38.259   2.004
15933W        W81193  44.742  31.667  13.535
15934W        W81194  44.462  21.719   3.628
15935W        W81195  38.464  30.602   0.098
15936W        W81196  43.223  42.997   1.227
15937W        W81197  24.728  16.047   4.193
15938W        W81198  12.929  39.396  11.507
15939W        W81199   1.569  38.467   3.577
15940W        W81200  36.052  17.808  12.491
15941W        W81201  32.952  44.283  13.545
15942W        W81202  11.080   9.803  11.584
15943W        W81203  39.426  26.624   1.390
15944W        W81204   9.337  27.638  14.099
15945W        W81205  35.807  13.711   1.665
15946W        W81206  38.790  26.134  14.836
15947W        W81207  24.300  44.389   5.163
15948W        W81208  42.364   0.901  14.532
15949W        W81209   2.448  20.669   1.619
15950W        W81210  38.547  30.942   2.202
15951W        W81211   3.483  17.205  11.596
15952W        W81212  37.862  24.041   0.890
15953W        W81213  40.586  14.597   0.568
15954W        W81214   5.505   0.192  11.720
15955W        W81215   3.725  28.561   3.387
15956W        W81216  26.187  24.991  12.552
15957W        W81217  40.023  41.649  13.875
15958W        W81218  43.203   6.864   2.031
15959W        W81219  30.615  38.068   3.785
15960W        W81220  26.198  25.447  10.796
15961W        W81221  28.758  33.934  14.935
15962W        W81222   0.029  10.552  12.924
15963W        W81223  42.158  15.916  12.934
15964W        W81224  12.284   6.723   0.900
15965W        W81225   5.356  30.190   1.219
15966W        W81226  27.889  22.434  14.938
15967W        W81227  11.132   9.388  11.104
15968W        W81228  32.084  12.389  14.821
15969W        W81229  21.247  41.540  11.879
15970W        W81230  25.719  37.920   0.293
15971W        W81231  20.273  21.579  11.790
15972W        W81232  43.534  29.999   2.289
15973W        W81233  31.083  36.600  10.796
15974W        W81234  28.817  20.974   2.882
15975W        W81235   3.919  19.221   2.503
15976W        W81236  37.095  15.327  12.600
15977W        W81237  30.071  14.524   0.919
15978W        W81238  27.275  25.905  14.972
15979W        W81239  12.767  33.552  12.547
15980W        W81240   8.568  16.353  11.747
15981W        W81241  21.569  10.730   1.388
15982W        W81242  37.872   6.928  12.528
15983W        W81243  20.825  36.366  12.610
15984W        W81244  27.973  41.260   0.461
15985W        W81245   4.751  37.595   4.182
15986W        W81246  32.244  20.810   3.285
15987W        W81247  43.813  43.338   4.104
15988W        W81248   8.095  37.925  10.837
15989W        W81249  11.455  14.110   3.109
15990W        W81250  40.672  12.026  13.349
15991W        W81251   9.848  15.005  13.867
15992W        W81252  39.249  14.307   4.568
15993W        W81253  14.308  23.469  12.991
15994W        W81254  23.699  24.824  11.159
15995W        W81255   0.823  26.620  10.353
15996W        W81256  26.720   7.792  13.596
15997W        W81257  10.242  41.294   2.445
15998W        W81258  30.306  36.457  12.121
15999W        W81259   9.029  36.457  13.893
16000W        W81260  16.288   4.811   0.907
16001W        W81261  26.102   2.736   1.432
16002W        W81262  26.121  36.509   4.517
16003W        W81263   4.986  11.774   3.192
16004W        W81264   4.883  31.321  13.516
16005W        W81265  10.741  17.393  11.299
16006W        W81266  30.902  21.083   9.887
16007W        W81267  41.473  27.100  12.501
16008W        W81268   6.900  12.379   3.893
16009W        W81269  42.292  41.518  14.723
16010W        W81270  37.773  34.341  11.989
16011W        W81271  33.825  32.570  13.035
16012W        W81272  18.219  23.126  12.031
16013W        W81273  22.089   0.413  13.637
16014W        W81274  19.338  21.464  14.275
16015W        W81275  15.243   1.957  14.209
16016W        W81276   9.960   9.579   2.981
16017W        W81277  10.741  38.937   4.383
16018W        W81278  28.100  31.992  13.481
16019W        W81279  19.890   5.772  12.036
16020W        W81280  16.085  32.466   2.877
16021W        W81281   0.982   5.729   1.669
16022W        W81282  13.633  22.288  13.968
16023W        W81283   5.865  19.216   5.058
16024W        W81284  30.708  31.124  12.487
16025W        W81285  25.731  34.465   1.287
16026W        W81286  17.303  31.048   3.627
16027W        W81287  42.029  37.625  11.197
16028W        W81288   5.750  19.931  11.964
16029W        W81289   0.743  35.842   1.363
16030W        W81290  44.878  40.074  12.393
16031W        W81291  32.839  33.881  11.389
16032W        W81292   7.697  22.648  14.037
16033W        W81293  28.923  16.641   3.692
16034W        W81294  33.355   2.793  12.332
16035W        W81295  31.193  39.317  12.712
16036W        W81296  44.021   9.866   4.720
16037W        W81297  38.992  18.798   0.398
16038W        W81298  33.312  41.883  11.908
16039W        W81299  33.124  42.388   1.331
16040W        W81300  25.984  23.839   0.398
16041W        W81301  29.908  44.404  14.229
16042W        W81302  14.763  25.890   2.729
16043W        W81303  30.296  23.902  12.961
16044W        W81304  26.109  26.469   0.982
16045W        W81305  42.810  14.197  12.523
16046W        W81306   0.037  31.586  13.974
16047W        W81307   2.426   3.247   1.246
16048W        W81308  38.531  27.427  14.451
16049W        W81309  10.932  30.693  13.550
16050W        W81310  22.693  41.370  14.003
16051W        W81311   5.046  37.291  14.329
16052W        W81312  30.449  29.260   3.333
16053W        W81313   4.851  26.629  10.962
16054W        W81314   5.806   5.322   0.536
16055W        W81315  44.050  37.527   1.480
16056W        W81316  20.108   1.494  11.986
16057W        W81317  17.893  30.854   0.658
16058W        W81318  17.139  30.580   1.732
16059W        W81319  11.899  42.995  12.903
16060W        W81320  15.678  16.684  13.493
16061W        W81321  16.175   9.676   4.366
16062W        W81322  15.926   9.670   3.868
16063W        W81323  17.996  36.576   1.676
16064W        W81324   5.459   1.789   4.565
16065W        W81325   5.728  13.291   2.732
16066W        W81326  39.306   3.980  12.904
16067W        W81327   7.906  35.939   1.665
16068W        W81328  42.819  44.490  11.934
16069W        W81329   7.907  36.140  13.877
16070W        W81330  44.753  27.695  10.690
16071W        W81331  11.187  19.713   2.044
16072W        W81332  30.082  14.651  11.224
16073W        W81333  16.333  21.117   0.045
16074W        W81334  43.093  34.364   1.095
16075W        W81335  42.819  44.254   4.051
16076W        W81336  27.169  11.130  11.592
16077W        W81337   3.017  42.085   1.261
16078W        W81338   8.723  20.599   0.420
16079W        W81339   0.762   2.189  10.382
16080W        W81340  30.454  28.434   3.761
16081W        W81341  35.780  24.239   3.714
16082W        W81342  15.608  39.260   2.217
16083W        W81343  20.172  40.939  14.266
16084W        W81344  12.122  23.378   2.679
16085W        W81345  19.952   3.613  10.620
16086W        W81346   3.712  18.107  13.056
16087W        W81347  35.349  26.528   4.948
16088W        W81348  30.732  30.656  11.117
16089W        W81349  21.455  16.176   3.144
16090W        W81350  39.410  27.540  14.494
16091W        W81351  24.095  17.652  13.902
16092W        W81352   6.808   6.306   3.994
16093W        W81353  24.569   6.653  12.318
16094W        W81354  13.986  10.265   2.351
16095W        W81355  29.601  22.044   0.838
16096W        W81356  15.725   1.226  12.012
16097W        W81357  44.051  11.996   0.641
16098W        W81358  25.658   0.967   1.253
16099W        W81359  23.597   7.265   4.291
16100W        W81360  24.258  34.864  12.063
16101W        W81361  22.124  42.506   2.745
16102W        W81362  16.737  20.538   0.850
16103W        W81363  23.773  22.114  12.564
16104W        W81364  36.653  16.282  12.926
16105W        W81365  28.208  32.646   0.377
16106W        W81366  15.322  12.946  13.034
16107W        W81367  25.092   2.652  12.843
16108W        W81368   9.577   5.274  11.987
16109W        W81369  27.152  23.924  10.322
16110W        W81370  15.872  20.283   0.025
16111W        W81371  31.867  21.634  12.299
16112W        W81372  17.916  28.888  12.130
16113W        W81373  43.247  40.882  14.512
16114W        W81374  17.132  11.688   4.184
16115W        W81375   6.176  20.682  12.137
16116W        W81376  26.648  39.865   4.494
16117W        W81377  32.315  22.069  14.030
16118W        W81378  41.408  29.816   4.685
16119W        W81379  16.978  27.906  14.596
16120W        W81380  25.472  36.007   2.380
16121W        W81381  12.454  22.624   3.813
16122W        W81382   0.934  39.144   0.838
16123W        W81383  30.150  26.141   2.171
16124W        W81384  13.575  33.999  12.627
16125W        W81385  14.608  23.438   2.888
16126W        W81386  36.387  26.877  13.584
16127W        W81387  16.393  38.106  11.682
16128W        W81388  13.886  37.412   4.493
16129W        W81389  20.941   1.235  11.453
16130W        W81390  24.076   6.332  14.598
16131W        W81391  44.717  24.460  12.856
16132W        W81392  10.132  11.520  13.119
16133W        W81393  33.803  27.179  12.082
16134W        W81394  39.952  33.200  12.156
16135W        W81395   1.507   9.231  12.030
16136W        W81396   0.321   5.621   2.896
16137W        W81397  37.363  14.704  12.311
16138W        W81398  12.751  42.012   0.273
16139W        W81399  35.527   9.443   2.650
16140W        W81400  18.832  44.130  12.947
16141W        W81401  42.709  29.398   0.799
16142W        W81402  15.304  26.435   4.702
16143W        W81403  22.444   9.338   1.836
16144W        W81404  43.966  20.773  13.503
16145W        W81405  41.709  38.288   0.988
16146W        W81406  18.332   8.829  11.146
16147W        W81407   5.727  31.164  13.096
16148W        W81408  23.084  14.525   0.780
16149W        W81409  41.410  12.758  14.293
16150W        W81410   0.801  25.186  12.626
16151W        W81411  31.184  37.563  14.888
16152W        W81412   3.658  34.346   0.974
16153W        W81413  24.086  38.759   1.863
16154W        W81414  40.304  37.679   3.532
16155W        W81415  42.637  30.975  14.802
16156W        W81416  28.086   0.337  11.372
16157W        W81417  41.917   8.493  12.998
16158W        W81418  28.558  44.599  14.020
16159W        W81419   3.760   8.843  13.807
16160W        W81420  27.144   4.952  14.017
16161W        W81421  39.301  32.643   2.407
16162W        W81422  12.423   7.475   3.591
16163W        W81423  38.030  34.157   1.418
16164W        W81424  16.052  39.859   4.156
16165W        W81425  43.522  36.933   2.711
16166W        W81426   3.845  22.504  12.371
16167W        W81427  27.086  14.237  13.830
16168W        W81428  10.460   1.398   3.185
16169W        W81429  21.062  15.201  11.473
16170W        W81430  11.800   7.198  14.877
16171W        W81431  43.535  23.228  10.985
16172W        W81432   3.752   9.816   3.144
16173W        W81433  30.467   9.200  11.129
16174W        W81434  28.118  36.267   1.310
16175W        W81435  19.688  31.508  12.231
16176W        W81436  41.541  44.891  13.268
16177W        W81437  39.771  42.888   4.093
16178W        W81438  41.693   9.822  12.624
16179W        W81439  12.596  11.273   0.624
16180W        W81440  14.407  41.360   1.395
16181W        W81441  33.621  11.096   0.367
16182W        W81442  20.509  24.561  14.017
16183W        W81443  24.381  20.009   2.318
16184W        W81444  27.742  19.275   4.560
16185W        W81445  25.068  17.237   5.378
16186W        W81446   7.419   0.982   3.171
16187W        W81447  20.108  12.286  14.177
16188W        W81448  21.695  34.585  12.991
16189W        W81449  40.154  38.525  10.713
16190W        W81450  23.028  33.308   1.758
16191W        W81451  27.665  17.121  11.551
16192W        W81452  40.434  28.427   1.763
16193W        W81453  38.891  14.563   3.337
16194W        W81454   2.296  14.317  12.440
16195W        W81455  33.147  38.008  14.597
16196W        W81456  24.610  20.250  12.410
16197W        W81457  43.655  43.379  12.889
16198W        W81458  39.531  28.835   1.530
16199W        W81459  41.251  31.133   3.743
16200W        W81460  10.218  17.162  14.120
16201W        W81461  43.253  13.191   3.281
16202W        W81462  42.914  42.744  12.485
16203W        W81463  28.548  33.107   2.595
16204W        W81464   4.918  43.897   3.269
16205W        W81465  30.553  14.934  11.191
16206W        W81466  43.773  33.567  14.684
16207W        W81467  35.703  26.765   4.093
16208W        W81468  16.060  21.196   3.050
16209W        W81469   7.557   1.410  14.481
16210W        W81470  19.064  21.945  11.608
16211W        W81471  40.008  16.049  14.739
16212W        W81472  26.070  17.257   3.317
16213W        W81473   8.223   3.859  12.943
16214W        W81474  42.278   9.595  14.549
16215W        W81475  13.266   9.141  12.141
16216W        W81476   9.811  43.329   3.519
16217W        W81477  44.871  19.579   2.759
16218W        W81478  40.559  28.348   0.596
16219W        W81479  41.712  15.460   0.731
16220W        W81480  26.397   7.799   4.367
16221W        W81481  43.770  13.198   4.705
16222W        W81482  29.921   3.128   1.826
16223W        W81483   8.345  10.542   3.448
16224W        W81484  39.748  35.695   0.509
16225W        W81485   9.160  40.187  14.510
16226W        W81486  28.360  19.306   1.644
16227W        W81487  32.633  21.290   0.714
16228W        W81488   1.052  10.706   3.544
16229W        W81489  22.215  18.736  12.782
16230W        W81490   2.783  39.351  12.551
16231W        W81491  36.708  38.616  13.991
16232W        W81492  12.977  36.227   3.583
16233W        W81493  10.545  22.794  12.076
16234W        W81494   1.850  16.215  10.414
16235W        W81495  16.009  44.891   4.332
16236W        W81496   8.083   2.608  12.134
16237W        W81497  39.255  23.592   4.258
16238W        W81498  25.994  44.345  13.335
16239W        W81499  16.129  19.760   0.805
16240W        W81500  21.703  44.122   0.321
16241W        W81501  25.632  17.128   5.065
16242W        W81502  37.582   0.640  12.081
16243W        W81503  36.046  23.126   0.430
16244W        W81504  40.370   7.743  13.818
16245W        W81505  19.109  36.880  10.753
16246W        W81506   3.369  40.604   2.352
16247W        W81507  27.490  38.480  10.634
16248W        W81508  38.088  40.638   2.122
16249W        W81509  20.237  18.200  11.723
16250W        W81510   1.872  26.237  13.565
16251W        W81511   4.723  37.722  10.933
16252W        W81512   8.346  44.845   2.742
16253W        W81513  39.028  19.128   1.275
16254W        W81514  25.253  24.888  11.184
16255W        W81515   3.433   0.837   0.272
16256W        W81516   7.897  44.275   1.635
16257W        W81517  44.417  24.127  11.637
16258W        W81518   5.298  14.214  14.365
16259W        W81519  19.643  21.683   1.380
16260W        W81520   5.692  16.621   0.424
16261W        W81521  38.920  24.195   2.823
16262W        W81522  43.571   9.542   2.878
16263W        W81523  14.168  33.397   0.706
16264W        W81524  36.006  22.548   1.726
16265W        W81525  14.305  29.894   3.464
16266W        W81526  41.593  22.897  13.526
16267W        W81527   2.566   9.777   4.602
16268W        W81528  17.053  24.001   2.360
16269W        W81529  25.173  40.934  14.706
16270W        W81530  14.071  22.549   2.778
16271W        W81531   2.065  29.229   4.195
16272W        W81532  36.659   0.210   4.030
16273W        W81533  20.543  31.278  11.381
16274W        W81534  44.040  42.275   2.155
16275W        W81535  44.301  31.126  11.792
16276W        W81536  26.059  38.099  11.828
16277W        W81537  26.525   7.198   0.833
16278W        W81538  14.241  11.327  13.293
16279W        W81539  41.965   3.849  14.792
16280W        W81540   5.849  17.626  11.557
16281W        W81541   6.367  42.499   4.127
16282W        W81542  28.001  17.303  13.521
16283W        W81543  39.333  24.028   3.102
16284W        W81544   4.732  43.584  11.568
16285W        W81545  32.185   9.470   0.990
16286W        W81546  43.211  36.514   3.656
16287W        W81547  27.037  19.621  10.036
16288W        W81548  11.711  39.472   4.129
16289W        W81549   8.773  35.978   3.237
16290W        W81550  37.728  22.024  12.125
16291W        W81551  20.722  44.798   4.294
16292W        W81552  39.798  39.062  12.435
16293W        W81553  40.888  41.566   3.691
16294W        W81554   2.288  12.772  10.273
16295W        W81555  38.020   0.439   2.743
16296W        W81556  38.337  34.641   3.765
16297W        W81557   7.400  10.407   0.984
16298W        W81558  17.847   5.901  14.875
16299W        W81559  11.295   2.772   0.035
16300W        W81560  12.779  15.161  13.886
16301W        W81561   4.864  42.983   3.231
16302W        W81562  14.669   8.763   2.210
16303W        W81563  41.949   2.978   3.492
16304W        W81564  37.947   1.958  14.889
16305W        W81565  29.749  35.524  13.573
16306W        W81566  14.761   2.796  11.311
16307W        W81567   2.882   3.139  11.051
16308W        W81568  27.656  13.801  14.923
16309W        W81569  11.985  27.014  14.863
16310W        W81570  42.219  17.348   4.533
16311W        W81571  36.508  11.803   3.102
16312W        W81572  13.519   5.792   3.983
16313W        W81573   0.808  28.964  11.229
16314W        W81574  35.063   9.781  14.161
16315W        W81575  23.042   4.895  13.828
16316W        W81576  24.515  19.633  14.817
16317W        W81577  21.627   8.016   1.605
16318W        W81578  16.801  41.000  12.453
16319W        W81579  43.431  38.880  14.928
16320W        W81580  35.322   9.089  14.420
16321W        W81581  16.354  24.070   0.215
16322W        W81582  33.941  39.947  11.587
16323W        W81583  44.356  11.870   3.864
16324W        W81584  36.605   6.749  10.604
16325W        W81585  18.169   6.185  13.769
16326W        W81586  33.348  25.867  11.590
16327W        W81587   3.228   1.775  14.411
16328W        W81588  25.932   4.233   3.039
16329W        W81589  36.553  30.157   4.100
16330W        W81590  12.112  37.549  12.505
16331W        W81591  19.825   1.281   2.330
16332W        W81592  15.221   6.960   3.119
16333W        W81593  26.420   1.359  14.601
16334W        W81594  30.505  35.408   3.229
16335W        W81595  22.761   9.702  14.465
16336W        W81596  44.239  31.621  14.470
16337W        W81597  14.672   4.896  10.013
16338W        W81598  14.061  22.501  13.044
16339W        W81599   2.376  13.307   0.043
16340W        W81600  20.548  39.624   2.659
16341W        W81601   7.485   7.428   0.257
16342W        W81602   1.889  14.566  12.150
16343W        W81603   6.362  17.547  12.913
16344W        W81604  19.121  30.592   2.295
16345W        W81605   2.337  26.453   4.512
16346W        W81606  30.572  36.402  13.403
16347W        W81607  22.480   2.788  12.924
16348W        W81608   9.873  21.151  12.538
16349W        W81609   2.704  18.707  12.538
16350W        W81610  32.957  44.450  12.117
16351W        W81611  41.076  25.017   1.821
16352W        W81612  11.851  10.374   1.235
16353W        W81613   2.980  11.387  12.490
16354W        W81614  11.592  13.626  13.096
16355W        W81615   5.676  41.365   4.593
16356W        W81616   7.717  12.601   4.079
16357W        W81617   1.343  26.032  12.302
16358W        W81618   8.811   3.406  11.732
16359W        W81619  12.532  26.753  13.298
16360W        W81620   1.192  35.102   1.702
16361W        W81621  11.136  35.528  11.648
16362W        W81622  14.272  19.705  11.529
16363W        W81623  18.168  24.797  11.025
16364W        W81624  35.027  35.116  14.434
16365W        W81625  41.938  21.031  13.421
16366W        W81626   6.652  25.270  12.659
16367W        W81627  32.862   3.104  11.514
16368W        W81628   0.925  34.642   0.905
16369W        W81629  39.472   8.178   1.972
16370W        W81630   5.628   7.926   1.802
16371W        W81631  21.779  14.593  11.623
16372W        W81632  16.757   2.117   1.867
16373W        W81633  17.180   6.984  11.588
16374W        W81634  22.788  21.112  12.454
16375W        W81635  31.151  22.537   2.852
16376W        W81636  35.347  29.709  11.594
16377W        W81637   7.579  36.487  14.096
16378W        W81638   3.216  41.830  14.098
16379W        W81639  11.008  17.580  12.909
16380W        W81640  34.522  30.896   0.718
16381W        W81641  42.248  33.992   2.789
16382W        W81642  23.127  15.684   4.348
16383W        W81643  11.962  33.016   2.463
16384W        W81644   8.659  25.187  12.420
16385W        W81645  16.818  15.142  12.610
16386W        W81646  38.137  18.884   3.893
16387W        W81647  35.154   6.125  11.528
16388W        W81648  24.530   5.435  14.369
16389W        W81649  29.627  12.197   2.391
16390W        W81650  28.429   5.226   3.751
16391W        W81651  40.347   6.048   3.783
16392W        W81652  15.829  11.363  12.343
16393W        W81653   7.964  27.746   3.580
16394W        W81654  15.957  34.556   1.250
16395W        W81655   4.041  25.036   1.651
16396W        W81656   1.285   5.287   3.097
16397W        W81657  38.523  30.386   2.128
16398W        W81658  35.115  23.668  13.045
16399W        W81659  31.194  30.251  14.816
16400W        W81660  41.446  33.822   3.220
16401W        W81661  37.619   7.881  14.457
16402W        W81662  42.655  41.473  10.570
16403W        W81663   7.129  12.144   1.474
16404W        W81664  30.907   1.139  13.851
16405W        W81665  40.476   9.690  14.354
16406W        W81666  40.991   7.584   0.842
16407W        W81667   3.904  12.329  11.891
16408W        W81668  26.057  39.421   1.035
16409W        W81669  15.854  21.300   2.536
16410W        W81670  25.990   1.466   3.227
16411W        W81671  33.645   3.619  13.580
16412W        W81672  43.377  25.075  13.392
16413W        W81673   6.109  35.859   4.924
16414W        W81674  16.244  39.566  14.423
16415W        W81675   7.685  35.196  12.788
16416W        W81676  31.779   2.748   3.344
16417W        W81677  27.520  28.971   2.717
16418W        W81678  10.669  41.513   2.240
16419W        W81679  21.079  24.481   0.912
16420W        W81680  30.511  22.114  12.588
16421W        W81681  32.214   8.860   4.656
16422W        W81682  28.504  36.159   4.082
16423W        W81683  38.293   7.256  13.420
16424W        W81684  38.099  20.120   3.203
16425W        W81685  20.696  19.813   5.088
16426W        W81686  28.544  43.963  11.030
16427W        W81687  14.260  30.413   2.259
16428W        W81688  31.546  25.312   0.338
16429W        W81689  41.661   1.562  14.930
16430W        W81690  43.014  18.596  14.261
16431W        W81691  43.460  18.422  12.483
16432W        W81692  44.430   1.657   0.906
16433W        W81693  31.459  38.143  12.215
16434W        W81694  14.355  20.195   1.844
16435W        W81695  29.194  25.225  12.632
16436W        W81696  36.699  32.960   0.931
16437W        W81697  38.452  10.786  11.963
16438W        W81698  22.198  18.065  11.842
16439W        W81699  22.998  32.967  12.702
16440W        W81700  38.784   2.436   0.482
16441W        W81701  36.421  39.037  11.569
16442W        W81702  38.260   0.960  14.396
16443W        W81703  42.899  17.098  12.804
16444W        W81704  24.206   0.715   1.139
16445W        W81705   1.341  18.115  13.415
16446W        W81706  33.991  17.578  12.114
16447W        W81707   5.138  17.425  11.078
16448W        W81708  34.935   0.423  11.591
16449W        W81709  24.552  38.759   2.449
16450W        W81710  15.029  38.975   3.367
16451W        W81711  43.227  40.106  12.307
16452W        W81712  25.706  13.088   3.267
16453W        W81713   1.751   8.433  11.578
16454W        W81714  27.102  13.679  11.142
16455W        W81715  28.961  13.070   1.789
16456W        W81716  22.203  18.633  10.625
16457W        W81717   3.381  43.377   3.698
16458W        W81718  21.113  10.319  14.994
16459W        W81719  40.564  43.500   1.200
16460W        W81720  21.624  21.997   3.249
16461W        W81721   4.211  22.518  12.001
16462W        W81722  16.801  20.523   2.779
16463W        W81723   8.902  28.654  14.820
16464W        W81724  15.304  14.080   0.394
16465W        W81725  33.459  10.054   1.391
16466W        W81726  18.016  10.676  12.023
16467W        W81727  30.478  35.440  14.949
16468W        W81728  24.285  34.135  11.450
16469W        W81729  17.249  18.549   4.165
16470W        W81730   8.831  24.954   4.125
16471W        W81731   0.464  38.948   3.124
16472W        W81732   6.398  11.890   3.441
16473W        W81733  12.866  15.382   4.357
16474W        W81734  36.752  42.652  11.653
16475W        W81735   9.255   3.465   5.021
16476W        W81736  24.239  41.087  14.802
16477W        W81737  12.239  21.102  11.486
16478W        W81738  25.653  28.628   4.077
16479W        W81739  27.230  40.013   0.717
16480W        W81740  14.696  36.304   4.038
16481W        W81741  20.079  16.115   3.312
16482W        W81742  33.203  25.007  13.974
16483W        W81743  40.266  22.900  12.062
16484W        W81744  26.022  26.389   1.480
16485W        W81745  33.139  21.608  10.472
16486W        W81746   2.364  22.899  12.439
16487W        W81747  36.679  38.022   2.735
16488W        W81748  40.242  36.069   4.520
16489W        W81749  37.309  21.765  12.926
16490W        W81750  11.696   6.845  12.565
16491W        W81751   5.695  43.291   2.225
16492W        W81752   0.746  38.397  12.525
16493W        W81753  10.280  21.526  12.600
16494W        W81754  19.881  27.853  13.884
16495W        W81755  25.335   4.963   2.084
16496W        W81756  30.582  24.609  14.987
16497W        W81757  43.450   5.119  11.648
16498W        W81758   0.399  28.856   1.751
16499W        W81759   9.427  24.966   1.286
16500W        W81760  18.603   6.400  14.993
16501W        W81761  15.207  11.240  14.875
16502W        W81762   4.616  30.588  12.856
16503W        W81763  35.440  44.361   1.801
16504W        W81764   9.243  21.300  13.956
16505W        W81765  15.143  26.876  13.984
16506W        W81766  19.106  33.885  12.188
16507W        W81767  24.085  34.081   4.062
16508W        W81768   9.841  31.979  11.625
16509W        W81769  31.044   3.626  12.039
16510W        W81770  35.556  15.047  11.186
16511W        W81771  10.525  34.545  11.108
16512W        W81772  23.139  15.094  11.776
16513W        W81773  25.689  29.109   4.300
16514W        W81774   7.163   8.484   1.664
16515W        W81775  28.336  37.392   1.430
16516W        W81776  43.967  39.112   4.633
16517W        W81777  41.008  32.877  13.525
16518W        W81778   3.148  24.130  13.993
16519W        W81779  30.689   5.164   0.243
16520W        W81780  31.846   3.387  14.859
16521W        W81781  41.984  36.930  14.490
16522W        W81782   0.894  29.430  11.040
16523W        W81783   6.982   2.715  14.288
16524W        W81784  37.626  34.799   0.774
16525W        W81785   8.977  21.041   0.216
16526W        W81786   5.862  29.475   2.213
16527W        W81787  22.677  31.145   0.907
16528W        W81788  24.269  16.408   3.162
16529W        W81789  22.502  33.884   1.329
16530W        W81790  15.354   5.919   4.691
16531W        W81791  22.978  37.893  13.904
16532W        W81792  40.567  16.676   3.739
16533W        W81793   2.770  21.971   3.794
16534W        W81794  12.694  18.335   0.267
16535W        W81795   2.227   6.400   1.123
16536W        W81796  43.359  24.802  11.470
16537W        W81797  40.236  32.363   0.429
16538W        W81798   1.918  25.235   3.659
16539W        W81799  33.625  38.287  13.978
16540W        W81800  32.766   0.924  10.035
16541W        W81801  20.481  44.810   3.814
16542W        W81802   8.778  31.321  13.878
16543W        W81803  25.930  11.645   3.714
16544W        W81804  23.728   5.738  11.979
16545W        W81805   5.189  16.814  11.363
16546W        W81806  28.123  40.336   2.263
16547W        W81807  11.851   2.041   4.214
16548W        W81808  11.948  23.686   0.819
16549W        W81809  40.784   7.158  14.321
16550W        W81810  19.678  22.695   0.363
16551W        W81811  34.992  35.127   2.181
16552W        W81812   6.829   9.149   2.288
16553W        W81813  38.652  40.915  10.742
16554W        W81814  34.308  37.400   1.717
16555W        W81815  36.831  32.678  13.087
16556W        W81816  14.919  31.988   4.523
16557W        W81817  34.924  21.047  11.135
16558W        W81818  44.546  38.138   2.505
16559W        W81819  28.116  30.911   0.492
16560W        W81820  20.321  43.729   0.821
16561W        W81821   8.400  29.908   4.242
16562W        W81822  28.690  37.885   3.968
16563W        W81823   0.885  29.994  14.098
16564W        W81824  27.904  36.843   3.734
16565W        W81825  44.218  10.265   3.778
16566W        W81826  18.624   9.791   4.469
16567W        W81827  32.302  40.054   4.485
16568W        W81828  36.866  27.574  12.411
16569W        W81829   6.401  37.386   1.815
16570W        W81830  27.025   9.821   1.494
16571W        W81831   7.926  31.795  11.712
16572W        W81832  43.596  31.631  12.292
16573W        W81833   4.083  13.479   3.726
16574W        W81834  36.887   1.543  11.425
16575W        W81835   5.088  26.412  11.981
16576W        W81836  16.144  27.330  10.675
16577W        W81837  32.071  23.736  11.191
16578W        W81838  40.484  17.360  12.504
16579W        W81839  16.012  33.863  10.762
16580W        W81840  21.030  27.171   4.669
16581W        W81841  23.090  21.645  13.900
16582W        W81842  35.959  33.364   3.297
16583W        W81843  32.414  34.081  11.127
16584W        W81844  39.297   3.331   3.265
16585W        W81845  10.175  16.417   4.489
16586W        W81846  17.538  20.276   0.036
16587W        W81847   6.830  31.380  12.163
16588W        W81848  34.219  21.161   4.611
16589W        W81849  18.552  37.562  12.972
16590W        W81850   6.260   4.005   4.668
16591W        W81851  25.251  20.126   2.905
16592W        W81852  42.362  24.305   2.880
16593W        W81853  40.775  19.632  14.474
16594W        W81854  13.378   9.476   0.864
16595W        W81855  37.588   6.798  13.379
16596W        W81856   5.262  17.288  10.147
16597W        W81857  25.172  22.061  12.509
16598W        W81858  28.836  25.165  14.440
16599W        W81859  44.693  18.595   4.121
16600W        W81860  32.154   9.966   0.804
16601W        W81861  26.837   8.860   3.951
16602W        W81862  38.785  12.142  13.878
16603W        W81863  36.842  43.912  10.477
16604W        W81864  18.680  31.606  12.379
16605W        W81865   8.003  20.379   0.696
16606W        W81866  30.951   4.371  11.536
16607W        W81867  42.868   1.779   0.876
16608W        W81868  22.446  20.975   3.630
16609W        W81869   0.854   0.988   1.608
16610W        W81870  37.740  39.481  14.620
16611W        W81871   6.704   2.774  12.989
16612W        W81872  13.063  22.478  11.033
16613W        W81873  23.696  33.297  14.622
16614W        W81874   6.774  29.550  13.364
16615W        W81875   7.283  23.073  12.517
16616W        W81876  14.779  41.272   1.772
16617W        W81877   2.903  14.369   3.791
16618W        W81878  16.236   4.772  14.998
16619W        W81879  30.738  24.447   2.369
16620W        W81880  20.170   0.138  10.297
16621W        W81881  22.725  37.996  12.105
16622W        W81882   4.328  33.154   3.623
16623W        W81883  38.928  27.739   0.172
16624W        W81884  31.187  11.763   0.647
16625W        W81885  30.265   2.774   1.941
16626W        W81886  15.498  20.899   2.576
16627W        W81887  23.105  19.722   2.073
16628W        W81888   7.284  33.035   4.591
16629W        W81889   7.798  42.953  11.805
16630W        W81890  27.007  41.064  14.388
16631W        W81891   3.105  23.987  14.889
16632W        W81892  24.790  16.807  11.871
16633W        W81893   1.026  42.285   4.078
16634W        W81894  39.318  23.506  13.950
16635W        W81895  37.184  26.351   0.449
16636W        W81896   4.918  10.926   0.387
16637W        W81897  27.463  16.645  10.412
16638W        W81898  15.659  34.062  10.432
16639W        W81899   6.290   1.961  11.181
16640W        W81900  22.336   3.454   1.367
16641W        W81901  28.533  37.547   0.958
16642W        W81902  36.736  44.853   0.852
16643W        W81903  10.802   2.462   3.637
16644W        W81904   8.730   3.974   4.167
16645W        W81905  30.016  44.817  10.612
16646W        W81906  27.205  38.784  13.998
16647W        W81907  29.667  30.213  14.866
16648W        W81908  25.962   5.672   5.534
16649W        W81909  18.212  20.630   3.004
16650W        W81910  42.040   9.265   4.615
16651W        W81911  44.611  20.830   2.761
16652W        W81912  29.490  26.605  11.553
16653W        W81913  14.138  18.052  12.874
16654W        W81914  15.639  21.197   3.447
16655W        W81915  33.947  10.638   2.403
16656W        W81916  21.047   9.299  11.689
16657W        W81917  12.149   8.431   2.822
16658W        W81918  24.116  34.483  10.644
16659W        W81919   4.723  20.084   1.197
16660W        W81920   2.251  38.849  10.982
16661W        W81921  43.316  35.838  14.349
16662W        W81922   2.279  35.354   1.346
16663W        W81923  28.577  41.730   2.964
16664W        W81924  39.652  29.562  13.618
16665W        W81925  29.354   8.737  12.524
16666W        W81926  20.214  39.776   4.946
16667W        W81927   1.390   2.214   0.857
16668W        W81928  14.409   6.956  10.401
16669W        W81929  23.274  31.183   0.265
16670W        W81930   0.014  37.540  10.649
16671W        W81931  26.133  33.521  13.814
16672W        W81932   5.339  34.120  12.041
16673W        W81933  37.064  40.204  12.986
16674W        W81934  31.928  43.910  12.896
16675W        W81935  42.963  37.274  13.436
16676W        W81936  18.099  41.751  12.379
16677W        W81937   3.105  35.672  10.192
16678W        W81938   0.890  40.132  12.436
16679W        W81939  23.690  43.784   3.262
16680W        W81940  44.197  14.797   5.081
16681W        W81941   9.382   2.748   0.742
16682W        W81942   0.481  41.347  11.785
16683W        W81943  41.789  36.898   0.671
16684W        W81944  15.742  12.730  10.141
16685W        W81945  27.061  27.665   2.750
16686W        W81946  13.756  32.885  11.941
16687W        W81947  39.047  27.746  12.313
16688W        W81948   8.349   8.139   4.764
16689W        W81949  15.807  19.277   3.277
16690W        W81950  26.074  37.968  14.855
16691W        W81951   2.987  31.556   1.840
16692W        W81952  34.207   3.265   0.295
16693W        W81953  38.363  26.537   3.372
16694W        W81954  34.079  13.436  11.498
16695W        W81955   6.526  28.155   0.917
16696W        W81956   0.524  24.947  11.916
16697W        W81957  17.740  14.829  12.814
16698W        W81958  13.056  43.404  14.466
16699W        W81959  15.742  20.997  11.192
16700W        W81960  14.656   2.993   0.747
16701W        W81961   5.100  11.881  13.032
16702W        W81962   8.740  31.181   2.213
16703W        W81963  33.981  12.705  14.830
16704W        W81964  11.216  23.772  10.474
16705W        W81965  33.470   5.730   1.013
16706W        W81966  16.600  35.461   2.881
16707W        W81967  10.845  40.690   0.247
16708W        W81968   5.896  12.205  10.576
16709W        W81969  18.029  28.002  13.533
16710W        W81970   6.693   7.673   3.196
16711W        W81971  40.303  40.776  11.011
16712W        W81972   8.279   2.332  11.344
16713W        W81973   6.011  12.605   4.363
16714W        W81974   5.630  29.629   3.714
16715W        W81975  26.488   1.923  13.890
16716W        W81976  18.593  33.472   0.499
16717W        W81977  35.170  24.163   3.398
16718W        W81978   7.470  11.684  13.877
16719W        W81979  22.486  25.776   2.817
16720W        W81980  24.293  39.491  10.730
16721W        W81981   6.915  11.574  14.858
16722W        W81982  16.246  32.033   1.292
16723W        W81983  10.847  19.377   4.596
16724W        W81984   7.402  44.996   4.172
16725W        W81985  36.109  28.203  11.087
16726W        W81986   6.753  24.755  12.753
16727W        W81987  25.264  39.453   1.703
16728W        W81988  16.158  32.933  14.987
16729W        W81989  17.157  41.251  14.954
16730W        W81990  26.515   0.074  12.510
16731W        W81991   2.591   1.724  12.439
16732W        W81992  36.330  36.929  13.483
16733W        W81993  36.966  15.507  13.068
16734W        W81994  15.358  42.889   3.433
16735W        W81995  17.839  43.974   0.738
16736W        W81996   3.563  22.288   1.244
16737W        W81997  30.782  14.293  13.949
16738W        W81998  44.785  38.808   4.765
16739W        W81999  41.324   5.381   4.114
16740W        W82000   9.848   1.930  12.935
16741W        W82001  42.348  31.413   2.637
16742W        W82002   5.239  28.495  11.622
16743W        W82003  15.576  43.786   3.153
16744W        W82004  35.845  16.197   4.596
16745W        W82005  23.657  31.085   2.537
16746W        W82006  44.447   2.429  11.029
16747W        W82007  18.693  27.656   2.679
16748W        W82008  33.534  29.560  10.826
16749W        W82009  20.560  37.501   0.820
16750W        W82010   6.233  37.410  10.834
16751W        W82011  23.319  24.250   1.156
16752W        W82012  35.306  29.239   4.956
16753W        W82013  21.046  32.136   4.160
16754W        W82014  22.794  30.045   4.176
16755W        W82015  29.463  30.237   5.022
16756W        W82016  36.086  30.602   2.283
16757W        W82017   2.653   0.568   2.838
16758W        W82018   0.999  33.388  13.368
16759W        W82019  11.080  44.236  11.345
16760W        W82020   8.146  44.366  10.901
16761W        W82021  15.256  41.140  12.418
16762W        W82022  42.960  25.688  13.081
16763W        W82023  30.876  19.010   3.700
16764W        W82024   1.304  12.319  11.809
16765W        W82025  44.890  15.336  14.599
16766W        W82026  43.387   9.376  14.783
16767W        W82027  40.221  33.870   0.445
16768W        W82028  24.882   5.406   2.127
16769W        W82029  39.122   8.878   1.272
16770W        W82030  44.994   5.336   3.296
16771W        W82031   3.231  32.854  12.070
16772W        W82032  40.355  19.552  10.408
16773W        W82033  21.090  24.169   4.979
16774W        W82034  19.279  28.129   4.797
16775W        W82035  19.080   7.373   4.579
16776W        W82036  17.481  38.965   4.522
16777W        W82037  41.002  40.214   0.980
16778W        W82038   3.672  30.234  13.120
16779W        W82039  10.375  18.265  13.393
16780W        W82040  40.365  14.877  11.072
16781W        W82041  40.061  30.619   1.602
16782W        W82042  41.437  43.908   2.733
16783W        W82043   8.638   1.897  12.204
16784W        W82044  41.691  12.653  11.682
16785W        W82045   4.272  29.969   1.726
16786W        W82046  39.395   3.463   2.241
16787W        W82047   8.713  27.534  14.720
16788W        W82048   9.378  43.342   2.692
16789W        W82049  36.994  12.380  12.918
16790W        W82050   8.596  26.234   1.747
16791W        W82051  34.594  18.679  10.552
16792W        W82052  41.544  22.661  10.577
16793W        W82053  11.757  37.013   4.547
16794W        W82054  42.543  17.337   1.337
16795W        W82055  42.512   6.268  12.490
16796W        W82056  23.682  35.830   0.448
16797W        W82057  35.511  14.346   3.193
16798W        W82058   9.272  28.756   1.647
16799W        W82059  20.357  10.849   4.058
16800W        W82060  11.865  42.948   3.633
16801W        W82061  21.250  24.687   3.673
16802W        W82062   9.402  34.447  14.778
16803W        W82063  23.037  25.623  11.109
16804W        W82064  22.588  37.462  14.620
16805W        W82065  44.801   4.910  11.283
16806W        W82066   8.510  20.591  14.390
16807W        W82067   5.744  44.345   0.469
16808W        W82068  27.931  42.219  12.426
16809W        W82069  25.798   1.018   5.310
16810W        W82070  20.201  31.965   3.896
16811W        W82071  26.352  16.540  11.070
16812W        W82072   2.401   9.947  11.886
16813W        W82073  28.948   8.722  13.554
16814W        W82074  40.951  26.414   4.609
16815W        W82075  29.933  23.405  13.513
16816W        W82076  32.023  25.436   2.656
16817W        W82077  21.618  33.734   2.259
16818W        W82078  10.662  23.602  14.497
16819W        W82079  24.575  28.130  10.965
16820W        W82080  29.805   6.843  13.557
16821W        W82081   5.168  40.776  14.261
16822W        W82082  11.167  28.905  14.493
16823W        W82083   2.437  33.854   4.704
16824W        W82084   7.245   5.953  14.891
16825W        W82085  41.434  29.212  11.329
16826W        W82086  21.085   0.519  11.920
16827W        W82087  10.272  43.833   0.812
16828W        W82088   1.414  13.771  10.690
16829W        W82089  15.529   1.939   5.121
16830W        W82090  16.230  26.141  14.525
16831W        W82091  14.510  25.127  13.107
16832W        W82092   7.909  20.783  12.878
16833W        W82093  33.572  25.872   0.396
16834W        W82094  42.456  21.455  10.709
16835W        W82095  24.108  28.252  11.219
16836W        W82096  44.110  41.421   3.224
16837W        W82097  37.999  19.614   2.485
16838W        W82098  44.031  11.246  10.766
16839W        W82099  12.309   0.197   4.460
16840W        W82100  23.768   6.792  14.408
16841W        W82101  31.770   4.101   3.151
16842W        W82102  15.799  38.747  11.542
16843W        W82103  15.077  42.422   0.250
16844W        W82104  11.799  31.614   1.777
16845W        W82105  26.096  12.720   0.484
16846W        W82106  17.174  10.832   1.353
16847W        W82107  11.901  31.113  13.132
16848W        W82108  43.339  27.433  14.374
16849W        W82109  27.881   6.910   1.836
16850W        W82110  36.827  21.700   4.499
16851W        W82111  43.795  27.128   9.415
16852W        W82112  12.246  26.788   1.354
16853W        W82113   0.767  34.073   1.802
16854W        W82114  36.511   1.836  12.139
16855W        W82115  20.556  43.700   2.423
16856W        W82116  13.422  13.783  14.933
16857W        W82117  18.599  44.399   0.422
16858W        W82118  34.242   9.102   3.263
16859W        W82119  23.472   7.157  14.738
16860W        W82120  16.568  24.721  11.022
16861W        W82121  36.394  14.832  12.652
16862W        W82122   5.203  10.756   2.846
16863W        W82123  36.709  31.089  10.978
16864W        W82124  20.090  37.735  10.649
16865W        W82125  37.408  14.194   2.784
16866W        W82126  15.196   6.636  11.824
16867W        W82127  15.514  28.900   1.348
16868W        W82128  11.070  13.356  12.927
16869W        W82129  31.043  26.914  12.847
16870W        W82130   1.324  21.627  12.976
16871W        W82131  11.416  38.568  14.069
16872W        W82132   3.310  19.099   0.377
16873W        W82133  36.537  26.757   4.976
16874W        W82134  26.605  12.522   0.352
16875W        W82135  16.970  44.698  12.035
16876W        W82136  21.006  43.576   1.868
16877W        W82137  32.054  34.741  13.912
16878W        W82138  43.814   6.822  12.128
16879W        W82139  11.208  43.504   0.108
16880W        W82140  18.745  23.194  11.881
16881W        W82141  23.307   0.172  14.428
16882W        W82142  41.493  36.132   4.053
16883W        W82143  43.594  16.850  11.111
16884W        W82144   9.194  14.113  10.683
16885W        W82145   3.256  40.106   2.475
16886W        W82146  21.902  17.224   1.307
16887W        W82147  22.079  31.517   1.931
16888W        W82148   8.364   3.949   2.162
16889W        W82149  36.605  19.095  10.533
16890W        W82150  29.462   4.727   1.146
16891W        W82151  34.363  32.216  12.441
16892W        W82152  41.327   1.873   3.594
16893W        W82153  23.105  30.375  11.096
16894W        W82154  33.073  11.253  12.419
16895W        W82155  13.058  35.862  11.133
16896W        W82156   7.197   2.755  10.774
16897W        W82157  21.358  18.844  10.146
16898W        W82158  15.206  17.259  10.570
16899W        W82159   2.525   1.831   2.855
16900W        W82160   5.293  19.572  10.861
16901W        W82161  29.043  34.694   1.162
16902W        W82162   9.552  42.787  13.534
16903W        W82163  43.858  39.228  14.420
16904W        W82164  14.410  25.699  11.003
16905W        W82165  14.708  36.876  10.923
16906W        W82166  34.416  13.586   1.953
16907W        W82167  40.548  30.140  11.265
16908W        W82168  19.557  42.846  13.802
16909W        W82169  37.878  11.966   2.953
16910W        W82170  12.699  21.974   4.478
16911W        W82171  13.154  23.644   0.231
16912W        W82172  26.477  43.334   2.270
16913W        W82173  33.530  24.069   0.403
16914W        W82174  14.250  13.823   4.757
16915W        W82175  17.609  26.262  14.219
16916W        W82176  42.031   8.741   3.723
16917W        W82177   8.160  22.135  11.444
16918W        W82178  27.502  37.480   4.166
16919W        W82179  28.160  27.613  10.610
16920W        W82180   6.422  18.685  14.421
16921W        W82181   3.330  12.903   4.602
16922W        W82182   5.349  29.632  10.897
16923W        W82183  29.666  11.336  14.477
16924W        W82184  22.489   6.679   2.703
16925W        W82185  20.531   6.725  13.847
16926W        W82186  14.294  35.656  12.118
16927W        W82187  25.604   6.618   0.966
16928W        W82188  24.695  42.528   1.852
16929W        W82189  29.205  40.031   4.602
16930W        W82190  23.739  37.509  12.797
16931W        W82191  19.261  20.727  12.187
16932W        W82192  26.081  29.455   4.213
16933W        W82193  31.566   3.077   3.665
16934W        W82194  21.415  12.721  10.377
16935W        W82195   2.695   1.741  14.040
16936W        W82196  15.178  37.477   1.989
16937W        W82197   9.088   9.249   4.267
16938W        W82198   3.656   4.694  13.514
16939W        W82199   5.671  33.941  12.514
16940W        W82200  20.214  40.016  14.409
16941W        W82201   7.627  17.426   3.031
16942W        W82202  35.433  39.420   4.117
16943W        W82203  32.206  17.998   5.085
16944W        W82204   9.294  22.732  14.002
16945W        W82205  33.007  26.894   5.413
16946W        W82206  23.997  28.993  14.918
16947W        W82207  32.928  41.227   0.463
16948W        W82208   2.048   7.317   3.684
16949W        W82209  12.833  37.843  13.083
16950W        W82210  25.393  11.890  11.646
16951W        W82211  14.699  41.881   3.701
16952W        W82212  15.424  27.551   9.916
16953W        W82213  39.266  40.975  12.575
16954W        W82214  17.683  34.103  14.534
16955W        W82215  42.371  25.120  12.558
16956W        W82216   8.105  43.480  14.736
16957W        W82217  37.626  18.281   2.838
16958W        W82218   8.438  19.392   2.623
16959W        W82219   3.972  22.528   3.720
16960W        W82220  34.495  31.077   3.143
16961W        W82221  35.113  42.942   3.181
16962W        W82222  14.501  10.522  13.389
16963W        W82223  32.109  40.272  14.755
16964W        W82224  38.385   7.850   3.402
16965W        W82225  22.486  37.444  13.290
16966W        W82226  31.553  38.447   3.093
16967W        W82227   8.066  40.274   0.893
16968W        W82228  12.599  37.413   1.201
16969W        W82229  22.862  31.577   4.571
16970W        W82230  21.681  38.995  11.880
16971W        W82231  24.195  37.840   3.590
16972W        W82232   5.606  14.195   2.743
16973W        W82233   4.987  20.554   1.204
16974W        W82234  20.613   9.442  11.936
16975W        W82235   3.909  28.524  12.055
16976W        W82236   7.487  16.877   1.913
16977W        W82237  21.073   7.314   3.586
16978W        W82238  36.457  22.324   1.776
16979W        W82239  40.369   0.023  13.479
16980W        W82240   9.789   2.581   3.172
16981W        W82241  31.885  41.737  13.513
16982W        W82242  14.492  21.729  11.160
16983W        W82243  20.198  24.511  12.455
16984W        W82244  17.538   7.297   1.567
16985W        W82245  42.016  15.749   3.217
16986W        W82246  44.985   7.841  10.567
16987W        W82247  10.139  38.584  11.725
16988W        W82248  16.664   0.361   0.729
16989W        W82249  35.875  28.046   0.730
16990W        W82250  38.160   8.366   3.313
16991W        W82251  39.567  12.801   3.174
16992W        W82252  23.679  18.319   0.653
16993W        W82253  12.878  24.915  12.430
16994W        W82254   4.783  20.310  10.738
16995W        W82255  38.917   8.895   1.828
16996W        W82256  10.587   7.351  12.122
16997W        W82257  20.518  15.872  13.311
16998W        W82258  13.236  10.665   3.386
16999W        W82259   2.002  33.056   0.433
17000W        W82260  25.459  12.062  13.215
17001W        W82261  20.673   4.143   0.321
17002W        W82262  24.440  11.565  14.508
17003W        W82263  30.994  42.379  12.137
17004W        W82264  19.361  34.332  11.540
17005W        W82265  21.987  23.475   2.107
17006W        W82266   6.796  29.792   4.808
17007W        W82267   3.367  21.059   4.549
17008W        W82268  44.472   3.686   0.014
17009W        W82269  39.684  21.892  13.048
17010W        W82270   5.437   7.006  14.233
17011W        W82271   5.945  43.156  12.807
17012W        W82272  29.817   9.390   0.406
17013W        W82273  18.892  40.085  14.196
17014W        W82274  12.866  33.622  13.987
17015W        W82275   8.400  31.550  14.968
17016W        W82276  31.160  17.269  10.383
17017W        W82277  43.045   2.803   4.593
17018W        W82278  26.461  13.851   2.375
17019W        W82279  30.517  43.798   1.721
17020W        W82280  36.620  31.813  11.030
17021W        W82281  39.541  17.511   1.933
17022W        W82282   3.311  11.824   4.645
17023W        W82283  29.125  16.729  13.387
17024W        W82284  19.804  18.136  14.858
17025W        W82285  32.977  18.965  11.191
17026W        W82286  34.844  32.964   3.723
17027W        W82287  12.331  18.103  13.325
17028W        W82288  13.083  36.471   1.877
17029W        W82289  17.814   5.428   2.757
17030W        W82290  35.152  38.964   4.164
17031W        W82291  27.284  13.154  12.619
17032W        W82292  10.896   5.917   4.072
17033W        W82293  40.563  44.170  10.302
17034W        W82294  24.750   3.994  13.195
17035W        W82295  29.167  21.025   0.385
17036W        W82296  22.125  33.074  14.338
17037W        W82297  25.482  31.256   3.784
17038W        W82298  42.602  29.938  11.880
17039W        W82299  41.928  20.008  11.989
17040W        W82300  43.977  38.922  14.835
17041W        W82301  44.781  12.237   1.723
17042W        W82302   9.462  15.636  11.155
17043W        W82303  17.728  26.261   0.200
17044W        W82304  25.596  31.914   4.372
17045W        W82305  17.407  36.391  13.288
17046W        W82306  38.360  43.099   0.483
17047W        W82307  30.447  40.485  11.613
17048W        W82308  44.869  37.293  13.858
17049W        W82309   0.182   3.425   2.763
17050W        W82310  26.484  21.226   2.269
17051W        W82311  13.464   3.447   1.459
17052W        W82312  23.989   4.469  14.421
17053W        W82313  15.164  43.337   0.220
17054W        W82314  19.286  35.785  13.476
17055W        W82315  41.425  24.860   3.610
17056W        W82316  44.781  15.242   3.062
17057W        W82317  32.683  18.074   2.055
17058W        W82318   3.355  29.780   5.061
17059W        W82319  26.959  43.850   1.737
17060W        W82320  12.750   0.141   4.194
17061W        W82321  44.084  19.488   3.128
17062W        W82322  16.107  18.220  12.964
17063W        W82323  18.890  31.568  14.996
17064W        W82324  16.332  10.296   0.557
17065W        W82325  22.908  14.512  12.023
17066W        W82326   7.900   1.186   1.931
17067W        W82327   7.667  28.670   1.783
17068W        W82328   2.950   7.811  14.334
17069W        W82329  12.335  19.787  12.412
17070W        W82330  12.564  44.290  12.059
17071W        W82331   4.974   5.868  12.205
17072W        W82332   0.366  26.851  14.975
17073W        W82333  43.445  10.044   0.927
17074W        W82334  26.234  11.373   3.408
17075W        W82335   0.866   7.858   2.245
17076W        W82336  40.711   2.535   0.309
17077W        W82337  12.304  12.193  14.600
17078W        W82338  22.014  15.226  14.387
17079W        W82339  18.149  43.603   1.777
17080W        W82340  28.338  13.348   5.143
17081W        W82341  12.439  18.983  11.125
17082W        W82342  31.978  20.644   3.782
17083W        W82343  29.392  27.147   3.798
17084W        W82344  30.114  14.770   1.762
17085W        W82345   7.704  24.745   2.224
17086W        W82346  24.164  17.193  14.253
17087W        W82347   3.980  42.685   0.211
17088W        W82348  30.700  22.944   4.954
17089W        W82349  24.650   6.167  12.057
17090W        W82350  27.058  25.366   4.580
17091W        W82351   0.450  11.235  14.791
17092W        W82352  37.940  11.202   0.785
17093W        W82353  20.145   0.966  12.025
17094W        W82354  40.484  12.899  13.501
17095W        W82355  40.730  29.138  12.982
17096W        W82356  20.471  44.477  13.828
17097W        W82357   9.167  37.083  14.695
17098W        W82358   3.052   6.314   0.035
17099W        W82359  27.563  44.485  14.130
17100W        W82360  41.343  12.703   4.762
17101W        W82361  38.056  38.107   3.744
17102W        W82362   6.524  42.994   4.868
17103W        W82363  27.027  22.568  12.456
17104W        W82364  23.151  31.031   0.738
17105W        W82365  32.813  42.728  13.390
17106W        W82366   2.454  15.582  13.147
17107W        W82367  31.770  28.358   5.653
17108W        W82368   7.263  29.726   2.225
17109W        W82369  43.832  16.655   3.930
17110W        W82370  29.957   8.110   3.543
17111W        W82371  37.736  39.063  12.022
17112W        W82372   7.032   3.577  10.954
17113W        W82373  16.165  29.063  13.707
17114W        W82374   2.211  10.606  13.001
17115W        W82375   1.511  16.611   0.757
17116W        W82376  15.695  44.161   1.401
17117W        W82377   1.324  29.007   0.253
17118W        W82378  29.915   0.858  11.748
17119W        W82379  25.851  20.856   5.366
17120W        W82380  40.745  24.124   2.150
17121W        W82381  29.588  21.978   3.290
17122W        W82382  15.223  10.143  11.687
17123W        W82383  25.219  13.627   0.002
17124W        W82384   0.012  25.188  12.006
17125W        W82385   8.738   4.347  14.343
17126W        W82386  40.976   7.637  14.431
17127W        W82387  44.361  27.463   1.853
17128W        W82388  10.117  12.370  12.599
17129W        W82389  21.705  13.302  12.662
17130W        W82390  19.924  42.922   9.860
17131W        W82391  43.675  10.238   4.639
17132W        W82392   9.868   6.450   1.767
17133W        W82393   0.374  14.209   4.744
17134W        W82394   9.547  16.549  12.575
17135W        W82395   1.395   9.325   2.684
17136W        W82396  18.742  44.681   1.281
17137W        W82397  30.328   2.722  14.013
17138W        W82398  16.340  13.685   3.599
17139W        W82399  21.302   2.282  14.933
17140W        W82400  42.830  24.654  14.740
17141W        W82401  12.633  44.769  14.843
17142W        W82402   8.030  28.572   0.860
17143W        W82403   2.845  27.253  11.981
17144W        W82404  24.389  43.341   0.934
17145W        W82405  36.437  38.981  12.847
17146W        W82406  23.506  42.912  13.777
17147W        W82407  17.774  36.308  14.009
17148W        W82408  20.601  33.178   3.708
17149W        W82409  43.966  44.237  13.869
17150W        W82410  32.859  18.659   1.313
17151W        W82411  21.693  28.980  11.163
17152W        W82412   1.761  30.176   0.329
17153W        W82413  21.969  42.378   2.277
17154W        W82414  36.048  15.144   0.444
17155W        W82415  38.469  40.021  10.660
17156W        W82416  18.621  43.534  10.769
17157W        W82417  11.709  16.885  11.994
17158W        W82418  34.772  14.131  14.185
17159W        W82419  12.808   8.801   2.375
17160W        W82420  21.504  26.905  11.997
17161W        W82421   4.563  26.608   4.551
17162W        W82422  24.081   2.335   0.794
17163W        W82423  28.578  11.054   2.692
17164W        W82424  34.349  10.796   4.512
17165W        W82425  37.950  17.370   3.132
17166W        W82426  32.414  12.598   3.098
17167W        W82427  44.184  28.449   2.251
17168W        W82428  38.399  17.108   2.428
17169W        W82429  20.385  28.322  12.046
17170W        W82430  25.582  44.162   1.629
17171W        W82431  42.245  20.529  14.402
17172W        W82432  25.153   3.190   4.040
17173W        W82433  10.190   9.171  12.555
17174W        W82434  35.858  31.995  10.689
17175W        W82435   9.608   8.490   4.220
17176W        W82436  30.914   1.903   4.139
17177W        W82437   7.897  33.375   3.644
17178W        W82438  12.429   3.306  13.874
17179W        W82439  34.027  33.210   0.042
17180W        W82440  15.247  42.071  12.240
17181W        W82441  15.384  26.473  11.455
17182W        W82442  32.069  12.110  12.024
17183W        W82443  29.888   0.139  11.003
17184W        W82444  32.264  37.884  13.533
17185W        W82445  26.003  21.911  12.067
17186W        W82446  10.375  36.253  12.643
17187W        W82447  20.294  36.104  12.118
17188W        W82448   0.294  25.731  14.168
17189W        W82449  16.751  25.920  12.967
17190W        W82450  23.386  40.119  12.603
17191W        W82451   1.257  29.456   4.592
17192W        W82452  35.091  40.496   4.384
17193W        W82453  39.443  10.375   1.523
17194W        W82454  32.080  24.142  12.110
17195W        W82455  34.449  41.804   3.696
17196W        W82456   5.445   4.166  11.200
17197W        W82457  33.540  37.187   5.235
17198W        W82458  21.334  44.886  10.191
17199W        W82459   0.831  33.870   3.607
17200W        W82460  27.432  15.603   3.094
17201W        W82461  26.125  41.216  12.560
17202W        W82462  13.126  33.841  12.832
17203W        W82463  12.525   7.940  12.555
17204W        W82464  34.823  44.449  12.416
17205W        W82465  37.287  39.367   1.006
17206W        W82466  25.261  34.896  11.020
17207W        W82467  39.928  29.671   3.117
17208W        W82468  16.115  42.694  11.770
17209W        W82469  30.055  14.093   2.562
17210W        W82470  11.955  33.725  13.124
17211W        W82471   6.908  35.859   4.054
17212W        W82472   5.924  21.276   3.697
17213W        W82473  23.663   1.222   4.948
17214W        W82474  28.148   3.843  13.579
17215W        W82475   3.733   7.717   3.506
17216W        W82476  34.311  32.415   2.341
17217W        W82477  42.324  42.380   2.224
17218W        W82478  42.130  35.660  12.449
17219W        W82479   6.519  34.503  12.467
17220W        W82480   6.380  20.701  11.656
17221W        W82481  27.681  16.568  12.942
17222W        W82482  16.815   0.198   1.893
17223W        W82483   3.892  20.501   2.800
17224W        W82484  38.002  25.163   3.275
17225W        W82485   0.415  39.844  11.590
17226W        W82486  21.737  42.244   4.711
17227W        W82487  35.260  41.506   0.209
17228W        W82488  21.275  30.130   0.765
17229W        W82489  23.691   2.244   2.457
17230W        W82490  19.804  17.285   2.640
17231W        W82491  29.931  10.138   3.393
17232W        W82492  12.597  42.246  10.700
17233W        W82493  14.184  20.970  13.936
17234W        W82494  42.879  35.658  13.549
17235W        W82495  14.660  34.220  11.980
17236W        W82496   3.406  18.818   4.657
17237W        W82497   1.852  24.180   9.503
17238W        W82498  44.508  12.919  11.235
17239W        W82499  40.861  31.892   4.395
17240W        W82500  36.400   1.526  14.035
17241W        W82501  40.523  20.672   0.939
17242W        W82502  34.036  20.508   2.725
17243W        W82503  14.046   8.902  13.228
17244W        W82504  18.418  33.131   0.867
17245W        W82505  14.591   1.374   1.692
17246W        W82506   1.057  36.399   2.392
17247W        W82507   6.409  19.771   4.566
17248W        W82508  25.992  34.803   3.819
17249W        W82509  30.417   2.267   3.129
17250W        W82510   5.382  16.636   0.852
17251W        W82511   0.440  37.763   1.186
17252W        W82512  44.014  29.563   0.212
17253W        W82513  38.903  39.001   1.660
17254W        W82514  13.532  12.812   0.912
17255W        W82515  35.398  38.421  13.856
17256W        W82516  43.871  33.013   0.808
17257W        W82517  33.983  14.533  14.174
17258W        W82518  10.301  33.650   3.205
17259W        W82519  10.565  40.106  13.074
17260W        W82520  40.608  27.537   3.239
17261W        W82521  32.117  39.415   0.403
17262W        W82522  13.711   7.750  13.320
17263W        W82523  43.547  37.671   1.343
17264W        W82524  11.291   1.721   1.700
17265W        W82525  41.253  32.448  12.007
17266W        W82526  13.839  20.252   0.926
17267W        W82527  30.654  15.790   3.226
17268W        W82528   2.211  32.904  14.973
17269W        W82529  32.440  17.122   3.079
17270W        W82530  44.467  22.760  11.684
17271W        W82531  42.523  33.650   2.436
17272W        W82532  21.455  40.530  11.083
17273W        W82533  41.946  26.661  14.264
17274W        W82534  27.038  16.063  14.327
17275W        W82535  36.319  42.701   1.311
17276W        W82536   9.366  33.151   3.628
17277W        W82537   3.826  33.456   4.123
17278W        W82538  11.169  25.146  14.753
17279W        W82539   6.301  16.665   4.589
17280W        W82540  27.021  33.322  13.778
17281W        W82541  32.815  39.426   4.196
17282W        W82542  33.794   7.960  14.955
17283W        W82543  42.948  24.897   2.911
17284W        W82544  36.400   0.720   0.861
17285W        W82545  13.094   2.775  13.365
17286W        W82546  11.542  16.810  11.036
17287W        W82547  31.456  19.227  13.344
17288W        W82548  29.675  34.497   3.279
17289W        W82549  25.159  11.285  12.558
17290W        W82550  16.131  37.977   1.232
17291W        W82551  12.889   2.644   3.055
17292W        W82552   7.287   4.865  12.626
17293W        W82553  20.973  16.266   2.370
17294W        W82554  36.911  35.138  12.557
17295W        W82555   3.115  16.225   3.382
17296W        W82556  22.014  22.941   0.915
17297W        W82557   8.706   7.768   4.780
17298W        W82558  37.189  43.771  13.065
17299W        W82559  43.835  20.477   2.998
17300W        W82560  41.742  36.400   0.782
17301W        W82561  37.044   6.812  11.915
17302W        W82562  34.449   7.468   0.401
17303W        W82563  12.367  30.170   5.253
17304W        W82564  33.900  31.895  13.757
17305W        W82565  19.259  33.437   3.358
17306W        W82566  32.533  30.387   2.336
17307W        W82567  29.528  16.864   0.037
17308W        W82568  33.667  29.215   4.218
17309W        W82569  16.167  19.218  11.606
17310W        W82570  26.484  21.574  12.644
17311W        W82571  36.269  13.631  12.968
17312W        W82572  23.047  16.160   1.677
17313W        W82573  18.788   3.230   2.739
17314W        W82574   4.882  19.080  12.173
17315W        W82575  34.984  35.412  12.149
17316W        W82576  10.446  19.943  12.630
17317W        W82577  16.108  21.974  13.787
17318W        W82578   1.701  41.083  12.950
17319W        W82579  11.818  20.119   1.954
17320W        W82580  19.315   1.397   0.781
17321W        W82581  33.526  36.368  13.255
17322W        W82582  19.308  35.068  12.928
17323W        W82583  39.869  28.104   4.162
17324W        W82584  15.257   4.594   0.392
17325W        W82585  16.648  40.531  14.890
17326W        W82586   2.468   8.416   0.213
17327W        W82587  31.772   8.700  12.012
17328W        W82588   4.498  36.187  14.951
17329W        W82589   3.243  27.017  12.826
17330W        W82590   2.879  29.492   9.956
17331W        W82591  14.110  27.100  13.951
17332W        W82592  29.604   0.957   0.968
17333W        W82593  17.201  34.092  12.476
17334W        W82594  29.699  39.878  12.556
17335W        W82595   6.775   1.838   4.083
17336W        W82596  33.519  10.369   2.391
17337W        W82597  19.689  10.885   2.946
17338W        W82598  21.459  42.341   0.435
17339W        W82599   4.270  39.526  11.738
17340W        W82600  21.257  23.242   4.512
17341W        W82601   3.281   2.918  12.909
17342W        W82602  28.167  42.870  11.956
17343W        W82603  21.972  16.691  14.183
17344W        W82604  26.599  42.518   4.146
17345W        W82605  23.038  24.672  12.493
17346W        W82606  17.476   5.712   4.618
17347W        W82607  15.176   2.923  11.019
17348W        W82608  18.255  10.568   1.743
17349W        W82609   1.140  31.200  12.810
17350W        W82610   6.875  30.721  12.801
17351W        W82611  40.202  15.058   4.570
17352W        W82612  10.011  27.092   2.133
17353W        W82613  10.169  17.325   2.939
17354W        W82614  39.308  31.982  12.003
17355W        W82615  22.846  44.657   2.682
17356W        W82616  33.091  10.767  14.004
17357W        W82617  41.274  29.137  12.914
17358W        W82618  23.343  19.841  11.480
17359W        W82619  23.635  32.653  12.996
17360W        W82620  25.920   4.772   3.650
17361W        W82621  28.397  20.260  14.638
17362W        W82622  12.389  35.356  11.231
17363W        W82623   3.449  39.920  14.974
17364W        W82624  42.549  31.820  12.613
17365W        W82625   7.733  11.417   0.300
17366W        W82626  29.409  41.972   1.515
17367W        W82627  31.376  27.761  11.135
17368W        W82628  33.769  13.200   2.677
17369W        W82629  34.096  19.691  14.068
17370W        W82630   1.961   7.726   0.459
17371W        W82631   8.893  31.616   1.929
17372W        W82632   9.324  15.826  14.267
17373W        W82633   9.888  38.879   2.217
17374W        W82634  39.895  20.031  11.963
17375W        W82635   2.444  38.866   2.710
17376W        W82636  33.722  19.093  12.272
17377W        W82637   2.235  19.552   3.155
17378W        W82638  11.897   5.259  13.323
17379W        W82639  43.344  36.816   1.211
17380W        W82640  30.481  30.104   4.349
17381W        W82641  38.556   7.419  12.067
17382W        W82642  11.042   4.831   9.818
17383W        W82643  23.116  23.985  14.787
17384W        W82644  40.637  21.198  11.778
17385W        W82645  22.638  42.465  10.707
17386W        W82646  31.425  42.734  13.067
17387W        W82647  31.987   1.136   1.916
17388W        W82648  11.256  20.326   4.828
17389W        W82649  23.051  15.554  11.087
17390W        W82650  30.486  25.531  11.506
17391W        W82651  21.600   4.912   3.108
17392W        W82652   6.672  24.525  14.337
17393W        W82653  32.203  11.356  10.182
17394W        W82654  38.568  10.071   0.488
17395W        W82655  43.451  30.172  10.608
17396W        W82656  27.395   9.266  13.942
17397W        W82657  13.709  21.379  10.003
17398W        W82658  20.138   4.678  11.469
17399W        W82659  12.894  19.031   2.767
17400W        W82660  10.511  24.493   1.941
17401W        W82661  38.716  18.373   3.733
17402W        W82662  39.582  11.334   1.914
17403W        W82663  13.664  25.334   2.282
17404W        W82664   2.769   3.991  13.527
17405W        W82665  41.851  29.063  13.943
17406W        W82666   9.409  23.713   1.832
17407W        W82667  20.140   7.413  12.489
17408W        W82668  41.411   1.215  13.433
17409W        W82669   0.759  43.742   3.111
17410W        W82670   2.607  33.253   3.603
17411W        W82671   0.290  17.868   1.603
17412W        W82672   7.241  13.912  11.583
17413W        W82673  23.555   2.132   1.597
17414W        W82674   4.724  37.065   1.486
17415W        W82675  24.242  31.898   2.377
17416W        W82676  30.727  44.466  11.665
17417W        W82677  29.499   1.784   0.012
17418W        W82678  44.988  42.364  12.574
17419W        W82679  42.280  34.083   3.782
17420W        W82680   3.550  20.432  12.874
17421W        W82681  32.988  19.265  12.480
17422W        W82682  10.358  14.143  13.009
17423W        W82683  34.508  44.809   0.367
17424W        W82684   9.922  34.131   2.725
17425W        W82685  36.413  44.796  14.920
17426W        W82686  39.856  38.600   4.738
17427W        W82687  42.530   9.952   1.500
17428W        W82688  37.756   5.735  10.740
17429W        W82689  34.508   8.708  14.190
17430W        W82690  32.541   6.501   2.866
17431W        W82691  16.152  19.575   2.209
17432W        W82692  41.312  42.765  14.342
17433W        W82693   3.378  12.665   1.611
17434W        W82694  35.201  37.638   4.334
17435W        W82695  21.680  35.133   3.315
17436W        W82696  32.044   9.335  12.472
17437W        W82697  30.288  33.793   1.436
17438W        W82698   4.307  14.293   1.999
17439W        W82699   9.706   2.787  14.410
17440W        W82700   6.733  41.129   2.882
17441W        W82701  43.001   6.181  11.189
17442W        W82702   2.745  35.538   4.743
17443W        W82703   3.437  34.789   0.783
17444W        W82704   5.765  38.024  12.599
17445W        W82705   4.112  15.645   4.376
17446W        W82706   5.964  26.628  10.616
17447W        W82707  17.025  32.177   0.303
17448W        W82708   0.657  10.753  11.110
17449W        W82709  17.530  15.118  14.847
17450W        W82710  35.732  39.060  14.870
17451W        W82711  37.915  37.920   0.769
17452W        W82712  24.010  19.730  14.729
17453W        W82713  20.535  11.968  14.305
17454W        W82714  19.535  38.059   0.184
17455W        W82715  15.865  14.497   3.165
17456W        W82716  22.589  16.521   3.570
17457W        W82717  24.594  25.193  11.673
17458W        W82718  11.182  37.950  12.896
17459W        W82719  11.787  15.521   0.744
17460W        W82720  29.027  24.932  11.711
17461W        W82721   3.825  21.108   2.465
17462W        W82722  31.685  17.586   3.729
17463W        W82723  44.498  21.049   3.993
17464W        W82724  32.517  40.356   0.483
17465W        W82725  20.707  18.238   0.840
17466W        W82726  28.965  16.673   2.184
17467W        W82727  34.591  21.591   2.294
17468W        W82728  24.821   6.617   0.799
17469W        W82729  21.665   9.627  12.178
17470W        W82730  38.331  34.090   3.698
17471W        W82731  37.514  18.158   4.322
17472W        W82732   6.726  12.479   2.600
17473W        W82733  28.023  20.145  14.314
17474W        W82734   6.012  17.185  12.801
17475W        W82735   5.982  43.518  11.834
17476W        W82736  44.971  38.290  11.108
17477W        W82737  13.248  25.025   1.076
17478W        W82738  31.338  12.336   4.187
17479W        W82739   5.321  13.614   0.766
17480W        W82740  26.311  29.026  11.047
17481W        W82741  28.483  29.125  13.518
17482W        W82742  20.509  14.616  13.084
17483W        W82743   6.878  38.799  12.964
17484W        W82744  37.264   1.375  11.725
17485W        W82745  13.190  15.004   0.303
17486W        W82746  29.040   6.342   0.383
17487W        W82747  36.818  22.934  14.896
17488W        W82748   5.836  24.190   0.052
17489W        W82749  35.113   7.599   4.853
17490W        W82750  37.086  29.845   2.666
17491W        W82751  40.177   9.131   2.847
17492W        W82752   1.646  36.620  12.940
17493W        W82753  25.904  29.067   2.808
17494W        W82754  11.051  29.018   0.372
17495W        W82755   7.271  32.888   3.153
17496W        W82756  15.366  29.722  11.197
17497W        W82757  32.195  31.887   3.242
17498W        W82758  20.793  23.457  13.944
17499W        W82759  17.800  16.068  13.410
17500W        W82760   0.463  21.938   4.094
17501W        W82761   6.341  33.934   1.747
17502W        W82762  34.509   9.217  13.945
17503W        W82763  24.222  17.103   0.316
17504W        W82764  21.100  39.937   4.884
17505W        W82765  25.716  41.937   1.541
17506W        W82766  12.306  36.433  12.036
17507W        W82767  34.465   3.347  11.113
17508W        W82768   3.475   4.589   5.032
17509W        W82769   9.167  35.967   1.300
17510W        W82770   3.219  34.604  11.696
17511W        W82771  13.371  25.196   3.775
17512W        W82772  29.180  29.465   0.682
17513W        W82773  25.393  32.251  13.054
17514W        W82774   2.445  12.865   5.099
17515W        W82775  20.864   8.956   2.302
17516W        W82776  22.976  11.335  14.853
17517W        W82777  20.308  13.642  13.822
17518W        W82778   0.373   5.932   1.180
17519W        W82779  25.010  40.784  14.185
17520W        W82780   1.286  44.957  13.080
17521W        W82781  16.517  38.499  13.008
17522W        W82782   8.196   9.372  14.496
17523W        W82783  11.907  20.018   2.480
17524W        W82784  35.758  10.766   4.598
17525W        W82785  29.921  17.136   3.751
17526W        W82786  14.229  37.889  14.896
17527W        W82787  13.723  43.940   4.862
17528W        W82788  11.316  18.201   1.594
17529W        W82789   6.337  39.914   1.629
17530W        W82790   6.098  33.112   0.290
17531W        W82791  24.281  31.679   2.870
17532W        W82792  17.785  43.312   3.990
17533W        W82793  14.049  20.151  11.505
17534W        W82794  19.366  20.675   1.907
17535W        W82795  14.738  10.702   0.378
17536W        W82796  20.961  24.424   4.071
17537W        W82797   2.928  42.050   0.225
17538W        W82798  35.264   6.823   0.902
17539W        W82799  32.014  14.094  12.888
17540W        W82800   8.302  28.668  14.034
17541W        W82801  34.645  18.747  14.836
17542W        W82802  21.544   7.823   4.079
17543W        W82803  40.436   7.575  14.290
17544W        W82804  34.873  17.097   2.233
17545W        W82805  39.542  37.454  14.471
17546W        W82806  10.208  16.127  12.683
17547W        W82807  42.022  40.274   3.069
17548W        W82808  23.559  43.387  13.150
17549W        W82809  32.868  36.668  11.630
17550W        W82810  33.400  39.353   4.255
17551W        W82811  23.300  35.066   1.657
17552W        W82812  32.668  37.357  13.476
17553W        W82813  36.074  27.751   2.674
17554W        W82814  24.452  16.210  13.615
17555W        W82815  32.969   0.465  10.335
17556W        W82816  41.994   0.311   1.377
17557W        W82817  27.584  13.697  13.178
17558W        W82818  37.040  25.521   2.513
17559W        W82819  23.432   6.784  12.546
17560W        W82820  34.001  42.464   1.149
17561W        W82821  23.133  10.684  12.903
17562W        W82822  21.436   1.645   1.465
17563W        W82823  35.070   6.964  11.703
17564W        W82824  28.420   3.221  12.563
17565W        W82825  28.985  35.345   0.892
17566W        W82826  35.901  30.690   0.750
17567W        W82827  42.953  40.891  14.975
17568W        W82828  27.717   9.775   0.781
17569W        W82829   4.285  33.049   2.177
17570W        W82830  12.171   4.129   1.879
17571W        W82831  30.722  43.769   0.322
17572W        W82832   2.042   1.064  14.145
17573W        W82833  25.528  39.751  12.078
17574W        W82834  18.444  33.961  14.045
17575W        W82835   8.181  18.588   4.901
17576W        W82836   3.889  28.586   1.457
17577W        W82837   3.181  16.081   0.817
17578W        W82838  28.213  10.194  12.541
17579W        W82839   6.729  39.618   2.916
17580W        W82840  20.251  36.306   4.224
17581W        W82841  41.808  30.972  12.868
17582W        W82842  15.241  35.088  12.916
17583W        W82843   4.976  14.570   2.715
17584W        W82844  29.178   3.680  11.340
17585W        W82845  16.226   9.357   4.885
17586W        W82846   8.288   0.903  13.439
17587W        W82847   3.530  43.958   1.329
17588W        W82848  43.535  20.016  11.574
17589W        W82849   8.691  10.082  12.860
17590W        W82850  15.089  12.208  11.134
17591W        W82851  18.262  42.087   0.725
17592W        W82852  26.631  17.237  10.263
17593W        W82853  19.569  28.571   4.782
17594W        W82854  25.042   9.744  11.915
17595W        W82855  16.754  29.127   4.418
17596W        W82856  44.912  16.309   3.560
17597W        W82857  44.386  41.207   2.818
17598W        W82858  10.723  32.871   2.375
17599W        W82859  30.399   5.659   1.176
17600W        W82860  21.051   0.771   4.106
17601W        W82861  37.843  38.391  11.081
17602W        W82862  21.970  33.678   0.226
17603W        W82863  14.077  35.937  11.730
17604W        W82864  28.961   2.809  11.901
17605W        W82865  25.782  41.098   4.562
17606W        W82866  26.529   2.658  14.982
17607W        W82867  25.845   8.950  12.870
17608W        W82868   7.334  10.316   2.458
17609W        W82869  29.212  37.576  11.257
17610W        W82870  22.201  24.239  14.863
17611W        W82871   2.870  18.339   3.642
17612W        W82872  10.896  32.443  10.951
17613W        W82873   4.833  23.565   1.938
17614W        W82874  28.583  12.045  11.116
17615W        W82875   4.438  37.305   3.418
17616W        W82876  22.955  21.169  10.194
17617W        W82877  10.790   9.908  11.989
17618W        W82878  20.233   3.316  11.650
17619W        W82879   9.194  23.482  10.437
17620W        W82880  29.511  34.378   3.741
17621W        W82881  24.125  29.471   2.223
17622W        W82882  32.427  35.917  12.608
17623W        W82883  40.781  43.939  12.570
17624W        W82884  39.873  12.272  13.614
17625W        W82885   9.194  15.979  14.738
17626W        W82886  36.832  39.318  12.963
17627W        W82887  26.195  12.030   0.051
17628W        W82888  21.779  43.752  11.926
17629W        W82889  16.704  14.659   3.967
17630W        W82890   3.611  20.113  14.425
17631W        W82891  28.253  30.812   3.540
17632W        W82892   2.933  18.647  13.850
17633W        W82893  10.410   5.292   3.556
17634W        W82894  23.950  34.978  10.602
17635W        W82895  20.620  32.821   0.803
17636W        W82896  21.756   9.202  13.832
17637W        W82897  11.358  34.064  12.005
17638W        W82898  16.081   5.748   2.115
17639W        W82899   9.901  29.040  10.749
17640W        W82900  29.842  37.956  11.536
17641W        W82901  21.080  28.688  12.974
17642W        W82902   8.306  14.299   0.256
17643W        W82903  42.096  23.162   2.674
17644W        W82904  39.256  13.783   4.556
17645W        W82905  27.860  21.573   0.274
17646W        W82906  13.330  26.038  10.448
17647W        W82907  28.883  12.122   0.516
17648W        W82908  18.984   5.587   3.696
17649W        W82909  34.800  32.484  11.161
17650W        W82910   0.249  40.004   1.672
17651W        W82911  27.428  34.479  14.908
17652W        W82912  18.174   4.096   1.145
17653W        W82913   4.679  40.322   2.872
17654W        W82914   4.126  43.956   3.724
17655W        W82915  35.250  10.718  14.951
17656W        W82916  36.549  26.700  14.918
17657W        W82917  33.514  21.707  12.474
17658W        W82918  38.137  42.507  10.998
17659W        W82919  26.055  10.007  11.495
17660W        W82920  37.879  44.345   4.105
17661W        W82921  26.376  26.869  14.319
17662W        W82922   7.515  44.759  14.739
17663W        W82923   0.538  18.178  13.913
17664W        W82924  14.019  15.836   0.809
17665W        W82925  29.721  24.033   3.146
17666W        W82926  24.146  29.099  11.752
17667W        W82927  33.185  21.556  11.927
17668W        W82928  38.378  10.181   2.580
17669W        W82929  18.733   5.972  13.186
17670W        W82930  27.723  13.729  12.673
17671W        W82931  24.307  37.754  13.059
17672W        W82932  36.053  37.489   4.759
17673W        W82933  10.655  35.895   0.483
17674W        W82934  19.105  39.847   0.063
17675W        W82935  39.584   3.692   9.866
17676W        W82936  37.947  26.707  14.939
17677W        W82937  34.857  24.209  14.872
17678W        W82938  36.095  19.919   3.690
17679W        W82939  42.325  11.487  12.130
17680W        W82940  22.567  42.862   0.621
17681W        W82941  24.060  33.856   2.212
17682W        W82942  15.732  12.520   2.945
17683W        W82943  27.129   2.296   0.387
17684W        W82944  26.075  22.435   2.406
17685W        W82945  32.122  13.967   9.622
17686W        W82946  33.352  39.891   3.591
17687W        W82947  26.195  43.815  14.432
17688W        W82948  26.242  16.899   1.851
17689W        W82949  29.013  44.454   1.289
17690W        W82950  30.378   3.762   0.056
17691W        W82951  43.842  41.927   4.659
17692W        W82952  44.913   3.458  10.824
17693W        W82953  25.437  35.853  13.969
17694W        W82954  21.251  42.525   4.665
17695W        W82955  25.134  24.043   0.019
17696W        W82956  42.914   5.939  10.745
17697W        W82957  29.397  21.825  14.492
17698W        W82958   4.310  19.693  13.441
17699W        W82959   7.177   7.280  12.268
17700W        W82960  34.015  34.297  10.955
17701W        W82961  20.050  34.272   4.231
17702W        W82962  40.290  37.011   4.194
17703W        W82963   2.319  40.456   0.746
17704W        W82964   6.850  10.989   4.255
17705W        W82965  15.315  28.302   2.775
17706W        W82966  29.732   9.391   2.933
17707W        W82967   5.778  23.750   1.275
17708W        W82968   7.989   4.819   3.884
17709W        W82969  31.748   8.341  12.436
17710W        W82970   1.839   9.275  11.636
17711W        W82971  37.474  23.252  13.099
17712W        W82972   0.969   6.734   0.705
17713W        W82973  43.493  20.098   1.386
17714W        W82974   3.652  30.619  13.889
17715W        W82975  37.118   6.819   0.212
17716W        W82976   5.266  44.045  12.137
17717W        W82977  26.905  44.501  11.219
17718W        W82978  38.654  10.892   0.865
17719W        W82979  43.188  32.532  12.062
17720W        W82980  11.937  43.915   4.477
17721W        W82981  18.213  15.988  11.175
17722W        W82982  32.469  17.280  10.370
17723W        W82983  30.486  44.385   3.103
17724W        W82984  10.678  11.698  14.241
17725W        W82985  40.354  27.711  14.851
17726W        W82986  13.777  11.839   2.452
17727W        W82987  42.788  20.134  11.857
17728W        W82988  15.725  25.432   1.319
17729W        W82989  19.196   2.771  13.499
17730W        W82990  41.394   1.677   1.822
17731W        W82991  32.158   8.224  14.400
17732W        W82992  40.708  33.674  10.186
17733W        W82993  14.386   8.748  12.407
17734W        W82994  44.406   4.580  12.120
17735W        W82995  34.672  26.281  10.899
17736W        W82996  43.873  34.801  12.969
17737W        W82997  27.419  43.543  12.268
17738W        W82998   4.235  42.473  13.799
17739W        W82999   9.334   0.897  12.461
17740W        W83000   3.623  44.843   4.671
17741W        W83001  12.963  29.283   2.443
17742W        W83002  13.160  41.641  11.146
17743W        W83003  35.572  15.345  10.792
17744W        W83004  34.259  41.110   1.398
17745W        W83005  41.797  23.818  13.631
17746W        W83006  26.364  23.339   3.697
17747W        W83007  15.342  44.494  12.385
17748W        W83008  18.133  24.541  11.876
17749W        W83009  25.633  27.677  14.884
17750W        W83010  10.312  40.194  10.499
17751W        W83011  26.258   0.861  11.573
17752W        W83012  43.325  26.903  13.469
17753W        W83013  39.688  37.079   0.427
17754W        W83014  28.999  26.669  14.001
17755W        W83015  29.557  27.306   0.354
17756W        W83016   7.359   8.750  13.027
17757W        W83017  25.577  14.356   2.649
17758W        W83018  43.793   3.146   4.186
17759W        W83019  22.060  25.032   0.551
17760W        W83020   0.653   7.170  14.560
17761W        W83021  17.428  27.646  12.422
17762W        W83022  35.962  30.658  10.773
17763W        W83023  40.123  22.692  13.471
17764W        W83024  35.418  11.156  13.727
17765W        W83025  39.132   0.295   4.086
17766W        W83026  11.876  39.190   0.217
17767W        W83027  41.280  18.270  14.487
17768W        W83028  34.311  12.592   4.183
17769W        W83029  29.145  18.765  13.961
17770W        W83030  16.074  37.075  11.408
17771W        W83031  19.153  37.532   4.915
17772W        W83032  29.985  41.384  12.155
17773W        W83033  28.708  35.615   2.356
17774W        W83034  19.244  12.240  13.003
17775W        W83035  43.738  38.054   3.660
17776W        W83036   9.619  16.763  11.178
17777W        W83037  19.877  18.166  13.921
17778W        W83038  32.292  21.170  14.420
17779W        W83039  14.310  28.845   3.332
17780W        W83040  42.981  22.172  13.547
17781W        W83041  10.882   8.242  13.881
17782W        W83042   3.291   0.554  11.922
17783W        W83043  40.417   5.495   4.092
17784W        W83044   7.939  18.751  14.331
17785W        W83045   1.871  38.044   2.738
17786W        W83046  38.050  34.817   4.164
17787W        W83047   5.131  19.888   0.268
17788W        W83048  27.687  29.511  12.397
17789W        W83049   4.254  17.725   3.900
17790W        W83050  24.613  27.926  12.444
17791W        W83051  12.322  13.284   2.652
17792W        W83052  15.320   3.845  13.034
17793W        W83053  41.320  25.388   2.368
17794W        W83054  16.289  15.137   1.875
17795W        W83055  29.908  41.285  14.219
17796W        W83056  11.444   3.489   4.142
17797W        W83057   5.639  42.449   4.559
17798W        W83058  16.478  42.510  12.252
17799W        W83059  27.493   5.840  14.877
17800W        W83060  36.808  42.127  11.926
17801W        W83061  20.833  23.234  14.575
17802W        W83062  10.606  42.913  12.489
17803W        W83063  40.068  42.954   0.225
17804W        W83064  31.972  32.745  13.548
17805W        W83065  34.839   4.274   1.959
17806W        W83066  41.981  34.962  14.928
17807W        W83067  17.818   0.980   2.751
17808W        W83068  35.834   6.604  12.656
17809W        W83069  24.186  17.243  14.809
17810W        W83070  33.281  25.142  14.900
17811W        W83071   3.994  30.565  14.851
17812W        W83072  39.517  11.081  13.594
17813W        W83073   1.259  42.366   2.625
17814W        W83074  12.932  28.548   4.533
17815W        W83075  19.921  39.411   3.136
17816W        W83076  32.722   9.353  13.955
17817W        W83077  36.849  28.139  13.616
17818W        W83078  39.372  44.879  11.859
17819W        W83079  15.277   6.219  12.495
17820W        W83080  17.604  31.328   0.894
17821W        W83081  10.780  11.282   3.188
17822W        W83082   0.325   4.836  13.202
17823W        W83083  30.412  28.590  12.530
17824W        W83084  39.882   1.194  13.736
17825W        W83085  20.763  41.852   1.448
17826W        W83086  42.841  22.246  14.902
17827W        W83087  42.296  31.181  14.465
17828W        W83088  28.527  34.990  10.790
17829W        W83089  16.813  29.154   3.875
17830W        W83090  10.388  20.624   2.625
17831W        W83091   6.437  10.100   0.687
17832W        W83092  32.721  21.632   2.403
17833W        W83093  20.768  32.943   2.681
17834W        W83094  28.388  17.661  10.699
17835W        W83095  33.866  39.421   3.355
17836W        W83096  18.672   4.629  12.585
17837W        W83097  18.332  19.992  13.833
17838W        W83098  22.462  18.009  14.337
17839W        W83099   8.391  15.771  12.388
17840W        W83100  22.111  18.042   4.166
17841W        W83101  28.877  25.369  13.311
17842W        W83102  37.497  36.634   1.602
17843W        W83103  10.314  36.590  10.636
17844W        W83104  26.511  35.021   3.025
17845W        W83105  13.948   9.688  12.405
17846W        W83106   2.473  42.333  13.520
17847W        W83107  10.513  28.357   2.118
17848W        W83108  39.139  32.614   3.672
17849W        W83109  13.386  19.960  12.130
17850W        W83110  42.862  22.022   1.216
17851W        W83111  16.798  17.610   1.775
17852W        W83112  23.293  43.872  10.981
17853W        W83113  41.804   9.695   3.764
17854W        W83114  17.624  36.421  14.924
17855W        W83115   7.120  36.052   2.251
17856W        W83116   9.906  35.490  14.417
17857W        W83117  33.085  27.061  12.579
17858W        W83118  41.825  31.788   3.650
17859W        W83119  12.830  41.351  14.104
17860W        W83120   6.875  29.260   1.488
17861W        W83121  22.131  41.479  11.489
17862W        W83122  35.319  18.755   2.724
17863W        W83123  44.884  24.536   0.525
17864W        W83124  17.905  29.393  11.967
17865W        W83125  19.299   6.138   2.185
17866W        W83126  11.852   8.344   1.349
17867W        W83127   7.311  36.998   1.476
17868W        W83128  33.077   3.360   1.860
17869W        W83129  24.841   1.226  12.536
17870W        W83130  40.325  41.135   2.729
17871W        W83131  10.644   0.073   1.153
17872W        W83132  24.099   3.367  11.605
17873W        W83133   2.844  38.322  12.550
17874W        W83134  37.544  17.989  13.495
17875W        W83135  23.195  43.677  12.250
17876W        W83136  18.813  38.423   1.209
17877W        W83137  20.742  25.887  14.910
17878W        W83138  18.985   5.180  13.425
17879W        W83139  33.592  29.048   5.013
17880W        W83140  43.023  12.779  13.487
17881W        W83141  39.550  24.296   3.520
17882W        W83142  29.558  14.261  14.592
17883W        W83143  20.226  42.940   0.230
17884W        W83144  44.922  41.756   3.654
17885W        W83145  33.727  19.213   0.907
17886W        W83146  12.032  44.061   2.973
17887W        W83147   8.366  25.551  10.467
17888W        W83148  31.435  41.468  12.043
17889W        W83149  39.959  17.313  12.533
17890W        W83150  27.447  39.640  12.058
17891W        W83151  38.274  21.454  12.031
17892W        W83152  39.588  36.576  10.622
17893W        W83153  41.282  15.203   4.095
17894W        W83154  17.660  42.499   2.896
17895W        W83155  39.420  14.048  14.681
17896W        W83156  17.077   7.721  14.422
17897W        W83157  26.928   6.454   2.737
17898W        W83158  13.010  25.418  12.353
17899W        W83159  29.969   1.534   1.828
17900W        W83160  42.635   7.382  13.974
17901W        W83161  16.104   9.722  11.420
17902W        W83162  29.624  18.499   0.732
17903W        W83163  22.048  31.649   2.824
17904W        W83164  29.671  37.411   3.126
17905W        W83165  13.317  44.104  13.941
17906W        W83166   4.384  31.914  12.869
17907W        W83167  15.775  19.331   1.446
17908W        W83168   8.642  15.188  12.436
17909W        W83169  24.060   8.147  11.416
17910W        W83170  15.087  10.381  11.068
17911W        W83171  23.224  37.180  10.142
17912W        W83172  34.321   6.287  11.967
17913W        W83173  20.521   2.375   1.734
17914W        W83174   1.486  30.992  11.494
17915W        W83175   2.837  17.568  12.389
17916W        W83176  39.966  44.240   1.356
17917W        W83177  36.086  21.699   0.304
17918W        W83178  20.694  36.690   2.892
17919W        W83179  32.116  32.004   0.379
17920W        W83180  10.685  44.735   3.148
17921W        W83181  31.899  12.843   1.343
17922W        W83182   0.981  10.260   0.426
17923W        W83183  14.622  41.068  10.347
17924W        W83184  17.689  31.020   0.223
17925W        W83185  36.479  40.014   0.913
17926W        W83186  44.028  18.359   3.804
17927W        W83187  14.873  26.541  12.477
17928W        W83188  15.839  42.430   2.719
17929W        W83189  38.624  17.247   4.299
17930W        W83190  40.281  27.158   0.473
17931W        W83191   3.830  33.755  11.825
17932W        W83192  12.313  20.328  12.442
17933W        W83193  12.499  11.275   0.078
17934W        W83194  37.429  25.140   2.539
17935W        W83195  31.102   8.369   2.773
17936W        W83196  18.769  32.153   0.534
17937W        W83197  27.699  36.465   4.629
17938W        W83198  27.228  10.244   0.007
17939W        W83199  41.437  37.845   0.945
17940W        W83200   8.088   9.402   5.066
17941W        W83201  10.881  29.973   1.424
17942W        W83202  24.759  42.146  14.130
17943W        W83203  22.246   0.897  10.603
17944W        W83204  20.496  34.486   3.062
17945W        W83205   2.057  30.899   2.291
17946W        W83206  39.224  25.404   4.814
17947W        W83207  13.193  44.479   1.812
17948W        W83208   8.696  43.900   0.204
17949W        W83209  20.531  15.173  14.412
17950W        W83210  31.213   4.081  11.165
17951W        W83211   6.970  33.819   4.124
17952W        W83212  13.816  43.550   3.900
17953W        W83213  23.486  17.494   2.603
17954W        W83214  26.787   2.233  12.037
17955W        W83215   8.699  13.266  12.915
17956W        W83216  11.122  29.517   3.422
17957W        W83217  31.351  23.497   4.572
17958W        W83218  43.905   0.510   1.233
17959W        W83219   5.493  12.576  13.470
17960W        W83220  27.708  17.665   3.914
17961W        W83221  41.786  22.458  13.774
17962W        W83222  40.889  12.275   3.157
17963W        W83223  17.114  10.306   2.575
17964W        W83224   8.945   6.342  12.637
17965W        W83225  30.661  19.584   1.807
17966W        W83226  16.785   4.816  11.896
17967W        W83227  16.194  12.650  11.020
17968W        W83228  39.579   2.620  10.532
17969W        W83229  41.912  30.945   2.749
17970W        W83230  35.396  41.177  11.577
17971W        W83231   0.393  17.510   4.160
17972W        W83232  38.063   5.427   5.049
17973W        W83233   2.266  27.976  12.999
17974W        W83234  17.836  23.327   2.203
17975W        W83235   9.444  25.065  13.588
17976W        W83236  28.576  13.718  12.994
17977W        W83237  35.365  13.313  11.705
17978W        W83238   2.530  21.568  12.411
17979W        W83239  27.112   3.563  11.221
17980W        W83240  12.007  28.017  14.030
17981W        W83241  10.751   9.679   2.285
17982W        W83242  34.072   9.842  13.855
17983W        W83243  16.251  19.837   2.651
17984W        W83244   1.332  39.018   3.812
17985W        W83245  41.025  23.980  11.103
17986W        W83246  26.877  36.415  13.079
17987W        W83247   1.829  30.948  11.068
17988W        W83248   0.725  16.635  10.434
17989W        W83249  21.942   3.019   4.085
17990W        W83250  34.067  20.635   3.588
17991W        W83251  20.207  18.743  12.459
17992W        W83252  18.813  41.016   2.433
17993W        W83253  32.262  16.800  11.531
17994W        W83254  20.696  41.881   2.319
17995W        W83255  38.542  12.230   4.592
17996W        W83256  28.998  33.318  11.535
17997W        W83257  31.526   3.386  10.773
17998W        W83258  32.986  32.999   4.672
17999W        W83259   5.348  36.131  14.157
18000W        W83260  27.633  36.996  13.820
18001W        W83261  42.613   1.895  14.406
18002W        W83262  40.809  16.215  13.273
18003W        W83263  33.657  41.757   2.322
18004W        W83264  33.719  39.997  12.068
18005W        W83265  37.634   5.388  13.452
18006W        W83266  19.806  10.745  12.389
18007W        W83267  40.084   0.780  14.038
18008W        W83268  37.835   2.358  12.429
18009W        W83269   2.247   7.947   4.114
18010W        W83270  19.857   2.532  10.849
18011W        W83271  44.425  20.924  11.319
18012W        W83272   0.659   0.553   2.861
18013W        W83273   2.217  26.640  13.341
18014W        W83274  42.285  31.050  13.582
18015W        W83275  22.655  34.055  12.919
18016W        W83276  10.176  13.362  10.771
18017W        W83277  17.702  21.801  10.331
18018W        W83278  26.255  22.032  11.160
18019W        W83279  28.588  13.208  13.090
18020W        W83280  17.369  24.655   2.157
18021W        W83281  33.058  25.451  13.355
18022W        W83282  38.946   6.130   0.768
18023W        W83283  14.353   6.996  12.294
18024W        W83284   9.062  24.097   3.736
18025W        W83285  43.479  18.001  14.424
18026W        W83286  34.560  19.668   1.733
18027W        W83287  20.677  10.289  13.845
18028W        W83288  29.192  11.417  11.533
18029W        W83289  11.829  40.192  13.437
18030W        W83290  21.568   2.451   1.926
18031W        W83291  19.225  10.242  11.160
18032W        W83292  32.760  15.188   3.927
18033W        W83293  10.786  31.580   4.546
18034W        W83294  37.018  10.629   4.172
18035W        W83295  28.542  27.679  13.636
18036W        W83296   6.467  44.412  13.384
18037W        W83297   3.934  30.478  13.475
18038W        W83298  28.548  34.327   4.602
18039W        W83299   3.672  22.632   1.806
18040W        W83300  27.813  43.819   1.406
18041W        W83301  23.360   1.178  11.572
18042W        W83302   1.944  18.086  11.670
18043W        W83303  43.225   7.290  14.979
18044W        W83304   1.774  16.679   3.102
18045W        W83305   5.716  13.147  13.964
18046W        W83306  26.432  44.556  14.343
18047W        W83307  37.859   5.843  13.570
18048W        W83308  43.497  39.202   3.864
18049W        W83309  29.602  29.829   4.759
18050W        W83310  27.398  15.281   1.708
18051W        W83311   4.874  15.368  12.954
18052W        W83312  36.392  35.407  11.045
18053W        W83313   5.466   0.655  13.958
18054W        W83314  19.819   4.447  11.787
18055W        W83315  24.174  18.048  12.156
18056W        W83316  41.219  23.156  10.835
18057W        W83317  18.261  38.541  14.085
18058W        W83318  42.484   5.853   0.825
18059W        W83319   5.899  32.096   3.761
18060W        W83320   5.431  27.740   2.352
18061W        W83321   1.826  43.491   4.632
18062W        W83322   0.964  30.215   9.982
18063W        W83323  33.815  39.043  11.186
18064W        W83324  43.498   7.165   3.707
18065W        W83325  13.813  31.897   3.697
18066W        W83326  44.204   1.480  14.588
18067W        W83327  43.570  14.658  10.598
18068W        W83328  21.778   3.777   0.050
18069W        W83329  21.001   4.903   2.393
18070W        W83330  29.378  39.992   4.127
18071W        W83331   8.469  18.911  12.043
18072W        W83332   0.332   8.749   3.421
18073W        W83333  17.500  37.934   2.606
18074W        W83334  13.494  14.956   2.070
18075W        W83335  23.934  23.530  12.821
18076W        W83336  34.885  31.050  14.019
18077W        W83337  41.048  42.325  13.332
18078W        W83338  31.489  22.982  10.156
18079W        W83339   7.625  18.362  13.022
18080W        W83340  14.164   3.882  13.876
18081W        W83341   6.933   7.860  13.459
18082W        W83342  29.703  40.959  12.196
18083W        W83343  39.535  38.102   3.464
18084W        W83344  21.054  12.779   3.575
18085W        W83345  14.763  15.001  10.583
18086W        W83346  28.496  38.394  10.558
18087W        W83347  18.292  38.529   2.313
18088W        W83348   5.470  13.148  11.709
18089W        W83349  24.427   1.862  12.076
18090W        W83350  44.275  43.267   4.311
18091W        W83351  20.003   7.927  14.757
18092W        W83352   7.659  18.214   1.304
18093W        W83353   4.819  44.485  13.244
18094W        W83354  13.155  16.996  11.468
18095W        W83355   0.184  44.270   2.026
18096W        W83356  40.500  41.676  11.230
18097W        W83357  28.911  18.791   1.297
18098W        W83358  44.261  33.106  12.361
18099W        W83359  20.505  28.453  10.732
18100W        W83360  18.047  29.887  13.221
18101W        W83361  41.572   0.352   2.171
18102W        W83362   5.746   4.954   2.410
18103W        W83363  20.269  12.637  10.154
18104W        W83364   6.310  44.162  12.893
18105W        W83365  19.718  34.605  11.224
18106W        W83366  20.586   1.378  10.743
18107W        W83367  41.421  17.510  13.954
18108W        W83368  19.488   2.817   3.776
18109W        W83369  30.499  32.141  14.985
18110W        W83370   3.329  41.066  11.900
18111W        W83371  36.347  30.681   1.692
18112W        W83372   2.809  17.831  14.982
18113W        W83373  20.993  39.104  13.895
18114W        W83374   7.893  28.924  11.622
18115W        W83375   8.963  12.143  11.978
18116W        W83376  14.296   0.661   5.327
18117W        W83377   1.434  39.291   4.660
18118W        W83378  23.668   7.283   1.954
18119W        W83379  11.443  24.952  13.379
18120W        W83380  14.617   7.327  14.044
18121W        W83381   1.968   3.665   4.177
18122W        W83382  17.147  39.749   0.248
18123W        W83383   1.930   0.330  11.031
18124W        W83384  33.446  30.501   4.705
18125W        W83385  25.262  31.342  11.575
18126W        W83386  15.366  39.668  12.470
18127W        W83387   4.924  23.001  11.909
18128W        W83388  44.072  16.369  10.310
18129W        W83389   9.855   5.337  12.433
18130W        W83390  38.112  19.249  13.895
18131W        W83391   8.268  24.246  13.676
18132W        W83392  12.517  28.604   1.395
18133W        W83393  14.281  19.567   0.701
18134W        W83394   6.688  14.590  12.668
18135W        W83395  40.853  22.324  10.495
18136W        W83396   5.435   3.336  10.090
18137W        W83397  43.389  44.375  12.014
18138W        W83398  43.733  16.816  11.983
18139W        W83399  36.131  16.230   1.746
18140W        W83400   2.520  35.032   1.028
18141W        W83401  25.489  10.555   1.719
18142W        W83402  37.427   1.423   0.807
18143W        W83403   6.690  32.194  12.467
18144W        W83404  26.200  37.068   4.505
18145W        W83405  31.443  25.528  14.858
18146W        W83406  41.846  30.066   4.516
18147W        W83407  33.438  32.538   1.293
18148W        W83408  26.227   0.142   2.328
18149W        W83409  19.065  41.396   4.637
18150W        W83410   8.298   5.905   4.481
18151W        W83411  38.774  28.502  14.377
18152W        W83412  13.717   6.220   2.331
18153W        W83413  39.847   8.260   4.184
18154W        W83414   2.187  17.707   2.187
18155W        W83415  36.350   4.831  10.302
18156W        W83416  23.724  30.954  13.962
18157W        W83417  17.344  16.814   2.994
18158W        W83418  25.638   8.564  13.683
18159W        W83419  30.889  13.848   1.971
18160W        W83420  31.589  19.306   1.176
18161W        W83421   5.904  33.530  10.407
18162W        W83422   9.784  36.585   0.695
18163W        W83423  21.587  40.836  12.949
18164W        W83424  17.314  36.054   2.122
18165W        W83425  35.375  30.951  13.975
18166W        W83426  26.227   4.633   9.849
18167W        W83427  20.029  18.003  14.409
18168W        W83428  39.099   1.913  11.506
18169W        W83429  37.664  22.190  10.743
18170W        W83430   3.380  16.315   2.254
18171W        W83431  42.216  38.326   3.903
18172W        W83432  37.934   4.873  13.634
18173W        W83433  44.023  29.169   1.896
18174W        W83434  39.442  18.341  11.183
18175W        W83435  27.512  14.989  12.258
18176W        W83436  26.391  17.193   2.884
18177W        W83437  16.095  35.002   1.856
18178W        W83438  18.613  29.858  14.842
18179W        W83439  44.283  25.691  12.963
18180W        W83440  29.124   2.311  11.210
18181W        W83441  43.035  21.559   0.712
18182W        W83442   4.229  32.552  12.901
18183W        W83443  43.340  41.516  12.158
18184W        W83444  39.942   6.201   4.626
18185W        W83445  39.551  37.302   1.735
18186W        W83446  31.082  21.352   3.253
18187W        W83447  16.780   6.298  14.334
18188W        W83448  18.290  33.142   1.367
18189W        W83449   4.838   5.173  13.914
18190W        W83450   1.820  24.041  10.008
18191W        W83451   0.261  14.927  13.079
18192W        W83452  26.449  15.164   3.767
18193W        W83453  28.325   2.289   4.853
18194W        W83454  32.901  38.595  13.490
18195W        W83455  31.994   3.639  10.627
18196W        W83456  24.651  12.129   1.256
18197W        W83457   6.392  33.405  13.263
18198W        W83458  19.227  40.592   1.284
18199W        W83459  13.833   1.818  13.583
18200W        W83460  30.582  19.245  10.775
18201W        W83461  32.997   7.081  12.561
18202W        W83462  14.878  20.238  11.096
18203W        W83463  15.733   0.816  11.701
18204W        W83464   2.886  39.599   0.722
18205W        W83465  44.737  41.976  14.502
18206W        W83466  24.435  11.964  14.825
18207W        W83467   8.655  16.204   4.633
18208W        W83468  24.607   1.898  13.862
18209W        W83469  15.853  25.619  13.916
18210W        W83470  23.255  31.585   4.235
18211W        W83471  41.042   7.185  12.080
18212W        W83472  14.741  28.390  14.491
18213W        W83473  19.771  33.395   3.217
18214W        W83474   5.194   5.518   0.367
18215W        W83475  30.650  38.348   0.399
18216W        W83476  33.634  36.031   2.929
18217W        W83477   5.341  15.378   4.448
18218W        W83478  18.189   9.923   4.224
18219W        W83479  37.361  22.981   4.338
18220W        W83480  25.927  39.419   2.466
18221W        W83481  18.701  17.404  11.014
18222W        W83482   7.179  19.078  14.522
18223W        W83483  21.926  10.727   3.814
18224W        W83484  38.855  30.070   3.641
18225W        W83485  28.222  33.169   2.114
18226W        W83486   6.192  31.925   1.940
18227W        W83487  29.229   2.447   4.552
18228W        W83488   7.962   9.990  11.114
18229W        W83489  40.530  28.165   1.335
18230W        W83490  10.716  38.589  12.431
18231W        W83491   3.050  10.122  10.704
18232W        W83492  30.131  31.646   3.529
18233W        W83493  42.515  36.019  13.562
18234W        W83494  32.532  32.574   1.957
18235W        W83495  24.760  34.323   1.459
18236W        W83496  31.677  11.014   4.949
18237W        W83497   9.700  27.882   0.685
18238W        W83498  19.321  33.736  13.058
18239W        W83499  40.578  12.259   0.643
18240W        W83500  37.043  32.570   1.048
18241W        W83501   3.523  42.895   0.368
18242W        W83502   6.009  13.866  13.471
18243W        W83503  23.217  15.264   0.847
18244W        W83504  19.456   4.199   4.599
18245W        W83505  44.046  17.828   4.636
18246W        W83506  22.347  31.929   5.017
18247W        W83507  34.950  29.396  11.150
18248W        W83508  39.832  20.309  11.534
18249W        W83509  18.787   1.021   4.030
18250W        W83510  12.402   2.563  14.449
18251W        W83511  41.057  27.927  14.220
18252W        W83512   2.843  42.202  11.555
18253W        W83513   0.305   9.406   0.942
18254W        W83514  38.871  17.301   2.464
18255W        W83515  40.100  12.361   0.469
18256W        W83516  33.932  34.911   4.835
18257W        W83517   5.205   7.795  13.802
18258W        W83518  31.693  29.004  14.863
18259W        W83519  30.047  22.332  11.237
18260W        W83520  37.363   6.858   2.335
18261W        W83521  25.907  40.461   1.278
18262W        W83522  23.491  32.461   4.941
18263W        W83523  41.947  36.085   3.399
18264W        W83524  30.461  43.615  14.065
18265W        W83525  31.566  29.686   4.627
18266W        W83526  33.139  37.454   5.054
18267W        W83527  31.713  23.996   3.722
18268W        W83528  27.453   5.302   3.157
18269W        W83529   0.743  36.610   1.751
18270W        W83530  37.158  19.178   3.804
18271W        W83531  16.333  33.304  10.681
18272W        W83532  18.903   7.172   0.444
18273W        W83533  20.636  32.021  11.736
18274W        W83534  30.892  15.328   2.774
18275W        W83535   1.197   8.526   3.316
18276W        W83536  35.826  26.051   1.873
18277W        W83537  40.923  32.838   2.779
18278W        W83538  30.050  31.150   2.791
18279W        W83539  41.357  42.501   2.226
18280W        W83540  19.122  38.306   0.381
18281W        W83541  13.660   6.004  14.345
18282W        W83542  43.885  19.678  14.341
18283W        W83543   0.268  18.531  10.607
18284W        W83544  43.323  15.625  10.661
18285W        W83545  11.162  30.700  12.725
18286W        W83546  36.747   6.936   0.845
18287W        W83547  25.811   7.047   1.268
18288W        W83548  44.825   3.486   4.590
18289W        W83549   1.657  36.899  12.467
18290W        W83550   1.469  33.594   3.843
18291W        W83551  13.748  42.568  12.477
18292W        W83552   2.138  40.429  14.441
18293W        W83553  38.067   8.272  13.878
18294W        W83554  13.556  25.526   4.244
18295W        W83555  15.233  15.055   1.754
18296W        W83556   6.791  11.117   2.331
18297W        W83557  29.194  12.828  12.427
18298W        W83558  25.078  24.213  13.175
18299W        W83559   1.021  27.986  14.518
18300W        W83560   2.970  17.809   0.494
18301W        W83561  28.430  34.042  12.829
18302W        W83562  25.410  11.904   2.359
18303W        W83563  17.216  22.972   4.869
18304W        W83564  37.345   0.934  14.389
18305W        W83565  40.788  23.015   0.017
18306W        W83566  44.373   5.483   3.157
18307W        W83567   5.828  30.924   2.722
18308W        W83568  18.201  20.785   2.523
18309W        W83569   7.663   9.801   3.886
18310W        W83570  27.654   3.344   4.930
18311W        W83571  11.046  17.339   1.892
18312W        W83572   2.426  32.531   4.206
18313W        W83573   5.340  27.550   0.940
18314W        W83574  17.079  29.591  10.582
18315W        W83575  32.373  24.310   0.947
18316W        W83576  42.854  28.992  14.834
18317W        W83577   6.542  24.395   4.269
18318W        W83578  40.893  19.665   0.981
18319W        W83579  14.641  40.252  13.281
18320W        W83580  40.890  26.501   1.529
18321W        W83581  13.367  27.968   0.515
18322W        W83582  28.015  27.027   1.958
18323W        W83583  43.952  31.549   1.209
18324W        W83584  15.297   0.815  11.435
18325W        W83585  24.115  35.396  12.033
18326W        W83586  30.007   6.925  11.698
18327W        W83587   0.881  33.557   1.739
18328W        W83588  39.404  16.146  13.099
18329W        W83589  19.700  10.271  12.170
18330W        W83590  26.687  25.657  13.836
18331W        W83591  11.289  16.051  13.589
18332W        W83592  37.180   0.382   2.306
18333W        W83593  27.445   9.737  12.457
18334W        W83594  27.562  39.208  10.830
18335W        W83595  11.132  13.625  13.353
18336W        W83596  11.101  11.191   2.744
18337W        W83597  44.814  23.611  11.016
18338W        W83598   8.593  29.519  13.451
18339W        W83599   4.152  27.014  13.256
18340W        W83600  42.287  29.889  14.044
18341W        W83601  13.161  23.938  11.136
18342W        W83602  24.484  25.250   4.190
18343W        W83603  20.690   5.791  14.464
18344W        W83604  29.996  35.663   5.002
18345W        W83605  43.482  31.351  14.902
18346W        W83606  44.960  33.582  12.375
18347W        W83607  32.086  16.729   0.615
18348W        W83608   5.669   7.898  12.497
18349W        W83609  15.887  39.881   3.394
18350W        W83610  11.769   2.470   4.492
18351W        W83611  18.759  16.294  12.443
18352W        W83612  41.347   1.352  13.948
18353W        W83613  41.852   5.784  12.897
18354W        W83614  31.684  30.562  14.347
18355W        W83615  34.647  30.598  13.090
18356W        W83616  35.344  29.602  13.778
18357W        W83617  22.756  26.632  11.166
18358W        W83618   5.701  13.831  11.439
18359W        W83619  10.562  41.023  10.744
18360W        W83620   7.343  11.267  14.768
18361W        W83621  32.910  36.576  13.946
18362W        W83622  37.054  20.306   4.633
18363W        W83623  28.210  36.505   2.180
18364W        W83624  23.698  28.576  14.826
18365W        W83625   8.694  40.574  11.851
18366W        W83626   9.296  21.774   0.780
18367W        W83627  30.040   7.399  14.381
18368W        W83628  35.977  41.507  10.684
18369W        W83629   2.404  37.415  11.076
18370W        W83630   1.336  18.652   1.623
18371W        W83631  22.047   2.333   0.753
18372W        W83632  41.293  19.688  10.650
18373W        W83633  27.856   0.218   1.355
18374W        W83634   7.968  20.979  11.501
18375W        W83635  34.593  29.402  13.354
18376W        W83636  41.742  13.667   1.770
18377W        W83637  16.098  41.470  13.037
18378W        W83638  22.547   6.101   4.708
18379W        W83639  29.839  37.076  13.561
18380W        W83640  44.960   8.612   9.568
18381W        W83641  15.155   0.027  14.948
18382W        W83642   7.227  35.723   4.599
18383W        W83643   6.527  40.313   0.698
18384W        W83644  10.075  26.744   0.393
18385W        W83645  16.771  26.568   2.149
18386W        W83646   8.909  31.501  14.898
18387W        W83647  24.502  30.523   0.478
18388W        W83648   6.216  35.494   4.529
18389W        W83649  24.532   8.734   1.255
18390W        W83650  24.236  21.004   3.763
18391W        W83651  27.797  34.058  11.642
18392W        W83652  30.137   7.022  12.184
18393W        W83653  13.273  34.399   4.526
18394W        W83654  35.051   6.695   4.754
18395W        W83655   7.316  11.948  13.461
18396W        W83656  29.812  19.757   4.841
18397W        W83657  41.431   8.696  13.369
18398W        W83658  24.598   2.512   1.283
18399W        W83659  34.296  36.244   4.696
18400W        W83660  20.465  36.564  13.477
18401W        W83661  25.610   0.202   0.780
18402W        W83662  31.097  11.642   1.149
18403W        W83663  22.037  29.832  11.573
18404W        W83664  40.925  11.803   2.851
18405W        W83665  26.242  34.937   0.714
18406W        W83666  14.807  14.798   1.394
18407W        W83667  11.799  12.626   3.599
18408W        W83668  29.915   8.001   3.039
18409W        W83669  44.094  30.093   3.199
18410W        W83670  36.089   3.947  13.250
18411W        W83671  30.453  44.075  14.991
18412W        W83672  39.604  32.692   0.952
18413W        W83673  32.544  21.184  12.468
18414W        W83674  18.741   5.172  14.124
18415W        W83675  42.097  17.689   1.732
18416W        W83676   6.850   3.378   0.465
18417W        W83677   6.808   9.392  12.441
18418W        W83678  29.527  27.769  11.409
18419W        W83679   3.960  16.990  14.709
18420W        W83680  30.845  35.514   4.397
18421W        W83681  41.960  29.300   1.305
18422W        W83682  44.041  27.926   0.303
18423W        W83683  42.492  40.119  13.898
18424W        W83684   5.195  29.992   2.601
18425W        W83685  35.315  43.044  12.143
18426W        W83686  33.704  35.897  13.083
18427W        W83687   1.961  30.868  11.584
18428W        W83688   8.685  20.338  14.830
18429W        W83689  31.066  37.992  11.248
18430W        W83690  18.506  10.172   4.798
18431W        W83691  34.321  18.197  10.710
18432W        W83692  39.078  40.290  14.267
18433W        W83693  39.308  22.300   1.738
18434W        W83694   7.791   1.924  12.476
18435W        W83695   0.596  24.280  13.020
18436W        W83696  40.994  34.452   3.905
18437W        W83697   8.226  10.629   4.735
18438W        W83698  32.948  10.714  14.904
18439W        W83699  28.640  18.234   3.714
18440W        W83700  38.553  24.505  14.429
18441W        W83701  23.665   7.218  10.769
18442W        W83702  12.625  37.542  10.453
18443W        W83703  16.778  41.937   0.421
18444W        W83704  29.002  15.771   4.234
18445W        W83705  37.921  39.945  12.868
18446W        W83706   2.254  31.483   4.617
18447W        W83707  37.872  41.649   0.878
18448W        W83708   3.495  22.590  12.809
18449W        W83709  31.075   3.132   1.808
18450W        W83710  36.035  40.774   3.347
18451W        W83711  36.745  44.049   3.649
18452W        W83712  12.007  41.141   5.127
18453W        W83713   3.022  43.250  12.111
18454W        W83714  28.487  44.576   3.264
18455W        W83715  17.219   4.125  12.494
18456W        W83716   8.769  18.201  14.341
18457W        W83717  31.546  22.779   4.071
18458W        W83718   4.674  27.446   1.747
18459W        W83719   6.181   1.962   3.240
18460W        W83720  12.933  42.454   1.910
18461W        W83721  10.603  10.686   1.473
18462W        W83722  22.880  15.034   4.825
18463W        W83723  37.411  26.213   2.397
18464W        W83724  42.801  11.759  14.741
18465W        W83725  15.807  20.748   3.071
18466W        W83726  44.771  22.360   3.645
18467W        W83727  32.869  13.420   2.515
18468W        W83728  43.562  12.351  13.541
18469W        W83729  22.127  25.187  12.622
18470W        W83730  20.185  39.674  14.812
18471W        W83731  21.798  32.714   2.226
18472W        W83732  23.981  18.223  14.407
18473W        W83733  43.963  15.711   3.948
18474W        W83734   6.333  36.209   0.226
18475W        W83735  11.037  39.818   1.183
18476W        W83736  35.084   6.737   4.246
18477W        W83737  24.746  32.464  12.469
18478W        W83738  30.591   6.768  12.081
18479W        W83739  19.513   6.643  12.525
18480W        W83740  11.147  22.549  13.001
18481W        W83741   6.410   2.170   4.169
18482W        W83742  25.741   6.608  13.947
18483W        W83743  20.198  32.928   3.536
18484W        W83744  36.386   0.750   1.857
18485W        W83745   7.859  27.637  11.175
18486W        W83746  28.058  14.166   4.108
18487W        W83747   3.857  32.816   2.363
18488W        W83748  22.620  41.585  10.741
18489W        W83749   4.257  15.202  12.865
18490W        W83750  11.760  16.043   0.816
18491W        W83751   0.760  43.593  13.983
18492W        W83752  22.594   9.933  12.955
18493W        W83753  24.241   8.119  14.201
18494W        W83754  39.205  16.090   1.964
18495W        W83755  19.740   9.806  13.768
18496W        W83756  29.118   7.175   4.510
18497W        W83757   9.161  18.567  13.810
18498W        W83758  33.628   4.725  12.426
18499W        W83759  16.694  18.226  14.267
18500W        W83760  34.977  19.673  14.883
18501W        W83761  20.194  37.592   5.056
18502W        W83762  43.871  22.042  12.136
18503W        W83763  22.651  15.309  11.644
18504W        W83764  25.539  38.033  13.918
18505W        W83765  37.435  31.116  12.510
18506W        W83766  38.531  31.138  11.676
18507W        W83767  22.130   1.789  13.028
18508W        W83768  35.084  35.447   3.753
18509W        W83769  40.223  36.147  12.248
18510W        W83770  14.688  10.082   3.833
18511W        W83771  21.231  21.913   1.758
18512W        W83772  38.490  23.353   3.833
18513W        W83773  44.523  13.604   2.176
18514W        W83774   2.550  16.727  12.409
18515W        W83775  39.818  23.250  12.916
18516W        W83776  22.688  18.640  10.420
18517W        W83777   9.028  22.832  11.976
18518W        W83778   9.133  28.172  11.189
18519W        W83779   3.333   1.224  14.397
18520W        W83780   9.724  33.163  12.609
18521W        W83781  26.581  32.227   4.076
18522W        W83782  23.941  15.115  11.441
18523W        W83783  12.623  15.980   2.723
18524W        W83784  10.104  16.574   2.716
18525W        W83785  25.914  16.021   9.730
18526W        W83786  27.631  20.048   1.470
18527W        W83787  39.803  16.217   0.498
18528W        W83788  15.119  19.083   4.644
18529W        W83789  27.130   6.296   1.893
18530W        W83790  13.410  34.467  11.604
18531W        W83791  12.357  29.099  10.564
18532W        W83792  22.158  34.031   2.440
18533W        W83793   6.362  29.573   0.398
18534W        W83794  37.844  38.339  10.311
18535W        W83795  38.231  21.539   2.919
18536W        W83796  37.852  36.128   3.623
18537W        W83797   6.455  17.757   0.202
18538W        W83798   3.238   0.848  14.021
18539W        W83799  14.176  36.335  13.551
18540W        W83800  25.167   7.911   1.752
18541W        W83801  13.406   7.558  14.259
18542W        W83802  29.176  28.698   0.252
18543W        W83803  13.535  32.050   2.190
18544W        W83804  39.317   8.756  13.675
18545W        W83805  14.708  44.613  10.247
18546W        W83806  41.055  27.597   3.902
18547W        W83807  25.666   6.653   4.529
18548W        W83808  39.364  12.815   4.507
18549W        W83809  37.392  32.224   1.786
18550W        W83810   7.274  34.356  12.051
18551W        W83811  10.709   3.434   1.302
18552W        W83812  24.047  23.111  12.517
18553W        W83813  28.896  14.364   4.578
18554W        W83814  24.568  37.412  12.536
18555W        W83815  42.993  34.209  11.161
18556W        W83816  18.599  42.038   2.740
18557W        W83817  16.247   7.754   1.237
18558W        W83818  34.780   4.497   2.788
18559W        W83819  40.034  42.360  13.023
18560W        W83820  38.927  31.107   1.305
18561W        W83821   7.161  22.666  12.057
18562W        W83822  34.098  15.130   2.737
18563W        W83823  26.622  37.293   4.251
18564W        W83824  36.646  26.443   1.814
18565W        W83825  23.435  41.520  14.914
18566W        W83826  20.184  22.924  11.429
18567W        W83827   8.831   1.871   3.329
18568W        W83828  15.237  40.571   0.803
18569W        W83829  42.002  24.245   4.984
18570W        W83830   9.908  11.680  11.483
18571W        W83831   4.892  19.737  14.834
18572W        W83832  15.753   8.661  12.893
18573W        W83833   2.310   9.365   4.032
18574W        W83834   4.217  32.798   0.042
18575W        W83835  41.211  29.074   0.333
18576W        W83836  23.300  15.085   3.066
18577W        W83837  31.396  42.241  14.773
18578W        W83838  20.847   1.459   2.447
18579W        W83839  14.814  43.894  12.404
18580W        W83840  42.373   2.434  12.366
18581W        W83841  11.652  28.211   2.303
18582W        W83842  18.648  34.854   2.053
18583W        W83843  21.065  12.776   0.392
18584W        W83844  17.032  41.982  13.995
18585W        W83845  34.788  10.174  10.721
18586W        W83846  31.945   9.166  14.060
18587W        W83847  15.246   4.781  12.904
18588W        W83848  14.222  29.337   0.044
18589W        W83849  10.728  23.220   4.250
18590W        W83850  16.143  39.387  11.188
18591W        W83851  31.403  41.555   0.721
18592W        W83852  30.489  41.264  11.080
18593W        W83853  13.735  42.731  11.989
18594W        W83854  24.448  36.395   0.291
18595W        W83855  31.326  23.538   1.729
18596W        W83856  15.155  12.058   0.339
18597W        W83857  39.413  24.253   2.625
18598W        W83858  24.832  21.813   4.989
18599W        W83859   6.459  41.048   1.356
18600W        W83860  25.559  42.671  13.363
18601W        W83861  19.774  26.482  12.376
18602W        W83862  19.957  30.181  12.969
18603W        W83863  10.533   9.740  13.308
18604W        W83864  33.124  44.303   3.208
18605W        W83865  23.468   9.230   5.136
18606W        W83866  14.773  41.961  11.516
18607W        W83867  37.503  32.952   4.509
18608W        W83868  38.637   7.134   5.032
18609W        W83869  32.954   9.259   1.151
18610W        W83870  11.831   0.048   3.700
18611W        W83871  38.803   1.820  13.603
18612W        W83872   7.142  12.821   1.749
18613W        W83873  38.972  14.181  10.976
18614W        W83874  10.227   6.800   1.315
18615W        W83875   9.295  30.939   0.203
18616W        W83876  35.500  27.754   3.045
18617W        W83877  21.343  19.929  13.435
18618W        W83878   3.455   3.663  14.508
18619W        W83879  38.530  41.712  13.957
18620W        W83880  10.004  11.331  14.718
18621W        W83881  31.476  43.918  10.724
18622W        W83882  36.413  39.416  14.513
18623W        W83883  41.011  16.822   0.475
18624W        W83884  41.537  22.965  14.400
18625W        W83885  42.915  42.258  14.064
18626W        W83886  30.053   2.718   3.693
18627W        W83887   5.936  36.573   1.329
18628W        W83888  40.345   8.395   2.439
18629W        W83889   8.882  40.818  14.132
18630W        W83890   1.424  26.563   0.047
18631W        W83891  27.556  41.459  10.695
18632W        W83892  25.660  12.868  11.722
18633W        W83893  25.522  34.323  12.573
18634W        W83894  26.994  16.572  12.354
18635W        W83895  29.505  29.188   3.725
18636W        W83896  34.003  25.131  12.457
18637W        W83897  31.625  33.683   4.212
18638W        W83898  30.799  20.708   1.408
18639W        W83899  36.550   0.021   1.326
18640W        W83900  19.214  39.919  13.515
18641W        W83901   1.964  14.586   2.652
18642W        W83902  11.303   7.871   2.398
18643W        W83903  29.830  22.930  13.731
18644W        W83904  26.645  40.210  12.073
18645W        W83905  17.206  39.018   5.095
18646W        W83906  19.932  25.601  14.769
18647W        W83907  39.343  16.041   3.424
18648W        W83908  39.106  38.035  14.819
18649W        W83909  13.554  29.826   3.520
18650W        W83910  20.820  35.627   0.913
18651W        W83911   4.053  29.350  14.317
18652W        W83912  30.040  21.172   9.900
18653W        W83913   2.744   4.163  11.128
18654W        W83914  31.656  38.849   1.657
18655W        W83915  10.842  13.599  11.549
18656W        W83916  22.963  32.529  11.814
18657W        W83917   2.327  17.996  11.204
18658W        W83918   6.351  39.349  14.307
18659W        W83919   1.772   7.168   1.345
18660W        W83920   6.008  12.390  12.786
18661W        W83921  12.113   2.937   2.233
18662W        W83922  15.387   6.782   4.867
18663W        W83923  39.182  21.807  13.312
18664W        W83924  43.875  12.159  13.933
18665W        W83925   6.737  44.236  13.797
18666W        W83926  27.916  20.205  11.910
18667W        W83927  41.385   5.164   4.590
18668W        W83928   6.300  37.976  11.956
18669W        W83929  11.862  21.672   4.392
18670W        W83930  35.389  15.362   2.311
18671W        W83931  13.035   9.895   4.049
18672W        W83932  23.114   3.410  11.576
18673W        W83933  15.589   2.935  12.186
18674W        W83934   8.274   0.222   0.861
18675W        W83935  33.009  12.137  12.003
18676W        W83936  29.897   7.249  13.901
18677W        W83937  28.382  20.175  12.132
18678W        W83938  13.764  27.034   4.935
18679W        W83939  33.969  23.685  11.460
18680W        W83940  12.255  13.110  13.692
18681W        W83941  16.331  36.921   1.940
18682W        W83942  42.953  31.988  12.347
18683W        W83943  40.834  34.436  11.169
18684W        W83944   9.290  24.714  12.685
18685W        W83945  19.189  28.487  12.193
18686W        W83946  43.330  12.317  14.028
18687W        W83947  28.090  34.398   4.281
18688W        W83948  16.119  26.615   0.438
18689W        W83949  44.247  13.443  10.923
18690W        W83950   1.164  41.826  10.675
18691W        W83951   5.048   2.030  13.422
18692W        W83952  10.840  24.774  11.447
18693W        W83953  32.981  10.324  10.695
18694W        W83954  17.956  16.820   3.593
18695W        W83955  38.354  40.936  11.680
18696W        W83956  30.817  38.933  13.372
18697W        W83957  34.038   3.028   0.715
18698W        W83958   1.474  30.616  13.518
18699W        W83959  15.918  24.007   0.501
18700W        W83960  40.547  29.057   4.049
18701W        W83961  38.044  20.657   3.181
18702W        W83962  27.039  20.656   2.077
18703W        W83963  30.636  40.747  11.092
18704W        W83964  29.993  10.162   0.003
18705W        W83965  11.244  10.858   1.751
18706W        W83966  40.348  25.673  11.565
18707W        W83967  10.883  15.101  12.849
18708W        W83968  37.127  44.417   3.696
18709W        W83969   8.231   1.995   4.144
18710W        W83970  11.913  15.270   2.894
18711W        W83971  24.501   1.229   2.689
18712W        W83972   0.413  30.034  10.733
18713W        W83973  37.458  36.487   3.630
18714W        W83974  15.880  30.382   5.181
18715W        W83975  32.860  24.586  10.739
18716W        W83976  44.494  12.557  13.497
18717W        W83977  34.579   6.350   1.057
18718W        W83978  33.826  23.717  11.953
18719W        W83979  38.533   0.309   1.484
18720W        W83980  11.419   6.296  13.791
18721W        W83981  31.612  23.955  11.986
18722W        W83982   4.821  28.125   4.832
18723W        W83983   2.465  14.071  11.106
18724W        W83984  27.556   7.644   1.154
18725W        W83985  20.324   8.961  11.031
18726W        W83986  34.050  39.489  11.383
18727W        W83987  14.758  29.672   3.372
18728W        W83988  42.542  11.345  14.947
18729W        W83989   4.084   3.828  12.046
18730W        W83990  12.038  18.533  13.383
18731W        W83991  36.243  29.664   1.774
18732W        W83992  43.345   3.477  14.927
18733W        W83993  41.916  31.810   0.704
18734W        W83994  39.684   1.265   0.151
18735W        W83995  36.567  16.811   3.233
18736W        W83996   4.821  38.035   3.772
18737W        W83997  36.428  33.258  13.112
18738W        W83998   0.715  23.123   1.928
18739W        W83999   9.198  21.901   3.196
18740W        W84000  42.302  27.076  11.654
18741W        W84001  17.272  24.984   0.249
18742W        W84002  44.372  40.832  10.841
18743W        W84003   2.277  29.437   4.644
18744W        W84004  39.563  23.120   2.914
18745W        W84005   2.756   8.342   3.324
18746W        W84006   3.727  27.427   1.661
18747W        W84007   7.666   9.723   4.452
18748W        W84008  17.050   2.923   0.649
18749W        W84009   5.194  33.899  10.721
18750W        W84010   6.648  27.727  13.261
18751W        W84011  24.209   8.928   4.275
18752W        W84012  10.483  37.507   2.916
18753W        W84013  20.525  23.487   2.250
18754W        W84014  15.527  22.492  14.287
18755W        W84015  15.403  27.835  11.576
18756W        W84016  29.641  11.874   1.551
18757W        W84017   9.122  16.548  13.392
18758W        W84018  11.428   6.925  13.422
18759W        W84019   6.004  40.534  10.762
18760W        W84020  26.435  29.069  13.508
18761W        W84021   1.275  33.171   1.956
18762W        W84022  30.436   5.647   0.200
18763W        W84023  30.094   4.701   4.518
18764W        W84024  10.920   7.429   2.635
18765W        W84025  31.967  40.076   2.088
18766W        W84026  21.750  39.425   0.324
18767W        W84027   9.799  16.379  13.568
18768W        W84028  19.750  26.004  11.506
18769W        W84029  10.511  14.684   3.802
18770W        W84030  37.000  20.104  13.432
18771W        W84031  14.926  41.871   4.718
18772W        W84032  13.147  39.197   1.406
18773W        W84033   7.635  37.794   2.704
18774W        W84034  35.710  35.329  14.092
18775W        W84035  38.064  44.864  13.375
18776W        W84036  39.527  13.082   1.774
18777W        W84037  38.712   4.972  14.420
18778W        W84038  26.404  27.593  11.027
18779W        W84039   1.832  22.539  14.154
18780W        W84040   1.251  11.765  13.075
18781W        W84041  33.964   6.835   1.546
18782W        W84042  36.048   0.807  14.039
18783W        W84043  20.712  39.203  12.943
18784W        W84044   3.069   1.038  14.913
18785W        W84045   4.149  42.441   0.694
18786W        W84046  20.904   4.458   4.209
18787W        W84047   3.860   0.238  12.994
18788W        W84048  24.634   1.018   0.445
18789W        W84049  19.186  32.623   4.411
18790W        W84050  37.412   0.872  11.646
18791W        W84051  34.221  28.541  12.353
18792W        W84052  12.798  14.485   0.722
18793W        W84053  39.431  20.026  10.682
18794W        W84054  42.508   4.658   1.349
18795W        W84055   4.329  23.528   2.773
18796W        W84056   8.823  31.869   3.265
18797W        W84057  43.974  14.223   3.557
18798W        W84058  14.729  29.218  13.808
18799W        W84059  33.084   9.393   1.617
18800W        W84060  43.264   0.584   1.903
18801W        W84061  28.501   6.867  14.463
18802W        W84062  31.564   4.297  13.152
18803W        W84063   0.174  40.041  11.992
18804W        W84064  36.102  26.701   2.668
18805W        W84065  42.043  18.806  13.803
18806W        W84066   4.838  28.069  10.025
18807W        W84067  30.110  31.200   3.790
18808W        W84068  31.410  29.142   2.516
18809W        W84069   7.702  21.997   4.223
18810W        W84070   0.907  28.437   2.215
18811W        W84071  12.485  26.110   0.305
18812W        W84072   8.063  17.651  12.451
18813W        W84073   2.192  36.049  12.489
18814W        W84074  42.969  41.832   4.051
18815W        W84075  12.740   5.385   4.434
18816W        W84076  38.726   2.153   1.842
18817W        W84077  30.475  28.296   1.734
18818W        W84078   1.971  31.054   4.620
18819W        W84079  34.554  42.415  11.947
18820W        W84080  10.750  30.394   0.690
18821W        W84081  20.838  18.663   2.222
18822W        W84082  44.320   6.651   0.244
18823W        W84083  32.413  39.807   4.051
18824W        W84084  33.828   3.375  14.687
18825W        W84085  23.256   0.698  14.373
18826W        W84086  18.572   8.904   3.903
18827W        W84087  25.587  40.041   1.334
18828W        W84088   5.786  41.955   2.292
18829W        W84089  38.906   6.002   1.261
18830W        W84090  30.308  17.151   2.832
18831W        W84091  19.995   4.586   2.405
18832W        W84092  11.822   6.151  11.996
18833W        W84093  33.620  13.916   0.421
18834W        W84094  23.252  33.231   2.370
18835W        W84095  40.023  32.761  11.859
18836W        W84096  35.667   9.832  13.437
18837W        W84097  13.934  21.261  14.896
18838W        W84098  19.303  43.518  12.966
18839W        W84099  26.220  14.641  12.570
18840W        W84100   3.010  10.350   4.106
18841W        W84101  43.168   6.540  13.339
18842W        W84102  18.011  34.928  11.223
18843W        W84103   8.230   7.423   0.422
18844W        W84104  27.138  16.758   0.657
18845W        W84105  25.220  26.406  13.321
18846W        W84106  26.500   7.281  12.396
18847W        W84107  21.513  10.233   3.386
18848W        W84108  22.038  21.039  12.032
18849W        W84109  23.725  25.061  13.644
18850W        W84110  16.346   8.263  13.998
18851W        W84111  15.376  10.678   1.497
18852W        W84112   2.790  41.067   0.022
18853W        W84113  22.313  43.539  13.491
18854W        W84114   0.998  35.501  14.883
18855W        W84115   7.610  24.142  12.023
18856W        W84116   6.839   7.363  10.711
18857W        W84117   1.324  27.856  11.848
18858W        W84118  23.974   2.158   0.313
18859W        W84119   2.424  30.096  12.660
18860W        W84120  37.197  19.186   2.788
18861W        W84121  36.816  33.600  11.298
18862W        W84122   2.405  31.086   0.400
18863W        W84123   2.333  33.046   4.077
18864W        W84124  17.195  15.170   4.546
18865W        W84125  18.316  15.105   3.591
18866W        W84126  30.261  42.293   4.080
18867W        W84127   5.763  22.606  11.047
18868W        W84128  43.504  12.714   3.413
18869W        W84129  27.652  29.698   4.069
18870W        W84130   8.412  23.560   0.910
18871W        W84131  20.663  15.653  12.342
18872W        W84132   8.984   5.606  14.330
18873W        W84133  28.608   6.723   0.421
18874W        W84134  20.025  28.587   0.975
18875W        W84135  42.388  17.454  13.535
18876W        W84136  41.763  24.549  14.796
18877W        W84137  16.743   6.377   2.134
18878W        W84138  19.918  29.107   0.780
18879W        W84139   5.620  27.085  10.764
18880W        W84140  16.546  27.887   0.502
18881W        W84141  29.087   8.345   1.399
18882W        W84142  16.186  34.460   1.740
18883W        W84143  19.727  27.938  10.748
18884W        W84144  23.609  27.527  13.455
18885W        W84145  23.234  23.562   4.746
18886W        W84146  28.438  24.530   9.728
18887W        W84147  31.544  26.203  13.672
18888W        W84148   6.196  12.327   1.237
18889W        W84149   9.722   0.934  13.788
18890W        W84150  14.720   9.287   2.145
18891W        W84151  20.098  38.557  11.962
18892W        W84152  10.553  35.885   3.770
18893W        W84153  37.833  21.682   3.783
18894W        W84154  14.868   8.406   0.824
18895W        W84155  41.772  15.218  14.873
18896W        W84156  27.667  27.876   1.705
18897W        W84157  25.745  20.783  13.534
18898W        W84158   5.810   9.444   1.834
18899W        W84159  37.538  16.546   4.170
18900W        W84160  14.587  14.647   2.835
18901W        W84161  16.298  30.399   3.171
18902W        W84162  11.919  34.253  10.145
18903W        W84163  43.805  31.437  13.584
18904W        W84164  30.524  10.766  12.176
18905W        W84165  37.354  26.636  14.146
18906W        W84166  33.373  15.220  10.713
18907W        W84167  27.802  20.551  13.410
18908W        W84168  35.007   9.648   2.164
18909W        W84169  19.329  31.214   0.002
18910W        W84170  30.834   2.773   2.102
18911W        W84171   2.714  43.719   4.145
18912W        W84172  12.129  40.545   2.238
18913W        W84173   0.906  37.327   0.319
18914W        W84174  29.393  21.161   0.827
18915W        W84175  37.570  44.117  12.901
18916W        W84176  18.764   9.647  14.372
18917W        W84177  35.575  21.696   1.730
18918W        W84178  13.789  21.278   0.755
18919W        W84179  36.365  32.840   3.653
18920W        W84180  37.858  42.408  11.504
18921W        W84181  39.139  22.291   3.995
18922W        W84182   5.180   8.057   3.750
18923W        W84183  29.601  24.893  11.139
18924W        W84184  40.861  26.702   0.069
18925W        W84185  25.047  38.507  14.284
18926W        W84186   7.849  39.607  13.238
18927W        W84187  39.782  36.994   4.148
18928W        W84188  44.562  41.615   0.327
18929W        W84189  37.313  14.053   0.056
18930W        W84190  21.261  21.512  14.362
18931W        W84191  26.600   3.777   1.876
18932W        W84192  32.197   4.444  14.421
18933W        W84193  26.309  10.643  14.150
18934W        W84194  17.495  22.650   4.556
18935W        W84195  29.640   5.223   1.232
18936W        W84196   8.649   6.412  14.001
18937W        W84197  35.589  34.270   4.062
18938W        W84198  44.991  43.755   4.145
18939W        W84199  44.746  36.941   0.008
18940W        W84200  43.523  38.059   4.127
18941W        W84201  27.961  24.514   5.044
18942W        W84202   6.823  23.360   1.783
18943W        W84203  39.652   2.779  14.808
18944W        W84204  25.064  27.405   2.303
18945W        W84205  42.232   3.187  12.983
18946W        W84206  33.705  33.061   0.452
18947W        W84207   5.923  37.263  13.484
18948W        W84208  36.459  39.479  12.611
18949W        W84209   1.744  37.311   4.150
18950W        W84210  42.921  42.399   1.025
18951W        W84211   5.272  42.432  14.922
18952W        W84212  27.074  33.064  12.181
18953W        W84213  43.251  26.056   3.286
18954W        W84214  10.337  14.208   2.434
18955W        W84215   0.905  37.051  11.864
18956W        W84216  39.605  28.962  14.341
18957W        W84217  32.079  33.575  12.485
18958W        W84218   8.841   9.886  11.166
18959W        W84219   7.180  43.906  14.956
18960W        W84220  17.109   8.250   4.490
18961W        W84221  25.028  33.453  14.297
18962W        W84222   9.353  30.453  12.835
18963W        W84223  15.077  24.938   2.348
18964W        W84224  24.053  17.671  14.475
18965W        W84225  21.460  43.455   2.834
18966W        W84226  28.695  22.484   1.237
18967W        W84227  15.044  23.745   1.185
18968W        W84228  34.395  39.066  12.679
18969W        W84229  36.500  28.692   1.161
18970W        W84230  14.023  10.246  14.832
18971W        W84231  18.985   0.574  11.114
18972W        W84232  19.803  17.016  12.956
18973W        W84233  37.482  26.698   4.623
18974W        W84234  32.475  39.569   4.559
18975W        W84235  35.099  32.507  13.710
18976W        W84236   7.728  27.240  13.599
18977W        W84237   7.404  20.297  11.623
18978W        W84238  11.204  38.143   4.652
18979W        W84239  20.057  23.218  11.985
18980W        W84240  13.261  38.560   2.359
18981W        W84241  12.594  32.753  11.642
18982W        W84242  21.655  19.367  12.879
18983W        W84243   0.977  33.534  14.661
18984W        W84244  15.087  31.435  14.872
18985W        W84245  43.338   2.310  11.970
18986W        W84246  12.746  36.028   4.577
18987W        W84247   9.123  32.791   3.321
18988W        W84248  18.165  39.512  10.737
18989W        W84249  32.534  30.471  11.892
18990W        W84250  43.558  38.095   3.166
18991W        W84251  16.279  28.064  12.152
18992W        W84252   2.006  30.052   3.750
18993W        W84253  16.704  13.078   0.205
18994W        W84254  20.719  17.024  10.528
18995W        W84255  40.010  15.283  12.073
18996W        W84256  14.217  13.590   3.298
18997W        W84257   7.708  37.195   2.200
18998W        W84258  13.690  44.811   2.262
18999W        W84259  40.691   9.190   2.756
19000W        W84260  39.362  41.061  14.119
19001W        W84261   7.328  41.365   1.491
19002W        W84262  34.594  42.336  14.541
19003W        W84263  34.049  26.493  12.652
19004W        W84264   6.086   8.131   0.255
19005W        W84265  27.162  34.481  10.710
19006W        W84266  10.759  18.654  10.695
19007W        W84267  43.805  13.093   3.198
19008W        W84268  36.367   2.853   3.798
19009W        W84269  41.620  39.827  11.671
19010W        W84270   7.432  25.748  13.631
19011W        W84271  33.930  37.804  10.897
19012W        W84272   9.370  40.676   0.364
19013W        W84273  44.101  44.504   2.876
19014W        W84274  35.172  30.907   0.327
19015W        W84275  41.001  19.569  13.578
19016W        W84276  16.590  25.690  12.502
19017W        W84277   1.207  41.954   2.925
19018W        W84278  41.472  34.467   4.379
19019W        W84279  16.234  10.630   4.231
19020W        W84280  38.370  13.093   2.271
19021W        W84281  24.633  42.854  11.166
19022W        W84282   9.114   7.366   0.806
19023W        W84283  40.443   6.705  10.485
19024W        W84284  20.579   5.227  14.418
19025W        W84285  27.714  14.845   2.428
19026W        W84286  39.947  43.776  14.070
19027W        W84287   6.641   1.673  12.058
19028W        W84288   9.245   0.048   2.394
19029W        W84289   6.195  33.477   4.498
19030W        W84290  12.626   0.709  14.915
19031W        W84291  33.802   6.235  10.128
19032W        W84292   9.263  13.747  11.066
19033W        W84293  17.261   6.227  12.162
19034W        W84294  27.579  21.707  10.654
19035W        W84295  33.038   1.993  11.919
19036W        W84296  21.527  36.784   3.177
19037W        W84297  32.572  24.988  13.254
19038W        W84298  44.343  17.216   4.970
19039W        W84299  22.557  43.558   0.376
19040W        W84300   5.655   3.984   0.442
19041W        W84301  17.798  32.562   3.207
19042W        W84302   0.134  39.365  14.498
19043W        W84303   6.366  15.756  14.718
19044W        W84304  27.054  39.609   0.423
19045W        W84305   0.562  23.596   1.358
19046W        W84306  39.955   4.156  13.406
19047W        W84307   6.676  15.304   2.178
19048W        W84308  11.300  10.369  13.859
19049W        W84309  37.414  37.934   3.267
19050W        W84310  39.559  20.308  11.096
19051W        W84311  37.035  24.706  12.497
19052W        W84312   0.772  41.777   4.662
19053W        W84313   5.457  32.918   0.880
19054W        W84314  28.770   5.885  12.149
19055W        W84315   3.168  14.704   3.301
19056W        W84316  13.571  12.175  10.871
19057W        W84317   0.499  16.048  11.927
19058W        W84318  22.194  18.575   3.114
19059W        W84319  31.417  40.853  14.913
19060W        W84320  18.595  44.479   1.764
19061W        W84321   0.697  18.931  11.007
19062W        W84322  13.273  38.982  11.602
19063W        W84323  42.902  40.398   4.949
19064W        W84324   5.669  24.594  13.328
19065W        W84325  30.134   6.841  13.069
19066W        W84326  35.866  14.717   0.672
19067W        W84327  12.551  38.309  12.049
19068W        W84328  10.866  34.107   1.716
19069W        W84329  43.320   6.234   3.654
19070W        W84330  31.341  41.386  12.592
19071W        W84331  23.039   9.788   3.202
19072W        W84332  28.498   4.869   0.978
19073W        W84333  24.991  27.172  10.736
19074W        W84334   7.701  23.788   3.533
19075W        W84335  17.642  16.956   1.330
19076W        W84336  15.730  44.732  13.883
19077W        W84337  26.777  35.387  11.981
19078W        W84338  41.043  41.663   2.234
19079W        W84339   3.484  10.289  12.935
19080W        W84340  28.655  32.176  12.579
19081W        W84341  28.232   8.982   3.693
19082W        W84342  43.669  24.520   3.229
19083W        W84343  19.297  32.984   4.075
19084W        W84344   7.425  30.226  11.585
19085W        W84345   6.526  44.463   2.932
19086W        W84346   8.469  18.091  14.733
19087W        W84347   1.089  23.773   4.544
19088W        W84348  30.010   3.533  11.278
19089W        W84349  17.120   8.651  10.163
19090W        W84350  20.995  18.830   3.700
19091W        W84351  22.597  32.491  11.427
19092W        W84352  28.186  18.751  10.555
19093W        W84353  25.736  40.594   2.260
19094W        W84354  32.720  39.139  13.780
19095W        W84355   1.712  17.669  12.899
19096W        W84356  19.758  32.694   3.496
19097W        W84357  35.422  25.194  10.679
19098W        W84358  23.341  20.334  10.743
19099W        W84359  21.077  31.929   0.331
19100W        W84360  22.115  32.649  11.555
19101W        W84361  36.950  20.582   1.931
19102W        W84362  34.827  30.541  14.826
19103W        W84363  18.951  40.782  13.601
19104W        W84364  41.023  20.565  14.969
19105W        W84365  40.318   0.967   1.843
19106W        W84366  17.915  15.926   4.576
19107W        W84367  39.787  37.344  14.916
19108W        W84368  40.057   2.862   1.733
19109W        W84369  26.161  41.963  13.693
19110W        W84370  38.465   3.345   0.751
19111W        W84371  22.458  15.147   0.366
19112W        W84372   9.575   6.877   1.814
19113W        W84373  15.653   4.222  14.269
19114W        W84374  20.761   9.289   3.212
19115W        W84375   6.910   2.149   0.767
19116W        W84376  36.092  12.769   2.643
19117W        W84377  11.213   5.206   0.331
19118W        W84378  21.496  39.338   3.428
19119W        W84379   5.861  28.520   0.184
19120W        W84380  23.146  24.025   1.594
19121W        W84381  13.542  35.860  13.924
19122W        W84382  11.727   7.155  14.329
19123W        W84383   8.187   3.264  13.782
19124W        W84384  44.049  40.756   2.744
19125W        W84385  16.410  14.243   1.677
19126W        W84386  41.766  42.813   2.046
19127W        W84387   5.389   5.912  13.369
19128W        W84388  33.905  21.808  13.842
19129W        W84389  26.662  32.687   1.833
19130W        W84390   6.618   1.912   0.380
19131W        W84391  19.684  16.635   1.816
19132W        W84392  27.981  25.732   0.787
19133W        W84393  35.000   8.553  12.528
19134W        W84394  15.343  22.085   1.235
19135W        W84395   6.684   1.035   3.583
19136W        W84396  42.209  15.537   0.749
19137W        W84397  29.624   1.196  13.300
19138W        W84398  24.350  13.188   4.835
19139W        W84399  12.790  11.291   3.402
19140W        W84400   3.506  17.519   2.723
19141W        W84401  18.622  29.980   3.246
19142W        W84402  40.900  43.515   4.342
19143W        W84403  22.316  39.891   4.332
19144W        W84404  40.115  37.924   1.113
19145W        W84405   0.300   2.256  10.677
19146W        W84406  20.582  12.223  13.446
19147W        W84407  26.053   3.509  13.322
19148W        W84408  42.938  11.240  14.477
19149W        W84409  13.349  31.679  14.151
19150W        W84410  42.409  14.599   0.433
19151W        W84411   9.756  19.063   4.374
19152W        W84412  28.978   0.883  14.457
19153W        W84413  15.708  24.620  10.962
19154W        W84414   9.138  42.474   4.826
19155W        W84415   6.261  24.926  12.823
19156W        W84416  35.505   0.481   4.857
19157W        W84417  37.412  16.250   0.508
19158W        W84418  39.287  31.077   1.706
19159W        W84419   6.907   1.159  11.231
19160W        W84420  31.513  41.049  14.339
19161W        W84421  37.420   9.290   1.021
19162W        W84422  27.117  10.090   3.274
19163W        W84423   8.512  33.463   3.250
19164W        W84424  23.592  39.612   1.836
19165W        W84425  25.649   2.504   1.397
19166W        W84426  28.239  28.636   1.242
19167W        W84427   3.115  43.726   3.391
19168W        W84428  25.342  24.755  12.564
19169W        W84429  23.729  24.235  12.072
19170W        W84430   9.638  15.858   3.837
19171W        W84431  28.014   3.454   4.205
19172W        W84432   9.708   9.850  11.341
19173W        W84433   7.813  14.263  10.426
19174W        W84434   4.190   8.852  14.282
19175W        W84435  12.703   3.528   4.444
19176W        W84436  13.408  22.557  13.558
19177W        W84437  32.818  24.276   0.050
19178W        W84438  20.025   4.453  13.220
19179W        W84439  16.837  35.585  13.587
19180W        W84440  17.521   0.455  14.864
19181W        W84441  10.313  15.708   5.167
19182W        W84442   4.932  27.488   1.290
19183W        W84443  34.457  19.781  14.854
19184W        W84444  39.978  11.899  10.680
19185W        W84445   0.075   7.316   3.793
19186W        W84446  16.425  43.652  11.085
19187W        W84447  44.562  25.628  12.517
19188W        W84448  29.411  17.783  11.635
19189W        W84449   3.834  29.584   5.039
19190W        W84450  44.739  42.316   4.636
19191W        W84451  20.600  25.232   4.070
19192W        W84452  39.626  16.130   4.004
19193W        W84453  27.222  40.008  10.459
19194W        W84454  31.351  35.818   5.070
19195W        W84455  37.815  15.113  13.882
19196W        W84456  25.022   2.724   1.061
19197W        W84457  43.956  35.927   1.055
19198W        W84458   2.485  33.968  11.251
19199W        W84459  13.029  14.020   1.257
19200W        W84460  37.628  16.123  14.565
19201W        W84461  44.299  19.798   3.502
19202W        W84462  27.423   2.801   4.020
19203W        W84463  38.389  32.187  11.030
19204W        W84464  38.146  25.629  11.995
19205W        W84465  42.972  34.575  11.520
19206W        W84466  19.935  23.533  14.418
19207W        W84467   1.902  11.754   5.261
19208W        W84468   0.917   3.182  11.738
19209W        W84469  38.590  27.039  14.794
19210W        W84470  28.330   8.843   2.677
19211W        W84471  22.520  27.946   1.890
19212W        W84472  30.347   6.736  13.524
19213W        W84473  14.153  23.451   3.103
19214W        W84474  16.316  25.588   2.355
19215W        W84475  18.101  13.380  12.517
19216W        W84476  15.254  13.057  11.677
19217W        W84477   8.496  36.419   3.430
19218W        W84478  22.245  15.239  12.877
19219W        W84479  17.279  28.704  11.507
19220W        W84480  26.420  37.620   2.149
19221W        W84481  39.907  38.046  10.638
19222W        W84482  22.950  13.094  11.197
19223W        W84483  19.368  19.039   4.963
19224W        W84484  19.217  29.917  12.648
19225W        W84485  16.474  17.258  13.953
19226W        W84486  15.294  28.281  11.359
19227W        W84487  20.108  20.796  12.941
19228W        W84488  30.367  38.873  12.539
19229W        W84489  24.016  38.044  14.038
19230W        W84490  25.237  17.354  12.832
19231W        W84491   0.568  38.576   3.668
19232W        W84492  41.254  17.159   0.151
19233W        W84493  13.282  12.475   2.267
19234W        W84494  22.910  33.610  11.179
19235W        W84495  30.449  30.459   1.298
19236W        W84496  25.561  42.014   3.369
19237W        W84497  11.248  17.549  11.509
19238W        W84498   2.272  30.925   1.825
19239W        W84499  28.911  44.473   2.734
19240W        W84500  14.500  20.170  14.523
19241W        W84501  10.383  35.639  12.884
19242W        W84502   3.829  20.750  10.729
19243W        W84503  34.156  28.887  11.439
19244W        W84504  41.491  27.198   0.502
19245W        W84505   6.405   5.346  12.404
19246W        W84506  34.633   6.042  13.354
19247W        W84507   3.858  36.640  12.957
19248W        W84508  15.678   3.412  11.562
19249W        W84509  27.404  28.372   1.784
19250W        W84510   0.848  17.955  11.201
19251W        W84511  23.428  11.254  13.082
19252W        W84512  42.017  10.125  13.980
19253W        W84513   7.861  42.514   3.064
19254W        W84514   6.288   7.361   4.581
19255W        W84515   6.900  37.926   1.670
19256W        W84516  33.223  41.799  11.407
19257W        W84517  37.071  17.808   0.450
19258W        W84518  18.266   9.265  10.853
19259W        W84519   5.866  20.010  11.462
19260W        W84520  17.630  33.056  11.633
19261W        W84521  33.350  15.723  14.867
19262W        W84522  10.157  16.336  10.584
19263W        W84523  32.873  18.894   4.264
19264W        W84524  43.013   2.203   3.643
19265W        W84525   4.227   8.639  13.803
19266W        W84526  30.067  31.124  13.390
19267W        W84527  11.772   2.198  12.159
19268W        W84528  20.445  43.775   0.165
19269W        W84529  27.506  25.052   3.891
19270W        W84530  28.313  25.078   3.501
19271W        W84531  12.179  29.493  10.947
19272W        W84532   5.296  25.517   9.958
19273W        W84533  42.391  40.521   0.675
19274W        W84534  34.566  41.490  10.751
19275W        W84535   2.649  40.512  14.342
19276W        W84536  25.100  22.652   1.194
19277W        W84537   2.924  15.137   3.491
19278W        W84538  13.071  12.287  11.529
19279W        W84539  37.008  10.192   2.265
19280W        W84540  34.424   2.454  11.030
19281W        W84541  14.459  24.009   0.143
19282W        W84542  41.252  12.812   3.875
19283W        W84543  10.335  14.393  11.592
19284W        W84544  25.786  38.868   4.311
19285W        W84545  16.915  15.780  10.192
19286W        W84546   7.926  12.083  13.395
19287W        W84547  38.707  41.933  13.039
19288W        W84548  15.883  36.509  13.505
19289W        W84549  25.670  21.353   0.295
19290W        W84550  23.522  44.034   1.921
19291W        W84551  37.764  30.492  10.915
19292W        W84552  40.772  42.070  12.050
19293W        W84553  24.072   0.188   4.295
19294W        W84554  25.051   2.704   4.205
19295W        W84555   5.399  26.581   4.171
19296W        W84556  22.117  18.618   1.587
19297W        W84557  12.268   3.665  13.455
19298W        W84558   5.005   9.271   4.590
19299W        W84559  30.587  14.546   1.834
19300W        W84560   8.195  44.502  11.869
19301W        W84561  19.728  28.853  10.682
19302W        W84562  43.972  27.972   2.180
19303W        W84563  17.978   9.153   0.280
19304W        W84564  17.799  36.128   1.914
19305W        W84565  43.223  24.568   0.887
19306W        W84566  26.508  36.383  12.326
19307W        W84567  25.397  18.147  14.939
19308W        W84568  16.853  27.557   0.742
19309W        W84569  42.526   8.854   2.833
19310W        W84570  37.981  26.353  11.429
19311W        W84571  32.606  30.323  11.394
19312W        W84572   9.633  37.027   3.183
19313W        W84573  44.948  39.472   1.735
19314W        W84574  19.586  31.772   2.148
19315W        W84575  24.583   3.311   4.004
19316W        W84576  26.724   6.876  10.575
19317W        W84577  29.576   4.590   2.637
19318W        W84578  42.029   4.883   3.544
19319W        W84579  41.380   2.868  10.806
19320W        W84580  11.302  26.875   0.802
19321W        W84581  11.723  41.277  11.950
19322W        W84582  14.721  21.935  14.718
19323W        W84583   2.349  10.467  14.731
19324W        W84584  15.011  24.212   1.438
19325W        W84585  18.182  14.237   0.453
19326W        W84586  38.080   9.967  14.568
19327W        W84587  34.970   1.004   0.943
19328W        W84588  20.187  11.818   2.299
19329W        W84589  21.358  40.387  12.766
19330W        W84590  43.903  24.041   1.332
19331W        W84591   3.929  35.851   4.648
19332W        W84592   2.888  35.790  11.885
19333W        W84593   1.790  19.095  10.782
19334W        W84594  40.783  22.007   2.163
19335W        W84595  33.975  28.426  11.447
19336W        W84596  17.607  25.430   1.380
19337W        W84597  26.487  23.589   1.004
19338W        W84598  15.774  24.143   2.806
19339W        W84599  18.862  26.606   4.063
19340W        W84600  13.055  27.901   2.400
19341W        W84601  25.992  13.639   2.314
19342W        W84602  24.966  42.883  11.586
19343W        W84603   8.249  21.677   1.879
19344W        W84604   5.505  27.036   0.910
19345W        W84605  38.055  13.786   1.569
19346W        W84606  18.126  18.641  13.809
19347W        W84607  14.179   5.426  13.943
19348W        W84608  41.445  20.603   4.472
19349W        W84609  16.064  13.212  11.966
19350W        W84610  32.133  36.565   4.228
19351W        W84611   0.138  25.663  13.644
19352W        W84612  21.607  13.606   2.262
19353W        W84613  37.184  21.786  13.979
19354W        W84614  23.514  31.882  11.069
19355W        W84615  12.631  34.300   1.482
19356W        W84616  33.297  13.096   0.590
19357W        W84617   9.266   3.684  10.593
19358W        W84618  18.718   2.256  14.724
19359W        W84619  23.773  15.829  13.559
19360W        W84620  15.541  23.236  12.005
19361W        W84621   7.233  25.089  13.840
19362W        W84622  26.883  19.231  12.141
19363W        W84623  41.990  37.293  13.237
19364W        W84624  18.309  20.630   0.005
19365W        W84625  12.635  17.868   2.385
19366W        W84626  15.249  20.620  11.018
19367W        W84627  28.938  27.567  14.305
19368W        W84628   9.222  41.275   2.172
19369W        W84629  36.060  20.433   3.666
19370W        W84630  27.172  26.626  11.732
19371W        W84631   3.494  44.680   0.793
19372W        W84632  24.563  39.441  12.665
19373W        W84633  16.758  42.069  13.029
19374W        W84634  32.389   7.206   4.186
19375W        W84635  23.611  40.173   4.549
19376W        W84636  15.722  36.482  13.990
19377W        W84637  44.267  42.098  12.645
19378W        W84638  35.542  27.028  10.246
19379W        W84639  11.624  20.552  13.043
19380W        W84640  32.238  36.004  13.509
19381W        W84641  18.439  38.080  13.577
19382W        W84642  35.598  10.289   1.267
19383W        W84643  30.068  33.121  11.621
19384W        W84644  20.704   2.837   2.962
19385W        W84645   4.611  28.969   1.616
19386W        W84646   0.089   0.324  12.027
19387W        W84647  29.957   3.357   4.115
19388W        W84648  43.455   2.309   2.326
19389W        W84649  21.553  26.689   5.053
19390W        W84650  35.128  19.492   0.957
19391W        W84651  16.233  39.871   1.066
19392W        W84652  16.121  38.218  14.958
19393W        W84653  37.436  30.599  10.508
19394W        W84654  37.565  11.828   0.460
19395W        W84655  34.864  34.059   0.675
19396W        W84656  32.982  38.620  12.966
19397W        W84657  31.041  37.480   1.819
19398W        W84658  22.479  37.580  10.431
19399W        W84659  19.113   2.919  12.964
19400W        W84660   8.861   8.061  12.034
19401W        W84661  14.599  31.853  11.218
19402W        W84662  20.999   3.739  10.702
19403W        W84663   1.378  11.136  14.704
19404W        W84664  39.927  43.730   2.369
19405W        W84665  36.887  33.904   1.712
19406W        W84666  30.679  39.901   2.174
19407W        W84667  25.960  22.872  14.432
19408W        W84668  37.854  24.760   1.894
19409W        W84669  25.661  38.657   3.507
19410W        W84670  20.066  40.808   4.524
19411W        W84671  12.198   2.334   4.795
19412W        W84672   2.975   4.856  13.893
19413W        W84673   7.209  30.766   1.744
19414W        W84674  12.660  17.001   2.721
19415W        W84675  36.377   4.752   3.633
19416W        W84676  42.462  38.037  11.443
19417W        W84677   3.908   9.920   1.422
19418W        W84678  42.314  13.708   3.541
19419W        W84679  43.955   4.119   3.946
19420W        W84680   9.222  38.920  10.819
19421W        W84681  17.781  39.362   4.676
19422W        W84682   4.655   3.323  10.598
19423W        W84683  35.385   5.717  12.807
19424W        W84684  12.111  41.504  14.856
19425W        W84685  28.933   3.200   4.045
19426W        W84686   6.416  12.147  12.563
19427W        W84687   9.820   0.284   4.097
19428W        W84688  41.396  24.173   0.453
19429W        W84689  38.971  36.973  12.366
19430W        W84690  38.365  15.486   1.355
19431W        W84691  14.108  40.072  12.495
19432W        W84692  26.458  24.528   1.236
19433W        W84693  41.096  24.651   1.404
19434W        W84694   0.930  19.810  13.945
19435W        W84695   7.663  34.905  11.175
19436W        W84696  29.867  41.882  10.849
19437W        W84697  44.972  22.126  11.630
19438W        W84698   0.281  44.798   0.666
19439W        W84699  19.296  19.747   0.042
19440W        W84700   2.356  20.361  14.217
19441W        W84701  41.132  41.476   1.699
19442W        W84702  30.584   7.282  13.535
19443W        W84703  43.059   2.903  12.977
19444W        W84704   2.427   6.462   4.170
19445W        W84705  28.333  20.129   1.865
19446W        W84706  41.769  28.503  14.425
19447W        W84707  15.601  14.230  11.187
19448W        W84708  18.575   1.929  12.815
19449W        W84709  10.192   0.040   3.406
19450W        W84710  35.584  17.331  13.993
19451W        W84711  16.666  18.571  14.672
19452W        W84712  15.606  27.362   0.345
19453W        W84713  22.477   9.380  11.613
19454W        W84714  13.851  32.546   4.241
19455W        W84715  40.731  15.072  14.865
19456W        W84716  38.879  23.352   0.905
19457W        W84717  25.206  31.093   2.178
19458W        W84718  43.408  28.517   0.003
19459W        W84719  43.461  24.954   0.629
19460W        W84720  43.781  16.153   2.641
19461W        W84721  31.639   6.726   2.814
19462W        W84722  20.457  22.644  13.481
19463W        W84723  20.016  41.121  11.208
19464W        W84724   5.851  25.366  13.225
19465W        W84725  19.842  15.718  10.588
19466W        W84726  36.321  21.083   1.351
19467W        W84727  10.810   5.202   2.984
19468W        W84728  36.380  23.626  12.508
19469W        W84729  16.213  24.411   0.607
19470W        W84730  16.027  25.265   3.192
19471W        W84731   0.335   0.963   1.667
19472W        W84732  26.754  37.782  12.110
19473W        W84733   3.773  20.494   0.776
19474W        W84734  43.788  44.882  14.653
19475W        W84735   2.216  14.591  13.465
19476W        W84736   4.079  34.848   1.635
19477W        W84737  37.126  39.701  12.796
19478W        W84738  35.955  37.367  14.028
19479W        W84739  40.758   6.249  14.794
19480W        W84740  29.702   8.761  12.146
19481W        W84741  23.268  42.258  12.619
19482W        W84742  27.285  15.650   1.127
19483W        W84743  42.908  24.118   3.154
19484W        W84744  43.754  10.716   4.980
19485W        W84745  44.377   9.527   4.099
19486W        W84746  36.882  21.179   4.652
19487W        W84747   7.927   3.765  11.171
19488W        W84748  19.575  39.912   4.491
19489W        W84749  39.111  10.763  13.505
19490W        W84750  23.031  44.258   9.944
19491W        W84751  21.299  15.915  11.565
19492W        W84752  23.061   6.444  11.191
19493W        W84753  24.381  34.462   2.449
19494W        W84754  18.956  25.123   0.820
19495W        W84755  16.757  19.583  14.533
19496W        W84756  24.161  27.254  14.884
19497W        W84757  29.717  18.441   3.743
19498W        W84758  19.285  23.778  11.061
19499W        W84759  23.208  19.715  14.396
19500W        W84760  31.628  23.067   1.765
19501W        W84761  36.924  26.684  14.488
19502W        W84762  42.502   8.700  14.108
19503W        W84763  42.502   2.372  11.881
19504W        W84764  11.208  24.526   1.371
19505W        W84765   1.877  34.330  13.994
19506W        W84766   9.595   3.624  14.034
19507W        W84767  31.537  32.141  14.234
19508W        W84768  15.537  16.199   2.739
19509W        W84769  13.655  44.782   2.819
19510W        W84770  35.502  32.221   4.564
19511W        W84771  14.118  42.939  12.613
19512W        W84772  33.139  34.985  13.795
19513W        W84773  37.789  38.932   0.865
19514W        W84774   7.431  32.943  12.440
19515W        W84775  19.188  23.595   2.483
19516W        W84776  44.346  11.703  13.136
19517W        W84777  42.197   1.702   3.285
19518W        W84778   7.799  26.023  12.191
19519W        W84779  17.036  35.426   1.977
19520W        W84780  17.599   7.287  13.608
19521W        W84781   3.679  25.950  14.561
19522W        W84782   6.861  15.221   0.299
19523W        W84783  15.643   9.896  11.554
19524W        W84784  27.089  36.947  11.497
19525W        W84785  13.646  23.048   3.168
19526W        W84786   2.746  15.172   2.526
19527W        W84787   3.885  36.087  13.339
19528W        W84788   3.424  32.483   2.313
19529W        W84789  21.810  17.807  12.103
19530W        W84790  19.103  27.078   2.294
19531W        W84791  19.639  36.360  13.938
19532W        W84792  42.854   6.960   0.193
19533W        W84793  33.532   3.246   4.114
19534W        W84794  16.676  25.716   4.323
19535W        W84795  36.120  22.619  13.821
19536W        W84796  44.453  42.732  13.539
19537W        W84797  18.637  11.149  12.876
19538W        W84798  39.062   6.866  10.507
19539W        W84799   8.397  30.598   0.732
19540W        W84800  44.549  39.888  10.488
19541W        W84801  10.452  21.070  11.697
19542W        W84802   4.925   9.786   4.700
19543W        W84803  15.202   2.738   0.987
19544W        W84804  36.880  41.400   0.273
19545W        W84805   7.392  44.727  10.612
19546W        W84806  11.695  13.134   0.394
19547W        W84807   0.770   3.395   4.891
19548W        W84808  14.275  35.260   3.400
19549W        W84809  44.850  38.338   4.565
19550W        W84810  43.990  16.516  12.926
19551W        W84811   9.359   2.214   0.738
19552W        W84812  39.431  27.439  11.140
19553W        W84813  34.991  34.273   4.014
19554W        W84814  43.580  35.354  12.567
19555W        W84815  36.712  43.983  14.020
19556W        W84816  29.101  10.272   2.947
19557W        W84817  11.124  43.205  14.661
19558W        W84818  37.599  11.216  13.057
19559W        W84819   2.156  21.686  11.578
19560W        W84820  44.840  19.990  12.834
19561W        W84821  18.294  22.474   2.280
19562W        W84822  31.683   4.867   3.687
19563W        W84823  26.188  12.155  14.562
19564W        W84824   2.753   9.870  12.563
19565W        W84825   3.019  30.282   5.398
19566W        W84826   7.753  13.797  10.706
19567W        W84827  34.526   0.714  12.494
19568W        W84828  28.157  29.412   0.660
19569W        W84829  31.455   7.906  12.322
19570W        W84830   8.824  16.596  12.168
19571W        W84831  35.929  28.950   0.342
19572W        W84832  19.213  12.639  13.888
19573W        W84833  18.295  35.338  11.950
19574W        W84834   6.969  24.030   0.536
19575W        W84835  24.129   9.376   4.502
19576W        W84836  28.922  25.180  11.235
19577W        W84837  23.757  26.074  14.793
19578W        W84838  24.114  30.336   3.809
19579W        W84839  15.044  20.789   4.517
19580W        W84840  12.486   3.642   5.391
19581W        W84841  23.098  42.585  13.838
19582W        W84842  10.411   5.941  12.900
19583W        W84843   5.942  19.364  10.336
19584W        W84844  27.679  22.954  12.650
19585W        W84845  14.999  41.986  14.010
19586W        W84846   3.621  27.729   0.790
19587W        W84847  27.028  32.892   4.848
19588W        W84848   8.691  35.875  14.456
19589W        W84849  10.950  32.076   4.568
19590W        W84850  22.019  14.868  11.248
19591W        W84851  36.933   7.230   4.787
19592W        W84852  31.723  43.926   0.271
19593W        W84853  30.908  33.656  12.969
19594W        W84854  44.341  37.833  10.577
19595W        W84855  15.672   7.565   1.854
19596W        W84856  27.682   3.411   0.686
19597W        W84857  26.784  24.363  12.551
19598W        W84858  39.035  33.556   2.484
19599W        W84859  36.595  30.076  10.888
19600W        W84860  42.285  24.204   0.517
19601W        W84861  37.829  33.411   4.502
19602W        W84862  24.729  23.534   4.077
19603W        W84863  15.554  37.468  13.338
19604W        W84864  12.844  41.363  10.757
19605W        W84865  38.285  35.880  14.949
19606W        W84866  25.086   0.319  14.468
19607W        W84867  44.819  36.781  13.836
19608W        W84868   1.635  33.684  12.172
19609W        W84869  23.304  40.477   3.808
19610W        W84870  33.172   2.417   2.127
19611W        W84871  26.162  25.441   4.515
19612W        W84872  16.114   5.008  10.141
19613W        W84873  22.524  26.424   2.095
19614W        W84874  44.926   5.164  10.674
19615W        W84875  35.460  27.253   3.139
19616W        W84876  21.747  19.771   4.169
19617W        W84877  41.413  24.248  13.916
19618W        W84878   2.620   6.619   2.403
19619W        W84879  24.093  44.126  13.242
19620W        W84880  34.940  12.245   2.238
19621W        W84881  29.343   9.165  11.568
19622W        W84882  13.483  18.952   2.138
19623W        W84883   8.471  25.457  13.595
19624W        W84884  27.711  37.082  11.197
19625W        W84885  27.925  24.163   3.601
19626W        W84886   1.752  41.360  12.484
19627W        W84887  25.887  26.666  12.128
19628W        W84888  32.221   2.670   1.854
19629W        W84889  14.304  39.892   3.244
19630W        W84890  11.208   4.874  13.074
19631W        W84891   3.805   8.499  11.825
19632W        W84892  12.155   3.870   4.528
19633W        W84893  13.771  31.884  11.546
19634W        W84894   3.903  31.797   2.247
19635W        W84895  17.667  14.345   1.021
19636W        W84896  29.587  36.843  10.862
19637W        W84897  26.684  27.261   4.162
19638W        W84898  34.799  41.240   0.320
19639W        W84899  17.706  35.626   4.518
19640W        W84900  13.528  38.063  13.830
19641W        W84901  15.192  16.348   2.376
19642W        W84902  32.795  13.678   0.148
19643W        W84903   1.148  15.843  12.674
19644W        W84904  18.702  17.417   4.466
19645W        W84905  17.836  36.654  11.455
19646W        W84906  43.965  16.115   4.630
19647W        W84907  24.724  33.015  11.990
19648W        W84908  11.125   1.839  11.538
19649W        W84909  24.784  44.186  14.927
19650W        W84910  20.685  31.773  11.278
19651W        W84911  33.929  23.604  13.329
19652W        W84912  13.434  10.603   4.268
19653W        W84913  19.012  16.730   3.725
19654W        W84914   9.406  40.869  13.965
19655W        W84915   1.991  26.684   3.543
19656W        W84916  23.512  14.516   4.099
19657W        W84917  15.472  36.099   2.973
19658W        W84918   8.183  27.045  12.742
19659W        W84919  44.437  39.842  13.525
19660W        W84920  35.458  32.531   0.975
19661W        W84921  44.299  25.174   0.344
19662W        W84922  14.207   4.020  11.238
19663W        W84923   7.649  28.111  11.227
19664W        W84924  40.162   3.777  11.559
19665W        W84925  25.033  37.291  14.790
19666W        W84926  39.618  29.148  11.134
19667W        W84927   9.481  35.557   4.649
19668W        W84928  28.471  42.400   1.373
19669W        W84929   4.841  30.872   4.105
19670W        W84930   0.382  10.911  10.703
19671W        W84931  18.109  22.725   0.632
19672W        W84932  13.795  17.184   0.806
19673W        W84933  44.477   8.678  11.507
19674W        W84934  43.557  25.606   4.281
19675W        W84935   1.602  21.624   4.271
19676W        W84936   1.793  19.074  14.997
19677W        W84937  28.949   4.187   3.105
19678W        W84938  23.468  22.003  14.694
19679W        W84939  41.890   0.405   4.943
19680W        W84940  13.678  11.751   3.405
19681W        W84941  22.977   0.134   2.880
19682W        W84942   4.748  25.260  12.977
19683W        W84943  18.151   4.424   3.559
19684W        W84944  35.861   0.809  14.534
19685W        W84945  22.079  11.584  12.956
19686W        W84946  32.967  17.178   3.186
19687W        W84947  40.897  19.924   1.431
19688W        W84948  29.088   5.474  12.028
19689W        W84949  23.727  31.858  12.368
19690W        W84950   6.220   1.220   2.929
19691W        W84951   9.919  32.093  14.393
19692W        W84952   5.301  10.801  10.467
19693W        W84953   5.096   8.204  11.210
19694W        W84954  10.693  41.135   2.600
19695W        W84955   4.686  35.402   2.268
19696W        W84956  10.085  17.250   3.442
19697W        W84957   6.721  13.496   3.903
19698W        W84958  39.862  11.704  14.379
19699W        W84959   3.475  33.525  13.545
19700W        W84960   0.986   6.790  10.839
19701W        W84961  24.791   1.366   1.675
19702W        W84962  27.937  29.950  12.291
19703W        W84963  41.831  28.579   1.894
19704W        W84964  31.337  22.721  11.453
19705W        W84965   4.873  24.101  14.389
19706W        W84966   2.941  29.223   3.308
19707W        W84967  42.857   9.293  13.420
19708W        W84968  24.455  13.304   3.906
19709W        W84969   1.238  40.555  14.773
19710W        W84970  23.245  23.528  11.675
19711W        W84971  11.577  15.174  11.506
19712W        W84972  36.491  19.989  13.347
19713W        W84973  41.284  42.885  12.048
19714W        W84974   2.784  41.350   0.995
19715W        W84975  16.161  37.862   1.743
19716W        W84976  41.032  12.111  14.310
19717W        W84977   4.492  30.714  14.847
19718W        W84978  13.682  19.768  11.340
19719W        W84979   7.084  37.826  10.953
19720W        W84980  42.484  26.651  13.039
19721W        W84981   1.832  35.560   2.926
19722W        W84982   3.531  15.382   0.438
19723W        W84983  16.129  29.732   1.786
19724W        W84984  42.252   3.511   4.635
19725W        W84985  32.601  37.873   3.117
19726W        W84986  32.537  10.186  14.555
19727W        W84987  22.439  40.333   4.101
19728W        W84988   8.570  38.883   4.533
19729W        W84989  25.563   3.016  11.573
19730W        W84990  29.634   5.419   1.801
19731W        W84991  23.534  19.327   4.060
19732W        W84992  35.204  44.398  13.911
19733W        W84993   9.318  13.100   3.811
19734W        W84994   8.172  41.814   1.068
19735W        W84995  40.401  22.644  14.849
19736W        W84996  13.187   2.318  12.477
19737W        W84997  24.190  10.209  10.656
19738W        W84998  35.341  17.754  12.095
19739W        W84999  30.614  38.795   1.344
19740W        W85000  23.807   0.347  14.412
19741W        W85001   2.116  28.727  13.466
19742W        W85002  11.825   3.969  13.452
19743W        W85003  29.543   7.951   4.166
19744W        W85004   0.465  28.642   4.198
19745W        W85005  18.192  38.540  11.601
19746W        W85006  10.483  17.571  13.016
19747W        W85007  33.029  22.475  12.472
19748W        W85008  16.198   2.542   3.735
19749W        W85009  22.739  10.212  14.008
19750W        W85010  12.756   1.430   1.427
19751W        W85011  37.844  39.246  10.642
19752W        W85012  32.681  29.594  12.412
19753W        W85013  43.955   7.359   4.736
19754W        W85014  10.738  19.646   0.533
19755W        W85015  19.323  24.383   4.214
19756W        W85016  34.845  38.400   2.278
19757W        W85017  17.812  15.794  12.069
19758W        W85018   5.647  25.017   2.431
19759W        W85019  36.642  27.808  10.181
19760W        W85020   3.686  18.805   1.612
19761W        W85021  12.284  19.121   1.718
19762W        W85022  35.811  38.567  13.390
19763W        W85023  29.523  29.017   4.202
19764W        W85024  33.310  21.018   4.667
19765W        W85025  30.744  29.011   0.813
19766W        W85026  27.114   1.315  11.878
19767W        W85027  25.065  21.572   2.687
19768W        W85028   3.714  38.405  11.579
19769W        W85029  21.196  34.751   0.100
19770W        W85030  25.983  13.183   3.705
19771W        W85031  30.348  26.612   5.064
19772W        W85032   9.812  37.167   0.339
19773W        W85033   1.909  32.478   1.627
19774W        W85034  31.288  28.095   1.423
19775W        W85035  21.358   7.182  11.257
19776W        W85036  24.057  29.411  10.722
19777W        W85037  10.936  39.908  14.784
19778W        W85038   4.821   8.723   0.242
19779W        W85039  31.309  13.338   0.402
19780W        W85040  17.089  36.474   2.835
19781W        W85041   3.936  12.188   0.474
19782W        W85042  21.103  20.730  13.133
19783W        W85043  29.445  18.180  14.380
19784W        W85044  32.707  20.335   1.262
19785W        W85045  10.466   4.959  12.044
19786W        W85046   0.335   3.423   4.602
19787W        W85047  42.104  38.332  13.358
19788W        W85048  32.385   6.659   3.347
19789W        W85049  29.442  25.232   4.600
19790W        W85050   6.090  34.740   1.464
19791W        W85051  10.052  31.016   1.363
19792W        W85052  30.973   6.255   2.409
19793W        W85053  34.210  35.250   3.721
19794W        W85054  13.450  17.829   3.837
19795W        W85055  33.311   7.484   0.378
19796W        W85056  37.043  41.074   0.774
19797W        W85057  30.413  16.096  14.584
19798W        W85058  40.536   1.801   1.920
19799W        W85059  22.034  27.597   3.809
19800W        W85060  35.843  29.478   1.467
19801W        W85061  24.632   0.571  14.543
19802W        W85062  15.201   1.981  12.244
19803W        W85063  25.583  30.481  10.700
19804W        W85064  35.021   4.897  10.661
19805W        W85065  27.731  36.406  12.585
19806W        W85066  34.292  10.152   4.102
19807W        W85067  11.168  25.472   2.815
19808W        W85068  12.528   7.299  14.153
19809W        W85069  29.685  33.504  10.671
19810W        W85070  12.971  37.480  12.752
19811W        W85071  12.187  12.671   1.314
19812W        W85072  10.616  32.323   1.110
19813W        W85073  29.564  19.609   4.419
19814W        W85074   1.650  35.344  13.275
19815W        W85075  19.591  10.599   2.351
19816W        W85076  28.258  31.503  13.374
19817W        W85077  13.921  24.473  10.736
19818W        W85078  31.987  19.754   1.320
19819W        W85079   4.721   0.046   3.665
19820W        W85080  44.896  28.246  13.372
19821W        W85081  26.915   5.731  11.636
19822W        W85082   8.451  11.817   4.476
19823W        W85083   0.049   9.383  11.879
19824W        W85084  44.862  26.167  11.778
19825W        W85085   8.788  34.085  11.170
19826W        W85086  18.058  27.889   0.428
19827W        W85087  34.056  24.972  14.358
19828W        W85088  36.450  26.024  12.958
19829W        W85089  18.611  16.899   4.544
19830W        W85090  43.476   2.479  11.058
19831W        W85091  44.259  13.023   4.610
19832W        W85092   2.741  34.524  14.846
19833W        W85093  18.321  40.372   1.435
19834W        W85094  26.454  42.437   2.249
19835W        W85095   1.060  36.304   4.525
19836W        W85096  15.142  34.150  13.900
19837W        W85097  10.310  30.175  13.979
19838W        W85098  35.300  25.704   9.799
19839W        W85099  18.123  42.748   2.855
19840W        W85100  20.363  14.284  10.171
19841W        W85101  21.988  34.223   1.489
19842W        W85102  42.137  38.722   0.669
19843W        W85103  12.890  40.453   4.308
19844W        W85104   3.975  27.266   3.505
19845W        W85105  33.436  31.477  14.756
19846W        W85106   3.511  19.643   0.680
19847W        W85107  20.876  20.041   2.666
19848W        W85108  13.131  42.452  11.498
19849W        W85109   3.211  35.943  12.234
19850W        W85110  13.137  30.857   1.330
19851W        W85111  11.645  44.009  11.089
19852W        W85112  14.062  33.898  12.508
19853W        W85113  40.034  40.601  14.030
19854W        W85114  30.095  44.474  11.594
19855W        W85115   4.693   4.350   4.794
19856W        W85116  39.958  20.108   3.595
19857W        W85117  32.160  29.020  13.506
19858W        W85118  16.016   0.337   3.070
19859W        W85119  22.676  44.380   1.779
19860W        W85120   9.406   1.049   3.173
19861W        W85121   9.349  43.374   3.265
19862W        W85122  19.802  23.465   3.702
19863W        W85123  16.580  17.442  11.950
19864W        W85124  16.009  30.419  13.342
19865W        W85125  35.630  17.995   3.320
19866W        W85126  22.140   9.630   4.180
19867W        W85127   3.818  21.118   5.038
19868W        W85128  37.079  43.524  12.609
19869W        W85129  39.437  25.340   4.328
19870W        W85130  41.424  33.097  13.300
19871W        W85131  11.744  36.242  12.362
19872W        W85132  24.591  17.500  13.831
19873W        W85133  10.076   8.378   4.444
19874W        W85134  34.229  17.671  10.786
19875W        W85135  24.414  21.000  11.520
19876W        W85136  36.576  13.182   3.353
19877W        W85137  24.630   6.238   0.506
19878W        W85138  13.646   9.376   1.318
19879W        W85139   7.942  17.732  11.614
19880W        W85140  39.168  43.383   2.784
19881W        W85141  26.227   0.391  11.928
19882W        W85142  22.903  35.297   4.056
19883W        W85143  18.497  39.911  10.695
19884W        W85144   6.887   2.748   2.198
19885W        W85145  35.969   9.347  14.891
19886W        W85146  37.300  15.319  13.867
19887W        W85147   2.956  40.438  13.059
19888W        W85148  27.837  17.497   3.394
19889W        W85149   1.093  12.971  11.225
19890W        W85150  28.642  34.621   2.292
19891W        W85151  22.637   0.085   0.514
19892W        W85152  35.073  44.786   1.735
19893W        W85153  38.488   0.362  12.065
19894W        W85154  16.110  37.977  13.851
19895W        W85155  14.253  33.513  10.729
19896W        W85156  38.721  16.193   1.771
19897W        W85157  26.055   0.467   0.772
19898W        W85158  35.948  42.282  12.110
19899W        W85159  25.683  18.559  13.476
19900W        W85160   0.267  40.763   0.399
19901W        W85161  24.472  25.512  13.522
19902W        W85162  14.627  11.145   1.320
19903W        W85163  38.296   2.221  13.331
19904W        W85164  41.443   3.723  14.766
19905W        W85165  41.101  22.902  12.593
19906W        W85166  25.753  35.451  13.975
19907W        W85167  34.247  42.516   3.180
19908W        W85168  40.784  26.170  11.984
19909W        W85169   7.685  20.010  13.370
19910W        W85170  29.860  14.109   4.549
19911W        W85171  39.572  33.389   0.203
19912W        W85172  23.970  25.267   0.397
19913W        W85173  12.218   7.691  12.171
19914W        W85174  27.084  27.380   3.187
19915W        W85175  41.367  37.648  14.948
19916W        W85176  26.641  13.281   1.494
19917W        W85177  37.705  32.637  12.738
19918W        W85178  33.997  44.452  13.416
19919W        W85179   1.718  19.835   2.377
19920W        W85180  43.073  28.933   4.175
19921W        W85181  37.005  34.268   3.884
19922W        W85182  33.874  17.840  11.109
19923W        W85183  19.700  42.860  12.455
19924W        W85184  16.060  22.276   0.755
19925W        W85185   9.818  15.862  13.541
19926W        W85186  30.867  16.573   4.533
19927W        W85187  34.364  21.059   3.684
19928W        W85188  28.887  21.737  14.459
19929W        W85189  15.025  37.639  11.147
19930W        W85190  25.081   8.872  11.659
19931W        W85191  27.795  26.232  11.507
19932W        W85192  30.444  32.728  12.960
19933W        W85193  27.555  23.140  13.120
19934W        W85194  39.967   1.276  11.609
19935W        W85195  19.867  12.663   1.013
19936W        W85196  25.611   6.382   2.443
19937W        W85197  39.707  38.124   2.912
19938W        W85198  39.552   5.828  11.925
19939W        W85199  23.485  17.367   3.538
19940W        W85200   4.722   7.902  12.547
19941W        W85201  21.687  20.833   9.691
19942W        W85202  16.498  39.169   2.352
19943W        W85203   4.801  20.033  13.458
19944W        W85204  36.617  32.114   3.169
19945W        W85205   5.114   5.503  13.623
19946W        W85206  31.516   7.236   1.635
19947W        W85207  29.124  25.204  14.877
19948W        W85208   9.486  38.306  14.240
19949W        W85209   3.911  23.229  14.188
19950W        W85210  33.381  39.452   1.144
19951W        W85211   7.856  14.168  14.317
19952W        W85212  31.878  20.607  13.065
19953W        W85213  38.635  23.036  14.432
19954W        W85214  17.520  40.942  14.023
19955W        W85215  43.562  40.074   1.197
19956W        W85216  14.519   7.643  14.577
19957W        W85217  11.832  26.773   3.388
19958W        W85218  13.696  20.966   1.704
19959W        W85219  28.954  25.891   1.925
19960W        W85220  29.599  14.727   3.692
19961W        W85221  19.936  43.002  14.745
19962W        W85222  34.328  21.159   2.362
19963W        W85223  20.067   1.262  13.541
19964W        W85224  12.384  34.670  14.628
19965W        W85225  43.408  30.460  13.762
19966W        W85226  36.887  18.772   0.248
19967W        W85227   6.185  31.065   3.598
19968W        W85228   6.999  13.536   0.175
19969W        W85229  11.796   5.985  13.089
19970W        W85230  31.806  35.538  11.169
19971W        W85231  14.150  18.527  10.782
19972W        W85232  41.431  42.964   3.186
19973W        W85233  30.007  29.480   3.152
19974W        W85234  37.629   6.798  12.095
19975W        W85235  41.297  13.109  13.915
19976W        W85236  18.563  22.543  14.763
19977W        W85237  41.317  13.387  13.435
19978W        W85238   6.355  38.011  13.047
19979W        W85239  32.020  25.902  11.858
19980W        W85240  18.655  33.165  12.865
19981W        W85241  42.688  21.510  13.309
19982W        W85242   3.843  39.075   0.167
19983W        W85243  16.110  29.637  10.309
19984W        W85244  37.044  27.054  14.036
19985W        W85245   7.220  20.652   1.741
19986W        W85246  25.763   1.816   5.065
19987W        W85247  19.040  23.042  10.005
19988W        W85248  38.452  22.691  10.427
19989W        W85249  39.138  10.043  12.942
19990W        W85250  16.824   6.375   2.639
19991W        W85251  14.381  23.517   4.115
19992W        W85252  15.539  24.092   3.250
19993W        W85253  33.007   0.231  11.637
19994W        W85254  24.297  19.117   2.337
19995W        W85255  21.648  17.839   4.151
19996W        W85256   0.938  26.946   1.164
19997W        W85257  29.347  24.197  14.746
19998W        W85258   4.431  18.220  11.137
19999W        W85259  28.805   8.896   4.283
20000W        W85260  14.736  30.963   4.953
20001W        W85261  26.495   2.135   3.558
20002W        W85262  14.503  36.052  12.424
20003W        W85263  40.890  20.210   2.830
20004W        W85264  12.753  20.001  11.168
20005W        W85265  15.810   0.763   4.616
20006W        W85266  35.831  20.467   4.926
20007W        W85267  11.356  25.841   0.759
20008W        W85268  24.747  20.734  10.570
20009W        W85269   8.296  32.099   3.313
20010W        W85270  15.884  29.324   1.950
20011W        W85271  15.916  42.385  14.076
20012W        W85272  12.460  32.254  11.640
20013W        W85273  16.585  27.108  10.863
20014W        W85274   9.633   5.703   3.634
20015W        W85275  19.072   5.273   2.125
20016W        W85276  41.560  18.630  12.504
20017W        W85277  26.894  21.520   3.728
20018W        W85278  13.237  32.377  13.557
20019W        W85279   5.181   4.189  12.820
20020W        W85280   9.692  33.372  14.884
20021W        W85281  18.810   6.792   0.949
20022W        W85282  41.022  29.061   2.207
20023W        W85283  43.303  21.349   2.308
20024W        W85284  42.620  20.271   1.267
20025W        W85285  42.024   5.904  10.675
20026W        W85286  44.410  10.088   5.082
20027W        W85287  44.764  16.718   4.379
20028W        W85288  24.395  33.256  11.638
20029W        W85289  16.586  28.166  13.275
20030W        W85290  40.609  40.466  12.167
20031W        W85291  27.160   9.458   1.121
20032W        W85292  24.835  19.828  10.723
20033W        W85293  12.160  22.612  13.929
20034W        W85294  44.293   7.292   3.228
20035W        W85295  22.287  21.090  12.469
20036W        W85296  36.138  44.276  11.156
20037W        W85297  40.282  10.621   0.470
20038W        W85298   0.015  21.028   4.056
20039W        W85299  22.199   8.266   3.874
20040W        W85300  20.491   8.870  13.454
20041W        W85301  21.292  33.704  14.503
20042W        W85302  42.536   7.834  14.264
20043W        W85303  39.311  30.880  13.922
20044W        W85304   5.740  21.276  10.749
20045W        W85305   0.050  21.440   0.936
20046W        W85306   3.736   4.994   2.169
20047W        W85307  20.293  23.828   0.846
20048W        W85308  31.258  37.593  13.492
20049W        W85309  42.019   0.504   1.888
20050W        W85310  41.087  42.347   4.294
20051W        W85311  23.972  38.041   3.173
20052W        W85312  21.554   7.638  14.854
20053W        W85313  16.457  31.082  12.485
20054W        W85314   0.330  18.846   3.648
20055W        W85315  19.214  19.615  14.567
20056W        W85316  40.632  15.764   2.273
20057W        W85317  13.072  44.043   1.536
20058W        W85318  25.246  21.165   1.819
20059W        W85319   4.967  26.209   3.519
20060W        W85320  35.522  14.183  12.856
20061W        W85321  36.045  32.417   2.384
20062W        W85322  35.919   9.675  14.073
20063W        W85323  23.639  28.039  13.547
20064W        W85324  33.007  10.325   3.641
20065W        W85325  38.834  32.710  13.650
20066W        W85326  38.368  15.720   0.412
20067W        W85327  18.964  14.186   4.811
20068W        W85328  17.322  13.828  13.584
20069W        W85329   6.898  42.190  10.692
20070W        W85330  32.436  24.682  12.411
20071W        W85331  15.344  30.063  10.752
20072W        W85332  29.476   5.184  14.227
20073W        W85333  35.922  33.327  14.052
20074W        W85334   5.465  35.371   0.969
20075W        W85335   0.290  41.327  10.775
20076W        W85336  41.866  41.925  14.450
20077W        W85337  21.084  24.895   2.443
20078W        W85338  24.159  14.757  12.445
20079W        W85339  36.477  23.655   2.174
20080W        W85340  14.248  27.246   0.876
20081W        W85341  13.682   4.457  12.413
20082W        W85342  27.323  38.319   0.827
20083W        W85343  43.967  12.563   2.577
20084W        W85344  30.110  26.668  10.230
20085W        W85345  17.128  25.494   4.610
20086W        W85346  44.046  10.320   1.570
20087W        W85347  22.763  14.239   2.189
20088W        W85348  40.351  25.017  12.477
20089W        W85349  11.902  29.359   1.674
20090W        W85350  25.531   8.680   1.301
20091W        W85351  13.258  24.278   5.028
20092W        W85352  25.512   3.913   0.863
20093W        W85353  39.334  16.127   5.039
20094W        W85354  21.865   6.386  11.070
20095W        W85355  28.418  26.935   3.600
20096W        W85356   2.662   8.193   0.647
20097W        W85357  22.666  15.541   4.143
20098W        W85358  25.726  17.453   3.759
20099W        W85359  37.286   9.364   4.553
20100W        W85360  14.661  14.258  11.539
20101W        W85361  15.300  36.344   1.383
20102W        W85362  24.705   5.017  12.723
20103W        W85363  13.096  25.964  14.415
20104W        W85364  32.028   4.450  12.368
20105W        W85365  40.616  31.998   1.693
20106W        W85366  42.819  14.302   0.315
20107W        W85367  33.575   5.525   0.278
20108W        W85368  29.480  15.828  14.090
20109W        W85369  10.532  44.426  13.603
20110W        W85370  18.679  33.659   3.775
20111W        W85371  15.235  11.327   3.725
20112W        W85372  35.577  36.681   2.798
20113W        W85373  18.558  34.543   2.653
20114W        W85374  13.929  43.938  12.481
20115W        W85375  21.830  23.406   1.145
20116W        W85376  33.052  39.362   0.017
20117W        W85377   5.204  44.911   3.703
20118W        W85378  23.841  12.635  11.149
20119W        W85379  18.827   3.546   3.298
20120W        W85380  29.701   6.752   1.162
20121W        W85381  42.269  41.368   2.731
20122W        W85382  30.394  41.892   1.492
20123W        W85383  20.861  24.075   3.163
20124W        W85384  29.739  43.971  13.900
20125W        W85385  18.217  20.233   1.474
20126W        W85386  15.858  16.551  14.515
20127W        W85387  43.141  27.527   4.590
20128W        W85388  44.549  17.570  12.446
20129W        W85389  11.677  19.501   0.165
20130W        W85390  12.226  20.600   4.640
20131W        W85391  29.395  42.258  12.169
20132W        W85392  38.357  35.905   1.820
20133W        W85393  41.794  17.564  14.889
20134W        W85394   0.891  10.604  12.897
20135W        W85395  35.801  38.835  13.855
20136W        W85396  34.838   1.022   2.373
20137W        W85397   4.693  14.624   0.759
20138W        W85398   9.402  41.081  13.469
20139W        W85399  17.870  11.214  14.907
20140W        W85400   0.721  13.057   0.114
20141W        W85401  21.557  30.116   4.640
20142W        W85402  36.525  32.541   2.226
20143W        W85403  30.203  16.089  11.157
20144W        W85404   1.235  10.126  11.197
20145W        W85405  29.594   5.452   4.394
20146W        W85406  27.614  41.955  13.452
20147W        W85407  41.404  20.443   1.789
20148W        W85408  16.063  37.352  13.348
20149W        W85409  42.935  44.434  14.314
20150W        W85410  20.120  29.458  12.572
20151W        W85411  37.388  30.066   0.316
20152W        W85412  10.870   0.023  14.708
20153W        W85413   1.232  33.978   2.682
20154W        W85414  41.064  34.573  12.664
20155W        W85415  29.912  11.815  13.016
20156W        W85416   3.660   6.249  14.239
20157W        W85417  15.513  26.048   0.671
20158W        W85418  26.381  25.360   3.277
20159W        W85419  23.593  24.261   1.619
20160W        W85420   3.332  36.615   2.264
20161W        W85421   4.124   6.868  13.600
20162W        W85422  37.033  35.454   0.717
20163W        W85423   7.918   0.362  11.624
20164W        W85424  37.609  31.150  14.375
20165W        W85425  41.434  22.325  11.573
20166W        W85426   0.766   2.188  10.891
20167W        W85427  29.321  31.709   4.328
20168W        W85428  38.007   3.721   1.334
20169W        W85429  29.364  30.377   1.857
20170W        W85430  32.811   0.010  10.680
20171W        W85431  17.692  31.828   4.375
20172W        W85432  14.528  27.286   1.793
20173W        W85433  19.679  11.599  13.460
20174W        W85434  32.726   8.199  12.579
20175W        W85435  29.911  37.348   3.578
20176W        W85436   7.892  39.592   4.303
20177W        W85437  34.020  22.589   3.707
20178W        W85438  38.391  32.459   1.944
20179W        W85439  25.818  24.607  12.570
20180W        W85440  25.532  37.635  10.582
20181W        W85441  17.704  24.038  14.970
20182W        W85442  23.154  33.312   4.867
20183W        W85443  32.832  41.921   0.732
20184W        W85444   4.038  13.217  11.218
20185W        W85445  19.006  18.511  11.913
20186W        W85446   7.005  44.089  11.978
20187W        W85447   8.803  31.501   3.801
20188W        W85448  27.112  38.825  14.864
20189W        W85449  38.479  40.973   1.372
20190W        W85450  11.328  32.681   1.484
20191W        W85451  41.726  28.601   4.112
20192W        W85452   7.009  38.579  11.230
20193W        W85453   7.953  24.920   4.088
20194W        W85454  28.215  13.377   3.022
20195W        W85455   8.875  18.210  13.518
20196W        W85456  19.696  21.107   3.045
20197W        W85457  18.403  30.222   0.169
20198W        W85458  24.913   5.367   0.770
20199W        W85459  16.063  17.828   0.779
20200W        W85460  17.944  30.567  13.850
20201W        W85461  16.837  41.439  10.637
20202W        W85462   2.948  34.517  12.845
20203W        W85463   0.401   1.040  14.461
20204W        W85464  21.262   6.680   4.455
20205W        W85465  20.082  40.065   1.365
20206W        W85466  33.481  13.914  11.221
20207W        W85467  14.850   1.834   2.352
20208W        W85468  24.360  26.743  13.522
20209W        W85469  21.742   0.641   3.272
20210W        W85470   7.603  40.467  12.567
20211W        W85471  18.585  28.518  11.922
20212W        W85472  43.332   3.492   4.112
20213W        W85473  23.132  44.539  10.406
20214W        W85474  37.982  41.945   2.369
20215W        W85475  19.755   1.511  12.894
20216W        W85476   1.838  20.530   3.153
20217W        W85477  42.965  44.515   3.613
20218W        W85478  37.753  21.922  14.694
20219W        W85479   5.712   7.120  10.691
20220W        W85480  14.133  33.055  10.983
20221W        W85481  44.283   8.771  14.688
20222W        W85482  24.973  20.660   3.188
20223W        W85483  33.861  38.367  12.782
20224W        W85484   5.709  10.370  13.785
20225W        W85485   5.086  17.987   1.724
20226W        W85486  31.621  16.809   0.863
20227W        W85487   6.273  30.000   2.728
20228W        W85488  35.495   1.286   1.160
20229W        W85489  40.932  38.048   1.474
20230W        W85490  16.246  27.449   4.086
20231W        W85491   1.850  11.615  13.436
20232W        W85492  22.756  21.602   1.847
20233W        W85493  37.444  39.097  13.693
20234W        W85494  11.632  19.792   0.655
20235W        W85495  21.226  11.116   3.308
20236W        W85496  17.680  13.057  10.773
20237W        W85497  35.649  25.904  14.367
20238W        W85498  18.204   6.863   1.814
20239W        W85499  40.350  29.661  12.308
20240W        W85500   6.373  42.081  14.248
20241W        W85501  24.973   6.849   1.544
20242W        W85502  27.936  15.321   2.362
20243W        W85503  36.002  29.635  13.393
20244W        W85504  19.086  19.929   1.337
20245W        W85505   0.945  21.671   4.608
20246W        W85506  18.659   0.470   0.002
20247W        W85507  25.990  39.347  13.971
20248W        W85508  34.360  36.641  12.767
20249W        W85509  36.782  28.938   3.707
20250W        W85510  40.262  18.314  14.946
20251W        W85511  27.504  15.032  11.734
20252W        W85512  39.406  32.424   1.943
20253W        W85513  20.272  19.128  10.022
20254W        W85514  39.052  35.236   2.831
20255W        W85515   2.424   5.656   4.574
20256W        W85516   3.501  31.006   1.264
20257W        W85517  23.679  25.119   4.586
20258W        W85518  37.021   4.749   2.212
20259W        W85519   8.698   9.954  14.801
20260W        W85520  32.103  44.423  13.072
20261W        W85521  43.081  41.334  11.412
20262W        W85522  43.237  35.642   3.715
20263W        W85523  22.304  11.346   1.470
20264W        W85524  27.841  35.066   3.785
20265W        W85525  29.430  22.038  10.737
20266W        W85526  17.162  36.970   2.092
20267W        W85527  38.293  16.827  14.130
20268W        W85528  39.611  15.760  11.081
20269W        W85529  39.934   8.411  13.701
20270W        W85530  28.521  40.620  14.338
20271W        W85531   3.236  17.188  14.914
20272W        W85532  12.626   8.516   3.656
20273W        W85533  24.991  40.726  12.508
20274W        W85534  22.622   4.637  13.701
20275W        W85535  34.359   3.752   0.428
20276W        W85536   7.346   2.205  11.067
20277W        W85537  12.157   5.705  13.436
20278W        W85538   4.388  36.632   0.876
20279W        W85539   6.462  41.505  10.714
20280W        W85540  40.203  23.389   5.120
20281W        W85541  34.452  40.996  10.893
20282W        W85542  32.424  37.660  13.969
20283W        W85543   2.196   8.736  13.970
20284W        W85544   3.138  20.561   1.607
20285W        W85545  42.643  11.251  13.922
20286W        W85546   4.330  10.142  14.081
20287W        W85547  26.130  24.163  14.984
20288W        W85548  33.610  34.210   1.462
20289W        W85549   0.624   6.499   0.365
20290W        W85550   5.862  42.516   2.796
20291W        W85551  40.453  42.515   1.970
20292W        W85552  39.625  27.066  10.835
20293W        W85553   5.124   5.441   3.575
20294W        W85554  20.034  35.413  14.524
20295W        W85555   8.448  17.347  12.610
20296W        W85556  25.689  27.148  13.858
20297W        W85557  18.011   9.121  12.618
20298W        W85558  42.514  31.986   1.817
20299W        W85559  10.420  35.555   2.610
20300W        W85560   1.098  31.240  14.055
20301W        W85561   7.151  31.595   2.097
20302W        W85562  39.936   9.689   4.065
20303W        W85563   1.569  19.910  14.687
20304W        W85564  37.051  38.395   2.777
20305W        W85565   3.273   1.352   3.551
20306W        W85566  22.889  22.600  11.671
20307W        W85567  19.523  41.216  11.046
20308W        W85568  33.197  19.572   0.212
20309W        W85569  39.379  21.517   3.872
20310W        W85570  34.719  22.716   1.947
20311W        W85571   0.396  20.823  14.748
20312W        W85572   3.498  43.460  12.087
20313W        W85573  42.828   4.461   2.176
20314W        W85574   5.191   6.915   0.245
20315W        W85575   3.356   8.860  13.459
20316W        W85576  39.796  20.766  14.411
20317W        W85577  34.712   3.518   4.674
20318W        W85578  32.401  13.362   2.786
20319W        W85579  16.554  30.716  11.077
20320W        W85580  44.145  38.476   0.102
20321W        W85581   4.787  23.116  14.215
20322W        W85582  24.480  29.388   4.251
20323W        W85583  26.112  27.582   3.185
20324W        W85584  25.155   4.176  13.920
20325W        W85585   9.872  18.054   2.184
20326W        W85586   8.694  37.521  12.530
20327W        W85587   3.391  18.623   1.224
20328W        W85588  23.221  41.024   4.886
20329W        W85589  33.480  36.889  13.585
20330W        W85590  21.072  41.494   4.544
20331W        W85591  23.962  10.399  10.187
20332W        W85592  11.790  26.269   3.492
20333W        W85593  37.286  29.886  11.628
20334W        W85594  40.708   7.946   4.368
20335W        W85595  38.025   2.002   1.816
20336W        W85596  37.462  26.673   0.773
20337W        W85597  39.003   3.230  12.408
20338W        W85598  18.524  25.791   1.379
20339W        W85599  17.821  33.607   3.692
20340W        W85600  26.902  44.451   0.456
20341W        W85601  38.391  23.482   1.136
20342W        W85602  35.059  31.660   3.185
20343W        W85603  13.290  37.744  12.028
20344W        W85604  16.702  40.505   2.663
20345W        W85605   6.701   3.456  11.580
20346W        W85606  18.970  30.909   1.245
20347W        W85607  38.610  21.524   1.461
20348W        W85608  29.446  13.807  11.547
20349W        W85609  28.410   8.428  12.897
20350W        W85610   6.597  17.897   1.674
20351W        W85611  30.617  32.329  11.709
20352W        W85612  34.421   8.219  14.399
20353W        W85613  27.137  27.978  12.154
20354W        W85614  33.019  21.622  13.872
20355W        W85615   1.161   1.261   1.951
20356W        W85616  26.281  21.099  12.795
20357W        W85617  21.230  17.281   3.664
20358W        W85618  37.398  22.687  12.511
20359W        W85619  20.784   1.061   1.149
20360W        W85620  24.573  28.115  11.972
20361W        W85621  10.968  35.598   3.705
20362W        W85622  39.445  17.279  12.019
20363W        W85623  39.079   8.804   4.686
20364W        W85624  31.845  14.605   2.434
20365W        W85625   9.465   1.133   4.011
20366W        W85626  37.339  16.115  10.873
20367W        W85627   8.734  16.083  12.158
20368W        W85628  20.286  29.056  11.191
20369W        W85629  33.443  11.087  11.584
20370W        W85630  30.438  38.124  12.043
20371W        W85631  22.776  20.138  12.448
20372W        W85632   7.409  32.253  11.189
20373W        W85633  32.078  14.044   0.686
20374W        W85634  44.627  38.394  13.705
20375W        W85635  12.554  37.994  10.755
20376W        W85636  29.588   7.090   3.374
20377W        W85637  16.754   4.354   0.537
20378W        W85638  28.051  16.038   1.596
20379W        W85639  34.402  38.523  10.900
20380W        W85640  26.676  34.027  14.819
20381W        W85641  38.649  37.971   2.289
20382W        W85642  31.924   9.249  14.586
20383W        W85643  34.446  13.831   0.434
20384W        W85644  19.668  15.392   1.225
20385W        W85645   7.158  27.852   1.392
20386W        W85646  38.345  16.119   3.087
20387W        W85647  41.956  31.443   1.043
20388W        W85648  12.275  39.409  14.469
20389W        W85649  33.645  14.380   2.281
20390W        W85650  36.885   9.341   1.800
20391W        W85651   1.443  21.546   4.762
20392W        W85652   9.069  35.752   2.725
20393W        W85653  12.676  38.932   3.149
20394W        W85654  11.111  22.677   0.927
20395W        W85655  40.262  32.112   2.125
20396W        W85656   7.051  43.636   4.768
20397W        W85657  26.658  43.313  11.913
20398W        W85658   2.717  12.822   2.783
20399W        W85659   6.964   5.898   0.721
20400W        W85660   0.213  34.364   2.313
20401W        W85661   9.423  12.952  13.835
20402W        W85662  40.108  42.411  10.819
20403W        W85663  24.488  15.816   0.946
20404W        W85664   9.475   4.308   3.682
20405W        W85665  44.236  30.957   0.746
20406W        W85666  37.598  22.666   3.576
20407W        W85667  12.163  20.055   4.533
20408W        W85668   7.439  18.081   0.870
20409W        W85669   9.213   0.321   1.421
20410W        W85670   2.955  41.696   4.738
20411W        W85671   2.098  10.254  11.082
20412W        W85672  35.997  44.937  14.225
20413W        W85673   3.342  14.533   5.098
20414W        W85674  22.395  35.444  14.400
20415W        W85675  23.573   3.343  10.815
20416W        W85676  19.415  16.651  11.039
20417W        W85677  19.058  30.154  10.594
20418W        W85678  20.171  10.863   3.159
20419W        W85679  17.595  28.483   3.116
20420W        W85680  39.045  10.575  11.146
20421W        W85681  20.550  40.885  11.192
20422W        W85682   8.403  14.936  14.320
20423W        W85683  20.201   8.652   5.419
20424W        W85684  30.419   8.380   3.638
20425W        W85685  25.021  38.989   2.432
20426W        W85686  28.260   3.921   4.272
20427W        W85687  11.238  22.335   1.985
20428W        W85688  12.215  23.660  14.069
20429W        W85689   8.882  21.978  10.775
20430W        W85690  37.514  27.979   4.160
20431W        W85691  33.970  21.130  13.062
20432W        W85692  38.025  11.425  14.361
20433W        W85693  17.209  33.363  11.043
20434W        W85694  24.717  16.343   0.908
20435W        W85695  29.601  32.578   0.379
20436W        W85696  21.493  17.612   1.898
20437W        W85697  10.874  17.803  13.900
20438W        W85698  39.082  36.587  13.894
20439W        W85699  42.806  38.973  13.248
20440W        W85700  17.432  33.060   3.238
20441W        W85701  41.797  35.049  12.964
20442W        W85702  14.387  23.175  14.491
20443W        W85703  39.608  37.338   4.542
20444W        W85704   0.806  30.231  11.605
20445W        W85705  26.998   0.210  14.321
20446W        W85706  13.698  27.107   0.937
20447W        W85707  25.529   7.204   0.298
20448W        W85708  20.695  31.327   3.454
20449W        W85709  43.600  20.463  14.756
20450W        W85710  34.564  30.578   2.482
20451W        W85711  16.157   4.457   4.890
20452W        W85712  44.830  18.651  11.924
20453W        W85713  44.534   4.819   4.243
20454W        W85714  14.165  13.385   0.489
20455W        W85715  39.373  30.617  14.350
20456W        W85716  17.810  21.547  14.383
20457W        W85717  23.046  39.045  11.482
20458W        W85718   6.210   5.866  11.137
20459W        W85719  36.157  39.967   1.324
20460W        W85720  33.980  18.450   2.094
20461W        W85721  13.621   3.404   0.960
20462W        W85722  14.719   6.908   3.701
20463W        W85723  34.506   4.172   3.175
20464W        W85724  30.854   2.768   0.330
20465W        W85725  32.506   8.880   4.085
20466W        W85726  40.498   9.124  13.517
20467W        W85727  18.594  10.761   3.500
20468W        W85728  13.347  37.377   4.576
20469W        W85729  13.924  44.993  13.805
20470W        W85730  39.965   0.286  13.322
20471W        W85731  40.470  19.945  13.037
20472W        W85732   4.072  20.460   4.072
20473W        W85733  23.987  31.146   1.680
20474W        W85734  24.966  41.249  12.508
20475W        W85735  33.222   5.841  13.901
20476W        W85736  41.689  10.900  10.631
20477W        W85737  17.295  40.318   4.292
20478W        W85738   4.687  38.436  14.430
20479W        W85739  32.637  38.438  10.651
20480W        W85740  18.653  25.480   0.458
20481W        W85741   1.813  21.511  10.639
20482W        W85742  20.937  32.004   1.364
20483W        W85743  10.058  12.342   1.754
20484W        W85744  14.482   7.826  12.781
20485W        W85745  38.510  27.412  13.377
20486W        W85746  17.640  33.329  12.081
20487W        W85747  16.728   4.893  14.826
20488W        W85748  20.682  21.810  10.703
20489W        W85749   9.867  44.030  12.363
20490W        W85750   7.635  31.060   1.766
20491W        W85751  24.757  12.607   1.509
20492W        W85752  43.048  40.507  11.049
20493W        W85753   9.382  24.048   1.432
20494W        W85754   1.180  41.883   4.356
20495W        W85755  29.144  30.502   3.157
20496W        W85756  10.751  38.065   4.320
20497W        W85757  13.814  26.168   0.945
20498W        W85758  35.650  40.572   1.089
20499W        W85759  32.159  18.389   1.792
20500W        W85760  28.681  10.165  10.512
20501W        W85761   5.246  37.913  13.800
20502W        W85762  24.303  18.057   1.668
20503W        W85763  26.969  23.477   2.429
20504W        W85764  24.248  38.415  11.519
20505W        W85765   2.889  36.333   4.124
20506W        W85766   8.570  37.391   1.316
20507W        W85767  20.016  37.471   4.572
20508W        W85768  39.834  24.275  10.724
20509W        W85769  21.471  30.063  12.877
20510W        W85770   7.041   1.474  13.101
20511W        W85771  42.541  37.611   2.701
20512W        W85772   6.545  14.156  14.481
20513W        W85773  20.540  19.668   2.891
20514W        W85774  39.229   2.154   0.431
20515W        W85775   1.258  21.217  11.213
20516W        W85776  23.193   9.786   1.700
20517W        W85777  43.848  24.634  11.515
20518W        W85778  40.325  20.028  10.683
20519W        W85779  42.348  16.199   1.490
20520W        W85780  42.242  22.702  13.840
20521W        W85781   2.813  39.089   0.779
20522W        W85782  27.825  21.657  12.844
20523W        W85783   4.339  43.257  14.784
20524W        W85784  43.284  38.504  12.561
20525W        W85785   0.383  35.033  10.808
20526W        W85786  10.109  28.238   2.452
20527W        W85787  42.498  32.348  10.546
20528W        W85788  32.577  18.855   5.290
20529W        W85789   9.864  18.898  10.652
20530W        W85790   2.400  25.952   3.120
20531W        W85791  19.979  33.001  13.826
20532W        W85792  34.545   9.373   2.381
20533W        W85793   1.354  33.364  11.883
20534W        W85794  15.459  30.379  14.225
20535W        W85795  35.434  20.726   2.716
20536W        W85796   8.551  27.558   1.532
20537W        W85797  41.523  33.251  10.493
20538W        W85798  18.812  20.707  10.957
20539W        W85799  20.065  23.635   5.032
20540W        W85800  19.403  40.970   3.743
20541W        W85801  22.919  39.851  13.119
20542W        W85802  17.350   4.328  14.405
20543W        W85803  14.066  24.132  12.069
20544W        W85804  23.075  24.518  14.802
20545W        W85805   8.769   2.268   1.199
20546W        W85806   1.453   5.795   1.889
20547W        W85807  16.307   3.899  14.966
20548W        W85808   4.321  13.247   0.904
20549W        W85809  34.068  19.077   2.786
20550W        W85810  23.039   7.929   3.800
20551W        W85811  34.088  43.645  13.984
20552W        W85812  40.835  31.759   0.190
20553W        W85813  38.824  39.802  11.498
20554W        W85814  17.820   2.551   0.890
20555W        W85815  15.616  17.607   0.608
20556W        W85816  20.402  42.976  13.214
20557W        W85817  43.918  42.240   1.257
20558W        W85818  26.816  31.945   1.432
20559W        W85819   1.045  10.431  14.910
20560W        W85820  36.434  12.347   0.846
20561W        W85821   2.923  17.492   1.894
20562W        W85822  25.313  26.382   2.291
20563W        W85823  28.939  31.802   2.900
20564W        W85824  16.711  40.509   3.195
20565W        W85825  16.270  10.791   2.887
20566W        W85826  11.417  39.866   3.998
20567W        W85827   1.296  21.522  10.394
20568W        W85828   5.874  40.438   4.607
20569W        W85829   9.858  11.777   2.300
20570W        W85830  21.684  25.688   3.641
20571W        W85831  30.916  38.328  12.043
20572W        W85832  24.136   7.646   2.625
20573W        W85833   8.822  22.489  12.731
20574W        W85834  32.074  10.106   1.325
20575W        W85835  36.812  13.668  12.049
20576W        W85836   5.961  38.379  12.958
20577W        W85837  31.355  16.254   4.180
20578W        W85838  34.878  42.221   2.766
20579W        W85839  44.338  19.879  11.429
20580W        W85840  22.347   9.773   4.636
20581W        W85841  23.675  15.152   4.252
20582W        W85842   9.253  11.906   1.676
20583W        W85843  26.649  21.948  11.462
20584W        W85844  38.465  28.520  11.747
20585W        W85845   1.473   6.334   4.067
20586W        W85846  31.150   8.415   1.415
20587W        W85847  38.109  35.772  11.590
20588W        W85848   0.621  36.804   3.768
20589W        W85849  12.356  22.285   1.834
20590W        W85850  23.008  19.679  12.787
20591W        W85851  26.578  40.970  12.451
20592W        W85852  40.558  14.936  11.594
20593W        W85853  23.179  35.770   2.799
20594W        W85854  39.537   1.140   3.119
20595W        W85855   5.180  16.345  11.176
20596W        W85856  23.181  23.734   0.248
20597W        W85857  18.520  39.529  11.485
20598W        W85858  25.081   6.995   2.797
20599W        W85859  41.502  23.408  13.418
20600W        W85860  30.491  28.590  13.426
20601W        W85861  17.958  20.609   2.103
20602W        W85862  29.786  23.537  10.775
20603W        W85863  21.934  24.541   5.159
20604W        W85864   9.398  17.235  12.087
20605W        W85865  32.431  12.138   1.879
20606W        W85866  24.171  20.583  14.100
20607W        W85867  26.436  39.816  13.919
20608W        W85868  42.331   1.701  10.587
20609W        W85869   8.907   4.478  14.951
20610W        W85870   2.826  27.866   2.868
20611W        W85871  16.597  16.951   3.731
20612W        W85872  22.662  12.294   2.451
20613W        W85873  17.256  21.139   2.484
20614W        W85874   8.029   0.858   1.571
20615W        W85875  30.529   9.283  12.112
20616W        W85876   3.707  43.094   2.468
20617W        W85877  41.332  20.939  12.641
20618W        W85878   1.424   0.256  13.561
20619W        W85879  33.078  28.076  14.089
20620W        W85880   4.505  44.894  11.270
20621W        W85881  37.338  23.695   2.106
20622W        W85882   1.918  19.589  14.475
20623W        W85883  30.178  24.097   1.883
20624W        W85884  30.507   9.662  12.490
20625W        W85885  15.267  18.462   3.198
20626W        W85886  11.958  14.610   4.994
20627W        W85887  30.868  37.962  14.824
20628W        W85888  26.665  17.614   2.779
20629W        W85889   4.052  28.523   4.651
20630W        W85890   9.627   6.771  10.957
20631W        W85891  11.635   8.766   0.798
20632W        W85892  17.413  10.184   2.178
20633W        W85893  20.732   3.214   3.590
20634W        W85894  43.530   9.326   2.401
20635W        W85895  42.744  23.148  10.559
20636W        W85896  22.131   5.902   0.800
20637W        W85897  35.907  39.099  11.598
20638W        W85898  11.423   7.259   1.752
20639W        W85899  40.382   2.858   1.162
20640W        W85900  28.418  10.232  10.974
20641W        W85901  40.445   1.969  10.957
20642W        W85902  40.823   4.159   1.265
20643W        W85903  44.730  31.561  10.506
20644W        W85904  24.235  13.662   5.043
20645W        W85905   3.947  17.117  10.694
20646W        W85906  25.203   8.888   2.859
20647W        W85907  30.081  33.419   1.723
20648W        W85908  27.484  17.627  11.659
20649W        W85909  11.777  26.867  12.480
20650W        W85910  43.260  11.310  13.363
20651W        W85911  17.073  30.434   0.818
20652W        W85912   1.697  41.763  11.139
20653W        W85913   8.408  40.487  12.656
20654W        W85914   3.531  10.269  10.687
20655W        W85915  36.378  36.556  12.933
20656W        W85916  39.397  41.736  14.570
20657W        W85917  33.861  43.810   4.096
20658W        W85918  18.161   5.447  13.294
20659W        W85919  42.210  32.942   0.463
20660W        W85920  17.341  21.765   4.135
20661W        W85921  10.900   4.791  14.033
20662W        W85922   4.727  21.691   3.149
20663W        W85923  23.130  28.194  12.086
20664W        W85924   7.839  44.973   2.625
20665W        W85925  43.642  30.458   0.076
20666W        W85926  26.149  22.925   1.934
20667W        W85927  33.052  37.236   3.708
20668W        W85928  12.803  25.439   1.242
20669W        W85929  12.029  21.194   2.287
20670W        W85930  21.385  42.839  10.217
20671W        W85931  33.184  37.643  11.480
20672W        W85932   9.725  10.899   3.758
20673W        W85933  10.643   1.290   2.664
20674W        W85934  29.664   5.918  12.408
20675W        W85935   6.728  38.744   4.882
20676W        W85936  24.659  10.963   4.633
20677W        W85937  43.506   6.846   0.701
20678W        W85938  15.398  24.548   2.678
20679W        W85939  36.585   0.391   0.476
20680W        W85940  26.756  17.232   1.893
20681W        W85941   1.531  16.810  13.441
20682W        W85942  14.516  21.055   1.612
20683W        W85943  15.543  32.940  10.764
20684W        W85944  27.822  23.540  14.113
20685W        W85945  35.952  22.064   1.885
20686W        W85946  19.627  12.217   3.326
20687W        W85947  37.459  42.037  13.745
20688W        W85948  15.628  20.088   5.303
20689W        W85949  20.013   2.149   3.234
20690W        W85950   5.902  23.441   2.844
20691W        W85951  21.931  30.821  12.068
20692W        W85952  44.400  34.596   4.713
20693W        W85953   4.633  30.522  11.443
20694W        W85954  44.034  43.539   1.713
20695W        W85955  12.327  27.153  13.542
20696W        W85956  29.573  26.923  11.964
20697W        W85957   2.766  32.593   1.666
20698W        W85958  30.538  15.138   5.095
20699W        W85959  38.029  15.689  14.936
20700W        W85960  20.596  11.604  11.369
20701W        W85961  34.986  36.306   4.133
20702W        W85962  26.017  31.924  11.085
20703W        W85963  35.958   3.378  13.884
20704W        W85964  44.382  28.274  12.132
20705W        W85965  30.016   0.753   3.660
20706W        W85966  13.291  11.656  12.450
20707W        W85967  42.271  44.005  10.612
20708W        W85968  34.784  31.557   2.759
20709W        W85969  16.157  43.618  13.792
20710W        W85970  20.146   9.180   4.684
20711W        W85971  18.570  11.892  11.580
20712W        W85972  39.286  26.213   4.156
20713W        W85973  40.497  17.546   1.993
20714W        W85974   0.775  26.657  14.422
20715W        W85975  36.680  44.241   2.639
20716W        W85976  27.089  24.370  11.104
20717W        W85977   1.164  34.131   4.111
20718W        W85978  23.713   3.258  12.143
20719W        W85979  17.541  40.816   0.868
20720W        W85980  37.312  27.555   4.517
20721W        W85981  11.347  42.817   3.642
20722W        W85982  27.941  37.239  12.411
20723W        W85983  13.755   4.769   2.155
20724W        W85984  21.491  36.024   3.628
20725W        W85985   7.723  36.787   1.231
20726W        W85986  13.003   2.375   3.723
20727W        W85987  16.150  35.471  14.376
20728W        W85988  35.028  29.065   3.142
20729W        W85989   9.834  43.358  12.166
20730W        W85990  17.303   2.966  11.694
20731W        W85991   0.371  34.928   3.555
20732W        W85992  20.844  36.961   4.626
20733W        W85993  24.909  33.313  11.614
20734W        W85994   4.958  13.117  11.511
20735W        W85995  36.497   5.298  12.009
20736W        W85996  18.399  27.008   2.950
20737W        W85997  17.041  19.295   0.788
20738W        W85998  22.655  16.202  12.143
20739W        W85999  29.511   9.614  14.517
20740W        W86000  24.185  31.270   3.394
20741W        W86001  19.929  37.932  10.203
20742W        W86002  14.794  12.392   1.270
20743W        W86003  28.608  29.006  10.451
20744W        W86004  10.492  11.369  14.905
20745W        W86005  31.242   1.837   2.697
20746W        W86006  17.776  21.399   4.878
20747W        W86007   2.269   1.721   1.311
20748W        W86008  35.084  38.767   3.218
20749W        W86009  34.735  27.524   0.787
20750W        W86010   0.659  39.001   1.297
20751W        W86011  38.846  29.571   4.307
20752W        W86012  13.875   8.176   1.687
20753W        W86013  23.554  37.388  14.410
20754W        W86014  30.153  31.429   0.351
20755W        W86015  31.075  25.197  14.083
20756W        W86016   3.822   1.547  14.923
20757W        W86017  13.166  29.756  11.182
20758W        W86018   6.398  27.234   3.263
20759W        W86019   8.878  10.200  12.015
20760W        W86020   9.126  10.129   9.783
20761W        W86021  30.077  10.219   2.924
20762W        W86022  32.558  27.357   1.634
20763W        W86023  15.082   2.136  11.154
20764W        W86024  44.764  41.448  14.746
20765W        W86025  26.074   4.331  14.448
20766W        W86026  25.277   4.377   0.737
20767W        W86027   3.416  36.038   2.026
20768W        W86028  44.508  28.957  13.641
20769W        W86029  11.188  13.666   4.001
20770W        W86030  38.593  38.111   1.446
20771W        W86031  17.589  35.034  10.385
20772W        W86032  39.764  32.089   3.292
20773W        W86033  21.433  27.438   2.267
20774W        W86034  42.043  17.459   1.258
20775W        W86035   2.402   7.233  12.607
20776W        W86036  33.421   4.249  12.663
20777W        W86037   4.200  18.748  14.326
20778W        W86038  32.182  41.623   3.344
20779W        W86039  34.617   6.214  11.558
20780W        W86040   3.256   7.655  11.574
20781W        W86041  37.970  24.471   4.753
20782W        W86042  42.271  11.893   1.921
20783W        W86043  21.309  13.808  13.893
20784W        W86044  36.980   4.666  10.569
20785W        W86045  27.750  34.583   3.555
20786W        W86046  12.077   9.802   5.123
20787W        W86047  33.287   2.523   1.240
20788W        W86048  23.129  34.370  12.481
20789W        W86049  37.320   1.450  14.393
20790W        W86050  25.734  29.592   3.679
20791W        W86051  18.788  11.715   4.158
20792W        W86052   6.980   6.697  12.265
20793W        W86053  43.485   6.134  11.014
20794W        W86054  44.104  41.843   5.124
20795W        W86055  23.444  29.209  13.319
20796W        W86056  20.655  31.718  14.475
20797W        W86057  37.479  32.850  14.033
20798W        W86058   4.209  32.084   4.112
20799W        W86059  34.041  36.316  14.030
20800W        W86060  36.929  44.547   3.254
20801W        W86061  38.553   7.690  13.355
20802W        W86062  29.501  20.184   3.569
20803W        W86063  34.436   3.212   4.339
20804W        W86064  12.576  33.704   1.433
20805W        W86065   3.492  37.943   2.597
20806W        W86066  13.319  29.061   3.329
20807W        W86067  19.143  11.651   2.701
20808W        W86068  18.520  42.905  14.217
20809W        W86069  27.442  35.265   0.718
20810W        W86070  11.587  19.767  12.961
20811W        W86071  37.896  43.217  12.926
20812W        W86072   0.826  34.919  10.519
20813W        W86073  28.251  12.043   2.636
20814W        W86074  40.720  20.506   0.496
20815W        W86075   6.314   7.944  14.510
20816W        W86076  13.632  21.312  11.002
20817W        W86077  41.472  37.997   1.432
20818W        W86078  26.922  37.219   5.741
20819W        W86079  31.535   9.118   3.630
20820W        W86080  38.873  15.696   1.919
20821W        W86081   7.918  44.965   4.572
20822W        W86082  14.520  25.212  11.071
20823W        W86083  25.090   7.368   1.025
20824W        W86084  40.007   8.406  11.465
20825W        W86085  37.967  15.640  12.722
20826W        W86086   4.860  30.159   4.645
20827W        W86087  32.625   5.496   2.263
20828W        W86088   0.509  13.897  12.005
20829W        W86089  18.638  39.077   0.350
20830W        W86090  41.899  36.157  11.210
20831W        W86091  10.584  10.764  14.500
20832W        W86092  44.569   6.504   1.365
20833W        W86093  14.741  23.177   2.097
20834W        W86094   1.773  15.001  12.592
20835W        W86095  40.059  16.260  13.747
20836W        W86096  15.040  23.709  14.290
20837W        W86097  26.958  24.098   0.339
20838W        W86098  43.791  38.914  13.823
20839W        W86099  21.179  11.412   0.769
20840W        W86100  44.378  35.098   4.869
20841W        W86101  19.270  25.196   0.402
20842W        W86102  11.802   6.836  13.076
20843W        W86103  35.560  31.379   4.153
20844W        W86104  15.338  15.698   2.597
20845W        W86105   2.732  23.717  11.024
20846W        W86106  27.144  13.189   1.375
20847W        W86107  35.871  35.922  12.505
20848W        W86108  41.884   8.327  12.050
20849W        W86109   7.947   9.285   4.582
20850W        W86110  37.035  24.761   3.392
20851W        W86111  30.383   5.484   1.851
20852W        W86112  42.885  29.351  13.348
20853W        W86113  24.124  40.668   4.052
20854W        W86114  15.706  13.381  11.573
20855W        W86115  31.920  35.570  13.489
20856W        W86116   3.110  14.409   1.400
20857W        W86117  36.638  25.128   1.199
20858W        W86118  15.430  21.566   5.557
20859W        W86119  19.790  37.379  11.159
20860W        W86120  26.103   0.946   1.927
20861W        W86121  28.099  21.290   4.125
20862W        W86122  40.102  26.537  14.381
20863W        W86123  22.830  14.318   4.571
20864W        W86124  18.149  19.977  11.095
20865W        W86125   2.718  12.812   3.786
20866W        W86126  16.049   2.190   0.002
20867W        W86127  11.087  10.166   0.699
20868W        W86128  11.743  21.450  14.349
20869W        W86129  33.048   4.842  14.145
20870W        W86130   4.430  29.003  14.415
20871W        W86131  16.559  40.374   3.823
20872W        W86132  26.178  44.395  11.875
20873W        W86133   5.766  19.999   2.904
20874W        W86134   2.740  41.880  14.268
20875W        W86135  13.163  18.742   3.443
20876W        W86136  28.721  14.211   2.382
20877W        W86137  43.795  42.482   4.504
20878W        W86138   6.388   7.239   3.321
20879W        W86139   4.810   2.000  12.937
20880W        W86140  33.033  10.624   4.951
20881W        W86141   2.655  32.450   2.678
20882W        W86142   5.393  10.338  14.682
20883W        W86143   7.391  19.607   1.659
20884W        W86144  39.610   7.175   1.145
20885W        W86145  27.568  32.137   0.274
20886W        W86146  15.714  14.599  14.454
20887W        W86147  16.686  33.876   3.813
20888W        W86148  26.238   4.404   2.108
20889W        W86149  24.530  31.432   2.452
20890W        W86150  18.173  38.866   2.683
20891W        W86151   9.667   1.953  10.628
20892W        W86152  15.889  41.794   4.602
20893W        W86153  42.209  21.601   0.369
20894W        W86154  34.078   5.509   0.426
20895W        W86155   1.264  13.903  11.537
20896W        W86156  27.235  20.586  14.752
20897W        W86157  17.542  23.641  12.887
20898W        W86158  35.523  10.842   4.126
20899W        W86159  35.542  22.277   1.610
20900W        W86160  44.580  21.128  12.554
20901W        W86161   1.943  35.686  11.560
20902W        W86162  11.368  17.307  12.038
20903W        W86163  32.930  10.938   2.485
20904W        W86164  19.244  24.597  13.427
20905W        W86165  15.731   1.442   0.936
20906W        W86166  27.940  27.704  13.037
20907W        W86167  38.941   6.416  14.854
20908W        W86168  44.264  38.785   4.281
20909W        W86169   0.017  24.038   0.496
20910W        W86170  12.959  25.892   0.353
20911W        W86171  18.137  16.195  12.135
20912W        W86172   6.234   6.430   0.176
20913W        W86173  42.848  33.669  13.582
20914W        W86174  22.546  38.550   0.041
20915W        W86175  37.029   4.938  11.791
20916W        W86176  23.713   2.256  10.658
20917W        W86177  42.325  26.145   3.291
20918W        W86178  20.979  28.917  12.526
20919W        W86179  32.638  25.438   3.792
20920W        W86180  19.970  30.713  13.877
20921W        W86181  17.271  42.424  11.960
20922W        W86182   5.259   9.388  13.310
20923W        W86183   2.794   6.924   3.686
20924W        W86184  14.303  39.690   4.141
20925W        W86185   4.162  24.645   1.325
20926W        W86186  24.704   4.230  14.906
20927W        W86187   7.291  41.040   3.639
20928W        W86188  17.703  10.681  10.808
20929W        W86189  16.583  39.484  14.945
20930W        W86190  22.237  35.437  13.011
20931W        W86191  11.309  27.107  10.115
20932W        W86192  14.829   6.844   0.826
20933W        W86193   2.667  41.989  14.774
20934W        W86194   6.976   5.777   1.706
20935W        W86195   9.835  15.805  14.421
20936W        W86196  32.436   4.397   3.626
20937W        W86197  32.959  12.538  11.114
20938W        W86198  35.513  14.279  10.657
20939W        W86199  26.472  32.692   2.312
20940W        W86200  14.892   0.430  10.580
20941W        W86201   1.929  19.086  14.487
20942W        W86202  33.267  32.293   0.365
20943W        W86203   9.860  23.120   2.712
20944W        W86204  29.383  24.000  12.920
20945W        W86205   7.960  20.142   4.086
20946W        W86206  24.436   6.204  13.488
20947W        W86207  25.981  26.653   4.915
20948W        W86208  23.156  13.624  14.296
20949W        W86209  18.365  31.518   3.582
20950W        W86210  17.723  41.947   3.915
20951W        W86211   7.965  25.190  11.876
20952W        W86212  42.587  13.359   3.797
20953W        W86213   7.771  16.823   0.245
20954W        W86214   6.907   1.250   2.488
20955W        W86215  19.885  14.073   1.883
20956W        W86216  23.637  13.311  10.821
20957W        W86217  22.519  21.965  14.153
20958W        W86218  43.926  30.647   0.462
20959W        W86219   6.175  42.773  13.477
20960W        W86220  40.634   3.549  11.580
20961W        W86221   3.158  31.410  13.947
20962W        W86222  22.892  29.221  12.026
20963W        W86223  18.671  21.503  14.895
20964W        W86224  32.045  32.095  14.399
20965W        W86225  34.643  15.906   0.439
20966W        W86226  38.375   7.395   3.693
20967W        W86227  15.247  34.817  10.696
20968W        W86228  23.547  36.050   2.617
20969W        W86229  24.821  27.904   3.251
20970W        W86230   2.884  19.293   1.303
20971W        W86231  29.252  34.874  13.894
20972W        W86232  39.528  39.944  11.478
20973W        W86233  12.931  16.272  11.063
20974W        W86234  22.073  12.952  12.802
20975W        W86235   0.070   8.263  13.807
20976W        W86236   3.633  11.801  14.366
20977W        W86237  17.522  32.873   2.287
20978W        W86238  28.417  15.123  10.691
20979W        W86239  10.909  15.567   2.173
20980W        W86240  25.959  19.749   1.474
20981W        W86241   6.557   9.474   1.410
20982W        W86242  40.261   8.868   3.316
20983W        W86243   7.808  19.951  11.414
20984W        W86244   2.757  23.268  12.458
20985W        W86245   0.285  35.784  14.840
20986W        W86246   5.943   7.915   2.767
20987W        W86247  34.791  36.830  10.782
20988W        W86248   1.492  34.896   4.248
20989W        W86249  27.863  35.919  12.416
20990W        W86250   1.377  32.670  14.943
20991W        W86251  27.441  13.275  11.592
20992W        W86252  38.911   6.712  12.968
20993W        W86253  21.132   2.200  12.852
20994W        W86254  23.267  16.494  14.028
20995W        W86255  20.765  15.552   0.539
20996W        W86256   5.237  24.230   4.125
20997W        W86257  27.858  38.932  14.269
20998W        W86258  16.662  25.769  11.090
20999W        W86259  25.092  26.542  11.580
21000W        W86260  38.789   7.275  14.976
21001W        W86261  44.330  16.934   4.541
21002W        W86262   4.577  43.544  13.032
21003W        W86263   9.772  17.597   1.334
21004W        W86264  20.976   4.882  13.863
21005W        W86265  22.833   5.210   2.739
21006W        W86266  43.021  38.591   1.716
21007W        W86267  25.974  30.959  14.818
21008W        W86268  29.220  29.984  14.948
21009W        W86269   6.418  44.792  12.038
21010W        W86270  17.170  25.856   4.243
21011W        W86271  24.228  42.515   3.134
21012W        W86272  10.817   6.000  11.134
21013W        W86273  31.095  40.813  12.557
21014W        W86274  30.464  16.346  11.634
21015W        W86275  34.969  23.995  13.437
21016W        W86276  11.251  18.092   4.114
21017W        W86277   4.880   1.402  14.375
21018W        W86278  34.428  33.165  14.333
21019W        W86279  34.338  18.472  14.468
21020W        W86280  17.034  38.917  13.597
21021W        W86281   4.610  30.322   1.538
21022W        W86282  40.509  28.194  10.710
21023W        W86283   4.477  36.446  11.179
21024W        W86284  31.133  39.083   0.432
21025W        W86285  36.881  19.227  10.998
21026W        W86286   1.826  31.000   3.666
21027W        W86287  10.400  17.142  11.614
21028W        W86288  14.114  42.506   2.461
21029W        W86289  17.546   1.651   4.278
21030W        W86290   2.937  12.283   2.738
21031W        W86291  29.387  25.604   1.898
21032W        W86292  12.062  16.173   3.633
21033W        W86293  20.427  44.270  11.978
21034W        W86294  25.493   0.618  13.536
21035W        W86295  28.597  16.827  13.493
21036W        W86296   7.916   8.348   2.835
21037W        W86297  36.473  22.836   1.777
21038W        W86298  37.302  41.933  13.263
21039W        W86299  32.042  29.116   3.930
21040W        W86300  24.712  32.651   2.744
21041W        W86301   4.982  37.402  12.921
21042W        W86302  16.634  11.879  10.710
21043W        W86303  36.930  26.239   4.322
21044W        W86304  26.484  15.496  14.406
21045W        W86305  35.042  14.768   4.631
21046W        W86306  17.690  41.538   2.521
21047W        W86307  13.205  40.998  12.603
21048W        W86308   5.887  29.344  13.368
21049W        W86309  43.122  41.096   3.594
21050W        W86310  17.986   4.175  11.431
21051W        W86311  21.439  22.564   4.113
21052W        W86312  25.936   3.206   3.329
21053W        W86313  22.426  10.766  13.259
21054W        W86314  16.925  33.131   0.452
21055W        W86315  41.444  14.333   0.886
21056W        W86316  41.807  44.136   1.919
21057W        W86317  12.338  24.612   4.612
21058W        W86318  19.239  34.737  13.950
21059W        W86319  29.416  41.924  11.250
21060W        W86320  20.099  44.911   1.448
21061W        W86321  24.960   4.666  14.827
21062W        W86322  20.985  30.849  13.479
21063W        W86323  12.126  14.819   0.950
21064W        W86324  12.420  10.234  11.591
21065W        W86325  19.968   9.166   3.715
21066W        W86326  34.517  20.636  12.501
21067W        W86327  42.079  38.072   2.213
21068W        W86328  10.817  40.638   1.097
21069W        W86329  35.626  43.323   2.452
21070W        W86330  34.166  36.584  14.471
21071W        W86331  24.380  14.596   4.395
21072W        W86332  29.027   6.030   0.835
21073W        W86333   8.681  41.861  11.520
21074W        W86334  18.040  21.178   4.061
21075W        W86335  14.442  24.459  10.713
21076W        W86336  42.318  32.427   0.289
21077W        W86337   5.853  33.964   0.385
21078W        W86338  39.536  35.505   3.723
21079W        W86339  24.206  42.426   1.972
21080W        W86340  20.787  42.674  13.032
21081W        W86341   7.470  36.152   4.415
21082W        W86342   5.106   7.388   0.042
21083W        W86343  29.999  27.180   1.181
21084W        W86344  35.329  22.755   2.281
21085W        W86345  36.291  27.017  11.633
21086W        W86346   9.227  11.316   1.444
21087W        W86347  22.166  35.199  11.494
21088W        W86348   6.595   2.377  11.262
21089W        W86349   7.061  28.795   1.199
21090W        W86350  34.971  30.261   5.020
21091W        W86351  22.207  25.601   3.730
21092W        W86352  12.660  22.086   0.349
21093W        W86353   8.774  23.967   4.147
21094W        W86354  31.381  13.879   2.146
21095W        W86355  12.273  31.793  10.815
21096W        W86356  18.709  38.778   0.778
21097W        W86357   7.782   6.139  12.997
21098W        W86358  18.167  34.440  11.983
21099W        W86359  37.280  38.447   4.676
21100W        W86360  17.307  38.026  11.568
21101W        W86361  16.350  38.474  10.856
21102W        W86362  38.772  31.982  12.868
21103W        W86363  23.625  25.191  13.154
21104W        W86364  12.874  35.271   0.765
21105W        W86365  40.317  44.966  10.908
21106W        W86366   4.821  14.075   3.830
21107W        W86367  40.970  33.353   2.799
21108W        W86368  23.291   5.917  14.479
21109W        W86369  32.418  16.767   1.771
21110W        W86370  36.790   1.172  12.592
21111W        W86371  22.664  15.595   3.513
21112W        W86372  31.227  33.370  14.494
21113W        W86373  12.377   8.851  12.153
21114W        W86374  17.750  41.315  11.770
21115W        W86375  23.254   3.234   5.731
21116W        W86376  13.280  21.957  12.345
21117W        W86377  16.540  31.904  11.564
21118W        W86378  39.991  37.963   3.282
21119W        W86379  31.605  41.312   3.383
21120W        W86380  40.033   6.560  13.634
21121W        W86381  14.811   1.477   4.990
21122W        W86382  43.361  16.916  12.695
21123W        W86383  28.892  42.652   1.495
21124W        W86384   2.906  30.203   4.018
21125W        W86385  24.094  32.535   1.729
21126W        W86386  43.226  38.918  11.103
21127W        W86387  15.087   9.283   2.891
21128W        W86388  40.128  36.037  11.079
21129W        W86389  43.216  33.913   0.838
21130W        W86390  27.141  33.819   2.759
21131W        W86391  17.746  16.332  10.487
21132W        W86392  34.250  44.535   9.999
21133W        W86393  14.258   0.742   0.798
21134W        W86394   2.359   8.827   4.350
21135W        W86395  29.481  41.344  11.961
21136W        W86396   1.728  28.203   2.066
21137W        W86397  44.263   4.776  10.548
21138W        W86398  27.949  44.026  12.997
21139W        W86399  31.315  44.941   3.309
21140W        W86400   9.127  11.163  11.744
21141W        W86401  25.476  27.449   4.283
21142W        W86402   6.486  19.061   1.797
21143W        W86403  17.121  29.460  13.004
21144W        W86404   4.395  28.031   0.801
21145W        W86405  36.484  42.712   3.652
21146W        W86406  17.404  37.018  12.528
21147W        W86407  44.452  28.531  13.359
21148W        W86408   1.840  41.987  14.294
21149W        W86409  29.691   2.923   3.976
21150W        W86410  25.769  40.326  14.440
21151W        W86411  38.516  21.313   1.913
21152W        W86412  14.300   4.978  12.860
21153W        W86413  44.016  44.795   1.929
21154W        W86414  41.252  12.997  13.046
21155W        W86415  18.321  38.907   4.131
21156W        W86416  41.020  39.523  12.370
21157W        W86417  15.817  32.141  11.118
21158W        W86418   2.726  32.086   5.036
21159W        W86419  23.618  26.440  13.895
21160W        W86420  17.786  25.201   3.749
21161W        W86421  39.306  13.149  14.561
21162W        W86422  35.568  30.381  11.031
21163W        W86423  36.957  26.452   2.229
21164W        W86424   2.880  42.213  10.651
21165W        W86425   9.428  30.153   4.619
21166W        W86426   3.269  30.217   1.751
21167W        W86427  17.082   1.536  11.080
21168W        W86428  22.063  39.014   4.421
21169W        W86429  36.337  11.582   4.426
21170W        W86430  36.213  26.029   4.116
21171W        W86431  22.504   2.781  12.036
21172W        W86432  17.371  16.639  11.640
21173W        W86433  39.358  20.308  14.417
21174W        W86434  39.297  42.455   1.475
21175W        W86435  40.428  22.320   1.224
21176W        W86436  25.511  37.797   1.286
21177W        W86437  32.478  32.830   3.816
21178W        W86438   1.227  41.400   4.150
21179W        W86439  26.434   9.448  12.189
21180W        W86440  22.265  33.077   0.756
21181W        W86441  22.567  28.057   2.820
21182W        W86442   7.284  26.256   0.243
21183W        W86443   2.802  35.628  10.643
21184W        W86444  24.575  27.059   1.673
21185W        W86445  35.112  20.001   0.888
21186W        W86446  26.932   4.305   4.125
21187W        W86447   3.394  27.239   3.320
21188W        W86448  33.591   7.723  10.400
21189W        W86449   9.531  42.257  13.507
21190W        W86450  42.471  17.367  12.028
21191W        W86451  20.037   5.493  11.181
21192W        W86452  10.009  22.172   0.383
21193W        W86453  14.138  14.175  12.601
21194W        W86454  15.781  22.014  14.761
21195W        W86455  10.598  20.781  12.999
21196W        W86456  22.471   1.737  10.805
21197W        W86457  24.615  35.127   3.599
21198W        W86458  31.593  35.861  14.535
21199W        W86459  40.411  32.106   4.583
21200W        W86460  19.397   5.633  11.971
21201W        W86461  16.490  14.856  10.810
21202W        W86462  23.683   3.767  12.919
21203W        W86463   2.383  16.187  12.441
21204W        W86464  19.249  26.058   1.385
21205W        W86465  36.340   7.360  12.151
21206W        W86466  32.465  14.346   1.755
21207W        W86467  32.312  17.906   1.723
21208W        W86468  16.743  33.493   4.708
21209W        W86469  13.181  24.278  12.602
21210W        W86470   3.986  33.566  10.592
21211W        W86471  31.997  10.143   3.150
21212W        W86472  10.403  40.214  13.543
21213W        W86473  18.342  39.596  13.149
21214W        W86474  26.886  14.440  11.518
21215W        W86475  16.653  15.563   3.720
21216W        W86476  33.191  14.912  11.103
21217W        W86477   2.940  11.593   4.365
21218W        W86478  44.740  37.699  10.235
21219W        W86479  27.113  44.298  14.290
21220W        W86480  41.808  31.858  14.469
21221W        W86481   5.400  33.655  14.438
21222W        W86482  13.095  44.298  11.968
21223W        W86483   4.034  27.205   4.010
21224W        W86484  35.025  40.605  14.046
21225W        W86485  20.470   3.749   0.718
21226W        W86486   5.944  29.040   4.715
21227W        W86487  20.716   1.932  10.734
21228W        W86488  38.910  38.169   4.617
21229W        W86489  44.953  15.841  11.163
21230W        W86490   9.098  15.052   1.843
21231W        W86491  26.710  22.132  12.459
21232W        W86492   4.895  38.454   0.790
21233W        W86493  33.346  10.324  14.001
21234W        W86494  25.103   1.777  14.552
21235W        W86495  29.478  28.108  11.018
21236W        W86496  25.601  32.507  10.668
21237W        W86497  43.431  32.107  11.173
21238W        W86498  32.544   3.885   4.320
21239W        W86499  42.367  26.137  11.608
21240W        W86500   8.672  30.400  13.592
21241W        W86501  10.297  25.243   3.258
21242W        W86502  15.111  15.968   0.007
21243W        W86503  12.125  39.253   4.390
21244W        W86504   8.689   5.585   0.341
21245W        W86505  37.127  13.164   4.939
21246W        W86506   3.690  33.931   0.644
21247W        W86507  30.000  32.526  12.495
21248W        W86508  18.462  44.985  12.438
21249W        W86509  29.702  31.118  11.539
21250W        W86510  28.191  35.582   2.305
21251W        W86511  28.593  13.650   0.276
21252W        W86512  28.637  31.613  12.113
21253W        W86513  35.563   7.646   0.312
21254W        W86514  27.906   0.945   1.208
21255W        W86515   1.433  36.848   0.248
21256W        W86516  41.442  25.153   4.659
21257W        W86517  16.097  21.447  13.784
21258W        W86518   6.202   9.697   0.954
21259W        W86519  36.538  38.546  10.742
21260W        W86520  14.708  10.496   4.902
21261W        W86521  18.197   0.720  13.529
21262W        W86522   0.600  17.387   0.468
21263W        W86523   6.697  16.673  13.146
21264W        W86524  28.765   8.153  14.947
21265W        W86525  28.962  19.819   2.123
21266W        W86526  30.656   6.359   3.411
21267W        W86527   0.787  42.515   2.784
21268W        W86528  26.195  43.017  12.066
21269W        W86529   2.606  35.198  11.082
21270W        W86530  29.550  12.729   4.081
21271W        W86531  24.931  18.673   3.221
21272W        W86532  17.632  32.903  14.964
21273W        W86533  20.901   5.746  11.995
21274W        W86534  25.066   9.564   0.254
21275W        W86535  35.331   2.354   2.986
21276W        W86536   2.186  17.717  10.769
21277W        W86537  39.593   0.174  12.915
21278W        W86538   9.708  34.940  13.774
21279W        W86539  41.595  42.504   4.367
21280W        W86540   8.822  13.119  11.004
21281W        W86541   8.884   1.803  11.729
21282W        W86542  30.588  27.944   3.637
21283W        W86543   8.234  33.012  14.039
21284W        W86544  10.861  32.230   0.660
21285W        W86545  21.285  22.565   0.294
21286W        W86546  34.614  17.269  14.018
21287W        W86547   5.967  11.576   0.885
21288W        W86548  43.278  31.519   3.829
21289W        W86549  34.595  14.520  12.559
21290W        W86550  29.415  16.074   4.268
21291W        W86551  28.420  35.150  14.084
21292W        W86552  28.488  18.655  12.812
21293W        W86553   3.045  40.974  13.521
21294W        W86554  29.409   2.070  11.803
21295W        W86555  22.423  11.704  11.703
21296W        W86556   2.851  15.160  13.981
21297W        W86557  18.273  15.150  12.024
21298W        W86558  44.167   0.482   2.910
21299W        W86559  33.042   2.927   2.176
21300W        W86560  26.022  25.511  14.769
21301W        W86561  30.640  27.909   0.000
21302W        W86562  39.504   4.397  12.614
21303W        W86563  27.586  43.944  11.460
21304W        W86564  11.235  35.312  11.189
21305W        W86565  11.221  22.000  11.058
21306W        W86566  36.904  18.780  11.637
21307W        W86567  34.881  38.732  11.965
21308W        W86568  10.820  24.907   2.146
21309W        W86569  33.536  19.964   0.300
21310W        W86570  30.182  14.230   1.824
21311W        W86571   3.710  32.038  14.638
21312W        W86572  26.364  19.907   4.656
21313W        W86573  39.851  19.027  12.069
21314W        W86574  25.911   4.685   4.571
21315W        W86575  30.525   0.364  11.170
21316W        W86576   1.785  30.105  13.072
21317W        W86577  20.089  21.216  12.662
21318W        W86578   1.232  38.256   0.335
21319W        W86579  17.348  39.834   4.184
21320W        W86580  25.950  10.617   0.384
21321W        W86581  31.060  17.063   4.484
21322W        W86582  33.570  28.190  12.075
21323W        W86583  20.163   6.997   0.801
21324W        W86584  29.543  36.078   1.290
21325W        W86585  43.059  27.529  12.606
21326W        W86586  22.682  11.564  13.662
21327W        W86587  21.058  37.099   0.247
21328W        W86588  13.533   8.017  10.639
21329W        W86589  10.288  11.232   2.155
21330W        W86590  42.418  43.488  14.606
21331W        W86591  26.560   9.936   2.746
21332W        W86592  41.220  41.749   0.214
21333W        W86593  12.097  33.188   3.306
21334W        W86594  30.954   3.846   3.602
21335W        W86595  20.621  26.207   0.763
21336W        W86596  26.977  11.283  12.983
21337W        W86597  11.612  29.393  14.670
21338W        W86598   7.710   2.188  14.892
21339W        W86599  33.625   2.442   5.215
21340W        W86600  28.833  17.210   2.912
21341W        W86601  25.755  10.437  13.888
21342W        W86602  29.626   7.220  12.073
21343W        W86603   5.993  40.925   4.448
21344W        W86604  14.001   5.042   1.759
21345W        W86605  20.588  30.891   2.233
21346W        W86606  30.783   9.654  14.413
21347W        W86607  30.558  15.866  11.483
21348W        W86608   5.709  37.441   1.052
21349W        W86609  11.687  10.657  11.618
21350W        W86610  39.374  44.746   2.666
21351W        W86611  28.449  36.853  14.823
21352W        W86612  17.126   8.947  14.875
21353W        W86613  29.155   1.133   0.743
21354W        W86614  20.524  41.768  13.238
21355W        W86615  12.716  29.567  14.981
21356W        W86616  16.614  10.225   2.375
21357W        W86617  44.820  30.342   3.604
21358W        W86618  41.643  19.857  11.606
21359W        W86619   7.484   5.361  12.411
21360W        W86620  44.227  34.408   0.488
21361W        W86621  43.451   5.742   3.614
21362W        W86622   3.916  13.827   3.281
21363W        W86623  19.643  11.700   1.440
21364W        W86624  28.909  27.989   4.288
21365W        W86625   8.411   8.985   5.123
21366W        W86626  36.066  21.006  11.989
21367W        W86627  11.269  11.842   3.785
21368W        W86628   8.279   4.367   4.008
21369W        W86629  12.317  28.105   4.456
21370W        W86630  37.850  12.362  14.005
21371W        W86631  19.716  33.740  13.399
21372W        W86632  14.684  12.490   4.599
21373W        W86633  20.154  41.763   3.592
21374W        W86634   2.499   1.223  12.443
21375W        W86635   7.742  21.582   1.813
21376W        W86636  12.197   0.760  12.004
21377W        W86637  35.968  40.472  11.768
21378W        W86638  22.048  33.161  10.677
21379W        W86639  42.069  30.770   1.241
21380W        W86640   0.492  36.573   0.761
21381W        W86641  19.476  29.719  13.202
21382W        W86642  11.656  18.301   0.764
21383W        W86643  38.507   5.862   3.418
21384W        W86644  40.215  31.084   0.196
21385W        W86645  24.151  21.140  13.794
21386W        W86646   4.181  30.987  12.219
21387W        W86647  33.391  38.297  12.030
21388W        W86648  26.041  30.741  13.475
21389W        W86649  27.910  30.793  11.930
21390W        W86650  27.686  39.300   4.071
21391W        W86651   1.487  41.606   3.180
21392W        W86652  19.667  44.971   0.191
21393W        W86653  41.059  32.377  13.073
21394W        W86654  25.742   0.356  13.908
21395W        W86655  33.087  41.172   4.657
21396W        W86656  33.996   8.134  10.805
21397W        W86657   3.375  41.888   3.266
21398W        W86658  31.150  22.283   2.405
21399W        W86659  10.636  14.072  10.401
21400W        W86660  38.375   5.033  13.424
21401W        W86661   1.969  23.108   2.346
21402W        W86662  24.057  17.562   0.959
21403W        W86663  28.724  32.341   4.862
21404W        W86664  44.886  28.610   3.065
21405W        W86665  36.510  16.215  11.919
21406W        W86666  28.237   1.333   4.076
21407W        W86667  10.766  27.666   0.060
21408W        W86668   7.851  44.195  12.160
21409W        W86669  26.089  31.139   0.658
21410W        W86670  16.671   9.216   3.710
21411W        W86671  11.564   4.531  12.783
21412W        W86672   0.922   3.987   0.405
21413W        W86673  19.031   8.147   0.561
21414W        W86674  21.017   3.433   0.324
21415W        W86675  41.892  36.263   2.224
21416W        W86676  27.427   9.556   0.313
21417W        W86677  38.412  27.584   0.882
21418W        W86678  30.913   9.273   1.333
21419W        W86679  10.800  25.600  12.988
21420W        W86680   2.895  30.516   2.878
21421W        W86681  19.149  35.879   2.363
21422W        W86682  41.314  43.848   4.223
21423W        W86683  39.821   5.642  13.928
21424W        W86684  29.748  26.468  14.515
21425W        W86685  41.307  38.425  11.058
21426W        W86686  32.830  10.681  11.070
21427W        W86687   3.805  29.214  12.929
21428W        W86688  29.189  29.885   0.989
21429W        W86689  30.076  38.926  10.603
21430W        W86690  22.553  23.713  11.206
21431W        W86691  19.727   3.274   0.872
21432W        W86692  42.065  25.174   2.861
21433W        W86693  39.618  10.943  14.094
21434W        W86694  14.626  30.543  11.617
21435W        W86695  44.844   3.741   2.223
21436W        W86696  11.162   1.809   2.751
21437W        W86697   1.322   6.919  11.689
21438W        W86698  42.525  18.573  12.590
21439W        W86699  22.199   1.928   5.395
21440W        W86700  17.434  17.542   4.183
21441W        W86701  26.628  18.199   0.600
21442W        W86702  20.079  13.383  12.542
21443W        W86703   1.253   5.447   4.038
21444W        W86704   3.303   8.959  11.629
21445W        W86705  20.310  17.171   3.538
21446W        W86706   8.533   2.033   2.708
21447W        W86707  16.661  35.570  13.067
21448W        W86708   9.632  44.709  10.597
21449W        W86709  15.177   3.982  12.535
21450W        W86710  33.462  23.996   2.290
21451W        W86711  19.197  21.415  12.883
21452W        W86712  40.881  39.246  11.024
21453W        W86713  26.070   5.288  10.738
21454W        W86714  36.861  24.277  12.729
21455W        W86715  42.036   2.546  14.079
21456W        W86716   1.587  42.410  14.462
21457W        W86717   4.738   2.294   1.691
21458W        W86718  17.086   3.367   3.165
21459W        W86719  40.746  19.735  10.720
21460W        W86720  41.022  33.997  11.386
21461W        W86721  28.486  16.965  13.983
21462W        W86722  31.597  12.179  13.942
21463W        W86723   8.689  16.808  11.539
21464W        W86724  36.421  18.634   3.444
21465W        W86725  24.988  29.927  14.735
21466W        W86726  19.061   1.448   1.934
21467W        W86727  28.171  43.219   2.677
21468W        W86728  12.123  41.047   3.138
21469W        W86729  31.745  16.302  14.390
21470W        W86730  22.308  37.320   1.164
21471W        W86731  11.767  26.571   2.461
21472W        W86732  42.426  21.797   3.633
21473W        W86733  21.808   8.585  10.323
21474W        W86734  11.286  40.492  11.544
21475W        W86735  24.437   9.312  10.775
21476W        W86736  22.083   3.283  11.734
21477W        W86737   9.274   3.997  13.889
21478W        W86738   1.404   6.748   1.009
21479W        W86739  38.736   9.711  13.002
21480W        W86740  33.701  10.609   0.559
21481W        W86741  36.307  43.814  12.461
21482W        W86742  33.312  33.161   2.875
21483W        W86743  42.407  19.236   0.886
21484W        W86744  28.566   1.236   2.200
21485W        W86745  20.095  23.849   1.813
21486W        W86746   4.221   3.687   4.189
21487W        W86747   6.252  34.109   0.744
21488W        W86748   5.498  18.213  11.468
21489W        W86749  41.468  26.375   4.588
21490W        W86750  43.436  22.564   1.889
21491W        W86751  25.605  11.403   1.362
21492W        W86752  24.600  40.004   1.789
21493W        W86753   2.479  41.468  14.176
21494W        W86754   1.435  40.868   1.207
21495W        W86755  39.727  26.400   2.796
21496W        W86756   5.917  17.236   2.296
21497W        W86757  37.839  32.205  12.141
21498W        W86758  14.766  14.884   2.430
21499W        W86759  42.058  16.470   0.923
21500W        W86760  10.835  36.302  11.889
21501W        W86761  24.235  11.737   2.436
21502W        W86762   9.096  36.508   1.264
21503W        W86763  16.310  35.098   3.177
21504W        W86764  35.925  31.927  11.618
21505W        W86765  39.073  31.060   2.264
21506W        W86766  20.637   2.871  12.824
21507W        W86767  39.519  22.157  10.829
21508W        W86768  29.077  19.137   3.979
21509W        W86769  39.857   9.665  10.768
21510W        W86770  27.259  16.201  11.047
21511W        W86771  21.117  22.165   3.192
21512W        W86772  27.601   6.376  12.476
21513W        W86773   6.033  29.041   2.734
21514W        W86774  37.385  12.176   2.881
21515W        W86775  35.992  44.801  11.967
21516W        W86776  10.177  12.089  11.309
21517W        W86777  42.022  12.929  10.104
21518W        W86778  10.624   4.683  11.628
21519W        W86779  34.338   9.228  12.450
21520W        W86780  40.877   1.173  11.651
21521W        W86781  22.270  13.959  12.819
21522W        W86782  43.903   4.731  12.803
21523W        W86783   2.649  11.027   9.683
21524W        W86784  21.699   1.845   0.596
21525W        W86785   2.676   9.467  11.365
21526W        W86786  43.470   0.207   1.240
21527W        W86787  25.400  42.967  13.770
21528W        W86788  43.275  13.455   4.678
21529W        W86789  12.327  33.362   1.768
21530W        W86790  44.587   6.259   0.464
21531W        W86791  36.889  40.466   3.430
21532W        W86792  41.286  44.484   2.062
21533W        W86793  33.608  32.506  12.571
21534W        W86794   5.735  11.162  14.978
21535W        W86795  38.102  12.398   2.699
21536W        W86796   1.575  34.038  10.776
21537W        W86797  11.115  15.408   4.614
21538W        W86798  16.642  11.730  13.663
21539W        W86799  21.912   0.451  14.450
21540W        W86800  22.024  12.223  14.462
21541W        W86801  31.305   0.293  12.572
21542W        W86802  33.642   0.229   0.700
21543W        W86803  28.200  33.498  10.914
21544W        W86804  32.113  12.151  10.587
21545W        W86805  20.203  29.171   4.915
21546W        W86806  43.445  37.432  12.575
21547W        W86807  25.250  37.595   2.898
21548W        W86808  11.304   2.461  12.203
21549W        W86809   7.259  44.556   4.435
21550W        W86810  44.605  21.427  10.545
21551W        W86811  27.247  24.675   3.660
21552W        W86812  13.392   0.396   2.196
21553W        W86813  12.938  17.952   3.775
21554W        W86814  25.724   8.220  12.434
21555W        W86815  21.641  27.073  11.016
21556W        W86816  16.478  13.693  13.467
21557W        W86817  17.869  42.237  14.444
21558W        W86818   7.707  18.503   0.741
21559W        W86819  27.902  24.824   0.423
21560W        W86820  24.479  20.489   3.196
21561W        W86821   5.492  38.012   4.221
21562W        W86822  44.328  39.443  12.155
21563W        W86823  12.378  30.006  12.555
21564W        W86824   8.980  18.704  14.289
21565W        W86825  11.859  34.078   3.367
21566W        W86826  42.489   8.335   0.368
21567W        W86827   6.445  34.696  14.376
21568W        W86828   2.941   3.018   0.750
21569W        W86829  38.881   4.900  10.634
21570W        W86830  15.134  14.132  14.913
21571W        W86831  25.539  19.431   1.454
21572W        W86832  14.146  31.233  12.484
21573W        W86833  21.911  30.605   4.866
21574W        W86834  31.639  31.271  14.846
21575W        W86835  25.497  41.933   1.996
21576W        W86836  19.508  35.629   5.067
21577W        W86837   9.629   0.950  10.895
21578W        W86838  44.816  19.418   4.185
21579W        W86839   0.362  17.659  12.628
21580W        W86840  15.658  35.418  13.873
21581W        W86841   5.731  23.962   3.612
21582W        W86842   0.347   2.069  14.382
21583W        W86843  39.070  30.977   3.171
21584W        W86844  13.209  21.971  13.971
21585W        W86845  26.126  15.366   1.692
21586W        W86846  18.782  30.977   4.197
21587W        W86847  33.234  36.175   0.932
21588W        W86848  24.246  42.959  14.970
21589W        W86849   8.205  33.479   0.258
21590W        W86850  35.639  24.993  11.110
21591W        W86851  11.098  38.981  13.955
21592W        W86852   8.293  17.153   3.754
21593W        W86853  41.440  40.841  13.568
21594W        W86854  33.136  11.593   3.964
21595W        W86855   6.416  17.138  11.058
21596W        W86856  13.400  14.099  12.067
21597W        W86857   7.926  12.633  14.026
21598W        W86858   6.527  10.913  12.896
21599W        W86859  12.814  21.041   4.076
21600W        W86860  12.916  13.700  14.850
21601W        W86861  29.370  11.385   4.919
21602W        W86862  32.173   0.365  11.196
21603W        W86863   4.928  28.367   2.912
21604W        W86864  17.624  14.190  13.931
21605W        W86865  19.304  40.433  12.918
21606W        W86866  37.757  37.190  13.789
21607W        W86867  20.646   3.807  12.019
21608W        W86868  30.197  29.132  14.916
21609W        W86869  32.086  43.008   4.086
21610W        W86870  25.077  15.271   3.827
21611W        W86871   5.822   1.977   2.839
21612W        W86872  12.199  16.326   0.837
21613W        W86873  35.356  29.003   3.754
21614W        W86874   1.376  23.024   3.725
21615W        W86875  14.663  23.974  10.675
21616W        W86876  21.868  10.072   3.024
21617W        W86877  35.410  40.251  13.869
21618W        W86878   4.510  15.768  12.917
21619W        W86879  35.663  12.784   4.220
21620W        W86880  15.174   8.745  12.098
21621W        W86881  33.760  39.484  10.957
21622W        W86882  11.201  34.496  13.921
21623W        W86883  11.771  15.664  14.728
21624W        W86884  32.265  39.240  14.906
21625W        W86885  10.654   0.132  11.152
21626W        W86886   9.739  16.494  13.060
21627W        W86887  29.465   6.067   0.299
21628W        W86888  40.543  24.610   1.375
21629W        W86889   8.481  17.067  13.046
21630W        W86890  33.481  17.645   0.329
21631W        W86891  41.431  17.335   3.784
21632W        W86892  20.062  42.287   2.728
21633W        W86893  10.622  26.576   0.301
21634W        W86894  16.808  35.675   4.226
21635W        W86895  13.050  38.270  12.919
21636W        W86896  22.913  34.170  10.287
21637W        W86897  27.962   3.900  14.055
21638W        W86898  13.864  27.564   3.670
21639W        W86899  43.294  40.529   1.181
21640W        W86900   3.210  27.267   4.306
21641W        W86901  16.272  22.544   2.188
21642W        W86902   8.686  31.531  12.058
21643W        W86903  35.370   4.350  13.265
21644W        W86904  37.633   9.591   1.862
21645W        W86905  41.326  18.167   1.909
21646W        W86906  12.799  16.340   0.284
21647W        W86907  21.123  29.880   0.331
21648W        W86908  39.980  28.833   2.805
21649W        W86909  17.052  40.597   0.512
21650W        W86910   4.984   4.933  13.038
21651W        W86911  13.380  35.309   2.389
21652W        W86912  28.131  39.039   4.279
21653W        W86913  32.017  34.033   4.079
21654W        W86914  22.992  40.840  14.507
21655W        W86915  35.138  33.799  13.974
21656W        W86916  34.051  41.096   0.859
21657W        W86917  25.757  23.547   4.137
21658W        W86918  41.046  19.689   2.835
21659W        W86919   8.842  44.228  12.923
21660W        W86920  20.553  23.881  13.768
21661W        W86921  38.057  34.440  14.315
21662W        W86922  38.006  43.761   9.843
21663W        W86923  29.709  21.703   2.253
21664W        W86924  31.467  21.928   5.033
21665W        W86925  28.321   7.688   2.393
21666W        W86926  21.353  41.928  12.174
21667W        W86927  44.265  22.605   1.435
21668W        W86928  11.149  42.208  12.327
21669W        W86929   8.339  17.814  12.011
21670W        W86930  16.767  21.358   4.795
21671W        W86931  34.583   2.182   1.698
21672W        W86932  11.750  23.747   1.324
21673W        W86933  31.767  15.375   5.195
21674W        W86934  16.511  26.926  11.853
21675W        W86935   7.932  14.431   5.000
21676W        W86936   9.110  17.031   3.212
21677W        W86937  15.893  22.098  14.267
21678W        W86938  26.606  39.381   0.353
21679W        W86939   2.915  15.836  13.072
21680W        W86940   0.698   4.964  11.543
21681W        W86941  30.545  43.260   1.761
21682W        W86942   5.742  34.839  14.802
21683W        W86943  40.329  20.537  10.639
21684W        W86944  32.049  26.278  12.885
21685W        W86945  19.572   1.982  13.063
21686W        W86946  11.400  24.105  13.995
21687W        W86947  34.026   4.288  10.548
21688W        W86948   4.547  29.464   2.317
21689W        W86949  17.245  37.321   2.947
21690W        W86950   0.869  35.483  12.394
21691W        W86951  20.834  35.205   5.026
21692W        W86952  15.504   4.390   3.226
21693W        W86953  22.483  37.483  12.767
21694W        W86954  18.821  44.944  11.542
21695W        W86955  12.109  21.523  11.807
21696W        W86956   2.231  30.146  14.475
21697W        W86957  10.301  25.940   1.845
21698W        W86958  17.770   3.885  14.377
21699W        W86959  29.230  26.412  14.447
21700W        W86960  18.132   6.765   3.258
21701W        W86961  26.947  26.013  12.060
21702W        W86962  42.848  14.115   2.704
21703W        W86963  34.553   3.798  13.063
21704W        W86964   2.946  24.485   2.186
21705W        W86965  26.649  16.336   0.822
21706W        W86966  29.354  30.543   2.676
21707W        W86967  32.176  41.673   4.621
21708W        W86968   8.760  29.965   3.168
21709W        W86969  19.087  26.002   4.545
21710W        W86970  24.473  12.359   0.197
21711W        W86971  22.595  42.460   0.016
21712W        W86972  33.691  20.284   3.694
21713W        W86973   0.884   4.480  11.690
21714W        W86974  18.751  20.432  14.867
21715W        W86975  18.322  15.404   0.405
21716W        W86976  19.941   7.738   2.440
21717W        W86977  15.312  11.403  13.950
21718W        W86978   5.923   7.216   1.275
21719W        W86979  19.799  34.347  13.072
21720W        W86980  25.057  39.999  11.989
21721W        W86981  20.829  36.643   5.603
21722W        W86982  37.754  23.165  11.574
21723W        W86983  39.926  17.201  13.871
21724W        W86984  28.652  29.876  14.917
21725W        W86985   0.260  11.777   0.487
21726W        W86986  14.054  29.168   3.879
21727W        W86987  21.208  24.456   3.210
21728W        W86988  21.047  22.527  14.496
21729W        W86989  15.824  28.828  11.528
21730W        W86990  39.790  24.182   4.912
21731W        W86991  26.570  18.819  13.050
21732W        W86992  37.010  10.929  11.978
21733W        W86993  20.233  19.847   3.288
21734W        W86994  15.711  19.011  11.733
21735W        W86995  24.744  21.449  12.954
21736W        W86996  32.492  12.823  13.016
21737W        W86997  38.442  13.637  12.643
21738W        W86998  33.953  41.771  10.764
21739W        W86999  27.122  33.897   0.796
21740W        W87000  32.326  21.603   2.721
21741W        W87001  20.740  27.109  14.432
21742W        W87002  11.165   7.711   1.410
21743W        W87003  25.499   4.780   2.570
21744W        W87004   2.679  40.374  12.633
21745W        W87005  18.714   9.422  11.121
21746W        W87006  43.810   5.109   4.214
21747W        W87007  26.645  12.168   4.124
21748W        W87008  10.120  31.076  13.712
21749W        W87009  22.050  35.116   3.720
21750W        W87010  13.563  16.084   0.895
21751W        W87011   9.727  22.746   5.049
21752W        W87012  34.693  10.065   0.419
21753W        W87013  28.584  12.553  11.151
21754W        W87014   0.684  13.189  12.780
21755W        W87015  10.573  41.729   3.788
21756W        W87016  36.047  41.315   4.535
21757W        W87017  33.815  25.428  14.333
21758W        W87018   8.605   3.872  11.670
21759W        W87019  22.966  18.586   1.663
21760W        W87020  42.261  12.119   1.346
21761W        W87021   9.450  34.574   4.265
21762W        W87022  31.990  31.539   0.686
21763W        W87023  15.315  43.104  12.806
21764W        W87024  38.553  19.802  14.823
21765W        W87025  32.341  32.855  11.570
21766W        W87026  17.808  23.493   2.699
21767W        W87027  34.524  43.551  13.329
21768W        W87028  11.731   1.924   1.444
21769W        W87029  35.027  12.140  14.057
21770W        W87030  28.374  22.243   0.844
21771W        W87031  29.619   9.710   0.020
21772W        W87032  27.727   8.897  11.950
21773W        W87033  39.567  35.448  11.464
21774W        W87034  43.991   0.396  11.182
21775W        W87035   2.213  39.878  11.650
21776W        W87036  34.561  35.217  12.366
21777W        W87037   5.934  36.260  13.271
21778W        W87038   0.109  24.734   4.884
21779W        W87039  14.130  43.492   2.124
21780W        W87040   7.561  10.161   1.459
21781W        W87041  26.431  25.620  12.572
21782W        W87042  42.789  21.994   2.614
21783W        W87043  17.961   5.602  10.974
21784W        W87044   2.710  22.827   5.086
21785W        W87045  41.952  38.307  12.303
21786W        W87046  34.518  33.985  14.745
21787W        W87047  24.286  11.662   4.097
21788W        W87048   6.415  38.460  12.068
21789W        W87049  33.155   6.796   2.793
21790W        W87050  38.842  31.052  12.076
21791W        W87051   7.281  34.209  13.017
21792W        W87052  16.628  39.157  12.416
21793W        W87053   2.339  18.543   0.387
21794W        W87054  21.554  18.995   4.786
21795W        W87055   9.839  24.095  11.159
21796W        W87056  18.335  37.206   0.270
21797W        W87057   1.806  39.008  14.938
21798W        W87058   8.891  28.210  10.712
21799W        W87059  13.215   1.513  12.020
21800W        W87060  10.394   5.361   0.909
21801W        W87061  21.663  44.257  12.928
21802W        W87062  14.620  17.098  13.742
21803W        W87063  29.953  33.343   2.641
21804W        W87064  24.555  23.920   4.368
21805W        W87065  20.249  15.692  11.406
21806W        W87066  35.578  23.535  11.838
21807W        W87067   7.759  13.835  13.876
21808W        W87068   0.462  12.460  11.299
21809W        W87069   4.402  39.481   1.055
21810W        W87070  36.056   9.081  13.401
21811W        W87071  40.748  17.786   0.450
21812W        W87072  17.809  23.998   2.774
21813W        W87073   2.018  31.101  14.356
21814W        W87074   5.753   0.913   2.119
21815W        W87075  28.809  11.158  14.853
21816W        W87076   3.426   4.112   1.955
21817W        W87077  38.787  26.967  13.428
21818W        W87078  40.263  13.749  13.735
21819W        W87079  11.472   7.262   3.578
21820W        W87080   5.633  27.598  13.263
21821W        W87081  24.405  37.464   3.297
21822W        W87082  21.483  19.687  14.725
21823W        W87083  10.744  28.944  11.968
21824W        W87084  11.382  29.625  12.331
21825W        W87085   0.733  42.219  11.178
21826W        W87086  14.826   8.257   2.119
21827W        W87087  13.553  35.063   4.131
21828W        W87088  22.625  16.064   2.587
21829W        W87089  15.310  34.818   2.181
21830W        W87090  37.910   7.695  11.363
21831W        W87091  16.233   2.355   0.927
21832W        W87092  42.894   2.881   2.570
21833W        W87093  36.329  42.433   0.463
21834W        W87094  39.905  38.084   4.704
21835W        W87095  27.552  15.684   0.666
21836W        W87096   9.080  12.703  13.314
21837W        W87097  28.530  44.177   2.961
21838W        W87098  36.358  21.110   4.705
21839W        W87099  11.225   6.339   4.510
21840W        W87100  43.291  39.015   0.434
21841W        W87101   3.558  23.159  11.777
21842W        W87102   2.063  24.483   9.883
21843W        W87103  14.795  43.042  11.539
21844W        W87104  13.273  43.573   0.366
21845W        W87105  25.756  35.992   3.736
21846W        W87106  28.978  30.899   2.633
21847W        W87107   7.356   5.662   2.946
21848W        W87108  24.265  21.495  11.569
21849W        W87109   0.984  14.562   1.716
21850W        W87110  35.412  40.805  13.782
21851W        W87111  38.561  16.635  12.376
21852W        W87112  33.495  33.865  13.288
21853W        W87113  24.825  22.276  11.121
21854W        W87114  32.929   2.865   1.103
21855W        W87115   7.844   3.429  10.797
21856W        W87116  16.021  42.331   3.178
21857W        W87117   5.099  22.116  13.853
21858W        W87118  22.651   2.676  10.758
21859W        W87119  12.497  15.954  13.521
21860W        W87120  33.100  39.466   3.782
21861W        W87121  43.978  15.287   5.049
21862W        W87122  32.521  20.031  11.641
21863W        W87123  43.325  33.400   0.415
21864W        W87124  18.714  20.720   0.310
21865W        W87125   0.828   4.207  14.371
21866W        W87126  10.697  29.431   4.251
21867W        W87127  18.369   9.305  14.366
21868W        W87128   1.971  24.061  12.116
21869W        W87129   1.830  29.801  13.537
21870W        W87130  32.832  28.512  12.437
21871W        W87131  22.482  42.696   4.506
21872W        W87132  19.261  31.082   3.993
21873W        W87133  38.833  15.176  10.732
21874W        W87134  16.797  32.646  13.995
21875W        W87135   1.426  12.780   9.834
21876W        W87136   4.709  21.124   2.324
21877W        W87137  22.693   0.278   2.007
21878W        W87138  11.456  24.755  14.946
21879W        W87139  24.470  18.699   3.011
21880W        W87140   7.979  25.296   1.133
21881W        W87141  23.935   2.966   3.384
21882W        W87142  10.088  19.472   3.214
21883W        W87143  13.346  39.826   2.774
21884W        W87144  14.778  26.488  13.003
21885W        W87145   7.896  27.771  12.373
21886W        W87146  44.210  20.779   3.122
21887W        W87147  25.415   7.734  14.038
21888W        W87148  32.873  19.231  13.431
21889W        W87149  31.281  26.913  10.664
21890W        W87150  21.925  39.954  13.954
21891W        W87151  15.944  40.862   4.573
21892W        W87152  39.487  36.830   4.548
21893W        W87153  41.783  19.519   1.279
21894W        W87154   2.395  44.068   2.379
21895W        W87155   9.159   1.372   0.375
21896W        W87156  26.337  42.963   0.877
21897W        W87157  25.952  27.030  11.528
21898W        W87158  20.497   0.796  10.797
21899W        W87159  24.194  16.660  13.605
21900W        W87160  39.375  11.313   2.389
21901W        W87161  19.019   9.415   2.214
21902W        W87162   3.482   6.420   0.319
21903W        W87163  32.997  43.589   4.404
21904W        W87164   9.806  18.243   2.677
21905W        W87165  37.918  27.114   3.090
21906W        W87166  36.758   0.161  12.533
21907W        W87167  39.107   2.025   4.817
21908W        W87168  17.770  42.952  10.628
21909W        W87169  25.110  17.061   3.277
21910W        W87170  32.551  16.522   2.220
21911W        W87171  23.962  33.153   5.060
21912W        W87172  39.432  23.624   2.746
21913W        W87173  28.425   1.367   4.565
21914W        W87174  11.519   8.597  11.999
21915W        W87175  14.964  34.467   1.418
21916W        W87176  36.357  31.449  11.250
21917W        W87177  41.947  28.126   0.936
21918W        W87178   0.193  37.764  13.886
21919W        W87179  28.986  28.422   0.765
21920W        W87180  24.575  12.100  11.880
21921W        W87181  32.106  19.358   0.337
21922W        W87182   7.270  21.012   1.335
21923W        W87183  41.800  11.076   4.072
21924W        W87184  21.081   5.456  14.413
21925W        W87185  39.016  11.271   3.813
21926W        W87186  41.357  10.428  13.873
21927W        W87187  41.722  28.449  13.268
21928W        W87188  13.390  28.323   2.270
21929W        W87189  20.100  12.297  14.701
21930W        W87190   7.630  26.896   2.369
21931W        W87191  19.790  40.593  14.420
21932W        W87192  23.684   7.114   1.354
21933W        W87193  24.720  14.349  10.887
21934W        W87194  28.463   8.413   4.524
21935W        W87195   1.095   1.478  12.610
21936W        W87196  18.789  27.191   0.009
21937W        W87197   1.273  25.818   0.240
21938W        W87198  24.160   3.350  14.250
21939W        W87199   7.365  36.025  10.896
21940W        W87200  14.845  28.491   2.666
21941W        W87201  44.598  39.548   3.685
21942W        W87202   8.320  32.853  12.239
21943W        W87203  44.399  24.135  10.721
21944W        W87204  23.111  34.449   4.674
21945W        W87205   8.933  38.611   0.779
21946W        W87206  14.278  36.555   2.152
21947W        W87207  10.847  14.174  13.244
21948W        W87208  15.556  17.097   2.766
21949W        W87209  38.035  27.894   4.048
21950W        W87210  24.244  43.933  12.648
21951W        W87211   5.977  40.575   3.421
21952W        W87212   7.915  10.808  11.742
21953W        W87213  36.404  37.118  13.954
21954W        W87214  23.716  20.601  11.521
21955W        W87215  11.199   2.836   1.393
21956W        W87216  43.423  17.620  11.571
21957W        W87217  18.116  29.566   1.684
21958W        W87218  31.637  14.096  14.831
21959W        W87219  17.806  10.188  10.677
21960W        W87220  39.375   6.834  11.293
21961W        W87221   5.739  20.123   2.396
21962W        W87222  30.722  23.037  11.949
21963W        W87223  30.317  16.874   2.399
21964W        W87224  19.174   6.131  13.958
21965W        W87225  43.809  32.620  14.188
21966W        W87226  30.963  40.394  12.854
21967W        W87227  21.696  20.619   0.342
21968W        W87228  41.039  18.073  12.921
21969W        W87229  16.205  36.480  14.355
21970W        W87230  40.443  30.148   4.058
21971W        W87231  11.340  24.464  11.166
21972W        W87232  38.743  10.167  11.270
21973W        W87233  39.373  13.834  12.371
21974W        W87234   6.286   2.821  10.445
21975W        W87235  11.671   5.029  12.914
21976W        W87236  13.682  12.675   3.673
21977W        W87237  17.084  20.669   0.267
21978W        W87238  42.905  29.141   1.949
21979W        W87239   6.773   0.525   2.799
21980W        W87240  25.096  29.933  14.201
21981W        W87241   2.497  29.578   1.208
21982W        W87242   0.487  12.507   3.679
21983W        W87243  40.098   9.446  11.962
21984W        W87244  44.593  32.557  12.773
21985W        W87245  20.833  12.837  12.492
21986W        W87246  36.392  33.543  11.022
21987W        W87247  37.716  14.626  10.793
21988W        W87248  30.779   2.804  11.558
21989W        W87249  30.980  33.535  12.479
21990W        W87250  26.626  30.896   1.918
21991W        W87251  16.367   5.172  11.986
21992W        W87252  30.564  13.843  13.662
21993W        W87253  26.705  25.014   1.830
21994W        W87254  17.768  39.067  14.722
21995W        W87255  27.489   7.301   1.927
21996W        W87256  32.883   7.909  12.182
21997W        W87257  16.842  22.683   4.049
21998W        W87258  24.762  33.069  11.094
21999W        W87259  42.539  37.095  11.681
22000W        W87260   8.722  30.930   2.709
22001W        W87261  43.976   5.452   2.515
22002W        W87262   5.445  17.768  13.421
22003W        W87263  23.800  44.491  14.989
22004W        W87264   3.263   5.786  13.035
22005W        W87265  15.879   7.714   5.205
22006W        W87266  29.496  25.160   0.747
22007W        W87267  28.840   5.969   3.358
22008W        W87268  21.495  35.490  14.543
22009W        W87269  10.782  11.397  11.160
22010W        W87270   0.477  35.129  11.319
22011W        W87271  12.704  11.206  10.921
22012W        W87272  13.183  11.657   5.026
22013W        W87273  27.872   3.504  11.595
22014W        W87274  43.813  18.005   2.366
22015W        W87275  13.942   8.365  14.254
22016W        W87276   9.780  20.531   3.172
22017W        W87277  38.862  22.790   3.116
22018W        W87278  23.967   4.773  12.758
22019W        W87279  35.307  10.534  13.086
22020W        W87280   6.906  24.755   4.083
22021W        W87281  21.275  29.963   1.415
22022W        W87282   2.197  41.840   0.790
22023W        W87283   8.042   5.882   2.512
22024W        W87284   4.237  11.811   0.703
22025W        W87285  28.237  34.860  14.949
22026W        W87286   7.922  42.347   0.374
22027W        W87287   6.217  33.871  14.054
22028W        W87288  28.599  35.999  12.358
22029W        W87289  43.220  25.741   4.655
22030W        W87290   9.801  23.543   3.678
22031W        W87291  37.364  18.727   2.123
22032W        W87292  17.502  13.694   2.836
22033W        W87293   5.897  10.845   0.416
22034W        W87294  23.888  13.972   0.080
22035W        W87295  26.182  36.859   0.868
22036W        W87296  38.681  35.869   3.321
22037W        W87297  10.486   4.116  10.017
22038W        W87298  34.120  13.098   1.766
22039W        W87299  19.101  16.513  13.617
22040W        W87300  15.597   1.930   0.515
22041W        W87301  13.573   9.844  12.079
22042W        W87302  21.204   8.810  11.583
22043W        W87303  13.777  16.007  12.140
22044W        W87304  37.115  33.150   4.818
22045W        W87305  18.778  28.490  14.333
22046W        W87306   7.280  17.279  11.622
22047W        W87307  18.288  26.056  12.905
22048W        W87308  14.644  12.775  14.896
22049W        W87309  38.978  40.230   1.128
22050W        W87310   8.802   9.872   0.353
22051W        W87311  12.326  20.754  14.478
22052W        W87312  38.275  34.287   0.238
22053W        W87313  24.741  40.525   3.639
22054W        W87314  30.078  23.000  14.701
22055W        W87315   3.537  14.065   4.932
22056W        W87316  16.242   0.256  12.044
22057W        W87317  34.404  40.800  13.626
22058W        W87318  33.105  17.906  11.376
22059W        W87319  33.827   1.747  10.571
22060W        W87320   1.832  32.667  14.724
22061W        W87321  16.060  37.925  12.458
22062W        W87322  38.052  43.888   2.704
22063W        W87323  11.192   2.026  14.315
22064W        W87324   8.215  14.587   4.535
22065W        W87325  33.585   7.337   4.935
22066W        W87326  30.504  29.118   2.416
22067W        W87327  15.648  42.200  11.119
22068W        W87328  19.270  16.525   3.306
22069W        W87329  33.038   1.301  13.357
22070W        W87330  42.494  32.649  12.251
22071W        W87331   7.691  22.237  14.960
22072W        W87332  43.506  27.665   2.991
22073W        W87333  26.404  24.268  12.053
22074W        W87334   9.770  36.078   3.270
22075W        W87335   1.819  31.444   0.630
22076W        W87336  15.544   8.241  10.604
22077W        W87337   1.405  43.524  12.524
22078W        W87338  26.425  38.967  14.496
22079W        W87339  19.617  38.840  11.940
22080W        W87340   3.824  14.759  12.643
22081W        W87341  20.444   5.491  12.497
22082W        W87342   3.710  30.901  12.081
22083W        W87343   5.371   6.699  10.706
22084W        W87344  14.266  33.641  13.811
22085W        W87345   9.854  17.288   0.456
22086W        W87346   9.874  24.385  11.575
22087W        W87347   6.818   2.377   1.244
22088W        W87348  16.591  26.767   1.673
22089W        W87349  22.046   4.845  12.425
22090W        W87350  42.777   1.945   0.375
22091W        W87351   0.452  15.157  10.225
22092W        W87352  42.007  28.198  13.599
22093W        W87353  37.314  32.092   4.507
22094W        W87354  44.121  22.442  11.887
22095W        W87355  41.131  44.442  11.022
22096W        W87356  34.470  38.905   0.340
22097W        W87357  20.735  44.828   3.356
22098W        W87358   2.259  14.632   3.118
22099W        W87359   2.705  32.442   0.633
22100W        W87360  36.296  41.537  11.105
22101W        W87361  21.583  34.102   1.180
22102W        W87362  38.922  37.081  13.761
22103W        W87363   7.670  22.570   2.216
22104W        W87364  15.519  33.892   4.801
22105W        W87365  39.447  22.284   1.165
22106W        W87366  37.697  16.636  14.804
22107W        W87367   9.268  20.078  14.256
22108W        W87368  10.728  21.943  11.890
22109W        W87369  33.537   9.213   4.674
22110W        W87370   6.785  11.781  12.533
22111W        W87371  26.499  39.971  14.782
22112W        W87372  31.512  12.261   4.682
22113W        W87373  28.517  20.154  10.741
22114W        W87374  36.491  30.911   4.553
22115W        W87375   7.884  42.651  14.510
22116W        W87376  42.673   2.456   1.312
22117W        W87377  24.929  12.003  14.941
22118W        W87378   9.217   8.379  13.460
22119W        W87379   0.768  24.009  13.835
22120W        W87380  28.041  30.275  13.682
22121W        W87381  14.637  17.630   1.745
22122W        W87382  37.801  39.384   1.140
22123W        W87383  20.523  33.550  11.852
22124W        W87384  13.669   6.522  14.324
22125W        W87385  12.247  42.358  14.246
22126W        W87386  36.000  30.632   4.464
22127W        W87387  20.049   5.676   4.314
22128W        W87388  26.991  18.282  11.728
22129W        W87389  35.408  35.411   0.893
22130W        W87390  42.575  36.346  12.190
22131W        W87391  26.127  28.935   4.522
22132W        W87392   5.250   8.131   2.756
22133W        W87393  19.136   7.663   3.215
22134W        W87394  28.512  32.412  14.277
22135W        W87395   7.700  36.427   1.690
22136W        W87396  37.951   7.703   0.010
22137W        W87397  44.781  35.901   2.404
22138W        W87398  25.843   2.895  10.748
22139W        W87399  39.720  41.419  14.283
22140W        W87400  34.943   5.395   2.923
22141W        W87401   9.294   3.397   1.529
22142W        W87402  20.922   9.955   5.043
22143W        W87403  42.585  27.173   3.683
22144W        W87404  32.305  25.105   2.287
22145W        W87405  32.859   1.986  12.620
22146W        W87406   9.012   9.318  11.859
22147W        W87407  25.247  25.220   4.528
22148W        W87408  27.926  41.799   0.278
22149W        W87409   1.226   5.200  13.351
22150W        W87410  21.476  44.518   0.030
22151W        W87411  29.247   9.881  11.925
22152W        W87412   4.482  40.063   3.289
22153W        W87413  36.683   2.121  11.728
22154W        W87414  36.417   7.102   2.307
22155W        W87415  43.406  37.909  11.945
22156W        W87416  30.466  37.744  10.657
22157W        W87417   5.427  41.705  14.438
22158W        W87418  30.102   1.240   0.900
22159W        W87419  11.172  22.964   4.146
22160W        W87420  34.368   1.574   5.526
22161W        W87421  26.882  27.668   1.330
22162W        W87422  17.342  18.359  10.707
22163W        W87423  10.403  42.116  11.150
22164W        W87424  19.935  26.067   0.529
22165W        W87425   9.127  39.082  13.622
22166W        W87426  15.768  10.910   2.433
22167W        W87427  42.254  18.210  12.008
22168W        W87428   3.943  43.375   3.691
22169W        W87429  31.562  21.738   4.105
22170W        W87430  32.447   8.248   1.688
22171W        W87431  44.894  14.846  11.297
22172W        W87432   8.267   9.120   4.212
22173W        W87433  23.024   1.796  11.994
22174W        W87434  19.706  27.589   2.668
22175W        W87435   1.262  23.546  14.857
22176W        W87436  18.819   5.034  12.294
22177W        W87437   3.804  43.314  11.703
22178W        W87438  35.320  31.368  12.130
22179W        W87439   1.523  11.149  10.234
22180W        W87440  11.869  14.602   1.643
22181W        W87441  36.842  33.607  10.785
22182W        W87442  30.056  19.959  10.352
22183W        W87443  23.060  18.088  11.530
22184W        W87444  35.648  16.867  11.190
22185W        W87445  26.652  32.449  13.686
22186W        W87446   3.288  16.021  11.079
22187W        W87447   2.668  39.762   0.283
22188W        W87448   1.199  22.437   1.334
22189W        W87449  31.470  28.908  10.428
22190W        W87450  15.493  28.246  13.828
22191W        W87451  40.065   7.456   1.781
22192W        W87452  40.073  32.681   4.078
22193W        W87453  12.867  21.890   3.086
22194W        W87454   6.707  34.520   3.320
22195W        W87455   0.870  14.687   4.181
22196W        W87456  10.805  27.210   3.172
22197W        W87457  41.008  13.416   4.576
22198W        W87458  14.241  39.447   2.279
22199W        W87459   5.265  13.399  13.970
22200W        W87460  15.607  11.695   1.703
22201W        W87461  26.691  13.846   0.016
22202W        W87462  42.013   1.259   4.382
22203W        W87463   7.745  43.888  11.419
22204W        W87464  29.731   1.494  10.797
22205W        W87465  12.418  24.589   0.770
22206W        W87466  36.355  15.940   2.780
22207W        W87467  10.123  17.662  12.666
22208W        W87468  11.818  33.387  13.990
22209W        W87469  36.983  32.894   4.360
22210W        W87470  21.258  39.760  10.277
22211W        W87471  15.615  12.733   0.722
22212W        W87472   9.192  40.647   1.675
22213W        W87473  42.445  41.940  12.910
22214W        W87474  14.123   8.227   2.827
22215W        W87475  10.710   0.225   2.986
22216W        W87476  11.142  26.200  12.803
22217W        W87477  27.075  38.517   9.943
22218W        W87478  29.131  41.060   4.251
22219W        W87479  39.468  32.042  14.832
22220W        W87480   0.280  10.700   0.520
22221W        W87481  15.249  25.478   2.835
22222W        W87482   1.254  17.234  10.704
22223W        W87483  22.565  31.005   2.884
22224W        W87484  38.017  14.397   3.313
22225W        W87485  42.660  34.963   2.549
22226W        W87486  38.155   0.381  13.284
22227W        W87487  30.486  25.403  12.043
22228W        W87488  17.460  13.129   0.660
22229W        W87489  43.540  44.862  12.095
22230W        W87490   4.615  29.392   3.691
22231W        W87491   8.748   2.816   1.169
22232W        W87492  23.891  20.388  10.798
22233W        W87493  32.406  36.803   3.309
22234W        W87494  30.432   5.451   3.473
22235W        W87495  25.105  23.560  11.956
22236W        W87496  31.791  12.557  10.676
22237W        W87497  25.259  39.894   0.514
22238W        W87498   3.436  38.343  11.143
22239W        W87499  30.476  17.435  13.316
22240W        W87500  29.046  32.531   1.389
22241W        W87501  40.713  44.982  10.593
22242W        W87502  23.688  15.006   3.381
22243W        W87503  33.795   3.640   2.804
22244W        W87504  28.412   7.035  10.847
22245W        W87505   6.646  15.362   4.112
22246W        W87506  40.371   8.289   4.092
22247W        W87507  39.499  44.801   0.466
22248W        W87508  17.202  23.017   4.333
22249W        W87509  39.144  44.489   3.658
22250W        W87510  11.720  39.544  14.278
22251W        W87511  23.742   5.284  12.660
22252W        W87512  36.053  26.645   0.723
22253W        W87513  36.128   4.820  10.782
22254W        W87514  12.120  25.233  12.093
22255W        W87515   2.587  31.989   3.353
22256W        W87516  38.166  37.487  12.552
22257W        W87517  26.382   3.902  12.578
22258W        W87518   2.564  41.477  10.836
22259W        W87519   2.485  20.247  13.420
22260W        W87520   1.290  16.767   2.293
22261W        W87521  24.720   3.525   0.479
22262W        W87522  10.371  17.658  13.978
22263W        W87523  12.860  37.569  11.466
22264W        W87524  31.340  24.538   0.896
22265W        W87525  44.563  22.565  12.249
22266W        W87526  38.764  24.430  12.731
22267W        W87527  23.977  20.521   2.899
22268W        W87528   0.114  16.684  11.121
22269W        W87529  10.787   0.761   1.752
22270W        W87530  19.691  10.104  11.350
22271W        W87531  15.270  16.708  12.573
22272W        W87532   7.172  19.926  13.367
22273W        W87533  17.807  38.557  13.812
22274W        W87534  30.601  24.822   1.261
22275W        W87535  16.730  39.358  14.469
22276W        W87536   2.440   3.454  13.294
22277W        W87537  11.636  13.144   3.575
22278W        W87538   2.891  30.835   4.770
22279W        W87539  42.695  40.920  13.060
22280W        W87540   5.659  34.044  11.600
22281W        W87541  16.806  15.980   1.567
22282W        W87542  32.057  10.684  14.941
22283W        W87543   2.535  18.665  10.713
22284W        W87544  35.334  37.666   2.659
22285W        W87545  39.293  11.234   3.357
22286W        W87546   0.800  10.859  14.750
22287W        W87547  30.939  23.327  14.572
22288W        W87548  13.650  40.997  14.465
22289W        W87549   9.160  12.494  11.544
22290W        W87550  36.175  36.451  14.323
22291W        W87551  15.041  44.275   0.599
22292W        W87552  42.144  15.047  13.350
22293W        W87553  40.912  17.484  13.866
22294W        W87554  43.961   1.277  11.140
22295W        W87555   1.428  19.708   4.500
22296W        W87556  41.849  26.358  14.906
22297W        W87557  32.737  43.706  11.031
22298W        W87558  23.012   1.794   2.835
22299W        W87559  33.951  43.045   3.027
22300W        W87560  43.007  33.663   1.680
22301W        W87561  41.848  42.485   2.491
22302W        W87562  33.813  30.153   3.189
22303W        W87563  30.988   7.685  12.170
22304W        W87564  34.528  43.936  12.974
22305W        W87565  29.065   1.424   2.147
22306W        W87566  28.600  37.012  12.658
22307W        W87567  26.383  15.301   0.794
22308W        W87568   6.000  42.846  13.975
22309W        W87569  11.284  36.313  14.528
22310W        W87570  22.086  25.190  13.481
22311W        W87571  18.277  31.467  10.507
22312W        W87572  15.813  34.581  13.519
22313W        W87573   3.953  28.109   3.122
22314W        W87574  35.628  16.365  11.123
22315W        W87575  41.104   3.338  11.432
22316W        W87576   7.502  29.298  11.676
22317W        W87577   8.975  13.204   1.839
22318W        W87578  10.062  18.094  11.896
22319W        W87579  41.084  15.481   1.275
22320W        W87580  11.793   9.296   2.982
22321W        W87581  35.002  11.209   0.480
22322W        W87582   7.866   8.829   1.282
22323W        W87583   0.925  43.961   4.048
22324W        W87584  18.160  31.250   0.403
22325W        W87585  40.809  23.332   0.425
22326W        W87586  21.079  40.060   3.006
22327W        W87587  39.856   8.448   1.756
22328W        W87588  36.006  16.713  10.738
22329W        W87589  22.578  19.545  13.930
22330W        W87590  10.239  14.924  13.545
22331W        W87591  14.850  25.541  12.322
22332W        W87592  40.780   6.573   0.834
22333W        W87593  21.567  31.587  12.740
22334W        W87594  36.585  18.833  10.093
22335W        W87595  11.512  41.315  12.831
22336W        W87596  44.930  32.119   4.580
22337W        W87597  21.749   7.594   2.589
22338W        W87598  21.064  24.190   3.620
22339W        W87599  15.397  18.777  10.237
22340W        W87600  17.766  26.601  11.396
22341W        W87601  35.334  16.220   4.559
22342W        W87602  39.274  17.889   2.127
22343W        W87603   4.245  43.198   0.295
22344W        W87604  38.863  19.673   2.121
22345W        W87605  13.654  15.816  13.885
22346W        W87606   6.814  36.615  10.473
22347W        W87607   6.305  17.637   2.598
22348W        W87608  22.736   4.351  12.614
22349W        W87609   5.814  25.925   1.347
22350W        W87610   4.755   8.398   3.693
22351W        W87611   0.596  43.521  11.375
22352W        W87612  39.502  19.822   4.550
22353W        W87613  37.463  20.040   3.785
22354W        W87614  30.057  29.026  11.706
22355W        W87615  11.598  27.352  10.612
22356W        W87616  31.055   4.260  14.547
22357W        W87617  39.895  41.283  13.495
22358W        W87618  44.009  11.706   1.527
22359W        W87619  20.514  32.151   3.406
22360W        W87620  15.650   2.919  10.761
22361W        W87621  39.499  22.138  14.179
22362W        W87622  32.919  22.526   0.686
22363W        W87623  25.721  31.018  11.887
22364W        W87624  41.759  24.086  11.963
22365W        W87625   5.357  13.860  12.949
22366W        W87626  31.079  29.374  13.934
22367W        W87627  29.928  18.978  11.976
22368W        W87628  15.069  41.368   5.121
22369W        W87629  39.539   6.917   2.201
22370W        W87630  18.990  27.146  11.435
22371W        W87631  33.009  41.696  14.028
22372W        W87632  29.012  24.619   3.045
22373W        W87633  20.246  31.616  11.041
22374W        W87634  37.835  41.988  12.110
22375W        W87635  22.465  13.827   3.685
22376W        W87636  44.743  26.587   1.840
22377W        W87637  33.973  21.176   0.023
22378W        W87638  26.620  30.396  11.464
22379W        W87639  39.503  24.132   1.769
22380W        W87640  33.123  19.799   3.852
22381W        W87641  41.472  20.225  12.074
22382W        W87642  42.427  15.994   1.965
22383W        W87643  31.869  33.389   2.878
22384W        W87644  20.113   6.059   3.998
22385W        W87645  23.202  44.634  14.437
22386W        W87646  34.168  14.656   3.552
22387W        W87647  26.680  36.191  14.456
22388W        W87648   2.498  22.931   0.366
22389W        W87649  34.607  29.934  12.044
22390W        W87650   9.116   8.742   3.129
22391W        W87651  35.141  20.008  14.018
22392W        W87652  27.642  20.876  11.705
22393W        W87653  33.573  28.677   2.274
22394W        W87654   6.484  31.530   0.889
22395W        W87655  34.931   9.871   2.871
22396W        W87656  32.086  32.454  14.814
22397W        W87657   3.313  28.678   0.697
22398W        W87658  15.561  21.599  12.031
22399W        W87659  17.122   6.052   1.940
22400W        W87660  22.836   8.322  13.532
22401W        W87661  11.395  20.134   3.353
22402W        W87662  12.629  40.613   2.360
22403W        W87663  40.914   1.083  11.133
22404W        W87664  44.767   3.181  13.007
22405W        W87665  17.596  28.467   3.637
22406W        W87666   0.322  19.508  11.610
22407W        W87667  30.567  16.735  14.041
22408W        W87668  13.367  19.703   3.183
22409W        W87669   7.235   2.186   4.574
22410W        W87670  13.780  16.588  14.660
22411W        W87671  13.271  27.074  12.645
22412W        W87672   4.329  14.678  12.501
22413W        W87673  28.154  27.966  11.952
22414W        W87674  32.815  23.253   4.532
22415W        W87675   5.795  35.122   2.627
22416W        W87676  42.948  16.327  10.830
22417W        W87677  15.558  28.428   4.590
22418W        W87678   6.379   5.503   2.899
22419W        W87679  35.822  35.817  13.923
22420W        W87680  14.786   4.495   1.790
22421W        W87681  32.805  39.818   4.877
22422W        W87682  13.514  22.351  13.115
22423W        W87683   6.881   3.999  12.972
22424W        W87684   6.736  36.445  10.948
22425W        W87685  25.562  19.812   4.252
22426W        W87686  27.776  19.786   4.648
22427W        W87687  24.235   7.307   3.694
22428W        W87688  41.384  39.853   3.603
22429W        W87689   5.140  30.643  12.805
22430W        W87690   2.742   9.885   2.402
22431W        W87691  36.413  41.028   4.250
22432W        W87692  37.575  25.045   1.570
22433W        W87693  39.467  43.264   0.283
22434W        W87694  35.486  25.715  10.698
22435W        W87695  19.678  35.022  10.760
22436W        W87696  31.263   8.756  10.699
22437W        W87697   9.915  20.651   4.724
22438W        W87698  13.667   8.246   3.153
22439W        W87699  21.021  12.635   4.492
22440W        W87700  17.026   5.158   3.732
22441W        W87701  39.635  40.367   3.224
22442W        W87702  29.391  15.874  14.618
22443W        W87703  26.392   9.294   1.776
22444W        W87704   9.851  34.477  14.544
22445W        W87705  34.911  18.323  14.968
22446W        W87706  42.393  38.583  12.404
22447W        W87707  11.630  20.630  11.931
22448W        W87708  11.366  34.912   1.877
22449W        W87709   0.262  42.327   1.656
22450W        W87710  15.353   9.083   4.451
22451W        W87711  34.639  37.385  14.492
22452W        W87712  16.077  29.886   2.307
22453W        W87713  21.220  44.057   3.550
22454W        W87714   5.650  23.013   2.628
22455W        W87715  25.180  29.730   3.658
22456W        W87716  34.159  16.581  11.670
22457W        W87717  11.389  18.520   1.153
22458W        W87718  16.216  21.303   4.725
22459W        W87719  12.895  21.620  12.455
22460W        W87720  19.778  25.732  14.303
22461W        W87721  40.888  29.526  11.683
22462W        W87722  40.414  22.193  13.474
22463W        W87723  37.334  33.605   3.139
22464W        W87724  36.878  36.579   3.336
22465W        W87725  32.097  20.531  13.529
22466W        W87726  22.026  23.932  10.682
22467W        W87727  38.980   9.707  13.460
22468W        W87728  25.529  15.814   5.378
22469W        W87729  27.129  40.444  12.027
22470W        W87730  20.336  20.127  12.531
22471W        W87731  14.699   0.257   2.378
22472W        W87732   3.528  29.789  13.345
22473W        W87733  41.258  29.647   0.439
22474W        W87734  34.468  10.279   3.630
22475W        W87735  41.956  33.672   1.149
22476W        W87736  35.608   8.174   4.073
22477W        W87737  43.112  39.390   4.158
22478W        W87738  24.521  22.701   5.457
22479W        W87739  13.598  15.539   0.931
22480W        W87740  15.660  18.753   0.787
22481W        W87741  27.468  31.232   3.093
22482W        W87742  44.530  26.509  11.962
22483W        W87743   2.737   5.955  12.127
22484W        W87744  31.109  10.784  11.524
22485W        W87745  18.251  40.796  12.170
22486W        W87746   0.823  44.249  12.454
22487W        W87747   8.225  30.002  10.670
22488W        W87748  31.227   7.734  13.224
22489W        W87749  20.461  44.742   4.728
22490W        W87750  25.151  37.964   1.905
22491W        W87751  16.745  22.175  12.118
22492W        W87752   1.994  32.120   0.353
22493W        W87753  14.830   9.705  14.493
22494W        W87754  17.317  18.648  10.282
22495W        W87755  13.081   4.892  13.132
22496W        W87756   0.984  31.749  13.985
22497W        W87757  36.174  39.319  11.220
22498W        W87758  30.395  32.116  10.512
22499W        W87759   4.482  35.630   1.845
22500W        W87760  36.350  29.219   4.621
22501W        W87761  17.265  23.210  14.441
22502W        W87762  41.753  15.267   4.247
22503W        W87763  27.174  32.655   1.939
22504W        W87764  13.819  41.115   4.078
22505W        W87765   6.461  41.556   2.773
22506W        W87766  33.896  15.966  11.081
22507W        W87767   4.922  32.049   1.638
22508W        W87768  41.028  41.070  13.812
22509W        W87769  21.722  12.271  12.279
22510W        W87770  27.995  23.980  13.347
22511W        W87771   3.455   5.121  13.829
22512W        W87772  43.181  43.529   2.787
22513W        W87773  14.715   9.862   3.335
22514W        W87774  43.246  22.937   3.692
22515W        W87775  21.246  43.497  14.922
22516W        W87776  41.549  42.986  10.628
22517W        W87777  26.235  28.465  11.475
22518W        W87778  14.219   9.001   0.331
22519W        W87779   9.762  41.293   0.361
22520W        W87780  22.234  22.012  12.516
22521W        W87781  18.619  42.905   0.649
22522W        W87782  30.887  43.264  11.033
22523W        W87783  32.222  37.849  14.434
22524W        W87784  22.614   1.526   3.738
22525W        W87785  43.977  31.134   0.318
22526W        W87786  43.400   2.870   1.283
22527W        W87787  11.353  19.056   1.172
22528W        W87788  15.798  28.214  12.546
22529W        W87789  43.290  43.965   0.747
22530W        W87790  34.314  24.995   1.120
22531W        W87791  33.086  21.069  13.093
22532W        W87792  11.566  11.967  11.420
22533W        W87793  21.277   8.495  10.286
22534W        W87794  40.675  11.128  12.818
22535W        W87795  38.118  39.752  13.741
22536W        W87796  12.369  26.844  11.187
22537W        W87797  35.768  44.887  13.752
22538W        W87798  33.597  35.971  13.586
22539W        W87799  13.137  41.763  11.676
22540W        W87800  33.742   6.719  13.926
22541W        W87801  23.965  15.892  14.964
22542W        W87802  26.765  19.348  13.961
22543W        W87803  35.156   9.774   3.382
22544W        W87804  33.590   6.977   3.663
22545W        W87805  34.276  37.004   2.213
22546W        W87806  28.463   1.572  11.986
22547W        W87807   8.191  44.942   3.302
22548W        W87808   5.444  43.483   3.624
22549W        W87809  21.570  12.826  11.170
22550W        W87810  41.103  38.817  10.788
22551W        W87811   1.758  15.853   2.239
22552W        W87812  31.961  20.064   3.160
22553W        W87813  15.834  32.893  12.970
22554W        W87814   6.372  16.296   2.436
22555W        W87815   8.896  44.928   1.186
22556W        W87816  19.684  40.819   3.348
22557W        W87817  14.269  27.103   4.866
22558W        W87818  32.828  39.017  12.101
22559W        W87819   0.265  16.331   4.868
22560W        W87820  25.968  33.919  10.226
22561W        W87821  22.614  13.850  13.583
22562W        W87822  13.319  41.519  10.211
22563W        W87823  37.027   4.475  11.563
22564W        W87824  17.602  23.121  12.933
22565W        W87825  40.252  38.486  13.171
22566W        W87826  27.817  44.288  12.126
22567W        W87827   9.099   1.452   3.216
22568W        W87828  34.196  11.192   1.777
22569W        W87829  12.699  34.515   0.582
22570W        W87830  35.872  33.940  11.624
22571W        W87831   0.460   2.288   1.435
22572W        W87832  14.836  44.483  14.790
22573W        W87833  19.244  31.911   2.536
22574W        W87834  21.237  31.490  13.112
22575W        W87835  32.027   9.238   0.556
22576W        W87836  28.592  14.601  12.058
22577W        W87837   8.789  42.237  13.125
22578W        W87838   8.659  13.678   1.179
22579W        W87839  23.649  39.886   3.249
22580W        W87840  38.080  31.898  10.707
22581W        W87841  38.374  11.690   4.574
22582W        W87842  22.662  17.280   3.150
22583W        W87843  36.657  37.331  13.487
22584W        W87844  18.161  23.840  14.857
22585W        W87845  31.029  10.621  11.018
22586W        W87846  22.596  18.962  13.074
22587W        W87847  28.748  17.362   4.223
22588W        W87848  28.116   2.823  13.909
22589W        W87849  16.637   9.623  13.497
22590W        W87850   7.659  24.567   2.798
22591W        W87851  20.654  23.694   2.896
22592W        W87852   2.303   5.720  12.089
22593W        W87853  43.192   5.482  14.991
22594W        W87854  22.024   7.775   3.784
22595W        W87855  36.306  23.101  12.067
22596W        W87856  28.337   7.162  14.875
22597W        W87857  36.538  39.516   3.118
22598W        W87858  44.891  44.859  11.875
22599W        W87859   1.820   7.294   4.173
22600W        W87860  18.019   0.874   0.812
22601W        W87861   7.283  26.027  14.289
22602W        W87862  41.002  43.327  14.374
22603W        W87863  20.533  33.433   4.648
22604W        W87864  15.570  18.841   4.550
22605W        W87865  10.807  18.910   3.310
22606W        W87866   6.873  14.211   1.184
22607W        W87867   0.432  41.350  11.275
22608W        W87868  15.828  43.243  11.931
22609W        W87869   8.427  27.122   1.276
22610W        W87870  14.255  13.581  10.955
22611W        W87871  42.822  41.319  13.843
22612W        W87872  11.581  41.135   0.951
22613W        W87873  10.446   4.731   0.513
22614W        W87874   2.016  24.682  14.771
22615W        W87875  43.034  44.325  13.821
22616W        W87876  40.565  28.691   1.334
22617W        W87877  18.564  41.049  10.697
22618W        W87878  21.269  38.473   3.146
22619W        W87879  25.954  43.038  11.627
22620W        W87880  23.519   9.203  10.594
22621W        W87881  25.838  25.461   3.170
22622W        W87882  21.234  42.338  14.217
22623W        W87883   2.896  39.311   0.299
22624W        W87884  16.051   1.288  12.940
22625W        W87885  14.098   1.502   0.251
22626W        W87886  11.785   5.864  14.578
22627W        W87887  32.523  26.095   0.706
22628W        W87888  39.951   4.433  14.311
22629W        W87889   6.863  21.118   4.711
22630W        W87890   6.661  40.891   2.428
22631W        W87891  30.647  31.152   2.909
22632W        W87892   1.760   0.757   2.147
22633W        W87893  14.360   6.401  10.460
22634W        W87894   2.453  17.493   4.451
22635W        W87895   2.301  13.157  12.339
22636W        W87896  34.657  25.375   5.471
22637W        W87897  18.399  44.451  10.266
22638W        W87898  13.317  22.051   2.820
22639W        W87899   1.792   0.631  14.015
22640W        W87900  35.640  24.767   5.030
22641W        W87901  22.638  12.348   1.012
22642W        W87902  31.739   8.632   3.463
22643W        W87903  19.444  11.723   0.921
22644W        W87904  29.855  44.533   0.132
22645W        W87905  38.044  21.137  10.603
22646W        W87906  27.118  23.940  10.831
22647W        W87907  25.054   5.714  13.052
22648W        W87908  12.127  38.306  10.782
22649W        W87909  21.312  27.095   2.656
22650W        W87910  17.648   2.043   0.888
22651W        W87911   2.278  41.316   0.737
22652W        W87912  10.230   2.577   0.450
22653W        W87913  21.093  13.543  10.732
22654W        W87914  15.212  41.513  13.912
22655W        W87915   0.497   2.769  12.479
22656W        W87916   2.940  34.410  13.334
22657W        W87917   5.660  15.096  13.808
22658W        W87918  25.506  14.764  11.201
22659W        W87919  37.951  22.311   3.278
22660W        W87920   4.403  29.345  11.076
22661W        W87921  27.979  32.780  13.135
22662W        W87922  39.249  42.538  11.270
22663W        W87923   0.742  10.581  14.303
22664W        W87924  23.632  25.635  10.743
22665W        W87925  23.112   9.362  13.570
22666W        W87926   3.307  37.490  11.586
22667W        W87927  37.260   5.337   0.793
22668W        W87928  20.974  15.671  13.184
22669W        W87929  28.398   6.724   3.763
22670W        W87930  22.970  43.232  12.632
22671W        W87931  27.545  25.865   4.430
22672W        W87932  18.609   0.987   1.255
22673W        W87933  25.145  26.862  11.166
22674W        W87934   5.773   5.230  10.690
22675W        W87935   8.329  11.153  10.718
22676W        W87936  12.827  31.538  11.304
22677W        W87937  28.742  27.474  12.422
22678W        W87938  25.977  34.121  12.612
22679W        W87939  26.467  20.200  10.695
22680W        W87940  27.901  29.003   4.894
22681W        W87941  17.409  23.564   1.434
22682W        W87942  27.013  39.479   1.384
22683W        W87943  31.106  31.512   1.177
22684W        W87944  31.624   0.877   4.066
22685W        W87945  32.439  37.783   1.729
22686W        W87946  30.971   9.495  13.953
22687W        W87947  39.897  31.938  13.359
22688W        W87948   6.680  23.163  14.940
22689W        W87949  35.424  35.143   4.258
22690W        W87950   7.733  27.248  12.587
22691W        W87951  22.529  24.570  11.109
22692W        W87952  40.366  38.306   1.679
22693W        W87953  39.960  36.123   1.481
22694W        W87954  33.126  20.625   0.377
22695W        W87955  32.857  16.866  14.490
22696W        W87956  27.396  37.547   1.182
22697W        W87957  39.437  17.062  14.574
22698W        W87958  38.538  16.304   2.652
22699W        W87959  29.182  24.175   4.103
22700W        W87960  38.908  28.421   3.125
22701W        W87961  35.043   2.877  13.859
22702W        W87962  32.873  27.317  12.954
22703W        W87963  38.953   8.170  14.703
22704W        W87964  44.166  25.094  14.854
22705W        W87965   4.250   7.525  12.005
22706W        W87966  30.951  32.652   0.456
22707W        W87967  19.960  35.812   5.265
22708W        W87968  35.286  26.587  13.800
22709W        W87969   6.723  42.972  11.197
22710W        W87970  14.620  20.595  14.784
22711W        W87971  41.501  29.126   4.162
22712W        W87972  16.213  13.545  11.594
22713W        W87973  15.485  15.232   0.231
22714W        W87974   8.023  44.751  14.499
22715W        W87975  14.353  25.915  10.542
22716W        W87976   7.793  10.224  13.962
22717W        W87977  13.955  43.855  10.405
22718W        W87978  40.907  38.860   1.937
22719W        W87979  18.094  34.042   0.423
22720W        W87980   7.229  21.998   2.234
22721W        W87981  18.046  38.340   3.391
22722W        W87982   4.416  21.737   0.841
22723W        W87983  35.055  14.122   3.408
22724W        W87984  33.467   8.833  12.483
22725W        W87985   7.495   5.945   2.523
22726W        W87986  37.112  39.081   4.081
22727W        W87987  32.431  29.515  10.721
22728W        W87988  42.087   7.893  10.449
22729W        W87989   5.875  23.117  11.245
22730W        W87990  19.019  19.997  12.923
22731W        W87991  25.963  34.947   1.174
22732W        W87992   5.355   1.396   4.147
22733W        W87993   1.644  35.546  11.965
22734W        W87994   9.869  20.738   2.679
22735W        W87995  33.780  43.280   3.689
22736W        W87996  16.326  15.685   4.799
22737W        W87997  11.201  37.968  11.663
22738W        W87998   4.402  38.189  14.058
22739W        W87999  17.627  30.870   3.276
22740W        W88000  18.660  32.322   2.801
22741W        W88001  22.010  14.774  12.037
22742W        W88002  29.452  44.736  13.467
22743W        W88003  36.440  24.917  10.888
22744W        W88004  34.275   6.553  12.501
22745W        W88005   0.923  16.323  12.688
22746W        W88006  24.973  43.974  10.503
22747W        W88007  17.732  13.835   3.704
22748W        W88008  31.811  44.426   2.834
22749W        W88009   5.913  37.869   1.385
22750W        W88010  39.054  39.576  11.101
22751W        W88011  25.605  36.925  13.760
22752W        W88012  31.118  35.964  11.176
22753W        W88013  16.172  27.014   2.317
22754W        W88014  28.036  18.867   3.805
22755W        W88015  43.291  37.903  11.440
22756W        W88016  44.304   9.665  11.177
22757W        W88017  27.916  32.504   2.846
22758W        W88018  28.345   9.627  11.638
22759W        W88019   9.220  15.682   4.131
22760W        W88020   2.922  33.931   1.903
22761W        W88021  31.565  18.698   3.292
22762W        W88022  24.279   1.066  13.934
22763W        W88023  33.633  35.040  13.279
22764W        W88024   2.893  35.569  12.447
22765W        W88025  31.991   4.902   2.384
22766W        W88026   5.759  10.776   4.658
22767W        W88027  14.738  15.398  12.788
22768W        W88028  12.716  28.685  13.327
22769W        W88029  34.559  10.344   2.754
22770W        W88030  34.092  35.115  12.976
22771W        W88031  39.518  35.046   0.275
22772W        W88032  22.918   5.934   1.249
22773W        W88033  41.038  16.205   0.851
22774W        W88034  36.752   3.969  13.986
22775W        W88035  34.789  38.952   4.630
22776W        W88036  12.214  24.252   2.819
22777W        W88037  10.755  30.422   1.214
22778W        W88038  14.360  23.928   3.812
22779W        W88039   3.924  14.306  13.945
22780W        W88040  34.924  28.281   5.031
22781W        W88041  13.647  25.823   2.088
22782W        W88042  17.274  25.168   3.685
22783W        W88043  11.685  34.448  13.762
22784W        W88044  31.222  11.264  11.661
22785W        W88045   9.501   3.626   3.339
22786W        W88046  33.605  44.575  10.573
22787W        W88047  11.379  15.666  10.686
22788W        W88048   5.698  29.713  13.014
22789W        W88049  19.146  33.452   3.907
22790W        W88050  42.505  19.907  11.374
22791W        W88051  32.028  32.875  13.026
22792W        W88052  12.166  31.160   2.761
22793W        W88053  21.191  26.717   0.277
22794W        W88054   9.896  11.812  14.958
22795W        W88055   8.629  33.363  10.575
22796W        W88056  28.994   3.226   1.817
22797W        W88057  17.393  29.158  10.733
22798W        W88058  36.636  18.261   3.154
22799W        W88059   0.172   1.850   0.440
22800W        W88060  24.917   9.362  12.973
22801W        W88061  22.233  38.118  12.165
22802W        W88062  41.281   3.170  11.960
22803W        W88063  14.876   0.227   0.362
22804W        W88064  18.327  14.681  11.176
22805W        W88065  42.792  28.680  11.030
22806W        W88066  39.486  10.825   4.485
22807W        W88067  10.197   0.703   2.102
22808W        W88068  13.211  30.260  12.886
22809W        W88069  16.623  44.428   1.227
22810W        W88070  16.602   4.184  12.991
22811W        W88071  41.877  18.487   1.294
22812W        W88072   0.270   0.375   4.603
22813W        W88073  30.905  20.667   3.864
22814W        W88074  40.266  33.325   1.246
22815W        W88075   1.866   6.829  13.161
22816W        W88076  14.618  31.822   0.777
22817W        W88077  19.003  24.150   4.537
22818W        W88078  16.116  43.079  13.024
22819W        W88079  35.470  17.270   1.424
22820W        W88080  18.834  30.245   3.656
22821W        W88081   5.785  26.448   2.262
22822W        W88082  12.685  10.694   4.082
22823W        W88083  23.200  11.137   4.416
22824W        W88084  39.866   3.672   1.286
22825W        W88085  25.322  23.803  10.001
22826W        W88086   2.159  23.506  13.420
22827W        W88087  11.717  29.248  13.377
22828W        W88088  11.743  12.012  10.927
22829W        W88089  40.310  17.492   0.442
22830W        W88090   2.327   5.975  12.964
22831W        W88091  19.362  20.092   3.494
22832W        W88092   7.386  26.380   3.664
22833W        W88093  12.400  17.680  14.093
22834W        W88094   3.248   8.587   2.306
22835W        W88095  14.364   2.824  14.099
22836W        W88096   2.409  39.230   1.116
22837W        W88097  33.252  15.749  10.129
22838W        W88098  24.077  22.580   5.178
22839W        W88099  30.795   2.706  10.674
22840W        W88100  44.303  36.863  11.498
22841W        W88101   1.357  42.944   3.668
22842W        W88102  22.964  15.108   0.429
22843W        W88103   3.355  21.336   2.322
22844W        W88104  40.958   0.298   4.621
22845W        W88105  44.447  27.668   0.435
22846W        W88106   1.124  12.919   4.681
22847W        W88107  37.803  29.141   3.724
22848W        W88108  44.178  14.652   1.321
22849W        W88109  39.942  13.387  10.726
22850W        W88110  19.564   3.830   3.690
22851W        W88111  41.563  13.773  10.974
22852W        W88112  35.572  29.098  13.723
22853W        W88113   7.685  37.044  14.970
22854W        W88114  44.928  40.965   0.772
22855W        W88115  14.571  29.144   1.331
22856W        W88116  11.564  44.454  12.030
22857W        W88117  29.138  40.592  11.518
22858W        W88118  42.806  29.206  13.860
22859W        W88119   8.466  17.115  14.194
22860W        W88120   6.429  15.388  10.640
22861W        W88121  34.911  39.529  14.828
22862W        W88122   5.114  16.255   4.621
22863W        W88123  39.357  21.228   4.763
22864W        W88124  28.716  32.064   9.879
22865W        W88125  39.839  23.471  13.941
22866W        W88126   0.913  26.340  13.058
22867W        W88127   2.387  22.766   3.305
22868W        W88128   5.016  39.017  13.481
22869W        W88129  28.308  36.280  10.974
22870W        W88130  34.394  31.160  11.448
22871W        W88131   4.219  21.984  13.820
22872W        W88132  39.814  30.943   0.468
22873W        W88133  13.279  13.429  13.979
22874W        W88134  14.668   2.248   3.392
22875W        W88135   1.339  18.208  10.509
22876W        W88136  12.446   7.472   0.564
22877W        W88137  32.231  35.710   2.789
22878W        W88138  23.446  32.075   4.155
22879W        W88139   9.497   7.963  11.445
22880W        W88140  22.106  34.631   0.365
22881W        W88141  27.408  35.935   4.825
22882W        W88142   0.186  10.815   3.283
22883W        W88143   1.458  28.545   0.052
22884W        W88144   0.970   6.470   4.132
22885W        W88145  38.863  31.127  13.894
22886W        W88146  43.966  32.563   3.855
22887W        W88147  39.096   8.584  13.202
22888W        W88148   2.262   1.968   3.303
22889W        W88149   8.707  16.770   1.212
22890W        W88150  14.797   1.242  12.050
22891W        W88151   9.645  18.179  13.093
22892W        W88152  11.344  21.273   3.651
22893W        W88153  12.567  36.909  12.016
22894W        W88154  38.266  12.350   3.204
22895W        W88155   6.014  41.557   3.685
22896W        W88156  12.250  17.531  11.563
22897W        W88157  22.002  36.793  13.261
22898W        W88158   8.350  38.051   1.365
22899W        W88159  40.305  39.079  12.503
22900W        W88160  34.596  15.768   2.210
22901W        W88161   6.814  44.739   4.641
22902W        W88162  17.874  16.367   3.862
22903W        W88163  22.636  40.587  12.448
22904W        W88164  33.121  40.352  11.970
22905W        W88165  22.592   5.732   2.769
22906W        W88166  41.270   3.284   0.022
22907W        W88167  38.348   7.059  12.374
22908W        W88168  43.367  41.748  13.478
22909W        W88169  42.279   9.175   0.347
22910W        W88170  21.835   6.220  12.140
22911W        W88171   4.784  33.371   5.094
22912W        W88172  39.434  43.905   2.372
22913W        W88173  25.556  31.553   2.194
22914W        W88174   8.960  27.652   0.686
22915W        W88175  44.055   9.980   5.481
22916W        W88176  29.255  20.758   3.165
22917W        W88177  24.237  35.456  12.979
22918W        W88178  29.669  10.624  11.476
22919W        W88179  36.165  14.213  13.908
22920W        W88180  44.290   6.684  14.742
22921W        W88181  22.070  24.722   1.539
22922W        W88182  25.695  30.934   2.831
22923W        W88183  32.795  29.006  14.493
22924W        W88184  17.516  28.438   2.110
22925W        W88185  15.346  20.159   1.832
22926W        W88186   9.926  34.701  11.663
22927W        W88187  13.699  17.121  13.073
22928W        W88188  13.822  23.458   1.288
22929W        W88189  14.808  29.591   1.249
22930W        W88190  21.869  11.096   4.510
22931W        W88191  28.159  21.823   5.091
22932W        W88192   1.947  42.002  11.542
22933W        W88193   1.064  10.971  11.594
22934W        W88194  30.880  28.466   3.111
22935W        W88195  14.323   7.782  10.084
22936W        W88196  19.676   9.612  11.496
22937W        W88197  32.422  20.551  10.375
22938W        W88198   1.932  17.840   4.646
22939W        W88199  27.029  30.098   2.717
22940W        W88200  38.037   3.774   1.895
22941W        W88201  38.437  26.065   3.113
22942W        W88202   5.212  28.399   1.788
22943W        W88203  43.397  38.285   0.972
22944W        W88204   8.512  19.491   0.833
22945W        W88205   1.362  14.845   4.352
22946W        W88206  44.815  36.812   1.477
22947W        W88207   1.390  20.015   0.804
22948W        W88208   7.685  31.587  13.706
22949W        W88209  31.483   8.291   3.747
22950W        W88210  43.723  25.924  12.565
22951W        W88211  34.075   9.429   3.646
22952W        W88212  29.717  39.808   0.927
22953W        W88213  35.444  13.149   2.151
22954W        W88214  10.520  33.457  11.802
22955W        W88215   0.734  34.902   1.376
22956W        W88216  28.391  15.080   0.911
22957W        W88217   7.730  10.687   4.579
22958W        W88218  41.493  14.281   2.727
22959W        W88219   3.418  37.525  12.486
22960W        W88220  18.429   0.478   3.401
22961W        W88221  26.796   3.630  12.397
22962W        W88222  21.056  33.907  12.126
22963W        W88223  19.539  16.215   0.554
22964W        W88224  20.429  41.885   1.879
22965W        W88225  43.485   8.603   1.140
22966W        W88226  32.198   2.079  13.953
22967W        W88227  13.142  34.052  12.335
22968W        W88228  16.833   2.909   3.213
22969W        W88229  32.180  34.910   4.585
22970W        W88230  21.534  24.426  13.296
22971W        W88231   2.966  41.384  14.302
22972W        W88232   3.709  38.119  13.685
22973W        W88233  11.761  27.020   2.214
22974W        W88234   0.613  16.815  11.105
22975W        W88235  20.992  17.673  11.610
22976W        W88236  31.084  17.437   0.324
22977W        W88237   6.245  12.526  11.269
22978W        W88238  30.586  24.631  14.394
22979W        W88239  38.804  18.636  14.950
22980W        W88240   4.586  34.641  14.086
22981W        W88241  20.684  24.170   0.834
22982W        W88242  11.721  20.234   1.471
22983W        W88243   5.389  28.463  14.957
22984W        W88244  32.119  10.541  13.159
22985W        W88245  24.581  19.776  13.357
22986W        W88246  18.264   1.767   0.743
22987W        W88247   7.744  29.670  11.940
22988W        W88248  37.461  34.034  13.453
22989W        W88249  14.992  20.191  13.134
22990W        W88250  21.193  23.428  11.670
22991W        W88251   5.244  24.738   2.200
22992W        W88252  40.288  12.750   4.800
22993W        W88253  26.059  27.988   1.862
22994W        W88254  38.925  23.684   3.859
22995W        W88255   3.502  40.868  12.811
22996W        W88256  11.654  30.530  10.207
22997W        W88257  42.915  19.665  12.117
22998W        W88258   4.804  37.541  11.914
22999W        W88259   8.289   5.917  11.150
23000W        W88260  40.324  37.570  11.969
23001W        W88261   6.977   8.020   4.626
23002W        W88262   8.050  40.296   2.893
23003W        W88263   7.230  19.203   2.211
23004W        W88264  10.696  18.551   0.863
23005W        W88265  18.737  31.637   0.480
23006W        W88266  23.338  37.353   0.326
23007W        W88267  44.928  20.531   0.812
23008W        W88268  41.071  25.952   3.804
23009W        W88269   7.862   9.113   3.183
23010W        W88270  10.241   2.695  14.148
23011W        W88271   5.769   2.441   2.650
23012W        W88272  27.095  29.075   2.376
23013W        W88273  22.022  44.429  14.304
23014W        W88274  40.521  14.120   0.248
23015W        W88275  12.052  30.410  14.867
23016W        W88276  25.236  30.213  12.475
23017W        W88277  16.369  14.903   0.034
23018W        W88278  33.586  17.679   1.773
23019W        W88279  44.506  33.491  12.598
23020W        W88280  10.642  12.816  11.066
23021W        W88281   7.357  41.089  13.395
23022W        W88282  40.767  39.414  14.447
23023W        W88283  15.183   2.888  13.445
23024W        W88284   6.846  10.239   3.667
23025W        W88285  43.597  29.912   0.900
23026W        W88286  35.687  27.416   3.555
23027W        W88287   6.929  33.215  14.991
23028W        W88288  39.559  18.815   4.718
23029W        W88289  22.966  25.225  12.622
23030W        W88290  30.639  33.685  11.516
23031W        W88291  24.028  37.417  11.875
23032W        W88292  31.328  39.339  11.220
23033W        W88293   2.391   1.625  10.570
23034W        W88294  24.608  43.080  13.112
23035W        W88295  28.680   4.221   0.963
23036W        W88296  16.993  12.546   0.910
23037W        W88297  20.800  36.642   1.226
23038W        W88298  43.736   7.764   0.947
23039W        W88299  23.165  39.765   3.293
23040W        W88300  42.543  16.566  13.760
23041W        W88301  13.803  21.715  12.429
23042W        W88302  39.145   2.733  14.604
23043W        W88303  38.395  41.490  11.530
23044W        W88304   2.353  25.689   2.432
23045W        W88305  29.498   9.113  10.584
23046W        W88306   1.360   5.671  11.934
23047W        W88307  19.270  10.128   0.285
23048W        W88308   6.794  30.634  13.882
23049W        W88309  41.419   3.196  13.412
23050W        W88310   5.347  27.636   4.141
23051W        W88311   7.342  32.064   4.644
23052W        W88312  20.665  39.773   3.172
23053W        W88313  22.536   7.633   3.775
23054W        W88314  26.728  19.328  13.033
23055W        W88315  41.373  43.744  14.379
23056W        W88316   6.976  10.282  13.445
23057W        W88317   1.235  23.895  12.443
23058W        W88318  10.021  26.157   1.447
23059W        W88319  40.868   5.792   2.365
23060W        W88320  38.285  28.009  14.074
23061W        W88321  31.942  40.520  12.909
23062W        W88322  44.065  13.576   0.743
23063W        W88323  44.494   2.383  13.065
23064W        W88324   8.356  23.738  13.008
23065W        W88325  16.160  26.327   0.018
23066W        W88326  19.659  26.869  14.944
23067W        W88327  36.417  23.582  13.396
23068W        W88328  22.033  10.378   3.436
23069W        W88329  34.956  43.266  11.057
23070W        W88330  27.582  32.261  14.360
23071W        W88331  39.944   9.338   3.275
23072W        W88332  10.725  31.587  11.963
23073W        W88333   8.408  19.463  14.985
23074W        W88334  40.232  35.545  13.419
23075W        W88335  25.037  36.357  12.934
23076W        W88336  17.595  21.666  12.940
23077W        W88337  16.216  12.061   2.317
23078W        W88338  32.728  30.095  12.189
23079W        W88339   7.078  37.986   2.718
23080W        W88340  17.193  22.778  12.969
23081W        W88341  21.691   5.327  13.442
23082W        W88342  11.384  42.722  14.398
23083W        W88343   2.420   0.338   1.888
23084W        W88344  12.123   8.116   4.823
23085W        W88345  15.110  33.924  11.766
23086W        W88346  38.566  25.919  11.899
23087W        W88347   4.299  33.616   3.357
23088W        W88348  31.162  38.531   4.341
23089W        W88349   5.664   3.340   3.216
23090W        W88350   1.386  14.044   2.230
23091W        W88351  33.903  38.356   2.386
23092W        W88352   0.408  43.924  11.660
23093W        W88353   9.891  34.547  12.528
23094W        W88354   5.116   4.975   4.263
23095W        W88355  21.494  26.373  12.050
23096W        W88356  32.580  28.751  11.171
23097W        W88357  14.510  25.921  12.319
23098W        W88358  35.539  18.120  14.484
23099W        W88359  19.453  42.339   2.391
23100W        W88360  28.691  37.543  10.111
23101W        W88361  38.431   4.627  11.552
23102W        W88362  40.983  10.882  11.681
23103W        W88363  42.974  21.793  11.485
23104W        W88364  27.541  33.358   0.746
23105W        W88365   2.389  16.071  12.969
23106W        W88366  39.029  40.554  11.039
23107W        W88367  23.147  35.910   1.684
23108W        W88368  17.786  34.629  12.828
23109W        W88369  34.968  31.160   0.822
23110W        W88370  20.125  12.259  13.222
23111W        W88371  20.150  36.932   0.246
23112W        W88372  27.827  16.299  11.719
23113W        W88373  21.336   5.191   2.686
23114W        W88374  23.215  32.573  11.385
23115W        W88375  14.377  20.029   2.721
23116W        W88376  35.922  34.260   4.478
23117W        W88377  34.470   5.484   2.688
23118W        W88378  10.946  27.498  10.154
23119W        W88379  20.985  44.113  10.810
23120W        W88380  22.447   2.784   3.505
23121W        W88381  17.751   4.145   3.234
23122W        W88382   8.861  44.985  14.843
23123W        W88383  39.789  34.165  14.120
23124W        W88384  43.015  20.641  11.677
23125W        W88385  33.073  29.156   4.311
23126W        W88386  14.673  14.917   4.299
23127W        W88387  29.450   5.784   3.210
23128W        W88388  44.878  34.134  13.435
23129W        W88389   6.668   4.523   2.849
23130W        W88390   2.915  21.186   0.736
23131W        W88391  38.916  26.006   3.261
23132W        W88392  20.837  16.743   2.838
23133W        W88393  17.922   0.200  14.437
23134W        W88394  16.789  42.984  14.879
23135W        W88395  42.715   4.250   4.268
23136W        W88396  38.793  27.399   2.141
23137W        W88397  28.038  13.177  13.776
23138W        W88398  12.687  22.277   0.832
23139W        W88399  31.980  23.528   2.801
23140W        W88400  41.578  23.517  12.896
23141W        W88401  23.423  32.085   2.751
23142W        W88402  31.373  15.896   2.237
23143W        W88403  18.279  44.058   3.596
23144W        W88404  10.331  16.511  13.011
23145W        W88405   2.997   0.962   2.736
23146W        W88406   7.121  34.489  14.791
23147W        W88407  14.265   5.001  14.858
23148W        W88408  38.766  37.599  10.237
23149W        W88409  13.696  28.001  12.053
23150W        W88410  21.270  38.366  13.107
23151W        W88411  34.428  27.088  11.535
23152W        W88412   6.956  16.808   0.837
23153W        W88413   7.834  33.895   3.668
23154W        W88414  28.667   6.820  12.081
23155W        W88415   8.015   0.916  12.365
23156W        W88416  36.231  15.439   2.882
23157W        W88417  42.351  43.450  10.573
23158W        W88418   0.004  11.835   2.170
23159W        W88419   8.188  44.188   0.948
23160W        W88420  17.732  24.503   0.790
23161W        W88421  18.310  36.954   1.880
23162W        W88422  18.742   0.467  11.539
23163W        W88423  21.274  23.459   0.724
23164W        W88424  30.933   8.146   0.338
23165W        W88425  10.751  10.925   0.829
23166W        W88426   7.814  32.715  12.141
23167W        W88427   1.932  30.938   0.576
23168W        W88428   0.759  17.565   2.911
23169W        W88429  18.918  26.484  12.370
23170W        W88430  16.073  38.006  10.726
23171W        W88431  12.235  26.449   0.682
23172W        W88432  41.512   8.344  11.560
23173W        W88433  17.667   5.249  10.480
23174W        W88434  41.484  41.029   0.915
23175W        W88435  43.600  22.358   0.826
23176W        W88436  33.782  11.384  13.115
23177W        W88437  15.049  31.056   2.370
23178W        W88438  13.728  32.218   3.239
23179W        W88439  34.771  36.097   1.416
23180W        W88440  28.851  31.168  11.995
23181W        W88441  25.111  36.948   1.174
23182W        W88442   5.183  19.054   2.301
23183W        W88443  29.200  43.878   3.371
23184W        W88444  38.506  44.953   2.158
23185W        W88445  25.891  18.478   3.522
23186W        W88446  24.936  34.799  14.783
23187W        W88447  31.948  16.022   0.958
23188W        W88448  43.691  25.461   2.353
23189W        W88449  20.576  40.477   3.768
23190W        W88450  26.506  26.831   3.670
23191W        W88451   2.300   4.160   0.545
23192W        W88452  23.741  22.724  11.988
23193W        W88453  13.848  30.014  12.556
23194W        W88454   4.741  43.975  12.567
23195W        W88455  22.344  11.588   4.108
23196W        W88456  34.060  11.221   3.230
23197W        W88457  10.227  36.959  11.930
23198W        W88458  22.065   7.137   0.046
23199W        W88459  33.163  30.898  14.501
23200W        W88460  44.473  31.929  14.855
23201W        W88461  13.352   7.362   3.037
23202W        W88462  22.908   2.340   2.892
23203W        W88463  30.916  17.064  13.812
23204W        W88464  31.840  29.943  11.677
23205W        W88465  12.721  44.725  13.978
23206W        W88466  40.138  40.601   3.291
23207W        W88467  35.654  21.177   1.937
23208W        W88468  40.327  41.515  13.403
23209W        W88469  13.132  24.913  11.979
23210W        W88470  28.148   0.483   1.710
23211W        W88471  19.616  42.913   2.178
23212W        W88472  37.373   7.273   3.661
23213W        W88473  26.091  22.486  13.739
23214W        W88474  10.967   0.233  13.344
23215W        W88475  34.329  27.755  12.973
23216W        W88476  13.007  34.742  13.896
23217W        W88477  39.385  22.990  14.026
23218W        W88478  43.212  44.819  14.020
23219W        W88479   6.967   0.955  13.916
23220W        W88480  42.436  18.926   1.421
23221W        W88481  34.973  38.044   4.623
23222W        W88482  28.563  38.784   3.005
23223W        W88483  33.772  20.435  10.901
23224W        W88484   2.897  31.026  12.531
23225W        W88485  16.606   1.324  11.074
23226W        W88486  40.505  25.417  14.990
23227W        W88487  31.969  41.271  12.158
23228W        W88488   9.669  34.503  11.044
23229W        W88489   5.470  25.013  11.133
23230W        W88490   3.344  23.207   0.568
23231W        W88491  15.003  40.423   1.315
23232W        W88492  28.106   5.160   3.319
23233W        W88493   4.222  30.887   3.430
23234W        W88494  13.884  37.984   2.220
23235W        W88495  28.004   6.973   0.849
23236W        W88496   1.808  40.470  11.588
23237W        W88497  44.914  34.033  10.694
23238W        W88498  30.233  33.941   4.016
23239W        W88499  27.485  32.950   4.567
23240W        W88500  42.407  16.778  14.687
23241W        W88501   5.648  32.623   2.634
23242W        W88502   8.933  19.211  13.217
23243W        W88503  22.029   0.837   4.536
23244W        W88504  22.288  18.645  10.106
23245W        W88505  25.932  34.101   0.523
23246W        W88506   9.807  34.870  14.889
23247W        W88507  15.324  17.567   2.788
23248W        W88508  14.379  26.595  11.130
23249W        W88509  17.653  39.528   2.551
23250W        W88510  28.926  26.913  10.586
23251W        W88511  31.037  32.296   0.860
23252W        W88512   2.773   4.658   2.214
23253W        W88513  32.361  18.821  12.989
23254W        W88514   4.217  36.994   1.657
23255W        W88515  38.404   3.233  13.263
23256W        W88516  29.517   6.579   0.293
23257W        W88517  23.608  27.684  12.956
23258W        W88518  41.544  32.558   4.334
23259W        W88519  34.651  10.620  12.420
23260W        W88520  24.585  11.455   3.754
23261W        W88521  28.244   3.438  11.152
23262W        W88522  16.986   9.801   0.755
23263W        W88523  11.734  40.070  14.286
23264W        W88524  36.576   4.717  11.714
23265W        W88525  38.115  36.056  12.877
23266W        W88526  12.234   3.323   4.532
23267W        W88527  10.978   0.956   0.847
23268W        W88528  37.044  30.871   4.359
23269W        W88529   8.618  30.545   2.371
23270W        W88530  15.354   8.822  14.289
23271W        W88531  38.762  21.600   2.775
23272W        W88532  13.276  34.981   0.638
23273W        W88533  11.219  39.982  11.570
23274W        W88534  13.367  22.762   2.324
23275W        W88535  15.804   4.865   4.960
23276W        W88536  23.070  34.500   3.294
23277W        W88537  44.921   5.520  12.976
23278W        W88538  32.846  31.073  10.635
23279W        W88539   2.484  16.135  11.574
23280W        W88540  40.813   9.254   2.118
23281W        W88541  35.571  21.493  14.561
23282W        W88542  14.591  20.669   4.732
23283W        W88543  35.323   1.751   2.160
23284W        W88544  39.630  17.564  10.760
23285W        W88545  15.113   2.843   2.270
23286W        W88546  10.753  29.010  14.926
23287W        W88547  44.889  24.131  10.896
23288W        W88548   1.405  26.494  12.067
23289W        W88549   4.282  30.001   3.123
23290W        W88550  34.872  37.226  11.511
23291W        W88551  35.112  14.477   4.212
23292W        W88552  42.737  34.585  12.758
23293W        W88553  14.467  12.686  12.249
23294W        W88554  36.569  20.107   4.879
23295W        W88555  40.431   0.775   0.365
23296W        W88556   3.162  22.557   1.970
23297W        W88557  15.592   1.513   4.791
23298W        W88558   9.959   8.720  12.540
23299W        W88559  28.989  29.471   3.216
23300W        W88560  13.275   6.675  13.953
23301W        W88561  29.045  21.815   1.902
23302W        W88562  41.854  14.953  12.927
23303W        W88563   1.306  24.586  11.070
23304W        W88564  12.591  12.124  11.384
23305W        W88565  25.546  13.230   4.026
23306W        W88566  16.737  26.269   1.733
23307W        W88567  37.503  18.652   4.534
23308W        W88568  21.706  30.226  11.581
23309W        W88569  33.080   2.713  13.777
23310W        W88570   6.772  18.784  12.850
23311W        W88571  12.786  15.083   3.059
23312W        W88572  17.302  35.589   2.429
23313W        W88573  23.321   4.977   4.417
23314W        W88574  24.967  16.268   2.282
23315W        W88575  44.452  22.756  14.470
23316W        W88576  36.140  32.036   4.118
23317W        W88577  34.997  38.458  12.535
23318W        W88578  40.503   5.028  13.495
23319W        W88579   6.892  40.517   4.699
23320W        W88580  42.945  24.096   1.651
23321W        W88581  33.430  14.829  14.917
23322W        W88582  16.678  11.307   2.685
23323W        W88583  40.026  31.630  14.479
23324W        W88584   9.115  33.932   4.626
23325W        W88585  33.006   0.244   3.019
23326W        W88586  14.258   7.158   0.857
23327W        W88587  22.125  20.206  13.056
23328W        W88588  15.300  20.251   4.003
23329W        W88589  30.135  32.418   1.626
23330W        W88590  38.155  44.910  12.788
23331W        W88591  22.710  41.960  14.743
23332W        W88592  31.040  14.056   0.832
23333W        W88593   2.445   2.358   0.234
23334W        W88594  31.841  24.494   1.693
23335W        W88595  21.799   1.786   1.116
23336W        W88596  12.242  36.299  11.151
23337W        W88597  44.791  44.932   4.233
23338W        W88598  34.993  41.794   3.058
23339W        W88599  32.988   3.417  12.972
23340W        W88600  10.690  40.464  11.622
23341W        W88601   1.991  41.364   1.992
23342W        W88602  12.771   5.009   4.095
23343W        W88603  40.410  26.038  12.533
23344W        W88604  39.541  33.599   2.275
23345W        W88605   6.879   9.323  14.286
23346W        W88606  21.658  25.225   0.818
23347W        W88607  15.344  44.361   4.822
23348W        W88608  14.032   2.039   1.293
23349W        W88609  38.217  10.188  11.207
23350W        W88610  43.339  36.097  12.082
23351W        W88611  31.231  29.634   1.859
23352W        W88612  11.500  30.879  14.321
23353W        W88613  16.199   4.380  10.830
23354W        W88614  19.682  24.616  12.479
23355W        W88615  20.807  17.051   0.434
23356W        W88616   4.309  18.704  14.814
23357W        W88617   0.223  13.239   2.658
23358W        W88618   5.155  13.569  13.490
23359W        W88619  36.362  25.826   1.035
23360W        W88620  30.016  16.205   4.592
23361W        W88621  19.364  34.359   2.284
23362W        W88622  22.469  34.045  14.316
23363W        W88623  17.355   3.804  12.095
23364W        W88624  36.875  15.544  11.296
23365W        W88625  38.401   7.574  14.316
23366W        W88626   0.515  16.865   1.888
23367W        W88627   0.065  22.129   2.370
23368W        W88628  31.078  43.236   1.700
23369W        W88629  44.721   9.404  11.037
23370W        W88630  18.607  12.169   0.727
23371W        W88631  10.605   0.380   2.081
23372W        W88632  20.873  43.548   0.360
23373W        W88633  22.955  41.487  11.635
23374W        W88634  43.883  34.700  11.445
23375W        W88635  25.834  39.401  14.927
23376W        W88636   8.268  20.522  13.145
23377W        W88637  33.804  12.618   4.253
23378W        W88638  10.109   6.767  12.853
23379W        W88639  28.576  40.852   1.852
23380W        W88640   8.771   2.734  13.436
23381W        W88641  35.752  14.041   2.840
23382W        W88642  38.386   9.655  14.287
23383W        W88643   1.126  14.343   1.254
23384W        W88644  28.232  40.741  10.742
23385W        W88645  13.910  13.693  14.830
23386W        W88646  40.467  32.487   1.826
23387W        W88647  38.537  15.460   4.903
23388W        W88648  28.614  11.164   3.610
23389W        W88649  38.017  12.069   0.731
23390W        W88650   7.339  18.506   4.302
23391W        W88651  35.448  25.923   3.129
23392W        W88652  26.285  43.852   4.204
23393W        W88653   9.983  20.670   4.216
23394W        W88654  20.606  19.607   0.279
23395W        W88655  42.825  23.698   1.957
23396W        W88656  43.478  11.781   0.177
23397W        W88657  25.383  21.082  12.598
23398W        W88658  26.977   2.529   4.009
23399W        W88659  40.240  29.022  10.613
23400W        W88660   4.240  17.179   1.744
23401W        W88661  32.869   8.914   1.860
23402W        W88662   5.006  24.254  11.130
23403W        W88663  41.328   9.209   2.008
23404W        W88664  38.512  12.160   3.693
23405W        W88665  28.048  20.521  10.629
23406W        W88666  14.069   1.783  12.595
23407W        W88667  14.834  43.427  12.059
23408W        W88668  41.933  44.915  14.781
23409W        W88669  44.542  29.855   3.249
23410W        W88670   5.381  29.523   4.652
23411W        W88671  28.065  15.641   3.393
23412W        W88672  29.790  19.132   2.753
23413W        W88673   7.907  41.994   3.179
23414W        W88674  22.186  23.631  12.349
23415W        W88675  11.418  22.541   0.543
23416W        W88676  10.075   8.366   2.247
23417W        W88677   4.409  44.805   2.304
23418W        W88678  34.102  17.530   1.711
23419W        W88679  37.595  20.547   0.239
23420W        W88680  34.453  17.846  12.172
23421W        W88681  42.334  20.121   0.356
23422W        W88682  23.196   1.309  12.059
23423W        W88683  30.631  20.001   0.941
23424W        W88684  13.790  35.890   3.715
23425W        W88685  21.323   4.423  12.058
23426W        W88686  35.550  12.067   4.976
23427W        W88687   3.937  40.637  12.139
23428W        W88688  32.055  10.943   2.741
23429W        W88689  44.515   0.947  13.945
23430W        W88690   5.749  39.625  13.522
23431W        W88691  25.167  26.599  14.179
23432W        W88692  20.366   1.264   2.358
23433W        W88693   4.305   8.065  14.763
23434W        W88694   4.766  33.036   0.083
23435W        W88695  21.516  39.083   3.873
23436W        W88696   6.341  19.000  13.052
23437W        W88697   4.543  18.228  13.589
23438W        W88698  16.261  36.585  12.876
23439W        W88699  35.915  28.639  14.915
23440W        W88700  32.675   7.500  12.457
23441W        W88701  18.688  34.393   3.274
23442W        W88702  15.992   3.953  11.555
23443W        W88703  27.780   8.775  10.140
23444W        W88704   1.296   3.208   1.942
23445W        W88705   1.181   7.727   0.827
23446W        W88706  14.037  24.058  12.591
23447W        W88707  18.014  34.971  13.902
23448W        W88708  38.557  37.516   1.952
23449W        W88709   5.941  22.601   4.434
23450W        W88710  33.396   4.771   2.260
23451W        W88711  15.863  16.738  11.614
23452W        W88712  13.539  41.303  12.994
23453W        W88713  17.325  34.430  11.574
23454W        W88714  18.713  37.953   3.316
23455W        W88715   9.773  17.575   4.770
23456W        W88716  27.932   3.349  12.459
23457W        W88717  21.730   5.799  11.510
23458W        W88718  40.695   6.496  13.057
23459W        W88719  32.829  36.381  11.210
23460W        W88720  27.539  10.361   4.127
23461W        W88721  13.863  11.770  10.709
23462W        W88722  25.885   5.192   5.370
23463W        W88723  21.924  17.732   2.912
23464W        W88724  17.553   1.752  13.543
23465W        W88725   3.357  19.096   1.894
23466W        W88726   8.362   0.961   3.344
23467W        W88727  30.185   0.518   2.042
23468W        W88728  26.411  26.766   1.255
23469W        W88729  16.575  16.890   1.988
23470W        W88730  15.193  36.677  12.120
23471W        W88731  37.356   3.834   3.620
23472W        W88732  38.881  37.250   5.086
23473W        W88733  10.103  39.782   4.255
23474W        W88734  14.727  42.828  11.993
23475W        W88735  34.106  35.564  14.703
23476W        W88736  21.462  27.484   4.525
23477W        W88737  27.359  14.638  11.418
23478W        W88738  14.758   7.435   2.786
23479W        W88739  20.889  19.053  10.579
23480W        W88740  23.361  14.257   4.517
23481W        W88741   6.699   5.864   4.239
23482W        W88742  27.230  11.225   3.171
23483W        W88743  16.295  22.647   0.444
23484W        W88744  16.214   5.257  11.504
23485W        W88745  29.751  44.715   1.498
23486W        W88746  41.616  14.869  12.480
23487W        W88747  38.244   4.931  10.829
23488W        W88748  34.524   6.235   0.538
23489W        W88749  18.503  31.785  13.668
23490W        W88750  23.998  27.977  13.111
23491W        W88751   5.906  34.662   3.743
23492W        W88752  14.652  16.667  14.991
23493W        W88753  43.879  14.018  14.035
23494W        W88754  37.004  11.627   2.309
23495W        W88755  38.219  43.644  12.934
23496W        W88756   7.984  13.199   3.623
23497W        W88757  18.780  23.073  12.367
23498W        W88758  27.860  44.090  10.699
23499W        W88759  17.697  22.656  13.144
23500W        W88760   2.049   8.236  11.213
23501W        W88761  12.050  19.531   0.507
23502W        W88762   2.213  15.886  10.218
23503W        W88763  41.694   5.291   3.282
23504W        W88764  19.229  20.283  12.531
23505W        W88765   7.434  34.444   0.217
23506W        W88766  27.400  19.593  14.801
23507W        W88767  23.950   6.686  12.527
23508W        W88768  38.807  29.164   3.551
23509W        W88769  36.003  35.170  13.076
23510W        W88770  26.420   1.868  10.303
23511W        W88771  20.134  41.065  12.914
23512W        W88772  12.722  24.776  10.283
23513W        W88773  23.839   9.813   4.430
23514W        W88774  35.645   0.468   2.312
23515W        W88775  37.050  34.448   4.940
23516W        W88776   6.734  21.504   5.053
23517W        W88777   6.267  26.923   5.339
23518W        W88778   4.378  33.600   3.883
23519W        W88779  44.292   2.207   2.912
23520W        W88780   0.371  34.440  12.323
23521W        W88781   6.429  40.133   1.165
23522W        W88782  20.744  34.477  13.379
23523W        W88783  18.684  43.458   1.867
23524W        W88784  10.617  17.630   1.788
23525W        W88785  33.440  25.498  13.970
23526W        W88786  27.895  29.919  12.894
23527W        W88787  28.944  11.877  11.531
23528W        W88788  32.543  31.995  13.262
23529W        W88789  39.337  23.312   3.846
23530W        W88790  34.975  38.958  13.366
23531W        W88791  39.503   6.382  14.304
23532W        W88792  17.695  38.126   4.354
23533W        W88793  22.582  12.859   5.418
23534W        W88794  35.021  22.168  13.047
23535W        W88795  20.110   2.019  12.021
23536W        W88796  33.491  10.254  11.979
23537W        W88797  33.613  34.451  11.226
23538W        W88798  41.397  36.500  11.582
23539W        W88799  34.847  29.947   1.870
23540W        W88800  36.950  41.528  10.764
23541W        W88801  14.639  11.578  11.760
23542W        W88802   3.031   8.340  14.423
23543W        W88803  18.486   3.636   2.888
23544W        W88804  27.894  25.846  12.512
23545W        W88805  14.277  12.327  14.747
23546W        W88806  15.140  17.708   0.844
23547W        W88807   1.246  15.852  11.618
23548W        W88808  19.273  12.814  11.079
23549W        W88809  27.189  39.446   4.149
23550W        W88810  24.071  17.199   1.740
23551W        W88811  23.093  11.189   3.434
23552W        W88812  34.559   1.708   4.131
23553W        W88813   5.526  33.100  11.108
23554W        W88814  26.133   8.356  11.551
23555W        W88815  26.422  15.762   3.094
23556W        W88816  22.036   6.848  13.771
23557W        W88817   3.969   7.918   2.635
23558W        W88818  34.885  27.151   4.291
23559W        W88819  11.805  34.686  11.071
23560W        W88820  23.121   4.729  12.917
23561W        W88821  15.706  18.223  12.380
23562W        W88822   5.089  43.025   1.446
23563W        W88823  22.943  16.226  14.747
23564W        W88824  22.658  37.887   3.327
23565W        W88825  11.909  20.055  10.735
23566W        W88826  21.099  11.697   2.170
23567W        W88827   3.870  17.507   2.353
23568W        W88828  12.675  27.583   4.718
23569W        W88829  27.802  21.318   0.730
23570W        W88830  31.640  10.681   2.604
23571W        W88831  22.388  19.925  10.745
23572W        W88832  30.511  20.244  11.861
23573W        W88833  39.918  43.805  10.910
23574W        W88834  34.379  18.297  14.967
23575W        W88835  34.624  34.703   2.245
23576W        W88836  24.640  21.294   2.839
23577W        W88837  17.608  30.743  12.975
23578W        W88838  34.897  31.519   4.684
23579W        W88839  13.482   3.399   0.196
23580W        W88840   1.205  28.091  13.742
23581W        W88841  13.245  24.162   4.511
23582W        W88842  38.786   3.213   3.230
23583W        W88843  23.343  26.477  13.434
23584W        W88844  24.671  34.596  13.600
23585W        W88845  39.816   6.235   1.019
23586W        W88846  32.783  40.817   3.566
23587W        W88847  43.908  22.604  14.358
23588W        W88848  36.845  18.059  12.936
23589W        W88849   0.557  37.575  14.219
23590W        W88850  15.075  14.809   3.576
23591W        W88851   7.088  14.072   1.642
23592W        W88852  40.143  21.898  11.845
23593W        W88853  38.470   4.259   4.765
23594W        W88854  42.064  16.515   3.640
23595W        W88855   6.799  30.052  12.073
23596W        W88856  18.782   2.019  10.589
23597W        W88857  21.493   9.332   1.683
23598W        W88858  28.068  19.739   2.496
23599W        W88859  42.942   8.999   4.657
23600W        W88860   3.706  26.128  13.057
23601W        W88861  15.397  13.710  12.955
23602W        W88862   4.747   4.624  13.469
23603W        W88863   2.015  10.938  13.377
23604W        W88864  34.019  30.067  13.432
23605W        W88865  40.252  32.561  11.283
23606W        W88866  37.646  39.471  13.963
23607W        W88867  33.964  23.056  10.710
23608W        W88868  14.831   5.461  11.633
23609W        W88869  17.852  17.541   4.593
23610W        W88870  10.840  42.788   2.741
23611W        W88871   2.302  34.891   3.801
23612W        W88872  33.355  15.651   5.028
23613W        W88873   2.388  37.082   3.230
23614W        W88874  41.738  12.111   1.213
23615W        W88875  21.203  29.510  11.920
23616W        W88876   5.292  30.580  13.292
23617W        W88877  19.096   8.766  12.149
23618W        W88878  44.583  10.130   2.389
23619W        W88879  40.585  41.995  14.537
23620W        W88880   8.645  39.003   1.645
23621W        W88881  28.534  11.796   2.235
23622W        W88882  16.604   1.211  12.051
23623W        W88883   5.300  26.729   2.360
23624W        W88884  17.296  31.777  13.815
23625W        W88885  34.633   4.970  13.311
23626W        W88886  17.803  20.737  12.806
23627W        W88887  29.077  15.185  11.946
23628W        W88888  44.707   9.616   3.125
23629W        W88889  44.857   3.370   3.166
23630W        W88890  33.981   1.728  12.873
23631W        W88891  28.388  25.711  12.451
23632W        W88892  12.298  18.396  12.113
23633W        W88893  21.400  26.247   0.308
23634W        W88894  13.309  39.296   2.855
23635W        W88895  12.737  21.988  11.230
23636W        W88896  26.644  12.665   1.699
23637W        W88897  21.526   1.747   5.040
23638W        W88898  33.958  23.202   2.462
23639W        W88899  43.469  16.432   0.948
23640W        W88900   0.540   5.796   0.714
23641W        W88901  39.095   9.356  14.349
23642W        W88902  28.138  38.268   1.318
23643W        W88903   0.387  20.183   4.002
23644W        W88904  41.644  18.180   3.250
23645W        W88905  25.707  11.598  11.398
23646W        W88906   0.389  27.670  12.337
23647W        W88907  39.958   7.317   0.772
23648W        W88908  13.514   3.964   1.532
23649W        W88909  17.640  33.966   4.726
23650W        W88910  22.497   9.216   1.304
23651W        W88911  31.668  17.890   2.854
23652W        W88912  44.000   0.751   1.711
23653W        W88913  12.064  36.116   0.203
23654W        W88914  37.557  43.555   2.869
23655W        W88915  28.144  37.003   2.046
23656W        W88916  15.497  36.816   4.403
23657W        W88917  24.274  27.429   0.879
23658W        W88918   5.706  25.005   1.036
23659W        W88919  18.229  37.477  13.880
23660W        W88920  36.040  44.478   0.067
23661W        W88921  10.274   9.176   2.798
23662W        W88922  34.480  17.036   2.842
23663W        W88923  22.397  39.214  10.879
23664W        W88924  23.989  11.665  10.735
23665W        W88925  20.502  13.689  14.335
23666W        W88926   0.238  18.797  14.433
23667W        W88927   1.719  28.466   4.513
23668W        W88928  17.500  41.619  11.458
23669W        W88929  27.711  18.765  12.122
23670W        W88930  36.297  31.218  13.099
23671W        W88931   1.796  43.803  12.169
23672W        W88932  14.023   1.515  13.971
23673W        W88933  24.148   0.881  10.965
23674W        W88934  12.700  27.916   1.598
23675W        W88935  15.275   7.445   1.391
23676W        W88936  43.341  29.568  13.242
23677W        W88937  11.780  38.352   0.051
23678W        W88938  25.245   0.389   3.562
23679W        W88939  30.459  33.910  11.095
23680W        W88940  31.659   6.865  10.637
23681W        W88941  43.534  20.691  13.838
23682W        W88942   4.240   1.038  13.881
23683W        W88943  28.045  20.701  12.495
23684W        W88944  31.352  32.542   4.182
23685W        W88945   1.691  35.881  12.458
23686W        W88946  23.645  39.810  11.592
23687W        W88947  22.570  19.224  11.390
23688W        W88948  32.500   5.351   3.713
23689W        W88949  35.428  37.883   0.031
23690W        W88950  19.714   6.451   2.846
23691W        W88951  37.324  16.314   2.813
23692W        W88952  28.433   8.304   2.701
23693W        W88953  10.486  32.663  11.783
23694W        W88954   2.536  12.484   4.566
23695W        W88955  24.727  44.377  10.259
23696W        W88956  38.095  18.309  14.335
23697W        W88957  22.574   9.577   3.205
23698W        W88958  22.989   4.770  12.402
23699W        W88959  30.441   8.637   1.325
23700W        W88960  17.512   8.333  13.103
23701W        W88961  22.484  23.636  13.275
23702W        W88962   0.977   1.831   0.844
23703W        W88963  18.346  17.813  11.006
23704W        W88964  29.576  30.518  13.539
23705W        W88965  25.995  28.420  13.949
23706W        W88966  20.105  35.811   4.235
23707W        W88967  26.716   5.699   0.764
23708W        W88968  13.793  40.923   0.858
23709W        W88969  30.056  29.177   2.740
23710W        W88970   7.659  34.962   1.539
23711W        W88971  22.577  19.848  12.028
23712W        W88972  31.906  44.896  12.031
23713W        W88973  25.567  33.282   4.158
23714W        W88974   7.606   2.968  11.125
23715W        W88975  33.426  42.613   1.834
23716W        W88976  20.377  32.369  11.467
23717W        W88977   3.248   8.667   0.302
23718W        W88978  12.283   6.342   2.590
23719W        W88979  40.922  39.930  14.363
23720W        W88980  12.761  19.724  13.760
23721W        W88981  37.073   0.205  11.305
23722W        W88982  35.524  30.973   2.392
23723W        W88983  17.048  44.516  11.200
23724W        W88984  33.873  25.086   9.982
23725W        W88985  43.420  28.445   1.796
23726W        W88986  36.364   6.240   4.188
23727W        W88987  13.341   2.910   2.340
23728W        W88988  30.979  22.331   0.637
23729W        W88989  24.141  11.699   0.235
23730W        W88990  37.103  22.284   1.179
23731W        W88991  33.041   6.381   4.338
23732W        W88992   2.725  11.142   1.154
23733W        W88993  39.777  26.041   4.271
23734W        W88994  36.703  40.129  13.991
23735W        W88995  27.653  44.905   0.309
23736W        W88996  36.077   3.259   2.699
23737W        W88997   0.029   1.414   1.651
23738W        W88998  43.917  15.168   9.939
23739W        W88999   1.549  42.322  14.970
23740W        W89000  15.276  15.759  12.156
23741W        W89001  30.311  20.381   3.681
23742W        W89002  18.858  14.186   1.756
23743W        W89003  40.917   3.222   9.997
23744W        W89004  37.682  37.338   4.191
23745W        W89005   2.320  22.179  14.153
23746W        W89006  20.302   6.258  11.666
23747W        W89007  42.342  31.220   1.291
23748W        W89008  39.307  25.163   1.541
23749W        W89009  11.107  39.940   0.673
23750W        W89010  10.742  29.296   2.420
23751W        W89011  35.648  20.344  11.184
23752W        W89012  35.952  29.086   2.148
23753W        W89013  23.175  44.662   3.086
23754W        W89014   6.951  26.142  11.615
23755W        W89015  27.193  18.651  14.852
23756W        W89016  42.115  41.450   3.528
23757W        W89017  31.220  34.481  12.435
23758W        W89018  28.437  41.295   2.073
23759W        W89019   8.934  35.891   2.230
23760W        W89020  22.531  26.454   1.580
23761W        W89021  36.028  22.015  14.353
23762W        W89022  36.924   4.173  10.677
23763W        W89023  39.034   0.288  12.485
23764W        W89024  21.625  29.632  14.054
23765W        W89025  11.607  19.991  13.904
23766W        W89026  12.035  22.723   1.728
23767W        W89027  42.169   4.334   0.448
23768W        W89028   3.954  19.222  12.624
23769W        W89029  12.908   1.754   2.835
23770W        W89030  11.886  41.293  13.727
23771W        W89031  31.725  17.983   0.347
23772W        W89032  24.003  27.467  10.756
23773W        W89033  19.733  42.780   0.164
23774W        W89034   0.826   4.932   0.735
23775W        W89035  33.061  18.502  12.060
23776W        W89036  23.774  27.570  14.429
23777W        W89037  14.660  36.594  14.767
23778W        W89038  35.664  29.063  14.271
23779W        W89039   8.076  30.086  12.431
23780W        W89040  43.945  26.825  14.035
23781W        W89041   4.361  31.887  11.399
23782W        W89042  12.827  36.579  12.916
23783W        W89043  38.557   6.877  10.648
23784W        W89044  38.442  23.588  14.485
23785W        W89045  35.621  26.522  10.093
23786W        W89046  27.545  12.253  11.953
23787W        W89047   2.217  22.191  11.689
23788W        W89048   3.724   8.867  10.899
23789W        W89049  32.580   5.930  13.034
23790W        W89050  23.730   9.969   0.396
23791W        W89051  22.196  41.102   2.651
23792W        W89052   1.232  19.106  12.500
23793W        W89053  34.003  28.116  13.561
23794W        W89054  19.292  30.481   1.244
23795W        W89055   7.959  41.290   0.236
23796W        W89056  18.225  24.118  13.093
23797W        W89057  36.069  18.533  11.117
23798W        W89058  11.418  44.483  11.053
23799W        W89059  41.327  34.489  14.376
23800W        W89060  30.373  31.557  10.130
23801W        W89061  20.204  43.225   0.946
23802W        W89062  27.202  31.883  14.411
23803W        W89063  37.276   9.614  14.801
23804W        W89064  34.369  13.702   3.400
23805W        W89065  20.511  26.891  13.020
23806W        W89066  10.865  39.509   0.517
23807W        W89067  23.637  12.789  10.705
23808W        W89068  17.071  21.130  10.462
23809W        W89069  34.920  13.617   3.286
23810W        W89070  30.981  13.652  13.006
23811W        W89071  13.502  38.440   2.818
23812W        W89072  17.318  18.950   9.866
23813W        W89073  21.246  42.935  13.034
23814W        W89074  28.166   1.322  12.507
23815W        W89075  34.815   0.542  14.811
23816W        W89076  21.301  22.434  11.656
23817W        W89077  16.149   1.276   0.374
23818W        W89078  19.384  15.117  12.503
23819W        W89079  10.979   4.712   0.375
23820W        W89080   1.048  33.052  12.979
23821W        W89081  37.747  41.366   4.873
23822W        W89082  38.375   1.965   2.191
23823W        W89083   6.154  25.652   2.208
23824W        W89084  30.838   8.806   1.652
23825W        W89085  21.792  24.165   3.944
23826W        W89086   0.859  18.348   3.365
23827W        W89087  23.166  27.091  14.014
23828W        W89088  38.832  40.045  14.880
23829W        W89089  15.009  34.011   4.633
23830W        W89090  31.476   4.388  12.661
23831W        W89091   0.934  28.993   2.208
23832W        W89092  36.859  14.614   0.804
23833W        W89093  16.998  42.360   0.207
23834W        W89094  18.720  38.262   0.723
23835W        W89095  27.567   9.322   4.742
23836W        W89096  22.342  26.770  13.330
23837W        W89097  13.158   2.252   4.614
23838W        W89098   1.767  43.328   1.529
23839W        W89099  40.773   0.775   2.748
23840W        W89100  17.781   2.542   3.985
23841W        W89101  42.170  29.251   2.523
23842W        W89102  23.406  10.684   2.757
23843W        W89103  16.137  24.912   0.521
23844W        W89104  17.096  24.626   3.603
23845W        W89105  22.537  33.720   2.643
23846W        W89106  30.326  41.272   2.235
23847W        W89107  21.170  33.576   1.863
23848W        W89108  38.506  20.735   0.116
23849W        W89109   4.752  42.354  14.858
23850W        W89110  44.381  23.505  14.856
23851W        W89111   9.473  18.747   1.913
23852W        W89112  21.964  15.044   0.325
23853W        W89113  31.979  30.030   1.441
23854W        W89114  33.426  13.900  12.156
23855W        W89115  11.907  23.763  12.919
23856W        W89116  14.684  35.837  12.865
23857W        W89117  42.533  35.700   4.452
23858W        W89118  44.469  36.853  14.466
23859W        W89119  42.834  27.604   0.386
23860W        W89120   0.794  34.818  11.034
23861W        W89121  19.842  34.380  11.694
23862W        W89122  17.672  18.173  14.827
23863W        W89123  40.167   1.544  11.090
23864W        W89124   5.531  10.238   1.233
23865W        W89125  39.310  25.208  10.542
23866W        W89126  35.635   3.038  11.167
23867W        W89127  39.972   4.740   1.276
23868W        W89128  17.491  18.980   3.106
23869W        W89129  13.573   4.690   2.632
23870W        W89130   4.374   2.817  14.398
23871W        W89131   0.517  24.252  11.270
23872W        W89132  35.653  18.705  14.725
23873W        W89133  10.139   9.645   3.480
23874W        W89134  22.481  17.489  10.656
23875W        W89135   1.694  27.495   4.272
23876W        W89136  30.485  11.355  11.180
23877W        W89137   8.323   0.892   1.988
23878W        W89138  32.764  28.621   4.982
23879W        W89139   2.445  14.061   3.217
23880W        W89140   2.248  19.685   1.221
23881W        W89141  19.162  20.731  14.879
23882W        W89142  25.226  42.912  11.140
23883W        W89143  38.996  39.358   0.291
23884W        W89144  34.404  38.966  10.635
23885W        W89145   8.587  35.593  14.004
23886W        W89146  39.051  10.353  14.436
23887W        W89147   5.164  15.135  11.185
23888W        W89148  31.134  11.300   3.066
23889W        W89149   8.273  40.163   2.252
23890W        W89150  25.643   8.741   9.959
23891W        W89151  32.597   0.278  11.936
23892W        W89152   6.324   5.312   0.810
23893W        W89153  44.220  10.434   1.111
23894W        W89154  26.470   9.704  13.861
23895W        W89155  13.667  23.364   0.781
23896W        W89156  12.868   6.416   0.884
23897W        W89157   5.693  25.679  14.200
23898W        W89158  12.140  30.879   0.670
23899W        W89159   9.805  17.767   4.150
23900W        W89160  14.241  37.293  14.417
23901W        W89161  33.040  19.882   1.984
23902W        W89162  29.064   3.285   2.726
23903W        W89163  43.778   9.168   4.353
23904W        W89164  35.869  31.461  11.437
23905W        W89165   3.710   6.284  13.714
23906W        W89166   0.059  14.171   1.753
23907W        W89167  32.642  13.234  14.942
23908W        W89168  13.863  37.468   2.409
23909W        W89169  12.873   1.884   5.083
23910W        W89170  42.834   1.844  10.701
23911W        W89171  27.157   8.128   3.116
23912W        W89172  21.373  40.234   0.785
23913W        W89173  14.211  39.535  10.717
23914W        W89174  12.300  23.928  13.615
23915W        W89175  15.355  29.598   1.268
23916W        W89176  10.624  15.674  13.996
23917W        W89177   0.148  36.570   4.153
23918W        W89178  37.912   4.066   0.871
23919W        W89179   1.285  22.437   2.454
23920W        W89180  33.057  41.311   1.797
23921W        W89181  24.622   9.953   1.979
23922W        W89182  37.099  33.818   4.143
23923W        W89183  26.422  12.059  10.576
23924W        W89184   8.283  33.933   4.287
23925W        W89185   9.252  37.532  11.994
23926W        W89186  11.374  42.833  11.318
23927W        W89187  27.921  33.877   4.169
23928W        W89188  22.432  30.688  12.087
23929W        W89189  38.065  10.106   3.402
23930W        W89190  33.561  19.144   1.830
23931W        W89191   4.932  37.465  12.407
23932W        W89192  39.878  42.837  11.923
23933W        W89193  24.083   9.298  11.143
23934W        W89194  42.911  11.154   2.726
23935W        W89195  13.231  24.113   2.419
23936W        W89196  13.995  12.006  11.142
23937W        W89197   9.550  38.746   1.822
23938W        W89198   7.478   8.783  13.536
23939W        W89199  35.236   0.845  10.960
23940W        W89200  13.313  29.772  13.863
23941W        W89201  31.518  40.474  11.146
23942W        W89202  32.137  25.167   0.959
23943W        W89203  41.731  12.508   5.072
23944W        W89204  19.176  20.695  11.591
23945W        W89205  43.379   9.731   5.514
23946W        W89206  32.143  13.891   4.280
23947W        W89207  12.275  22.065   2.693
23948W        W89208  44.408   4.411  10.196
23949W        W89209  26.155  24.007  10.759
23950W        W89210  15.233   2.517  12.344
23951W        W89211  16.816  41.841   4.802
23952W        W89212  13.370  29.008  14.755
23953W        W89213  30.040  29.569   4.819
23954W        W89214  36.013   6.874   4.314
23955W        W89215  19.731  11.043   1.079
23956W        W89216  32.205  14.186   3.030
23957W        W89217  30.171  30.200  14.812
23958W        W89218   8.062  21.670  11.727
23959W        W89219  30.806  37.120   4.293
23960W        W89220  13.043  30.488  10.655
23961W        W89221   3.875  29.574  14.741
23962W        W89222  31.471  24.196  11.563
23963W        W89223  18.268  16.845  14.531
23964W        W89224   9.862  31.524   1.744
23965W        W89225  11.287  14.252  14.037
23966W        W89226   5.255   6.452   0.713
23967W        W89227  37.422  26.382  12.557
23968W        W89228   1.289  31.861   1.420
23969W        W89229  20.933  36.344  13.343
23970W        W89230   8.956  34.981  12.519
23971W        W89231   2.547  40.991   3.308
23972W        W89232  19.830  18.182   2.813
23973W        W89233  14.089  39.898   3.714
23974W        W89234  38.751  28.845  13.459
23975W        W89235  44.347  38.691  10.290
23976W        W89236  13.730  29.977  13.565
23977W        W89237  27.023  42.512   1.399
23978W        W89238  43.737  18.597  12.866
23979W        W89239   1.431  19.223   3.254
23980W        W89240  25.995  19.002  13.528
23981W        W89241  31.947  36.534  14.760
23982W        W89242  24.043  36.840  12.333
23983W        W89243   5.175  11.325  11.648
23984W        W89244   2.248  24.703   1.495
23985W        W89245  38.395  32.109   4.921
23986W        W89246  42.834  37.019   3.348
23987W        W89247  14.512  17.403  13.358
23988W        W89248  20.232   4.384   2.820
23989W        W89249  10.343  34.896  11.433
23990W        W89250  28.557  24.970   4.586
23991W        W89251  43.943  27.655  12.693
23992W        W89252   3.499  23.068  13.548
23993W        W89253  19.540  17.728   1.494
23994W        W89254  21.023  29.080   2.798
23995W        W89255  12.288  17.509  12.114
23996W        W89256   8.295   6.344   0.251
23997W        W89257  37.048  30.787  13.485
23998W        W89258  23.313  14.253   2.243
23999W        W89259  20.791  25.027   0.249
24000W        W89260  38.454   5.962   2.444
24001W        W89261  31.187   5.934  13.039
24002W        W89262  34.031  34.473  14.292
24003W        W89263   5.000   8.225   0.570
24004W        W89264  42.167  30.543  12.440
24005W        W89265  19.282   1.288   2.359
24006W        W89266  34.837  21.514  13.546
24007W        W89267  30.568  14.035  13.190
24008W        W89268   2.216  27.396   4.167
24009W        W89269   2.882  32.435  12.533
24010W        W89270  38.352  18.481   4.108
24011W        W89271   2.643  27.382   1.699
24012W        W89272  31.589  11.724   0.979
24013W        W89273  41.527  19.919   2.784
24014W        W89274   1.539   6.630   2.493
24015W        W89275  21.029   5.993   1.447
24016W        W89276  29.400  16.375  14.775
24017W        W89277  15.686  12.794   4.529
24018W        W89278   5.667  40.599  12.115
24019W        W89279  32.663  26.699   4.042
24020W        W89280  13.120  20.257  14.430
24021W        W89281  23.573  12.079   4.068
24022W        W89282  25.688   1.222   1.736
24023W        W89283  39.591  21.816   2.302
24024W        W89284  30.011  19.764   0.729
24025W        W89285  27.546  26.398   1.730
24026W        W89286   4.581   8.203  11.331
24027W        W89287  23.549  41.251  13.743
24028W        W89288   8.605   8.304   0.783
24029W        W89289  31.126  27.090  14.493
24030W        W89290   3.957   6.249   3.714
24031W        W89291  44.486  15.653   1.770
24032W        W89292  29.651  17.102   1.210
24033W        W89293   3.639   3.202  14.371
24034W        W89294  19.740  34.764   5.033
24035W        W89295  27.713  36.233   1.620
24036W        W89296  29.997  22.256   1.723
24037W        W89297  42.997  27.895   3.235
24038W        W89298  26.586  30.382   2.794
24039W        W89299  10.420   3.947  14.427
24040W        W89300  23.258  26.671   3.140
24041W        W89301  42.736  26.901  14.789
24042W        W89302   8.375  23.438   2.252
24043W        W89303  12.644  34.070  11.201
24044W        W89304  40.417  15.251   3.529
24045W        W89305  26.633  12.293  14.877
24046W        W89306   2.501  29.696   2.723
24047W        W89307  34.589   3.322  12.534
24048W        W89308  37.563  31.480  12.840
24049W        W89309  36.887   2.724  14.387
24050W        W89310  33.110  33.415  11.394
24051W        W89311  10.178  29.122  11.267
24052W        W89312  35.842  26.872  11.448
24053W        W89313  35.518  40.462   1.580
24054W        W89314  19.153  19.158   0.842
24055W        W89315  19.366  18.667  12.825
24056W        W89316   1.468   4.892  14.749
24057W        W89317  16.762   3.491   4.151
24058W        W89318  44.428  40.422   1.693
24059W        W89319  18.555  38.927  12.580
24060W        W89320  23.502  18.525   2.731
24061W        W89321   8.244  42.008  11.058
24062W        W89322  34.153  34.413   1.311
24063W        W89323   2.825  16.345  10.743
24064W        W89324  43.912  34.323   2.443
24065W        W89325  25.155  39.514   0.183
24066W        W89326  26.917   2.906   0.777
24067W        W89327  35.359   6.790  11.041
24068W        W89328  35.162  30.729  13.469
24069W        W89329  11.921  28.468   4.635
24070W        W89330  37.918  42.159   1.170
24071W        W89331  27.425  11.703   2.417
24072W        W89332  22.147  20.965   4.609
24073W        W89333  18.561   6.660  11.620
24074W        W89334  44.355   4.975   3.241
24075W        W89335  24.175  13.951  13.725
24076W        W89336  36.492  33.045   2.305
24077W        W89337  18.883  31.952  14.609
24078W        W89338  23.779   1.870   4.636
24079W        W89339  26.992  43.354  13.068
24080W        W89340   6.338  36.688  11.174
24081W        W89341  22.229  31.053   0.653
24082W        W89342  31.103   9.673   4.687
24083W        W89343  28.652  38.871   3.896
24084W        W89344  15.596  34.396  13.979
24085W        W89345  43.360  14.238   0.256
24086W        W89346  44.905  39.602  10.746
24087W        W89347   1.713   2.419  12.099
24088W        W89348  36.596  33.502   0.414
24089W        W89349  18.916  28.074  11.985
24090W        W89350  38.319  41.387   3.108
24091W        W89351  31.524  29.916  10.601
24092W        W89352  44.326  36.112  12.985
24093W        W89353  21.658  27.168  14.154
24094W        W89354   0.763  16.173   4.154
24095W        W89355  26.770   2.218  11.513
24096W        W89356  43.197  36.499   2.784
24097W        W89357  37.659   6.201   0.035
24098W        W89358  12.756  28.633   0.377
24099W        W89359  37.406  34.945  12.567
24100W        W89360  25.604   5.296  12.423
24101W        W89361  14.306   5.534   3.673
24102W        W89362  29.109   6.177  11.597
24103W        W89363   1.921   3.684   3.236
24104W        W89364  32.391  14.847   0.592
24105W        W89365  15.818  37.367   0.585
24106W        W89366  30.513  18.581  12.591
24107W        W89367  25.265  43.957  10.927
24108W        W89368  30.718  31.898   3.316
24109W        W89369  33.658  16.788   2.698
24110W        W89370  38.518  15.339   1.829
24111W        W89371  16.530   0.967   2.655
24112W        W89372  20.975  43.374   1.329
24113W        W89373   6.964  43.547   3.681
24114W        W89374   7.334  10.830   3.695
24115W        W89375  33.385  34.992   0.970
24116W        W89376   9.898  34.133  12.252
24117W        W89377  43.912  23.666  14.992
24118W        W89378  38.857  15.083   4.117
24119W        W89379  21.244  19.637  13.005
24120W        W89380  19.528  31.507  11.221
24121W        W89381   3.060  29.863  14.291
24122W        W89382   3.224  19.717  13.389
24123W        W89383  33.598   4.711  11.898
24124W        W89384   8.194  28.236  12.131
24125W        W89385  22.535   2.330   0.488
24126W        W89386  37.127  31.557  13.750
24127W        W89387   1.797   9.124  14.119
24128W        W89388   0.086   0.885   4.420
24129W        W89389   9.668  29.851   1.903
24130W        W89390   8.820  36.560   1.720
24131W        W89391  44.808  19.072   2.902
24132W        W89392  21.775   0.883   0.872
24133W        W89393  17.289   1.230   1.437
24134W        W89394  18.651   8.015   3.152
24135W        W89395  44.336   2.250  13.901
24136W        W89396   2.352  27.892   4.122
24137W        W89397  28.648  36.590   1.238
24138W        W89398  40.335  18.567  14.473
24139W        W89399   1.307  40.228   4.259
24140W        W89400  35.027  33.702   3.331
24141W        W89401  33.251   5.277  14.328
24142W        W89402  18.277  31.507   3.062
24143W        W89403  15.834  44.532  12.530
24144W        W89404  15.481  13.113   1.860
24145W        W89405   2.000  24.245   4.529
24146W        W89406   8.780  35.632   3.680
24147W        W89407  26.338   4.266   5.385
24148W        W89408  36.374   7.162   4.049
24149W        W89409   8.274  29.948   0.266
24150W        W89410  36.369  39.845   2.674
24151W        W89411  16.812   6.578  14.818
24152W        W89412  22.715   9.168   0.372
24153W        W89413  21.365  23.037   3.181
24154W        W89414  33.973  35.875   4.515
24155W        W89415  39.800  23.739   1.911
24156W        W89416   8.590  40.213   3.759
24157W        W89417  11.022  19.532  11.152
24158W        W89418  40.836  16.398   3.277
24159W        W89419  44.239  11.576   2.028
24160W        W89420   8.153  12.116   1.255
24161W        W89421  29.912  44.827   4.212
24162W        W89422  39.494  36.014   1.254
24163W        W89423  23.558  10.573   3.265
24164W        W89424  30.546  35.030  10.999
24165W        W89425  26.127  35.691   5.685
24166W        W89426  40.954  22.983   3.315
24167W        W89427   9.407  22.573  10.443
24168W        W89428  25.921   6.028   1.289
24169W        W89429  11.594  35.177   4.156
24170W        W89430  22.528  25.519   4.725
24171W        W89431  44.622  14.135   2.049
24172W        W89432  44.286  31.033   2.194
24173W        W89433  10.116  31.464  13.353
24174W        W89434  30.620  18.271   2.351
24175W        W89435  31.521  24.283   1.307
24176W        W89436  23.590  44.451  10.656
24177W        W89437  33.409  28.197  10.930
24178W        W89438  25.743  27.620  10.372
24179W        W89439   6.208  22.728  11.238
24180W        W89440  44.518  29.655   0.118
24181W        W89441  34.095   7.501   3.138
24182W        W89442  36.395  42.246   2.633
24183W        W89443  26.137  21.364  10.817
24184W        W89444  29.545  32.611   2.286
24185W        W89445  34.534   9.866   2.199
24186W        W89446  11.792  37.997   3.201
24187W        W89447  21.302  44.464  13.595
24188W        W89448  26.085  21.570  11.281
24189W        W89449  25.029  30.255  10.747
24190W        W89450  10.089  12.252   4.391
24191W        W89451  13.208  40.845  13.551
24192W        W89452  36.046  31.625  10.392
24193W        W89453  11.654  26.446   1.977
24194W        W89454  22.210  33.571   3.752
24195W        W89455   9.031   9.774   4.165
24196W        W89456  20.470   4.258   3.965
24197W        W89457  33.258  29.429  11.779
24198W        W89458  36.836  21.527  12.951
24199W        W89459  36.444  27.059   4.142
24200W        W89460   9.620  28.758   0.510
24201W        W89461  41.357  29.408   3.174
24202W        W89462   1.533  13.631  11.164
24203W        W89463   1.296   2.270   4.246
24204W        W89464  16.544  22.138   3.883
24205W        W89465  14.323  21.720  12.553
24206W        W89466  41.448  27.907   4.198
24207W        W89467  28.010   8.269   0.480
24208W        W89468  14.534   5.114   2.384
24209W        W89469  28.543  40.271   2.713
24210W        W89470  17.242  33.130  10.292
24211W        W89471  37.493  28.251  13.931
24212W        W89472  41.941  38.969   4.646
24213W        W89473  24.474  26.938  12.419
24214W        W89474  33.329  21.153   2.197
24215W        W89475  21.012  41.572   3.147
24216W        W89476  18.644  11.599  14.774
24217W        W89477  13.281  28.094  14.586
24218W        W89478  17.303  22.178  13.918
24219W        W89479  11.706  34.502  11.884
24220W        W89480   4.952  23.757  12.875
24221W        W89481  33.875  22.628  13.464
24222W        W89482  28.953  18.104   3.306
24223W        W89483  38.638  10.582  13.447
24224W        W89484  38.491  36.381   1.185
24225W        W89485  44.292  19.439  14.542
24226W        W89486  21.827  29.148  14.040
24227W        W89487  19.160  21.715  13.319
24228W        W89488  11.750  34.656   4.123
24229W        W89489  30.200  30.427  10.240
24230W        W89490  35.549  42.774  13.077
24231W        W89491  43.543  28.681   3.657
24232W        W89492  14.426  19.684   3.154
24233W        W89493  20.170  16.530   1.971
24234W        W89494  44.216   0.379  13.452
24235W        W89495   9.679  34.482   1.368
24236W        W89496  11.260  26.352   0.819
24237W        W89497  13.425   8.641  12.007
24238W        W89498  14.617  27.926   4.581
24239W        W89499   1.979   2.668   0.429
24240W        W89500  42.541   3.644  12.942
24241W        W89501  40.615  40.888  14.707
24242W        W89502  10.194  31.598   2.164
24243W        W89503  10.718  29.289   9.706
24244W        W89504  42.002   2.007   2.761
24245W        W89505  44.765  33.122  13.272
24246W        W89506  37.540  38.286  14.236
24247W        W89507  44.452  43.545  11.658
24248W        W89508   9.432  34.004   1.581
24249W        W89509   3.327  41.382   3.320
24250W        W89510  23.507  15.598  12.089
24251W        W89511   5.185  44.264  12.611
24252W        W89512   4.287  42.956   4.677
24253W        W89513   0.274  18.287   0.315
24254W        W89514  33.539  27.359  14.477
24255W        W89515  15.317  28.691   3.565
24256W        W89516  19.132  18.659  10.085
24257W        W89517  15.523   4.494  14.705
24258W        W89518   2.649  30.521   0.371
24259W        W89519  11.176  35.820  11.108
24260W        W89520  12.734  35.064   1.953
24261W        W89521   9.503  41.816  14.669
24262W        W89522  37.467  44.039   0.384
24263W        W89523  35.471  41.972   4.896
24264W        W89524  16.219  19.439  13.453
24265W        W89525  13.148  17.223  14.031
24266W        W89526  43.948  12.938   1.658
24267W        W89527  19.038  15.364   2.901
24268W        W89528  28.443  20.047   4.544
24269W        W89529  31.191   8.475   5.025
24270W        W89530  35.433  30.206  11.496
24271W        W89531  25.210   3.850  14.354
24272W        W89532  19.868  41.921   0.358
24273W        W89533  25.138  27.117   4.525
24274W        W89534  33.951  23.655  12.443
24275W        W89535  11.850  29.799   1.403
24276W        W89536  10.126  40.119   4.665
24277W        W89537   9.298  18.849   3.404
24278W        W89538  10.093  34.392  11.300
24279W        W89539  31.731  34.332  10.586
24280W        W89540  22.636  44.139  11.172
24281W        W89541  14.140   5.116  13.493
24282W        W89542  37.372  14.652   0.901
24283W        W89543  24.317   1.511   1.802
24284W        W89544   0.970  37.811   1.216
24285W        W89545  41.256  18.350  11.028
24286W        W89546  39.311   5.935   2.401
24287W        W89547   2.264   5.747  13.976
24288W        W89548   5.688  12.998  11.139
24289W        W89549  27.320  12.845   1.010
24290W        W89550   1.368  17.068  12.149
24291W        W89551   3.942   8.694   0.724
24292W        W89552  26.186   2.359   0.243
24293W        W89553  33.364  30.946   4.027
24294W        W89554  43.968  19.369  10.762
24295W        W89555  26.061  42.737  14.388
24296W        W89556   8.586  35.187  11.211
24297W        W89557  28.355   8.718   4.117
24298W        W89558  21.655  32.974  10.408
24299W        W89559  21.474   3.184  12.344
24300W        W89560  35.989  23.597   0.209
24301W        W89561  16.969  36.027   3.494
24302W        W89562  25.951  10.711   3.984
24303W        W89563  31.879  34.341  11.943
24304W        W89564  21.647  26.679   2.641
24305W        W89565  11.429  23.527  11.468
24306W        W89566  34.025  28.526   4.390
24307W        W89567  23.662   2.255  14.051
24308W        W89568  34.078  13.487  12.843
24309W        W89569  31.026  12.490   2.361
24310W        W89570  15.493  10.096   0.483
24311W        W89571  35.197  18.373  11.126
24312W        W89572  20.793   2.757   1.943
24313W        W89573  38.801  33.778  12.426
24314W        W89574  33.920   7.348  11.618
24315W        W89575  41.456  28.075  10.643
24316W        W89576  21.756  10.630   4.283
24317W        W89577  25.922   6.351  13.122
24318W        W89578   6.655  35.556  14.300
24319W        W89579  27.199   1.418  14.880
24320W        W89580  38.802  38.614   3.867
24321W        W89581  12.868  38.817  14.024
24322W        W89582  29.709  25.540  12.882
24323W        W89583  19.279  11.323   2.307
24324W        W89584  42.817  21.841   1.774
24325W        W89585   6.484  22.653   5.170
24326W        W89586  43.452  10.720  10.271
24327W        W89587  35.457   6.141  13.788
24328W        W89588  22.972   9.081   5.111
24329W        W89589  41.447  30.217  11.536
24330W        W89590  29.736  26.067  12.478
24331W        W89591   6.127  27.140  10.735
24332W        W89592  19.771  22.114   2.201
24333W        W89593  36.123   9.703   2.918
24334W        W89594  38.652  41.997   1.796
24335W        W89595   1.090  23.133  10.732
24336W        W89596  15.179  20.227  12.662
24337W        W89597   0.826  36.998   3.189
24338W        W89598  35.768   4.323  12.363
24339W        W89599  44.359  13.257  12.389
24340W        W89600  23.739  31.969  13.344
24341W        W89601   6.295   4.471  10.909
24342W        W89602  37.379   7.425  14.417
24343W        W89603  36.489  14.332  12.541
24344W        W89604  41.886  15.789  10.715
24345W        W89605  24.835   2.424   0.302
24346W        W89606  15.788  42.742  11.033
24347W        W89607  11.881  19.297  13.386
24348W        W89608  12.076  29.097   2.090
24349W        W89609  41.551  44.522  14.116
24350W        W89610  43.106  28.248   0.383
24351W        W89611   9.919  36.020   2.401
24352W        W89612  12.060  38.360   2.898
24353W        W89613  29.661   7.062   1.560
24354W        W89614   7.390  31.119  11.431
24355W        W89615  13.130  23.651   4.504
24356W        W89616   6.717  13.851  11.536
24357W        W89617  22.701   5.961   1.729
24358W        W89618   4.252   3.308  12.039
24359W        W89619  29.855  41.395   2.061
24360W        W89620  38.034   4.049  13.355
24361W        W89621  43.038  16.853   3.539
24362W        W89622  17.524  14.067  12.484
24363W        W89623  41.519   7.591  14.376
24364W        W89624  17.671   8.324  14.068
24365W        W89625  30.214  35.364   1.189
24366W        W89626  40.776  44.501   3.989
24367W        W89627  35.783  13.577  14.897
24368W        W89628  14.036  13.159  13.027
24369W        W89629   8.741   8.334   4.493
24370W        W89630  36.109  10.651   2.433
24371W        W89631  29.616   6.271   1.432
24372W        W89632  36.914  43.618   1.303
24373W        W89633  11.777   4.306  12.332
24374W        W89634  41.406   0.393  14.032
24375W        W89635   4.028  19.591  14.831
24376W        W89636  33.389  33.840  12.478
24377W        W89637   7.828   7.451   3.755
24378W        W89638  21.468  35.174  12.004
24379W        W89639  32.697  24.429  12.869
24380W        W89640  31.664  27.998  11.517
24381W        W89641  41.894  27.377  12.636
24382W        W89642  37.854  15.917   1.999
24383W        W89643  24.516  40.941  13.587
24384W        W89644  27.588  37.043  14.736
24385W        W89645   0.712   8.788  11.889
24386W        W89646  18.586  29.521   1.889
24387W        W89647  44.980  39.830  14.275
24388W        W89648  42.474   9.538  12.036
24389W        W89649  20.056  42.011  13.243
24390W        W89650  24.112  12.785  13.301
24391W        W89651  31.940  15.121  12.975
24392W        W89652  14.265  12.577   2.314
24393W        W89653  40.992  11.277  13.801
24394W        W89654  22.519  23.501  12.768
24395W        W89655  10.555  25.901  14.049
24396W        W89656  35.985  42.959   3.198
24397W        W89657  25.002  41.890  10.964
24398W        W89658   6.623  33.415  11.968
24399W        W89659  14.867  27.539  12.911
24400W        W89660  21.644   2.491  13.572
24401W        W89661  36.186  40.065  14.038
24402W        W89662  18.697  30.416  10.065
24403W        W89663   8.093  19.542  11.554
24404W        W89664   4.436  20.895  11.729
24405W        W89665  13.934  11.418  11.121
24406W        W89666  12.001  44.351  12.977
24407W        W89667  28.236  40.026  11.118
24408W        W89668  13.706  42.122   3.718
24409W        W89669   9.958   2.949  11.475
24410W        W89670  25.415  14.338  12.389
24411W        W89671   7.431  19.147  14.988
24412W        W89672  13.604   9.067  14.904
24413W        W89673  21.741  14.399   1.408
24414W        W89674  30.076   7.207   2.151
24415W        W89675  17.265   0.454   3.156
24416W        W89676  10.981   4.258   9.867
24417W        W89677  14.120  10.257  12.990
24418W        W89678  33.109  10.684  11.514
24419W        W89679  21.048  34.635   4.231
24420W        W89680   4.452  35.889   3.127
24421W        W89681  42.013  41.032  10.459
24422W        W89682   9.244  38.016  12.186
24423W        W89683  20.731  30.310  14.271
24424W        W89684   8.708  36.483   4.167
24425W        W89685  15.630  30.464  14.784
24426W        W89686  18.602   7.135   1.971
24427W        W89687  25.492  18.073  14.434
24428W        W89688  32.183   1.646   3.668
24429W        W89689  13.776   9.638  11.617
24430W        W89690  10.920  10.636   4.125
24431W        W89691   6.247  23.593  10.742
24432W        W89692  22.401  11.334  13.284
24433W        W89693  37.777  18.508   2.328
24434W        W89694  21.527  34.084  11.039
24435W        W89695   9.824  42.423   4.083
24436W        W89696   9.861  43.804   3.752
24437W        W89697  38.213  11.634   1.919
24438W        W89698  18.147  43.244  14.037
24439W        W89699  26.996   5.877  13.978
24440W        W89700   4.447  40.461  10.595
24441W        W89701  43.975  20.226   1.232
24442W        W89702  43.224  22.698   2.354
24443W        W89703  13.815  23.115   0.301
24444W        W89704  41.796  11.167   1.429
24445W        W89705  11.913  26.278  11.672
24446W        W89706  28.645  28.407  14.114
24447W        W89707  42.961  23.974   3.645
24448W        W89708  11.755  22.244   2.874
24449W        W89709  26.908  26.486  12.971
24450W        W89710   2.019  34.653  14.395
24451W        W89711  16.040  18.117   1.345
24452W        W89712  42.317  29.440   4.277
24453W        W89713   5.488  34.343   4.974
24454W        W89714  24.670  11.811   2.159
24455W        W89715  36.026  41.151   2.989
24456W        W89716  22.684   9.085  12.040
24457W        W89717  16.346  11.128   4.948
24458W        W89718  36.148  24.473   0.826
24459W        W89719   6.745  16.935   4.577
24460W        W89720  14.057   2.252  11.076
24461W        W89721  39.299  43.974   0.875
24462W        W89722  40.399  22.792  13.880
24463W        W89723  11.427  40.070  14.806
24464W        W89724   3.321   2.690  12.392
24465W        W89725  31.146  35.891   4.614
24466W        W89726  27.310  32.903   0.693
24467W        W89727  10.807   7.144  14.894
24468W        W89728  13.657  22.292   4.727
24469W        W89729  22.612  12.063  13.852
24470W        W89730  27.940  32.266   3.885
24471W        W89731   9.675   9.309  13.454
24472W        W89732  16.614  19.238  14.133
24473W        W89733  32.837   3.396   2.890
24474W        W89734  28.023  38.507   4.490
24475W        W89735  38.897  34.478  12.063
24476W        W89736  10.904   5.959   3.225
24477W        W89737  40.017  41.418  13.004
24478W        W89738  33.655  26.243  11.226
24479W        W89739  14.672   5.655  12.874
24480W        W89740  29.985   5.958  13.097
24481W        W89741   6.841  18.248  13.803
24482W        W89742  22.695  40.777  11.562
24483W        W89743  23.005   6.897   3.540
24484W        W89744  14.053  43.500  11.568
24485W        W89745  34.859  24.000  13.947
24486W        W89746  44.429  10.806  11.529
24487W        W89747  17.538  40.079   1.409
24488W        W89748  24.963  40.441   4.766
24489W        W89749  31.315  29.896   4.210
24490W        W89750  17.507  11.011   2.720
24491W        W89751  19.435   6.139   0.024
24492W        W89752  43.323   0.799  13.117
24493W        W89753   2.954   4.446  14.452
24494W        W89754  24.676  18.357   0.367
24495W        W89755   2.467   0.601   0.413
24496W        W89756   7.470  21.846   2.686
24497W        W89757  39.517  30.608  11.854
24498W        W89758  21.931  42.414  11.168
24499W        W89759  18.249  14.856  14.490
24500W        W89760  21.639  37.983   0.363
24501W        W89761  15.984  17.274  13.281
24502W        W89762   9.523  27.486   1.836
24503W        W89763   1.693   2.647   3.396
24504W        W89764   7.288  17.800  13.575
24505W        W89765  41.095  28.430  12.469
24506W        W89766   7.220   8.923   0.801
24507W        W89767  32.543  44.001  12.382
24508W        W89768  38.343  33.484   3.225
24509W        W89769   4.464  34.036  11.147
24510W        W89770   8.687   5.581   1.264
24511W        W89771  33.158  11.887   2.260
24512W        W89772  17.264  40.392   3.225
24513W        W89773  44.552  22.043   2.253
24514W        W89774  11.859  10.687  13.051
24515W        W89775  26.748  28.463  10.546
24516W        W89776  18.912  34.413  10.750
24517W        W89777  28.435  39.632  11.963
24518W        W89778  40.927  23.328   3.668
24519W        W89779  37.086  23.508   2.812
24520W        W89780  15.195  32.462   4.028
24521W        W89781  11.422  28.598   3.692
24522W        W89782   4.015   4.461  11.582
24523W        W89783   4.287   7.119  11.690
24524W        W89784  42.592  33.413   1.930
24525W        W89785  28.610  10.350   0.219
24526W        W89786  41.874  36.922  12.331
24527W        W89787   6.474   5.046   3.419
24528W        W89788  29.441  38.046  13.014
24529W        W89789  19.170   2.006  12.141
24530W        W89790  17.314  15.915  11.003
24531W        W89791  30.367  37.979  12.543
24532W        W89792  42.164  27.759   3.618
24533W        W89793   3.277  38.235  10.661
24534W        W89794  28.436  35.877   3.629
24535W        W89795  30.731  29.664  11.082
24536W        W89796  42.275  41.469   4.547
24537W        W89797  33.480  10.924  12.445
24538W        W89798  21.742   3.409  10.904
24539W        W89799   4.910   9.418   1.855
24540W        W89800  42.423  17.841   1.338
24541W        W89801  38.004   4.018   4.652
24542W        W89802  17.623  43.707   1.942
24543W        W89803  36.891  35.532  11.698
24544W        W89804  11.805  37.457   2.300
24545W        W89805   0.944  12.539  11.497
24546W        W89806  23.704  42.472   4.407
24547W        W89807   1.414  23.243   0.263
24548W        W89808  16.728  17.220   0.534
24549W        W89809  43.515  39.873   2.574
24550W        W89810  24.070  14.884  13.953
24551W        W89811  44.451   5.501   1.441
24552W        W89812  31.747   1.947   3.818
24553W        W89813  36.387   0.063   2.748
24554W        W89814  33.094   8.363   3.599
24555W        W89815  30.553  32.677   1.833
24556W        W89816   4.559  11.834   0.297
24557W        W89817  14.625  42.514  11.523
24558W        W89818   4.243   0.247   2.030
24559W        W89819   3.730  13.626  12.434
24560W        W89820  35.944  30.093  14.405
24561W        W89821   6.033  20.742   4.549
24562W        W89822   6.480  23.718  14.844
24563W        W89823  13.807   4.295   0.724
24564W        W89824  33.280   1.823  11.495
24565W        W89825  30.856   5.148   3.351
24566W        W89826  26.073   7.321   1.648
24567W        W89827  19.003   3.172  14.481
24568W        W89828  24.085  19.720   2.630
24569W        W89829  17.487  26.513   5.019
24570W        W89830  34.357  41.662  13.366
24571W        W89831   4.875   7.837   2.384
24572W        W89832  21.505  33.011   4.043
24573W        W89833  41.045  28.709  11.182
24574W        W89834  18.706  38.368  11.900
24575W        W89835  33.789  38.481  13.274
24576W        W89836   3.281  25.106  13.047
24577W        W89837  26.463  17.569  11.564
24578W        W89838  38.427  16.333   4.592
24579W        W89839   0.649  39.269  14.454
24580W        W89840  35.137   6.760  13.162
24581W        W89841  22.642  11.438  10.712
24582W        W89842  10.251  32.631   2.287
24583W        W89843  40.541  10.732  11.963
24584W        W89844  16.521   3.523  12.440
24585W        W89845  13.529  26.284  14.337
24586W        W89846  22.899   6.452   0.911
24587W        W89847  31.077  10.599   0.929
24588W        W89848   7.250  20.564  14.899
24589W        W89849  16.381  15.667  14.482
24590W        W89850   5.250  26.660  13.935
24591W        W89851   9.018  43.435  12.490
24592W        W89852  36.349  33.731  11.513
24593W        W89853   4.345  23.704   0.863
24594W        W89854   2.410  16.712   3.762
24595W        W89855  23.760   1.625  11.084
24596W        W89856  17.176  19.344   1.709
24597W        W89857   0.573  43.009   4.037
24598W        W89858  29.191  20.974   5.007
24599W        W89859   8.702  18.800  12.517
24600W        W89860  11.920  11.295   2.363
24601W        W89861  31.027  37.481   0.379
24602W        W89862  23.598   9.450  11.046
24603W        W89863  43.015  25.520   2.789
24604W        W89864   0.975  33.644   3.160
24605W        W89865  44.753  21.021   0.906
24606W        W89866  43.908  14.619   5.489
24607W        W89867  21.990  44.232   1.184
24608W        W89868  16.421   9.057   0.347
24609W        W89869  34.553  29.701   3.360
24610W        W89870  25.695  24.959  13.337
24611W        W89871  31.944  36.015  10.823
24612W        W89872  43.759  18.291  12.069
24613W        W89873  34.545  16.707   2.341
24614W        W89874  32.411  28.404   3.642
24615W        W89875  18.547  29.893  11.399
24616W        W89876  22.097  17.215  14.304
24617W        W89877  21.744  35.428  11.666
24618W        W89878  24.504   2.498  12.897
24619W        W89879  39.467  22.415   4.886
24620W        W89880  13.295  16.092   1.357
24621W        W89881  22.243   0.694   0.725
24622W        W89882   0.799   6.255   0.927
24623W        W89883  38.865  32.793  13.123
24624W        W89884  42.864  37.094   1.885
24625W        W89885   8.685  33.919  11.642
24626W        W89886  26.298   3.128  10.629
24627W        W89887  29.086  23.228  12.381
24628W        W89888  23.161  24.018  10.824
24629W        W89889  30.176  25.913   3.642
24630W        W89890  27.459  31.729   2.175
24631W        W89891  39.361  20.349   4.866
24632W        W89892  42.084  12.195  14.350
24633W        W89893  17.866  16.636  11.643
24634W        W89894  12.263  36.874   4.622
24635W        W89895  20.691  19.072   4.577
24636W        W89896  28.042   1.792  11.678
24637W        W89897  22.605  42.288   4.209
24638W        W89898  40.080  21.029  11.227
24639W        W89899  25.025   8.930  13.869
24640W        W89900   3.970  10.945   0.708
24641W        W89901  20.582   8.577  10.767
24642W        W89902  24.491  16.304   9.933
24643W        W89903  13.737  27.480   5.613
24644W        W89904  18.292  40.420   4.262
24645W        W89905  17.251  21.098   0.508
24646W        W89906  13.606  38.123   4.581
24647W        W89907   3.824  15.551  14.665
24648W        W89908  21.433  22.434  12.523
24649W        W89909  35.868   2.173   1.732
24650W        W89910   2.915  28.271   1.865
24651W        W89911  24.126  28.851  14.422
24652W        W89912  21.947  32.411   1.304
24653W        W89913  24.554  29.892  12.925
24654W        W89914  14.235  35.872   4.226
24655W        W89915  20.101   1.957  12.939
24656W        W89916   3.941  40.357  10.747
24657W        W89917  20.801  34.003  11.672
24658W        W89918  22.950   9.344   1.956
24659W        W89919  36.614   8.435  12.943
24660W        W89920  28.077   2.761   1.692
24661W        W89921   9.599   0.071   1.194
24662W        W89922   7.380  13.246  11.476
24663W        W89923  33.977  33.164  13.515
24664W        W89924  20.093  43.995   4.614
24665W        W89925  35.827  39.096  12.087
24666W        W89926   4.893  40.746   2.667
24667W        W89927  25.499  15.046  13.040
24668W        W89928  43.652  24.630   4.126
24669W        W89929  44.554  30.070  12.475
24670W        W89930  22.554  44.282  13.039
24671W        W89931  33.596  25.010  13.116
24672W        W89932  12.829  22.319   2.161
24673W        W89933  31.518  13.711   2.615
24674W        W89934  26.243   2.918   3.675
24675W        W89935  39.733  36.899   0.910
24676W        W89936   6.739  15.999   1.188
24677W        W89937  27.809  42.781   2.272
24678W        W89938  17.565   3.065  10.524
24679W        W89939  19.161  17.258   2.825
24680W        W89940   7.130   1.986   0.304
24681W        W89941  19.468   6.714   4.142
24682W        W89942  12.828  44.005  11.083
24683W        W89943   3.531  10.688  13.310
24684W        W89944   9.243  15.442  10.553
24685W        W89945  23.101  40.306   4.636
24686W        W89946   0.780  12.395  14.049
24687W        W89947  19.216  34.661   1.872
24688W        W89948  13.642  38.400  12.044
24689W        W89949  19.225   7.746   1.733
24690W        W89950  11.644  39.672  11.491
24691W        W89951  17.630  25.414   0.305
24692W        W89952   3.970  40.840  12.614
24693W        W89953  37.861  11.672  13.861
24694W        W89954  41.878  18.171   1.758
24695W        W89955   1.342   8.604   4.884
24696W        W89956   6.923  28.440   2.676
24697W        W89957  19.797  14.897  12.000
24698W        W89958  12.283  17.544  14.998
24699W        W89959  12.483  10.750  11.020
24700W        W89960  27.006   6.738  14.711
24701W        W89961  29.176   7.148  11.571
24702W        W89962   6.691   0.131   0.348
24703W        W89963  34.392   7.143   1.436
24704W        W89964  36.473   6.737   3.255
24705W        W89965  15.232  10.213  13.607
24706W        W89966  13.869  38.438   0.491
24707W        W89967  34.354  44.641  14.056
24708W        W89968   0.474  29.423   3.057
24709W        W89969  22.979   2.364  10.259
24710W        W89970   4.841  39.484   3.667
24711W        W89971  34.532   1.201  10.722
24712W        W89972  39.060  10.284   4.731
24713W        W89973  11.642  21.203   4.475
24714W        W89974  25.945  23.319   0.394
24715W        W89975  22.509  18.353   1.825
24716W        W89976  30.546   7.889   1.055
24717W        W89977  37.616  18.688   3.142
24718W        W89978   8.398   4.384  14.796
24719W        W89979  20.465   9.122   3.590
24720W        W89980  29.047  14.076  14.569
24721W        W89981  39.333   5.184   4.138
24722W        W89982   4.706  18.027   1.354
24723W        W89983   9.488  32.174   0.265
24724W        W89984  38.101  30.651   0.454
24725W        W89985   1.243  34.649  14.827
24726W        W89986  25.045  10.693  14.428
24727W        W89987   7.790  23.007  14.425
24728W        W89988  38.374  44.692  10.710
24729W        W89989  43.065  19.755  14.781
24730W        W89990  13.040  30.855   2.420
24731W        W89991  37.574  41.757   0.430
24732W        W89992  12.281  42.951  14.485
24733W        W89993   4.342   8.976  14.787
24734W        W89994  20.214  26.903   1.884
24735W        W89995  28.631   6.162  10.874
24736W        W89996  18.155  36.988   5.035
24737W        W89997  38.428  36.038   2.812
24738W        W89998  17.595  26.814   1.807
24739W        W89999  23.166  12.185  10.762
24740W        W90000  40.918   9.070   3.202
24741W        W90001  18.607  38.917   5.066
24742W        W90002  18.363  25.722  12.333
24743W        W90003  27.474  17.228   2.740
24744W        W90004  16.294  30.612  12.356
24745W        W90005  42.266   7.812   3.284
24746W        W90006  41.013  21.717  11.887
24747W        W90007  20.201  35.489   3.689
24748W        W90008   7.943  20.297  10.999
24749W        W90009   7.930   1.362   2.404
24750W        W90010  12.850  26.634   3.610
24751W        W90011  12.197  36.459   2.386
24752W        W90012   8.569   5.047   0.493
24753W        W90013   0.374  10.362  13.315
24754W        W90014  16.776   7.087  11.267
24755W        W90015  25.206   1.893   3.112
24756W        W90016  30.914  20.010  13.116
24757W        W90017  26.784  24.925   4.767
24758W        W90018  37.107  19.257  10.530
24759W        W90019  21.695   0.278   4.120
24760W        W90020  29.664  32.001  13.547
24761W        W90021  38.494  44.536  12.481
24762W        W90022  33.587  13.240  14.602
24763W        W90023  17.280  38.750  14.040
24764W        W90024  12.736  16.337  13.759
24765W        W90025  12.400  16.264  14.623
24766W        W90026  26.154  26.208   5.094
24767W        W90027  17.511  44.269  11.262
24768W        W90028  31.492  33.854  11.332
24769W        W90029  28.959  42.744  10.975
24770W        W90030  39.216  20.189   1.882
24771W        W90031  20.770   8.429   4.719
24772W        W90032   4.412  35.844  10.637
24773W        W90033  40.514  22.093   4.138
24774W        W90034  34.307   4.502  11.106
24775W        W90035   4.323  33.073   4.150
24776W        W90036  33.480  33.704   4.397
24777W        W90037  25.045  34.918   2.370
24778W        W90038  31.633   2.397  12.164
24779W        W90039  32.312  14.998   0.020
24780W        W90040  31.062   7.264   4.099
24781W        W90041  24.197   0.341  14.762
24782W        W90042  36.329   3.643  11.076
24783W        W90043  26.090   6.830   0.880
24784W        W90044  14.456  16.121   1.680
24785W        W90045  23.808  33.532  13.610
24786W        W90046  35.043  20.068   3.846
24787W        W90047  18.821  27.630  11.625
24788W        W90048  26.659  12.365   2.206
24789W        W90049   0.624   8.926  11.125
24790W        W90050  13.760   4.403   1.755
24791W        W90051  28.901  18.966  12.820
24792W        W90052  33.176   2.708  11.468
24793W        W90053  35.091   6.271  13.324
24794W        W90054  39.473  13.714   1.524
24795W        W90055  30.597   8.786  12.402
24796W        W90056  38.990  18.980  12.991
24797W        W90057  13.102  23.580   1.706
24798W        W90058  40.091  37.449  14.438
24799W        W90059  36.546  32.382   2.701
24800W        W90060  33.490  39.624   0.127
24801W        W90061  21.610  29.807   1.014
24802W        W90062   5.990  31.142  13.905
24803W        W90063   8.519   6.805   3.620
24804W        W90064   0.570  40.624  12.023
24805W        W90065   9.401  29.873   4.207
24806W        W90066  31.653  21.069   4.822
24807W        W90067  25.580  42.815   3.092
24808W        W90068   8.073  35.326  11.122
24809W        W90069   7.333   6.351   4.164
24810W        W90070  35.611   3.218  12.701
24811W        W90071  24.140  10.618   0.456
24812W        W90072   2.408   9.855   1.222
24813W        W90073  42.425  24.484  11.620
24814W        W90074  44.673  33.084   4.235
24815W        W90075  27.467   4.254   3.938
24816W        W90076  15.627  34.502   4.155
24817W        W90077   3.768  37.480  10.978
24818W        W90078  25.908  22.351   3.837
24819W        W90079   1.442  40.847  13.899
24820W        W90080  24.999  31.450   3.820
24821W        W90081  27.070  43.555   3.821
24822W        W90082  44.044  35.708   0.503
24823W        W90083   8.311   3.838  14.862
24824W        W90084  28.385  11.873   3.136
24825W        W90085  17.320   6.786  14.886
24826W        W90086  19.946   3.891  11.045
24827W        W90087  36.379   1.898   2.194
24828W        W90088  31.502  18.789   1.308
24829W        W90089   4.646  21.252  14.515
24830W        W90090  41.711  29.199   0.441
24831W        W90091  32.058   1.085   5.098
24832W        W90092  39.935   7.756  14.476
24833W        W90093  31.002  26.189  14.535
24834W        W90094  23.095  38.986   4.578
24835W        W90095  36.458  24.243  11.494
24836W        W90096   4.130  15.829   3.386
24837W        W90097   5.242  21.369   0.419
24838W        W90098  22.601  44.321  12.147
24839W        W90099  36.807   3.140   4.100
24840W        W90100   7.115  30.535   4.437
24841W        W90101  28.855  20.918   4.542
24842W        W90102  10.952  41.916  11.703
24843W        W90103  29.204  32.451   0.010
24844W        W90104  10.443  13.826  10.826
24845W        W90105   1.895  35.683   2.430
24846W        W90106  17.133  27.204  12.463
24847W        W90107  10.653  13.274   3.893
24848W        W90108  26.174  40.361   4.806
24849W        W90109  27.095  25.931   0.838
24850W        W90110   4.413  15.856  12.077
24851W        W90111  19.702  21.167   1.219
24852W        W90112  25.924  20.878  10.825
24853W        W90113  20.259  16.801  10.693
24854W        W90114  43.454  36.098  13.928
24855W        W90115   6.776   2.420   2.796
24856W        W90116  16.823  43.452   0.927
24857W        W90117  35.009  40.467   3.877
24858W        W90118  32.240  24.669  12.890
24859W        W90119  34.889   4.738   3.752
24860W        W90120  31.700  34.103   2.658
24861W        W90121  25.996  23.135   2.373
24862W        W90122  36.119  10.217   1.194
24863W        W90123  30.049  15.962   2.825
24864W        W90124  17.089  32.230   1.637
24865W        W90125   6.184  38.576  11.565
24866W        W90126   8.016  15.426  14.744
24867W        W90127  36.090  25.452   2.449
24868W        W90128  38.886  18.648   3.087
24869W        W90129   5.419  22.952  10.135
24870W        W90130  39.954  33.047  10.567
24871W        W90131  42.464  36.323   1.706
24872W        W90132   1.827  38.872   3.358
24873W        W90133  18.798   4.639  11.579
24874W        W90134  32.631  25.739  11.561
24875W        W90135  24.647  17.273   1.276
24876W        W90136  10.457  15.020   2.865
24877W        W90137  19.234  20.856   1.461
24878W        W90138   8.990   3.778   3.323
24879W        W90139  43.085  41.379   4.657
24880W        W90140  15.952   3.012   3.762
24881W        W90141   0.142  15.386   0.932
24882W        W90142  40.369  19.649   0.895
24883W        W90143  34.589  36.570   2.358
24884W        W90144  11.146  43.936   0.409
24885W        W90145  10.486  18.395  14.941
24886W        W90146  23.984  35.829  14.763
24887W        W90147  13.222  36.954  10.478
24888W        W90148  18.052  43.285   3.557
24889W        W90149  43.110  33.526  12.031
24890W        W90150  41.568  11.037   0.526
24891W        W90151  39.288  13.462  13.593
24892W        W90152  44.932  35.101  12.540
24893W        W90153  36.283  16.038  10.641
24894W        W90154  38.870  16.391   2.262
24895W        W90155  25.303  32.903   3.824
24896W        W90156  11.291  39.284   3.252
24897W        W90157  23.974  44.967  11.752
24898W        W90158  29.909  41.385   4.870
24899W        W90159   6.880  31.873   4.902
24900W        W90160  11.632  42.271  12.501
24901W        W90161   8.654  38.901  10.702
24902W        W90162  23.412   8.463   1.353
24903W        W90163   5.530  17.754   1.462
24904W        W90164  15.922  23.941   1.330
24905W        W90165   0.232   1.385  13.390
24906W        W90166  30.402  27.464  14.063
24907W        W90167  18.768  24.167  11.808
24908W        W90168  13.303  40.788   0.888
24909W        W90169  36.739  41.878   3.269
24910W        W90170   4.916  39.802   1.362
24911W        W90171  38.328  30.036   3.654
24912W        W90172  36.538  38.975   2.372
24913W        W90173  26.161   7.281  13.676
24914W        W90174  10.355  29.774   3.860
24915W        W90175   0.446  32.094   3.294
24916W        W90176  17.354  17.201   3.339
24917W        W90177  31.891  30.603  13.018
24918W        W90178  16.573   8.785  11.592
24919W        W90179   0.926   6.398  13.910
24920W        W90180   2.459   6.674  12.056
24921W        W90181   9.825  28.440   5.181
24922W        W90182  20.520  27.401  12.926
24923W        W90183  28.150  40.358  14.712
24924W        W90184  29.571  10.131   1.278
24925W        W90185  29.942  32.105   3.834
24926W        W90186  42.173   1.032   3.676
24927W        W90187  40.218  41.584  14.372
24928W        W90188  19.484  19.141   2.351
24929W        W90189  38.062  30.942   4.797
24930W        W90190  17.817  27.461   0.556
24931W        W90191  27.482  37.448   2.393
24932W        W90192   5.789  23.534  10.950
24933W        W90193  44.043  41.280   0.455
24934W        W90194   9.536   1.379  11.169
24935W        W90195  38.104  14.053   0.222
24936W        W90196  10.134  12.392   3.003
24937W        W90197  42.715  34.003   2.978
24938W        W90198  31.793  14.193   2.113
24939W        W90199  42.356  15.072  14.262
24940W        W90200  11.627   6.801  11.599
24941W        W90201   6.372  28.602  13.579
24942W        W90202  21.727   2.697   1.474
24943W        W90203  16.793   1.783  11.529
24944W        W90204  22.168  30.186   3.706
24945W        W90205  44.935  12.847   1.351
24946W        W90206  12.102  17.276  13.890
24947W        W90207  42.952  10.132  13.990
24948W        W90208   9.313  36.085  10.235
24949W        W90209  27.718  34.830   0.756
24950W        W90210  40.014  34.477   1.283
24951W        W90211  27.558  33.544   3.805
24952W        W90212  14.656  43.983   0.730
24953W        W90213  30.162  28.286   0.935
24954W        W90214  37.602  37.727  13.417
24955W        W90215  32.176  39.660  10.893
24956W        W90216  29.911   8.280  14.014
24957W        W90217  43.525  40.464  14.344
24958W        W90218  34.734  27.496   4.639
24959W        W90219  34.966  33.632  12.007
24960W        W90220  22.166  30.848   2.245
24961W        W90221  35.632  36.038  10.791
24962W        W90222  15.159  24.532  12.661
24963W        W90223  30.131   3.652   2.681
24964W        W90224  43.811  21.274  14.888
24965W        W90225  33.236  41.868   4.127
24966W        W90226   5.699  18.169   0.345
24967W        W90227  38.626  24.555   3.115
24968W        W90228  30.135   5.234   1.099
24969W        W90229  38.981   5.202   4.502
24970W        W90230  16.656  35.998   1.362
24971W        W90231  25.925  18.770  14.388
24972W        W90232  41.688  20.766   0.222
24973W        W90233  10.894   3.508   2.343
24974W        W90234  12.756   4.205   3.185
24975W        W90235  37.126   3.418   5.370
24976W        W90236  27.386  19.623   0.764
24977W        W90237  10.231  27.026  12.404
24978W        W90238   5.662  21.220  14.233
24979W        W90239  16.344  14.548  11.762
24980W        W90240   9.632  19.327  13.788
24981W        W90241  15.880  28.072   1.879
24982W        W90242  35.052  11.190  14.543
24983W        W90243   6.883   9.308  10.734
24984W        W90244  20.302  40.930  11.654
24985W        W90245  16.163  14.622   1.969
24986W        W90246   2.307   9.931  13.281
24987W        W90247  35.758   6.121  11.741
24988W        W90248   0.592  13.789  14.742
24989W        W90249   5.377  21.330   3.736
24990W        W90250  35.414  32.001  11.574
24991W        W90251   8.250  10.680  14.370
24992W        W90252  29.770   8.858   2.970
24993W        W90253  13.151  24.614   0.232
24994W        W90254  21.899  16.066  12.468
24995W        W90255   6.484   2.454   2.368
24996W        W90256  27.505  21.559  11.145
24997W        W90257   7.584  32.065  14.941
24998W        W90258  37.940  17.557  13.062
24999W        W90259   3.598   3.690  12.072
25000W        W90260   0.795  23.333   4.472
25001W        W90261  12.691   5.747   2.307
25002W        W90262   8.888  43.271   3.527
25003W        W90263  24.637  27.594  10.922
25004W        W90264  28.705   3.657   4.188
25005W        W90265  25.038  19.258   1.335
25006W        W90266  26.483  24.791  13.772
25007W        W90267  30.656  24.595   4.078
25008W        W90268   2.341   1.454  12.867
25009W        W90269   2.438   3.971   4.114
25010W        W90270  40.106  34.250  11.536
25011W        W90271   8.661  25.111   1.893
25012W        W90272  29.853  11.495   1.252
25013W        W90273  19.811  25.587  13.453
25014W        W90274  11.833  36.948   1.384
25015W        W90275  27.019  18.007   1.268
25016W        W90276  15.327  18.309   4.085
25017W        W90277  31.773  38.048  10.593
25018W        W90278  39.936  26.265   4.777
25019W        W90279  44.253  21.617   2.280
25020W        W90280  43.809  18.629  14.186
25021W        W90281   0.234   8.830  13.127
25022W        W90282   7.659  21.935  11.520
25023W        W90283  24.003  21.704   0.687
25024W        W90284  19.127  10.626   3.709
25025W        W90285  37.647  42.373  11.043
25026W        W90286  32.037  12.709   0.499
25027W        W90287  36.344  43.904   3.315
25028W        W90288  14.857   5.273   1.518
25029W        W90289   4.383   8.208  13.556
25030W        W90290  14.237   9.119   2.192
25031W        W90291  26.207  13.316  14.277
25032W        W90292  30.860  43.772  10.890
25033W        W90293   9.641  23.634  14.404
25034W        W90294  37.950  22.565   2.822
25035W        W90295  32.547  39.442  10.591
25036W        W90296  19.610  36.500   1.733
25037W        W90297  35.379  16.683  13.454
25038W        W90298  28.759  19.329   2.793
25039W        W90299  31.600  37.486  11.160
25040W        W90300  24.941   8.265   3.633
25041W        W90301  37.332  25.957   1.375
25042W        W90302  16.109  28.433  12.966
25043W        W90303  16.597   4.192  13.792
25044W        W90304  34.169   5.915   2.255
25045W        W90305   6.335  37.473   4.733
25046W        W90306  15.567  20.338   3.296
25047W        W90307  38.524  38.386   1.008
25048W        W90308  38.319   7.654   4.333
25049W        W90309  29.902  26.896  13.796
25050W        W90310  14.791  14.103  14.520
25051W        W90311  37.048  38.410  11.605
25052W        W90312  19.250  11.941  10.839
25053W        W90313  27.396  26.032  11.776
25054W        W90314   3.938   4.493   2.641
25055W        W90315  14.585  16.315   4.111
25056W        W90316  22.436  29.890   2.418
25057W        W90317   9.548  23.977   3.730
25058W        W90318   2.272   1.251  11.214
25059W        W90319  42.763  35.081   2.064
25060W        W90320  33.372  39.829   1.802
25061W        W90321  19.714  23.035   3.987
25062W        W90322  23.681  14.079   3.220
25063W        W90323  37.766  17.499  14.347
25064W        W90324  41.481  10.253   2.627
25065W        W90325  33.515  18.082   3.284
25066W        W90326   9.083  43.304   0.759
25067W        W90327  14.535  34.941   4.598
25068W        W90328  26.319   0.484   0.247
25069W        W90329  35.597  13.415   3.608
25070W        W90330  24.760  19.232  13.889
25071W        W90331  31.182  14.700   4.633
25072W        W90332  41.275  27.687   0.485
25073W        W90333   2.675   7.402  14.536
25074W        W90334  27.016  24.773   2.649
25075W        W90335   6.671  40.398   1.541
25076W        W90336   3.910  40.125  11.224
25077W        W90337  18.649  19.585   1.356
25078W        W90338  11.932  27.165   0.350
25079W        W90339   3.709   2.807  11.115
25080W        W90340   8.503  39.489  12.568
25081W        W90341  29.708  44.411  10.691
25082W        W90342  34.625   1.049   4.915
25083W        W90343  10.614  14.213   0.991
25084W        W90344  18.877   1.383  11.024
25085W        W90345  13.257   3.664   1.888
25086W        W90346  14.213  22.849   0.477
25087W        W90347  26.583  40.101   0.916
25088W        W90348  18.190  17.529  12.267
25089W        W90349  11.589  39.690   3.107
25090W        W90350  22.897   2.757  14.325
25091W        W90351  25.355  30.007   2.901
25092W        W90352  31.046  31.637   0.262
25093W        W90353  23.247  36.858  12.362
25094W        W90354  38.832  24.080  12.366
25095W        W90355  40.052   7.746   0.494
25096W        W90356  36.900   5.863  13.393
25097W        W90357  30.115  37.138   4.735
25098W        W90358  16.281  37.114   2.440
25099W        W90359   2.284  23.979  10.218
25100W        W90360  13.522  14.067  12.894
25101W        W90361   1.002   9.691  11.860
25102W        W90362  36.085  19.518   1.785
25103W        W90363  31.594   0.040  10.730
25104W        W90364  21.215   4.562   9.863
25105W        W90365  19.269  25.505   4.640
25106W        W90366   4.494  22.028  11.161
25107W        W90367  15.451  11.694  14.772
25108W        W90368  18.327  24.132  14.138
25109W        W90369  25.855   8.152  13.348
25110W        W90370  15.383  42.034  14.982
25111W        W90371   3.764  29.268   2.692
25112W        W90372   3.353  42.239   0.903
25113W        W90373  38.684  42.767   3.229
25114W        W90374   4.683  19.804   5.074
25115W        W90375  38.809  43.836   0.678
25116W        W90376   8.603  43.736  13.018
25117W        W90377  28.248  33.047  11.491
25118W        W90378  40.291  33.883  13.878
25119W        W90379  40.292  12.897   3.627
25120W        W90380   4.030   6.933  14.410
25121W        W90381  21.479   5.499  12.587
25122W        W90382  34.445  33.409   4.314
25123W        W90383  30.484  30.678  14.003
25124W        W90384  39.084  30.067   3.144
25125W        W90385  34.310  23.523  11.094
25126W        W90386  11.893  21.795  12.472
25127W        W90387  35.583  25.439   0.328
25128W        W90388  40.630   0.284  11.250
25129W        W90389  14.189  33.150   4.122
25130W        W90390  27.014  14.966   2.695
25131W        W90391  31.642   3.832  10.976
25132W        W90392  19.144   6.826   1.649
25133W        W90393  28.722  35.510   0.461
25134W        W90394   2.459  11.652   0.325
25135W        W90395   4.592  16.584   4.224
25136W        W90396  21.143   0.244   4.160
25137W        W90397  25.105  34.631  14.295
25138W        W90398   5.632  31.881  12.486
25139W        W90399   7.726  26.997   0.494
25140W        W90400  17.235   8.901   3.213
25141W        W90401  28.226  16.991  12.362
25142W        W90402  35.899  39.116   1.684
25143W        W90403  24.119  38.053   4.479
25144W        W90404   1.746  30.611  13.064
25145W        W90405  36.875   2.330  10.885
25146W        W90406  22.586  22.318   4.305
25147W        W90407  39.013  24.605   0.370
25148W        W90408  44.456  10.075  13.369
25149W        W90409  38.071  24.090  12.092
25150W        W90410  28.513  43.873   0.260
25151W        W90411  33.455  39.012  10.802
25152W        W90412  43.518  33.974  13.882
25153W        W90413  10.825  41.751   0.839
25154W        W90414  36.409  44.420  10.284
25155W        W90415  36.024  22.968   4.378
25156W        W90416  26.377  23.953   4.536
25157W        W90417  21.175  34.917   2.598
25158W        W90418   8.110  32.314  10.935
25159W        W90419   5.463  29.986  13.891
25160W        W90420  11.220   0.793  13.527
25161W        W90421  21.892  38.900  13.938
25162W        W90422  12.651  15.332   2.191
25163W        W90423   5.210  25.191   4.685
25164W        W90424   7.190   0.819   2.709
25165W        W90425  21.174  33.044  10.622
25166W        W90426  20.501  39.545  11.592
25167W        W90427  11.264  26.287   3.210
25168W        W90428   5.288  16.809   3.781
25169W        W90429  35.248  33.176   1.673
25170W        W90430   7.624   0.015   0.226
25171W        W90431   5.929  15.582  12.047
25172W        W90432  14.985  37.850  12.260
25173W        W90433  37.331  29.494  13.355
25174W        W90434  20.425   5.776   3.499
25175W        W90435  11.176   3.093  11.311
25176W        W90436   4.038  14.145   4.755
25177W        W90437  23.143  37.610   3.578
25178W        W90438  10.032  24.567  11.083
25179W        W90439  26.727  10.755  10.958
25180W        W90440  26.691   2.627   3.567
25181W        W90441  44.271  14.394  10.484
25182W        W90442  14.731  42.547  13.346
25183W        W90443  34.168  39.734   2.240
25184W        W90444  13.183  34.739   4.929
25185W        W90445  33.592   9.856   2.371
25186W        W90446  35.518   4.653  10.660
25187W        W90447   3.296   1.778  13.789
25188W        W90448  23.490  17.280  12.190
25189W        W90449   8.278   1.804   1.814
25190W        W90450  21.284  11.120  14.834
25191W        W90451  10.327  20.958   9.936
25192W        W90452  16.639   7.944  12.218
25193W        W90453  44.917  16.297  11.443
25194W        W90454  37.629  30.006   2.656
25195W        W90455   4.792   6.873  11.526
25196W        W90456  30.515  27.733  14.516
25197W        W90457  22.663   0.247   4.168
25198W        W90458  28.247  37.222  10.077
25199W        W90459  35.071  34.092  11.123
25200W        W90460   6.968  12.365   1.892
25201W        W90461  23.805  13.278   4.682
25202W        W90462  44.968  31.541   4.765
25203W        W90463  41.107  10.405   2.943
25204W        W90464  44.315  39.004  13.340
25205W        W90465   7.142  36.531   0.402
25206W        W90466  28.794  14.338  13.505
25207W        W90467  26.077  38.624   0.384
25208W        W90468  17.570  12.539  12.487
25209W        W90469  25.147  17.052  11.575
25210W        W90470  20.632  22.607   4.034
25211W        W90471  23.285  14.034   0.788
25212W        W90472   7.757   3.249   3.704
25213W        W90473  14.288   7.068  14.978
25214W        W90474  35.183  39.123   0.007
25215W        W90475  44.551  35.140  11.044
25216W        W90476   5.640  43.534  13.011
25217W        W90477  34.107  41.957  11.217
25218W        W90478  29.233  35.387  13.554
25219W        W90479  14.735   7.828  14.055
25220W        W90480  31.395  20.163   2.785
25221W        W90481  24.996  38.725  13.365
25222W        W90482   6.699   2.248   4.616
25223W        W90483  30.415  20.551  14.815
25224W        W90484  22.739   3.541   4.274
25225W        W90485  30.320  38.557  10.882
25226W        W90486  41.879  26.797  13.774
25227W        W90487   1.111  43.362   3.202
25228W        W90488   8.678  24.637  14.535
25229W        W90489  31.391  36.809  12.543
25230W        W90490  42.380   8.753   0.071
25231W        W90491   6.322   5.364   1.972
25232W        W90492  31.122  27.076   0.391
25233W        W90493   2.240   8.684  14.837
25234W        W90494  13.846   9.026  10.815
25235W        W90495  44.153  38.593  13.599
25236W        W90496   0.427  42.683   3.118
25237W        W90497   6.245  41.070  11.612
25238W        W90498   8.834  22.987   4.374
25239W        W90499  30.612   0.810   1.991
25240W        W90500   7.150  30.463  11.962
25241W        W90501  36.547  21.373   2.754
25242W        W90502  24.489  16.991  13.876
25243W        W90503  27.637  22.042   3.901
25244W        W90504   5.796  13.003   4.087
25245W        W90505  11.770  34.893  12.430
25246W        W90506  44.832  16.829   1.419
25247W        W90507  28.136  22.778   4.092
25248W        W90508   4.896   1.851   1.349
25249W        W90509  17.628  26.092   4.169
25250W        W90510  36.486  22.186  13.459
25251W        W90511  26.261   7.293   4.583
25252W        W90512  25.024   1.435   3.408
25253W        W90513  15.007  25.930   3.649
25254W        W90514  16.352  32.091   2.652
25255W        W90515  23.818  14.208  10.896
25256W        W90516  33.037  22.610   2.437
25257W        W90517  17.729  12.738  12.954
25258W        W90518  44.226   1.696   3.027
25259W        W90519  41.797   7.274  11.652
25260W        W90520   7.670   9.359  14.513
25261W        W90521  27.974  27.110   3.777
25262W        W90522  44.226  28.229   3.029
25263W        W90523  32.696  16.713   1.308
25264W        W90524   6.268  42.082   0.945
25265W        W90525  41.006  39.750  12.847
25266W        W90526  43.295   6.313   2.641
25267W        W90527  21.503  31.598   0.990
25268W        W90528  20.801  19.009  11.871
25269W        W90529  16.715  24.243  13.950
25270W        W90530  17.630  37.321  12.913
25271W        W90531  32.561  17.913   1.249
25272W        W90532   2.223   2.944   2.301
25273W        W90533   3.832   9.319  12.247
25274W        W90534  10.663   1.552  14.526
25275W        W90535   7.718  35.792  14.387
25276W        W90536  28.289   0.320   2.219
25277W        W90537  35.948  33.007   2.303
25278W        W90538  39.376  31.826   3.543
25279W        W90539   9.397  18.692  10.801
25280W        W90540   3.447  32.950   4.094
25281W        W90541  35.512   5.087  13.697
25282W        W90542  39.642  42.284  13.335
25283W        W90543   7.277  14.399  11.867
25284W        W90544  36.299  37.769   1.761
25285W        W90545  30.187  29.699  13.074
25286W        W90546  24.510  39.367   0.498
25287W        W90547  35.823  34.885  13.482
25288W        W90548  17.540  37.491  14.438
25289W        W90549  13.616  39.778   3.552
25290W        W90550  12.855  38.433   0.289
25291W        W90551  28.133   3.730   2.854
25292W        W90552  29.213   6.872  12.040
25293W        W90553  13.251  14.547  12.883
25294W        W90554  38.588   1.108  12.591
25295W        W90555  28.991  38.790  14.866
25296W        W90556   7.156  33.120  12.835
25297W        W90557   1.730  28.726  11.906
25298W        W90558  38.041  29.051   0.978
25299W        W90559   6.624  37.025   2.326
25300W        W90560  34.063   8.434   3.616
25301W        W90561  35.489  30.888  10.694
25302W        W90562  11.127  26.064  14.945
25303W        W90563  16.820  24.518  12.956
25304W        W90564  40.034  40.409  12.159
25305W        W90565  28.981  18.459   2.655
25306W        W90566  38.915   9.531   3.379
25307W        W90567  26.032  34.102   1.053
25308W        W90568  44.642  39.871  11.148
25309W        W90569  14.729  30.958  13.921
25310W        W90570  10.719  19.243  12.868
25311W        W90571  15.839  31.969   0.913
25312W        W90572  20.643  17.478  11.951
25313W        W90573  21.941  34.083   5.462
25314W        W90574   8.444  21.690  13.581
25315W        W90575  38.558  42.470  14.998
25316W        W90576   9.248  31.027  10.659
25317W        W90577  23.244  10.162   0.429
25318W        W90578  17.853   0.943  11.546
25319W        W90579  43.907  18.161  12.586
25320W        W90580  42.910  36.117  14.521
25321W        W90581   1.985   9.676   2.773
25322W        W90582  10.426   8.859  11.463
25323W        W90583  13.880  44.538   4.181
25324W        W90584  21.579   4.301   2.270
25325W        W90585  40.796  31.781   4.901
25326W        W90586  26.921  38.352  13.937
25327W        W90587  30.462  14.582  12.640
25328W        W90588  40.501   1.433   1.151
25329W        W90589  29.994  41.090  11.153
25330W        W90590   7.338  23.552  12.717
25331W        W90591  21.708  23.735   0.746
25332W        W90592  10.371  26.527  12.176
25333W        W90593  26.439  43.518  11.009
25334W        W90594  19.525   0.667  12.045
25335W        W90595  29.672  11.590  12.325
25336W        W90596  13.305  33.788  10.428
25337W        W90597  23.278  13.276   0.495
25338W        W90598  38.828   9.758   3.830
25339W        W90599  14.177  38.489   1.393
25340W        W90600  30.000   1.750  11.172
25341W        W90601  20.617   0.535  13.757
25342W        W90602  25.447   6.412  14.325
25343W        W90603  14.152   2.329   2.154
25344W        W90604  31.145  20.693  10.666
25345W        W90605  13.013  23.222   4.224
25346W        W90606  23.239  25.646  11.957
25347W        W90607  10.091  25.131  12.638
25348W        W90608  13.549  27.128  14.932
25349W        W90609  14.782   9.063  12.307
25350W        W90610  27.550   0.716  10.681
25351W        W90611  39.064  12.554   3.235
25352W        W90612   8.091  38.240  11.606
25353W        W90613   5.379  36.109  14.688
25354W        W90614  28.520  17.553   9.827
25355W        W90615  26.277  37.083  12.049
25356W        W90616  25.339  11.900   4.366
25357W        W90617  31.034  24.557   1.341
25358W        W90618   6.802  14.292  14.035
25359W        W90619  36.936  41.510  14.243
25360W        W90620  22.547  20.904  11.101
25361W        W90621  26.112  30.407  11.376
25362W        W90622  42.722  26.914   1.228
25363W        W90623  33.345   6.943   0.382
25364W        W90624  30.032   9.852   4.306
25365W        W90625  19.004  35.975  11.107
25366W        W90626   4.506  21.503   0.356
25367W        W90627  25.582   9.118  11.791
25368W        W90628  44.476   6.158   2.864
25369W        W90629  33.921  44.171   3.696
25370W        W90630  32.626  41.418   4.450
25371W        W90631  39.306  11.698   3.624
25372W        W90632  28.955  36.461   4.189
25373W        W90633  22.663  33.818  13.843
25374W        W90634  25.715  42.119   2.486
25375W        W90635  40.014  12.077  12.200
25376W        W90636   9.940  20.073   0.449
25377W        W90637  38.400  23.681   3.093
25378W        W90638  27.373  18.560   3.239
25379W        W90639  30.820  15.145   3.782
25380W        W90640  33.608  42.293  12.056
25381W        W90641  33.492  21.209  13.395
25382W        W90642  23.489  12.531  13.893
25383W        W90643  42.333   8.500   0.820
25384W        W90644  21.005   6.316  10.533
25385W        W90645  20.548  33.863   1.302
25386W        W90646  38.071  27.780   2.841
25387W        W90647  34.003  44.389  14.845
25388W        W90648  25.278  11.171  13.503
25389W        W90649  35.103  27.936  11.101
25390W        W90650  26.827  22.074   2.057
25391W        W90651  11.706  43.434   3.728
25392W        W90652  26.557  14.273   1.394
25393W        W90653  38.582  25.870   1.402
25394W        W90654  15.665  18.323  13.716
25395W        W90655  22.669  38.578   0.529
25396W        W90656  12.376   5.665   0.874
25397W        W90657   9.615  43.843  14.824
25398W        W90658  34.994   0.737   4.032
25399W        W90659  31.935   7.677   2.888
25400W        W90660  12.706  23.425  14.891
25401W        W90661   7.719  42.725   4.633
25402W        W90662  20.549   8.746  14.770
25403W        W90663   0.538  35.780   2.847
25404W        W90664  32.460  42.449   4.419
25405W        W90665  26.804   9.448  10.764
25406W        W90666  27.186  22.825  12.887
25407W        W90667  20.413  24.749  13.496
25408W        W90668  42.217  26.102   1.752
25409W        W90669  27.621   2.020  11.467
25410W        W90670   5.733  23.264   1.127
25411W        W90671   0.479   3.536  14.494
25412W        W90672  43.516  28.718  12.092
25413W        W90673  20.136  16.152  13.041
25414W        W90674  18.695   8.469   0.275
25415W        W90675  26.969  21.914   0.797
25416W        W90676  38.820  30.091   4.628
25417W        W90677  18.382  21.825  11.694
25418W        W90678  10.827  27.447   2.220
25419W        W90679   6.593  28.555   1.251
25420W        W90680  40.423   0.869   0.871
25421W        W90681  22.259   3.438   0.803
25422W        W90682  27.095  22.215  11.370
25423W        W90683  35.285   3.257   1.366
25424W        W90684  31.578  13.805  12.902
25425W        W90685  41.533  20.004  12.570
25426W        W90686  18.458  12.299   0.188
25427W        W90687   9.139  28.225  14.323
25428W        W90688  39.430  38.870   1.658
25429W        W90689  31.998  27.611  12.590
25430W        W90690   6.367   9.101   1.756
25431W        W90691   6.704  34.160  10.720
25432W        W90692  19.156  39.447  13.242
25433W        W90693  31.286  21.756  14.921
25434W        W90694  31.656  18.497   0.486
25435W        W90695   8.799  10.973   1.431
25436W        W90696   8.548  40.473   2.827
25437W        W90697  28.570  12.776  14.949
25438W        W90698  10.748  33.122   3.714
25439W        W90699  14.754   9.713  13.574
25440W        W90700  14.582  16.544  13.748
25441W        W90701  29.920  25.471   9.864
25442W        W90702   5.717  11.232   3.213
25443W        W90703  37.775   3.851   0.399
25444W        W90704   0.543  36.554   3.332
25445W        W90705  28.006   7.992   2.728
25446W        W90706  44.528  13.893  11.188
25447W        W90707  40.611  12.817  12.485
25448W        W90708   9.794  22.083   2.073
25449W        W90709  15.369  15.784   3.123
25450W        W90710  34.437  19.582   4.217
25451W        W90711   4.806  36.719  12.106
25452W        W90712   3.691  11.624   4.126
25453W        W90713  18.743  24.275  10.355
25454W        W90714  29.689  33.735  13.371
25455W        W90715  24.658  41.949  11.760
25456W        W90716  15.660   7.988   2.823
25457W        W90717  36.483  23.509  11.317
25458W        W90718   3.923  43.100  13.034
25459W        W90719  18.396  20.997  13.858
25460W        W90720  34.978  33.120   0.497
25461W        W90721  31.845  37.249   3.844
25462W        W90722   2.418   4.458  13.403
25463W        W90723  20.063   4.359   4.273
25464W        W90724  34.050  34.756  11.241
25465W        W90725  23.208   6.687  13.525
25466W        W90726  37.898  24.986   2.338
25467W        W90727  41.844   6.320  13.761
25468W        W90728  11.221  28.087   1.348
25469W        W90729  22.842  37.926  11.167
25470W        W90730  20.872   5.352   0.729
25471W        W90731  16.762  43.196   1.355
25472W        W90732   2.044  29.620   2.965
25473W        W90733  12.683  17.014  13.114
25474W        W90734   0.348  29.529  10.690
25475W        W90735   4.174  39.992  13.810
25476W        W90736  18.252   3.404  14.910
25477W        W90737  33.089  13.212   1.926
25478W        W90738  41.836  11.857   9.730
25479W        W90739  11.805   7.914   3.110
25480W        W90740  11.020   1.222   5.069
25481W        W90741   5.407   4.240  14.223
25482W        W90742   4.320  39.430  10.696
25483W        W90743   2.803  27.564   5.264
25484W        W90744  27.301   4.383   0.796
25485W        W90745  37.076  25.518  13.926
25486W        W90746  13.256  20.118  11.227
25487W        W90747   0.255  23.861  13.839
25488W        W90748  22.962  36.399  12.488
25489W        W90749  29.484  36.149  12.123
25490W        W90750  37.049   3.851  10.311
25491W        W90751   6.735  12.214  14.337
25492W        W90752  15.396  41.636  12.483
25493W        W90753  15.321   4.932   2.318
25494W        W90754  20.273  31.026   0.950
25495W        W90755   0.460  29.619   1.774
25496W        W90756  42.056   1.044   3.127
25497W        W90757   5.755  13.058   3.190
25498W        W90758  28.851   6.276   2.726
25499W        W90759  24.383  35.208  14.411
25500W        W90760   5.875  38.616   1.694
25501W        W90761  32.820  38.958   3.687
25502W        W90762   5.225  37.760   3.890
25503W        W90763  44.252  39.146  11.159
25504W        W90764  19.046  13.624  12.511
25505W        W90765   3.114  11.890  14.205
25506W        W90766   3.663   1.276   4.999
25507W        W90767  13.323   6.144   0.944
25508W        W90768  37.255  19.036  14.360
25509W        W90769  12.799  24.472   4.835
25510W        W90770  36.597  22.682  12.058
25511W        W90771  40.051  35.397  11.674
25512W        W90772  34.394  11.249   1.308
25513W        W90773  27.298  21.047   4.566
25514W        W90774   6.933  13.292   1.642
25515W        W90775   8.389  33.637  11.944
25516W        W90776   4.255  16.811  10.383
25517W        W90777  37.971  19.871   1.808
25518W        W90778  39.286  33.656  14.818
25519W        W90779   0.280   8.087  12.781
25520W        W90780  19.874   9.239  14.946
25521W        W90781  34.361  30.320   3.758
25522W        W90782  29.277  24.673   1.278
25523W        W90783  21.737   1.974  13.619
25524W        W90784  22.686  42.713  12.089
25525W        W90785   6.325   2.708   3.612
25526W        W90786  26.470  33.439  12.428
25527W        W90787   1.252   1.434  13.106
25528W        W90788   9.869  20.954  14.342
25529W        W90789  14.595  39.822   0.957
25530W        W90790  14.138  15.630  13.953
25531W        W90791  32.354  11.764  13.860
25532W        W90792  14.850  12.863  11.947
25533W        W90793   9.597  44.596  14.549
25534W        W90794   9.210   3.164  14.826
25535W        W90795  33.365  15.708   0.788
25536W        W90796  29.993  13.104   2.817
25537W        W90797  25.980  29.892   4.607
25538W        W90798  14.018   4.184  13.062
25539W        W90799  38.239  40.504   2.620
25540W        W90800   4.718  25.520   3.270
25541W        W90801   8.968  22.228   1.790
25542W        W90802  31.772  20.550   4.701
25543W        W90803   7.023   1.291  12.288
25544W        W90804  15.130  18.606   3.693
25545W        W90805  36.603   7.951   2.442
25546W        W90806  43.770  32.916  11.531
25547W        W90807  24.629   0.847   2.353
25548W        W90808  23.689   4.296   0.840
25549W        W90809   4.145  28.910  11.186
25550W        W90810  31.562  41.071   0.675
25551W        W90811  44.846  23.955  11.402
25552W        W90812  11.723   4.848   9.967
25553W        W90813   2.708   7.636   2.556
25554W        W90814  34.452   3.798   3.596
25555W        W90815  38.382  21.576  14.493
25556W        W90816  39.072  16.297   1.397
25557W        W90817  34.343  37.569  13.120
25558W        W90818  36.035  29.526   0.350
25559W        W90819  40.617  33.236   0.832
25560W        W90820  20.856  17.604   3.764
25561W        W90821  32.359  20.042   2.784
25562W        W90822  29.537   1.912   2.778
25563W        W90823  27.238  21.695  12.031
25564W        W90824  21.561  21.255   9.956
25565W        W90825  25.620  29.054  10.871
25566W        W90826  19.870  14.025  11.688
25567W        W90827  11.155  24.925   0.710
25568W        W90828  32.873  36.345  14.835
25569W        W90829   6.700  40.531  13.790
25570W        W90830  33.324  10.002  11.570
25571W        W90831  36.810  16.361   1.392
25572W        W90832   9.320  40.266  11.676
25573W        W90833   1.403  11.593  13.954
25574W        W90834  42.485  29.698  14.496
25575W        W90835  44.013  35.993   3.712
25576W        W90836  10.129  27.499   2.759
25577W        W90837   9.418  27.870   0.021
25578W        W90838   0.372   9.331  10.669
25579W        W90839  29.607  10.759   0.791
25580W        W90840  12.185  22.068   4.608
25581W        W90841  32.517  18.053   2.546
25582W        W90842  38.840   4.640   0.968
25583W        W90843  42.745  34.613  13.292
25584W        W90844  30.195  22.381   2.568
25585W        W90845   7.565  22.693  11.131
25586W        W90846  22.721  17.964  11.895
25587W        W90847  29.967  27.017   4.033
25588W        W90848  28.837  27.274   3.631
25589W        W90849  21.776  39.103   2.655
25590W        W90850   2.814  30.997   1.740
25591W        W90851  37.032  26.565  14.997
25592W        W90852   9.829  15.568  13.085
25593W        W90853  16.975  33.782  14.340
25594W        W90854  17.265  38.472  12.488
25595W        W90855  27.102  11.329  13.873
25596W        W90856  10.287  20.986   4.881
25597W        W90857  38.440  42.724  10.637
25598W        W90858  30.045  27.670  14.813
25599W        W90859   1.685   9.027  12.491
25600W        W90860  25.745  32.683  14.286
25601W        W90861  19.990  24.935  11.265
25602W        W90862  38.588  42.772  14.572
25603W        W90863   8.943  34.931  11.529
25604W        W90864  27.493  14.738   0.647
25605W        W90865  34.502  41.417  13.918
25606W        W90866  22.100  28.009   4.130
25607W        W90867   9.484  33.547   1.341
25608W        W90868   0.484  39.797  12.346
25609W        W90869   9.638  15.106  10.596
25610W        W90870  14.444  12.657  11.712
25611W        W90871   9.884  37.821   1.405
25612W        W90872  10.431  21.758   1.414
25613W        W90873  28.122  24.857  13.355
25614W        W90874   4.378  21.979  12.894
25615W        W90875  43.952  21.652   1.797
25616W        W90876  38.917  30.723   1.885
25617W        W90877  43.244  42.323  12.649
25618W        W90878  14.642   5.926  14.259
25619W        W90879  43.463   0.764   2.883
25620W        W90880   1.969  32.036  14.009
25621W        W90881  40.918   8.317  12.875
25622W        W90882  21.523  19.474  12.388
25623W        W90883  23.379  37.040   0.766
25624W        W90884  36.104  38.114  14.300
25625W        W90885  14.380  14.623   2.184
25626W        W90886  28.988  17.313   3.755
25627W        W90887  32.336  23.275  12.044
25628W        W90888   9.367  35.135  12.880
25629W        W90889   2.186  26.121   1.334
25630W        W90890  39.037  22.119  12.966
25631W        W90891  15.622  24.180  14.025
25632W        W90892  21.521  24.447  14.940
25633W        W90893  17.723  20.975   2.677
25634W        W90894   7.249  25.207   1.754
25635W        W90895  10.445  28.059   5.279
25636W        W90896  34.431  19.139   4.679
25637W        W90897   9.248  41.047  12.143
25638W        W90898  10.762  24.294   0.189
25639W        W90899  42.896  31.372   4.177
25640W        W90900  11.225  42.439   2.759
25641W        W90901  29.936  10.958   1.243
25642W        W90902  12.813  30.857  14.945
25643W        W90903  39.413  34.123   0.734
25644W        W90904  29.214  36.957   1.243
25645W        W90905  12.330  19.032   4.473
25646W        W90906  28.985  31.831  12.827
25647W        W90907  26.427  28.651  13.811
25648W        W90908  27.740   6.201  14.590
25649W        W90909   3.281  24.886  11.932
25650W        W90910  12.034   7.391  13.956
25651W        W90911  12.078  25.631   2.886
25652W        W90912  36.898   1.488  13.937
25653W        W90913  20.307   4.420  11.933
25654W        W90914   2.105  26.520   4.019
25655W        W90915  33.112   3.401   0.905
25656W        W90916  30.613  19.289  14.452
25657W        W90917   0.893  37.191  10.479
25658W        W90918  31.878  44.877  12.942
25659W        W90919   1.891  23.555  10.147
25660W        W90920  10.315  18.754  10.376
25661W        W90921  40.250  37.001  11.058
25662W        W90922   3.126  22.720  11.877
25663W        W90923  20.783  39.378  13.467
25664W        W90924  37.508   7.247   1.805
25665W        W90925   0.231  38.243  11.613
25666W        W90926  17.611  15.262  13.089
25667W        W90927  24.006   1.328  10.739
25668W        W90928  13.600  26.199   4.963
25669W        W90929  35.657  33.221   4.586
25670W        W90930  39.992  10.925   4.671
25671W        W90931  35.843   8.702   0.792
25672W        W90932   1.688  12.834   2.784
25673W        W90933  29.463   8.184  14.265
25674W        W90934  12.875   8.306   1.103
25675W        W90935  15.300   7.241  12.531
25676W        W90936  42.256  20.512  12.698
25677W        W90937  36.437  44.214   1.788
25678W        W90938   5.145  36.792  11.638
25679W        W90939  23.193   6.942  11.170
25680W        W90940  25.993  36.424   5.036
25681W        W90941  23.997  29.406  14.427
25682W        W90942  17.708   9.652  11.916
25683W        W90943  14.563  21.854  10.295
25684W        W90944   9.258  12.173   4.218
25685W        W90945   2.312  31.693   2.706
25686W        W90946   0.038  36.102   2.006
25687W        W90947   3.317  33.843  14.871
25688W        W90948   3.345  42.544   4.581
25689W        W90949  19.582  27.982   2.214
25690W        W90950  39.152  30.140   0.434
25691W        W90951  29.523  34.162  11.221
25692W        W90952  31.567  10.695   0.791
25693W        W90953  29.818  34.892  13.974
25694W        W90954  28.428  42.527   4.460
25695W        W90955  38.827   1.907  11.963
25696W        W90956  21.094  23.381   4.997
25697W        W90957  14.768  15.802  13.113
25698W        W90958  29.679  37.583  10.347
25699W        W90959  11.750  34.908   1.238
25700W        W90960  25.553   0.543   3.175
25701W        W90961  30.996  44.867  14.527
25702W        W90962  31.259   8.363  11.564
25703W        W90963  42.727  12.531   2.166
25704W        W90964  25.586  16.079  12.295
25705W        W90965  31.596   3.269   4.148
25706W        W90966  24.111  43.338   4.177
25707W        W90967  28.493  27.403  14.097
25708W        W90968  25.164   5.476   2.951
25709W        W90969  17.386  24.449   4.003
25710W        W90970   3.402  11.286   2.838
25711W        W90971  15.585  36.250  13.149
25712W        W90972  14.182  15.279   1.704
25713W        W90973  38.317  29.054  12.753
25714W        W90974  16.069  11.771   3.738
25715W        W90975  37.312  27.751   2.375
25716W        W90976  23.529  44.948   0.735
25717W        W90977   4.412  24.210  13.494
25718W        W90978  14.657   4.474   0.922
25719W        W90979  34.553   4.268   0.223
25720W        W90980  14.297  21.467  12.996
25721W        W90981   5.748  31.679  13.038
25722W        W90982  44.465  12.701   2.405
25723W        W90983   3.639  39.220   2.192
25724W        W90984  21.762  40.587  10.623
25725W        W90985  36.341  11.706  12.992
25726W        W90986  17.236  25.241  11.644
25727W        W90987  29.660   2.132  13.426
25728W        W90988  40.321  13.147   1.125
25729W        W90989   2.879  42.289   0.692
25730W        W90990  29.108  37.123   2.178
25731W        W90991  38.626  34.046  11.180
25732W        W90992  16.337  18.042   2.380
25733W        W90993   0.992  11.962  11.616
25734W        W90994  13.159  22.533   0.759
25735W        W90995  30.948  12.767   1.935
25736W        W90996  44.490  35.383   4.219
25737W        W90997  16.458  43.368  13.321
25738W        W90998  18.680  30.565   0.441
25739W        W90999  23.184  27.375  13.136
25740W        W91000  17.366   1.520  11.499
25741W        W91001  44.717  17.060  12.502
25742W        W91002   9.227  27.376  14.949
25743W        W91003  17.339  22.488  12.446
25744W        W91004  35.322  28.412  14.835
25745W        W91005  29.560   4.331  13.370
25746W        W91006   8.695  35.750   1.266
25747W        W91007  11.341  23.128   0.764
25748W        W91008  15.548  43.226  11.058
25749W        W91009  19.230  37.615  13.873
25750W        W91010  39.775  44.262  10.731
25751W        W91011  42.016   7.245  11.175
25752W        W91012  14.335  42.489   2.015
25753W        W91013  41.411  33.316  14.175
25754W        W91014   4.631  20.143   4.613
25755W        W91015  28.189  18.682   2.448
25756W        W91016  21.603  10.335   3.879
25757W        W91017  21.276   6.044   3.762
25758W        W91018  35.122  34.552   2.231
25759W        W91019  11.096  27.088  12.924
25760W        W91020  44.181  15.235   1.758
25761W        W91021  27.650  41.008   0.914
25762W        W91022  44.152  32.655  10.354
25763W        W91023   9.188  36.807   3.329
25764W        W91024  36.633   4.380   2.228
25765W        W91025  36.132  24.539  13.395
25766W        W91026  39.774  18.640   3.836
25767W        W91027  21.208  23.644  12.608
25768W        W91028  21.604  28.988  13.277
25769W        W91029  39.921  35.827  14.804
25770W        W91030  27.191  13.460   2.768
25771W        W91031  22.073  10.645   4.702
25772W        W91032  24.121   6.673  13.033
25773W        W91033  31.454  13.897  11.130
25774W        W91034  11.907  41.377   2.779
25775W        W91035   3.297   5.764  10.745
25776W        W91036  44.774  23.288   1.094
25777W        W91037   6.426   6.234   2.232
25778W        W91038  36.572  40.374   1.298
25779W        W91039   5.835  27.165  11.968
25780W        W91040  38.578  20.012  11.182
25781W        W91041  19.586  37.023   3.416
25782W        W91042   2.921  40.311  11.663
25783W        W91043   1.856   3.858  14.894
25784W        W91044  44.470  40.108  13.088
25785W        W91045  42.862  38.748  13.723
25786W        W91046  33.619  42.268  14.295
25787W        W91047  41.436   8.349  13.809
25788W        W91048  36.630   3.437  14.049
25789W        W91049  36.197  32.007  14.776
25790W        W91050  18.705   9.363   3.140
25791W        W91051  12.807  15.781   0.399
25792W        W91052  13.439  30.674   1.692
25793W        W91053  24.457   9.436   1.939
25794W        W91054  41.873  43.374   1.187
25795W        W91055  26.001  41.037  14.132
25796W        W91056  36.651  14.824  14.315
25797W        W91057  22.589   6.328   1.327
25798W        W91058   0.408   7.378   0.163
25799W        W91059  30.414  23.979   0.598
25800W        W91060  16.078   0.760  12.092
25801W        W91061  19.708  10.610  11.169
25802W        W91062  32.547  23.228   1.675
25803W        W91063   8.216  23.119   3.741
25804W        W91064  22.759  39.496   0.009
25805W        W91065  27.590   7.400   3.382
25806W        W91066  13.543  20.736  13.860
25807W        W91067  35.311  12.251   1.226
25808W        W91068  42.236  43.733  12.400
25809W        W91069  22.496  12.867  11.122
25810W        W91070  36.601   8.380   3.305
25811W        W91071  10.676  32.802  12.604
25812W        W91072  11.857  38.158  12.089
25813W        W91073   0.838  14.914  11.191
25814W        W91074  26.515  30.396   1.867
25815W        W91075  12.293  12.759   2.751
25816W        W91076  31.197   7.387  13.603
25817W        W91077  16.318  44.842   4.743
25818W        W91078   4.435  29.469   1.787
25819W        W91079  43.500  32.346  11.631
25820W        W91080   3.872   9.173   2.762
25821W        W91081  33.015  40.562  11.032
25822W        W91082  37.338  33.533  13.546
25823W        W91083  30.982  11.170  11.214
25824W        W91084  36.635  30.714  14.403
25825W        W91085   7.335   3.493  14.990
25826W        W91086   5.487  42.243   1.425
25827W        W91087  10.787  36.288   0.794
25828W        W91088  23.717  17.234  10.685
25829W        W91089  23.529   2.755  12.081
25830W        W91090   0.522  14.815  14.573
25831W        W91091   9.079  30.406  13.259
25832W        W91092  38.897  28.225  12.394
25833W        W91093   5.908  13.372  11.536
25834W        W91094  36.647  38.822  11.167
25835W        W91095  31.811  31.053  10.602
25836W        W91096  31.336  27.269  14.948
25837W        W91097  43.012  28.746   0.248
25838W        W91098   0.290  39.351   0.002
25839W        W91099  18.618  42.557  11.660
25840W        W91100  22.259  14.563   1.485
25841W        W91101   2.899  31.206  13.526
25842W        W91102   5.132   6.820   3.826
25843W        W91103  40.797   5.659   3.774
25844W        W91104  25.082  23.587   1.339
25845W        W91105  25.998  32.960  13.539
25846W        W91106  29.214   1.266  11.492
25847W        W91107  17.338   8.583  13.577
25848W        W91108  23.857  14.700   1.185
25849W        W91109  26.277  10.812   0.766
25850W        W91110   5.189  35.379  14.045
25851W        W91111  10.415  38.827   2.095
25852W        W91112  12.149  32.908   4.825
25853W        W91113  31.670  15.648   4.756
25854W        W91114  12.750  42.607   3.420
25855W        W91115   5.915  17.211   1.402
25856W        W91116   3.338  34.490  13.636
25857W        W91117  38.938  12.607  12.045
25858W        W91118  23.807  37.623  13.818
25859W        W91119   6.723  17.542  10.494
25860W        W91120  31.299  11.791  13.723
25861W        W91121  30.736  33.952  13.411
25862W        W91122  41.341  34.151   1.921
25863W        W91123  28.607  15.336   0.467
25864W        W91124  33.992  32.908  10.756
25865W        W91125  16.215  10.112  11.726
25866W        W91126   5.602   1.378   4.879
25867W        W91127   9.389  28.958  10.763
25868W        W91128  17.190  28.588  14.341
25869W        W91129  27.567  29.590   2.327
25870W        W91130  20.128   1.980   0.329
25871W        W91131  15.729  38.850  13.497
25872W        W91132  24.082   8.843   3.259
25873W        W91133  13.769  20.599   0.332
25874W        W91134  35.024  37.820  13.915
25875W        W91135  30.254  22.142  12.149
25876W        W91136  16.706  10.489   2.860
25877W        W91137  37.974  18.299   0.234
25878W        W91138  35.387   0.991  11.903
25879W        W91139  41.545  35.967   1.926
25880W        W91140  12.150   2.402   3.232
25881W        W91141   5.280  40.383  12.360
25882W        W91142  29.638  15.625  11.574
25883W        W91143  35.239  17.590   3.342
25884W        W91144  14.026  27.659  13.087
25885W        W91145  31.675  44.283   4.233
25886W        W91146  36.170  28.899  14.084
25887W        W91147  33.357  16.303  12.103
25888W        W91148  42.999   6.063   1.534
25889W        W91149  16.717  29.144  13.006
25890W        W91150  11.388  13.739   0.844
25891W        W91151   6.340  26.879  10.374
25892W        W91152  33.434  12.425   3.255
25893W        W91153  14.479   8.215  12.450
25894W        W91154  15.444   0.785  12.720
25895W        W91155   1.844  22.748  12.131
25896W        W91156  42.854  28.619   1.823
25897W        W91157  40.890  28.212   1.904
25898W        W91158  18.765  29.476   1.196
25899W        W91159   6.915  30.841   2.475
25900W        W91160  33.908   9.588  12.400
25901W        W91161  29.046  43.222  13.886
25902W        W91162  23.092  12.705   3.149
25903W        W91163  35.792  25.572   3.304
25904W        W91164  43.875  41.268   2.757
25905W        W91165   8.409  44.866  13.906
25906W        W91166  14.250  20.306  13.470
25907W        W91167  25.659   0.181   1.701
25908W        W91168  40.380  17.782  11.144
25909W        W91169   0.490   6.353  11.631
25910W        W91170  38.538  16.122  12.317
25911W        W91171   4.297  17.556   0.788
25912W        W91172  39.584   7.133  13.892
25913W        W91173   0.052  40.547  12.075
25914W        W91174  26.174  30.114   0.828
25915W        W91175  40.245  33.903   1.324
25916W        W91176  20.130  13.097   3.308
25917W        W91177  29.056  32.501  12.642
25918W        W91178  19.361  28.347   5.241
25919W        W91179   0.211  15.834  12.463
25920W        W91180  15.363  23.641  11.084
25921W        W91181  15.737  39.462   3.150
25922W        W91182  33.345  40.668   2.306
25923W        W91183  42.421  12.716  12.094
25924W        W91184  13.210  15.467   2.082
25925W        W91185  15.549  33.123   0.848
25926W        W91186   2.470  23.017   2.242
25927W        W91187  19.346   9.486  13.510
25928W        W91188   0.193  24.619  13.031
25929W        W91189  21.462  44.923   1.920
25930W        W91190  10.882  26.316  14.006
25931W        W91191  12.300  33.051   0.332
25932W        W91192  25.690  30.025   1.048
25933W        W91193  38.087  16.731   0.261
25934W        W91194  24.975  25.986   2.388
25935W        W91195  18.048  30.468  11.210
25936W        W91196   8.445   2.773   3.262
25937W        W91197   8.225  19.801  11.986
25938W        W91198  10.041   8.720   3.435
25939W        W91199   5.123  35.203  13.557
25940W        W91200  36.646  41.730   1.353
25941W        W91201  29.722   2.306   4.694
25942W        W91202  32.023   4.755  11.087
25943W        W91203  21.504  28.035  13.391
25944W        W91204  37.712  33.380   0.887
25945W        W91205  44.979  31.186  11.980
25946W        W91206  41.852  34.218   4.111
25947W        W91207  35.854  27.967  13.788
25948W        W91208   3.070  15.061  12.194
25949W        W91209   7.357   3.896  13.187
25950W        W91210   6.454   4.947   1.652
25951W        W91211  41.856  26.911  11.895
25952W        W91212  38.209  20.338   1.867
25953W        W91213  22.722  12.457  10.698
25954W        W91214  30.027  41.957  13.083
25955W        W91215  22.939  24.618   2.748
25956W        W91216  14.482  16.712   3.289
25957W        W91217  38.825  15.553  12.071
25958W        W91218  19.087  14.088  13.926
25959W        W91219  10.375  28.156  12.864
25960W        W91220  18.926   6.103   3.730
25961W        W91221   3.464   0.569   4.166
25962W        W91222  33.006   8.309   0.464
25963W        W91223  31.537  32.895  12.030
25964W        W91224   7.892  31.260   1.364
25965W        W91225   8.898  21.739   3.581
25966W        W91226  29.455  18.065   0.373
25967W        W91227  31.591   1.078  14.806
25968W        W91228  22.146  27.604  13.623
25969W        W91229  39.489  18.327  14.563
25970W        W91230  24.613  19.983  12.874
25971W        W91231  36.148  24.034   0.413
25972W        W91232   2.809  13.325   1.812
25973W        W91233  20.063  26.377   1.909
25974W        W91234  21.439   8.377   1.947
25975W        W91235  29.900  13.363  12.161
25976W        W91236  13.749  23.494   4.905
25977W        W91237  35.887  21.351   1.472
25978W        W91238  43.752  40.374  14.838
25979W        W91239   3.246  25.930  14.860
25980W        W91240  41.856  34.749   4.134
25981W        W91241   6.460   9.587  11.123
25982W        W91242  30.890  21.577  12.488
25983W        W91243  15.659  31.471   4.816
25984W        W91244  28.208  29.111  11.185
25985W        W91245   6.755  23.663   1.337
25986W        W91246  24.030  41.065  14.319
25987W        W91247  38.463  14.056  13.462
25988W        W91248  28.213   4.283  14.299
25989W        W91249  16.328   6.207  14.062
25990W        W91250   5.276  27.700   3.230
25991W        W91251  19.104  26.781   0.062
25992W        W91252  23.546  28.066   0.801
25993W        W91253  26.015  20.354   5.322
25994W        W91254  24.022  34.917  14.600
25995W        W91255  22.512  31.508  14.744
25996W        W91256   4.932  25.712   3.710
25997W        W91257  26.489  29.917   3.679
25998W        W91258  20.268  42.889   4.138
25999W        W91259  42.101  37.418  11.661
26000W        W91260  18.855  23.284  14.364
26001W        W91261   8.500  32.098   0.421
26002W        W91262  21.205  32.932   0.879
26003W        W91263   8.859  15.866   2.337
26004W        W91264  25.962   2.719  14.340
26005W        W91265  25.241   3.266  14.784
26006W        W91266  27.642  33.417   4.307
26007W        W91267  31.118  42.853   4.867
26008W        W91268  43.429  40.905   4.003
26009W        W91269   8.651  19.713   0.380
26010W        W91270   9.526  30.928  12.963
26011W        W91271  32.590  40.833   2.344
26012W        W91272  19.834   8.298   0.905
26013W        W91273  26.100   3.260  12.008
26014W        W91274  13.378  21.683  14.468
26015W        W91275  10.613   0.977   4.796
26016W        W91276  31.069   7.801  12.689
26017W        W91277   8.889   5.826  14.839
26018W        W91278   8.144  37.030  12.973
26019W        W91279  13.315  39.690   1.432
26020W        W91280  39.935  44.656   4.991
26021W        W91281  23.215  25.050  14.901
26022W        W91282  20.159  39.995   2.414
26023W        W91283  44.085  28.072  14.457
26024W        W91284  44.524  18.083   0.670
26025W        W91285  36.480  32.485  13.471
26026W        W91286  24.156  25.856   2.095
26027W        W91287  22.164  17.800  12.650
26028W        W91288   6.943  27.635   3.702
26029W        W91289  32.443  34.967  12.197
26030W        W91290  34.573   9.439  13.422
26031W        W91291  19.268  36.128   1.916
26032W        W91292  33.157   4.895   0.896
26033W        W91293   7.334  38.867   2.701
26034W        W91294  24.399  34.833   0.770
26035W        W91295  12.370  20.653   1.289
26036W        W91296  24.757  40.120  10.277
26037W        W91297  12.325   5.839  14.494
26038W        W91298  33.963  38.196  11.818
26039W        W91299  11.170   8.646   1.619
26040W        W91300  41.537   6.865  13.842
26041W        W91301   0.094  36.336  11.455
26042W        W91302  25.961  21.006  14.363
26043W        W91303  39.532   1.691   1.662
26044W        W91304  24.017  25.510   1.724
26045W        W91305  38.959  30.114  10.562
26046W        W91306  12.416  17.206  14.507
26047W        W91307  35.750  12.178  11.984
26048W        W91308   1.884  27.468   0.222
26049W        W91309  33.997  29.075   3.139
26050W        W91310   7.599  27.656   1.875
26051W        W91311  11.099  32.671  11.356
26052W        W91312  24.946  17.315   3.682
26053W        W91313  11.281   8.233  14.553
26054W        W91314  17.181  40.779  13.597
26055W        W91315  12.440  15.901  13.024
26056W        W91316   3.793  23.658   1.867
26057W        W91317   4.505   4.654  10.183
26058W        W91318  28.892  25.546   4.212
26059W        W91319  30.085  19.343  14.388
26060W        W91320  20.217  30.897   5.017
26061W        W91321  36.554  33.728   1.238
26062W        W91322   6.669  39.396  14.959
26063W        W91323   1.079  23.796   1.378
26064W        W91324  26.927  12.529  13.579
26065W        W91325  33.039  23.759   4.646
26066W        W91326  25.042  13.661   2.325
26067W        W91327  14.266  20.066  10.223
26068W        W91328  17.314   0.881   2.866
26069W        W91329  18.945  22.720  13.396
26070W        W91330  18.330   0.452   0.785
26071W        W91331  19.795  14.509   4.595
26072W        W91332  26.022  16.459   3.515
26073W        W91333  43.799  10.758  14.498
26074W        W91334   9.215  27.054   1.749
26075W        W91335  36.076  26.553   5.147
26076W        W91336   3.773  11.610   4.643
26077W        W91337   1.010  24.184  11.177
26078W        W91338  38.319  42.099   4.699
26079W        W91339  16.180  35.325  10.720
26080W        W91340  29.575   4.858  10.460
26081W        W91341  31.161  24.163   2.089
26082W        W91342   7.267   1.616  11.296
26083W        W91343  11.797  30.995   3.644
26084W        W91344   9.174  37.612   3.690
26085W        W91345   4.151  11.378   4.107
26086W        W91346  13.362   1.407   2.347
26087W        W91347  30.901  21.827  12.026
26088W        W91348  38.033  21.201   1.879
26089W        W91349  26.112  27.923   2.407
26090W        W91350  44.525  13.082   2.087
26091W        W91351  12.311  26.525   4.215
26092W        W91352  38.305  13.698   2.314
26093W        W91353  16.553  18.997   4.526
26094W        W91354  16.362  40.117   3.315
26095W        W91355  10.807   6.842  14.459
26096W        W91356  15.036   4.776  14.603
26097W        W91357   3.783  18.714   2.628
26098W        W91358  23.839  43.541   1.939
26099W        W91359  24.174  12.318  12.503
26100W        W91360  26.531  10.807   1.218
26101W        W91361   5.190  15.052   2.485
26102W        W91362   0.474  43.865   1.684
26103W        W91363   7.650  18.172  11.634
26104W        W91364  22.476  26.068   3.671
26105W        W91365  29.181   2.760   3.847
26106W        W91366   3.541  33.115  14.487
26107W        W91367  10.360  26.992  13.591
26108W        W91368  41.835  19.654  10.299
26109W        W91369  39.763  35.944   3.602
26110W        W91370  15.838   5.302  11.952
26111W        W91371  28.979  38.645  10.419
26112W        W91372  35.715  27.489   0.994
26113W        W91373  28.028  38.972  12.241
26114W        W91374  37.043   9.198  12.652
26115W        W91375  14.825  41.336  10.729
26116W        W91376  33.502  13.892   2.375
26117W        W91377  35.530   6.682  13.924
26118W        W91378  12.254  19.740  13.965
26119W        W91379   4.888   3.857  14.687
26120W        W91380  26.970  16.713  11.855
26121W        W91381  10.723   5.475  10.253
26122W        W91382  17.300  15.591  13.405
26123W        W91383  19.226  12.430   3.573
26124W        W91384  36.377   3.974  11.896
26125W        W91385   5.316  37.325  13.844
26126W        W91386  30.359  39.278   2.829
26127W        W91387  20.927   1.531  11.864
26128W        W91388  43.305   0.733  12.595
26129W        W91389  25.836  30.336  12.561
26130W        W91390  12.253  37.606   2.488
26131W        W91391   6.894  22.227  11.984
26132W        W91392  33.598  34.144   0.810
26133W        W91393  19.965  29.953  11.544
26134W        W91394   4.516  14.366  12.855
26135W        W91395  36.981  17.735   1.938
26136W        W91396  40.095  11.353   1.813
26137W        W91397  25.679   1.447   2.254
26138W        W91398   6.997  10.307  10.713
26139W        W91399  30.103  40.227  12.399
26140W        W91400  31.896  31.512   4.550
26141W        W91401  23.109   6.400   0.418
26142W        W91402   7.874  34.414  11.340
26143W        W91403  42.342  12.792   3.074
26144W        W91404  20.789  22.121  13.612
26145W        W91405  15.613  33.823  11.642
26146W        W91406  15.754  28.487   2.152
26147W        W91407  12.841  21.281   0.960
26148W        W91408  38.958  26.702  10.583
26149W        W91409  24.617  23.455  13.562
26150W        W91410  12.442  40.954   0.931
26151W        W91411   2.841  26.491   1.742
26152W        W91412  18.610   3.963  12.078
26153W        W91413  17.174   6.251   4.234
26154W        W91414  40.274  39.942   3.747
26155W        W91415  38.425   3.582  14.237
26156W        W91416  25.174  16.862   0.062
26157W        W91417   5.339   9.346  14.817
26158W        W91418   3.632   5.633   2.765
26159W        W91419  22.681  10.237   1.338
26160W        W91420  31.513  21.767   0.395
26161W        W91421  40.209  13.699  13.216
26162W        W91422   9.880  24.649   0.932
26163W        W91423  31.387  34.767  14.350
26164W        W91424   5.184  38.341   1.216
26165W        W91425   9.303  21.281   0.952
26166W        W91426  32.914  33.390   3.254
26167W        W91427  32.434  11.845  12.957
26168W        W91428   2.714  27.931   2.367
26169W        W91429  39.344  38.330   2.636
26170W        W91430   0.950  13.100   3.219
26171W        W91431   7.181   9.950  13.826
26172W        W91432  28.621  27.663  10.874
26173W        W91433  27.768  19.734   3.725
26174W        W91434  24.052  32.144   0.913
26175W        W91435  30.836  39.993   5.129
26176W        W91436  37.457  40.410   4.994
26177W        W91437   3.268  31.516   1.377
26178W        W91438   9.610  37.460   2.312
26179W        W91439  24.620  34.294   3.274
26180W        W91440  32.435  18.643  14.166
26181W        W91441  18.242  10.040   1.701
26182W        W91442  24.393  19.522  12.943
26183W        W91443   1.050   5.858   0.673
26184W        W91444   8.967  35.238   2.753
26185W        W91445  39.938  11.369  13.721
26186W        W91446  36.455  25.595   1.527
26187W        W91447  37.437  36.139   2.708
26188W        W91448  17.206  41.496  14.067
26189W        W91449  27.650  38.040  14.964
26190W        W91450  30.570  33.224  12.856
26191W        W91451  27.985  32.007   4.892
26192W        W91452  29.237  35.564   0.468
26193W        W91453  11.910   5.454   0.862
26194W        W91454  42.380  23.352   1.738
26195W        W91455  29.351  15.300   1.836
26196W        W91456   3.035   0.495  12.875
26197W        W91457  28.360   7.457   3.571
26198W        W91458  14.711  40.809   2.014
26199W        W91459  14.625   2.763  11.782
26200W        W91460  28.256  19.266  11.199
26201W        W91461   3.956  15.656  13.738
26202W        W91462  21.443   5.666   1.545
26203W        W91463  25.763  21.211   1.774
26204W        W91464  16.198  36.734  13.893
26205W        W91465   5.009   2.850  13.789
26206W        W91466   9.435  40.801   2.110
26207W        W91467  33.106  31.926   2.424
26208W        W91468  23.632  44.877  10.942
26209W        W91469  12.013  22.224   2.263
26210W        W91470  32.058  18.110   1.319
26211W        W91471  28.843  37.842  14.940
26212W        W91472  12.843  36.765  11.118
26213W        W91473  11.200  13.565  11.081
26214W        W91474  17.684  21.001   0.788
26215W        W91475  24.238  11.738   3.357
26216W        W91476  23.113  14.697  12.465
26217W        W91477  26.597  28.174   4.589
26218W        W91478  43.275  19.648   4.990
26219W        W91479  15.824  31.024   1.856
26220W        W91480   5.404  37.303  12.539
26221W        W91481  33.401   9.467  10.832
26222W        W91482  22.054  19.096  11.437
26223W        W91483  30.024   7.853   1.260
26224W        W91484  44.843  34.660   1.347
26225W        W91485  10.141   1.234   0.595
26226W        W91486  32.976   5.130   2.258
26227W        W91487  16.684  32.010   3.037
26228W        W91488  37.901  28.969  14.969
26229W        W91489  41.255   4.884   2.684
26230W        W91490  17.949  29.642  12.425
26231W        W91491  18.089  14.271   4.910
26232W        W91492  11.145   6.511  13.346
26233W        W91493  29.380  40.866   0.345
26234W        W91494  26.178  37.088   3.100
26235W        W91495  33.445  35.875   5.473
26236W        W91496  22.957   6.723  10.760
26237W        W91497  18.528   7.674   4.094
26238W        W91498  23.654   6.433  12.888
26239W        W91499  17.097  31.362   0.789
26240W        W91500   6.682  42.050  12.450
26241W        W91501  11.711  34.074  12.821
26242W        W91502   6.769  31.334   2.352
26243W        W91503  43.484  27.657   3.531
26244W        W91504  14.705   7.282   5.094
26245W        W91505  27.909  41.712  12.495
26246W        W91506  19.142  44.352  13.317
26247W        W91507  40.503  21.699  12.596
26248W        W91508  39.935  18.283  14.289
26249W        W91509  11.139   7.302   3.107
26250W        W91510  37.567   2.383  13.914
26251W        W91511   0.394  32.014   4.806
26252W        W91512  41.017   6.719  14.654
26253W        W91513   9.115  22.283   4.136
26254W        W91514  43.434  32.125   0.935
26255W        W91515  35.638  10.965   1.764
26256W        W91516  31.199  44.665  10.722
26257W        W91517   1.829   6.000   3.829
26258W        W91518  19.809  25.566  11.101
26259W        W91519  26.613  22.124  10.104
26260W        W91520  17.929  42.782   4.454
26261W        W91521   6.334   8.779  10.425
26262W        W91522   9.845  28.277   4.668
26263W        W91523   0.244  13.540   3.551
26264W        W91524   1.596  41.050   0.737
26265W        W91525   2.122  19.106  12.914
26266W        W91526  28.081  13.636  13.089
26267W        W91527   7.467  43.829   2.257
26268W        W91528  39.157  22.568   0.837
26269W        W91529  34.483  38.537  14.924
26270W        W91530  11.031  38.987   1.802
26271W        W91531  11.047  36.116  13.998
26272W        W91532  42.103  15.838  14.357
26273W        W91533   0.217  36.989   0.918
26274W        W91534  43.325  11.245   2.380
26275W        W91535  36.795  38.317   3.673
26276W        W91536  37.721  42.921   0.112
26277W        W91537  26.272  28.486  12.354
26278W        W91538  14.674  32.832  14.820
26279W        W91539  10.407  17.229  10.285
26280W        W91540   4.949  33.958  14.429
26281W        W91541   1.214  22.774  13.805
26282W        W91542  30.187  42.572   0.756
26283W        W91543   9.153   3.322   2.561
26284W        W91544  37.884  14.609   1.835
26285W        W91545  35.900  10.185  11.634
26286W        W91546  38.376  40.456  11.494
26287W        W91547  34.360  10.356  13.854
26288W        W91548  15.528  28.381   1.324
26289W        W91549  22.984  43.518  14.083
26290W        W91550  32.080  20.297  11.605
26291W        W91551  12.617  29.078   1.224
26292W        W91552  24.004  31.456   2.460
26293W        W91553  13.874   1.441  14.749
26294W        W91554  42.879  24.132  14.839
26295W        W91555  28.836  13.216   4.146
26296W        W91556   7.164  36.838  12.126
26297W        W91557  29.084  15.665  11.590
26298W        W91558   7.454  17.628   1.526
26299W        W91559  43.938  20.286  11.742
26300W        W91560  15.312  39.483  13.910
26301W        W91561  30.196  29.714   3.558
26302W        W91562  26.481  39.627   3.742
26303W        W91563  38.912  31.614   1.231
26304W        W91564  22.937  17.753  10.668
26305W        W91565  37.535  31.912  13.758
26306W        W91566  14.138  11.395   3.673
26307W        W91567  37.762  30.821   1.836
26308W        W91568  42.637  40.383   4.492
26309W        W91569  31.374  44.052   0.735
26310W        W91570  41.405  41.968  10.553
26311W        W91571  10.120  11.910  10.818
26312W        W91572   3.028   4.920   2.771
26313W        W91573   9.325   8.253   2.856
26314W        W91574  21.282   7.811   1.265
26315W        W91575  40.843  21.249  13.515
26316W        W91576  43.027   4.653  13.550
26317W        W91577  18.834  42.502  12.972
26318W        W91578  17.910  32.207  11.592
26319W        W91579  16.546   0.285   3.144
26320W        W91580  43.813   0.841  10.405
26321W        W91581  31.830  38.086  12.617
26322W        W91582  33.568  28.144  11.435
26323W        W91583  42.797  16.132   4.129
26324W        W91584  25.044  35.266  14.985
26325W        W91585   0.512  33.668  14.851
26326W        W91586  26.726  12.178   3.190
26327W        W91587   8.807  11.835  12.809
26328W        W91588   5.314  32.910  13.858
26329W        W91589   0.393  19.679   4.697
26330W        W91590  30.003  24.116   3.800
26331W        W91591   3.397  18.247  14.476
26332W        W91592  40.262  44.736  13.893
26333W        W91593  15.531   9.248   2.564
26334W        W91594  34.917  25.975   1.827
26335W        W91595  12.046   9.804   3.817
26336W        W91596  12.470  43.870  11.428
26337W        W91597  22.245   4.729   2.779
26338W        W91598  37.303  27.458   3.666
26339W        W91599  10.607  41.469  14.961
26340W        W91600  23.008   3.844   0.169
26341W        W91601  29.103  29.770   4.643
26342W        W91602   0.858  10.422   0.917
26343W        W91603  36.956  14.837   1.844
26344W        W91604   4.989  39.854   2.795
26345W        W91605  40.514  25.617  10.691
26346W        W91606  35.107  24.248  11.867
26347W        W91607  33.261   8.661   0.990
26348W        W91608  27.936  14.806   9.956
26349W        W91609  14.555  27.397  10.691
26350W        W91610  44.369   2.673  14.879
26351W        W91611  37.490  37.074   2.413
26352W        W91612  22.289  34.492   0.843
26353W        W91613  43.315  29.055  12.461
26354W        W91614   3.786  41.154  14.030
26355W        W91615  41.035  30.458  10.682
26356W        W91616  22.929   3.304   4.686
26357W        W91617   5.813  41.910   4.636
26358W        W91618   4.848  21.052   3.834
26359W        W91619  38.557  41.321  11.037
26360W        W91620  21.664  31.230   1.313
26361W        W91621   3.697  23.577   0.523
26362W        W91622  43.537  17.527   3.598
26363W        W91623  11.391  11.403   4.053
26364W        W91624   7.136  38.835  12.507
26365W        W91625  22.103  14.651  13.512
26366W        W91626  41.570  14.987  13.893
26367W        W91627   5.514  17.583   4.200
26368W        W91628  39.845   1.942  12.029
26369W        W91629  23.469   7.665   3.675
26370W        W91630  39.533  30.091   0.825
26371W        W91631   9.229  35.224   0.960
26372W        W91632  16.319   4.771  11.672
26373W        W91633  27.258  16.804   2.931
26374W        W91634  21.156  12.034  13.109
26375W        W91635  11.396  33.639  14.500
26376W        W91636   3.905  32.929  14.091
26377W        W91637  15.127  16.458  14.880
26378W        W91638   6.414  31.090  12.034
26379W        W91639  27.243   8.812   1.628
26380W        W91640  14.279   8.242   0.815
26381W        W91641  37.045   0.208   0.550
26382W        W91642   6.643  34.214   4.198
26383W        W91643  40.889  31.166   0.545
26384W        W91644  26.104   7.034  14.636
26385W        W91645  28.952   0.095  12.396
26386W        W91646  14.156   3.620   4.374
26387W        W91647  20.201  21.343   3.742
26388W        W91648   7.464  34.948  13.501
26389W        W91649  11.844  21.372   3.555
26390W        W91650  10.067  16.795  13.351
26391W        W91651  22.121  22.260  13.928
26392W        W91652  29.956  31.850  10.468
26393W        W91653  35.776  39.971  10.577
26394W        W91654  44.271  15.654  14.367
26395W        W91655  32.651  42.024   3.199
26396W        W91656  24.509  33.923   1.265
26397W        W91657  26.143   4.180  12.102
26398W        W91658  28.802  14.653   1.088
26399W        W91659  20.021  10.926  10.386
26400W        W91660   2.408   5.255  11.860
26401W        W91661  14.483  29.702  13.745
26402W        W91662  21.095  43.457  11.461
26403W        W91663   3.860  41.106  11.942
26404W        W91664  28.546  35.060  11.658
26405W        W91665  43.419  25.439   5.008
26406W        W91666   3.855  13.304   3.287
26407W        W91667  19.205   5.797   0.368
26408W        W91668  30.590  36.513   0.460
26409W        W91669  44.456  15.187   0.392
26410W        W91670  19.471   5.338  13.522
26411W        W91671  16.875   3.172  13.104
26412W        W91672  21.203  42.801   4.122
26413W        W91673  19.691  24.731   4.153
26414W        W91674  14.816  18.724  13.878
26415W        W91675   2.068   5.707   4.178
26416W        W91676  19.648   7.677   4.022
26417W        W91677  32.860   6.207  11.953
26418W        W91678  36.238  31.063   2.777
26419W        W91679  27.992  27.029  12.942
26420W        W91680  39.498  28.614  11.981
26421W        W91681  20.770  13.218   1.813
26422W        W91682   0.293  32.996   2.770
26423W        W91683   8.252  44.973  13.409
26424W        W91684  11.949  17.128   1.503
26425W        W91685  44.481  41.265   0.744
26426W        W91686  30.615  15.550   1.909
26427W        W91687  31.309  11.797   4.526
26428W        W91688  40.356  30.582   2.616
26429W        W91689  35.083  20.278   1.432
26430W        W91690  23.534  35.006  13.373
26431W        W91691   2.812  36.036  11.442
26432W        W91692  36.561   9.799  13.551
26433W        W91693  36.416  31.648   3.200
26434W        W91694  28.094  18.176   2.278
26435W        W91695  42.866   9.324   4.236
26436W        W91696   5.167  10.595  11.980
26437W        W91697  42.580  41.870  11.945
26438W        W91698   7.469   2.419   4.118
26439W        W91699  20.327  25.674  13.463
26440W        W91700  26.666  16.180  14.910
26441W        W91701  16.021  35.024   0.429
26442W        W91702   8.687  33.431  11.509
26443W        W91703  35.178   7.075  13.977
26444W        W91704  39.483  13.879   3.091
26445W        W91705  22.927   4.988  13.336
26446W        W91706  32.389  38.733  14.994
26447W        W91707  39.983  21.264   0.473
26448W        W91708   6.927  29.644  12.356
26449W        W91709   8.273  13.309  12.617
26450W        W91710  43.041  27.110   1.641
26451W        W91711  44.304   9.300   1.679
26452W        W91712  15.606  44.368   3.971
26453W        W91713  16.814  41.937  14.881
26454W        W91714   7.730  27.188   2.781
26455W        W91715  44.826  19.297  10.555
26456W        W91716   0.400  21.944  11.885
26457W        W91717   5.131  40.218   4.189
26458W        W91718  19.170  10.300   1.219
26459W        W91719   1.935   8.231   3.739
26460W        W91720  16.524  41.105   0.984
26461W        W91721  31.438  18.627  12.608
26462W        W91722  15.760  36.989  13.776
26463W        W91723  19.617  18.143  13.444
26464W        W91724   3.409  33.133   0.416
26465W        W91725  39.229  22.932   4.868
26466W        W91726  27.883   2.135  10.485
26467W        W91727  11.716  17.263   2.874
26468W        W91728  25.633  24.979   1.848
26469W        W91729  41.015  23.153   2.806
26470W        W91730  19.681  36.113   0.267
26471W        W91731  23.547  41.057   1.481
26472W        W91732  43.352   0.372  10.550
26473W        W91733  13.690  43.495   0.877
26474W        W91734  17.604  21.680   3.688
26475W        W91735   4.919  14.694  10.311
26476W        W91736  41.286   1.558   2.345
26477W        W91737  28.687  18.751  13.751
26478W        W91738   6.677   6.983  12.533
26479W        W91739  18.109  29.071   1.868
26480W        W91740  31.531   0.057   4.583
26481W        W91741  16.305  28.554  13.518
26482W        W91742  29.074  27.767  11.138
26483W        W91743  30.672  38.861   0.373
26484W        W91744   5.635  32.952  13.380
26485W        W91745  40.897   3.526  12.069
26486W        W91746  16.827  12.278  14.558
26487W        W91747  25.604  26.332  14.275
26488W        W91748  22.698  42.878  14.727
26489W        W91749  16.075  44.627  11.177
26490W        W91750  38.288   4.522  13.364
26491W        W91751  25.973  22.510   1.682
26492W        W91752  28.189  39.824   2.226
26493W        W91753  25.875  29.113  11.311
26494W        W91754  13.159  27.292   1.231
26495W        W91755  36.606  41.319   3.646
26496W        W91756  41.460   1.191   2.046
26497W        W91757  44.578  25.636   1.650
26498W        W91758  37.823   4.903  14.598
26499W        W91759  29.237  40.125  12.464
26500W        W91760  41.117  23.752   0.392
26501W        W91761  29.613  24.275  12.529
26502W        W91762   4.688  27.965   1.215
26503W        W91763  19.286  40.812  14.517
26504W        W91764  15.400   0.852   0.327
26505W        W91765  23.473  27.148  14.454
26506W        W91766   9.950  14.988   2.833
26507W        W91767  20.290  39.543  12.893
26508W        W91768   7.758  10.203   4.184
26509W        W91769  33.349  34.900   2.676
26510W        W91770  27.289   5.875  14.401
26511W        W91771  37.403  24.237  14.945
26512W        W91772   8.821  31.299  12.524
26513W        W91773   6.930  39.801   3.967
26514W        W91774  37.647  31.041   5.091
26515W        W91775  41.021   9.890   4.614
26516W        W91776   9.603   3.114  14.009
26517W        W91777  14.644  10.585   3.614
26518W        W91778  40.421  27.380   1.749
26519W        W91779  42.831   2.474   4.946
26520W        W91780   8.682  42.276  11.186
26521W        W91781  26.198  23.105  10.755
26522W        W91782   6.290   9.603   1.842
26523W        W91783  17.710  15.284   0.618
26524W        W91784  10.854  39.006   2.316
26525W        W91785   5.948   6.431  12.485
26526W        W91786  14.777  30.587   3.156
26527W        W91787   0.608  32.035   5.279
26528W        W91788  27.882  21.715   2.488
26529W        W91789   1.263  13.382   0.766
26530W        W91790  11.171  11.944  13.878
26531W        W91791  40.003  10.712   0.009
26532W        W91792  20.963  44.933   1.981
26533W        W91793  24.487  40.296   2.304
26534W        W91794  27.473  41.469  12.693
26535W        W91795  32.969  26.283  12.212
26536W        W91796  14.298  38.683   2.212
26537W        W91797  43.535  20.279  14.183
26538W        W91798  40.961  27.966  10.655
26539W        W91799  24.570   0.434  11.384
26540W        W91800  16.216  21.298   0.488
26541W        W91801  13.993  27.473   5.133
26542W        W91802   0.929  37.809   2.555
26543W        W91803  11.910   7.244  13.385
26544W        W91804  36.602  18.071  13.394
26545W        W91805  27.130  19.746   4.090
26546W        W91806  31.566  43.053   4.728
26547W        W91807  23.898  32.495  14.415
26548W        W91808  44.274   3.833  10.918
26549W        W91809  34.583  35.859   3.231
26550W        W91810  20.235  12.471   3.535
26551W        W91811  44.337  38.057  12.421
26552W        W91812  27.448  10.909   2.477
26553W        W91813  12.710  32.883  14.475
26554W        W91814  29.392  15.598  12.002
26555W        W91815  29.477  37.682  13.424
26556W        W91816  26.978  33.549  12.406
26557W        W91817  21.387  12.207   4.524
26558W        W91818  19.606  12.141  14.337
26559W        W91819  24.385  23.532   2.413
26560W        W91820   6.447   2.282  10.509
26561W        W91821   7.505  23.062  12.066
26562W        W91822   5.828  38.947  10.061
26563W        W91823  23.738  41.397   1.823
26564W        W91824  25.528  22.503   0.911
26565W        W91825  41.492  33.898   2.340
26566W        W91826  36.938  38.202  10.696
26567W        W91827  30.953   9.747  11.566
26568W        W91828  33.907  30.871   1.269
26569W        W91829   3.860   9.244  14.116
26570W        W91830  13.270   1.239   3.263
26571W        W91831  13.539   6.443  12.338
26572W        W91832  41.273  33.338   3.223
26573W        W91833  10.921  28.323  11.056
26574W        W91834  21.013  21.403   3.654
26575W        W91835  23.724   4.959  14.390
26576W        W91836   9.631  42.456   3.088
26577W        W91837  30.525   9.318   3.562
26578W        W91838   7.812  26.111   3.599
26579W        W91839  29.554  24.542   3.156
26580W        W91840  24.675  33.134   2.170
26581W        W91841  22.267  22.525   2.827
26582W        W91842  44.294   1.927  12.919
26583W        W91843  36.131  27.641  14.078
26584W        W91844   3.842  20.597   2.285
26585W        W91845  27.292   7.283   1.427
26586W        W91846  25.023   8.221   0.702
26587W        W91847   3.946  43.017   4.242
26588W        W91848  12.573  13.193   3.620
26589W        W91849  27.795  30.655  13.455
26590W        W91850   2.347  32.094   0.762
26591W        W91851  33.522  16.616  12.488
26592W        W91852  43.291   1.706   1.210
26593W        W91853  42.033   7.935   1.900
26594W        W91854  20.615  35.188   2.381
26595W        W91855  13.079  38.952   4.573
26596W        W91856  16.962  42.404  10.631
26597W        W91857   1.825  36.268   4.091
26598W        W91858  35.339  22.089  11.246
26599W        W91859  22.207  33.628   0.698
26600W        W91860   0.903  39.902   0.262
26601W        W91861  18.737  24.681  13.510
26602W        W91862   1.722   1.487   2.649
26603W        W91863  34.657   3.434  14.402
26604W        W91864  30.388  40.294  14.486
26605W        W91865   5.207  28.949  14.904
26606W        W91866  35.822  17.200   2.669
26607W        W91867  24.042   8.958   4.779
26608W        W91868  23.004  17.774   2.787
26609W        W91869  33.484   5.313   3.409
26610W        W91870   0.284   0.243   4.110
26611W        W91871   6.335  22.637   3.092
26612W        W91872  36.438   5.672   2.169
26613W        W91873   6.482  18.625   0.453
26614W        W91874   1.140  11.445  13.522
26615W        W91875  43.154  33.282   5.027
26616W        W91876  11.245  30.590   1.268
26617W        W91877  15.494   0.296  13.430
26618W        W91878  28.494  37.916  11.485
26619W        W91879  29.306  36.465  11.208
26620W        W91880  28.423  13.651  11.674
26621W        W91881  29.000   2.021  14.856
26622W        W91882   4.674   8.140   0.175
26623W        W91883  10.006  27.313   9.737
26624W        W91884  35.360  30.069  13.540
26625W        W91885  17.162  42.023  10.303
26626W        W91886  39.018  30.090   2.590
26627W        W91887   1.500  32.586  14.063
26628W        W91888  28.370  20.304  12.614
26629W        W91889   7.154  16.767  10.739
26630W        W91890  40.493  25.987  13.999
26631W        W91891  20.064   0.055   0.926
26632W        W91892  14.762  38.913   0.991
26633W        W91893  17.988  26.656   4.904
26634W        W91894  22.912  40.714   0.655
26635W        W91895  27.305  10.825  12.960
26636W        W91896  27.818  28.267   2.046
26637W        W91897  36.271  22.601   2.193
26638W        W91898  30.976   2.330   2.308
26639W        W91899   4.773  17.993  14.024
26640W        W91900  23.203  24.760   0.332
26641W        W91901   9.499  22.573   3.774
26642W        W91902  10.177   2.225   1.459
26643W        W91903  44.960  34.367  12.970
26644W        W91904  40.870  43.823  14.515
26645W        W91905  25.988  17.485  14.888
26646W        W91906   5.323  12.229  11.642
26647W        W91907   2.843  13.087   2.315
26648W        W91908   3.723  30.518   1.374
26649W        W91909  14.352  19.723  14.313
26650W        W91910  16.386  20.777   2.964
26651W        W91911  15.861  28.972   2.325
26652W        W91912   9.188  16.973   1.830
26653W        W91913   7.914  26.887  12.231
26654W        W91914  23.958   9.898  10.315
26655W        W91915   3.970   8.372   2.383
26656W        W91916  39.049  10.143  10.863
26657W        W91917   1.726  15.807  11.452
26658W        W91918  32.349  19.280   3.378
26659W        W91919  39.308  22.832  12.107
26660W        W91920  43.366  44.285   2.295
26661W        W91921   4.289   1.542   2.750
26662W        W91922  14.426   9.538  12.258
26663W        W91923  13.831  30.058   4.616
26664W        W91924   2.851  32.444   3.175
26665W        W91925  29.987  42.581  11.167
26666W        W91926  15.884  14.390  11.579
26667W        W91927  44.022  30.020  12.053
26668W        W91928  44.440   0.014  12.501
26669W        W91929  15.246   2.003   4.151
26670W        W91930  17.510   2.212  12.599
26671W        W91931  21.726   8.379  14.942
26672W        W91932   4.529  22.261   4.154
26673W        W91933  43.483  35.419   1.916
26674W        W91934  21.499  13.307  13.124
26675W        W91935  15.025  16.089   2.816
26676W        W91936  27.874  15.718  12.157
26677W        W91937  43.861  31.922  11.916
26678W        W91938   7.161  37.870  13.970
26679W        W91939   2.329  11.365  13.377
26680W        W91940   8.435   9.825  14.378
26681W        W91941   1.871  31.884   1.640
26682W        W91942  43.446  41.985   3.924
26683W        W91943  42.358  43.958   1.782
26684W        W91944  27.450  12.578  14.377
26685W        W91945  41.262  26.202  14.470
26686W        W91946  41.998   4.752   4.974
26687W        W91947  35.150  42.113  10.722
26688W        W91948  28.551  40.939  12.525
26689W        W91949  37.530  19.530   3.625
26690W        W91950  21.180  17.593  10.276
26691W        W91951  31.066  22.899  10.489
26692W        W91952   6.120   0.587   2.270
26693W        W91953   9.796  20.944  12.071
26694W        W91954  26.962  20.885  13.815
26695W        W91955  35.270  39.633  13.002
26696W        W91956  11.809  18.833   2.302
26697W        W91957   9.829  27.574  11.430
26698W        W91958  32.817  20.831   2.899
26699W        W91959   9.612   6.466  14.972
26700W        W91960   6.820  41.893   1.804
26701W        W91961   6.947  34.528  14.313
26702W        W91962  21.124   7.688   3.226
26703W        W91963   6.641  43.735  13.814
26704W        W91964  22.728  28.418   0.504
26705W        W91965  27.506  13.274   0.238
26706W        W91966  37.582   0.029   1.177
26707W        W91967  11.388  19.820   4.939
26708W        W91968  26.066   9.087  12.043
26709W        W91969  24.406  40.330  11.917
26710W        W91970  36.575   5.228  11.509
26711W        W91971  37.259  38.318  12.081
26712W        W91972  35.363  28.102  11.588
26713W        W91973   4.202  12.709   2.743
26714W        W91974   3.546   3.348   5.025
26715W        W91975  11.923   2.035  11.689
26716W        W91976   8.258  39.558  13.562
26717W        W91977   0.003  28.590  12.527
26718W        W91978  13.335  25.851   1.672
26719W        W91979  23.977   4.795  13.447
26720W        W91980  27.201  19.507   0.274
26721W        W91981  21.502  10.654  14.927
26722W        W91982  33.576  19.657  14.888
26723W        W91983  14.324  31.007  14.788
26724W        W91984   0.887  44.757  12.311
26725W        W91985  17.498   4.701   2.280
26726W        W91986   7.784   0.002   0.743
26727W        W91987  42.507  18.717   0.028
26728W        W91988  28.650  23.969   0.471
26729W        W91989  29.475  37.428  12.566
26730W        W91990  25.094  44.953   3.331
26731W        W91991   3.604  41.555   0.542
26732W        W91992  18.580   6.675  12.131
26733W        W91993  27.007  32.851  11.134
26734W        W91994   6.378  14.585   2.697
26735W        W91995  22.530  15.529   1.257
26736W        W91996  36.963  40.405   3.957
26737W        W91997  11.392   9.218  14.469
26738W        W91998  22.537  44.030   3.736
26739W        W91999  44.337   5.682  11.668
26740W        W92000  43.839  39.843   0.212
26741W        W92001  44.496  39.556   1.957
26742W        W92002  32.245  39.800  12.228
26743W        W92003  16.868  38.451  14.020
26744W        W92004  40.964  33.556  11.620
26745W        W92005  11.098  16.106  10.680
26746W        W92006   8.113  38.924  10.697
26747W        W92007  13.874  11.169   0.101
26748W        W92008   3.795  18.200   2.752
26749W        W92009  42.033   3.902   0.747
26750W        W92010  10.721  21.290  12.464
26751W        W92011  10.119  31.098   2.313
26752W        W92012  40.405  44.498  13.454
26753W        W92013   3.738  23.582  10.941
26754W        W92014  29.230  28.077   3.890
26755W        W92015  25.083   0.932   4.245
26756W        W92016  11.601  36.892   3.129
26757W        W92017  44.761  13.037   2.775
26758W        W92018  40.999  39.971   0.530
26759W        W92019  37.855  14.375  12.341
26760W        W92020  15.918  34.918   4.106
26761W        W92021  35.257  43.174  12.881
26762W        W92022  36.155  14.995  13.591
26763W        W92023  19.867  41.843   4.572
26764W        W92024  40.859   7.082   0.875
26765W        W92025   8.606   6.272  12.222
26766W        W92026   8.878  31.682   0.900
26767W        W92027  34.987  42.455   2.265
26768W        W92028  21.596   6.401   3.503
26769W        W92029  44.793   7.311   4.242
26770W        W92030  41.164  23.319  11.714
26771W        W92031   6.367  39.359   1.627
26772W        W92032  13.642  42.004  12.453
26773W        W92033  43.650   0.378  11.567
26774W        W92034  36.049  21.388   5.064
26775W        W92035  20.998  40.312   4.026
26776W        W92036  36.297  39.230   0.025
26777W        W92037  32.159  30.147  12.059
26778W        W92038  12.143  14.460  13.925
26779W        W92039  32.113  42.441  10.958
26780W        W92040  10.227  23.200  12.905
26781W        W92041  27.602  11.265  13.144
26782W        W92042  20.331   7.251   2.773
26783W        W92043   8.822  41.560  11.923
26784W        W92044   8.589  44.288   0.631
26785W        W92045  26.579   8.886   2.065
26786W        W92046   2.771  21.486  14.770
26787W        W92047   2.386  36.933  10.664
26788W        W92048  44.593   8.512  13.812
26789W        W92049   8.218  31.405  11.869
26790W        W92050  33.670  26.718  13.347
26791W        W92051  14.716  12.000  14.392
26792W        W92052  40.992  35.045   3.172
26793W        W92053  19.560  28.082  14.290
26794W        W92054  23.474   5.072   1.342
26795W        W92055   1.757  15.058  12.063
26796W        W92056  10.616   3.469   3.667
26797W        W92057  44.818  24.077   2.181
26798W        W92058   9.384  16.432  14.930
26799W        W92059   4.207  29.784   4.713
26800W        W92060  26.012  25.438  11.266
26801W        W92061  14.301  41.365   3.872
26802W        W92062  12.810   1.013  14.401
26803W        W92063  12.316  20.281  14.274
26804W        W92064  12.419  13.725   3.695
26805W        W92065   6.354  32.697   3.112
26806W        W92066  11.055   3.333  14.390
26807W        W92067  12.733  34.931  14.310
26808W        W92068  37.403   5.905  13.314
26809W        W92069  13.166  15.346  12.436
26810W        W92070  16.528  18.627   2.809
26811W        W92071  30.862   3.952  12.864
26812W        W92072   4.698   3.512  12.778
26813W        W92073  44.055   0.925   4.595
26814W        W92074   5.911  43.599  14.939
26815W        W92075  16.988  28.699   4.607
26816W        W92076  26.192  31.597  10.739
26817W        W92077   6.835  40.207  12.882
26818W        W92078  27.700  20.411  12.911
26819W        W92079  11.742  10.830  12.574
26820W        W92080   0.943  22.967  12.534
26821W        W92081   9.376   1.929  12.025
26822W        W92082   1.884  22.313  13.501
26823W        W92083  14.876   1.501  14.855
26824W        W92084  23.099  24.701   2.259
26825W        W92085  33.132   9.938  13.733
26826W        W92086  35.136  18.137   3.311
26827W        W92087  25.317   3.465  10.479
26828W        W92088   6.204  38.948   3.399
26829W        W92089  19.434  42.424  10.437
26830W        W92090  17.141  27.169   3.702
26831W        W92091   5.438  13.067   3.592
26832W        W92092  13.836  13.799  14.332
26833W        W92093  36.175  43.760   1.876
26834W        W92094  41.898  21.198   0.413
26835W        W92095  26.543   7.841   2.259
26836W        W92096  28.132  21.976  12.007
26837W        W92097  17.764  23.987   0.943
26838W        W92098  37.755   6.390   1.360
26839W        W92099  31.949  44.848   4.923
26840W        W92100  37.335  43.770  10.604
26841W        W92101  20.185   4.940  13.331
26842W        W92102   0.854  10.137  13.158
26843W        W92103   9.513   9.376  12.055
26844W        W92104  25.031  42.355  13.373
26845W        W92105   4.637  40.479  13.448
26846W        W92106  41.799  19.050   3.393
26847W        W92107  40.316   9.069  12.508
26848W        W92108  15.329   8.522  14.896
26849W        W92109   4.290  20.511  10.806
26850W        W92110  34.958  15.615   9.767
26851W        W92111  34.543  17.838   2.478
26852W        W92112   7.370  16.087   2.718
26853W        W92113   5.973  20.291   3.306
26854W        W92114  42.484  39.659  10.853
26855W        W92115  15.417   3.231   4.427
26856W        W92116  36.830  15.621   3.711
26857W        W92117  22.659   9.681  13.422
26858W        W92118   9.140   8.677   2.619
26859W        W92119  15.387  29.094   5.019
26860W        W92120  27.420   3.084  10.080
26861W        W92121  25.182  12.748   0.415
26862W        W92122  18.832   9.115  14.294
26863W        W92123  31.886  34.972  12.676
26864W        W92124   3.907  11.828  13.906
26865W        W92125  36.303  30.564  12.205
26866W        W92126   2.609  23.570  11.499
26867W        W92127  18.112  15.686   1.355
26868W        W92128  13.625  36.428  14.911
26869W        W92129   4.115  32.912  12.122
26870W        W92130   6.973  24.159   4.127
26871W        W92131  31.406  14.849   3.764
26872W        W92132  32.709  40.879  13.617
26873W        W92133  43.860   0.332   4.009
26874W        W92134  16.480   3.531   0.906
26875W        W92135  11.016  44.431  12.914
26876W        W92136  42.839   4.828  11.229
26877W        W92137  40.362  23.091   0.264
26878W        W92138  18.616   2.310   4.299
26879W        W92139   1.967  34.172   1.222
26880W        W92140  10.869  23.066   2.363
26881W        W92141   9.894  28.095  11.644
26882W        W92142  20.540   7.952   2.224
26883W        W92143  33.395  37.804  13.654
26884W        W92144  14.593  32.856  11.097
26885W        W92145  28.089  25.260   3.065
26886W        W92146   3.218  39.450  14.905
26887W        W92147   0.822  40.084  14.201
26888W        W92148  44.491  14.673   3.665
26889W        W92149  30.704  22.354   2.648
26890W        W92150  19.070  29.664   0.809
26891W        W92151  15.296  30.620   3.287
26892W        W92152   3.472  27.746  12.441
26893W        W92153  14.750  12.196  13.042
26894W        W92154  42.783  17.749  10.655
26895W        W92155  13.247  32.319  12.725
26896W        W92156   8.147  33.107   3.262
26897W        W92157  23.138  36.693   0.463
26898W        W92158   0.885  37.866   0.330
26899W        W92159   6.930  25.941   0.490
26900W        W92160   6.835  28.367  14.845
26901W        W92161  23.235  25.541  14.050
26902W        W92162  18.864  27.980  14.878
26903W        W92163  20.218  36.826  10.619
26904W        W92164  37.512  36.587   2.118
26905W        W92165  10.616  12.146   3.238
26906W        W92166   2.863  13.691  11.497
26907W        W92167  16.292  40.980  13.322
26908W        W92168   2.028   0.276   3.656
26909W        W92169  30.644  21.336  13.060
26910W        W92170  41.770  24.534   3.336
26911W        W92171  23.749  17.275   2.162
26912W        W92172  35.636  26.537   2.449
26913W        W92173  10.295  36.903   0.410
26914W        W92174  32.103  44.201  11.571
26915W        W92175  34.540   4.709   3.194
26916W        W92176   0.520  39.480   0.972
26917W        W92177  30.181  30.246  13.054
26918W        W92178  21.704   1.455   2.847
26919W        W92179  18.349   5.940   0.020
26920W        W92180   4.334  15.338   3.518
26921W        W92181  28.238  33.671   2.197
26922W        W92182  17.772  12.749  13.901
26923W        W92183   7.130  22.176   3.579
26924W        W92184  24.525   8.556   3.227
26925W        W92185  21.212  20.497   5.502
26926W        W92186  39.991  35.555   3.909
26927W        W92187  44.292  24.230   4.624
26928W        W92188  32.477  38.221   0.049
26929W        W92189  43.535  30.407   3.828
26930W        W92190   7.662  24.935  10.947
26931W        W92191   4.995   8.946  13.427
26932W        W92192  34.627   7.750  14.499
26933W        W92193  30.686   4.139  11.164
26934W        W92194  39.065  14.030   4.132
26935W        W92195  29.427  29.474  12.246
26936W        W92196  15.129  44.454   2.388
26937W        W92197   8.319  42.881   3.711
26938W        W92198   3.142  12.485  10.471
26939W        W92199  41.880  20.150   2.456
26940W        W92200  43.394  20.810   3.095
26941W        W92201  29.382  44.302   2.936
26942W        W92202   8.921  33.625  13.569
26943W        W92203   7.922  43.993  13.472
26944W        W92204   9.761  20.208  11.134
26945W        W92205  26.583  31.829  11.122
26946W        W92206  37.824  25.121   4.652
26947W        W92207  32.115  37.292   2.668
26948W        W92208  24.563  23.024  13.942
26949W        W92209  20.819  20.791   4.757
26950W        W92210  21.686  43.211  12.915
26951W        W92211  40.270  43.832   0.785
26952W        W92212  18.988  23.404   4.177
26953W        W92213   1.193  17.704   3.155
26954W        W92214  11.279  26.502  14.737
26955W        W92215  34.553   0.466   1.045
26956W        W92216   8.313  12.602   0.377
26957W        W92217  21.184  27.392   3.411
26958W        W92218  23.593   6.765   2.711
26959W        W92219  41.447  26.700  10.673
26960W        W92220  28.847   8.808   5.081
26961W        W92221   7.159  44.775  14.344
26962W        W92222  29.534  26.512   0.811
26963W        W92223  21.121  38.388   0.741
26964W        W92224   3.818  36.636   4.242
26965W        W92225  30.361  30.810  12.668
26966W        W92226  32.305  15.771  10.297
26967W        W92227  11.262  22.107   2.472
26968W        W92228  30.198   3.357   2.239
26969W        W92229  35.615  41.302  12.969
26970W        W92230  17.431  33.550  11.658
26971W        W92231  16.591   1.638   1.873
26972W        W92232  36.956  22.127   1.663
26973W        W92233  25.524   9.071  13.612
26974W        W92234  43.313  16.494  13.452
26975W        W92235  26.900  10.317   2.825
26976W        W92236  21.185  32.569   1.643
26977W        W92237   3.291  38.981  14.734
26978W        W92238  21.937  21.143  14.429
26979W        W92239  15.123  32.807   0.737
26980W        W92240  31.961   0.808  12.897
26981W        W92241  10.375  25.043  14.525
26982W        W92242  18.998  26.323   0.235
26983W        W92243  15.561  16.748   2.367
26984W        W92244   3.892  35.572  14.310
26985W        W92245  38.406  10.837   1.552
26986W        W92246  37.853  30.360  12.437
26987W        W92247  34.959  20.784   0.577
26988W        W92248  29.671   7.802   4.743
26989W        W92249   5.413  34.084  11.160
26990W        W92250  37.283  29.027   3.723
26991W        W92251  35.877  20.598  12.897
26992W        W92252  23.240  26.624  12.148
26993W        W92253  30.636  39.515  11.746
26994W        W92254  17.321  22.639   1.310
26995W        W92255  22.073  17.506   4.165
26996W        W92256  33.740   3.246   4.574
26997W        W92257   8.922  11.552   2.310
26998W        W92258  20.056  25.146  13.395
26999W        W92259  10.922  33.572  14.302
27000W        W92260   4.506  27.833  13.957
27001W        W92261  39.351   7.526   1.404
27002W        W92262   5.895  30.386  14.897
27003W        W92263  35.146  16.551   3.033
27004W        W92264  33.882  27.917   3.692
27005W        W92265   2.553  42.465  10.985
27006W        W92266  18.404  28.049  11.980
27007W        W92267  38.553  27.186  12.916
27008W        W92268   9.634  13.477   2.198
27009W        W92269  38.080  24.891   5.045
27010W        W92270  21.171  29.465  13.445
27011W        W92271  35.611   6.891  13.043
27012W        W92272  43.358  40.288   1.648
27013W        W92273   5.424  32.113  12.045
27014W        W92274  27.069  11.713   0.463
27015W        W92275  42.896  10.659   5.179
27016W        W92276   3.746  20.516  12.399
27017W        W92277   7.506  36.894   0.443
27018W        W92278  42.401  29.729   1.332
27019W        W92279  35.300   7.968  10.985
27020W        W92280   9.425  18.951  11.992
27021W        W92281   8.371  29.322   3.223
27022W        W92282  39.493  17.079  12.478
27023W        W92283  17.726  28.683  14.007
27024W        W92284  17.923  21.158  11.731
27025W        W92285  35.061  32.664   3.379
27026W        W92286  13.805  11.387   1.478
27027W        W92287  39.489  19.744   1.934
27028W        W92288  41.540  14.315  13.395
27029W        W92289  37.066  33.063   1.282
27030W        W92290  11.386  21.479  11.079
27031W        W92291  41.997  31.339  13.239
27032W        W92292  18.665  24.037  12.803
27033W        W92293   3.761  12.871   2.359
27034W        W92294   3.402  44.699   3.413
27035W        W92295   8.736  20.119   0.745
27036W        W92296   7.166  30.963  14.010
27037W        W92297  15.014  24.586  14.249
27038W        W92298  29.955  30.569   1.400
27039W        W92299   8.369  12.266   2.216
27040W        W92300  41.829  26.114  13.419
27041W        W92301  25.938  38.341   1.772
27042W        W92302   7.186  17.909   2.665
27043W        W92303   1.530  14.750   0.450
27044W        W92304   3.621  14.794   3.051
27045W        W92305  32.194   5.474  11.538
27046W        W92306  20.860   8.221   3.398
27047W        W92307  37.351  42.698   3.390
27048W        W92308  34.578   4.649  10.670
27049W        W92309   4.887  36.056  13.422
27050W        W92310   8.600  14.896   4.318
27051W        W92311  42.425  44.747   1.397
27052W        W92312   9.299   4.906  11.105
27053W        W92313   8.084  21.394   1.464
27054W        W92314  18.111  29.980  11.175
27055W        W92315   2.105  34.403   3.967
27056W        W92316  40.940  21.353  12.221
27057W        W92317   9.810  24.190  10.314
27058W        W92318   6.465  29.930  13.158
27059W        W92319  19.832   9.407  13.410
27060W        W92320   0.348   4.327   2.206
27061W        W92321  21.562  11.657   2.392
27062W        W92322  43.442  17.779   3.156
27063W        W92323  26.492  26.074  12.298
27064W        W92324  36.926  23.395   2.317
27065W        W92325  37.526  37.137   1.468
27066W        W92326   4.029  10.661  13.507
27067W        W92327  21.620  17.535  14.401
27068W        W92328  34.474  12.990  11.898
27069W        W92329  22.095   2.516   0.269
27070W        W92330  22.401   8.134  11.976
27071W        W92331  24.193  20.440  11.636
27072W        W92332  36.432  32.159   4.520
27073W        W92333   0.843   7.721  11.667
27074W        W92334  20.979  34.548  12.390
27075W        W92335  34.167  26.766   4.462
27076W        W92336  25.999  25.954  11.609
27077W        W92337  39.338  26.059   0.512
27078W        W92338   3.854  43.555  14.832
27079W        W92339  22.938  44.988  12.072
27080W        W92340  20.037   2.465   1.889
27081W        W92341  36.336  19.311   2.218
27082W        W92342  12.213  42.762   2.783
27083W        W92343   4.398  25.566  11.964
27084W        W92344  33.579  36.293   0.256
27085W        W92345   5.810  27.455   1.261
27086W        W92346  15.056  39.084   2.471
27087W        W92347  38.408  29.562  12.949
27088W        W92348  43.308  26.928   0.703
27089W        W92349   5.861  11.535  11.059
27090W        W92350  38.399  44.725   2.606
27091W        W92351  39.297  27.557   2.889
27092W        W92352   6.794  22.266  12.500
27093W        W92353   7.866  30.417  11.393
27094W        W92354  14.254  13.721  12.361
27095W        W92355  43.120  28.022  11.394
27096W        W92356  44.835   3.914   1.706
27097W        W92357  32.361   3.806   2.647
27098W        W92358   3.314   9.769  13.002
27099W        W92359  29.707   0.337   2.129
27100W        W92360   5.250  23.019   0.940
27101W        W92361  37.886  24.149   2.737
27102W        W92362  33.911  27.986   0.082
27103W        W92363  43.033   9.862  13.335
27104W        W92364   0.556  44.407  12.983
27105W        W92365   2.886  40.420   4.561
27106W        W92366   1.809  18.007   4.159
27107W        W92367  10.506  44.273   0.585
27108W        W92368  17.496   2.848  11.226
27109W        W92369  17.014  40.369  13.107
27110W        W92370  32.010  35.143  11.487
27111W        W92371  30.958  31.120   2.394
27112W        W92372   7.608   6.345   1.231
27113W        W92373  34.043  18.523   0.333
27114W        W92374  10.850  16.526   0.970
27115W        W92375  43.794  37.474   1.934
27116W        W92376  43.867  35.737   2.410
27117W        W92377  11.793  29.704   0.080
27118W        W92378  30.078   9.722  13.891
27119W        W92379   2.748  35.011  14.556
27120W        W92380   7.578  37.840  12.218
27121W        W92381  44.676  39.431   3.193
27122W        W92382  41.940  40.573  10.191
27123W        W92383  21.324   5.300  13.994
27124W        W92384  37.580  26.754  10.582
27125W        W92385  31.612  34.693   3.287
27126W        W92386  37.514   3.697   1.869
27127W        W92387   3.192  38.578   0.042
27128W        W92388  13.933  14.708  11.633
27129W        W92389  11.901   8.655  12.330
27130W        W92390  29.923  17.657  12.528
27131W        W92391  37.942  18.950  13.491
27132W        W92392   7.895   4.697   1.701
27133W        W92393  35.089  11.554   2.173
27134W        W92394  28.964  37.565   0.362
27135W        W92395  37.388   4.389  13.548
27136W        W92396  41.555  36.004  13.027
27137W        W92397  25.981  40.943  13.580
27138W        W92398  10.707  42.406  12.558
27139W        W92399  42.978  31.356   3.282
27140W        W92400  30.982  41.860   0.820
27141W        W92401  41.211   3.811  10.738
27142W        W92402  19.633  23.724  12.593
27143W        W92403  15.536  42.830  14.159
27144W        W92404  10.776  33.331  14.735
27145W        W92405  39.109  39.050  10.209
27146W        W92406  30.114   1.016   1.906
27147W        W92407  35.105   4.822   1.303
27148W        W92408  24.389  23.196  11.068
27149W        W92409  36.294  36.949   4.070
27150W        W92410  38.883  20.950  13.474
27151W        W92411   3.485  27.890   1.701
27152W        W92412  19.095  25.170   4.105
27153W        W92413  34.116  25.163   3.669
27154W        W92414  14.130  21.739   2.773
27155W        W92415  10.036   4.363  11.569
27156W        W92416  41.101   3.798  11.665
27157W        W92417   6.450  10.716  13.793
27158W        W92418   7.927  44.703  13.954
27159W        W92419  34.161  39.432  12.361
27160W        W92420  19.187   7.877   3.968
27161W        W92421   7.056  35.188   2.361
27162W        W92422  38.748   9.194   1.415
27163W        W92423  20.246  32.419  12.420
27164W        W92424  24.233  13.454  12.072
27165W        W92425  27.990  26.198   3.229
27166W        W92426   7.715  15.276   1.020
27167W        W92427  10.383  35.550  12.029
27168W        W92428  23.047  17.170  12.444
27169W        W92429  35.556  27.032   0.800
27170W        W92430  34.781   0.658  11.142
27171W        W92431  22.297  16.888   1.418
27172W        W92432  11.774   2.474  13.642
27173W        W92433  22.027   3.003  13.532
27174W        W92434  15.877  23.605  11.126
27175W        W92435  23.473  29.610  11.526
27176W        W92436  25.513   9.370  14.048
27177W        W92437  41.709  38.462   1.485
27178W        W92438  15.732  42.968   2.681
27179W        W92439  14.694  18.136   2.833
27180W        W92440  11.490  42.005   3.459
27181W        W92441  35.337  17.134  14.484
27182W        W92442  38.871  16.188  10.480
27183W        W92443  15.601   2.688  11.748
27184W        W92444  33.087  38.776   1.156
27185W        W92445  37.719  42.966   3.601
27186W        W92446  43.867  34.375   0.107
27187W        W92447   7.282  18.976   4.015
27188W        W92448   8.133  21.997   0.065
27189W        W92449   3.396  32.193   3.710
27190W        W92450  39.536  17.811   3.588
27191W        W92451  42.370   1.037   0.934
27192W        W92452  35.942  37.813  12.912
27193W        W92453  34.458  41.278  11.661
27194W        W92454  38.803  40.864   0.399
27195W        W92455   1.392  12.674  12.617
27196W        W92456   4.292  29.645  12.494
27197W        W92457  16.068  13.036  11.469
27198W        W92458  26.619  39.929   0.333
27199W        W92459   3.887  10.975  11.521
27200W        W92460  14.279   4.073  11.754
27201W        W92461   8.812   7.144  11.641
27202W        W92462  29.368  41.933  12.567
27203W        W92463  30.181  20.231   0.891
27204W        W92464  24.544   7.501   1.839
27205W        W92465  40.107  11.614  12.423
27206W        W92466  34.624  30.541   1.069
27207W        W92467  33.860  24.577  13.493
27208W        W92468  42.488  13.016   4.654
27209W        W92469   3.350  41.336   4.737
27210W        W92470  17.732  40.019  14.525
27211W        W92471  31.043  31.563   3.554
27212W        W92472  25.738  19.110  12.900
27213W        W92473  13.453  43.785  14.460
27214W        W92474  42.847  10.459   3.599
27215W        W92475  20.501  10.796  13.504
27216W        W92476  11.675  18.444   3.242
27217W        W92477  36.016  20.777   3.268
27218W        W92478  19.460  23.745   3.383
27219W        W92479  43.090  19.312   4.612
27220W        W92480   3.910  37.950   1.510
27221W        W92481   4.248   1.475  14.673
27222W        W92482  30.936  30.618   3.763
27223W        W92483  27.121  23.953   2.140
27224W        W92484  43.848  41.442   1.803
27225W        W92485   8.476  24.191  11.607
27226W        W92486  30.897   8.750   1.107
27227W        W92487   4.255  16.550   4.616
27228W        W92488  25.225  30.270   1.079
27229W        W92489   6.201  29.283  11.958
27230W        W92490  21.217  35.011   1.611
27231W        W92491  32.433  29.049   0.381
27232W        W92492  29.159  28.563   3.141
27233W        W92493  20.277  19.021  11.845
27234W        W92494  12.285  26.005   4.229
27235W        W92495   2.427  37.863  13.254
27236W        W92496  24.036   5.590  11.604
27237W        W92497  11.983   4.851  11.571
27238W        W92498  44.747  25.621   3.368
27239W        W92499  29.733  31.492  13.556
27240W        W92500  31.771   5.680  12.359
27241W        W92501  26.683  14.855   5.125
27242W        W92502  14.544  11.806  12.680
27243W        W92503  10.388   1.253  13.566
27244W        W92504  16.581  24.036  12.877
27245W        W92505   0.408   2.345  13.780
27246W        W92506  25.082  22.289   4.325
27247W        W92507  12.105  34.451   3.815
27248W        W92508  44.836  16.264   4.597
27249W        W92509  34.529  28.020  13.360
27250W        W92510  22.969  44.102  10.658
27251W        W92511  37.269   1.707   2.705
27252W        W92512  27.275  30.203  11.666
27253W        W92513  33.209  18.865   3.366
27254W        W92514   4.672  23.690  11.650
27255W        W92515   0.716  31.613   2.300
27256W        W92516  32.476   2.160  13.523
27257W        W92517  18.685  12.213   3.281
27258W        W92518   6.133  30.845  14.782
27259W        W92519  24.226   8.040  10.402
27260W        W92520  26.178  30.213  13.565
27261W        W92521  19.257  25.176  13.878
27262W        W92522   2.402  16.042   2.244
27263W        W92523  37.911   9.776   0.892
27264W        W92524  24.662  17.321   3.211
27265W        W92525  32.283  13.865   1.891
27266W        W92526  19.706  26.853   1.256
27267W        W92527  10.011  13.131   2.642
27268W        W92528  34.046  12.153  10.407
27269W        W92529  15.059  12.644  12.381
27270W        W92530   4.622   0.316   2.365
27271W        W92531  20.571  39.574  10.709
27272W        W92532  39.488   0.554  12.579
27273W        W92533   7.005  31.598   0.907
27274W        W92534  15.646   2.831  11.265
27275W        W92535  39.812  22.558  12.108
27276W        W92536  18.500  25.460  14.046
27277W        W92537   6.507  25.486  13.464
27278W        W92538  24.067  31.024  12.565
27279W        W92539  17.284  43.282   3.823
27280W        W92540  21.661  29.493   0.004
27281W        W92541  14.839  37.061  14.912
27282W        W92542  13.630  26.622   1.179
27283W        W92543  23.087   3.352   3.109
27284W        W92544  32.461  10.361   3.337
27285W        W92545  44.920  39.776   2.153
27286W        W92546   0.232  16.824   3.193
27287W        W92547  39.645  44.429   4.566
27288W        W92548  43.803  35.947  12.207
27289W        W92549  14.080  13.071  11.049
27290W        W92550   3.075  26.152   0.288
27291W        W92551  14.861   5.938  12.508
27292W        W92552  38.346   1.351   2.251
27293W        W92553  12.352  27.756  11.839
27294W        W92554  27.991  39.834  11.527
27295W        W92555   7.794  19.680   3.867
27296W        W92556  22.152  31.623  13.441
27297W        W92557   1.656   1.926   4.505
27298W        W92558  11.972   6.264  10.567
27299W        W92559   9.318  33.644  11.853
27300W        W92560  11.666  20.993   3.242
27301W        W92561  11.830  30.660   3.206
27302W        W92562   2.818  17.007   1.715
27303W        W92563   1.182  20.510  13.222
27304W        W92564  14.066  12.106  13.890
27305W        W92565  38.560  26.529   4.915
27306W        W92566  17.036  43.870  13.045
27307W        W92567  26.582  32.477   3.634
27308W        W92568  29.951  13.349   1.887
27309W        W92569  43.650   5.798  13.781
27310W        W92570  42.427  22.210  11.816
27311W        W92571  23.085  11.649   4.714
27312W        W92572  14.591  24.935   2.699
27313W        W92573  44.074  44.550   1.468
27314W        W92574  33.151  43.956  11.236
27315W        W92575   9.443  28.359  11.547
27316W        W92576  39.792  32.878  12.608
27317W        W92577  19.555  18.630   2.788
27318W        W92578  21.978  12.885   3.244
27319W        W92579   5.706  32.506   0.690
27320W        W92580   5.853  27.212  10.300
27321W        W92581  34.426  33.261   1.806
27322W        W92582  17.623  24.484  14.259
27323W        W92583  41.574  25.134  13.726
27324W        W92584   1.543  10.127   3.205
27325W        W92585  26.777  10.840   3.642
27326W        W92586   6.868  38.931   2.323
27327W        W92587  24.716  12.422  14.740
27328W        W92588  30.067  44.976  14.974
27329W        W92589  35.301  23.329  12.224
27330W        W92590  19.737   1.294  11.101
27331W        W92591  11.334  16.094   4.071
27332W        W92592  18.642  16.703  13.763
27333W        W92593   8.953   2.387  10.585
27334W        W92594  39.120  41.148   2.088
27335W        W92595   8.546   3.029   2.831
27336W        W92596  24.254  11.289   2.749
27337W        W92597  41.503  15.824  12.048
27338W        W92598  15.232   1.001  11.900
27339W        W92599  30.813  42.235  14.123
27340W        W92600  29.690  42.409   0.651
27341W        W92601  29.004  26.533   0.342
27342W        W92602   3.328   2.003   1.675
27343W        W92603  43.836  36.417  11.042
27344W        W92604   1.218   2.708  13.014
27345W        W92605   0.699  13.883  11.484
27346W        W92606  19.788  30.125   1.017
27347W        W92607  36.559  40.902   3.295
27348W        W92608  11.265  43.663  14.453
27349W        W92609  14.683   5.640   0.123
27350W        W92610  16.029   5.939   4.197
27351W        W92611  33.604  13.349  14.096
27352W        W92612  40.255  24.589   1.816
27353W        W92613  44.798  43.011  10.995
27354W        W92614  20.761   7.718  10.673
27355W        W92615  20.695  40.991   3.868
27356W        W92616  35.571  29.342   1.904
27357W        W92617  14.512  39.323   0.799
27358W        W92618  42.563  40.563  10.903
27359W        W92619  15.818  18.807  12.531
27360W        W92620  22.079  40.845  13.420
27361W        W92621  36.924  31.620   0.019
27362W        W92622  13.974  23.867   5.243
27363W        W92623  17.576  36.455   3.340
27364W        W92624  32.265  17.550  14.605
27365W        W92625  13.737  40.298  10.521
27366W        W92626  35.516  24.029   4.852
27367W        W92627  13.985  15.853  13.473
27368W        W92628  23.162   0.429   4.132
27369W        W92629  16.301   6.340   0.757
27370W        W92630  15.735  18.636   4.096
27371W        W92631   9.738  43.767   0.753
27372W        W92632  24.472  16.651   0.507
27373W        W92633   6.265  34.417  10.677
27374W        W92634  22.514  20.629  13.740
27375W        W92635  15.078   3.750   4.543
27376W        W92636  29.748  44.481   2.003
27377W        W92637  14.765  18.036  12.408
27378W        W92638  44.344   4.991  13.447
27379W        W92639  44.286   1.382   1.359
27380W        W92640  43.287  44.695   1.201
27381W        W92641  10.714  43.362  10.709
27382W        W92642  17.028  24.251  11.435
27383W        W92643   7.801  31.005   3.202
27384W        W92644  28.047  38.095   3.151
27385W        W92645  40.233   7.235  12.563
27386W        W92646  42.116  34.662   5.005
27387W        W92647   7.977  11.859  13.866
27388W        W92648   8.616  24.875   2.362
27389W        W92649  27.215   9.191   3.825
27390W        W92650  32.008  21.959   4.242
27391W        W92651  14.804  21.286   4.041
27392W        W92652  44.460  32.901   4.989
27393W        W92653   4.456  20.251  12.270
27394W        W92654  17.379   9.767   3.617
27395W        W92655  25.042  41.009  11.571
27396W        W92656  33.122  18.191   4.559
27397W        W92657  34.454   4.089   1.204
27398W        W92658  15.630  10.856  12.418
27399W        W92659  19.583   2.203  11.740
27400W        W92660  17.598  18.797  10.716
27401W        W92661  26.072  44.655   1.405
27402W        W92662  36.568  40.847  14.867
27403W        W92663  10.259   7.725   2.073
27404W        W92664   6.930  15.759   2.311
27405W        W92665  35.564  43.410   4.297
27406W        W92666  13.642   1.250   4.475
27407W        W92667  11.137  43.129   1.844
27408W        W92668  37.844  20.222  10.710
27409W        W92669  15.298  29.238   4.194
27410W        W92670   8.292   9.271   9.690
27411W        W92671  37.909  40.908   2.575
27412W        W92672   5.681  17.077  13.168
27413W        W92673   5.804   4.946  12.038
27414W        W92674  17.514  40.996   4.394
27415W        W92675  29.087  15.490  12.848
27416W        W92676  35.953  25.264   3.678
27417W        W92677  43.442  39.960  10.011
27418W        W92678  12.822  38.002   2.260
27419W        W92679  18.220  38.027   4.750
27420W        W92680  21.703  31.677   2.237
27421W        W92681  20.836  44.797  12.995
27422W        W92682   0.530   0.048  14.662
27423W        W92683  18.556  13.784   1.678
27424W        W92684  14.782  39.885   4.016
27425W        W92685   8.916  38.873   1.220
27426W        W92686  37.855  34.092  14.011
27427W        W92687   6.427  33.493   4.960
27428W        W92688   1.655   6.302  14.450
27429W        W92689  44.512   5.873   1.814
27430W        W92690  36.425  23.353   1.742
27431W        W92691   2.869  37.040  10.465
27432W        W92692  41.935  16.674  14.987
27433W        W92693   5.251  19.766  13.295
27434W        W92694  35.022  29.478   4.549
27435W        W92695  40.107  31.761   3.473
27436W        W92696   7.383   1.754   0.762
27437W        W92697  38.048  11.966  11.936
27438W        W92698  34.445  23.387   4.947
27439W        W92699  32.023  24.379   4.636
27440W        W92700  29.375  36.017   3.670
27441W        W92701  22.161  13.644   0.422
27442W        W92702  21.295   8.681  14.893
27443W        W92703  43.990  20.626   0.900
27444W        W92704  44.237  32.177   3.603
27445W        W92705   8.623   5.897   3.213
27446W        W92706  36.776  28.026  12.654
27447W        W92707  26.790  27.161  11.121
27448W        W92708  33.579  36.545   2.718
27449W        W92709  33.558  44.946   0.285
27450W        W92710   7.774   9.284  12.147
27451W        W92711  21.011  20.555  10.990
27452W        W92712   6.092  38.893   4.304
27453W        W92713   2.965  14.655  14.070
27454W        W92714  40.134  35.076  14.301
27455W        W92715  41.696  37.654   2.184
27456W        W92716  21.103  36.890  14.760
27457W        W92717  36.238  30.898   0.366
27458W        W92718  13.595  13.601   4.193
27459W        W92719  44.301  43.078  10.783
27460W        W92720   4.845  17.629  12.789
27461W        W92721  21.450   0.799   4.489
27462W        W92722   4.794  29.397   0.971
27463W        W92723  14.730  28.259  13.983
27464W        W92724  17.125  29.108   2.628
27465W        W92725  19.250   6.482   2.629
27466W        W92726   9.243  22.317   0.826
27467W        W92727   9.504  18.071   1.327
27468W        W92728  34.769   2.468   3.296
27469W        W92729  20.708  26.331   3.068
27470W        W92730  15.614  25.053   0.468
27471W        W92731  30.409  26.852   0.022
27472W        W92732   5.180   3.515  14.954
27473W        W92733  33.189  34.647  10.996
27474W        W92734  16.877  16.331   9.681
27475W        W92735  39.344   8.636   3.373
27476W        W92736  19.444   7.889   2.609
27477W        W92737  31.722  24.412  13.985
27478W        W92738  22.663  19.098   0.777
27479W        W92739  12.659  23.087   3.862
27480W        W92740  20.265  28.570  14.552
27481W        W92741  34.690  20.234  13.998
27482W        W92742  16.507  37.242  12.087
27483W        W92743  33.545  30.461   1.219
27484W        W92744  38.296  26.670   2.366
27485W        W92745  34.511  40.581  11.802
27486W        W92746   8.398  43.901   3.265
27487W        W92747  33.741   6.753   0.045
27488W        W92748  28.042   8.935   1.070
27489W        W92749  16.526  44.294  13.451
27490W        W92750   3.793  32.339  10.242
27491W        W92751  13.331  14.834  10.515
27492W        W92752  24.452  32.969  10.698
27493W        W92753  39.041  15.887  14.822
27494W        W92754  21.669  42.694  12.835
27495W        W92755  16.639  24.514   1.696
27496W        W92756  10.373  19.986   4.074
27497W        W92757   4.644  22.170  14.082
27498W        W92758   0.895  18.293   1.454
27499W        W92759  30.822   2.015   3.649
27500W        W92760  16.658  26.446   1.253
27501W        W92761  31.590   0.979   4.636
27502W        W92762  38.306   9.899  13.847
27503W        W92763   4.969  37.440   1.761
27504W        W92764  32.849   7.777  12.860
27505W        W92765   0.287  29.174   0.488
27506W        W92766   7.627  32.771  11.686
27507W        W92767  30.894   6.866  12.501
27508W        W92768  21.249  32.873  13.800
27509W        W92769   0.734  40.832   2.322
27510W        W92770   9.713  43.019  13.082
27511W        W92771   2.833  18.173  11.278
27512W        W92772  43.874  14.101   9.796
27513W        W92773  18.666  22.576   5.065
27514W        W92774  19.203  14.822  14.471
27515W        W92775   3.317   8.797  12.538
27516W        W92776  11.533  35.805  11.889
27517W        W92777  10.590  42.009  13.456
27518W        W92778   2.153  19.374   0.752
27519W        W92779   0.483  25.938  13.378
27520W        W92780  14.647  12.091   1.681
27521W        W92781  25.718   3.289  14.952
27522W        W92782  26.795  17.745  10.137
27523W        W92783  20.648  35.890  13.452
27524W        W92784   3.469  22.747   3.095
27525W        W92785   9.974  24.883  11.506
27526W        W92786  26.365  40.835   0.515
27527W        W92787  26.450  27.404   0.235
27528W        W92788  19.149  40.321   4.507
27529W        W92789  25.907   8.116  11.121
27530W        W92790  37.135  24.179   0.423
27531W        W92791  13.913  43.785   2.718
27532W        W92792  15.444  10.682   3.209
27533W        W92793   2.160  29.158  11.243
27534W        W92794   9.475  25.874   1.319
27535W        W92795  31.320  30.719   2.501
27536W        W92796  33.846  31.621   0.057
27537W        W92797  10.585  41.367   1.765
27538W        W92798  17.893  14.969   2.416
27539W        W92799  42.880  13.795   4.599
27540W        W92800  27.047  33.392   0.829
27541W        W92801  16.883  35.383  12.153
27542W        W92802  40.900  10.583  11.277
27543W        W92803  19.574  34.892   0.712
27544W        W92804  23.233  29.158  11.625
27545W        W92805  10.808  42.672   0.428
27546W        W92806  34.098   0.912  11.637
27547W        W92807  17.863  13.590   3.219
27548W        W92808   0.320  17.434  11.785
27549W        W92809  17.541  36.577   1.938
27550W        W92810  15.155   7.583  11.492
27551W        W92811  44.609  42.378  12.937
27552W        W92812  43.539   2.964   4.607
27553W        W92813   3.003  11.212   0.748
27554W        W92814  44.544   9.874   3.773
27555W        W92815  36.891  25.989  13.724
27556W        W92816  31.472  43.367  13.919
27557W        W92817  12.780  19.055  12.413
27558W        W92818   7.493  41.531  11.669
27559W        W92819  20.552  13.931  11.532
27560W        W92820  11.861  27.893   0.040
27561W        W92821   6.274   7.296   0.789
27562W        W92822  26.486  41.682   2.767
27563W        W92823  32.330  12.873   1.664
27564W        W92824   8.170   3.665   4.586
27565W        W92825  43.744  22.688   2.330
27566W        W92826  10.400  40.922  13.151
27567W        W92827   5.841  18.734  10.926
27568W        W92828  35.638  21.105  10.447
27569W        W92829  34.369  18.973  14.402
27570W        W92830  19.838  13.736   4.416
27571W        W92831  26.708  40.779   4.739
27572W        W92832  42.939   9.328  11.989
27573W        W92833  32.173  18.843   2.598
27574W        W92834  27.431  24.281  14.748
27575W        W92835   2.723  29.098   2.858
27576W        W92836  32.525  36.084   2.611
27577W        W92837  34.811  12.214   1.336
27578W        W92838  35.771  42.885   1.409
27579W        W92839  22.811   8.248  11.126
27580W        W92840   8.179  19.175   0.468
27581W        W92841  24.998  25.390  11.927
27582W        W92842   1.722   7.924   2.467
27583W        W92843  26.009  19.735  14.668
27584W        W92844  12.405   2.799   0.783
27585W        W92845  23.730  41.885  14.073
27586W        W92846  31.640  44.449   2.309
27587W        W92847  28.328  40.065  10.283
27588W        W92848  17.191  18.382   1.787
27589W        W92849  40.404  29.667   0.387
27590W        W92850  33.026   5.619  11.513
27591W        W92851  40.954  29.510   1.386
27592W        W92852  15.129   7.383  13.127
27593W        W92853   4.405  43.934   3.282
27594W        W92854  19.807  12.193  10.545
27595W        W92855  21.593  22.815  11.503
27596W        W92856  31.604  30.155   3.253
27597W        W92857  33.541  27.432  13.333
27598W        W92858  16.809   7.977  14.016
27599W        W92859   8.996  43.792  12.137
27600W        W92860  38.625  39.582   1.738
27601W        W92861  22.561  20.267   0.434
27602W        W92862   8.437  15.933  14.545
27603W        W92863  44.287   3.194  14.894
27604W        W92864  21.750  16.514   3.396
27605W        W92865   5.289   6.268  13.798
27606W        W92866  37.577   8.743  13.537
27607W        W92867  11.742  14.400  11.899
27608W        W92868  25.865   8.207   2.757
27609W        W92869   0.348   7.077  12.860
27610W        W92870  25.948  10.466   4.812
27611W        W92871   3.301   7.736  12.861
27612W        W92872  25.234  18.488   2.684
27613W        W92873  37.987  30.652   1.407
27614W        W92874  38.200  37.652   2.904
27615W        W92875  19.319  44.391   1.204
27616W        W92876  19.623  19.811   1.260
27617W        W92877   5.502   2.990  12.492
27618W        W92878  24.719  25.647  10.690
27619W        W92879  44.519  21.136   3.297
27620W        W92880  25.436   6.832  13.564
27621W        W92881  26.922  44.249  12.443
27622W        W92882   0.565  19.657  13.150
27623W        W92883   3.191  14.221  12.344
27624W        W92884  43.948  36.664  12.621
27625W        W92885   7.496  14.848  10.560
27626W        W92886  32.986  29.634   3.275
27627W        W92887  37.850  10.240  13.879
27628W        W92888   2.445  28.935   3.961
27629W        W92889  11.533   1.493   1.163
27630W        W92890   0.711  35.055   1.894
27631W        W92891   5.221  44.317   3.264
27632W        W92892  27.032   3.020   1.787
27633W        W92893  22.193   5.408  13.623
27634W        W92894  43.949  13.240  13.532
27635W        W92895  19.523  18.573  11.958
27636W        W92896  36.644  24.119   1.330
27637W        W92897  14.676  35.278  11.613
27638W        W92898  29.238   0.505   2.752
27639W        W92899  29.984   8.885   1.363
27640W        W92900  15.304  21.545  11.600
27641W        W92901  44.260  14.446  14.799
27642W        W92902   5.308  12.851   4.192
27643W        W92903  30.898  14.249   4.673
27644W        W92904  18.756  37.451   4.068
27645W        W92905  25.655   3.345   4.632
27646W        W92906  14.858  13.810   0.333
27647W        W92907  30.645  21.503  11.098
27648W        W92908  17.798  28.135  13.972
27649W        W92909   7.834   7.194  13.784
27650W        W92910   8.782   6.771  12.429
27651W        W92911  21.715   1.907  12.723
27652W        W92912  15.455   1.730  10.343
27653W        W92913  20.822  32.464  13.198
27654W        W92914  35.510   0.464  14.045
27655W        W92915  34.104   7.565   4.118
27656W        W92916   7.416  43.992  13.284
27657W        W92917   8.679  32.648   2.160
27658W        W92918  37.457   2.969   2.350
27659W        W92919   1.861  28.613   0.372
27660W        W92920  33.951   5.395  12.986
27661W        W92921  28.108  12.552  14.994
27662W        W92922  10.351  17.092   3.872
27663W        W92923   0.848  34.857   4.586
27664W        W92924   6.216  28.764  11.854
27665W        W92925   1.423  19.403  14.809
27666W        W92926  28.910  14.449   0.453
27667W        W92927  32.061  33.159  11.226
27668W        W92928   2.195  32.362  14.926
27669W        W92929  32.099  28.584  11.430
27670W        W92930  10.860   7.955   2.650
27671W        W92931  34.733  39.349  13.606
27672W        W92932   0.184  41.559   2.345
27673W        W92933  22.485  19.303   4.745
27674W        W92934  11.024  38.082  12.427
27675W        W92935   3.841  18.534   4.720
27676W        W92936  38.445  21.179  13.782
27677W        W92937   4.361   0.164  13.577
27678W        W92938   1.313  43.938   2.378
27679W        W92939  23.326  13.059   0.961
27680W        W92940  16.665  29.697  12.369
27681W        W92941  25.711   5.724  13.438
27682W        W92942   4.338   8.910   0.455
27683W        W92943  29.105  32.631   0.492
27684W        W92944  31.014  31.629  11.292
27685W        W92945  14.908  23.509  12.482
27686W        W92946  13.945  14.094  13.896
27687W        W92947  36.354  36.944   0.954
27688W        W92948  41.754   4.324   4.777
27689W        W92949  21.615  40.031   4.949
27690W        W92950  22.788  29.160   1.255
27691W        W92951  30.821  15.324   1.476
27692W        W92952  10.450  43.411  12.595
27693W        W92953   0.216  38.433  10.680
27694W        W92954  17.777  37.801  14.085
27695W        W92955  41.514  16.004  13.785
27696W        W92956  18.790  42.733   4.756
27697W        W92957   4.128  34.043  14.700
27698W        W92958  33.492   7.632  14.101
27699W        W92959   5.384  27.758   0.461
27700W        W92960  39.230  28.582   0.679
27701W        W92961  17.672  12.155   0.213
27702W        W92962  20.209  44.004  13.744
27703W        W92963  13.074  25.416   4.138
27704W        W92964  40.710  40.999   4.713
27705W        W92965  33.959  12.242   3.302
27706W        W92966  20.930  36.439  11.648
27707W        W92967   5.225  31.680  14.275
27708W        W92968  13.537  26.697  14.640
27709W        W92969  41.833  26.004   2.107
27710W        W92970  44.318   3.766   4.085
27711W        W92971  25.645  12.666  10.795
27712W        W92972   4.839   2.859   0.273
27713W        W92973  15.342   5.449   1.413
27714W        W92974  15.199  30.627  13.816
27715W        W92975  23.600   3.960   3.211
27716W        W92976  27.964   6.968   2.764
27717W        W92977  27.059  41.511  14.040
27718W        W92978  43.768  26.922  10.715
27719W        W92979  37.855  40.340   3.302
27720W        W92980  38.308  42.870   5.150
27721W        W92981   7.270  31.038   4.574
27722W        W92982  15.667  42.727   1.318
27723W        W92983  42.758  15.482  14.923
27724W        W92984  21.481  39.298  13.978
27725W        W92985  15.942  14.957  12.523
27726W        W92986  10.771   6.302   5.319
27727W        W92987  30.045  27.785   0.879
27728W        W92988   4.685   8.830   4.506
27729W        W92989  37.942  27.700   1.112
27730W        W92990   4.984   4.506   4.396
27731W        W92991  19.217  31.880   0.505
27732W        W92992  17.683  40.940  13.521
27733W        W92993   0.005   5.000  12.812
27734W        W92994   3.769  35.223   1.414
27735W        W92995  30.511  40.105  12.929
27736W        W92996  34.426  17.776  14.899
27737W        W92997  29.328  31.463   3.123
27738W        W92998  32.848   5.258  12.372
27739W        W92999  30.546  18.154   1.191
27740W        W93000  37.691  10.255   1.172
27741W        W93001  38.920  23.064   3.658
27742W        W93002  29.100  40.966   0.780
27743W        W93003   2.266   3.150   1.745
27744W        W93004  20.815  15.283  10.011
27745W        W93005  16.407  28.868  12.717
27746W        W93006  43.285   4.596   0.870
27747W        W93007   2.262  31.652   0.451
27748W        W93008  26.207  21.048  11.219
27749W        W93009   2.451  12.370   2.614
27750W        W93010   0.341  15.619  13.387
27751W        W93011  18.399  26.733   1.316
27752W        W93012  12.259  42.948  13.958
27753W        W93013  33.327  42.398   3.483
27754W        W93014  44.892  25.596   2.884
27755W        W93015   1.780  22.234  14.960
27756W        W93016   2.818  22.586   0.541
27757W        W93017  21.198  10.356   0.495
27758W        W93018  18.991  26.013  13.413
27759W        W93019  40.527  22.077   3.606
27760W        W93020  15.958  42.882   0.921
27761W        W93021   0.240  28.498  14.004
27762W        W93022  27.428  38.871  12.485
27763W        W93023  11.790  42.780   3.159
27764W        W93024  13.330  16.064   4.436
27765W        W93025  37.256   1.448   4.362
27766W        W93026  12.303  27.668   1.880
27767W        W93027  13.334  13.580  14.477
27768W        W93028  22.716   2.182  10.743
27769W        W93029  14.997  39.513   0.804
27770W        W93030  35.973  42.129  14.872
27771W        W93031  25.005  39.557  12.922
27772W        W93032   0.429  17.792  12.126
27773W        W93033   6.116  18.114   3.318
27774W        W93034  24.464  44.152  10.658
27775W        W93035  18.221  14.601   2.294
27776W        W93036  14.322   6.657   0.866
27777W        W93037  42.334  17.844   4.004
27778W        W93038   9.580   3.507   4.598
27779W        W93039  43.431  16.360  11.041
27780W        W93040  28.012  27.286  12.477
27781W        W93041  28.705  10.155   4.616
27782W        W93042  36.672  34.580   3.148
27783W        W93043  21.520   8.439  10.750
27784W        W93044  18.744  31.938  14.112
27785W        W93045  22.611  22.994  13.912
27786W        W93046  22.753  44.234  11.670
27787W        W93047  18.193  21.426  12.100
27788W        W93048  25.122  28.969  12.654
27789W        W93049   5.707  27.299   4.433
27790W        W93050  36.391  19.339  10.904
27791W        W93051  24.126  19.039   3.230
27792W        W93052   1.042  40.245  11.110
27793W        W93053  22.214  18.622  11.608
27794W        W93054  29.161  36.744  13.079
27795W        W93055  42.365  30.067  12.537
27796W        W93056  40.433   1.897   1.403
27797W        W93057  39.290  26.018  14.986
27798W        W93058  28.803  13.569   1.792
27799W        W93059  31.802   1.558  14.798
27800W        W93060  22.730  40.386  13.822
27801W        W93061  40.319  11.905   5.422
27802W        W93062   9.061  44.644  12.409
27803W        W93063  15.857  44.365   1.854
27804W        W93064  15.672  29.879  12.024
27805W        W93065  23.277  29.524   2.129
27806W        W93066  29.445   0.251  11.250
27807W        W93067  41.303  29.901  14.271
27808W        W93068   6.468  31.933   4.586
27809W        W93069  33.831  16.233   4.334
27810W        W93070  42.369   1.878  11.852
27811W        W93071  31.395  24.968  13.394
27812W        W93072  10.157   8.832  11.928
27813W        W93073  28.409   2.229   2.207
27814W        W93074  36.151   3.978   2.039
27815W        W93075  28.041  15.679   1.973
27816W        W93076  35.157  33.018  13.611
27817W        W93077   3.017  15.248   1.393
27818W        W93078  14.274   0.230   0.841
27819W        W93079  31.591  24.943  14.195
27820W        W93080  40.643   7.200  10.434
27821W        W93081  39.341  42.224  12.350
27822W        W93082  14.191  44.759  13.418
27823W        W93083  20.542  24.280   3.701
27824W        W93084  22.423  25.196   3.946
27825W        W93085  15.154   4.255  12.080
27826W        W93086  43.375  10.725   2.262
27827W        W93087  42.060  10.197  14.824
27828W        W93088  16.752   8.551   4.681
27829W        W93089  42.898  42.421   4.573
27830W        W93090  19.430  23.988  14.496
27831W        W93091  29.083  43.199  10.759
27832W        W93092   0.405   3.994   1.331
27833W        W93093  14.547  30.598   4.136
27834W        W93094  38.174  24.732   3.495
27835W        W93095  10.733  13.579   4.659
27836W        W93096  17.162   0.883   0.500
27837W        W93097  31.656  35.893   4.502
27838W        W93098  10.281   3.051   3.326
27839W        W93099  34.987  19.734   0.453
27840W        W93100   8.349  24.257  10.697
27841W        W93101  30.350  24.874   3.585
27842W        W93102  37.310   6.340   3.739
27843W        W93103  17.980  25.368  14.768
27844W        W93104  22.951  28.550  14.131
27845W        W93105  44.464  35.003   3.884
27846W        W93106   4.809  34.367   3.229
27847W        W93107  35.938   7.790  13.388
27848W        W93108  44.941   7.658  12.577
27849W        W93109  13.046  37.069   0.370
27850W        W93110  39.265  27.446   2.356
27851W        W93111  42.065  35.814   4.242
27852W        W93112   3.818  16.556  13.499
27853W        W93113  18.798  25.654   3.859
27854W        W93114  18.942  36.083  12.387
27855W        W93115   7.416   0.759   1.756
27856W        W93116  13.998   6.171  13.521
27857W        W93117  37.413   4.962   1.456
27858W        W93118  20.030  14.141   2.411
27859W        W93119  25.268  24.216  14.019
27860W        W93120  34.933  25.088   5.049
27861W        W93121  44.966  17.274   3.127
27862W        W93122  30.934  29.994  12.068
27863W        W93123  17.626  16.708  12.099
27864W        W93124  37.564  20.866  11.188
27865W        W93125   9.408  28.133   3.982
27866W        W93126  43.679  17.766  11.138
27867W        W93127  35.334   2.301   0.039
27868W        W93128  31.126  32.149   4.762
27869W        W93129  21.272  23.318  13.833
27870W        W93130  26.700  18.647   1.305
27871W        W93131  33.015  27.637   3.253
27872W        W93132   2.380  35.563  12.396
27873W        W93133  13.367  14.317  13.314
27874W        W93134  43.103  34.192  14.668
27875W        W93135  36.063  34.030  12.474
27876W        W93136  41.412  39.119   4.585
27877W        W93137  32.627  15.793  11.586
27878W        W93138  14.590  34.173   2.560
27879W        W93139  10.132  15.268   1.807
27880W        W93140  37.064   1.227  13.528
27881W        W93141  22.260  43.829   4.177
27882W        W93142  25.607  14.288  11.399
27883W        W93143   5.905  15.083  12.919
27884W        W93144  42.907   8.322  14.043
27885W        W93145  15.210   7.200   0.922
27886W        W93146   1.710  20.161   4.516
27887W        W93147  21.089  27.763   2.474
27888W        W93148   5.675  20.315   3.744
27889W        W93149  32.944  13.595   4.089
27890W        W93150   3.114  35.045   0.448
27891W        W93151  24.268  22.585  13.893
27892W        W93152  13.415  41.033   3.752
27893W        W93153  12.051   2.371  14.074
27894W        W93154  21.032  27.609  11.620
27895W        W93155  24.011   1.211   4.538
27896W        W93156  22.979  42.857  10.041
27897W        W93157  24.005  44.207   0.415
27898W        W93158  14.638  36.584  13.399
27899W        W93159  27.861  38.610  12.559
27900W        W93160  11.549  36.441   3.741
27901W        W93161   2.763  31.563  12.567
27902W        W93162   6.276   2.247   2.801
27903W        W93163   5.689  28.571  10.188
27904W        W93164   9.472  41.095   4.101
27905W        W93165  15.363  34.393   4.627
27906W        W93166  19.658  30.033   3.412
27907W        W93167  34.952   3.232  12.106
27908W        W93168  13.073   3.717   4.758
27909W        W93169   2.171  37.834  12.788
27910W        W93170  22.993  40.878   3.890
27911W        W93171  37.003  30.635   1.216
27912W        W93172  32.161   0.878  13.856
27913W        W93173  37.811  10.399  14.375
27914W        W93174  22.645  26.513   4.569
27915W        W93175   4.808  33.693  14.019
27916W        W93176  16.516  20.766   2.424
27917W        W93177  13.651  17.354   3.973
27918W        W93178  16.838  17.582   1.267
27919W        W93179  22.612  20.461  12.849
27920W        W93180  17.581  24.798   4.933
27921W        W93181  29.347  33.129   4.514
27922W        W93182  41.005  12.976  13.503
27923W        W93183  22.235  23.604  14.888
27924W        W93184  33.470  20.784   3.596
27925W        W93185   0.212  22.953   1.847
27926W        W93186   7.777   4.427  11.602
27927W        W93187  25.717  26.650   2.138
27928W        W93188  31.415  16.181   0.193
27929W        W93189  23.013  39.423   0.975
27930W        W93190  11.937  24.021   3.202
27931W        W93191  25.599  30.382   1.434
27932W        W93192   2.000  26.979   0.372
27933W        W93193  41.093   3.139  10.463
27934W        W93194  42.238  27.485  10.722
27935W        W93195  26.473  17.311  14.980
27936W        W93196  23.401   4.020   4.137
27937W        W93197  24.869   7.995   5.306
27938W        W93198  34.859  43.550  12.912
27939W        W93199  41.324  44.271  12.590
27940W        W93200  42.371  40.880  12.126
27941W        W93201  27.092  24.294   3.349
27942W        W93202  23.817  21.830  12.114
27943W        W93203   5.739  15.795  13.459
27944W        W93204  21.515  17.092  13.328
27945W        W93205  33.152  22.251  11.692
27946W        W93206   4.934  44.516   0.926
27947W        W93207  35.356  23.992   3.846
27948W        W93208  19.678   0.462  11.595
27949W        W93209  14.373  40.872  12.799
27950W        W93210  22.756  16.368  13.453
27951W        W93211  42.053  13.788  12.972
27952W        W93212  20.749   3.842   3.073
27953W        W93213  44.365   1.869   2.528
27954W        W93214  29.017  26.115  12.968
27955W        W93215   8.645  14.229  14.780
27956W        W93216   7.764  30.067   0.176
27957W        W93217  21.195   4.697   0.743
27958W        W93218  33.635  17.407   4.851
27959W        W93219  42.427   4.969  12.608
27960W        W93220  11.071  13.207   0.609
27961W        W93221  14.648  24.666  12.871
27962W        W93222  43.042  19.320   0.724
27963W        W93223   0.407  21.623  14.292
27964W        W93224   0.350  21.609   3.088
27965W        W93225   3.764   1.507   1.210
27966W        W93226  23.150  33.981  10.978
27967W        W93227  15.359  42.503   1.779
27968W        W93228  12.860   7.423   1.328
27969W        W93229   9.786  41.903   1.874
27970W        W93230  18.505  44.970  14.903
27971W        W93231  12.096  39.590   3.227
27972W        W93232  27.438  29.821  11.058
27973W        W93233  20.776  20.074   1.708
27974W        W93234  14.544   4.630   3.379
27975W        W93235  30.018   6.654   4.212
27976W        W93236   2.704  35.071  12.450
27977W        W93237  37.046  11.569  13.363
27978W        W93238  28.502  41.429  12.361
27979W        W93239  33.083  32.344  12.604
27980W        W93240  33.377   3.962   2.724
27981W        W93241   3.729  35.393   3.191
27982W        W93242  19.526   5.752  10.505
27983W        W93243  27.078  21.266   4.137
27984W        W93244  13.938  15.814  12.606
27985W        W93245  23.798   9.767  12.436
27986W        W93246  19.234  15.133   3.331
27987W        W93247  21.154  40.529  13.917
27988W        W93248   3.746  13.053   0.363
27989W        W93249  32.545  34.128   0.288
27990W        W93250  26.221  44.330  13.812
27991W        W93251  25.247  18.182   1.397
27992W        W93252  42.175   2.211   4.078
27993W        W93253  12.221   4.791  10.621
27994W        W93254   7.926  38.832   0.800
27995W        W93255  30.466  11.659  11.627
27996W        W93256  13.904  41.765  14.771
27997W        W93257  11.811  41.212  10.617
27998W        W93258   5.254  27.444   4.761
27999W        W93259  40.812  41.736  11.643
28000W        W93260  39.114  34.703  13.489
28001W        W93261  15.644  13.856   2.827
28002W        W93262  16.182  38.108   3.969
28003W        W93263  28.557  26.433   0.798
28004W        W93264   3.874  44.597  14.867
28005W        W93265  35.521  12.262  12.902
28006W        W93266  23.680  40.334  13.876
28007W        W93267  15.185   8.622  11.562
28008W        W93268  29.500  12.337  13.831
28009W        W93269  30.698  22.088   2.182
28010W        W93270  23.468  41.557   1.385
28011W        W93271  20.212  27.049  10.440
28012W        W93272  25.804  26.066   0.891
28013W        W93273  33.859  33.060   1.901
28014W        W93274   5.494  27.448  14.244
28015W        W93275  23.827   1.840   0.785
28016W        W93276   1.226  14.034  12.809
28017W        W93277  43.734  32.273  13.829
28018W        W93278   6.985  13.899  14.366
28019W        W93279  26.200  22.831  12.010
28020W        W93280  41.212  44.879  10.653
28021W        W93281   1.768  34.697   3.149
28022W        W93282  28.967  15.183   3.398
28023W        W93283   1.928  40.501  13.946
28024W        W93284  37.385  38.858   3.233
28025W        W93285  14.029  14.411   1.851
28026W        W93286   0.484  31.691   3.648
28027W        W93287  27.903  30.690   2.720
28028W        W93288   3.711   8.450  13.477
28029W        W93289   3.256  12.530   1.140
28030W        W93290  24.001  39.355   0.717
28031W        W93291  26.890  22.511  14.061
28032W        W93292   3.244  24.028  11.604
28033W        W93293  22.017  24.555  11.173
28034W        W93294  31.160  10.861   3.396
28035W        W93295  24.942   9.996  13.869
28036W        W93296  16.887  33.316  10.641
28037W        W93297   8.829  43.397   0.317
28038W        W93298  20.627  14.674   4.039
28039W        W93299   7.198  12.960   0.872
28040W        W93300  41.897  12.020   3.033
28041W        W93301  16.485  30.975  11.564
28042W        W93302  18.650  24.549   0.081
28043W        W93303  11.928   9.598  12.089
28044W        W93304  27.512   7.074   3.764
28045W        W93305  26.447  27.503   2.333
28046W        W93306  38.345  23.212   2.502
28047W        W93307   2.136  12.010   2.347
28048W        W93308   7.716  29.566   0.067
28049W        W93309  13.849  18.201   1.836
28050W        W93310  23.630  39.039   4.002
28051W        W93311  25.503  34.040  10.437
28052W        W93312  42.584  29.573  10.778
28053W        W93313  38.792  24.016   2.307
28054W        W93314  24.693  42.499  10.766
28055W        W93315   5.957  32.981   0.797
28056W        W93316   3.852   1.179   3.621
28057W        W93317  26.519  34.852   0.269
28058W        W93318  44.078  10.794  13.103
28059W        W93319  13.600  18.660  13.601
28060W        W93320  37.014  40.273  11.963
28061W        W93321   4.941  15.726   2.241
28062W        W93322  36.662  36.615   1.265
28063W        W93323  23.524   0.398   3.703
28064W        W93324  42.729  19.719   2.141
28065W        W93325  44.886  16.016   0.368
28066W        W93326  43.649  13.200   1.266
28067W        W93327   0.655  16.972  13.315
28068W        W93328  39.729  35.532  13.499
28069W        W93329  35.350  17.059   2.428
28070W        W93330   1.418  22.521  13.379
28071W        W93331  39.487   5.332  13.138
28072W        W93332  35.004  40.118  14.160
28073W        W93333  34.536  29.575   0.975
28074W        W93334  20.650  32.658   3.514
28075W        W93335   5.113  19.262  14.870
28076W        W93336  43.297  25.146  12.154
28077W        W93337   9.108   7.145   1.868
28078W        W93338   5.913  15.360  10.722
28079W        W93339   7.458  19.981   4.582
28080W        W93340  26.396  15.145  12.653
28081W        W93341  42.547  41.341  14.317
28082W        W93342  20.323  41.764  10.735
28083W        W93343  28.446  35.650  11.626
28084W        W93344  38.020  15.280  13.428
28085W        W93345   3.684  15.885  12.477
28086W        W93346  21.728  41.671  12.618
28087W        W93347   1.466  13.651  12.520
28088W        W93348  28.409   7.264   2.702
28089W        W93349  20.214  44.192  12.441
28090W        W93350   2.712  18.334  12.136
28091W        W93351  30.972  27.569  14.708
28092W        W93352  40.029  19.298  12.498
28093W        W93353  39.463  15.731  10.568
28094W        W93354   9.763  27.218  12.281
28095W        W93355  33.919  11.896  13.093
28096W        W93356  35.877   9.696   3.892
28097W        W93357  16.984   1.250   2.762
28098W        W93358  10.248  17.510  11.249
28099W        W93359  28.554   8.652  11.677
28100W        W93360  23.051  24.084   2.746
28101W        W93361  12.253   0.999  10.612
28102W        W93362  18.637  24.129   3.571
28103W        W93363  27.406  35.421  11.541
28104W        W93364  42.774  14.687   4.123
28105W        W93365  16.052  23.702   0.886
28106W        W93366   5.125  19.285   4.850
28107W        W93367   3.087   6.909   4.587
28108W        W93368  15.344  26.868  12.346
28109W        W93369  13.939  39.487  11.595
28110W        W93370  34.957  35.074   3.391
28111W        W93371  34.086   3.410  13.759
28112W        W93372  30.927  13.577  14.470
28113W        W93373   3.919  23.969   4.127
28114W        W93374  31.161  15.659  12.365
28115W        W93375  20.173  27.562  13.295
28116W        W93376  17.085  42.368   1.223
28117W        W93377  28.463  12.922   2.871
28118W        W93378  20.603  26.034  11.622
28119W        W93379  39.027  32.108  11.562
28120W        W93380   1.721   0.682   0.023
28121W        W93381   1.453   2.397  14.789
28122W        W93382  11.906  18.499  14.240
28123W        W93383  17.570  36.959  13.554
28124W        W93384  17.971  40.323  13.357
28125W        W93385  37.994  39.601   4.132
28126W        W93386   9.164  20.283   4.925
28127W        W93387  16.972   5.877  10.592
28128W        W93388   6.926  32.342   2.301
28129W        W93389  36.869  13.200  14.148
28130W        W93390  42.386  21.976  10.681
28131W        W93391  12.994  28.603  14.840
28132W        W93392  26.491  43.783   1.953
28133W        W93393   3.119  42.610  11.353
28134W        W93394   7.761  37.504   1.745
28135W        W93395   3.945  19.488   0.931
28136W        W93396   4.248  37.626  11.151
28137W        W93397  24.940  18.199  11.657
28138W        W93398   5.958  24.921   1.491
28139W        W93399  38.842   0.356  11.584
28140W        W93400  28.783   5.808  14.488
28141W        W93401  29.164  21.966  14.960
28142W        W93402  42.768   2.862   4.112
28143W        W93403  37.396  27.473  13.281
28144W        W93404  26.366  40.087  10.777
28145W        W93405   3.325  36.110   2.521
28146W        W93406  43.083  25.550  10.587
28147W        W93407   4.458  30.118  12.673
28148W        W93408  18.665   0.950   0.208
28149W        W93409  44.982  32.722  11.928
28150W        W93410  16.213  38.666   3.540
28151W        W93411  12.094  44.906   3.281
28152W        W93412  15.839   5.315   1.715
28153W        W93413  44.733  14.248  14.280
28154W        W93414  23.875  32.636   3.891
28155W        W93415  23.414   2.672  14.326
28156W        W93416   4.779  35.013  12.711
28157W        W93417  28.098  11.307  12.930
28158W        W93418  40.036  15.443   3.847
28159W        W93419  14.123  34.521   0.257
28160W        W93420  23.644  31.005   2.031
28161W        W93421  25.442  31.612   0.300
28162W        W93422   7.721   6.392   3.147
28163W        W93423  27.868  15.066  12.899
28164W        W93424  38.820  26.772  12.017
28165W        W93425  19.176   8.186  11.149
28166W        W93426  32.953   0.783   2.011
28167W        W93427  25.589  26.654  14.690
28168W        W93428  22.566  12.417  13.458
28169W        W93429  29.343  17.557  14.001
28170W        W93430  31.316  44.285  11.058
28171W        W93431   7.281  43.452  10.736
28172W        W93432  19.378   5.209   0.974
28173W        W93433  29.516   8.099  10.638
28174W        W93434  31.959   2.457   0.147
28175W        W93435  14.756  33.498   1.787
28176W        W93436  21.151  31.012   3.344
28177W        W93437  13.967  34.983  12.015
28178W        W93438  27.228  29.650   0.018
28179W        W93439   8.880  23.171  12.331
28180W        W93440  31.029  43.167  13.711
28181W        W93441  10.409   1.284  13.037
28182W        W93442   0.992  14.940  12.583
28183W        W93443  19.688  29.729  12.729
28184W        W93444  13.247  30.211   4.360
28185W        W93445  24.226  31.811   0.028
28186W        W93446  32.504   2.022  14.876
28187W        W93447  25.743  42.315  14.327
28188W        W93448  38.730  31.095  10.717
28189W        W93449  29.263  42.818   4.714
28190W        W93450  25.086  22.519   1.708
28191W        W93451  39.308  35.415   0.553
28192W        W93452  11.071  21.081  11.082
28193W        W93453   1.311  11.516   9.888
28194W        W93454  22.227  11.825   0.829
28195W        W93455   6.129   6.902   3.679
28196W        W93456  37.018  44.233  11.295
28197W        W93457   9.939   5.341  13.347
28198W        W93458  10.366   1.351  14.889
28199W        W93459  18.822   0.138  13.416
28200W        W93460  40.908  44.876  12.471
28201W        W93461  32.046  17.152  12.109
28202W        W93462  18.602  24.090  14.841
28203W        W93463  14.351  43.911  12.185
28204W        W93464  44.424   2.160  14.888
28205W        W93465   3.173  40.545  14.293
28206W        W93466  14.737   6.850  14.745
28207W        W93467  12.277  32.303  10.753
28208W        W93468   0.095   8.618  10.096
28209W        W93469   0.735  16.167   0.799
28210W        W93470  36.272  35.516   4.153
28211W        W93471  38.760  20.511   3.716
28212W        W93472  18.853  33.146   0.099
28213W        W93473  42.228  23.115  11.739
28214W        W93474  18.164  13.805   4.111
28215W        W93475  12.186   9.492  14.256
28216W        W93476   4.851  12.285  11.853
28217W        W93477   6.212  41.312   4.166
28218W        W93478  42.572  22.319   1.740
28219W        W93479  37.084  42.991  13.885
28220W        W93480  13.784  29.573   0.273
28221W        W93481  10.404  33.710   0.473
28222W        W93482  21.584  19.982   3.301
28223W        W93483  34.171  26.531   2.273
28224W        W93484  31.121  43.961   1.207
28225W        W93485  26.047   7.976  12.879
28226W        W93486  29.014  43.601  11.054
28227W        W93487  34.859  23.664  14.340
28228W        W93488  23.151   7.596  13.879
28229W        W93489  11.448  27.165   3.514
28230W        W93490   3.001   1.031   1.713
28231W        W93491   0.304   8.077  10.964
28232W        W93492  27.119   0.971  12.870
28233W        W93493  38.827  14.452  14.985
28234W        W93494  27.605  26.793  13.279
28235W        W93495  39.578  16.489   3.592
28236W        W93496  41.526  24.732   1.700
28237W        W93497   2.558  37.677  10.026
28238W        W93498   9.263   5.969  11.087
28239W        W93499  36.939  16.662   2.681
28240W        W93500   8.682  39.858  13.463
28241W        W93501  28.170   3.974  10.644
28242W        W93502  10.542  42.417  10.497
28243W        W93503  31.664  17.827  14.792
28244W        W93504  12.106  28.305   1.135
28245W        W93505  22.073  40.252  10.323
28246W        W93506   6.616   5.909   0.320
28247W        W93507  44.164  18.733   1.213
28248W        W93508  42.089  23.749  11.218
28249W        W93509   1.055   1.540   3.316
28250W        W93510  41.593   6.957  11.249
28251W        W93511  16.796  24.254   2.731
28252W        W93512  20.296  28.677   0.537
28253W        W93513  11.204  30.307  14.715
28254W        W93514   6.375  26.509   2.595
28255W        W93515  38.507  28.050   4.818
28256W        W93516  41.065   5.792  12.051
28257W        W93517  22.093  41.205  11.951
28258W        W93518  24.990   8.687  14.324
28259W        W93519  17.217   8.540   1.750
28260W        W93520  27.711  37.915   0.854
28261W        W93521  23.542  30.022  13.053
28262W        W93522   0.793   3.980  11.994
28263W        W93523   9.385  30.037  14.910
28264W        W93524  25.039  31.076   0.831
28265W        W93525  11.670  23.295  12.863
28266W        W93526  31.126  19.432  11.081
28267W        W93527  25.516  31.337  13.978
28268W        W93528  42.591  20.209  13.562
28269W        W93529  18.435   0.906   3.657
28270W        W93530   5.237  17.729  12.391
28271W        W93531  13.477  25.706  12.395
28272W        W93532  25.937  31.622  13.874
28273W        W93533  35.572  42.166  14.509
28274W        W93534  18.148  11.841   2.591
28275W        W93535  15.748   7.278  12.771
28276W        W93536  27.839  22.202   0.876
28277W        W93537  38.516  35.033  11.471
28278W        W93538  41.247  38.591  14.754
28279W        W93539  43.846  34.558   4.764
28280W        W93540  13.421   3.258   4.009
28281W        W93541  20.030   3.903  13.979
28282W        W93542  17.388   4.925  12.926
28283W        W93543   9.730  20.581   1.236
28284W        W93544   6.179  28.669   3.146
28285W        W93545   3.132  44.689   2.363
28286W        W93546  26.126  26.418  14.459
28287W        W93547  22.172   7.644  13.081
28288W        W93548  40.483  13.325  12.416
28289W        W93549  16.176   1.780  12.786
28290W        W93550  30.518  38.426   0.977
28291W        W93551  18.169  43.210   3.060
28292W        W93552  36.494  23.185   4.491
28293W        W93553  16.186  25.767   3.354
28294W        W93554  29.595  19.772   3.904
28295W        W93555   7.674   0.498   2.689
28296W        W93556  12.842   4.307  14.376
28297W        W93557  12.659   6.042   3.858
28298W        W93558   1.453  25.449   3.638
28299W        W93559   4.849   1.510   0.924
28300W        W93560  40.128   1.442   4.270
28301W        W93561  17.543   6.906  13.044
28302W        W93562   4.810  13.594  12.858
28303W        W93563  24.798   4.901  14.391
28304W        W93564  12.318  30.592   4.565
28305W        W93565  11.154  28.157   3.700
28306W        W93566  17.642  16.654  11.185
28307W        W93567  36.003  43.749   5.090
28308W        W93568  21.259  25.433   2.403
28309W        W93569   7.695   1.239   4.572
28310W        W93570  36.962  15.036  12.185
28311W        W93571  27.652  31.566  13.527
28312W        W93572   3.459  41.349  13.351
28313W        W93573  25.983   2.381   4.883
28314W        W93574  41.895  11.154  11.013
28315W        W93575  32.697  19.115  10.793
28316W        W93576  27.511  20.086   0.953
28317W        W93577  31.548   2.487   0.694
28318W        W93578  22.845  25.210  13.951
28319W        W93579   6.378   8.705  11.211
28320W        W93580   3.293   9.082  13.937
28321W        W93581  28.915  27.040  14.432
28322W        W93582  10.691  30.057  12.116
28323W        W93583  13.803  35.323  11.117
28324W        W93584  10.606  21.194  10.705
28325W        W93585   7.146  25.566   1.412
28326W        W93586  32.518  34.600  12.999
28327W        W93587   4.023  19.657  13.888
28328W        W93588   8.029   9.339  10.140
28329W        W93589  44.772  33.954   0.727
28330W        W93590  16.640  28.575   2.061
28331W        W93591   4.342   7.441   0.579
28332W        W93592  29.453   9.774   0.506
28333W        W93593   8.959  14.584  12.114
28334W        W93594  43.574   0.992   1.901
28335W        W93595  42.603  13.681  14.830
28336W        W93596  27.609  41.120  12.062
28337W        W93597   9.459  18.159   3.984
28338W        W93598  40.283  16.665  11.974
28339W        W93599  41.270  41.199   2.429
28340W        W93600   3.890   0.328   1.641
28341W        W93601  26.794  36.059  11.421
28342W        W93602  12.774   1.852  13.836
28343W        W93603  44.017  39.919  13.809
28344W        W93604  38.472  29.139   0.720
28345W        W93605  44.221  12.168   3.219
28346W        W93606  20.959   1.547   1.270
28347W        W93607  25.208  20.264   3.403
28348W        W93608  17.159  39.916  14.727
28349W        W93609  28.056  38.846  14.765
28350W        W93610   4.191  19.947   4.017
28351W        W93611  38.281  25.220   0.216
28352W        W93612  26.220  32.632   4.185
28353W        W93613   3.358   2.341   1.282
28354W        W93614  31.027   8.970   4.931
28355W        W93615   8.229  42.466   3.414
28356W        W93616   3.806  26.990  12.887
28357W        W93617  18.918  16.632   0.755
28358W        W93618  23.710  37.919   1.835
28359W        W93619  14.225  18.694  10.311
28360W        W93620  25.032  16.230  10.164
28361W        W93621  36.645   4.950  10.808
28362W        W93622  32.614  17.280  11.894
28363W        W93623  37.486  42.279   3.126
28364W        W93624  37.133  14.174   0.832
28365W        W93625   1.173  28.860  14.754
28366W        W93626   0.696   3.087   4.459
28367W        W93627   6.987   3.163  11.931
28368W        W93628   3.846  34.428   3.214
28369W        W93629   0.950  12.208  12.999
28370W        W93630  12.691  26.350   5.452
28371W        W93631  23.933  23.607  12.274
28372W        W93632  21.628  39.591  13.183
28373W        W93633   2.433  14.715   0.856
28374W        W93634  29.362  18.383  10.365
28375W        W93635  24.959  24.312   1.857
28376W        W93636  14.034   0.682  14.374
28377W        W93637  41.331  44.987   1.853
28378W        W93638  15.272  11.563   4.207
28379W        W93639  43.255  26.448   4.171
28380W        W93640  32.070  22.209  11.645
28381W        W93641  42.749  26.676   1.699
28382W        W93642  30.245  37.569   5.017
28383W        W93643  23.971  11.138   1.720
28384W        W93644   8.087  42.450   3.918
28385W        W93645  27.785  22.629   4.586
28386W        W93646  36.858  42.436   1.797
28387W        W93647  22.698  22.079  11.707
28388W        W93648   7.751  40.997   3.270
28389W        W93649  43.756  32.579  10.678
28390W        W93650  10.767   7.797  13.605
28391W        W93651  37.304  19.658   1.778
28392W        W93652  31.315  23.075  12.269
28393W        W93653  27.986  15.797  14.351
28394W        W93654  42.241  15.262   4.108
28395W        W93655  35.919  41.859   4.624
28396W        W93656  32.114  35.858   3.762
28397W        W93657  27.647  34.948  14.745
28398W        W93658  26.192  32.833   3.695
28399W        W93659   8.306  42.646   2.399
28400W        W93660  39.837  23.039   1.449
28401W        W93661  15.200  23.204  10.128
28402W        W93662   1.685  18.712   3.269
28403W        W93663   3.804  15.546  10.286
28404W        W93664   5.325  37.601   4.917
28405W        W93665  13.734  36.385  11.913
28406W        W93666  20.891  13.368  12.528
28407W        W93667  40.292  27.606  12.913
28408W        W93668  25.545   2.187   2.758
28409W        W93669  39.901   8.139  11.903
28410W        W93670  12.943  33.807  14.790
28411W        W93671  35.272  34.621   4.288
28412W        W93672  34.665  30.706   4.078
28413W        W93673   1.010  23.423   2.194
28414W        W93674  22.515  29.221   0.810
28415W        W93675   9.601  32.564   1.112
28416W        W93676  34.368  33.258  13.839
28417W        W93677  43.221  24.318   3.987
28418W        W93678  34.864   5.170   1.895
28419W        W93679  35.598  41.054   0.897
28420W        W93680  15.585  10.168  11.106
28421W        W93681  43.793  18.145  13.124
28422W        W93682  34.541  15.035  12.474
28423W        W93683  39.852  29.603   4.375
28424W        W93684   7.980  25.641  13.553
28425W        W93685  28.590   4.532  12.033
28426W        W93686  40.808  36.085  11.661
28427W        W93687  18.744   4.417  10.708
28428W        W93688  41.984  37.642   1.765
28429W        W93689  35.153   4.968   5.073
28430W        W93690  35.071   8.917  11.153
28431W        W93691   8.722   9.783   0.957
28432W        W93692  20.566  39.442  12.467
28433W        W93693  18.111  44.906  13.968
28434W        W93694  14.604  38.558  11.624
28435W        W93695   3.232  28.215  14.466
28436W        W93696   3.030  25.999  11.742
28437W        W93697  33.875  44.539  13.909
28438W        W93698  40.553  10.368   2.397
28439W        W93699  34.627  17.623   4.840
28440W        W93700   9.672  42.590  14.369
28441W        W93701  41.539  31.966   3.248
28442W        W93702  16.973  30.621  14.458
28443W        W93703  43.005  35.522   4.556
28444W        W93704  38.317  43.900   0.874
28445W        W93705  28.380   2.448  13.067
28446W        W93706   4.139  11.834   4.333
28447W        W93707  24.648  10.826   1.819
28448W        W93708  40.106  24.956   0.098
28449W        W93709  14.139  39.287   1.222
28450W        W93710  36.178  17.245  10.633
28451W        W93711   5.371  40.648   2.368
28452W        W93712   3.014  30.113  13.817
28453W        W93713  40.882   0.013  10.105
28454W        W93714  11.108  31.959  11.042
28455W        W93715  17.951  10.773   2.701
28456W        W93716  29.644   2.850  13.223
28457W        W93717  14.782   7.305   1.816
28458W        W93718  17.878  12.284  11.938
28459W        W93719   9.238  10.777   1.239
28460W        W93720  18.184  25.744   3.649
28461W        W93721   8.838   1.044  12.468
28462W        W93722  22.659  23.639   0.914
28463W        W93723  43.623  25.096   1.103
28464W        W93724  24.522  26.995   0.733
28465W        W93725  15.600   9.813   1.013
28466W        W93726  16.861  32.921   4.089
28467W        W93727  25.654  18.541  11.668
28468W        W93728  29.042  10.856   2.836
28469W        W93729  36.021  20.411   1.115
28470W        W93730   7.589  15.236   2.445
28471W        W93731   9.219  33.092  12.860
28472W        W93732  39.113   8.268   3.076
28473W        W93733   8.648  41.718   3.849
28474W        W93734  15.194   7.944   2.298
28475W        W93735  23.277  11.907  12.065
28476W        W93736  33.574   2.204  14.401
28477W        W93737  13.227   4.766   3.817
28478W        W93738  30.654  30.909   1.480
28479W        W93739  38.497   0.888  12.115
28480W        W93740  35.426   3.426   1.858
28481W        W93741  43.445  17.230  14.426
28482W        W93742  27.709  29.912  13.796
28483W        W93743   3.795  39.933   4.372
28484W        W93744  32.168  22.558   2.838
28485W        W93745  26.997   2.194   3.612
28486W        W93746  42.788  41.368  14.795
28487W        W93747  15.574  22.123  10.766
28488W        W93748   6.732   4.002  11.641
28489W        W93749  31.987  27.130  12.407
28490W        W93750  10.419  27.711   4.892
28491W        W93751  37.482  20.157   4.901
28492W        W93752  20.253  23.350   4.598
28493W        W93753  38.854  22.210  13.445
28494W        W93754  21.068   9.685   2.965
28495W        W93755  25.989   4.188   0.323
28496W        W93756  33.332  30.018   0.925
28497W        W93757   3.040  27.078  13.589
28498W        W93758  40.885   7.859   2.381
28499W        W93759  26.204  11.362   0.860
28500W        W93760  36.796  13.231  11.719
28501W        W93761   3.173  12.185  12.439
28502W        W93762  12.353   4.452   0.121
28503W        W93763   1.056  14.055   1.809
28504W        W93764  27.881  14.713  11.579
28505W        W93765  41.795  37.631   9.910
28506W        W93766   3.249   5.135   0.857
28507W        W93767  37.909  35.849  11.140
28508W        W93768  29.128  28.047  11.593
28509W        W93769   9.418  19.797  10.375
28510W        W93770  29.574  44.007   2.115
28511W        W93771  33.472  42.863   2.775
28512W        W93772  43.860  29.544   1.343
28513W        W93773  41.021   0.349   2.922
28514W        W93774  38.869  45.000   3.721
28515W        W93775  16.855   2.216   0.341
28516W        W93776  22.585  18.290  11.531
28517W        W93777   9.780  31.993   2.853
28518W        W93778  38.048  22.352   4.153
28519W        W93779  23.833  20.376   0.944
28520W        W93780   8.687  22.873  10.957
28521W        W93781  34.045  15.775   4.550
28522W        W93782  24.097   7.532  13.355
28523W        W93783  21.057   6.203   4.592
28524W        W93784  39.828  11.016   2.679
28525W        W93785  19.201  12.552  12.447
28526W        W93786   1.032  16.692  13.901
28527W        W93787  24.817   5.761   0.436
28528W        W93788  12.271   2.021   0.329
28529W        W93789   1.385  30.549   1.903
28530W        W93790  37.123  10.138  12.930
28531W        W93791   6.766  19.025  11.901
28532W        W93792  28.342  43.971  10.562
28533W        W93793  10.722  37.449  14.521
28534W        W93794  39.278  29.174  10.709
28535W        W93795  19.475  23.409  14.641
28536W        W93796   4.451   1.193   0.807
28537W        W93797  26.245  19.107   3.232
28538W        W93798  43.972  18.575   2.573
28539W        W93799  22.456  11.224  11.466
28540W        W93800  20.135   6.169  14.416
28541W        W93801  23.305   1.768  14.453
28542W        W93802  38.343  22.708   2.384
28543W        W93803   7.633  33.689  10.661
28544W        W93804  13.215  18.936  14.258
28545W        W93805  10.747  28.032  13.377
28546W        W93806  26.935  18.265   3.251
28547W        W93807   8.986  18.051  14.799
28548W        W93808  21.528   7.374   3.329
28549W        W93809   7.725  19.294   2.172
28550W        W93810  42.271  32.856  12.662
28551W        W93811  19.338  38.295   2.220
28552W        W93812   1.443  32.854   4.246
28553W        W93813  15.493  43.447   2.690
28554W        W93814  35.523  14.087  14.966
28555W        W93815  28.160  30.618  14.424
28556W        W93816  13.751   5.529   2.839
28557W        W93817  21.384  16.154  12.497
28558W        W93818  34.079  21.615  14.681
28559W        W93819   7.823  17.333   4.074
28560W        W93820  33.824  29.953  10.654
28561W        W93821  25.246  17.139   1.742
28562W        W93822  36.084  40.637  14.942
28563W        W93823  31.415  36.385  11.747
28564W        W93824  25.277  38.038  12.244
28565W        W93825   7.730   2.334   3.098
28566W        W93826  30.450   0.222  12.145
28567W        W93827  37.818   2.552   1.896
28568W        W93828  34.380  38.465   2.072
28569W        W93829   6.095  33.132   2.199
28570W        W93830  43.034  20.651   0.842
28571W        W93831   7.258  11.878   2.587
28572W        W93832  25.790  26.167  11.186
28573W        W93833   9.387  43.816   2.439
28574W        W93834  13.785  11.929   2.948
28575W        W93835  34.409  38.447   3.092
28576W        W93836  14.079  32.945  10.476
28577W        W93837  24.161   6.854   1.259
28578W        W93838   7.091  19.398  13.246
28579W        W93839   5.478  34.591  11.245
28580W        W93840  11.292  27.339   3.028
28581W        W93841  41.476  20.102   4.558
28582W        W93842  22.834  15.390   3.072
28583W        W93843  41.449  41.554  12.485
28584W        W93844   6.232  15.762  11.589
28585W        W93845  24.525  32.350   1.501
28586W        W93846   0.070  30.820   3.658
28587W        W93847  33.562  43.837  11.554
28588W        W93848  26.484   0.214   0.676
28589W        W93849  34.845  14.703   0.900
28590W        W93850  38.103  15.051   1.733
28591W        W93851  33.923  21.645  12.866
28592W        W93852  35.008  20.919  12.441
28593W        W93853  11.207  28.198  11.474
28594W        W93854  10.593  17.267   3.238
28595W        W93855   9.766  29.450  14.314
28596W        W93856   5.229  15.876   2.645
28597W        W93857  26.037  17.138  14.028
28598W        W93858  18.085  31.418  13.529
28599W        W93859   3.857  34.869  13.060
28600W        W93860  17.255  44.734   2.765
28601W        W93861  20.008  30.627  11.955
28602W        W93862  42.520  20.681  13.094
28603W        W93863  16.988  21.011  13.431
28604W        W93864  14.579  35.962   2.444
28605W        W93865  32.597  18.499   0.266
28606W        W93866  21.389   5.044   9.946
28607W        W93867  42.285  19.645  10.593
28608W        W93868  28.567  24.704   3.262
28609W        W93869  31.521  24.467   4.651
28610W        W93870  37.933  36.878   1.695
28611W        W93871  29.150  18.449  11.645
28612W        W93872  21.920  40.971   0.473
28613W        W93873   2.818  10.299   0.072
28614W        W93874  19.585  32.235   3.635
28615W        W93875  17.754  17.354  10.586
28616W        W93876  31.649   4.578   0.965
28617W        W93877  37.445  40.378   0.952
28618W        W93878  10.790  12.385   2.185
28619W        W93879  29.943   2.062   1.836
28620W        W93880  40.418   4.184  11.081
28621W        W93881  26.944  42.812  12.475
28622W        W93882  16.768  10.293  10.548
28623W        W93883   8.355  40.328   3.308
28624W        W93884  28.678  35.928   1.662
28625W        W93885  36.631  39.597  12.092
28626W        W93886   9.606  22.751   1.843
28627W        W93887   6.021   6.395   2.473
28628W        W93888  28.208  28.735  11.526
28629W        W93889  38.776  11.841  12.613
28630W        W93890  15.793   6.448   4.087
28631W        W93891   8.595   6.411   3.295
28632W        W93892  19.040  21.621   0.242
28633W        W93893  44.495  37.303   2.850
28634W        W93894  39.597  16.171   0.041
28635W        W93895  28.642  28.045  11.219
28636W        W93896   8.719  20.053   3.591
28637W        W93897  27.458   1.244   3.076
28638W        W93898   5.641   9.364   0.974
28639W        W93899   3.323  31.179   1.747
28640W        W93900   8.710  28.543  12.999
28641W        W93901  29.507  19.834   2.338
28642W        W93902  18.162  42.319   4.590
28643W        W93903   3.705  32.537   4.603
28644W        W93904  31.697  23.501  10.113
28645W        W93905  13.166  39.460   4.195
28646W        W93906   5.283  35.156   1.415
28647W        W93907   9.682   0.392  12.125
28648W        W93908  39.509  41.618   3.693
28649W        W93909  35.309   3.852  10.971
28650W        W93910  23.920  19.729  12.872
28651W        W93911  27.179  31.073  13.089
28652W        W93912  39.131  38.401   4.209
28653W        W93913  33.462  38.955   5.134
28654W        W93914  11.116  35.428   0.775
28655W        W93915  40.514  35.675  11.475
28656W        W93916  25.142  25.446   2.316
28657W        W93917  10.154  29.437   4.197
28658W        W93918  20.100  29.627   4.125
28659W        W93919  22.193  40.823   0.878
28660W        W93920  34.123  38.329   3.835
28661W        W93921  36.628  20.205   2.113
28662W        W93922  43.820  22.855  11.782
28663W        W93923  31.148   6.758   0.921
28664W        W93924   9.105  17.703  13.570
28665W        W93925  19.679  39.113  10.726
28666W        W93926  19.373  26.760   4.085
28667W        W93927   1.195  36.832  14.730
28668W        W93928   0.241   0.642   2.086
28669W        W93929  43.293  21.960   4.506
28670W        W93930  20.833  25.490   3.195
28671W        W93931  30.621  39.945  14.848
28672W        W93932  36.791  18.309  13.836
28673W        W93933   2.899  22.514  12.960
28674W        W93934  43.952  27.412  12.238
28675W        W93935  10.906  10.135   2.104
28676W        W93936   4.448  31.455  12.061
28677W        W93937  41.315  28.275   0.993
28678W        W93938  31.347  38.846   3.885
28679W        W93939  34.520   7.399   4.877
28680W        W93940  36.485  11.485   2.207
28681W        W93941   1.051  18.989   1.289
28682W        W93942  31.898   6.198   2.162
28683W        W93943   2.848   9.287  13.735
28684W        W93944   9.230  32.685  11.497
28685W        W93945  10.496  29.612  10.038
28686W        W93946  44.032  41.846  13.983
28687W        W93947  42.473  32.153  12.193
28688W        W93948  35.474  14.925   1.545
28689W        W93949  26.679  20.772  11.995
28690W        W93950   3.727  32.031  14.064
28691W        W93951  15.062   3.276   3.596
28692W        W93952  44.089   5.823  12.369
28693W        W93953  14.745   7.698  10.711
28694W        W93954  11.875   5.297   4.630
28695W        W93955   1.433  10.138   2.162
28696W        W93956   7.760  44.716  12.947
28697W        W93957  26.869  34.639  12.469
28698W        W93958  18.313  30.492   1.638
28699W        W93959  14.733  36.543  11.906
28700W        W93960  16.030   3.108   2.611
28701W        W93961  13.518  44.913   3.321
28702W        W93962  36.388  13.146  13.974
28703W        W93963   6.459  34.854  12.089
28704W        W93964  26.003   0.889  13.591
28705W        W93965   0.692  17.287  10.006
28706W        W93966   7.986   7.175  11.551
28707W        W93967  26.659  37.486  14.511
28708W        W93968  43.718  38.249   0.290
28709W        W93969  28.702  16.786   9.276
28710W        W93970   4.339  36.675  14.737
28711W        W93971  23.966  22.031  14.829
28712W        W93972  40.397  38.500  11.200
28713W        W93973  32.964  14.120  12.041
28714W        W93974   3.996  18.763   4.271
28715W        W93975   5.586  37.010   2.361
28716W        W93976   9.450  33.598   3.387
28717W        W93977   7.207  28.455  11.222
28718W        W93978  37.300  41.602   0.010
28719W        W93979   5.133   1.360   4.630
28720W        W93980  27.691  44.474  13.109
28721W        W93981  26.134  13.033   5.054
28722W        W93982  22.230  40.403   3.651
28723W        W93983  31.078  38.845   2.462
28724W        W93984  25.872  14.305   3.661
28725W        W93985  25.005  15.153  10.666
28726W        W93986   1.923  27.596   5.797
28727W        W93987  24.496   9.018   0.418
28728W        W93988  17.259  17.498  13.496
28729W        W93989   9.449  15.200   1.404
28730W        W93990  35.929  19.493   1.224
28731W        W93991  41.261   8.643   3.213
28732W        W93992  44.011   5.793   2.916
28733W        W93993  30.655   6.658   1.177
28734W        W93994  30.044   2.926  14.971
28735W        W93995  25.697  14.418  13.754
28736W        W93996   0.736  29.199  12.438
28737W        W93997  19.066  29.263   1.737
28738W        W93998  18.946   9.253   3.834
28739W        W93999  31.369  37.845  10.847
28740W        W94000   9.734  21.137   4.786
28741W        W94001  30.042  26.037  14.426
28742W        W94002  11.233  22.802   3.209
28743W        W94003  33.518  35.656   4.385
28744W        W94004  31.679  22.020   1.724
28745W        W94005  26.036   0.305  12.400
28746W        W94006  36.169   7.661   2.311
28747W        W94007   3.906  13.245  13.601
28748W        W94008  37.368  18.481  14.384
28749W        W94009  35.307  33.149   2.706
28750W        W94010  36.374  34.682   3.633
28751W        W94011  14.910  10.155   0.425
28752W        W94012   0.252  22.490   3.276
28753W        W94013  41.309  19.484  11.500
28754W        W94014  27.752  19.872  13.960
28755W        W94015   5.967   0.444   1.794
28756W        W94016  13.472  36.811   1.928
28757W        W94017  22.751  27.568  11.010
28758W        W94018  30.734  13.100  14.520
28759W        W94019  19.358   0.344   2.389
28760W        W94020  18.307  28.032  13.984
28761W        W94021  16.388  36.942  12.500
28762W        W94022  20.695  21.298  10.616
28763W        W94023  15.478  35.974  11.691
28764W        W94024  12.026   8.559  11.849
28765W        W94025   1.049  35.588   4.070
28766W        W94026  38.404   4.338  12.851
28767W        W94027  27.604   1.569  14.594
28768W        W94028  35.505  37.323  11.265
28769W        W94029   1.657  27.985  11.174
28770W        W94030  23.598  18.647  14.293
28771W        W94031   1.179   7.133  11.196
28772W        W94032  24.730  14.287  11.400
28773W        W94033  14.714  32.990   1.940
28774W        W94034  20.517   4.603  13.554
28775W        W94035   3.173  39.920   0.986
28776W        W94036  44.917   6.840  13.533
28777W        W94037  41.731  21.018   4.300
28778W        W94038  38.399  23.136  13.553
28779W        W94039  44.743  44.755  10.873
28780W        W94040   3.439  36.551   2.771
28781W        W94041  31.961  20.539  11.161
28782W        W94042  30.410   9.169   1.297
28783W        W94043  37.598   9.855  13.292
28784W        W94044  24.644  23.690  12.126
28785W        W94045  28.006   9.425  12.047
28786W        W94046  36.874  17.237  13.186
28787W        W94047   5.986  41.075  13.939
28788W        W94048  36.100  16.784  11.710
28789W        W94049  16.604  17.622   2.257
28790W        W94050   1.443  37.541   0.949
28791W        W94051  31.649  16.982   3.087
28792W        W94052  44.853  11.274  13.961
28793W        W94053  42.326   1.413   2.366
28794W        W94054  29.575  41.131   9.978
28795W        W94055  35.134  32.086  11.143
28796W        W94056  20.297   4.370  14.048
28797W        W94057  39.442  37.532   0.403
28798W        W94058  21.220  24.662  14.575
28799W        W94059  24.019  41.828   2.740
28800W        W94060   1.908  17.786  14.500
28801W        W94061  26.527  39.140   2.570
28802W        W94062  21.093   4.658  14.785
28803W        W94063  13.139  38.578   5.151
28804W        W94064  12.395  38.193  11.207
28805W        W94065  20.531  15.459   2.633
28806W        W94066  40.580  21.463  14.404
28807W        W94067  11.712  41.952  11.067
28808W        W94068  26.554  17.193  14.111
28809W        W94069  30.574  15.174   0.537
28810W        W94070  34.720  11.320   1.806
28811W        W94071  40.934  29.202  11.277
28812W        W94072  38.476  32.074  11.567
28813W        W94073  29.347  32.545  14.478
28814W        W94074  27.087  40.228  13.304
28815W        W94075  34.414  11.756  13.106
28816W        W94076  27.505   3.760   3.758
28817W        W94077  27.551  38.538  14.914
28818W        W94078   1.422  39.411   1.041
28819W        W94079   0.668  21.329   2.236
28820W        W94080  24.795  44.955  12.014
28821W        W94081  12.118  21.998   0.485
28822W        W94082  23.195   1.409   1.359
28823W        W94083  16.368  25.170   5.055
28824W        W94084  33.974  42.532   0.207
28825W        W94085  21.211  25.153  14.408
28826W        W94086  16.600  43.732   4.192
28827W        W94087   1.704   2.931   2.259
28828W        W94088  39.177  41.594  11.057
28829W        W94089  29.785   6.535   4.773
28830W        W94090  32.909  42.522   3.773
28831W        W94091  23.790  29.139   3.168
28832W        W94092  25.776  41.734  13.445
28833W        W94093  22.732  19.737   2.960
28834W        W94094  11.786   2.341  10.434
28835W        W94095  42.854  25.901   3.778
28836W        W94096  31.909   6.927  13.411
28837W        W94097  42.330  11.844  12.490
28838W        W94098  39.619  26.139   1.482
28839W        W94099  41.115   9.313   1.099
28840W        W94100  32.946   1.171   0.567
28841W        W94101  14.853  17.035   1.886
28842W        W94102  36.393  40.312  13.608
28843W        W94103  10.846  12.033  12.476
28844W        W94104  25.465  14.580   3.854
28845W        W94105  36.243  23.616  10.876
28846W        W94106  30.472  12.196   4.425
28847W        W94107  15.745  14.897   2.336
28848W        W94108  38.950   6.609   0.576
28849W        W94109  11.897  44.325  10.754
28850W        W94110  44.930  19.651   3.718
28851W        W94111  39.820  27.497  14.192
28852W        W94112  28.556  21.623   4.818
28853W        W94113  40.593  42.503   2.992
28854W        W94114  35.193  23.040   4.641
28855W        W94115  14.372  34.083   3.916
28856W        W94116  41.353  43.997   2.222
28857W        W94117   5.554   2.300   0.803
28858W        W94118  21.739  43.105  14.434
28859W        W94119  40.787  18.511  13.822
28860W        W94120  23.326  25.499   3.648
28861W        W94121  30.970  23.785  14.849
28862W        W94122  22.063   0.244   3.719
28863W        W94123  22.703  43.108  13.398
28864W        W94124   8.783  36.070  14.934
28865W        W94125  39.969  11.176  11.682
28866W        W94126  21.980   9.663  13.978
28867W        W94127  11.989  38.530   1.047
28868W        W94128  34.529  34.906  13.166
28869W        W94129   8.895  33.535  12.596
28870W        W94130  19.807  29.990  14.441
28871W        W94131  38.178  41.857  13.019
28872W        W94132  27.216  28.597  12.477
28873W        W94133  38.398  23.948   0.888
28874W        W94134  15.069  22.498   0.722
28875W        W94135  42.368  25.199   3.302
28876W        W94136  42.311  15.227  12.035
28877W        W94137  21.012  18.754   1.714
28878W        W94138  15.608  16.619  14.968
28879W        W94139   6.837  38.140   0.212
28880W        W94140  18.248  22.261   1.443
28881W        W94141  20.441  39.199   0.813
28882W        W94142  10.842  40.805   3.343
28883W        W94143   8.609  12.915  12.520
28884W        W94144   4.286  21.470  12.869
28885W        W94145  35.535   1.484   1.646
28886W        W94146   2.095  15.174   3.318
28887W        W94147   0.492  42.831  11.959
28888W        W94148  28.593   7.512  10.785
28889W        W94149  21.526   4.803   2.323
28890W        W94150  11.222  10.583  11.861
28891W        W94151  32.613   9.789   0.939
28892W        W94152  23.611   8.515   3.286
28893W        W94153  42.254  40.293  14.821
28894W        W94154  19.665   6.314  14.588
28895W        W94155  23.219  27.586   3.689
28896W        W94156  24.200   4.928   0.278
28897W        W94157   9.807  17.648  14.810
28898W        W94158  29.925  23.765  11.216
28899W        W94159  16.296  10.538  11.458
28900W        W94160  26.011  21.155   1.321
28901W        W94161   7.365  40.352  14.425
28902W        W94162  29.212  17.226   3.283
28903W        W94163   4.704  28.435   0.961
28904W        W94164  44.300  28.153   3.597
28905W        W94165  11.700  40.538   2.562
28906W        W94166  42.334  36.395  11.111
28907W        W94167  36.412  27.645   1.346
28908W        W94168  15.476  31.546  12.002
28909W        W94169  40.008  39.056   1.955
28910W        W94170  39.396   6.139  14.763
28911W        W94171  41.823  14.986   4.661
28912W        W94172   3.940   2.466   2.181
28913W        W94173  40.165  42.931  14.717
28914W        W94174   5.849  38.453   0.714
28915W        W94175  29.311  13.504   1.790
28916W        W94176  32.654  42.880  10.801
28917W        W94177  19.504  14.688   3.586
28918W        W94178  16.966  42.833  12.102
28919W        W94179  19.608   9.884  12.791
28920W        W94180  14.051   1.336  12.863
28921W        W94181   8.185  33.569  11.495
28922W        W94182  40.489  30.094  12.528
28923W        W94183  28.734  38.991  11.083
28924W        W94184  28.122   5.101   4.197
28925W        W94185  19.597  34.379   3.197
28926W        W94186  24.870  40.013  14.438
28927W        W94187  23.986  21.821  11.201
28928W        W94188  17.641  12.860  14.410
28929W        W94189  13.641  43.041   4.111
28930W        W94190  26.095   2.540   1.934
28931W        W94191  40.836  24.808   3.742
28932W        W94192   7.485  28.036   1.054
28933W        W94193  40.195  13.833  11.020
28934W        W94194   1.497  36.606   3.245
28935W        W94195  19.253  19.612   2.246
28936W        W94196  26.487   7.061   1.817
28937W        W94197  36.851  28.678  13.303
28938W        W94198   6.360  27.212  12.019
28939W        W94199  29.483  12.251   3.776
28940W        W94200  38.585  38.338   4.238
28941W        W94201  30.903  31.399  14.292
28942W        W94202  39.559  10.995  14.959
28943W        W94203  20.305   5.948  13.518
28944W        W94204   6.242  32.102  11.141
28945W        W94205  34.462   2.484  11.543
28946W        W94206  24.250  33.633   0.902
28947W        W94207  43.780  25.441   1.459
28948W        W94208  21.267  29.530   2.722
28949W        W94209  38.394  24.127   2.879
28950W        W94210  21.240  13.509   4.551
28951W        W94211  20.248  27.972  10.672
28952W        W94212   3.841  30.865   5.376
28953W        W94213  15.519   3.277   3.868
28954W        W94214  34.068  27.278   3.386
28955W        W94215  11.158   5.106  11.045
28956W        W94216  32.958   5.597   0.455
28957W        W94217  13.053  29.404  12.038
28958W        W94218  15.267  37.207   4.672
28959W        W94219  36.515   3.434  12.136
28960W        W94220  33.729   4.022  13.059
28961W        W94221  26.010   7.948   2.309
28962W        W94222  32.489   0.452  13.961
28963W        W94223   9.784  18.104   4.887
28964W        W94224  16.308   7.403  13.786
28965W        W94225   1.321  30.709   2.823
28966W        W94226   5.812   1.439   4.391
28967W        W94227  13.768  10.055   3.658
28968W        W94228   6.648  31.529  14.978
28969W        W94229  36.893  32.497  11.919
28970W        W94230  29.609  32.901  13.600
28971W        W94231  24.907  43.537  13.059
28972W        W94232  10.012  24.344   4.939
28973W        W94233  25.918  26.224   0.400
28974W        W94234  27.012   2.335  10.659
28975W        W94235  12.267  37.884   4.897
28976W        W94236  15.772  18.611  12.063
28977W        W94237  38.444   7.961  12.887
28978W        W94238  36.260  19.874   0.422
28979W        W94239  44.004  23.625  13.605
28980W        W94240   2.154  27.619  14.754
28981W        W94241  44.786  38.810   4.260
28982W        W94242  29.431  41.427  12.470
28983W        W94243  44.583   7.879   1.236
28984W        W94244  32.968   5.329  13.894
28985W        W94245  12.730  22.547   0.081
28986W        W94246  20.608  18.107   0.321
28987W        W94247  12.172   5.614   3.569
28988W        W94248   8.905  17.171   4.413
28989W        W94249  31.150  24.740  11.071
28990W        W94250  20.007  27.438  12.276
28991W        W94251  43.372  24.717  14.746
28992W        W94252  13.408  34.868   3.634
28993W        W94253  19.358   2.027   4.149
28994W        W94254  24.949   4.576  12.568
28995W        W94255  27.151   7.360  13.108
28996W        W94256   5.776  30.847   3.818
28997W        W94257  11.084  17.978  11.207
28998W        W94258   7.452  22.457  13.349
28999W        W94259  40.116  28.897  14.351
29000W        W94260   3.266  42.858  12.591
29001W        W94261   1.771   6.042  11.997
29002W        W94262   5.825  38.723   4.744
29003W        W94263  27.178   3.719   3.343
29004W        W94264  40.740  37.057   0.764
29005W        W94265  40.825  31.937  12.879
29006W        W94266  31.166  23.746  13.086
29007W        W94267  25.616  17.123  14.987
29008W        W94268  15.938  37.909  11.547
29009W        W94269  34.553  44.758   1.707
29010W        W94270  24.754  16.620   4.937
29011W        W94271  37.975  41.385  12.899
29012W        W94272  43.301  36.383   0.905
29013W        W94273  34.396  34.232   3.717
29014W        W94274  12.702  40.893  12.749
29015W        W94275   0.703   3.524   2.025
29016W        W94276  15.280  34.517   2.819
29017W        W94277   1.374   5.291  13.901
29018W        W94278  31.090   0.243   1.753
29019W        W94279  30.741  14.684  10.716
29020W        W94280  29.100  23.756  12.512
29021W        W94281  16.683  42.156  11.090
29022W        W94282  15.545   8.662   1.712
29023W        W94283  36.378  27.712   2.233
29024W        W94284   4.238  37.814  12.943
29025W        W94285   7.701  32.004   5.011
29026W        W94286  13.401  11.705   1.489
29027W        W94287  19.199   4.789  12.545
29028W        W94288   4.556  10.116  10.598
29029W        W94289  37.605  10.685  14.774
29030W        W94290  24.187   2.279   2.301
29031W        W94291  39.768  42.404  11.203
29032W        W94292   0.011  18.081  10.660
29033W        W94293  28.073  41.895   3.670
29034W        W94294  11.351  33.333  10.772
29035W        W94295   4.186  32.169  14.228
29036W        W94296  12.894   0.737   0.832
29037W        W94297   3.007  39.988   4.867
29038W        W94298   9.228  22.220  14.908
29039W        W94299   2.925  10.376  11.187
29040W        W94300  23.693  37.668  12.192
29041W        W94301  20.502  38.231  10.973
29042W        W94302  25.152  38.975   1.059
29043W        W94303  27.586  30.196   3.224
29044W        W94304  37.380  29.445  10.770
29045W        W94305  40.911  35.333  14.603
29046W        W94306  21.961   2.792   3.626
29047W        W94307  28.787  30.621  13.574
29048W        W94308  33.000  15.783   4.688
29049W        W94309   4.898  13.022  10.655
29050W        W94310   3.230  16.972  12.008
29051W        W94311  20.089  19.047   1.291
29052W        W94312  40.762  10.151  13.174
29053W        W94313  20.995  22.966  14.173
29054W        W94314  29.131   2.284   4.068
29055W        W94315  18.688   9.311   4.658
29056W        W94316  29.742   2.395   2.782
29057W        W94317  31.350   5.852   5.013
29058W        W94318  26.020  42.354  14.851
29059W        W94319  38.315  15.866  11.887
29060W        W94320   4.729  17.417   4.595
29061W        W94321  44.192  21.633  12.155
29062W        W94322   3.927  30.233   2.359
29063W        W94323  39.931  25.219   2.250
29064W        W94324   4.691   9.067   3.175
29065W        W94325  13.707   4.268   2.309
29066W        W94326  15.087   2.268   2.600
29067W        W94327  13.740  19.197   3.353
29068W        W94328  20.107  23.130  10.498
29069W        W94329  17.016  24.105  13.556
29070W        W94330  44.872   2.317  14.043
29071W        W94331   5.613  44.817  12.076
29072W        W94332  38.808   7.016  11.532
29073W        W94333  39.424   4.888   3.283
29074W        W94334  34.747  21.030   4.694
29075W        W94335   5.805  43.296  13.816
29076W        W94336  12.748  43.344   1.845
29077W        W94337   6.758  19.794   4.942
29078W        W94338  38.975  25.187   1.041
29079W        W94339  22.095  17.204   4.575
29080W        W94340  16.521   7.777   1.809
29081W        W94341  27.448   4.162   3.411
29082W        W94342  31.561  16.303  13.057
29083W        W94343   9.948  38.444  10.578
29084W        W94344  20.211   1.131   4.037
29085W        W94345  31.408   1.850  10.372
29086W        W94346  19.253   6.586   1.155
29087W        W94347  11.540   0.846   2.183
29088W        W94348   3.949  41.904   3.315
29089W        W94349  14.240  16.099   4.433
29090W        W94350  24.028   1.424   1.045
29091W        W94351   9.205  36.280   3.492
29092W        W94352   8.944  39.834   3.725
29093W        W94353  16.364  17.343   1.884
29094W        W94354  13.853  29.761   0.764
29095W        W94355  23.135  42.903   3.811
29096W        W94356  19.464  19.304  12.378
29097W        W94357  39.552   1.404  13.016
29098W        W94358  22.113  18.048   5.023
29099W        W94359  30.355   3.390  10.916
29100W        W94360  12.108  38.855   4.718
29101W        W94361   0.999   7.247   4.529
29102W        W94362  17.085   8.385  12.831
29103W        W94363  36.625  30.426   3.678
29104W        W94364  14.853  16.759  14.538
29105W        W94365  44.969   0.811  11.782
29106W        W94366  38.931   3.696   3.325
29107W        W94367  38.776   3.923  13.010
29108W        W94368  11.327  42.268  13.874
29109W        W94369  32.420  25.910  10.751
29110W        W94370   3.294   3.232  12.104
29111W        W94371  22.634  35.105  12.599
29112W        W94372  42.218  30.932   4.622
29113W        W94373  37.385  18.096   1.428
29114W        W94374  27.714   7.948  13.587
29115W        W94375  11.678  40.559  14.742
29116W        W94376  19.721   4.446  10.544
29117W        W94377  19.160  30.599   1.736
29118W        W94378  16.818  33.956  12.150
29119W        W94379  35.875  33.224   0.870
29120W        W94380  18.069  11.359  12.655
29121W        W94381   4.408   8.867  13.383
29122W        W94382  20.904  21.814   2.848
29123W        W94383   4.241  36.529   1.898
29124W        W94384   7.776  11.568  13.461
29125W        W94385  31.407  20.106   1.777
29126W        W94386  24.238  42.916   2.346
29127W        W94387  21.622   7.624  11.999
29128W        W94388  31.548  28.000   0.488
29129W        W94389  22.614  10.685   1.601
29130W        W94390  41.059  37.435  14.268
29131W        W94391  28.503  23.944   4.707
29132W        W94392  33.387  34.024   1.903
29133W        W94393   3.695   9.927   2.320
29134W        W94394   6.075  23.291  13.521
29135W        W94395  10.635  13.140  10.663
29136W        W94396   1.953  23.444  10.687
29137W        W94397  40.406   9.651   2.798
29138W        W94398  29.990   6.156  10.552
29139W        W94399   4.456   1.410  11.576
29140W        W94400  23.652   0.598   3.241
29141W        W94401  38.657  26.292   1.700
29142W        W94402   9.707  34.196  13.233
29143W        W94403  31.485  11.430  12.073
29144W        W94404  35.406  42.802   1.788
29145W        W94405  29.196  28.333   2.158
29146W        W94406   3.769  40.153  12.074
29147W        W94407  14.258   5.277   4.125
29148W        W94408  31.918  24.486  11.574
29149W        W94409   3.904   9.377   1.340
29150W        W94410  11.336   5.854  12.851
29151W        W94411  14.086  19.525   2.040
29152W        W94412  33.303  41.574   0.340
29153W        W94413   4.272  10.913  11.012
29154W        W94414  31.620   0.989  11.627
29155W        W94415   2.291  15.986   3.119
29156W        W94416  44.772   5.788   3.142
29157W        W94417  31.108  32.650   3.576
29158W        W94418   1.392   9.980   4.086
29159W        W94419  29.380  34.164   4.207
29160W        W94420   5.679   7.613  14.993
29161W        W94421   4.642  32.532   0.879
29162W        W94422  15.007  36.347  12.491
29163W        W94423  22.275  12.699  10.685
29164W        W94424  44.887  13.654  13.845
29165W        W94425   3.960   7.422  14.299
29166W        W94426   5.322  27.991  10.708
29167W        W94427  13.980  17.318  13.486
29168W        W94428  31.502  35.113   4.093
29169W        W94429  20.662  33.574  12.346
29170W        W94430  24.005   0.135  10.258
29171W        W94431  17.578  43.370  12.447
29172W        W94432  32.005  19.743  10.739
29173W        W94433   9.766  12.228  12.953
29174W        W94434  31.543  31.459   0.363
29175W        W94435  19.138  41.382   2.587
29176W        W94436  18.005  29.152   1.352
29177W        W94437   8.270  21.728   4.513
29178W        W94438   5.395  33.658   0.313
29179W        W94439  43.529  44.381  10.295
29180W        W94440  10.851  39.326  13.089
29181W        W94441  11.815  36.644  11.159
29182W        W94442  24.258  25.178  14.988
29183W        W94443  28.087  19.323   3.561
29184W        W94444  43.101  13.255  13.661
29185W        W94445  37.892  10.000  11.578
29186W        W94446   9.429  14.751  11.249
29187W        W94447  31.828  28.682  12.803
29188W        W94448  38.222  23.933   1.883
29189W        W94449  39.500  38.845  11.129
29190W        W94450  15.097  22.455  11.991
29191W        W94451  31.910  11.699   3.694
29192W        W94452  19.612  44.468   0.351
29193W        W94453   1.187   1.386  11.133
29194W        W94454  23.897  21.101  11.506
29195W        W94455  17.540  43.972  10.456
29196W        W94456  28.395  11.540   2.679
29197W        W94457  35.195  19.673   4.592
29198W        W94458  28.527  25.700   5.791
29199W        W94459  27.038  38.834   1.216
29200W        W94460  37.310  25.179   4.582
29201W        W94461  17.289   5.230   4.179
29202W        W94462  22.579  41.826  11.588
29203W        W94463  15.290  28.473  10.473
29204W        W94464  40.024  27.983  10.688
29205W        W94465  16.997   2.764  11.304
29206W        W94466  16.255   9.461  14.927
29207W        W94467  12.205   5.691  11.512
29208W        W94468  12.869  13.413  14.302
29209W        W94469  44.047  16.772   4.949
29210W        W94470  20.111  30.262   3.248
29211W        W94471  18.010  15.673   0.753
29212W        W94472  12.199  36.609  13.485
29213W        W94473  35.439  43.512   1.453
29214W        W94474  30.408  34.691   1.470
29215W        W94475  35.691  30.927   0.318
29216W        W94476  38.075  18.580   4.519
29217W        W94477   8.352  12.646   2.843
29218W        W94478  39.061   1.972  12.430
29219W        W94479  15.842   3.400  10.703
29220W        W94480  14.023  27.173   1.739
29221W        W94481  38.549  28.358  10.750
29222W        W94482  44.503  15.128  14.320
29223W        W94483   5.789  19.225  10.800
29224W        W94484  27.356  41.698  11.103
29225W        W94485  27.988  14.848  12.079
29226W        W94486   2.939   2.541   0.502
29227W        W94487  23.675  33.031  13.818
29228W        W94488  11.624   8.944  10.715
29229W        W94489   0.667   3.815   4.560
29230W        W94490  17.633  20.571  13.811
29231W        W94491   6.778  42.508  12.032
29232W        W94492  34.391  12.196  11.740
29233W        W94493  21.105  13.293  11.184
29234W        W94494  28.369  11.380   4.003
29235W        W94495  13.883  10.747  14.786
29236W        W94496  44.499  30.472  11.131
29237W        W94497  19.996  14.574  13.113
29238W        W94498  24.806  23.241   9.640
29239W        W94499  43.110  10.694   3.227
29240W        W94500  18.232   9.877   3.648
29241W        W94501   0.864  19.316   0.927
29242W        W94502  16.190  38.014  14.376
29243W        W94503  43.019  18.603  10.978
29244W        W94504  32.180  34.374  10.305
29245W        W94505  41.826  29.649  13.892
29246W        W94506   6.013   0.886   4.250
29247W        W94507  12.781  21.463  11.312
29248W        W94508   2.254  10.980   1.682
29249W        W94509  13.521  34.992   2.801
29250W        W94510  42.423  10.564   4.637
29251W        W94511  19.539  22.129  11.524
29252W        W94512  32.631  25.064   0.969
29253W        W94513  31.668   8.634   4.870
29254W        W94514   3.709   7.636  14.739
29255W        W94515  10.390  12.726  14.986
29256W        W94516  18.939   3.397  12.869
29257W        W94517   6.786  24.997  14.117
29258W        W94518  33.457  28.720  13.975
29259W        W94519  23.315  13.706   2.665
29260W        W94520  14.610  25.624  14.302
29261W        W94521  42.026  29.645  12.544
29262W        W94522   0.647  39.684  11.152
29263W        W94523  20.352  24.137   4.177
29264W        W94524   1.210   2.712   2.168
29265W        W94525  39.980   0.508   0.458
29266W        W94526  35.501   3.337  13.684
29267W        W94527   9.721  14.323  10.819
29268W        W94528  11.669  25.551  12.101
29269W        W94529   0.926  29.369  11.985
29270W        W94530   6.463  12.595   0.270
29271W        W94531   3.894  28.742   0.420
29272W        W94532  40.573  13.957   5.025
29273W        W94533  24.616  41.583   0.940
29274W        W94534  10.693  27.681  14.552
29275W        W94535   1.040  34.100  14.005
29276W        W94536   3.673   0.044   1.109
29277W        W94537  22.601   3.299   2.970
29278W        W94538  11.673  28.625   4.179
29279W        W94539   0.904  21.202  13.480
29280W        W94540  23.433  31.392  11.183
29281W        W94541  24.615  21.323   3.731
29282W        W94542   5.710  32.128   2.851
29283W        W94543   1.379   9.976   1.669
29284W        W94544  32.234  14.588  13.915
29285W        W94545  28.456  28.428   0.832
29286W        W94546  12.637   5.765  13.233
29287W        W94547  28.718  39.591  12.402
29288W        W94548  44.383  16.203  12.267
29289W        W94549   6.279  26.418   1.673
29290W        W94550   5.395  34.003  12.967
29291W        W94551  17.564  17.903   5.361
29292W        W94552  43.070  15.311   3.714
29293W        W94553   1.006   2.353   0.194
29294W        W94554  43.531  10.172   1.603
29295W        W94555   1.282  25.162   0.355
29296W        W94556  21.846   1.165  13.229
29297W        W94557  22.201  10.724  11.551
29298W        W94558  29.550  28.441  10.327
29299W        W94559  38.517  28.040   2.704
29300W        W94560  40.055  42.434   3.364
29301W        W94561   5.848  22.767   1.287
29302W        W94562  42.287   3.815   2.561
29303W        W94563   6.893  33.158  12.390
29304W        W94564   3.885  32.920   0.441
29305W        W94565  17.804  32.475   3.725
29306W        W94566  18.153   0.540   2.642
29307W        W94567  10.165   7.704   0.328
29308W        W94568  31.048   2.192   1.816
29309W        W94569  20.175  11.556   1.846
29310W        W94570   0.782  35.109  13.973
29311W        W94571  43.179  19.758   2.392
29312W        W94572  19.294  27.166   0.313
29313W        W94573   0.425  28.001  11.472
29314W        W94574  29.698  28.657   0.210
29315W        W94575  22.976  36.353   1.864
29316W        W94576  11.328  43.840  13.502
29317W        W94577   2.264  10.721   3.094
29318W        W94578  26.001  15.052  12.350
29319W        W94579  33.669  40.854   3.671
29320W        W94580   9.712  16.994  12.399
29321W        W94581  26.752  30.125   4.109
29322W        W94582  31.423  17.678   0.667
29323W        W94583  16.406   3.387   4.929
29324W        W94584  29.880  44.268  12.020
29325W        W94585  29.169  16.454   2.874
29326W        W94586  20.042  21.575   0.444
29327W        W94587  22.301   1.524   0.302
29328W        W94588   2.588  38.951  11.347
29329W        W94589  19.156  18.654   0.808
29330W        W94590  22.018  27.682   3.302
29331W        W94591  18.551  24.505  12.175
29332W        W94592   9.377  32.982   1.578
29333W        W94593   6.339  19.805   3.697
29334W        W94594  16.360   0.882  12.868
29335W        W94595  27.135  35.546   4.634
29336W        W94596  36.502  28.202   4.581
29337W        W94597  39.329  33.570  10.496
29338W        W94598  36.190  30.156   3.620
29339W        W94599  33.928  38.318  10.936
29340W        W94600  25.226  44.337   2.698
29341W        W94601  44.020  38.122  13.415
29342W        W94602  32.169  24.447   9.882
29343W        W94603  32.848   9.153   2.351
29344W        W94604  27.607  23.469   3.269
29345W        W94605  26.733  41.812   1.320
29346W        W94606  10.161  41.066   0.629
29347W        W94607  16.468   2.945   3.579
29348W        W94608  25.284   0.268   1.320
29349W        W94609  10.810  30.526   2.132
29350W        W94610   0.578  41.519   1.462
29351W        W94611  44.258   3.464   4.589
29352W        W94612  24.182  13.580   4.541
29353W        W94613  10.962  28.068  14.767
29354W        W94614  44.882  17.925   0.318
29355W        W94615  44.879  20.081   4.035
29356W        W94616  21.244  34.203  14.939
29357W        W94617  29.920   8.298   4.543
29358W        W94618   2.261  14.240   0.736
29359W        W94619  30.437  15.603   2.792
29360W        W94620  18.109  37.038   4.517
29361W        W94621  32.931  24.532  12.428
29362W        W94622  35.279   6.250   4.987
29363W        W94623  34.832  20.824  11.587
29364W        W94624   4.703   3.283  14.995
29365W        W94625  22.125  10.062   0.805
29366W        W94626   0.244  25.606  13.076
29367W        W94627  21.083  31.369   1.706
29368W        W94628   5.544  21.575   2.454
29369W        W94629  31.991   9.589   1.450
29370W        W94630  19.314  39.988  12.027
29371W        W94631  25.093  17.680  13.767
29372W        W94632   3.513  26.544   1.209
29373W        W94633  11.379  17.137  12.534
29374W        W94634  37.037  34.698  14.039
29375W        W94635  15.265   6.990  14.852
29376W        W94636  38.922  36.271  10.828
29377W        W94637  30.124  42.974   3.338
29378W        W94638  41.270  29.587   2.318
29379W        W94639  20.341   5.265  12.959
29380W        W94640  11.865  11.555  11.146
29381W        W94641  35.266  13.645  14.908
29382W        W94642  34.549  14.067  12.326
29383W        W94643  44.539  27.145  13.027
29384W        W94644  38.649   8.602  13.472
29385W        W94645  23.222  39.388   4.873
29386W        W94646  16.044  37.564  11.191
29387W        W94647   7.312  35.310  13.159
29388W        W94648   5.494  24.888  12.005
29389W        W94649  26.299  17.393  10.683
29390W        W94650   6.402  43.110  14.143
29391W        W94651   3.925  16.513  10.657
29392W        W94652  22.564   3.656  10.582
29393W        W94653   7.358   0.504   2.274
29394W        W94654   6.467  16.634   3.634
29395W        W94655  19.199  17.142  12.481
29396W        W94656   3.760  16.294  12.827
29397W        W94657  19.112  34.992  12.450
29398W        W94658  16.879  39.444  11.496
29399W        W94659  25.160  20.679   2.186
29400W        W94660  22.538   2.928   1.364
29401W        W94661  15.753   2.008  12.574
29402W        W94662  20.714  15.041   4.389
29403W        W94663  34.365  25.486   0.958
29404W        W94664  13.315   0.228  14.583
29405W        W94665  12.658   1.876  14.365
29406W        W94666   3.942   7.804  10.499
29407W        W94667  26.089  28.044   4.441
29408W        W94668  27.638  31.385   0.500
29409W        W94669  22.840  32.499   3.994
29410W        W94670  20.134  36.803  12.668
29411W        W94671  33.088  11.171   2.060
29412W        W94672  39.726  11.440  12.710
29413W        W94673  24.546  13.047   1.301
29414W        W94674  39.514  14.881  10.817
29415W        W94675  14.438  40.831  14.994
29416W        W94676  25.708  43.565  11.563
29417W        W94677  19.584  16.372  12.250
29418W        W94678  29.088   6.891   3.197
29419W        W94679  40.284  17.379   1.542
29420W        W94680   7.240  39.888  13.097
29421W        W94681  32.641  16.891  12.910
29422W        W94682  17.971  10.697   2.195
29423W        W94683  31.469   5.125  14.222
29424W        W94684  32.461  11.656   2.622
29425W        W94685  25.630  12.449  12.217
29426W        W94686  18.071  11.538   5.081
29427W        W94687  26.512  33.045  14.283
29428W        W94688  18.622   3.924  10.658
29429W        W94689  19.640  17.090   2.170
29430W        W94690  15.725  35.824  14.716
29431W        W94691   1.156  23.944   2.784
29432W        W94692  43.999  29.477   2.742
29433W        W94693  18.291  32.562   1.898
29434W        W94694  17.713   8.363   3.788
29435W        W94695  13.326  30.534  12.344
29436W        W94696   3.926   4.808   4.864
29437W        W94697   2.446  34.911  12.004
29438W        W94698  18.833  31.194   3.718
29439W        W94699   6.701  26.890   2.288
29440W        W94700  23.802  42.864  12.784
29441W        W94701  17.161   6.905   0.894
29442W        W94702   9.174  16.391  10.568
29443W        W94703   7.928  17.406  10.041
29444W        W94704  19.664  31.810   5.077
29445W        W94705  37.535  15.529   4.032
29446W        W94706  43.347   8.030  13.939
29447W        W94707  18.222   8.333  10.994
29448W        W94708  33.720  21.660  14.310
29449W        W94709   5.264   2.593   0.386
29450W        W94710  36.549  31.160   3.239
29451W        W94711  18.413  11.664   0.719
29452W        W94712   7.058  31.134  13.114
29453W        W94713  30.895  34.453  13.374
29454W        W94714  44.077  36.462  11.722
29455W        W94715  38.987  43.109  12.963
29456W        W94716  11.617  40.546  11.932
29457W        W94717  40.799  19.514  13.080
29458W        W94718   9.229  12.131   4.878
29459W        W94719  24.460  21.708   0.312
29460W        W94720  44.816  14.759   3.249
29461W        W94721  29.196  20.632   3.669
29462W        W94722  24.284  17.003  10.076
29463W        W94723  29.642  25.163  13.751
29464W        W94724   4.681  29.845   2.667
29465W        W94725  40.257   6.553   2.837
29466W        W94726  33.183   8.288  11.167
29467W        W94727  20.983  37.383  10.683
29468W        W94728  13.250  22.182   1.846
29469W        W94729  32.159  13.656  13.902
29470W        W94730   4.283  36.499  13.397
29471W        W94731  25.936   6.289  10.416
29472W        W94732   6.290   5.317  11.422
29473W        W94733  15.158  17.779  12.189
29474W        W94734  31.499  25.970   0.852
29475W        W94735  33.815   2.419  14.854
29476W        W94736   9.740  22.274  13.476
29477W        W94737  36.034  30.194  12.001
29478W        W94738   6.028  16.087  11.947
29479W        W94739  13.127  28.075   1.897
29480W        W94740  10.580   3.840   0.415
29481W        W94741  21.547  20.200  10.428
29482W        W94742  16.387  35.721  14.804
29483W        W94743  41.410  29.939   3.363
29484W        W94744  41.908  43.098   3.333
29485W        W94745   5.737   9.180  13.192
29486W        W94746  13.988   9.136  11.652
29487W        W94747  44.827  26.468  13.289
29488W        W94748  14.743  30.646   2.268
29489W        W94749  44.507  17.778   4.137
29490W        W94750  19.124  11.658   0.006
29491W        W94751  25.940   5.226  14.101
29492W        W94752   7.829  24.657   3.273
29493W        W94753  36.978  42.864   2.564
29494W        W94754  31.686  28.735  11.121
29495W        W94755   0.515   7.847  10.558
29496W        W94756  32.592  44.339   0.299
29497W        W94757  39.853  20.677   1.279
29498W        W94758  17.228  33.766  12.918
29499W        W94759  38.334  26.514   2.856
29500W        W94760  13.547  37.652   4.160
29501W        W94761  23.155  22.105   0.968
29502W        W94762  40.955  41.764  12.447
29503W        W94763   4.812  20.646  11.140
29504W        W94764  27.070  30.860  14.478
29505W        W94765   9.507  14.642  12.157
29506W        W94766  31.164  44.349  14.078
29507W        W94767  17.610  27.546   3.436
29508W        W94768  40.247  19.711  13.964
29509W        W94769  36.725   6.187  14.313
29510W        W94770  21.252  28.722   2.426
29511W        W94771  42.086  13.704  12.440
29512W        W94772  33.705  41.031  12.351
29513W        W94773  25.171  32.027  14.442
29514W        W94774  28.430   1.220   1.263
29515W        W94775  41.017  26.867  12.419
29516W        W94776  22.032  20.771   2.818
29517W        W94777  44.328   0.528  10.822
29518W        W94778  10.793  23.293  13.087
29519W        W94779  20.763   4.875   4.574
29520W        W94780  17.330  34.011   2.193
29521W        W94781   6.051   4.267  11.642
29522W        W94782  10.129  38.437   2.315
29523W        W94783  26.859   8.771   0.292
29524W        W94784  14.680  28.926   4.340
29525W        W94785  13.721  15.391   1.892
29526W        W94786  10.366   9.648  12.512
29527W        W94787  44.810  20.206  11.521
29528W        W94788   9.646  29.434   4.245
29529W        W94789   8.297  32.918   1.011
29530W        W94790  36.614  14.710   2.233
29531W        W94791  33.977  41.973   1.969
29532W        W94792  26.109  25.627   0.819
29533W        W94793  39.889   8.319  12.657
29534W        W94794  36.072   1.689   1.792
29535W        W94795  33.554  20.762   0.704
29536W        W94796  40.919  18.010   3.683
29537W        W94797  38.268   6.427   3.348
29538W        W94798   5.880  37.554   3.214
29539W        W94799  11.877  12.314  12.011
29540W        W94800  21.622  14.095   2.479
29541W        W94801  23.639  38.359   0.506
29542W        W94802  39.378  36.093  11.409
29543W        W94803  19.492  20.491  14.485
29544W        W94804  32.535   9.381  14.759
29545W        W94805   4.906  35.762   4.567
29546W        W94806  40.418  44.255  12.083
29547W        W94807  39.595  39.205  13.877
29548W        W94808  16.021  16.081  10.987
29549W        W94809   3.265  44.191   3.599
29550W        W94810   9.483  22.285   0.363
29551W        W94811  11.002  15.769   0.391
29552W        W94812  25.176  22.049   1.949
29553W        W94813   2.404  41.480   3.145
29554W        W94814   8.240  33.438   0.775
29555W        W94815  10.304   2.201   9.830
29556W        W94816  16.695   7.217   1.728
29557W        W94817  37.418  33.364  14.041
29558W        W94818  38.563  21.576   0.601
29559W        W94819  17.362  16.666  14.354
29560W        W94820  19.070  38.084  11.010
29561W        W94821   8.445  33.086   2.821
29562W        W94822   0.902  12.391  13.536
29563W        W94823  34.970  18.129  11.514
29564W        W94824  31.971  14.727  10.774
29565W        W94825   7.040   4.937  13.952
29566W        W94826  32.525   0.687   2.308
29567W        W94827  24.704  34.844  11.209
29568W        W94828   4.442  24.991   4.056
29569W        W94829  24.013  11.188  14.806
29570W        W94830  36.944  43.785   4.938
29571W        W94831   1.333  18.301   0.819
29572W        W94832   3.351  35.628   0.411
29573W        W94833  21.483  10.044   4.939
29574W        W94834   1.739  23.517  14.159
29575W        W94835  24.522   5.653  11.208
29576W        W94836  42.454   5.827  14.307
29577W        W94837  41.437  43.413   3.464
29578W        W94838  28.170  22.048  14.713
29579W        W94839  30.124  33.800   0.502
29580W        W94840   4.050  13.713  14.346
29581W        W94841  27.937   1.047   2.575
29582W        W94842   8.076  44.454   4.994
29583W        W94843   7.299  10.277  14.199
29584W        W94844  14.595  19.695  11.110
29585W        W94845  13.224   8.508  12.458
29586W        W94846   9.500   3.370  13.581
29587W        W94847  13.262  36.378  11.687
29588W        W94848   8.445   2.797   2.371
29589W        W94849  21.531  39.538   2.433
29590W        W94850  16.252  16.338   1.357
29591W        W94851  28.600  27.231   3.181
29592W        W94852  18.144  22.942  11.117
29593W        W94853   9.185  37.256   1.994
29594W        W94854   7.092  12.167  11.535
29595W        W94855  35.566  23.517   1.135
29596W        W94856   8.497  21.472   2.302
29597W        W94857  22.590  14.851  13.611
29598W        W94858   0.900  41.386   0.485
29599W        W94859   0.794  20.200   4.355
29600W        W94860  29.065  27.576   4.602
29601W        W94861  11.220  12.299   4.581
29602W        W94862   0.554   7.298   3.632
29603W        W94863  24.934  24.957   3.564
29604W        W94864  13.622  37.249  13.574
29605W        W94865   9.222   7.752   9.782
29606W        W94866  25.697  33.192  14.395
29607W        W94867  40.283  16.666   2.281
29608W        W94868  27.030   6.912   1.172
29609W        W94869  10.540  25.616  13.456
29610W        W94870  20.750  31.967   0.812
29611W        W94871  19.452  35.155   4.840
29612W        W94872  26.963  31.027   4.726
29613W        W94873   2.515  12.711   3.289
29614W        W94874  25.798   9.905   4.200
29615W        W94875  41.831  22.969  13.986
29616W        W94876   6.578   7.902   1.025
29617W        W94877  24.638  23.185   0.613
29618W        W94878  37.844  20.360   3.582
29619W        W94879  32.278   8.758  12.070
29620W        W94880   0.908  19.779   4.637
29621W        W94881  10.776  16.508  10.598
29622W        W94882  20.206   1.546  11.140
29623W        W94883  12.364  28.198  12.107
29624W        W94884  22.177   4.133  12.131
29625W        W94885  25.108  43.699   1.276
29626W        W94886  32.822  13.186   0.427
29627W        W94887  18.875  18.092   0.304
29628W        W94888   2.846  20.996   4.610
29629W        W94889  32.812  37.955  10.572
29630W        W94890  19.757  29.461   5.058
29631W        W94891  15.325  43.049  11.467
29632W        W94892  15.752  10.331  12.436
29633W        W94893   2.890  33.006   1.356
29634W        W94894  43.755  42.289  11.431
29635W        W94895  18.077   6.769  11.481
29636W        W94896  37.248  32.083   0.946
29637W        W94897  35.115  39.281  13.973
29638W        W94898   3.253  31.441  11.070
29639W        W94899  20.168   4.722   1.475
29640W        W94900  27.181  16.182  13.270
29641W        W94901  25.867  40.885   2.665
29642W        W94902  26.516   7.656   3.857
29643W        W94903   8.295   9.281   5.538
29644W        W94904  33.146  41.521   0.835
29645W        W94905  26.492  31.884   1.838
29646W        W94906   4.345  20.082   2.794
29647W        W94907  28.321  26.707   1.200
29648W        W94908  40.025  17.717   1.871
29649W        W94909   6.818   6.511  14.529
29650W        W94910   1.668  21.219  12.139
29651W        W94911  14.268  14.543   3.543
29652W        W94912   5.747  11.669   3.863
29653W        W94913  38.151  44.538   2.192
29654W        W94914  14.590  36.027  11.913
29655W        W94915  28.558  24.524  12.387
29656W        W94916  15.326   2.704   2.734
29657W        W94917  39.307  20.112   1.218
29658W        W94918   2.772  44.431   1.410
29659W        W94919  31.378   9.360  11.546
29660W        W94920  44.018  12.677  14.377
29661W        W94921  34.442  13.107   3.194
29662W        W94922   3.793  15.403  12.672
29663W        W94923  40.944   5.377   4.870
29664W        W94924  16.644  41.514   0.698
29665W        W94925  17.515  31.381   3.221
29666W        W94926  39.630  36.015  13.304
29667W        W94927   9.583  42.919   3.302
29668W        W94928  20.508  33.923   4.891
29669W        W94929  37.152  27.496  14.271
29670W        W94930  24.081  44.884  11.247
29671W        W94931   5.864  10.167  14.809
29672W        W94932  26.845  17.013   1.370
29673W        W94933  10.890  13.653  10.668
29674W        W94934  30.019  23.656   4.307
29675W        W94935  37.068  27.179  12.069
29676W        W94936  10.688   0.892  12.855
29677W        W94937  34.150  26.382   1.402
29678W        W94938  39.564   1.904  12.481
29679W        W94939  22.296   8.854   2.551
29680W        W94940  31.887  20.061  12.021
29681W        W94941   1.555  35.967   0.254
29682W        W94942  40.163  28.321  12.499
29683W        W94943  25.993   2.716   3.226
29684W        W94944  25.083  40.390   0.718
29685W        W94945   3.931   6.582   4.132
29686W        W94946  39.409  22.925  13.015
29687W        W94947  35.530  43.400   0.948
29688W        W94948  18.713  10.643  13.823
29689W        W94949  29.828  39.068   1.735
29690W        W94950  15.843  16.599  10.756
29691W        W94951   0.892   5.190   3.481
29692W        W94952   5.847  44.376  12.806
29693W        W94953  40.911  14.519  12.946
29694W        W94954   3.358   3.517   9.868
29695W        W94955  27.495  32.005   5.045
29696W        W94956   7.370  36.056   3.913
29697W        W94957  44.428  28.879   1.756
29698W        W94958  40.999  12.053   2.168
29699W        W94959  23.511  23.798  13.377
29700W        W94960  32.624  12.226  13.898
29701W        W94961   2.191  20.700  13.415
29702W        W94962  17.613  23.216   0.227
29703W        W94963   6.898  24.923  14.607
29704W        W94964  21.133   1.338  13.802
29705W        W94965  10.267  13.730   4.769
29706W        W94966  26.385   3.434   3.354
29707W        W94967  31.974  38.928   4.103
29708W        W94968  16.308  26.596   0.912
29709W        W94969  28.953  33.963  12.925
29710W        W94970  24.663  12.726   0.530
29711W        W94971  24.479   5.341  11.641
29712W        W94972  15.627  40.354  13.847
29713W        W94973  30.969  23.477  12.129
29714W        W94974  25.674  24.131   2.450
29715W        W94975  16.705  30.328  12.778
29716W        W94976  17.376  21.681   3.221
29717W        W94977  36.623   9.058  11.385
29718W        W94978  33.381  23.807   0.845
29719W        W94979  24.169  32.681  11.588
29720W        W94980   9.750  19.207   2.370
29721W        W94981   0.742  40.642  14.917
29722W        W94982  25.152  38.097   3.285
29723W        W94983  32.970  18.793   2.927
29724W        W94984   2.839  43.458   1.101
29725W        W94985  33.487  35.731   3.891
29726W        W94986  28.015  44.291   3.079
29727W        W94987  17.208  21.604  10.616
29728W        W94988   3.976  30.807   0.335
29729W        W94989   5.383  16.404   2.625
29730W        W94990  10.708   9.734  14.705
29731W        W94991  11.285  18.446   4.504
29732W        W94992  23.229   8.431  12.377
29733W        W94993  35.974  38.592  12.507
29734W        W94994  25.489  22.760  14.897
29735W        W94995  20.512  26.161  13.463
29736W        W94996  34.378  29.163   1.819
29737W        W94997  28.003  37.853  11.648
29738W        W94998  37.329   3.327   3.220
29739W        W94999  35.588  40.991   1.820
29740W        W95000  10.612  15.571   4.561
29741W        W95001  37.927   1.504  11.127
29742W        W95002  27.440  36.517  13.952
29743W        W95003  10.433  14.260  12.086
29744W        W95004  33.833  33.535   5.008
29745W        W95005  25.986  23.754   3.712
29746W        W95006   4.339   3.340  14.598
29747W        W95007  42.512  22.744   4.127
29748W        W95008  29.583  12.257   1.202
29749W        W95009  42.418  33.467  13.289
29750W        W95010   1.093   5.302   4.887
29751W        W95011  43.340  32.848  10.531
29752W        W95012  39.154  12.214  11.137
29753W        W95013   3.487  26.245  11.753
29754W        W95014   1.846  27.723   2.623
29755W        W95015  43.756  40.103   3.664
29756W        W95016  12.384  40.540   4.320
29757W        W95017  12.510   7.170   1.033
29758W        W95018   0.834  10.108  14.531
29759W        W95019  37.918  43.355   0.321
29760W        W95020  18.415  42.467   3.556
29761W        W95021  32.077  31.039   1.040
29762W        W95022  27.112  35.787   2.610
29763W        W95023   4.479  41.621   4.143
29764W        W95024   6.635  43.992  12.473
29765W        W95025   4.315  40.880  13.298
29766W        W95026  21.400  28.578   2.901
29767W        W95027  14.056  40.096   1.064
29768W        W95028  11.330  37.638  10.802
29769W        W95029   4.828   6.916   2.486
29770W        W95030  24.247  42.069   2.330
29771W        W95031   5.601  16.730   2.264
29772W        W95032  18.587   8.860   1.651
29773W        W95033   1.273   2.870   0.339
29774W        W95034   8.782  20.493  13.055
29775W        W95035   1.529  43.949   0.334
29776W        W95036  18.489   7.445   0.576
29777W        W95037   0.946   2.199   2.249
29778W        W95038  12.884   8.211   0.453
29779W        W95039  32.606  26.518  11.944
29780W        W95040  10.605  30.530  12.283
29781W        W95041  36.430  26.257  11.164
29782W        W95042   1.915  36.490  11.191
29783W        W95043  12.987   0.516  12.936
29784W        W95044  39.885  19.809  10.498
29785W        W95045  34.323  31.826  14.064
29786W        W95046  43.547  23.347   3.575
29787W        W95047   7.238   0.642  11.562
29788W        W95048  43.880   1.903   3.729
29789W        W95049   1.038  37.010   1.621
29790W        W95050  20.504  37.488  13.506
29791W        W95051  43.443  43.127  10.432
29792W        W95052  25.166  34.099   3.862
29793W        W95053   0.064  14.828  13.571
29794W        W95054  39.978  25.144  11.183
29795W        W95055   5.211  41.438  14.904
29796W        W95056   2.787   4.659   4.643
29797W        W95057   6.323   9.928  12.806
29798W        W95058   4.900  34.016   0.317
29799W        W95059  25.564  40.843  12.942
29800W        W95060   3.707  12.603   2.802
29801W        W95061  26.287   6.435  13.499
29802W        W95062  30.063  34.265   1.446
29803W        W95063   7.406  28.347   3.317
29804W        W95064  41.930  11.367  14.605
29805W        W95065   0.392  37.696   3.546
29806W        W95066  26.570  44.935   4.695
29807W        W95067  17.766  25.115  13.086
29808W        W95068   0.949  21.540   0.476
29809W        W95069  42.448  38.007  14.995
29810W        W95070  19.839  33.015  11.561
29811W        W95071  24.474  28.630   2.609
29812W        W95072  22.027  32.851  12.881
29813W        W95073  31.035  20.241  12.681
29814W        W95074  15.133  12.744  14.441
29815W        W95075   5.972   8.328   2.391
29816W        W95076  30.921   6.745   4.170
29817W        W95077  10.429  15.122   0.383
29818W        W95078  22.992  14.141   2.645
29819W        W95079  19.143   2.204  14.404
29820W        W95080  42.371  20.274   2.579
29821W        W95081  17.689   2.287  11.931
29822W        W95082  13.557  40.004  14.425
29823W        W95083  11.453  16.594   0.323
29824W        W95084  41.827   6.962   1.726
29825W        W95085   0.879  31.313  13.574
29826W        W95086  29.515  22.505   3.272
29827W        W95087  33.653  42.701   3.243
29828W        W95088  13.835  31.150   3.713
29829W        W95089  40.168  20.996  11.905
29830W        W95090  41.835  33.055  11.695
29831W        W95091  30.286  27.898   4.068
29832W        W95092  38.644   9.121  14.231
29833W        W95093  25.089  16.918  13.096
29834W        W95094   1.491  41.542  11.995
29835W        W95095  22.351   8.228  13.667
29836W        W95096  41.356  25.748   1.958
29837W        W95097  25.600  25.715  11.376
29838W        W95098  36.227  10.453   0.702
29839W        W95099  21.641  35.360   4.630
29840W        W95100  18.083   3.936  11.874
29841W        W95101  12.076  17.996   0.847
29842W        W95102  37.313  13.548  14.847
29843W        W95103  38.764  36.768   0.286
29844W        W95104  23.952  28.488  12.984
29845W        W95105  18.400  27.503  14.345
29846W        W95106  36.280   6.300  11.950
29847W        W95107  17.617  34.098   2.655
29848W        W95108  15.661   1.737   4.318
29849W        W95109   8.172   8.759  11.561
29850W        W95110  41.546  35.914   2.439
29851W        W95111   9.179  40.304   3.690
29852W        W95112  26.511   3.590  10.601
29853W        W95113  26.922  38.906   3.497
29854W        W95114   9.446  41.512  14.276
29855W        W95115  28.317  23.690  14.215
29856W        W95116  23.944  10.187   3.202
29857W        W95117  27.202  35.341  14.512
29858W        W95118  37.090  31.007  14.435
29859W        W95119  20.087  40.383  10.578
29860W        W95120  18.511  29.464  11.672
29861W        W95121   6.995  34.516  11.591
29862W        W95122  32.402  11.350  13.066
29863W        W95123  19.833  35.400  12.514
29864W        W95124  18.390  17.084  13.009
29865W        W95125  10.061   4.832  13.433
29866W        W95126  10.244  16.812  14.984
29867W        W95127  39.903  22.965  13.889
29868W        W95128  39.509   0.046   1.384
29869W        W95129  33.850  23.169  13.637
29870W        W95130  22.796  11.118   2.336
29871W        W95131  22.259  15.132   4.189
29872W        W95132  31.599  17.664   1.605
29873W        W95133  37.521  38.967   1.335
29874W        W95134  20.653  17.329   1.267
29875W        W95135   5.801  19.186   3.257
29876W        W95136  10.178  22.093  11.068
29877W        W95137  31.884  21.693   3.386
29878W        W95138  34.345  22.697   3.038
29879W        W95139  37.788  20.772  12.614
29880W        W95140  11.029   1.241   1.722
29881W        W95141  20.237  16.616   1.033
29882W        W95142  29.810  33.461  14.372
29883W        W95143   6.659  31.551   1.878
29884W        W95144  28.147  15.068   0.441
29885W        W95145   8.877  38.444   4.401
29886W        W95146  36.021  14.106   3.283
29887W        W95147  43.761  23.021  13.091
29888W        W95148   2.019  34.080   0.351
29889W        W95149   6.463  27.392  13.813
29890W        W95150  23.269  43.766   1.415
29891W        W95151  35.913   8.442  10.501
29892W        W95152   0.133  37.964   0.821
29893W        W95153  27.681  11.278   2.216
29894W        W95154   5.334  25.181   0.382
29895W        W95155   1.323  36.345   0.523
29896W        W95156   8.340  15.478  14.328
29897W        W95157  15.820   0.982  10.708
29898W        W95158  12.209  20.849  12.450
29899W        W95159  24.685   5.227   1.675
29900W        W95160  18.687  30.546   3.246
29901W        W95161   2.891  36.323  11.995
29902W        W95162  15.015   7.891  11.902
29903W        W95163   5.160   9.159  11.339
29904W        W95164  23.534   4.107   2.273
29905W        W95165  39.784  43.944  12.131
29906W        W95166  10.848   0.982  13.899
29907W        W95167  20.944  41.442   4.045
29908W        W95168  29.471  36.418   3.228
29909W        W95169  41.506  28.041  14.501
29910W        W95170  39.816   7.391  10.822
29911W        W95171  32.630  11.348   0.298
29912W        W95172  34.484  23.697  11.558
29913W        W95173  12.609  13.722   1.403
29914W        W95174   3.801  16.154  13.819
29915W        W95175  17.334  30.216  14.353
29916W        W95176  30.229  39.505   3.276
29917W        W95177   6.144  31.379  14.870
29918W        W95178   0.352  25.254  13.897
29919W        W95179  37.085  32.957  12.002
29920W        W95180  20.095   3.399   4.665
29921W        W95181  33.452  42.943   2.262
29922W        W95182  17.700   6.478  12.164
29923W        W95183  36.341   8.216   1.256
29924W        W95184  11.754  10.107   1.733
29925W        W95185   4.431  30.351   0.810
29926W        W95186  22.554  15.691  11.283
29927W        W95187  28.142   5.727  13.903
29928W        W95188  16.063  38.382   9.916
29929W        W95189   1.532   0.432  13.085
29930W        W95190  25.131  15.698   0.577
29931W        W95191  19.511  22.631  14.545
29932W        W95192   4.274  38.753  12.922
29933W        W95193  35.646  31.916   4.152
29934W        W95194   0.318  37.414  11.044
29935W        W95195  26.632   8.869   4.492
29936W        W95196   9.893  28.833  13.251
29937W        W95197  24.199  14.561  10.756
29938W        W95198  20.174  23.237   4.040
29939W        W95199  16.105  31.038   0.441
29940W        W95200  18.296  44.052   2.676
29941W        W95201  18.423  43.400  11.244
29942W        W95202  15.717  30.484  13.775
29943W        W95203  41.914  31.917   2.397
29944W        W95204  12.889  40.129   3.328
29945W        W95205   5.769   0.429   4.184
29946W        W95206   6.780  16.224   4.036
29947W        W95207  22.743  10.639   2.098
29948W        W95208  17.254   4.153   4.068
29949W        W95209  35.067  14.909  11.158
29950W        W95210  21.799   4.177   3.549
29951W        W95211  36.243  28.786   2.850
29952W        W95212  31.022  36.444   2.655
29953W        W95213  32.500  14.383   3.855
29954W        W95214   6.882   1.601  12.644
29955W        W95215  27.665  37.864   4.459
29956W        W95216  28.304  30.168  12.604
29957W        W95217  32.504   2.915   2.381
29958W        W95218  30.158  38.112   0.311
29959W        W95219  11.689  13.374  14.924
29960W        W95220  14.765  17.274   3.236
29961W        W95221  28.015  35.066   0.422
29962W        W95222  44.361  32.960  14.233
29963W        W95223  32.960  17.552   0.428
29964W        W95224  21.595   0.698   2.325
29965W        W95225   0.695   9.959   3.168
29966W        W95226  35.319   1.065   0.381
29967W        W95227  23.094  17.260   2.837
29968W        W95228  40.002  27.591  11.981
29969W        W95229  25.673   7.221   1.925
29970W        W95230  19.555  11.935   2.887
29971W        W95231  18.632  38.384  11.393
29972W        W95232   5.332  43.501  13.885
29973W        W95233   8.738  20.537   2.366
29974W        W95234  19.001  16.059  13.904
29975W        W95235  14.975  16.090   1.631
29976W        W95236  20.280  12.299   1.709
29977W        W95237  22.139  19.644   1.647
29978W        W95238  17.062  15.733   4.286
29979W        W95239  16.359  15.168  13.558
29980W        W95240  24.268  26.773  10.404
29981W        W95241  10.845   3.768  12.452
29982W        W95242  29.848  27.495   2.311
29983W        W95243  41.156  35.543   3.312
29984W        W95244   1.711   2.436  10.754
29985W        W95245  33.089  14.567   1.245
29986W        W95246   4.794  38.901   4.554
29987W        W95247  40.465  28.405  12.051
29988W        W95248   6.962  15.594  11.149
29989W        W95249  34.788  20.748   1.328
29990W        W95250  42.430  18.899   2.864
29991W        W95251   5.334   5.293   1.745
29992W        W95252  17.247  30.216   4.514
29993W        W95253  42.545   9.334   4.650
29994W        W95254  29.675  14.407   2.734
29995W        W95255   4.499  33.484  10.491
29996W        W95256  36.740   4.315  11.998
29997W        W95257  40.753   0.350  12.024
29998W        W95258  17.114  25.975   1.904
29999W        W95259  27.668  39.768  14.402
30000W        W95260  22.107  14.556   0.972
30001W        W95261  28.595   0.806   0.001
30002W        W95262  11.400  35.577  12.996
30003W        W95263  10.770   0.752   4.295
30004W        W95264  17.782  17.438   1.180
30005W        W95265  40.124   5.760   2.659
30006W        W95266  30.243  17.713   4.227
30007W        W95267  40.196  38.289   2.913
30008W        W95268  41.537  22.107   0.001
30009W        W95269  28.966  39.471  11.128
30010W        W95270  11.357  29.821  14.794
30011W        W95271  34.108  42.301  12.167
30012W        W95272   5.367  23.026   1.439
30013W        W95273  12.417   9.227   1.831
30014W        W95274  12.078  44.432  12.185
30015W        W95275  28.591   0.487  11.308
30016W        W95276  11.406   8.177   1.593
30017W        W95277  28.849  37.558   1.425
30018W        W95278  11.610   3.195  11.025
30019W        W95279  36.561  34.679  11.534
30020W        W95280  10.783  29.888  11.171
30021W        W95281  10.550   3.589  10.040
30022W        W95282  43.203  28.672  10.708
30023W        W95283  24.128  18.068   2.155
30024W        W95284  39.288   8.693   2.849
30025W        W95285  42.248   1.695   1.936
30026W        W95286  32.017  27.180   5.275
30027W        W95287  15.453  19.222   5.027
30028W        W95288  40.415  30.145  13.981
30029W        W95289   0.582  19.163  13.020
30030W        W95290  18.518  11.810  14.297
30031W        W95291  40.806  19.040   3.459
30032W        W95292  35.450  37.907   2.200
30033W        W95293  15.231  33.313   1.693
30034W        W95294  19.092  21.077   0.413
30035W        W95295  42.261  29.388  13.907
30036W        W95296   2.301  10.986  14.846
30037W        W95297   4.974   7.955  14.258
30038W        W95298  42.389   0.668   1.300
30039W        W95299  40.473  14.621   2.784
30040W        W95300  35.477   2.183   4.929
30041W        W95301  44.834   4.819   3.360
30042W        W95302  27.038  36.819   1.154
30043W        W95303  27.797  44.008  10.159
30044W        W95304  14.255  40.365  14.760
30045W        W95305   0.890  24.678  12.874
30046W        W95306   4.566  32.778  13.199
30047W        W95307  18.130  15.674  13.033
30048W        W95308   9.199  41.329   3.328
30049W        W95309  14.223  16.661   3.742
30050W        W95310  33.394  11.176   3.621
30051W        W95311   6.294  32.118  13.591
30052W        W95312  34.986  25.555  10.731
30053W        W95313  27.580  20.604   4.564
30054W        W95314  21.621  31.554  13.484
30055W        W95315  35.457  36.062  13.590
30056W        W95316  26.778  30.601   9.929
30057W        W95317  44.563  14.609  12.653
30058W        W95318  33.632   2.194   2.208
30059W        W95319  34.908  44.304   1.756
30060W        W95320  38.333  19.447   3.346
30061W        W95321  10.123  38.566  13.336
30062W        W95322  29.106  25.674  14.657
30063W        W95323  12.233  41.741   1.469
30064W        W95324   8.801  11.195  12.131
30065W        W95325  32.460   4.005  14.116
30066W        W95326  33.087   2.317  10.636
30067W        W95327  11.730  40.619   1.067
30068W        W95328  19.019   5.398   0.078
30069W        W95329  11.877  42.983   0.749
30070W        W95330  10.654  17.194   4.287
30071W        W95331  41.344  15.227   4.617
30072W        W95332  32.922  29.090   1.702
30073W        W95333   5.450  38.390  12.933
30074W        W95334  27.321  43.126   3.763
30075W        W95335  36.023  16.242  12.515
30076W        W95336   0.179  33.261   4.176
30077W        W95337  28.492  10.870   4.079
30078W        W95338  13.260  25.369   1.461
30079W        W95339  22.807  23.738   5.005
30080W        W95340  20.243  13.273  14.150
30081W        W95341  33.014  13.695   1.676
30082W        W95342   9.096   5.773   1.891
30083W        W95343  37.700  24.014  14.586
30084W        W95344  42.738  35.500   2.860
30085W        W95345   5.884  21.662   4.944
30086W        W95346  30.950  40.409   0.824
30087W        W95347  24.500  21.841  11.243
30088W        W95348  37.406  43.548   1.459
30089W        W95349  26.172  28.246  14.435
30090W        W95350  42.142   4.025   3.461
30091W        W95351  16.826  30.001  13.177
30092W        W95352   9.791  43.553  13.102
30093W        W95353  41.411  22.610  11.112
30094W        W95354  38.838  16.147   3.265
30095W        W95355  37.390  19.745   4.604
30096W        W95356  23.441  23.482  12.972
30097W        W95357  38.961  35.312  10.630
30098W        W95358  29.135  38.055   0.321
30099W        W95359  34.365  38.451   2.577
30100W        W95360  25.815  25.684   1.260
30101W        W95361  32.017  40.941  14.254
30102W        W95362  26.222   5.769  10.890
30103W        W95363  21.876  37.371  12.306
30104W        W95364  27.492   7.763   4.075
30105W        W95365  26.896  32.212   1.908
30106W        W95366  22.787  34.770  13.890
30107W        W95367  26.798   3.947  13.516
30108W        W95368  22.486  39.929  13.846
30109W        W95369  36.680   0.529   1.480
30110W        W95370  28.350  12.700   3.688
30111W        W95371  15.211  25.668  11.007
30112W        W95372  11.068  33.995   0.337
30113W        W95373  12.674  26.613  10.321
30114W        W95374   0.642  18.235   4.875
30115W        W95375  14.581  25.658   1.294
30116W        W95376  27.329  19.531   2.601
30117W        W95377  10.236  35.913   3.374
30118W        W95378  37.603  21.004   0.980
30119W        W95379   9.370  17.237   2.238
30120W        W95380  33.149  35.307   1.349
30121W        W95381   0.219  14.053  14.459
30122W        W95382  19.545  37.028  11.451
30123W        W95383   7.919  29.955   1.148
30124W        W95384   9.312  12.940   1.352
30125W        W95385  34.424  33.926  12.161
30126W        W95386  33.342  33.137   1.914
30127W        W95387  20.918  33.485   1.389
30128W        W95388  40.461  16.652  12.872
30129W        W95389   7.860  23.209   2.863
30130W        W95390  18.304  27.606  12.668
30131W        W95391  24.056  35.860  12.268
30132W        W95392  31.102  27.796   3.614
30133W        W95393  34.477  43.594   2.389
30134W        W95394  34.132  21.567   3.704
30135W        W95395   2.772  31.355   1.356
30136W        W95396  41.100  40.534   3.128
30137W        W95397  39.789  34.161   2.800
30138W        W95398  30.214  11.680   3.213
30139W        W95399   4.727  37.084  11.659
30140W        W95400  20.199  43.393  14.936
30141W        W95401  32.940  21.523   4.047
30142W        W95402  25.682  35.428   0.366
30143W        W95403  16.574  32.174  13.995
30144W        W95404  42.927  24.024  12.575
30145W        W95405  12.818  15.707   1.314
30146W        W95406  41.519  42.398  11.560
30147W        W95407  16.077  27.684   3.055
30148W        W95408  24.607  22.431   4.511
30149W        W95409  36.335  12.830   3.688
30150W        W95410  33.979  44.306  11.755
30151W        W95411  23.503   2.783  12.928
30152W        W95412  10.940  30.242  12.563
30153W        W95413   5.202  44.783  11.703
30154W        W95414  30.477  30.582  10.658
30155W        W95415  29.921  10.362  11.082
30156W        W95416   4.716  28.940  11.109
30157W        W95417  34.813  42.515   3.328
30158W        W95418  24.221  23.985  12.073
30159W        W95419  17.566  28.255  12.838
30160W        W95420   6.940  32.634  14.961
30161W        W95421  40.732  36.277   4.540
30162W        W95422  25.060  23.251   4.662
30163W        W95423  12.958  38.673   0.746
30164W        W95424  20.199  35.983  10.039
30165W        W95425   9.642  43.305   2.018
30166W        W95426   8.458  38.596   3.642
30167W        W95427  18.297  10.143  10.880
30168W        W95428   6.110  25.951  10.585
30169W        W95429   4.864   0.039  14.470
30170W        W95430  33.238  29.318   5.279
30171W        W95431  19.707  34.504   4.557
30172W        W95432   9.561  33.581  14.423
30173W        W95433  22.714  12.409   2.967
30174W        W95434  44.915   8.201  11.351
30175W        W95435   0.002  29.989  14.052
30176W        W95436   8.600  23.132  13.941
30177W        W95437   6.753  28.733   1.695
30178W        W95438  19.413  41.557  10.681
30179W        W95439  16.564  30.503   0.965
30180W        W95440   8.915  38.988   2.518
30181W        W95441  35.964   9.739   2.436
30182W        W95442  10.653  20.903   2.138
30183W        W95443   6.730  38.818   1.286
30184W        W95444  10.929   3.218  13.902
30185W        W95445  12.416  41.810  14.568
30186W        W95446   8.423  23.495  12.076
30187W        W95447   0.993  13.070  11.858
30188W        W95448  15.697  30.870   3.631
30189W        W95449  35.934  18.148   2.401
30190W        W95450  15.773  22.147  12.021
30191W        W95451  15.937  10.807   3.286
30192W        W95452  43.851  17.187  12.901
30193W        W95453  14.361  23.720  11.280
30194W        W95454   4.436  31.082  14.019
30195W        W95455  25.600  34.962  12.154
30196W        W95456  41.945  24.879   2.404
30197W        W95457  16.610  30.442   4.084
30198W        W95458   4.845  24.968   0.405
30199W        W95459  38.415  23.761  12.417
30200W        W95460  29.591  33.357   4.088
30201W        W95461  19.263  30.217   4.173
30202W        W95462  14.327   4.230  13.534
30203W        W95463  27.756  36.693  14.353
30204W        W95464  36.012  28.537   1.365
30205W        W95465   2.785  19.660  14.316
30206W        W95466  16.167  12.185  10.689
30207W        W95467  33.513  30.034   3.588
30208W        W95468  44.246  27.815  10.536
30209W        W95469  19.800   1.218   0.611
30210W        W95470  11.631   4.268   1.255
30211W        W95471  20.225  28.045  12.880
30212W        W95472   8.687  12.553   3.246
30213W        W95473  20.991  26.149   1.134
30214W        W95474  38.640  35.520  14.792
30215W        W95475  26.083  13.694   1.107
30216W        W95476   8.424  33.372  13.240
30217W        W95477  27.701  33.727   4.717
30218W        W95478  19.663  23.468  11.141
30219W        W95479   8.221  11.400  13.962
30220W        W95480   8.385   8.948  10.112
30221W        W95481  27.994  33.732   3.582
30222W        W95482  22.793  32.117  13.349
30223W        W95483  15.864  35.385   3.327
30224W        W95484   1.273  37.887  12.848
30225W        W95485  30.480  43.966   4.082
30226W        W95486  21.009  38.903  13.405
30227W        W95487   2.504  32.952   2.631
30228W        W95488   5.035  31.218   0.231
30229W        W95489  10.245   7.460  14.411
30230W        W95490  32.026  31.545   1.200
30231W        W95491  43.244  36.605  12.905
30232W        W95492  12.680  36.024  12.868
30233W        W95493  42.548  16.513  11.085
30234W        W95494  24.175  17.773  14.999
30235W        W95495  20.592  19.555  10.667
30236W        W95496   8.746  31.200  10.621
30237W        W95497  18.737  26.627   2.752
30238W        W95498  19.129  12.776  12.907
30239W        W95499  19.281  30.168  11.083
30240W        W95500  30.545  30.157   2.000
30241W        W95501  25.406  25.084  14.116
30242W        W95502   8.028  13.858   0.371
30243W        W95503  29.093  27.505   0.737
30244W        W95504  34.984  18.756   1.363
30245W        W95505  30.080   8.630   0.891
30246W        W95506   0.032  33.248  11.992
30247W        W95507   6.901  24.916  11.185
30248W        W95508  26.065  23.200  14.892
30249W        W95509  35.477  16.657  10.722
30250W        W95510  15.645  24.576  13.692
30251W        W95511  32.401  15.537  11.176
30252W        W95512  43.308  19.747  11.158
30253W        W95513  19.401  17.339   0.760
30254W        W95514  28.642  27.885  11.704
30255W        W95515  31.934  25.692   3.504
30256W        W95516  42.370   4.372   0.932
30257W        W95517  40.419   4.210   1.845
30258W        W95518  14.744  21.459  14.480
30259W        W95519  32.637  34.425   2.356
30260W        W95520   2.946  29.360  14.394
30261W        W95521  41.483  20.852   0.683
30262W        W95522  28.884  16.238   1.477
30263W        W95523  34.412  37.038   1.217
30264W        W95524  34.665  40.774   4.483
30265W        W95525   2.033   9.944   3.229
30266W        W95526  35.420   2.514   1.777
30267W        W95527  27.948  34.441  14.951
30268W        W95528  37.295  42.666   5.179
30269W        W95529  39.559  37.987  14.470
30270W        W95530  28.946  41.626  12.524
30271W        W95531   3.248  41.808   1.691
30272W        W95532  37.352  16.567   2.339
30273W        W95533   1.522  42.280   4.233
30274W        W95534  13.532  44.929   1.715
30275W        W95535  41.478   5.744   3.728
30276W        W95536  10.836  31.563   2.801
30277W        W95537  19.439  19.694  13.256
30278W        W95538  43.402   5.369   0.472
30279W        W95539  23.458  14.869  11.296
30280W        W95540  24.109  30.320   4.328
30281W        W95541   9.556  44.471  12.379
30282W        W95542  22.301  25.472  13.037
30283W        W95543  14.733   1.305   2.201
30284W        W95544   7.795  41.577  10.614
30285W        W95545  16.787   3.370   2.236
30286W        W95546  30.986   5.808   4.131
30287W        W95547  31.442  33.106  13.844
30288W        W95548  29.986  43.773   2.728
30289W        W95549   6.752  17.088  12.345
30290W        W95550  28.022  34.184  12.104
30291W        W95551  11.054  10.088  14.825
30292W        W95552   8.598  33.665  13.972
30293W        W95553  23.719  17.218  13.110
30294W        W95554   4.958   8.618  12.162
30295W        W95555  34.579  16.777  12.582
30296W        W95556   2.347  35.609   0.368
30297W        W95557   0.866  17.646  12.593
30298W        W95558   6.845  33.954  12.897
30299W        W95559  38.417  43.286  13.804
30300W        W95560  43.547  16.096  11.507
30301W        W95561  34.673  27.757   2.969
30302W        W95562  40.686  29.008  11.682
30303W        W95563  40.878   0.883  12.595
30304W        W95564   9.156  20.351   3.737
30305W        W95565  44.894  10.346  12.036
30306W        W95566  13.066  12.808  11.499
30307W        W95567  29.728  36.983   2.823
30308W        W95568  28.093  34.115  14.071
30309W        W95569   1.759  15.342   2.223
30310W        W95570   1.962  25.380  13.273
30311W        W95571  13.666  15.347  13.539
30312W        W95572   5.613  28.291   3.604
30313W        W95573  27.577  13.326  13.966
30314W        W95574  35.458  27.072  13.869
30315W        W95575  15.033  22.653  11.128
30316W        W95576   7.371  36.162   2.696
30317W        W95577  43.480  39.904  14.843
30318W        W95578  42.510  19.285  14.041
30319W        W95579  35.441   1.944  13.990
30320W        W95580  39.843  35.900  11.481
30321W        W95581  27.530  30.651  11.601
30322W        W95582  40.198   3.119   2.923
30323W        W95583   5.242  41.262   4.872
30324W        W95584  28.881  14.665  13.946
30325W        W95585  29.555  37.562  12.086
30326W        W95586  18.618   9.996  12.552
30327W        W95587  32.538  18.552  12.584
30328W        W95588  29.710  29.519   0.546
30329W        W95589  32.116  30.842   3.658
30330W        W95590  26.218  27.092   3.307
30331W        W95591  19.728  15.869   3.696
30332W        W95592  39.807  28.621   4.125
30333W        W95593  37.435  35.368   2.923
30334W        W95594  18.040  28.419  11.932
30335W        W95595  30.449  17.849  11.647
30336W        W95596   4.844   3.393  14.493
30337W        W95597  38.354  12.579   1.878
30338W        W95598  36.849  29.532  14.233
30339W        W95599  13.058   2.287  13.923
30340W        W95600  17.073  40.853   2.810
30341W        W95601   4.445  36.319  12.079
30342W        W95602  21.001  23.496  11.198
30343W        W95603  23.748   0.854   0.926
30344W        W95604  32.844  27.244  13.965
30345W        W95605  22.669  20.645   2.420
30346W        W95606  26.127  11.373   2.896
30347W        W95607  27.140  44.773  13.534
30348W        W95608  41.745  18.320  12.158
30349W        W95609   9.174  42.086   2.573
30350W        W95610  25.111  39.276   3.785
30351W        W95611  42.349  30.013  10.583
30352W        W95612   4.912  19.498   2.306
30353W        W95613  28.131  14.360  12.029
30354W        W95614  12.738  14.053   2.825
30355W        W95615  11.586  11.697  14.103
30356W        W95616  42.943  12.672  14.991
30357W        W95617  11.259  38.093   4.114
30358W        W95618  13.387  41.326   0.884
30359W        W95619  22.173   2.807   1.732
30360W        W95620   4.898   9.485  12.509
30361W        W95621  23.277   4.350   1.159
30362W        W95622  32.786   7.765  14.799
30363W        W95623  10.180  28.566   4.444
30364W        W95624  14.142  30.366  10.847
30365W        W95625  25.091   9.565   2.195
30366W        W95626  33.080  14.764   3.354
30367W        W95627   2.002   6.414   2.679
30368W        W95628  10.143  43.575   2.091
30369W        W95629  27.196  27.415   1.722
30370W        W95630  39.976  42.382   0.488
30371W        W95631  20.053  24.085   3.718
30372W        W95632  10.655  41.385   0.508
30373W        W95633  10.242   3.892   2.273
30374W        W95634   0.009  14.875  12.636
30375W        W95635  23.200  27.700  11.365
30376W        W95636   2.977  21.257  11.071
30377W        W95637  41.917   9.296  13.633
30378W        W95638  23.031  12.322  13.880
30379W        W95639  29.948  43.633  11.164
30380W        W95640  34.564  43.755   3.381
30381W        W95641  26.919  31.161  14.895
30382W        W95642  43.267   9.450   5.086
30383W        W95643  10.852  25.044  14.338
30384W        W95644  14.932  43.824  10.655
30385W        W95645  33.093  12.694  12.543
30386W        W95646   1.379  21.681  11.417
30387W        W95647  44.860  41.329  12.462
30388W        W95648  25.223  15.117  12.036
30389W        W95649   4.583  35.586  11.261
30390W        W95650  16.650  41.352   2.310
30391W        W95651  24.691  13.920  12.366
30392W        W95652  38.375  18.599  12.600
30393W        W95653  32.353  29.580   3.988
30394W        W95654  24.028  11.612   1.542
30395W        W95655   5.470  30.964   4.255
30396W        W95656   9.726  13.200  10.558
30397W        W95657  14.571  25.620   4.797
30398W        W95658  29.975  18.102  14.260
30399W        W95659  33.402   2.419  11.080
30400W        W95660  25.261  17.161  10.690
30401W        W95661  44.048  25.807  14.304
30402W        W95662   0.348  40.443  10.767
30403W        W95663  29.466  17.751  13.053
30404W        W95664   8.574   5.126   1.531
30405W        W95665   6.787  37.630   0.221
30406W        W95666  41.095  29.245  14.477
30407W        W95667  43.174  31.824   1.291
30408W        W95668  27.457  28.979  12.864
30409W        W95669  27.904  23.567  10.495
30410W        W95670  27.161   5.355   1.502
30411W        W95671  41.268   8.765   4.124
30412W        W95672  26.630   6.414   3.211
30413W        W95673  40.875  24.439  14.050
30414W        W95674  36.021  16.637   3.880
30415W        W95675   0.443  40.886  14.076
30416W        W95676  37.934  17.077   2.684
30417W        W95677  33.973   1.581   5.195
30418W        W95678   4.936  36.385   0.261
30419W        W95679  33.507  42.431   4.501
30420W        W95680  11.084  21.835  10.579
30421W        W95681  43.396   1.257   3.804
30422W        W95682  18.314  40.952  14.383
30423W        W95683  13.686  44.983  10.456
30424W        W95684   4.844  30.396  12.416
30425W        W95685   3.211  27.430   0.795
30426W        W95686   6.617  29.065  13.508
30427W        W95687   4.807  31.739   2.032
30428W        W95688   9.738  12.125  10.536
30429W        W95689  23.464  34.327  11.134
30430W        W95690  10.545  30.984  13.345
30431W        W95691  13.547  39.433  13.792
30432W        W95692  21.558  39.084   2.164
30433W        W95693  15.627   0.289  14.886
30434W        W95694   0.073  40.371   3.315
30435W        W95695  42.390  24.172  12.418
30436W        W95696  30.820  33.215  11.477
30437W        W95697  36.358  10.686  12.997
30438W        W95698  30.675   0.413   4.883
30439W        W95699  34.426  41.155   4.169
30440W        W95700  42.933  14.807   0.389
30441W        W95701  36.394  19.484  13.254
30442W        W95702   3.957  17.342   3.247
30443W        W95703  44.855   2.885   1.902
30444W        W95704   3.755   0.422   0.723
30445W        W95705  30.721  11.573   3.265
30446W        W95706   0.630  40.680  10.236
30447W        W95707  29.485  14.315  14.078
30448W        W95708  23.977  44.424  14.032
30449W        W95709  34.172  37.864   0.879
30450W        W95710  14.145   1.176   4.368
30451W        W95711  33.848  36.727  12.566
30452W        W95712  43.092  30.548  10.608
30453W        W95713  26.973  33.677   1.883
30454W        W95714  14.960  28.972  13.359
30455W        W95715  34.407   7.994   0.410
30456W        W95716   5.970  24.100   0.526
30457W        W95717  42.482  28.222   1.195
30458W        W95718  41.560   4.160  13.509
30459W        W95719   2.643  28.736  13.531
30460W        W95720  25.012  38.469   1.818
30461W        W95721  44.876   3.152   3.631
30462W        W95722  18.542   8.525   3.107
30463W        W95723  40.878  28.568   0.935
30464W        W95724  26.678  38.996   2.086
30465W        W95725  37.312  16.785   0.727
30466W        W95726  36.870  28.610   3.309
30467W        W95727   4.903   8.958   2.125
30468W        W95728  44.795   6.276   0.946
30469W        W95729  32.142  27.040   3.765
30470W        W95730   1.287  22.210  10.641
30471W        W95731  32.614  38.862   1.950
30472W        W95732  27.952  31.986  10.631
30473W        W95733  24.640  14.219  11.909
30474W        W95734  18.270   7.992  12.063
30475W        W95735  39.031  39.267  11.988
30476W        W95736  16.250   7.946   3.177
30477W        W95737  36.921  43.810   4.084
30478W        W95738  26.876  17.747   0.849
30479W        W95739   4.129  18.976   0.824
30480W        W95740  44.918  20.325   3.588
30481W        W95741  41.819  20.618   2.671
30482W        W95742  21.603  12.211   4.012
30483W        W95743  35.096  17.089  14.035
30484W        W95744  15.858  12.028  12.974
30485W        W95745   5.230  26.269  11.020
30486W        W95746   5.466   6.763  13.782
30487W        W95747  18.880  27.566   4.156
30488W        W95748   6.202   4.890  10.645
30489W        W95749  41.776  13.978  12.100
30490W        W95750   7.336  11.035   4.704
30491W        W95751  20.485  35.436  14.215
30492W        W95752  33.184  16.707   3.158
30493W        W95753  28.779   4.650  12.818
30494W        W95754  17.713  25.446  14.040
30495W        W95755   2.103   0.663  10.689
30496W        W95756  22.522  31.899  12.939
30497W        W95757  37.784  31.534  11.510
30498W        W95758  23.837   6.328   2.801
30499W        W95759  39.495   0.415  13.791
30500W        W95760  14.024  20.171  14.286
30501W        W95761  25.649   1.354  12.898
30502W        W95762  20.197  33.156  14.833
30503W        W95763   0.291  20.185   1.295
30504W        W95764  35.245   0.364  10.337
30505W        W95765   5.185   9.731  14.191
30506W        W95766   7.416  23.040   2.228
30507W        W95767  28.331  30.072  14.531
30508W        W95768  11.678  20.222   2.893
30509W        W95769   4.446   1.931   4.734
30510W        W95770   6.792  27.463   2.276
30511W        W95771  14.842   5.742   1.286
30512W        W95772  23.671  22.147  11.708
30513W        W95773  22.464   1.809   4.971
30514W        W95774  37.608  22.597   4.087
30515W        W95775  43.216  37.142  12.938
30516W        W95776   5.949  38.840   3.815
30517W        W95777  44.896   7.764  11.064
30518W        W95778  42.215   5.964   3.279
30519W        W95779  34.467   0.555   4.788
30520W        W95780  30.439  10.553   4.527
30521W        W95781   0.016  37.656   0.403
30522W        W95782   8.135   8.859   1.743
30523W        W95783   6.245   0.348   1.035
30524W        W95784  17.988  36.516   0.830
30525W        W95785   3.395   0.137  12.805
30526W        W95786   3.519  17.328   4.141
30527W        W95787   1.550   0.968   4.019
30528W        W95788  32.499  33.339   3.656
30529W        W95789  20.662   0.032   2.890
30530W        W95790  27.751  26.147  10.867
30531W        W95791  40.287  33.449  10.450
30532W        W95792   4.674  36.530  11.647
30533W        W95793   2.513  39.869   2.794
30534W        W95794  31.863  36.940   3.387
30535W        W95795   5.995  28.705   5.485
30536W        W95796  19.658   0.956  11.472
30537W        W95797  20.657  21.199   1.633
30538W        W95798  14.161  21.984  12.107
30539W        W95799  42.274  38.913  13.306
30540W        W95800  36.098  10.276  11.146
30541W        W95801  10.164   3.876  13.455
30542W        W95802  15.001  20.790   1.768
30543W        W95803  30.392   0.934  13.903
30544W        W95804  10.770  43.426  11.702
30545W        W95805  29.012  38.635   0.943
30546W        W95806  42.845  30.851   4.215
30547W        W95807   8.512  21.668  11.501
30548W        W95808  34.924  20.116  13.530
30549W        W95809  31.371  41.060  13.548
30550W        W95810  21.610  38.488   0.530
30551W        W95811  43.161  22.421  12.219
30552W        W95812  43.285  29.562   3.233
30553W        W95813  23.092  34.381   9.832
30554W        W95814   9.143  10.642  14.306
30555W        W95815  14.799  17.651   0.005
30556W        W95816  26.684  19.268   9.874
30557W        W95817  25.274  22.688   4.088
30558W        W95818  28.298  24.562  10.943
30559W        W95819   7.240  27.827  14.398
30560W        W95820  19.167  44.842   0.980
30561W        W95821  25.643   1.633  10.023
30562W        W95822  36.780   9.893  11.287
30563W        W95823  19.789  33.311  12.519
30564W        W95824  32.142   9.551  12.924
30565W        W95825  10.773  31.028  10.545
30566W        W95826   8.211   4.410  12.001
30567W        W95827  30.793  17.125   2.626
30568W        W95828  35.998  27.137   4.434
30569W        W95829  16.786  10.725   1.680
30570W        W95830  22.143  19.207  13.032
30571W        W95831  15.876  29.395  12.024
30572W        W95832  24.112  10.842  11.957
30573W        W95833  11.742   5.189   2.346
30574W        W95834   9.884   8.910   1.937
30575W        W95835  15.138  19.185   2.227
30576W        W95836   2.050  44.536  12.972
30577W        W95837  25.481  34.804   3.145
30578W        W95838   4.437  41.547  12.684
30579W        W95839  36.012   4.910   1.265
30580W        W95840  42.062  44.445   2.714
30581W        W95841  15.245  32.427   4.532
30582W        W95842  19.635  41.364   3.368
30583W        W95843   2.473  21.823   4.220
30584W        W95844  14.857  20.543  12.354
30585W        W95845  21.681   5.965  12.591
30586W        W95846  16.043   2.977  11.631
30587W        W95847  11.389  14.808   1.716
30588W        W95848  40.465  29.716   1.289
30589W        W95849  43.986  32.151  10.420
30590W        W95850  30.631  35.103   1.781
30591W        W95851  27.293   0.953  11.559
30592W        W95852  26.215  10.197   5.172
30593W        W95853   3.127  31.820  14.679
30594W        W95854  37.289   3.049   5.054
30595W        W95855  35.118  21.458   0.461
30596W        W95856  44.974  30.150   3.163
30597W        W95857  23.589  20.317  12.814
30598W        W95858  19.219  36.831  14.992
30599W        W95859  39.138  28.111  10.702
30600W        W95860  26.131  12.686   3.676
30601W        W95861  18.593  19.686  12.779
30602W        W95862  38.856   2.453   4.581
30603W        W95863  38.277  15.069  11.481
30604W        W95864  39.859  23.095  14.943
30605W        W95865  39.832  15.275  13.658
30606W        W95866  16.697  41.918  11.566
30607W        W95867   7.397  11.491   1.182
30608W        W95868  29.272  33.890  14.857
30609W        W95869  24.259   7.096  12.426
30610W        W95870  44.544  14.680   2.807
30611W        W95871   6.520  36.106  12.515
30612W        W95872  23.520  14.192   2.725
30613W        W95873  23.142  34.286   5.147
30614W        W95874   7.630   5.952  12.524
30615W        W95875  16.719  30.633  14.912
30616W        W95876   2.987  43.350  14.584
30617W        W95877   8.525  17.189   4.756
30618W        W95878  41.459  18.658   3.264
30619W        W95879  24.459  42.281  12.083
30620W        W95880   4.453  40.876  14.881
30621W        W95881  34.722  25.096  13.728
30622W        W95882   8.131   7.671   3.379
30623W        W95883  28.379   4.171   3.158
30624W        W95884   5.389  16.086   4.212
30625W        W95885  22.331   9.763   3.705
30626W        W95886  44.738  39.177  11.927
30627W        W95887  31.155  34.087   3.356
30628W        W95888  12.211   4.005  13.061
30629W        W95889   6.635  15.364   2.697
30630W        W95890  23.587  11.960  11.681
30631W        W95891  31.571  13.209   0.837
30632W        W95892  42.445   5.001   4.833
30633W        W95893  12.559   3.935  10.766
30634W        W95894  10.265  11.716  13.561
30635W        W95895  33.938   8.730   4.084
30636W        W95896  28.110   1.980   2.609
30637W        W95897  25.758   0.254   3.601
30638W        W95898  27.976  20.496   0.384
30639W        W95899  38.854  35.431   2.351
30640W        W95900  34.534  33.508  10.924
30641W        W95901  44.888  29.070  11.199
30642W        W95902   7.168  31.535  12.754
30643W        W95903  14.209  16.264  14.813
30644W        W95904   6.328  38.859   2.156
30645W        W95905  20.247  38.477   2.802
30646W        W95906  34.881  23.138  10.778
30647W        W95907  19.841   0.860   1.696
30648W        W95908  20.565  27.167  13.445
30649W        W95909  19.296  36.306  14.974
30650W        W95910   1.905  26.010  12.635
30651W        W95911  22.209  24.108  12.017
30652W        W95912  38.492  34.573   2.605
30653W        W95913  44.306   1.716   1.769
30654W        W95914  14.852  35.029   5.027
30655W        W95915  22.593  44.583   0.403
30656W        W95916  26.355  36.943  12.529
30657W        W95917  27.007  10.596  13.407
30658W        W95918  13.681  40.424   0.921
30659W        W95919  36.553  36.518  11.137
30660W        W95920  24.883  17.939  11.192
30661W        W95921  42.016   0.202   0.860
30662W        W95922  43.865   7.129   1.253
30663W        W95923  11.638  40.995  14.480
30664W        W95924   2.495  22.994  10.039
30665W        W95925  19.585   0.430   2.841
30666W        W95926  30.497  22.682  14.050
30667W        W95927   0.271  33.130  12.519
30668W        W95928  26.135  38.445   3.435
30669W        W95929   8.852  16.172  10.925
30670W        W95930  33.561  22.084   0.235
30671W        W95931  19.532  31.023  10.400
30672W        W95932  16.730  27.884  12.838
30673W        W95933   6.183  23.345   3.425
30674W        W95934  23.710  42.536  10.714
30675W        W95935  44.362   1.336  11.885
30676W        W95936  41.321  39.043  13.357
30677W        W95937  30.460  31.019   4.191
30678W        W95938  17.567  23.607   0.660
30679W        W95939  40.947   1.860   1.582
30680W        W95940   4.926  20.866  11.595
30681W        W95941   4.419  30.456  11.987
30682W        W95942  30.133   3.846   4.262
30683W        W95943  42.232  14.114  11.677
30684W        W95944  38.812  12.241  14.766
30685W        W95945  14.159   9.355   1.269
30686W        W95946  41.256   0.710  13.348
30687W        W95947  16.610  35.121   1.812
30688W        W95948  14.974   8.155  12.696
30689W        W95949  18.985  11.663  12.825
30690W        W95950   5.994  21.423  13.607
30691W        W95951  21.186  44.452   0.698
30692W        W95952  15.839  15.603  11.125
30693W        W95953  36.616  44.695  10.682
30694W        W95954   7.094  41.802   4.680
30695W        W95955  33.088  35.629  11.030
30696W        W95956  10.588  33.443  13.420
30697W        W95957  29.422  29.601  11.529
30698W        W95958  44.008  17.623  11.534
30699W        W95959  31.612  41.906   0.201
30700W        W95960  34.535  30.539  14.067
30701W        W95961  20.716  27.952   3.108
30702W        W95962  18.762  16.963   1.348
30703W        W95963  34.391  34.767   4.568
30704W        W95964  34.321  44.855   2.167
30705W        W95965  40.465  15.810  14.820
30706W        W95966  29.398  20.998  14.925
30707W        W95967  27.121  23.291   3.148
30708W        W95968   3.335   8.564  13.946
30709W        W95969  33.930  33.998   4.371
30710W        W95970  13.340  18.323   3.757
30711W        W95971  25.468   0.881  12.739
30712W        W95972  16.831   7.620  14.895
30713W        W95973  44.518  23.626  10.608
30714W        W95974  11.580  33.406   5.225
30715W        W95975  26.009  39.888  10.440
30716W        W95976  12.853  23.971   4.801
30717W        W95977  38.813  44.250  11.549
30718W        W95978   9.760  36.052   1.901
30719W        W95979  23.729   5.805  13.419
30720W        W95980  28.997  44.359  14.210
30721W        W95981  31.409  17.149   4.076
30722W        W95982  38.791  37.060  14.795
30723W        W95983  20.786   1.260  12.986
30724W        W95984  44.320  44.741   4.095
30725W        W95985  16.620  10.183   3.824
30726W        W95986  22.497  27.650   3.157
30727W        W95987  41.257  19.977  13.936
30728W        W95988  38.548  35.845   1.344
30729W        W95989  33.885  36.963   4.255
30730W        W95990   2.522  29.457   4.198
30731W        W95991  14.869  24.906   4.002
30732W        W95992  29.559  11.485  11.180
30733W        W95993  24.676  38.610   9.737
30734W        W95994   8.226  34.947   2.398
30735W        W95995  28.702   2.776   1.182
30736W        W95996  23.768  24.040  11.597
30737W        W95997  33.872  31.850   2.879
30738W        W95998  15.208  15.353  10.542
30739W        W95999   8.985  18.820   1.757
30740W        W96000   9.293   4.185  14.814
30741W        W96001   7.836  30.023   3.440
30742W        W96002  13.528  34.092   4.118
30743W        W96003   6.391  40.052   2.843
30744W        W96004  13.689  16.214  14.272
30745W        W96005  22.346  12.393   3.341
30746W        W96006   7.488  41.581  13.597
30747W        W96007  43.874  36.861   0.446
30748W        W96008   2.294  30.119   0.388
30749W        W96009   2.733  37.571   4.674
30750W        W96010  40.384  19.688   4.549
30751W        W96011  39.085  38.908   3.547
30752W        W96012  17.995  22.286   3.620
30753W        W96013  24.643  33.947  11.076
30754W        W96014  22.195   5.446  11.920
30755W        W96015  20.359  20.958   1.999
30756W        W96016   4.167  11.355   3.226
30757W        W96017  37.344  18.745   1.611
30758W        W96018  21.105  33.216  14.466
30759W        W96019  25.132  32.848  11.660
30760W        W96020   3.177  23.162  12.152
30761W        W96021  31.713   6.671   2.304
30762W        W96022   3.736  38.852  12.445
30763W        W96023   5.485   9.891  13.812
30764W        W96024  16.176  29.448  13.301
30765W        W96025  29.944   6.723  12.579
30766W        W96026  40.859   3.699   0.488
30767W        W96027  26.870   2.499   2.725
30768W        W96028  23.815  43.300  13.600
30769W        W96029  20.809   7.158   2.652
30770W        W96030  32.094  18.330   0.192
30771W        W96031  15.723  36.865   0.788
30772W        W96032  32.122  33.471   3.318
30773W        W96033  26.421  35.590  11.199
30774W        W96034  35.329   8.612   4.075
30775W        W96035  24.221   3.698  11.192
30776W        W96036  42.501   8.240   4.499
30777W        W96037   4.247   0.186  14.311
30778W        W96038  23.237   5.901   3.983
30779W        W96039  37.550  30.664  12.725
30780W        W96040   3.918  28.060  12.275
30781W        W96041  17.535   3.741  12.609
30782W        W96042  36.458  36.857  11.966
30783W        W96043  18.624   7.173  11.560
30784W        W96044   9.173  28.998   0.377
30785W        W96045  33.071   3.022  11.969
30786W        W96046  36.137  22.214   0.341
30787W        W96047   0.494  12.838   0.728
30788W        W96048  19.590  38.031  11.483
30789W        W96049  39.056  34.939   3.360
30790W        W96050  32.738  17.738  14.563
30791W        W96051  24.692   1.809   3.157
30792W        W96052  19.984  37.984   4.774
30793W        W96053  38.470   3.853   3.133
30794W        W96054  44.474  38.415  13.225
30795W        W96055  28.263  28.574   3.122
30796W        W96056  34.073  44.435   3.290
30797W        W96057  21.208  37.888   3.276
30798W        W96058  41.252  25.024  12.799
30799W        W96059   4.456   3.800  12.386
30800W        W96060  41.585  37.537   3.477
30801W        W96061   9.783  44.255   1.633
30802W        W96062  38.572   5.302   1.122
30803W        W96063  25.099  21.156   3.045
30804W        W96064  11.238  10.861   9.711
30805W        W96065  13.517  32.532   4.621
30806W        W96066  40.941  14.668   1.620
30807W        W96067   7.695  11.908   5.045
30808W        W96068  38.376  14.183  14.804
30809W        W96069  43.320  31.717  10.384
30810W        W96070  12.847  18.143  13.345
30811W        W96071  40.957  32.862   4.414
30812W        W96072  24.782  24.546  14.423
30813W        W96073  24.701  26.477  10.398
30814W        W96074   1.012  15.331  11.626
30815W        W96075  44.841  24.465  11.581
30816W        W96076  33.351  38.770  13.313
30817W        W96077  12.357  38.347   0.405
30818W        W96078  11.719  42.832   0.260
30819W        W96079  13.746   2.995   2.688
30820W        W96080   0.952  19.214  14.683
30821W        W96081  41.461  27.099   4.510
30822W        W96082  40.041  19.337   4.355
30823W        W96083  21.137   0.783   1.952
30824W        W96084  16.983   0.859   2.408
30825W        W96085  44.509  12.207  13.132
30826W        W96086  20.026   5.823  13.980
30827W        W96087   9.768   2.126   4.868
30828W        W96088  25.433  35.169  13.628
30829W        W96089  16.331  41.304  11.914
30830W        W96090  10.251   2.233   2.340
30831W        W96091  44.536  38.174  14.891
30832W        W96092  19.990  35.898  12.512
30833W        W96093   4.191  44.524  12.436
30834W        W96094  17.089  36.041   3.990
30835W        W96095  35.111   0.769  13.086
30836W        W96096  21.312  44.954  14.341
30837W        W96097  24.426   1.852   4.167
30838W        W96098   3.995  18.718  12.003
30839W        W96099  29.141  21.274   3.226
30840W        W96100   8.330  36.259   1.766
30841W        W96101   0.217  40.886  10.502
30842W        W96102  33.181  42.754  12.970
30843W        W96103  20.582  30.370   2.239
30844W        W96104  12.328  15.399  12.971
30845W        W96105  33.921  16.663  10.690
30846W        W96106  24.440  15.257  11.508
30847W        W96107  16.742   6.590   0.783
30848W        W96108   4.400  27.518   3.790
30849W        W96109  28.736   9.178   2.575
30850W        W96110  11.885  35.478  14.439
30851W        W96111  23.223   1.981  12.480
30852W        W96112  38.093   7.358  13.924
30853W        W96113  25.998  18.146  11.961
30854W        W96114  30.337  24.553  13.874
30855W        W96115  44.231  43.011  11.693
30856W        W96116   7.653  30.597  12.165
30857W        W96117  16.324   0.251  14.448
30858W        W96118  15.050  11.344   0.944
30859W        W96119  34.858  21.007   3.799
30860W        W96120  10.706  29.570  12.005
30861W        W96121   4.968  36.477  14.231
30862W        W96122   8.672  19.569   3.276
30863W        W96123  27.676   6.729  12.880
30864W        W96124  43.491  30.949  13.445
30865W        W96125  18.345   4.947  13.350
30866W        W96126  42.574  18.267  10.725
30867W        W96127   5.959  29.622   0.773
30868W        W96128  41.752   3.992   1.702
30869W        W96129  14.017  14.736  12.594
30870W        W96130   4.352  39.045  12.483
30871W        W96131  18.189  33.089   1.873
30872W        W96132  32.814  10.538  10.225
30873W        W96133  39.052  23.971  13.918
30874W        W96134   7.452  15.740   2.344
30875W        W96135  21.374  13.228   0.354
30876W        W96136  38.074  38.092  13.009
30877W        W96137  39.123  22.560   4.536
30878W        W96138  32.626  13.440   1.938
30879W        W96139   8.746  21.045  11.019
30880W        W96140  20.204  43.684   2.809
30881W        W96141  11.379  15.729  12.195
30882W        W96142  36.611  37.097   3.678
30883W        W96143  35.516  38.091  13.138
30884W        W96144   9.711   8.317   3.701
30885W        W96145   0.474   6.231  14.923
30886W        W96146  27.133  16.696  13.217
30887W        W96147  30.221  44.911   1.414
30888W        W96148  18.743  34.993  13.988
30889W        W96149  43.324  26.239  10.047
30890W        W96150  11.653  37.494   1.428
30891W        W96151  11.923  23.831  11.204
30892W        W96152   0.382  37.493  14.700
30893W        W96153  18.400   4.807  10.738
30894W        W96154  12.763  42.486   2.432
30895W        W96155  31.029  25.922  13.012
30896W        W96156  21.200  21.781   0.743
30897W        W96157  44.929  26.202   3.974
30898W        W96158  25.493  36.454   0.351
30899W        W96159  15.897  37.006   1.637
30900W        W96160  31.176  17.536   3.774
30901W        W96161   8.256  41.640   2.328
30902W        W96162  13.067  34.532  14.362
30903W        W96163   0.712  19.226  11.842
30904W        W96164  25.654  42.356   4.884
30905W        W96165  21.594  42.492   4.276
30906W        W96166  37.455  41.291  12.687
30907W        W96167  20.563   4.621   1.795
30908W        W96168  35.934  26.233   2.781
30909W        W96169  30.416   8.134   1.502
30910W        W96170  13.856  18.595   2.209
30911W        W96171  27.849  37.292   1.135
30912W        W96172  41.370  18.679   4.712
30913W        W96173  36.799  25.720  11.188
30914W        W96174  43.329  37.621  13.123
30915W        W96175  33.305  31.692  12.791
30916W        W96176  33.079   7.050   2.339
30917W        W96177  22.042  32.152   2.782
30918W        W96178  37.069  42.875  12.872
30919W        W96179   6.391  36.967  14.096
30920W        W96180  10.918  16.821   2.823
30921W        W96181  12.449   6.316  14.980
30922W        W96182   2.763  27.103   2.123
30923W        W96183   3.644   4.728   3.842
30924W        W96184  14.240  20.712   0.129
30925W        W96185  32.397  35.033  12.703
30926W        W96186  24.471  26.111   2.434
30927W        W96187  43.241  10.149  14.414
30928W        W96188  41.778   8.777   1.693
30929W        W96189  20.787  21.246   4.496
30930W        W96190  13.734  33.372  14.801
30931W        W96191  36.113  35.155   4.541
30932W        W96192   9.744  27.934   1.709
30933W        W96193  19.221  33.557   4.959
30934W        W96194  42.794  22.638   1.369
30935W        W96195  23.448  43.993  10.482
30936W        W96196   0.355   5.448  14.237
30937W        W96197  33.307  41.978   2.641
30938W        W96198  44.835   4.790   0.509
30939W        W96199  34.135  11.778  14.420
30940W        W96200  16.223  41.058   2.200
30941W        W96201  20.493  12.751   3.163
30942W        W96202  15.898  39.015   4.704
30943W        W96203  27.883  32.409   3.391
30944W        W96204  11.159   8.363   2.543
30945W        W96205  21.203  42.973  11.617
30946W        W96206  38.094  41.802   0.375
30947W        W96207  12.636   6.133  13.592
30948W        W96208  35.209  44.454   1.313
30949W        W96209  35.006  43.360  12.437
30950W        W96210   0.318  30.286   2.322
30951W        W96211   0.085   8.134   5.760
30952W        W96212  44.822  15.749  12.796
30953W        W96213  26.555  15.439  13.626
30954W        W96214  41.110  16.190  11.048
30955W        W96215   5.923   0.934   1.650
30956W        W96216  19.813   1.709  14.363
30957W        W96217  18.899  11.114   3.710
30958W        W96218   6.696  24.921   0.938
30959W        W96219  33.128  24.642   2.212
30960W        W96220  14.716  12.287   2.151
30961W        W96221  26.950  18.556   1.764
30962W        W96222  34.879  23.500   3.242
30963W        W96223  22.139  43.775   1.333
30964W        W96224   0.501  14.457  11.851
30965W        W96225  20.202  38.538   9.781
30966W        W96226  34.315  18.022   1.031
30967W        W96227   9.730   0.445   2.155
30968W        W96228  27.112  39.874   2.656
30969W        W96229  37.083  43.296   4.080
30970W        W96230  14.805  20.117  10.254
30971W        W96231  22.776  28.638   4.114
30972W        W96232  34.019  27.626  13.392
30973W        W96233   6.717  11.428   0.357
30974W        W96234  19.190  23.878   4.147
30975W        W96235  12.251  24.767   1.697
30976W        W96236  38.903  25.352   0.504
30977W        W96237  36.234  20.855  10.719
30978W        W96238  24.252  42.258   0.453
30979W        W96239   5.795  31.807   4.168
30980W        W96240  20.999  34.479   1.393
30981W        W96241  16.987  42.417  12.397
30982W        W96242  17.602  27.948   3.799
30983W        W96243  13.929  23.542  11.578
30984W        W96244   8.915  13.608  10.701
30985W        W96245  31.206  37.979   1.214
30986W        W96246  35.313   8.886  14.924
30987W        W96247   7.387  38.927  11.213
30988W        W96248  10.166  35.823  12.452
30989W        W96249  28.446  12.801  11.580
30990W        W96250  19.075   3.685   3.733
30991W        W96251  44.562  44.944  13.366
30992W        W96252  42.268  20.975  11.133
30993W        W96253  29.598  34.393   1.919
30994W        W96254   5.368  33.876   0.769
30995W        W96255   1.009  14.835  14.097
30996W        W96256  23.691  25.574   2.144
30997W        W96257  22.331  36.478   1.264
30998W        W96258   1.564  15.891   2.731
30999W        W96259  25.923  14.819   3.349
31000W        W96260  11.738  18.951   3.335
31001W        W96261   0.651   4.070   0.844
31002W        W96262  42.894   2.827   2.049
31003W        W96263  20.987  44.094   1.840
31004W        W96264  26.092   3.364  14.600
31005W        W96265   2.965  22.652  14.556
31006W        W96266   6.395   0.301   1.526
31007W        W96267  33.286  23.782   3.235
31008W        W96268  24.386   5.257   2.158
31009W        W96269  19.860  13.725  11.230
31010W        W96270  34.326  42.255   2.741
31011W        W96271  41.823   3.706  13.492
31012W        W96272  38.965   0.604  12.067
31013W        W96273  16.895   3.848   0.865
31014W        W96274  41.133  20.545  14.434
31015W        W96275   8.139   8.818   2.831
31016W        W96276  44.820  17.715  10.956
31017W        W96277  13.080   5.603  12.628
31018W        W96278  19.247   4.264   2.014
31019W        W96279  37.370  29.136   2.667
31020W        W96280  32.676  15.570  12.622
31021W        W96281   1.713  37.503  12.117
31022W        W96282   5.710   2.448  14.520
31023W        W96283   0.424  25.963  12.377
31024W        W96284  15.118  19.927   4.368
31025W        W96285   3.543  40.902  12.317
31026W        W96286  42.942  39.526  14.944
31027W        W96287  25.076  24.555  14.872
31028W        W96288  11.141  34.921  12.125
31029W        W96289  28.203  26.582  14.398
31030W        W96290  32.458  36.503  11.934
31031W        W96291  37.341  33.055  11.422
31032W        W96292  34.937  17.660  14.736
31033W        W96293  42.510  44.786  11.024
31034W        W96294  22.714  15.598   0.472
31035W        W96295  32.592  14.773  14.271
31036W        W96296  26.843  24.027   1.703
31037W        W96297  30.631   4.358  12.038
31038W        W96298  29.224   0.211  13.471
31039W        W96299   8.352  13.158  14.451
31040W        W96300  14.621  26.999  13.943
31041W        W96301  37.402  23.579  14.531
31042W        W96302  11.888  11.769   2.950
31043W        W96303  27.493  20.982   2.366
31044W        W96304  27.466  16.263   2.747
31045W        W96305  14.840  27.982   4.131
31046W        W96306  17.263   7.617  13.932
31047W        W96307  41.489  44.420  10.646
31048W        W96308  23.063  14.146   9.905
31049W        W96309   3.053   2.243   3.179
31050W        W96310  17.315  23.496   4.141
31051W        W96311  19.733  43.781  11.245
31052W        W96312  25.869  43.928  13.064
31053W        W96313  35.849  36.920  13.385
31054W        W96314  34.866  14.119  12.796
31055W        W96315  30.175   0.499  14.839
31056W        W96316  21.466  29.871   5.095
31057W        W96317  32.481  20.500   3.747
31058W        W96318  30.257   8.986   2.807
31059W        W96319  13.727  20.793  11.028
31060W        W96320  38.368  36.980  11.026
31061W        W96321  35.649  26.522   1.936
31062W        W96322  16.734  11.495   3.173
31063W        W96323  27.954   9.142  13.911
31064W        W96324  44.999  11.952   1.317
31065W        W96325   4.751  40.223  13.016
31066W        W96326  14.191   5.972  12.192
31067W        W96327  28.828  21.613  12.710
31068W        W96328   8.963  35.540  11.234
31069W        W96329  23.225   6.192  14.917
31070W        W96330  16.032  44.972   1.987
31071W        W96331   3.583  21.555   3.401
31072W        W96332  30.910  10.358   3.343
31073W        W96333  43.390  13.900  14.277
31074W        W96334  13.851   5.326  14.797
31075W        W96335   0.578  15.597   2.536
31076W        W96336  28.397  28.014   4.184
31077W        W96337   5.374  32.123   1.438
31078W        W96338  40.680   5.860   1.333
31079W        W96339  25.339  40.940   2.344
31080W        W96340  10.140  26.269   3.216
31081W        W96341  35.953  20.723   1.991
31082W        W96342  20.484  40.487   1.403
31083W        W96343  13.263  10.538   9.993
31084W        W96344  37.978  17.373   0.724
31085W        W96345  34.829   1.352   5.298
31086W        W96346  17.568  13.164  14.835
31087W        W96347   3.281  37.799  12.914
31088W        W96348  12.753  38.182   0.754
31089W        W96349   4.716  38.649  10.601
31090W        W96350  28.349  39.004  14.330
31091W        W96351  17.499  30.069   0.250
31092W        W96352  17.339  44.925  12.850
31093W        W96353  14.312  18.504  12.059
31094W        W96354   3.981   4.765   1.747
31095W        W96355   9.173  43.829   4.279
31096W        W96356   8.870  38.229  11.871
31097W        W96357   1.362  42.932   0.267
31098W        W96358   9.289  25.182   0.818
31099W        W96359  19.748  32.753   4.827
31100W        W96360  23.253  29.082   4.539
31101W        W96361   3.371  28.924  12.977
31102W        W96362  35.550  27.962  13.380
31103W        W96363  32.834  30.850   0.345
31104W        W96364  12.890  14.704  10.802
31105W        W96365  14.295  34.374  14.290
31106W        W96366   4.189  17.200  12.913
31107W        W96367  18.767   7.985  11.966
31108W        W96368  16.491  42.061  13.897
31109W        W96369  37.002  40.136  14.415
31110W        W96370   3.180   9.438  11.480
31111W        W96371  30.450  43.581   2.841
31112W        W96372  10.151  42.790   5.020
31113W        W96373  29.542   9.120   1.286
31114W        W96374   3.340  36.460   1.739
31115W        W96375  43.284  14.189   2.004
31116W        W96376  44.852  39.237  13.960
31117W        W96377  42.304  31.439  11.544
31118W        W96378  35.075  33.078   1.090
31119W        W96379  32.730  13.699  10.241
31120W        W96380  20.843  43.279   3.262
31121W        W96381  41.981  22.696  14.409
31122W        W96382   3.389  40.264   4.549
31123W        W96383   7.138  36.838  11.604
31124W        W96384  40.330  22.130  11.389
31125W        W96385  43.469  36.336   3.215
31126W        W96386  14.372  40.917   3.616
31127W        W96387  36.670  40.621  12.170
31128W        W96388  16.490  35.139   1.032
31129W        W96389   0.089   3.163   1.426
31130W        W96390  17.073  11.141  10.883
31131W        W96391  21.208  37.250  11.139
31132W        W96392  28.817   0.449   2.368
31133W        W96393  23.595  36.843  10.344
31134W        W96394  20.647  35.452   4.595
31135W        W96395  37.764  21.484  11.970
31136W        W96396   5.178   4.831   2.340
31137W        W96397  42.916   3.329   2.841
31138W        W96398   4.928  18.001  10.238
31139W        W96399  40.673  30.869  12.586
31140W        W96400  40.489  12.264  12.931
31141W        W96401  39.539   0.499   2.318
31142W        W96402  30.446  32.075   2.928
31143W        W96403  44.788  38.874  13.511
31144W        W96404  11.758  37.826   4.152
31145W        W96405  23.756  13.753   1.349
31146W        W96406  23.259  40.496  10.671
31147W        W96407   5.983  23.396  11.723
31148W        W96408  43.868  27.432   4.080
31149W        W96409   2.393  23.938  13.555
31150W        W96410  28.216   2.188   0.800
31151W        W96411   8.014  37.398  14.749
31152W        W96412  23.317   6.000  10.308
31153W        W96413  39.479  21.593   4.373
31154W        W96414  15.239  25.964   1.882
31155W        W96415  26.071  20.893   2.176
31156W        W96416   8.375  31.063   1.464
31157W        W96417  18.178  18.673  10.899
31158W        W96418  13.232  23.233   0.540
31159W        W96419  17.196  33.192   0.015
31160W        W96420  40.310  18.175   4.503
31161W        W96421  42.755  10.841  14.723
31162W        W96422   7.742   3.235  14.786
31163W        W96423  32.950  32.102   3.718
31164W        W96424  12.714   7.011  12.508
31165W        W96425   5.217  12.604   3.735
31166W        W96426   6.842  40.573   3.310
31167W        W96427  36.930  12.760   3.152
31168W        W96428  14.797  26.010  10.789
31169W        W96429   4.879  27.507   2.532
31170W        W96430  31.312  30.733   5.104
31171W        W96431  35.011  36.168  12.895
31172W        W96432  42.486  27.082  14.362
31173W        W96433  14.727   5.145  10.697
31174W        W96434  20.179  25.255  11.639
31175W        W96435  33.184   1.015  13.761
31176W        W96436  38.591  31.999  10.604
31177W        W96437   4.140  40.984  14.400
31178W        W96438  41.963   2.609  14.578
31179W        W96439  12.835  24.842  13.407
31180W        W96440  41.391  12.273  11.057
31181W        W96441  43.159   0.907   4.108
31182W        W96442  29.125  44.177   2.348
31183W        W96443  25.948   0.875  11.147
31184W        W96444  39.005  23.453   4.682
31185W        W96445  31.615   7.770  10.763
31186W        W96446  22.741  17.132  11.456
31187W        W96447   1.723  13.034   1.430
31188W        W96448  22.527   7.383  14.856
31189W        W96449  25.584  17.770  12.846
31190W        W96450  44.075  33.310  11.889
31191W        W96451  29.002  12.598  12.869
31192W        W96452  26.620  35.963  13.109
31193W        W96453  42.072  34.909  11.365
31194W        W96454   1.747   1.936   1.268
31195W        W96455  23.589  39.368   3.268
31196W        W96456  29.606  18.182   3.306
31197W        W96457   9.121  36.286   2.606
31198W        W96458  40.968   0.496   9.909
31199W        W96459   8.274   3.974   2.675
31200W        W96460  39.063  11.315  14.422
31201W        W96461  32.639  37.541   3.860
31202W        W96462  29.474  39.524  12.901
31203W        W96463  22.116  34.047   1.028
31204W        W96464  41.276  19.133  13.504
31205W        W96465  44.693  25.570   1.130
31206W        W96466  43.444  35.899   1.708
31207W        W96467   2.919   2.095   4.933
31208W        W96468  30.116  38.942  11.126
31209W        W96469   0.446   4.201  10.530
31210W        W96470   5.344  32.933   4.557
31211W        W96471   9.153  13.538  12.999
31212W        W96472  17.024   6.007   4.650
31213W        W96473  24.114  39.760  13.380
31214W        W96474   0.723  36.446  13.946
31215W        W96475  36.920  24.666   0.512
31216W        W96476  43.985  20.080   4.083
31217W        W96477  17.845   6.365  12.981
31218W        W96478   2.509  10.354  14.197
31219W        W96479  13.248  37.684  11.105
31220W        W96480  11.749  14.376  11.185
31221W        W96481   1.292  29.939   0.312
31222W        W96482  19.506  39.263   3.772
31223W        W96483   6.474  16.776  14.078
31224W        W96484  29.908  33.302  11.130
31225W        W96485  17.937   2.395  12.377
31226W        W96486  29.161   2.907   1.450
31227W        W96487  30.182  42.752  12.061
31228W        W96488  36.062   3.132  12.919
31229W        W96489   6.694  25.111  13.125
31230W        W96490  16.708  11.214  14.526
31231W        W96491  22.472  23.403   0.342
31232W        W96492  23.778  32.817   4.721
31233W        W96493  41.313  34.024  14.859
31234W        W96494  38.517  33.113  13.349
31235W        W96495   3.525  16.801  10.802
31236W        W96496   5.037  44.312   2.774
31237W        W96497  41.133   3.334  10.929
31238W        W96498  18.145  42.841   2.264
31239W        W96499  31.309  40.215   5.117
31240W        W96500   6.106   3.058   1.426
31241W        W96501  44.386  11.406  14.116
31242W        W96502   5.786  32.582   3.669
31243W        W96503  17.554  44.712   1.833
31244W        W96504  12.773  10.953  13.457
31245W        W96505  25.906  44.755  11.119
31246W        W96506  34.834  26.556   5.012
31247W        W96507  37.662  32.670  11.241
31248W        W96508  17.672  15.149   4.884
31249W        W96509  12.641  14.587  13.819
31250W        W96510  37.425  30.108  14.370
31251W        W96511   5.701  41.574  12.105
31252W        W96512  25.722  40.607   0.519
31253W        W96513  26.148  31.244  11.636
31254W        W96514  15.362  16.663  14.473
31255W        W96515  11.055  10.848   0.385
31256W        W96516  38.914  22.107   2.683
31257W        W96517  32.735  34.370   0.781
31258W        W96518   7.774  18.085   0.459
31259W        W96519  39.701  28.551  12.465
31260W        W96520   8.425   1.500   4.122
31261W        W96521  39.545  36.350  14.010
31262W        W96522   5.946  41.539  10.704
31263W        W96523  34.343  25.969   2.209
31264W        W96524  24.036  25.713  11.126
31265W        W96525  41.568  30.527   0.693
31266W        W96526   8.251  13.248   4.066
31267W        W96527  41.304   6.723   0.884
31268W        W96528  17.273   2.437   0.775
31269W        W96529  33.166  41.424  13.600
31270W        W96530   4.302  32.142   0.778
31271W        W96531  30.466  43.558  14.925
31272W        W96532  13.042   1.248  11.608
31273W        W96533  43.865  34.509  13.407
31274W        W96534  12.266  43.771   2.611
31275W        W96535  26.038   0.533  10.523
31276W        W96536   8.492  18.982   1.826
31277W        W96537  17.084  37.320   4.580
31278W        W96538  35.291   6.745  12.649
31279W        W96539  11.981  36.914   2.243
31280W        W96540   7.688  19.814   2.868
31281W        W96541  13.900   9.685  14.399
31282W        W96542   4.574  43.854   1.551
31283W        W96543   8.298  44.393   3.426
31284W        W96544  41.323  13.761  11.784
31285W        W96545  42.548  37.400   3.649
31286W        W96546  30.201  11.161  12.551
31287W        W96547   5.807   0.430   0.747
31288W        W96548  27.117  30.130   0.218
31289W        W96549  39.793   3.270   0.002
31290W        W96550  36.804  21.265   1.368
31291W        W96551  17.745  13.311   3.649
31292W        W96552  38.366   6.311   0.057
31293W        W96553  17.871  31.044   1.849
31294W        W96554  36.098  30.113  14.929
31295W        W96555  10.065  16.548   2.176
31296W        W96556   6.655   2.357   3.744
31297W        W96557  39.522  25.404   3.401
31298W        W96558  40.758  32.093   2.301
31299W        W96559  26.613  35.374   5.177
31300W        W96560  34.649  21.274   4.251
31301W        W96561  44.919  26.124   3.450
31302W        W96562  35.077  19.279  11.599
31303W        W96563  38.046  40.517  11.094
31304W        W96564  19.539   9.319  12.973
31305W        W96565  18.023  31.859  10.829
31306W        W96566  20.028  21.005  10.598
31307W        W96567  43.925  11.109   4.651
31308W        W96568  25.761   6.000   3.684
31309W        W96569  12.560   9.704   3.972
31310W        W96570   2.415  39.121   0.257
31311W        W96571  22.715  20.595   3.406
31312W        W96572  18.118  31.968  12.604
31313W        W96573  39.971  16.274   3.268
31314W        W96574  13.719   9.830   2.277
31315W        W96575  23.627  23.302   0.943
31316W        W96576  32.511   2.165  14.380
31317W        W96577   7.894  35.426  13.377
31318W        W96578  17.083  36.293   1.238
31319W        W96579   5.370  21.026   1.782
31320W        W96580  41.270  28.402   4.196
31321W        W96581   8.157   8.663  14.070
31322W        W96582   5.122  16.572   4.208
31323W        W96583  15.710   0.276  11.995
31324W        W96584  22.235  22.527   1.825
31325W        W96585   8.949  17.340  12.332
31326W        W96586  26.234  19.091  13.989
31327W        W96587   8.815   2.933  11.531
31328W        W96588  37.047  13.829  14.452
31329W        W96589  42.977  20.430  10.696
31330W        W96590  34.145  30.139  11.979
31331W        W96591  34.637  18.344   2.478
31332W        W96592  17.652  32.993   3.712
31333W        W96593  43.667  23.580   3.059
31334W        W96594  27.770  12.225   3.172
31335W        W96595  22.889  16.892   4.181
31336W        W96596   2.003  35.325   0.903
31337W        W96597   4.692   2.761  14.793
31338W        W96598  44.008  19.090   0.618
31339W        W96599   8.948  12.750   0.022
31340W        W96600   9.867  21.953  14.456
31341W        W96601  11.957  27.889   2.568
31342W        W96602  10.286  36.042   0.158
31343W        W96603  25.117  28.907   1.409
31344W        W96604  43.560  33.002  12.037
31345W        W96605  41.517  27.806   0.925
31346W        W96606  13.138  11.582   4.119
31347W        W96607  30.509  19.291   3.286
31348W        W96608  29.001  31.999  10.328
31349W        W96609  44.547  15.599   2.781
31350W        W96610  29.734  39.580   3.440
31351W        W96611  18.804  15.684  10.651
31352W        W96612   3.697  18.682  14.413
31353W        W96613   7.795   1.419   1.465
31354W        W96614   8.915  15.802  12.556
31355W        W96615  23.455   1.688   5.001
31356W        W96616   4.608  12.284   1.114
31357W        W96617  12.660  12.682   3.125
31358W        W96618  44.746   3.017  11.611
31359W        W96619  29.356  18.165   1.863
31360W        W96620   5.865   4.376   3.843
31361W        W96621   3.013  43.919   1.345
31362W        W96622  33.100  26.616  11.820
31363W        W96623  17.253   6.263  13.639
31364W        W96624   6.376  19.706  14.344
31365W        W96625   2.643  42.908   4.598
31366W        W96626  18.715  41.832  11.092
31367W        W96627  38.026  26.579   4.192
31368W        W96628  43.726  15.575  11.486
31369W        W96629  21.037   5.882   0.783
31370W        W96630  25.462  15.377  11.551
31371W        W96631  31.210   9.253  13.563
31372W        W96632  12.256  44.828  11.426
31373W        W96633  41.534  39.714   2.337
31374W        W96634  35.141  26.431  10.300
31375W        W96635  39.606  15.231   2.906
31376W        W96636  26.915  22.787   1.289
31377W        W96637  29.649  12.453   3.308
31378W        W96638  43.889   7.188   4.212
31379W        W96639   7.426   2.464  14.000
31380W        W96640  24.970  13.239   3.944
31381W        W96641   2.911   9.707   1.349
31382W        W96642  21.198   1.085   2.368
31383W        W96643   9.791  43.260  13.527
31384W        W96644  38.359   9.020  13.390
31385W        W96645  17.202   6.547   4.681
31386W        W96646   9.652  32.220   3.317
31387W        W96647  15.719  38.351  13.310
31388W        W96648  10.709  22.697   4.137
31389W        W96649  25.220  34.429   1.240
31390W        W96650  39.890  10.973  12.843
31391W        W96651  17.445  11.836  11.468
31392W        W96652   7.872  31.869   3.589
31393W        W96653  12.774  15.481   2.692
31394W        W96654  18.272  16.794   4.909
31395W        W96655  43.859  40.861  13.155
31396W        W96656   5.990  41.286  14.410
31397W        W96657  37.663  29.929  14.873
31398W        W96658   4.507  34.919  13.573
31399W        W96659  22.596   5.718  13.014
31400W        W96660  36.526  21.199   3.688
31401W        W96661   6.177   1.583  12.828
31402W        W96662  10.771   2.520  14.359
31403W        W96663  31.999  11.418   2.563
31404W        W96664  40.973  21.768   2.576
31405W        W96665  32.506  32.996   1.353
31406W        W96666  12.665   0.842  10.895
31407W        W96667   9.972  12.813   5.116
31408W        W96668   1.915  34.907   1.799
31409W        W96669  42.340  39.562  12.602
31410W        W96670  32.847  23.338  12.002
31411W        W96671   9.403  35.380  12.138
31412W        W96672  13.154   4.735   4.336
31413W        W96673  29.462  44.919  13.935
31414W        W96674  28.740  42.005  12.061
31415W        W96675  33.883  40.397  12.897
31416W        W96676  42.859   3.182  14.058
31417W        W96677  41.345  27.258   1.849
31418W        W96678  16.740  14.856   4.446
31419W        W96679  38.102   1.702  10.645
31420W        W96680  37.525  27.383   1.392
31421W        W96681  33.916  43.291   4.213
31422W        W96682  14.439  44.503  12.950
31423W        W96683  17.677   4.300   0.965
31424W        W96684  16.194   7.400   1.661
31425W        W96685  34.035  17.185  10.653
31426W        W96686  43.946  39.425   4.089
31427W        W96687  20.910  13.212  12.034
31428W        W96688  33.680   7.173   3.167
31429W        W96689  26.192   7.684  11.865
31430W        W96690  16.239   9.978  14.692
31431W        W96691   8.663  41.188  13.851
31432W        W96692  12.113  17.648  14.525
31433W        W96693  26.160  32.374  14.393
31434W        W96694   1.744  44.902  13.875
31435W        W96695  21.477  19.238  13.770
31436W        W96696  34.041   1.934   2.917
31437W        W96697  39.415  37.442  13.099
31438W        W96698  39.070  29.714   0.103
31439W        W96699  21.947  44.648  14.805
31440W        W96700  11.642  28.104   0.949
31441W        W96701   1.861  33.386  12.521
31442W        W96702  12.052   4.017  10.612
31443W        W96703  31.023   8.753   3.119
31444W        W96704  15.387  23.252  14.395
31445W        W96705  38.510  41.950  12.534
31446W        W96706  42.371   6.330  13.869
31447W        W96707  39.166  32.925   4.075
31448W        W96708   1.192  37.873  12.349
31449W        W96709  16.860  37.014   3.451
31450W        W96710  43.385  38.461   4.960
31451W        W96711  14.548   0.150  14.459
31452W        W96712   8.404  12.612  10.727
31453W        W96713   6.772  20.650   2.323
31454W        W96714   8.844  23.375   4.749
31455W        W96715  41.790   7.370   4.846
31456W        W96716  22.439   0.495   4.590
31457W        W96717   0.300  16.643  14.523
31458W        W96718  20.100   8.194  13.895
31459W        W96719  43.967  36.216   0.388
31460W        W96720  29.574  28.228   3.497
31461W        W96721  26.598  23.452   4.560
31462W        W96722  37.949  30.934  11.183
31463W        W96723  19.856  32.407  11.571
31464W        W96724  22.677  30.444  12.472
31465W        W96725  28.441  23.917   3.552
31466W        W96726  41.403  26.927  13.589
31467W        W96727  27.686  29.954   0.946
31468W        W96728  17.912  16.738   4.541
31469W        W96729  28.972  31.972   4.611
31470W        W96730  22.118  44.878  11.593
31471W        W96731   3.527  11.181   0.838
31472W        W96732  20.755   2.452  13.589
31473W        W96733  37.550   9.911  14.488
31474W        W96734  36.761  10.639   2.418
31475W        W96735  23.728  33.977  12.823
31476W        W96736  24.531  22.136  12.105
31477W        W96737   1.715  21.988   4.853
31478W        W96738  10.013  28.673   2.727
31479W        W96739   8.372  37.348   0.764
31480W        W96740  14.975   1.345  12.519
31481W        W96741  12.223   1.265  13.335
31482W        W96742   2.478  34.076   4.142
31483W        W96743  40.417  11.394   0.953
31484W        W96744  19.572  38.832  13.337
31485W        W96745  43.475  22.009  13.583
31486W        W96746  33.445   4.938  10.975
31487W        W96747  15.218   9.262   0.509
31488W        W96748  17.813  23.176  14.311
31489W        W96749  20.805  14.130   1.710
31490W        W96750  14.078   7.069   2.230
31491W        W96751  30.828  15.625  11.948
31492W        W96752  12.980  31.893  12.684
31493W        W96753  14.594  15.204  11.513
31494W        W96754   9.801   9.635   2.477
31495W        W96755  28.087  42.360   2.434
31496W        W96756  18.729  11.860   0.336
31497W        W96757  38.334   1.703   2.631
31498W        W96758  40.019  12.614  14.333
31499W        W96759  39.146  42.320  13.455
31500W        W96760  33.563   7.386  10.790
31501W        W96761   1.931  20.338  11.112
31502W        W96762  20.233   4.742   0.959
31503W        W96763  25.612  32.853  11.806
31504W        W96764  41.923  16.190  14.038
31505W        W96765  36.096   5.619  12.000
31506W        W96766  38.766  25.923  14.347
31507W        W96767  17.813  17.542  12.635
31508W        W96768  20.111  37.530  12.045
31509W        W96769  34.981  41.925   0.003
31510W        W96770  37.421  28.390   1.329
31511W        W96771  20.874   3.265   2.638
31512W        W96772   2.486  33.597   1.938
31513W        W96773  12.791   8.991  11.282
31514W        W96774  17.798   3.333   3.644
31515W        W96775   9.840   6.652   9.925
31516W        W96776   3.989  21.968   1.121
31517W        W96777  35.642  43.441   0.414
31518W        W96778   2.431   6.636   0.695
31519W        W96779  39.558  32.611   4.739
31520W        W96780  42.168  41.205   4.997
31521W        W96781  17.498  40.518  13.258
31522W        W96782  18.967  38.841   3.023
31523W        W96783  14.030   5.193   2.269
31524W        W96784  13.403  12.584  14.310
31525W        W96785  40.879  29.191   3.173
31526W        W96786  10.926   4.438  14.752
31527W        W96787  10.801   5.493  12.543
31528W        W96788  21.601  42.483   2.783
31529W        W96789  19.580  35.188  14.332
31530W        W96790  11.833  32.617   1.655
31531W        W96791  22.953  30.102  14.990
31532W        W96792  28.486  31.333  14.684
31533W        W96793  14.743  37.396  14.331
31534W        W96794  42.481  17.721  13.114
31535W        W96795  11.283  12.712  10.755
31536W        W96796  13.839   0.755  11.554
31537W        W96797   4.827  12.228  14.722
31538W        W96798  11.110  35.492  14.803
31539W        W96799  34.923  18.153   4.631
31540W        W96800  12.325  22.857  12.780
31541W        W96801  27.835  22.109   0.355
31542W        W96802  38.332  25.588  10.614
31543W        W96803   0.441  29.448   0.903
31544W        W96804  13.924  38.843  14.736
31545W        W96805  29.512   8.621  10.701
31546W        W96806  40.875   1.903  12.837
31547W        W96807  15.304  28.693   0.909
31548W        W96808  24.748  15.530   4.200
31549W        W96809  32.651  32.587  11.026
31550W        W96810   4.676  44.682   2.774
31551W        W96811  14.580  28.111   3.689
31552W        W96812  36.455  20.075   3.364
31553W        W96813  38.471  11.180  12.830
31554W        W96814  24.327  40.189  10.603
31555W        W96815  28.558  34.335  11.966
31556W        W96816  36.654  25.107   3.271
31557W        W96817   3.357  32.408  13.885
31558W        W96818  19.705  12.628  13.125
31559W        W96819   0.317  37.020   3.251
31560W        W96820  22.148   1.339   4.569
31561W        W96821   1.260  17.059  14.317
31562W        W96822  30.563  13.551   2.906
31563W        W96823  28.259  16.809   2.591
31564W        W96824  10.850  21.563   2.711
31565W        W96825  36.423  29.045   2.431
31566W        W96826  32.531  44.514  14.780
31567W        W96827  32.793  19.758  12.901
31568W        W96828  41.795  16.088   1.352
31569W        W96829  20.333  41.455   0.954
31570W        W96830  17.023  17.950  12.561
31571W        W96831  43.774  26.467  10.962
31572W        W96832  12.333  27.503  12.278
31573W        W96833  27.193  32.387  11.064
31574W        W96834  21.072  28.974  13.400
31575W        W96835  30.248   3.184   3.655
31576W        W96836  20.087  39.813  13.320
31577W        W96837   1.342  31.125  11.015
31578W        W96838  38.528  14.309   0.372
31579W        W96839   1.651  35.031  12.601
31580W        W96840   8.217  39.570   1.349
31581W        W96841  16.506  23.901   4.629
31582W        W96842  32.894  29.174  11.525
31583W        W96843   6.754   4.881   0.880
31584W        W96844  42.382  14.098   3.920
31585W        W96845  25.679  42.316  12.965
31586W        W96846   8.807   4.191   2.392
31587W        W96847  16.134  12.216   4.096
31588W        W96848  20.045   9.644  12.967
31589W        W96849  15.730  27.191  10.390
31590W        W96850   2.139  13.842   4.265
31591W        W96851  14.566  30.079  11.901
31592W        W96852  21.788  36.409   1.036
31593W        W96853  44.900  35.160  10.679
31594W        W96854  22.553  22.092   1.698
31595W        W96855  14.082  40.927   3.202
31596W        W96856   4.875  32.832   1.521
31597W        W96857  30.514  13.088  14.073
31598W        W96858   7.332  42.614  14.316
31599W        W96859  13.229  16.595   0.453
31600W        W96860  20.679  41.839   3.762
31601W        W96861  35.065  11.882   2.602
31602W        W96862  44.852   6.666   2.251
31603W        W96863   0.460  35.999  13.272
31604W        W96864   9.894  27.052  14.441
31605W        W96865  21.756  20.676   1.269
31606W        W96866  30.696  29.628   3.627
31607W        W96867  43.615  30.959  14.370
31608W        W96868   7.917  25.099   3.011
31609W        W96869   2.457  10.244   3.198
31610W        W96870  25.484   5.981  14.632
31611W        W96871  39.472   7.451  12.089
31612W        W96872  17.001  24.058   4.943
31613W        W96873  38.063  44.204  11.226
31614W        W96874  16.746  40.009   1.757
31615W        W96875  37.325   0.176   9.839
31616W        W96876   2.547   1.919   0.905
31617W        W96877  10.180  36.861   1.890
31618W        W96878  11.235   2.395   3.225
31619W        W96879  27.982   5.924   2.023
31620W        W96880   2.964  40.083  14.369
31621W        W96881  19.129  34.615   0.733
31622W        W96882   7.638  43.775  14.746
31623W        W96883  23.988  39.886   3.682
31624W        W96884  40.816  10.606   0.020
31625W        W96885  18.676  27.527  10.439
31626W        W96886  24.115  44.877   4.923
31627W        W96887  35.639  37.340  13.604
31628W        W96888   0.791  13.129   1.885
31629W        W96889   5.710  34.362   4.137
31630W        W96890  14.770  23.046   3.582
31631W        W96891   2.872   0.307   0.226
31632W        W96892  35.858  41.164  11.894
31633W        W96893  20.596  29.929  14.658
31634W        W96894   4.117  32.412   1.768
31635W        W96895  26.194  29.185   0.589
31636W        W96896  41.127  20.903   3.583
31637W        W96897  22.761  39.875   0.841
31638W        W96898   8.364   4.115  12.473
31639W        W96899  31.215  28.729   2.804
31640W        W96900  10.047  10.978   3.363
31641W        W96901  15.793  27.462  13.143
31642W        W96902  15.153  25.510  14.830
31643W        W96903  10.412  11.855   0.107
31644W        W96904  28.660  20.088   9.625
31645W        W96905  29.475  35.407   4.569
31646W        W96906  26.959  23.125  11.340
31647W        W96907  21.210  43.562  10.578
31648W        W96908   7.240  27.770   4.982
31649W        W96909  32.622  38.783   0.900
31650W        W96910  17.942  17.838  10.686
31651W        W96911  28.865  32.036  11.919
31652W        W96912  12.794  38.860  12.540
31653W        W96913  44.932  32.999   0.543
31654W        W96914   3.270  21.130  12.962
31655W        W96915   9.767  13.274   0.111
31656W        W96916  11.605  24.059   3.591
31657W        W96917  39.666  42.797   4.616
31658W        W96918  37.663   6.860   0.291
31659W        W96919  38.359  17.686   4.381
31660W        W96920  39.373  11.255  12.366
31661W        W96921  27.164   7.232   4.582
31662W        W96922  42.828   6.144  14.062
31663W        W96923  20.977  28.566  10.558
31664W        W96924  36.857  38.098   4.671
31665W        W96925  17.662  15.034   4.338
31666W        W96926  41.991   2.455  11.556
31667W        W96927  28.581  38.068  12.899
31668W        W96928  44.826  33.220   2.822
31669W        W96929  14.093  24.506  14.219
31670W        W96930  11.624  37.066  14.328
31671W        W96931  18.853   1.573   3.901
31672W        W96932  28.500  38.082   0.257
31673W        W96933  32.764  14.668  12.612
31674W        W96934  11.285   1.760  13.865
31675W        W96935  21.848  38.983  11.396
31676W        W96936  25.090  11.342   0.709
31677W        W96937  21.650  42.823  13.339
31678W        W96938   7.258  27.839   3.240
31679W        W96939  17.207  43.243  10.754
31680W        W96940  33.807   2.917  12.530
31681W        W96941  24.970  16.844   1.377
31682W        W96942  36.056  38.717   0.767
31683W        W96943  37.338  43.982  11.617
31684W        W96944   9.567  27.395   4.451
31685W        W96945  14.518  44.957   1.767
31686W        W96946  26.436  23.567  10.791
31687W        W96947  22.592   0.371   0.941
31688W        W96948  38.800  10.058  13.859
31689W        W96949  37.407  25.613  14.334
31690W        W96950   4.912  33.436  14.457
31691W        W96951   7.315  26.772  13.815
31692W        W96952  19.183   5.535  11.506
31693W        W96953   2.756   1.471   2.528
31694W        W96954   3.262  22.227  14.583
31695W        W96955  28.740  34.848   0.778
31696W        W96956  20.002  13.290   4.139
31697W        W96957  23.337  29.082  12.821
31698W        W96958  33.216  30.260  12.240
31699W        W96959  39.353  35.433   1.460
31700W        W96960   7.692  30.560   1.883
31701W        W96961   5.248  18.855  13.116
31702W        W96962   6.325  23.720   2.766
31703W        W96963  44.759  36.464  14.250
31704W        W96964  12.757  24.880   3.726
31705W        W96965  19.533  20.081  12.917
31706W        W96966  37.642  20.077  14.316
31707W        W96967  16.283  26.070   4.726
31708W        W96968   9.392   0.895  14.296
31709W        W96969  40.309   5.001   2.182
31710W        W96970  13.345  13.790  11.629
31711W        W96971  32.121   0.734   2.853
31712W        W96972  42.299  14.713  12.035
31713W        W96973   4.595  14.199   1.053
31714W        W96974  29.521  18.789  11.643
31715W        W96975  24.298  39.187  10.290
31716W        W96976  31.374   8.477  14.458
31717W        W96977  23.046   6.737  11.613
31718W        W96978  42.857  27.725   0.882
31719W        W96979  22.490   7.452  11.475
31720W        W96980  38.902  19.246  12.539
31721W        W96981  18.291   1.736   3.146
31722W        W96982   1.935   8.612  12.301
31723W        W96983  29.522  12.296   4.811
31724W        W96984   9.411   2.974   4.938
31725W        W96985  20.599  33.113  14.480
31726W        W96986   9.886  22.535   4.590
31727W        W96987  35.910  21.361  10.810
31728W        W96988   3.891  23.625  14.529
31729W        W96989   2.792   3.657  11.048
31730W        W96990  17.295  41.956   0.449
31731W        W96991  21.138  23.892  10.264
31732W        W96992   5.111  32.511   4.774
31733W        W96993  11.984   2.750   4.106
31734W        W96994  11.668  15.041   0.869
31735W        W96995  12.311  12.623  13.422
31736W        W96996   3.915  38.970  13.281
31737W        W96997   3.568  12.566   0.334
31738W        W96998  32.651  14.427   4.347
31739W        W96999   0.040  43.322   4.811
31740W        W97000  31.707  40.609   0.849
31741W        W97001  37.149  15.647   4.573
31742W        W97002  34.239  24.027   2.912
31743W        W97003  26.183  29.361  10.679
31744W        W97004  21.464  21.018  11.682
31745W        W97005   7.236  30.264   1.656
31746W        W97006  39.014   0.724   0.331
31747W        W97007  32.355  34.473  12.070
31748W        W97008  22.234  22.720  12.957
31749W        W97009  43.696  22.274   4.418
31750W        W97010  11.298  43.600   1.724
31751W        W97011  37.534  41.535  11.580
31752W        W97012  39.074  32.025   4.344
31753W        W97013  12.723   5.170  14.020
31754W        W97014  27.547   5.700   4.032
31755W        W97015  19.058  13.800  10.800
31756W        W97016  30.170  11.354  13.046
31757W        W97017  36.611  23.456  12.929
31758W        W97018   0.882   7.630  14.496
31759W        W97019  42.078  18.546  10.964
31760W        W97020  42.986  39.448  10.674
31761W        W97021  16.283  16.134   4.073
31762W        W97022  20.668  15.256   3.336
31763W        W97023  23.622   9.779   4.922
31764W        W97024  33.004  30.815   1.771
31765W        W97025   7.939  11.731   4.590
31766W        W97026  33.159  33.077  13.161
31767W        W97027  23.066  11.272  13.943
31768W        W97028  20.951  38.598  13.915
31769W        W97029  23.497  33.836  11.922
31770W        W97030  11.116  42.706  12.445
31771W        W97031   4.143  21.135  10.137
31772W        W97032   8.197  24.697  13.043
31773W        W97033  41.774  30.576   4.572
31774W        W97034  29.441  38.845   0.746
31775W        W97035  42.254  21.385   3.291
31776W        W97036   5.365   4.369  14.739
31777W        W97037  22.629  19.447  10.850
31778W        W97038  31.514  19.566  12.400
31779W        W97039  28.095  19.825   4.227
31780W        W97040  21.743  33.003  13.973
31781W        W97041  18.449   0.534   1.435
31782W        W97042  32.438   9.436  12.138
31783W        W97043  20.125  11.342  13.409
31784W        W97044  34.840  18.698   1.873
31785W        W97045  32.477   8.302  13.020
31786W        W97046  43.340  21.447   4.649
31787W        W97047   2.566   9.216  10.927
31788W        W97048  36.885  41.079   2.124
31789W        W97049   3.015   9.214  14.755
31790W        W97050  44.333  10.785  11.031
31791W        W97051   1.460  38.867   4.320
31792W        W97052   4.182  42.815  14.561
31793W        W97053  32.244  17.020  12.599
31794W        W97054  10.108  25.605   0.332
31795W        W97055  18.277  30.794   0.206
31796W        W97056  42.877  36.888   1.414
31797W        W97057   8.015  16.134   0.701
31798W        W97058  17.318  12.124   3.934
31799W        W97059  26.679   6.017   0.288
31800W        W97060  20.019  16.723  13.416
31801W        W97061  13.375  10.364  14.049
31802W        W97062  39.464  27.602  12.589
31803W        W97063  28.211  34.844   0.885
31804W        W97064  29.696  41.799  12.176
31805W        W97065  17.168  32.109  12.186
31806W        W97066  31.544  24.513   2.849
31807W        W97067  21.110  19.801   4.719
31808W        W97068  24.990  29.309  12.057
31809W        W97069  19.090  16.347   4.067
31810W        W97070  21.356  35.064   4.958
31811W        W97071  34.401   1.322   0.867
31812W        W97072   4.030  12.559  12.440
31813W        W97073  16.011  23.489   3.240
31814W        W97074  35.500  36.994  13.034
31815W        W97075  17.519  25.547  11.279
31816W        W97076   3.195  18.710  14.283
31817W        W97077  26.561  35.121  10.580
31818W        W97078  15.356  42.767  13.665
31819W        W97079  16.325   4.739  12.698
31820W        W97080  38.987   0.340   0.741
31821W        W97081  10.300   0.386   0.795
31822W        W97082  11.664  27.422  14.971
31823W        W97083  37.021   3.520   1.736
31824W        W97084  37.915  31.415  10.511
31825W        W97085  44.469   1.035  14.476
31826W        W97086  11.890  23.039  13.352
31827W        W97087  40.896  15.082  12.278
31828W        W97088   0.240  40.886   1.791
31829W        W97089  18.225  17.294   0.212
31830W        W97090   9.876  39.634  12.876
31831W        W97091  33.501  18.119  13.123
31832W        W97092   1.875  42.231   3.829
31833W        W97093   6.481  25.195  11.428
31834W        W97094   9.759  11.226   3.057
31835W        W97095  11.149   1.467  14.283
31836W        W97096  22.066   1.204  14.923
31837W        W97097   1.396  39.204   0.170
31838W        W97098  41.358  17.684   4.132
31839W        W97099  13.128  23.136   3.254
31840W        W97100   8.730   0.246  14.062
31841W        W97101  18.689  26.549  10.876
31842W        W97102  34.008  37.560  13.533
31843W        W97103  19.280  15.659   0.518
31844W        W97104  38.519  24.602  10.670
31845W        W97105   9.760   3.725  10.776
31846W        W97106  43.973  18.066   0.457
31847W        W97107  18.751  18.472   4.038
31848W        W97108  19.628  29.942   2.465
31849W        W97109  24.191  40.673   5.005
31850W        W97110   9.787  35.860  13.904
31851W        W97111  20.588  11.515   1.553
31852W        W97112  10.251   4.088  11.118
31853W        W97113   8.300  16.072  12.862
31854W        W97114   2.732  21.045  13.004
31855W        W97115  18.062  39.316   3.336
31856W        W97116  21.659  30.727   1.332
31857W        W97117  26.039  23.511   4.585
31858W        W97118  37.038   5.330   2.722
31859W        W97119  29.421  31.982   2.788
31860W        W97120   2.118  20.828  14.339
31861W        W97121  19.767  16.135   1.919
31862W        W97122  37.262  24.669  12.007
31863W        W97123  12.258  42.486   3.790
31864W        W97124  35.438  36.165   2.812
31865W        W97125   9.360  37.611  10.781
31866W        W97126  40.449  38.884   1.283
31867W        W97127  35.400   3.500   2.905
31868W        W97128  25.021  23.785  13.822
31869W        W97129  18.406  44.422  13.902
31870W        W97130  40.954  40.788   0.053
31871W        W97131  27.564   7.248   2.919
31872W        W97132  27.557  43.362  14.799
31873W        W97133  26.961  32.448   2.386
31874W        W97134  23.885  28.940   1.924
31875W        W97135  28.584  36.637  10.719
31876W        W97136  14.500  35.350   0.737
31877W        W97137  41.260   4.283   1.005
31878W        W97138   9.407   6.223  13.572
31879W        W97139   1.937  35.061   2.814
31880W        W97140  44.434  43.339   5.317
31881W        W97141  11.713  30.416   2.747
31882W        W97142   8.165   3.152   4.607
31883W        W97143  11.729  13.295  10.210
31884W        W97144  30.640  25.714  12.466
31885W        W97145  32.222   4.876   3.708
31886W        W97146   9.715  13.200   4.131
31887W        W97147  22.671  21.627  10.239
31888W        W97148  20.995  18.257   1.854
31889W        W97149  16.262  30.919  13.964
31890W        W97150  17.348  34.581  12.568
31891W        W97151  40.035  21.042  13.039
31892W        W97152  30.959  15.095  14.655
31893W        W97153  41.269  20.177  11.506
31894W        W97154  14.763  18.378   3.289
31895W        W97155  30.147   4.945  13.919
31896W        W97156   3.756   5.347   3.187
31897W        W97157  28.932  18.001  11.644
31898W        W97158  16.667  36.570   0.488
31899W        W97159  37.844   3.280   2.155
31900W        W97160  17.180   7.183  13.296
31901W        W97161   4.510  12.144  10.643
31902W        W97162  36.261   7.280   1.394
31903W        W97163  40.688   1.120   3.585
31904W        W97164   8.230   9.329  11.477
31905W        W97165  20.899  14.793   0.890
31906W        W97166  19.971  23.720   4.117
31907W        W97167  37.024  24.032   2.794
31908W        W97168   9.223  31.390   1.155
31909W        W97169   4.653  10.611  12.145
31910W        W97170  38.956  12.314  13.405
31911W        W97171  29.637  40.935   4.174
31912W        W97172  17.520  27.945  10.754
31913W        W97173  12.009  27.078   1.759
31914W        W97174  17.967  12.131   2.165
31915W        W97175  43.026  28.498   4.520
31916W        W97176   6.241  32.092   0.417
31917W        W97177   9.771  38.697  12.045
31918W        W97178  21.264  32.388   2.271
31919W        W97179  20.573  26.940   1.318
31920W        W97180   4.891  32.873  14.529
31921W        W97181  13.603  19.645   2.734
31922W        W97182  25.053  11.676   2.714
31923W        W97183  36.569  43.979  11.207
31924W        W97184  41.015  27.997   2.362
31925W        W97185  31.562  21.515   0.855
31926W        W97186   2.811   0.219  11.959
31927W        W97187  40.550  16.398  13.847
31928W        W97188   1.366  34.593   3.840
31929W        W97189  30.096  32.589  11.600
31930W        W97190   6.801  20.686  13.574
31931W        W97191  35.958  34.120  11.165
31932W        W97192   3.901  40.163  14.240
31933W        W97193   9.568  11.101   2.610
31934W        W97194  13.488  36.902  12.567
31935W        W97195  28.197  27.210   0.464
31936W        W97196   8.939  29.166   3.764
31937W        W97197  27.144  44.934   1.179
31938W        W97198  30.062  36.657  11.627
31939W        W97199  28.382  31.364   2.311
31940W        W97200  25.056  28.781  12.131
31941W        W97201  33.551   1.872  11.946
31942W        W97202  10.021  29.151   0.537
31943W        W97203  43.951   9.875   0.350
31944W        W97204   1.801  34.832   3.673
31945W        W97205  21.687  40.928   2.507
31946W        W97206   9.310   8.359  12.003
31947W        W97207  15.289  40.559   3.349
31948W        W97208  19.490   0.050  11.020
31949W        W97209  23.986  26.958  10.795
31950W        W97210  27.642  24.679  12.131
31951W        W97211  24.999   2.504  11.123
31952W        W97212  15.246  43.693  11.148
31953W        W97213  22.801  21.784  12.107
31954W        W97214  44.850  40.615  10.726
31955W        W97215  19.257  15.701   2.242
31956W        W97216  11.564  27.411   1.880
31957W        W97217   0.063   6.156   2.261
31958W        W97218   9.670  25.795  10.669
31959W        W97219   1.452  43.112  10.522
31960W        W97220  14.020  42.023   1.805
31961W        W97221  16.982  13.403  14.135
31962W        W97222  21.977  14.727  14.418
31963W        W97223  33.835  42.988  14.865
31964W        W97224   4.688   1.420   3.372
31965W        W97225  39.762  35.296   1.810
31966W        W97226  40.935   2.463   3.272
31967W        W97227  19.800   8.205   3.718
31968W        W97228  23.798  27.874   0.394
31969W        W97229   7.876  17.343  12.827
31970W        W97230   9.920  14.792   0.874
31971W        W97231  39.785  40.911  14.427
31972W        W97232  23.409  34.988   0.279
31973W        W97233  22.142  12.326  14.958
31974W        W97234  16.655  20.304  14.051
31975W        W97235  35.310  43.679  12.711
31976W        W97236  38.043  20.070  11.237
31977W        W97237  43.436   6.577   4.633
31978W        W97238  38.551   2.090  11.507
31979W        W97239  16.153  24.232  14.192
31980W        W97240  18.344  24.518   3.414
31981W        W97241  18.246  25.421  11.828
31982W        W97242  18.690  11.269   0.900
31983W        W97243  33.970  19.052   0.293
31984W        W97244  16.973  28.387  14.771
31985W        W97245  20.714  18.392   1.371
31986W        W97246  42.399  15.771   4.653
31987W        W97247  43.572  10.493   3.083
31988W        W97248  15.589  29.110  12.434
31989W        W97249   3.385   1.844   1.168
31990W        W97250  31.335  12.732  11.596
31991W        W97251  34.944   6.604  11.307
31992W        W97252  24.187  42.128  11.573
31993W        W97253   2.593   7.637  12.355
31994W        W97254  44.226  35.824  13.467
31995W        W97255   8.716  38.723   0.305
31996W        W97256  31.373   0.486   3.427
31997W        W97257  27.679  10.793  11.950
31998W        W97258  44.727  28.398   1.335
31999W        W97259  40.911  25.697  13.910
32000W        W97260  17.182  31.800  12.602
32001W        W97261  31.320  25.478   0.807
32002W        W97262   7.231  36.868  13.990
32003W        W97263  43.002  12.788   0.983
32004W        W97264  40.702  25.780  12.916
32005W        W97265  40.933  39.203  10.500
32006W        W97266   0.695   1.165  12.610
32007W        W97267  26.079  24.043   3.302
32008W        W97268   0.971  39.913   4.578
32009W        W97269   4.997   2.725   4.344
32010W        W97270  20.825  23.719  14.858
32011W        W97271  40.310  26.144  13.037
32012W        W97272  17.990  16.378   0.282
32013W        W97273  29.518   0.905   0.446
32014W        W97274   2.931  12.917   1.510
32015W        W97275  34.680   5.505   4.104
32016W        W97276  24.575  39.954  13.568
32017W        W97277  43.011   0.450   3.879
32018W        W97278  12.677  29.749  11.034
32019W        W97279  36.372  18.279   3.796
32020W        W97280  10.224  21.271  14.566
32021W        W97281  43.334  15.888   2.544
32022W        W97282  42.861  36.092  11.879
32023W        W97283  21.002  26.192  12.274
32024W        W97284   1.452  32.949  10.418
32025W        W97285  15.560   9.177   3.071
32026W        W97286   9.740   0.919   3.543
32027W        W97287  31.465  24.713  12.417
32028W        W97288  12.951  27.074   0.393
32029W        W97289  40.301  29.718  11.069
32030W        W97290  39.208   0.280   5.031
32031W        W97291  34.689  32.398   4.875
32032W        W97292  37.000  23.627  11.181
32033W        W97293  44.976  22.943   0.763
32034W        W97294  14.006  10.373  13.473
32035W        W97295  36.852  42.139  13.051
32036W        W97296  43.514   9.957   4.200
32037W        W97297  16.124  33.431  14.799
32038W        W97298  32.499  39.577   1.221
32039W        W97299   9.259   1.813  13.404
32040W        W97300  36.031  34.547  12.513
32041W        W97301  42.786   0.919  13.077
32042W        W97302  27.933   2.443   3.897
32043W        W97303  23.813   1.396  12.588
32044W        W97304   1.735  12.057  11.982
32045W        W97305  26.787   5.087  10.204
32046W        W97306   0.155  24.779  13.942
32047W        W97307  12.250   9.702  12.904
32048W        W97308   1.517  24.740   2.596
32049W        W97309   6.224  19.726  13.464
32050W        W97310  10.017  10.596  10.749
32051W        W97311  27.434  33.543  14.886
32052W        W97312  21.742  15.660  10.997
32053W        W97313  33.976  43.478  14.909
32054W        W97314  43.832  13.445   1.729
32055W        W97315  26.473  28.523  10.996
32056W        W97316  10.656  42.335   4.566
32057W        W97317  25.587  13.891  12.029
32058W        W97318   5.443  10.803   3.314
32059W        W97319  40.369   8.256  12.939
32060W        W97320  10.357  39.347   2.828
32061W        W97321   3.151  17.485  13.782
32062W        W97322  28.029   1.530  12.960
32063W        W97323  21.013  28.245   4.751
32064W        W97324  13.796   7.258   3.416
32065W        W97325  31.438   0.331   2.417
32066W        W97326   9.694  43.755   4.244
32067W        W97327  33.479  32.088  11.391
32068W        W97328  25.043  38.085  12.708
32069W        W97329  42.092  35.123  13.951
32070W        W97330   2.362   6.194  12.392
32071W        W97331  11.362  23.902  13.502
32072W        W97332   7.146   3.720   1.287
32073W        W97333  43.443  37.395   2.467
32074W        W97334  39.040  14.984  14.397
32075W        W97335  23.559  42.774  14.272
32076W        W97336   5.996  40.339   0.866
32077W        W97337  16.903  14.089   1.567
32078W        W97338  37.348   7.819   3.189
32079W        W97339  18.812  22.019  14.963
32080W        W97340  20.824  19.487  12.048
32081W        W97341  10.044  30.083  11.335
32082W        W97342  36.295  40.009  10.639
32083W        W97343  43.496   6.759   1.214
32084W        W97344  37.654  36.749  13.016
32085W        W97345   5.888  27.975   2.209
32086W        W97346   4.724  35.983  12.564
32087W        W97347  31.641   9.247   0.023
32088W        W97348  25.876   5.967  12.411
32089W        W97349  11.701  25.210   3.552
32090W        W97350  25.043  13.217  14.772
32091W        W97351  10.479  22.289  10.186
32092W        W97352  15.016  34.933   2.608
32093W        W97353  15.667  19.734  12.325
32094W        W97354  32.476   5.967  12.189
32095W        W97355  18.197   9.288   1.202
32096W        W97356  25.472  29.184  14.262
32097W        W97357  40.101  26.467  13.414
32098W        W97358  15.177   0.229   0.796
32099W        W97359  36.609  29.606   0.236
32100W        W97360  29.061  27.411  10.705
32101W        W97361   6.696  37.756  13.796
32102W        W97362  12.303  21.113   3.595
32103W        W97363  38.087   8.599  13.480
32104W        W97364  39.951  44.734  13.458
32105W        W97365  28.426  15.126  12.157
32106W        W97366  10.489  20.861   0.832
32107W        W97367  42.828  25.900  12.528
32108W        W97368  37.297   4.633   0.368
32109W        W97369  12.170  24.039  10.664
32110W        W97370  31.941  30.106  14.411
32111W        W97371  29.043  12.899   0.114
32112W        W97372   2.617  30.381  11.458
32113W        W97373  13.173  12.129   0.830
32114W        W97374  38.137   9.562   0.014
32115W        W97375  26.562  28.179  14.768
32116W        W97376  27.509   4.686  13.472
32117W        W97377  13.848   1.160  14.329
32118W        W97378  40.424   6.189  14.381
32119W        W97379  41.330   5.146  13.295
32120W        W97380   6.055  38.432   2.365
32121W        W97381  35.628  40.994   2.701
32122W        W97382  25.169   5.482   1.617
32123W        W97383  14.355   1.880  14.101
32124W        W97384  23.054  41.766   1.196
32125W        W97385  13.301  36.839   3.814
32126W        W97386   4.344  41.771   2.397
32127W        W97387  38.971  21.286  11.484
32128W        W97388  14.490  16.732  12.436
32129W        W97389   2.751   4.115   4.527
32130W        W97390   4.307  34.627   0.214
32131W        W97391  10.813   9.618   4.094
32132W        W97392   8.282   0.971   4.181
32133W        W97393  35.581   5.680   4.083
32134W        W97394  38.588  21.530  12.414
32135W        W97395   4.500  43.732  13.554
32136W        W97396   6.793  30.047  13.541
32137W        W97397  27.950  35.051  13.879
32138W        W97398  33.834  13.593  12.016
32139W        W97399   2.244  36.354   2.830
32140W        W97400  12.128  13.416   0.220
32141W        W97401   8.123  33.318   2.445
32142W        W97402  16.050  12.279  13.421
32143W        W97403  29.386  14.810  14.007
32144W        W97404  14.212  17.703  14.285
32145W        W97405  27.474  32.628   3.145
32146W        W97406  22.222  43.849  13.874
32147W        W97407   1.472  44.716  14.531
32148W        W97408  36.807  22.313  11.757
32149W        W97409  13.102  20.936  14.063
32150W        W97410   5.754  34.138  14.012
32151W        W97411  16.764  21.171   0.348
32152W        W97412  20.721  42.745   1.895
32153W        W97413   6.097  20.843   0.371
32154W        W97414  28.405   0.754  13.325
32155W        W97415  44.016  37.411  10.743
32156W        W97416  32.132  20.150   3.647
32157W        W97417  19.041  32.974  13.389
32158W        W97418  34.647  37.010   3.664
32159W        W97419  19.486  19.775   2.699
32160W        W97420   4.221  43.960  12.645
32161W        W97421  14.588  12.700   0.884
32162W        W97422   5.663  14.697   4.718
32163W        W97423  23.703  16.926   4.469
32164W        W97424  44.445  30.575   4.499
32165W        W97425   8.412  39.344  10.719
32166W        W97426  27.105  17.521  14.091
32167W        W97427   3.907   0.979  10.831
32168W        W97428  17.567  26.218  13.340
32169W        W97429  25.740  23.164  13.140
32170W        W97430  22.571  41.070  12.600
32171W        W97431   6.235   5.856  10.241
32172W        W97432  26.743  38.408   1.376
32173W        W97433  37.475  35.324   1.515
32174W        W97434  43.371  36.366   1.921
32175W        W97435  34.297  43.250  11.416
32176W        W97436  16.315  44.865   0.526
32177W        W97437  29.201  19.709  13.558
32178W        W97438  14.668  22.486  13.846
32179W        W97439  21.703  40.023   1.741
32180W        W97440  25.084  12.360   3.238
32181W        W97441  36.320   3.985   4.179
32182W        W97442  10.692  43.312   3.930
32183W        W97443  25.296  13.152  14.282
32184W        W97444  37.347  28.874  12.499
32185W        W97445   7.302  35.180  14.436
32186W        W97446  25.709   1.211  14.923
32187W        W97447  27.561  42.466   2.630
32188W        W97448   9.675  11.914   3.280
32189W        W97449  35.859  28.558   4.522
32190W        W97450  17.250  29.922  14.761
32191W        W97451  29.857  20.887   1.461
32192W        W97452  35.009  40.575  11.949
32193W        W97453  29.839  27.005   4.517
32194W        W97454   6.392  17.124   3.806
32195W        W97455   3.922  35.519   3.743
32196W        W97456  32.815  14.486   0.422
32197W        W97457  12.536  26.981  14.879
32198W        W97458  19.534  21.239  11.398
32199W        W97459   7.478  34.607  11.583
32200W        W97460   2.735   6.344  11.786
32201W        W97461  37.041  31.461   2.854
32202W        W97462  30.019  41.266  11.645
32203W        W97463  16.264  21.129   2.147
32204W        W97464  21.071   3.955  14.010
32205W        W97465  34.116  33.775  11.070
32206W        W97466  27.733  23.531   0.454
32207W        W97467  23.324  22.532   0.732
32208W        W97468  42.252  19.546  11.112
32209W        W97469  41.303  11.294  10.287
32210W        W97470  35.967  43.227   0.077
32211W        W97471  25.969  16.500   1.261
32212W        W97472  41.571   0.426   0.678
32213W        W97473  44.338   0.994  10.572
32214W        W97474  10.541  41.528  12.517
32215W        W97475   8.536   3.320   0.864
32216W        W97476  39.993   7.342   4.078
32217W        W97477  20.272  33.498  14.419
32218W        W97478  44.700  37.094   4.926
32219W        W97479   8.695  22.353   2.295
32220W        W97480  31.236  41.330  13.982
32221W        W97481   0.536  17.432   1.456
32222W        W97482  33.513   3.759   4.190
32223W        W97483  15.997  16.045   0.947
32224W        W97484  12.945  19.198   4.181
32225W        W97485  24.626  20.989   4.157
32226W        W97486  23.157  25.462  13.095
32227W        W97487  19.287  13.573  13.832
32228W        W97488  32.022   8.328   3.776
32229W        W97489  16.703  17.245   2.910
32230W        W97490  28.590  27.005   5.035
32231W        W97491  36.846  20.124  10.551
32232W        W97492  32.887  42.246   2.724
32233W        W97493  24.175  15.813  14.444
32234W        W97494   3.515  12.289  14.557
32235W        W97495  41.698  38.755  10.162
32236W        W97496   6.742  11.105   4.770
32237W        W97497  39.834  33.955   4.632
32238W        W97498  30.964  32.934   2.668
32239W        W97499  33.128  24.745   3.669
32240W        W97500  31.131   4.450   0.865
32241W        W97501  32.936  10.591   0.744
32242W        W97502  19.229   2.439  14.860
32243W        W97503  36.935  38.448  14.816
32244W        W97504  15.586  24.680   0.837
32245W        W97505  15.291  36.603   0.312
32246W        W97506  36.015  20.606   2.765
32247W        W97507  17.311  20.865  12.997
32248W        W97508   5.205  43.492   2.213
32249W        W97509  19.654  36.160  13.451
32250W        W97510  24.532  19.790  11.155
32251W        W97511  11.590  21.502   3.131
32252W        W97512  33.620  15.270   4.061
32253W        W97513   4.422  21.154   1.818
32254W        W97514  17.185  16.741   2.508
32255W        W97515  41.104   2.853   9.678
32256W        W97516  11.373  15.706  11.665
32257W        W97517  33.884   3.121  13.356
32258W        W97518  20.679  18.448   3.235
32259W        W97519  15.271  24.814  11.666
32260W        W97520  14.502  21.260   5.010
32261W        W97521  21.489  20.748  13.477
32262W        W97522  22.160  22.402  10.780
32263W        W97523  15.349   4.717  10.771
32264W        W97524   8.369  29.841   1.329
32265W        W97525   3.256  44.752   1.337
32266W        W97526  15.630  39.031  12.940
32267W        W97527   2.754  27.066  12.997
32268W        W97528  30.412  26.945  12.129
32269W        W97529   9.244  23.279  12.989
32270W        W97530  27.471  17.283  12.897
32271W        W97531  37.687  38.014   2.644
32272W        W97532  38.318   2.455   1.808
32273W        W97533  31.418  15.173   4.878
32274W        W97534  28.416   7.894   4.402
32275W        W97535  23.606  32.572   4.320
32276W        W97536  12.228   2.792   4.552
32277W        W97537  31.331  24.480   1.742
32278W        W97538  43.555  42.928   4.290
32279W        W97539  19.175  44.586  10.868
32280W        W97540  42.758  19.332  13.598
32281W        W97541  22.765  29.925   2.877
32282W        W97542  14.540  24.663  14.426
32283W        W97543  19.720  37.894  13.689
32284W        W97544  36.776  20.635   0.747
32285W        W97545  26.049  13.499  14.767
32286W        W97546   3.343  24.258  14.457
32287W        W97547   0.928  14.771  13.596
32288W        W97548  39.434  30.032  13.500
32289W        W97549  43.386  21.226  10.942
32290W        W97550  43.431  23.766   1.154
32291W        W97551  18.894  21.301  14.479
32292W        W97552  11.337  17.298   3.703
32293W        W97553  31.072  40.760   2.403
32294W        W97554  21.508  30.085  10.741
32295W        W97555  44.257  36.760   0.826
32296W        W97556  23.260  18.507   0.937
32297W        W97557   2.423  16.714  10.702
32298W        W97558  31.843  13.289  12.684
32299W        W97559   0.571  38.926   0.227
32300W        W97560  25.237   0.453   1.818
32301W        W97561  35.416  21.025   0.386
32302W        W97562  19.285  32.027  13.997
32303W        W97563  34.703   5.368  14.571
32304W        W97564  11.560  40.416  12.849
32305W        W97565  32.230  33.179  13.387
32306W        W97566   8.698  13.619   1.699
32307W        W97567   5.453  35.525  12.213
32308W        W97568  19.169   9.229   4.305
32309W        W97569   9.892  18.147  13.543
32310W        W97570   0.985  35.156  12.022
32311W        W97571   7.014  40.508  11.013
32312W        W97572  28.331  44.270  11.964
32313W        W97573  24.551   9.108   3.341
32314W        W97574  29.470  40.618   1.822
32315W        W97575  14.049  34.876   1.938
32316W        W97576  36.817  11.458  13.841
32317W        W97577  14.093  26.514   1.374
32318W        W97578  37.945  13.345   2.443
32319W        W97579  10.103  37.309   2.218
32320W        W97580  12.241  10.431  14.060
32321W        W97581   3.523   9.071   0.443
32322W        W97582  21.029  28.228   3.789
32323W        W97583  42.545  13.197   1.952
32324W        W97584  37.364  21.245  12.633
32325W        W97585  18.607   7.327   2.459
32326W        W97586   5.822   9.134  14.540
32327W        W97587  40.846   4.216   2.725
32328W        W97588  22.165   9.773   1.773
32329W        W97589  25.597   5.700  12.080
32330W        W97590  25.444  29.001  13.606
32331W        W97591   4.403  43.257  10.860
32332W        W97592  12.132   4.368  12.714
32333W        W97593  13.814  23.820  13.807
32334W        W97594  19.713  15.886   2.767
32335W        W97595  13.951  32.356  14.892
32336W        W97596   9.820   2.489   0.787
32337W        W97597   2.291  11.810   0.908
32338W        W97598  42.300  25.936   0.798
32339W        W97599  40.417  11.900   0.985
32340W        W97600  29.436  15.248   3.650
32341W        W97601   4.953  41.263   2.849
32342W        W97602  24.278  22.745  11.983
32343W        W97603  24.501  34.700  14.481
32344W        W97604   7.376  36.311   0.831
32345W        W97605  13.268   6.050   5.107
32346W        W97606  24.125  38.363   4.933
32347W        W97607   2.336  16.877   1.669
32348W        W97608  18.698   2.210   4.802
32349W        W97609  30.032   9.713  11.474
32350W        W97610   4.449  17.655  13.121
32351W        W97611  12.726  31.700  12.137
32352W        W97612  10.042  12.060   1.023
32353W        W97613  22.843  15.808  12.467
32354W        W97614  19.148  33.884  11.672
32355W        W97615  20.489  23.668   0.330
32356W        W97616   3.386  33.830  12.091
32357W        W97617  14.190   9.936   3.933
32358W        W97618  24.648  33.531  12.025
32359W        W97619  14.717  33.691   2.637
32360W        W97620  13.279  41.083   0.429
32361W        W97621  30.595   4.330  13.142
32362W        W97622  31.786  12.358  13.494
32363W        W97623  17.665   8.536   1.397
32364W        W97624  39.085  21.097   3.741
32365W        W97625  25.783   4.294  10.742
32366W        W97626  14.106  35.278  12.416
32367W        W97627  44.219  34.719   2.319
32368W        W97628  34.244   5.215   4.066
32369W        W97629  36.067  21.779  12.492
32370W        W97630  18.028  20.456  12.153
32371W        W97631  10.659  37.560  14.026
32372W        W97632  23.147  41.036  10.675
32373W        W97633  30.985  16.153  13.100
32374W        W97634  27.707  33.626   0.350
32375W        W97635  42.858   4.837  10.705
32376W        W97636  27.191  42.058   1.195
32377W        W97637  28.177  12.366  11.767
32378W        W97638  18.591  28.167   4.653
32379W        W97639  36.905  44.752   5.689
32380W        W97640   7.611  18.714   1.198
32381W        W97641  42.013  39.684   1.636
32382W        W97642  31.241  44.379  14.598
32383W        W97643  26.387   5.890   2.942
32384W        W97644  13.671   0.827  13.978
32385W        W97645  35.812   0.904   1.307
32386W        W97646  17.625  24.300  10.328
32387W        W97647  27.793  18.926   3.337
32388W        W97648  27.167  25.152  13.700
32389W        W97649  10.410  29.514  12.558
32390W        W97650  17.913  24.556  11.419
32391W        W97651  35.948  21.107   1.014
32392W        W97652  31.813   6.376   0.388
32393W        W97653  25.493  36.089  12.979
32394W        W97654  44.815  18.178  11.628
32395W        W97655  10.481  22.271   3.712
32396W        W97656  30.642  37.624   3.264
32397W        W97657  38.405  34.438  12.931
32398W        W97658  19.423  37.126   2.933
32399W        W97659  25.338  22.046  10.988
32400W        W97660  14.167   0.800  13.463
32401W        W97661   3.932  22.185   1.611
32402W        W97662  18.762   6.678   0.448
32403W        W97663   1.433   5.208  12.136
32404W        W97664  20.999  19.726  11.162
32405W        W97665  44.380  23.993   4.176
32406W        W97666  39.036  35.803   0.388
32407W        W97667   3.945  37.393   3.223
32408W        W97668  33.168  14.653  12.988
32409W        W97669  37.315  34.515  11.121
32410W        W97670  24.398  21.821   3.693
32411W        W97671  14.525  34.189   0.225
32412W        W97672  22.517  33.015  12.878
32413W        W97673  34.631  40.079   3.153
32414W        W97674   6.503  29.094  11.573
32415W        W97675  35.623  20.539  14.509
32416W        W97676  30.847  15.792  11.034
32417W        W97677   5.424  19.551   2.264
32418W        W97678  16.071  17.626   4.315
32419W        W97679  17.019  32.522  13.340
32420W        W97680  31.343  29.656   2.403
32421W        W97681  38.244  41.269  12.054
32422W        W97682  33.172   0.229   4.219
32423W        W97683  27.150  42.364   2.928
32424W        W97684   9.787  26.373  12.639
32425W        W97685  43.330  23.770   3.933
32426W        W97686  15.162  23.314   0.465
32427W        W97687  12.841   0.607   4.420
32428W        W97688  21.455  34.908  13.355
32429W        W97689   0.795  36.806  13.076
32430W        W97690  35.060  44.942   4.419
32431W        W97691  32.453  28.097  14.474
32432W        W97692  30.175  42.790  13.417
32433W        W97693  38.841  27.474   1.173
32434W        W97694   9.838  29.792   2.792
32435W        W97695  33.628  33.771   1.170
32436W        W97696  42.442  21.672   0.901
32437W        W97697   5.089  35.862  12.952
32438W        W97698  27.767  28.181  12.929
32439W        W97699  10.435  20.018   0.292
32440W        W97700  21.232   5.714  11.608
32441W        W97701   2.321  11.703  10.157
32442W        W97702  32.492  14.623  10.747
32443W        W97703   2.004   6.697   0.426
32444W        W97704  34.983  12.377  11.115
32445W        W97705  19.649  39.329  11.177
32446W        W97706  38.807   1.823   5.709
32447W        W97707   4.033  42.985  13.914
32448W        W97708   5.499   7.669   2.694
32449W        W97709  27.417   5.465  14.070
32450W        W97710  39.363  27.526  13.965
32451W        W97711  25.098  32.186   2.379
32452W        W97712  19.127  11.048  11.616
32453W        W97713  25.160  27.202  12.915
32454W        W97714  44.633  18.797   2.395
32455W        W97715  19.354  14.137  11.668
32456W        W97716  38.941  16.496   3.667
32457W        W97717  36.969  38.868  13.139
32458W        W97718   8.408  31.621   3.113
32459W        W97719  37.893  27.970  13.737
32460W        W97720  21.549   0.832  12.963
32461W        W97721  15.768  40.285   2.156
32462W        W97722  19.966  24.191   2.208
32463W        W97723  14.584  10.172  12.828
32464W        W97724  39.055   7.608   3.662
32465W        W97725   0.729  32.504   1.310
32466W        W97726  25.967  30.428   1.792
32467W        W97727  19.240  14.432  14.897
32468W        W97728  42.059  42.370  14.602
32469W        W97729   1.170  38.360  12.175
32470W        W97730  22.866  28.131  12.994
32471W        W97731  27.670  40.784   4.503
32472W        W97732   0.657  42.042  14.972
32473W        W97733  40.504  42.231   0.031
32474W        W97734   4.007  33.623   0.926
32475W        W97735  20.777  17.652  13.852
32476W        W97736  27.979   4.776   4.565
32477W        W97737  12.760   1.274  12.036
32478W        W97738   9.662  26.169   0.941
32479W        W97739   9.969  42.918  11.598
32480W        W97740  18.587   3.312   2.246
32481W        W97741  16.840   6.733   1.768
32482W        W97742  42.950  23.507  12.705
32483W        W97743   2.808  29.982   1.084
32484W        W97744   2.034  18.638  10.830
32485W        W97745   1.694  10.040   4.498
32486W        W97746  17.276   0.247   2.681
32487W        W97747  31.947   4.183  11.934
32488W        W97748  32.130  18.250  12.444
32489W        W97749  18.877  22.257   0.437
32490W        W97750  37.904  22.996   2.265
32491W        W97751  29.054  16.174   3.908
32492W        W97752  23.667   0.832  13.363
32493W        W97753   7.787  44.099   4.172
32494W        W97754   9.669  14.132  14.972
32495W        W97755  40.976  21.975   3.371
32496W        W97756  16.875  17.717   4.152
32497W        W97757  19.555  27.471  14.025
32498W        W97758  19.370  14.152   1.774
32499W        W97759  15.214   6.697   3.559
32500W        W97760  21.041  38.391   3.600
32501W        W97761  39.793  30.437  10.938
32502W        W97762   2.209  44.712  11.588
32503W        W97763  11.293  32.597  12.856
32504W        W97764  20.741  20.722  14.554
32505W        W97765  16.320  24.190  12.469
32506W        W97766  34.096   4.343   4.538
32507W        W97767  19.621   3.713  11.953
32508W        W97768  31.427   4.978  11.954
32509W        W97769  20.177   8.980   1.119
32510W        W97770  38.052   1.718  14.413
32511W        W97771   5.142  20.611   4.445
32512W        W97772  32.097  41.400   1.474
32513W        W97773  44.662   5.272  11.644
32514W        W97774  43.023  26.645   4.849
32515W        W97775  29.673  41.429   3.333
32516W        W97776  44.114  23.089   2.312
32517W        W97777   2.805  34.192   4.521
32518W        W97778  24.520   2.205  14.967
32519W        W97779  33.192  27.872   1.109
32520W        W97780  11.542  16.691  10.157
32521W        W97781  36.370  17.100  12.364
32522W        W97782  32.551  38.860   4.145
32523W        W97783  20.673  15.129  11.036
32524W        W97784  23.901  35.945  13.743
32525W        W97785   0.557  43.337   4.893
32526W        W97786  24.184  16.707   0.942
32527W        W97787   5.395  36.139  13.319
32528W        W97788  32.060  41.536  13.066
32529W        W97789  24.891  32.191  12.908
32530W        W97790  13.262  21.353   3.613
32531W        W97791   3.284  16.338  14.427
32532W        W97792  19.180  41.671   5.068
32533W        W97793   9.959  25.140   5.290
32534W        W97794  26.658  23.976  10.567
32535W        W97795   2.486  22.671   4.239
32536W        W97796  26.546  35.766  14.734
32537W        W97797  18.332  42.830  12.480
32538W        W97798  31.829  33.214   4.107
32539W        W97799   8.155  22.753   2.743
32540W        W97800  35.152  27.958   1.650
32541W        W97801   5.334  26.804  11.111
32542W        W97802  44.679   7.458  14.799
32543W        W97803  38.430  39.049   3.137
32544W        W97804  40.875   2.214   3.710
32545W        W97805  11.332   9.724   0.858
32546W        W97806  37.632  42.745   1.872
32547W        W97807  40.648  40.610   0.831
32548W        W97808  15.040   4.977  11.084
32549W        W97809   5.175   8.574  13.069
32550W        W97810  39.517  28.146  12.185
32551W        W97811  42.406   4.013  11.268
32552W        W97812   8.444  23.995   0.013
32553W        W97813  43.800  22.577  12.813
32554W        W97814  42.874   4.730   0.097
32555W        W97815  23.784  24.215   2.111
32556W        W97816  15.198  11.609   3.250
32557W        W97817  14.411  11.015   9.694
32558W        W97818  34.806  16.233   2.128
32559W        W97819  17.259   8.942  11.621
32560W        W97820  36.283  28.082  12.786
32561W        W97821  16.073  41.092  10.580
32562W        W97822   3.987   1.416   0.747
32563W        W97823   1.059  15.186  13.292
32564W        W97824  22.559  26.795   4.999
32565W        W97825  21.964  24.373  11.644
32566W        W97826  10.376  28.559  12.440
32567W        W97827  32.258  16.262  14.558
32568W        W97828  41.354  26.613   3.642
32569W        W97829  12.283  15.544  14.796
32570W        W97830  15.643  17.787  14.921
32571W        W97831  31.151  34.993   4.492
32572W        W97832  32.621  26.943   3.578
32573W        W97833   9.359  28.321  14.781
32574W        W97834  16.329  11.248  13.357
32575W        W97835  41.496  13.810   0.049
32576W        W97836  32.984  18.665  10.774
32577W        W97837  27.667  41.471   1.156
32578W        W97838   0.291  11.812  13.605
32579W        W97839  30.607   9.141   4.055
32580W        W97840  42.527  36.625   4.688
32581W        W97841  35.906   5.701   2.268
32582W        W97842  20.541  19.053   3.209
32583W        W97843  17.511   1.816  13.019
32584W        W97844  22.241   2.746  12.479
32585W        W97845  38.042  18.386   3.156
32586W        W97846  25.425  10.130   2.589
32587W        W97847  23.026  19.576  11.170
32588W        W97848  19.750  17.905   3.262
32589W        W97849  12.387  30.179   4.227
32590W        W97850  35.031  14.673  14.486
32591W        W97851  31.549  39.789   2.141
32592W        W97852  25.666   8.092   1.881
32593W        W97853  26.586  25.995   4.374
32594W        W97854  23.001  36.858   1.737
32595W        W97855  36.030   8.328  11.401
32596W        W97856  26.447  11.835   2.213
32597W        W97857  42.969  34.474   4.408
32598W        W97858  29.054  38.436  13.871
32599W        W97859  35.547   4.170  14.230
32600W        W97860  34.990  11.845  12.283
32601W        W97861  28.581  29.573   1.364
32602W        W97862  43.230  38.465   2.938
32603W        W97863  23.007   6.428   3.199
32604W        W97864   7.409  17.610   3.762
32605W        W97865  10.828  34.965  11.239
32606W        W97866   4.551  10.045   4.943
32607W        W97867  38.972  17.742   3.136
32608W        W97868  12.800  36.800  14.830
32609W        W97869  16.333  34.380  12.614
32610W        W97870  12.375  38.720  11.071
32611W        W97871  11.601  24.179   4.872
32612W        W97872  22.652  32.059   4.617
32613W        W97873  14.619  42.699   0.379
32614W        W97874  37.665  28.097  14.831
32615W        W97875  42.521  43.792   4.114
32616W        W97876  17.315  13.839   1.327
32617W        W97877   3.132   3.897  11.353
32618W        W97878  41.380   7.755  13.492
32619W        W97879  12.139  32.141   0.684
32620W        W97880  31.460  24.717  11.561
32621W        W97881  26.990  39.896  11.354
32622W        W97882  34.616  29.317   2.413
32623W        W97883  28.561   8.056  10.840
32624W        W97884   6.107  42.530   0.673
32625W        W97885  36.398  23.548   4.137
32626W        W97886  40.451  33.526  14.264
32627W        W97887  22.829  43.463  14.929
32628W        W97888  14.234  22.556  10.699
32629W        W97889  32.527  32.852  13.107
32630W        W97890   5.209  41.412  12.084
32631W        W97891  39.333  35.118  14.801
32632W        W97892   5.881  11.214  14.462
32633W        W97893  16.537  14.622   2.641
32634W        W97894   0.417  34.594   0.988
32635W        W97895  23.286  30.934  12.008
32636W        W97896   0.831  27.340  13.207
32637W        W97897  41.046  33.360  12.102
32638W        W97898  11.998  44.799  12.763
32639W        W97899  40.597  40.243   1.791
32640W        W97900  21.727  40.499   3.702
32641W        W97901   8.681  27.856   1.944
32642W        W97902   9.608   2.705   4.013
32643W        W97903   2.212  21.079   0.408
32644W        W97904   3.625  28.254   2.731
32645W        W97905   3.912  26.996  11.121
32646W        W97906  21.953  31.530   4.202
32647W        W97907  34.911  36.413  11.065
32648W        W97908  10.329  15.696   3.660
32649W        W97909  33.624   6.277   3.092
32650W        W97910  24.592  34.418   0.530
32651W        W97911  44.129  13.278   3.571
32652W        W97912  14.775  20.073  14.092
32653W        W97913  16.498  35.314  12.629
32654W        W97914  18.415   0.463  12.704
32655W        W97915  13.024  30.392  11.921
32656W        W97916  38.021   6.690   3.706
32657W        W97917  27.698  11.777  11.155
32658W        W97918  25.512  36.463  14.516
32659W        W97919  35.406  14.804   2.874
32660W        W97920   1.208   5.756   2.887
32661W        W97921   3.284  13.763  12.092
32662W        W97922  31.665  22.019   0.894
32663W        W97923  14.411  30.539  12.161
32664W        W97924  30.794  28.604  11.608
32665W        W97925  32.275  43.879  11.148
32666W        W97926  15.633  37.356  14.215
32667W        W97927   4.439  26.950   1.215
32668W        W97928   5.623  12.060  12.985
32669W        W97929  41.079  42.799  10.776
32670W        W97930  22.053  12.393   3.775
32671W        W97931   8.724  21.493  10.678
32672W        W97932  10.953  16.050   2.328
32673W        W97933  25.294  16.132   3.699
32674W        W97934  20.608  30.801  11.168
32675W        W97935  28.333  17.438   1.332
32676W        W97936   5.446  31.486  10.563
32677W        W97937  12.298   8.909   1.376
32678W        W97938  44.649   5.609  10.700
32679W        W97939  26.675  22.600  12.055
32680W        W97940  26.593  31.614   2.272
32681W        W97941  34.517   1.900  13.041
32682W        W97942  10.800   2.485  10.576
32683W        W97943  41.750  37.151  11.090
32684W        W97944   2.885  17.135   3.382
32685W        W97945  25.434  13.967   5.104
32686W        W97946  13.352  16.366   0.002
32687W        W97947  18.014  15.310  10.687
32688W        W97948  20.901  42.025  11.960
32689W        W97949  42.918  13.706  14.415
32690W        W97950   0.363  35.411  13.976
32691W        W97951  35.896  12.582   3.796
32692W        W97952  19.018  23.205   0.831
32693W        W97953   6.426  30.811  12.478
32694W        W97954  40.802   4.630  10.332
32695W        W97955  17.014  39.160   2.307
32696W        W97956  42.724  10.216   4.390
32697W        W97957  14.531  32.929  14.288
32698W        W97958  17.847  40.858  12.507
32699W        W97959  41.566   4.773  12.069
32700W        W97960   2.943  33.537  13.400
32701W        W97961  20.037   4.417   3.307
32702W        W97962  13.608  40.040  12.590
32703W        W97963  39.277   1.999   3.091
32704W        W97964   5.470  36.428  10.718
32705W        W97965   3.889   0.882   1.749
32706W        W97966  17.089  32.248  13.850
32707W        W97967  37.546  32.425   1.261
32708W        W97968  40.970  39.094   4.322
32709W        W97969   1.361  28.587   2.013
32710W        W97970  14.800  17.341   2.321
32711W        W97971  35.102  39.342   0.851
32712W        W97972  44.267  27.212  14.009
32713W        W97973  16.974  41.003   4.504
32714W        W97974   9.406  37.584  14.903
32715W        W97975  18.371  16.326  14.929
32716W        W97976  25.663  18.756   2.636
32717W        W97977  39.344  22.770   3.822
32718W        W97978  24.131  40.618   3.149
32719W        W97979  36.604  24.633   4.857
32720W        W97980  35.249  17.992   0.231
32721W        W97981  21.546  20.599  10.122
32722W        W97982  13.747  39.749  10.578
32723W        W97983  13.233  13.229   2.842
32724W        W97984  40.328  32.529  14.082
32725W        W97985  31.045  33.059  12.858
32726W        W97986  38.764  31.604   4.458
32727W        W97987   6.608  11.268  12.414
32728W        W97988  38.591   5.130  11.516
32729W        W97989  22.601   7.675   2.890
32730W        W97990  28.920  37.963   2.718
32731W        W97991  17.509  11.327  14.020
32732W        W97992   6.379  28.080  11.593
32733W        W97993   6.787  21.061  11.258
32734W        W97994  11.307  32.383   1.907
32735W        W97995  33.539   1.824   5.137
32736W        W97996  43.531  10.203   5.372
32737W        W97997  23.078  35.242   2.734
32738W        W97998  25.546  15.648  14.492
32739W        W97999   1.936  27.713   3.868
32740W        W98000  23.788   6.006   4.105
32741W        W98001  33.291   4.290   3.176
32742W        W98002  34.456  25.626  14.937
32743W        W98003  20.822  11.776  12.765
32744W        W98004   6.170  11.465  12.192
32745W        W98005   0.730  10.696   0.252
32746W        W98006  29.047  39.455  14.192
32747W        W98007  13.047  33.496   2.906
32748W        W98008  40.468  14.629   4.623
32749W        W98009  16.193  25.112   3.689
32750W        W98010   6.310   1.721   2.807
32751W        W98011  37.855  22.190   1.882
32752W        W98012   7.664  23.992  14.386
32753W        W98013  14.794  42.765   1.286
32754W        W98014  43.756  32.221   2.374
32755W        W98015  40.815  39.396   0.419
32756W        W98016  17.010  37.520  14.408
32757W        W98017  30.505  21.976   3.582
32758W        W98018   1.267  25.599  12.613
32759W        W98019  13.338   5.355  14.788
32760W        W98020  23.443  22.044   1.482
32761W        W98021  27.672  38.471  14.117
32762W        W98022  24.332  35.068   3.075
32763W        W98023   6.521  11.698   4.584
32764W        W98024  24.007  31.531  13.195
32765W        W98025  35.635  27.565  14.212
32766W        W98026   5.504  27.011   5.564
32767W        W98027  13.322  35.858  13.463
32768W        W98028  34.506  34.482  14.505
32769W        W98029   5.763  10.963   1.965
32770W        W98030  17.558  26.353   1.197
32771W        W98031  41.737  21.071   2.918
32772W        W98032  40.786  11.289  13.295
32773W        W98033  37.607  42.800  12.928
32774W        W98034  35.408  16.156  14.313
32775W        W98035  14.760   7.171   3.255
32776W        W98036  32.603  18.276  12.172
32777W        W98037  25.184  31.099  12.065
32778W        W98038  38.567  18.951   2.581
32779W        W98039  20.141  36.890  13.178
32780W        W98040  44.927  36.019  10.655
32781W        W98041  29.082  14.269   0.914
32782W        W98042   0.411  41.596  14.754
32783W        W98043  40.437  26.389  10.190
32784W        W98044   7.651  18.416  12.117
32785W        W98045   8.175  28.519  11.147
32786W        W98046  44.729  44.830  10.368
32787W        W98047  34.958  35.385   2.623
32788W        W98048  11.718   7.330   2.215
32789W        W98049  11.855  26.079   5.355
32790W        W98050  31.506  24.528   0.005
32791W        W98051  29.373  25.814  11.579
32792W        W98052  14.554   4.823  11.088
32793W        W98053  12.829  32.403  14.365
32794W        W98054  27.345   1.988  14.780
32795W        W98055   1.170  43.356  11.556
32796W        W98056   8.202   1.947  13.828
32797W        W98057  16.756   3.622  12.915
32798W        W98058   9.971  42.817   0.720
32799W        W98059   1.139  18.770   4.116
32800W        W98060  11.199  32.351   4.971
32801W        W98061  33.634  35.360  11.620
32802W        W98062  25.581  10.158  13.471
32803W        W98063  28.430  39.864   3.052
32804W        W98064  31.892  40.077  10.753
32805W        W98065   8.706  19.814   2.688
32806W        W98066  31.987  30.395  14.892
32807W        W98067  41.085  21.275   2.701
32808W        W98068  12.845  25.799  11.628
32809W        W98069  44.004   4.640   0.167
32810W        W98070   5.716  37.476  11.627
32811W        W98071  26.751   5.782  14.415
32812W        W98072  10.221  35.946  14.175
32813W        W98073   1.787  34.492  13.499
32814W        W98074   5.674  12.134  13.905
32815W        W98075  28.051  29.949   3.183
32816W        W98076  42.377   3.811   1.670
32817W        W98077  43.769  34.016  12.003
32818W        W98078   0.475  31.933  14.044
32819W        W98079  12.280  40.283   3.672
32820W        W98080  44.817  21.513  14.718
32821W        W98081  18.211  37.683   2.025
32822W        W98082   1.907  36.276   3.286
32823W        W98083  32.443   2.821  12.103
32824W        W98084   5.281  41.335  12.610
32825W        W98085  42.394  18.750  13.047
32826W        W98086  29.224  33.019   3.692
32827W        W98087  19.149  41.754  14.943
32828W        W98088  18.637  17.987   4.108
32829W        W98089  36.999  31.614  12.008
32830W        W98090  15.063  13.202   2.525
32831W        W98091   7.580  34.774   2.372
32832W        W98092  15.567   8.431   3.046
32833W        W98093  12.648  43.692  14.092
32834W        W98094  25.052  34.067   4.394
32835W        W98095  34.504  16.128   1.223
32836W        W98096  37.082  12.752   4.157
32837W        W98097  15.222  13.929   1.389
32838W        W98098  19.757  17.215  14.811
32839W        W98099  12.024  37.386   4.281
32840W        W98100  33.876  14.429   3.954
32841W        W98101   8.233  43.311   4.867
32842W        W98102  36.487  34.355  12.337
32843W        W98103  32.556  35.491  12.886
32844W        W98104  18.287  42.483  12.099
32845W        W98105   6.379  29.683   3.227
32846W        W98106  26.660  12.689  14.020
32847W        W98107  18.600  30.108  14.178
32848W        W98108  12.040  36.799  10.709
32849W        W98109  40.325  15.767   3.287
32850W        W98110  11.291  24.405  11.663
32851W        W98111  27.229  22.111  12.337
32852W        W98112  21.167  28.877  10.160
32853W        W98113   3.575  11.271   1.934
32854W        W98114  35.923  35.395  13.596
32855W        W98115   8.734  37.369  11.344
32856W        W98116  36.280  28.705  11.089
32857W        W98117   7.707   7.955  12.484
32858W        W98118   7.881   6.872  12.473
32859W        W98119  13.201  26.953   0.858
32860W        W98120  22.048  29.484   0.754
32861W        W98121  42.842  22.679   3.317
32862W        W98122  41.095  27.097   4.151
32863W        W98123   9.295  27.582  11.252
32864W        W98124  26.434  26.050   3.839
32865W        W98125  12.410  22.039  14.507
32866W        W98126  20.253  25.283   0.717
32867W        W98127   4.588  15.731   4.228
32868W        W98128  25.631  41.763  12.086
32869W        W98129  17.019  41.959   0.902
32870W        W98130  24.574  38.510   0.994
32871W        W98131   0.229  16.292  13.968
32872W        W98132   1.128  38.308   1.249
32873W        W98133  35.317  14.659  12.079
32874W        W98134  23.023  31.415  12.974
32875W        W98135   8.804  16.022  13.011
32876W        W98136  30.375  24.688   2.678
32877W        W98137  25.512  13.149   1.930
32878W        W98138  23.158  17.465  10.306
32879W        W98139  12.093  43.843  14.570
32880W        W98140   8.733  42.317  11.704
32881W        W98141  17.123  31.593  14.732
32882W        W98142  11.369  31.056   0.979
32883W        W98143  38.060  38.960   3.516
32884W        W98144  44.705  32.390  14.741
32885W        W98145  17.629  28.684  13.095
32886W        W98146  39.368   9.054   5.059
32887W        W98147  42.566  31.921  10.839
32888W        W98148   9.436   3.434   4.114
32889W        W98149  36.967  44.203   1.862
32890W        W98150  43.425  40.746  13.439
32891W        W98151  24.709  20.281  13.405
32892W        W98152  33.806  39.246  10.505
32893W        W98153  15.131  11.558   0.262
32894W        W98154  29.902  43.910  10.734
32895W        W98155  27.449  37.102   3.786
32896W        W98156   3.520  25.631   2.889
32897W        W98157   5.005  17.663  11.877
32898W        W98158  34.889   3.869   0.395
32899W        W98159  22.211  15.646  11.672
32900W        W98160  23.247  44.353  13.541
32901W        W98161  39.228   7.068   4.010
32902W        W98162  19.802  10.789  12.910
32903W        W98163  22.469  22.512  12.553
32904W        W98164  11.387  40.598   4.175
32905W        W98165   8.081  18.102   2.671
32906W        W98166  29.069  41.847   2.925
32907W        W98167  43.278  26.405   0.862
32908W        W98168   5.734   3.175   5.100
32909W        W98169   2.707  16.643   2.727
32910W        W98170  37.366  17.197  13.047
32911W        W98171  11.583  19.266   2.454
32912W        W98172   8.256   5.223  13.168
32913W        W98173   7.971  25.518   0.297
32914W        W98174  32.972   2.424  12.869
32915W        W98175   7.690  33.416   1.426
32916W        W98176  38.725  21.993  14.510
32917W        W98177  20.881  29.168  11.572
32918W        W98178  31.948   1.363  10.899
32919W        W98179  28.881  42.138  12.535
32920W        W98180  32.496  36.339   2.173
32921W        W98181   1.758  33.930   2.710
32922W        W98182  36.651  11.329  11.989
32923W        W98183  39.211  29.467  11.139
32924W        W98184  18.197  26.115  14.975
32925W        W98185  44.093  39.930  12.772
32926W        W98186  42.405  24.195  10.576
32927W        W98187  32.606  44.185   2.152
32928W        W98188  34.354  38.429  12.866
32929W        W98189  23.164  38.324   1.225
32930W        W98190  27.117   3.382   1.390
32931W        W98191   8.480  39.961   2.697
32932W        W98192   1.602  11.884  14.341
32933W        W98193  30.347  16.222   3.241
32934W        W98194   3.463   7.178  11.591
32935W        W98195   8.787  43.927   1.242
32936W        W98196  24.650  16.362   3.689
32937W        W98197   7.293  26.485   0.873
32938W        W98198  32.148   9.289   1.853
32939W        W98199  21.189  35.898  11.979
32940W        W98200  26.926  29.634   0.579
32941W        W98201  33.099  21.987  12.664
32942W        W98202  28.014  20.839   1.434
32943W        W98203  41.922  24.374   3.783
32944W        W98204  26.424  41.384   2.345
32945W        W98205  29.384   8.849   5.006
32946W        W98206   9.179   0.408  14.960
32947W        W98207  30.962  29.115  14.433
32948W        W98208  34.110  36.583   1.291
32949W        W98209   8.235  29.491   3.727
32950W        W98210  37.371   6.591   4.228
32951W        W98211  37.789  36.452   4.046
32952W        W98212   8.733   5.404  13.377
32953W        W98213  17.814  36.889  12.144
32954W        W98214  42.017  10.185   2.649
32955W        W98215  10.588   5.470   4.938
32956W        W98216  33.552  36.919  13.064
32957W        W98217   8.188  33.115  10.773
32958W        W98218  21.246   1.522   2.118
32959W        W98219  37.303  11.291   0.458
32960W        W98220   6.179  30.927   3.091
32961W        W98221  16.376  32.400  11.559
32962W        W98222  32.828  18.522  13.019
32963W        W98223  32.056  26.689   4.590
32964W        W98224  44.976  21.802   2.775
32965W        W98225  11.375  16.326   1.836
32966W        W98226  20.773  15.664   3.020
32967W        W98227   5.668   6.116  11.551
32968W        W98228  34.042  19.897   4.104
32969W        W98229   3.848  23.456   4.233
32970W        W98230  25.528   2.815   5.126
32971W        W98231  16.084  27.020  13.122
32972W        W98232  12.215  14.740   0.396
32973W        W98233  12.223  29.411  13.340
32974W        W98234  41.865  19.566   2.617
32975W        W98235   2.482  21.503   0.645
32976W        W98236   5.464  32.642   1.335
32977W        W98237   9.428   1.658   4.041
32978W        W98238  13.062  19.540   1.852
32979W        W98239  21.269  35.340   0.847
32980W        W98240  22.798  43.595   3.666
32981W        W98241  44.315  40.419   2.219
32982W        W98242  20.268  41.318   2.694
32983W        W98243   0.314  27.532  13.327
32984W        W98244  37.918  16.772   3.112
32985W        W98245   7.873   4.433   4.586
32986W        W98246   5.896  10.117  12.993
32987W        W98247   4.599  36.134   4.107
32988W        W98248   6.729  30.413  12.413
32989W        W98249  39.607  29.264  11.855
32990W        W98250  28.736  40.482   3.795
32991W        W98251   1.399   9.989  13.132
32992W        W98252  30.423  44.823  14.480
32993W        W98253  23.914  40.459   1.366
32994W        W98254  24.324  40.356   0.437
32995W        W98255  17.030   5.169   0.285
32996W        W98256  16.563  40.646  12.926
32997W        W98257   7.611  28.175   1.848
32998W        W98258  33.047  20.214   4.152
32999W        W98259  30.102  44.134   0.371
33000W        W98260  26.117  37.385   3.532
33001W        W98261  18.269  30.848  12.151
33002W        W98262  25.547  16.717  11.540
33003W        W98263  39.101  17.647  14.757
33004W        W98264   1.114  41.706   2.312
33005W        W98265  35.201   2.805   4.647
33006W        W98266   9.675  40.486   1.513
33007W        W98267  26.716   2.393   4.458
33008W        W98268  21.997  10.793  11.008
33009W        W98269  22.467  14.639  12.258
33010W        W98270  34.527  17.692   1.978
33011W        W98271  31.939  32.211  13.474
33012W        W98272  34.918   2.973   3.204
33013W        W98273  40.239  25.483   1.742
33014W        W98274  33.527  18.972  14.138
33015W        W98275  30.541  33.489  13.300
33016W        W98276  17.800  11.643   2.227
33017W        W98277   0.424  20.170  13.957
33018W        W98278  15.129  33.580  11.182
33019W        W98279  16.012  12.709  12.594
33020W        W98280  21.075  20.976   1.851
33021W        W98281  20.604  39.871  13.481
33022W        W98282  29.312   6.425  13.587
33023W        W98283  39.796  20.830  11.597
33024W        W98284  35.386  18.260  12.113
33025W        W98285  38.452  25.646  14.049
33026W        W98286   9.213   5.396  13.912
33027W        W98287   9.297   1.993   5.034
33028W        W98288  36.511  19.698  14.993
33029W        W98289  43.559  13.592   0.818
33030W        W98290   2.692  19.985  11.436
33031W        W98291  25.648  32.869  14.788
33032W        W98292  44.720  14.529   0.064
33033W        W98293  22.670  20.199   4.082
33034W        W98294   5.843  12.364  14.436
33035W        W98295  35.620  23.502  13.050
33036W        W98296  43.901  25.136  13.449
33037W        W98297   5.516  14.303  11.613
33038W        W98298   5.242   0.278  12.608
33039W        W98299  20.487  11.133  10.653
33040W        W98300  33.999  31.449  11.348
33041W        W98301   2.074  27.133  14.469
33042W        W98302   4.622  18.284   0.456
33043W        W98303  31.415   1.969  11.556
33044W        W98304  44.287  29.389   2.315
33045W        W98305  44.222  24.301  12.951
33046W        W98306  30.084  11.665  12.002
33047W        W98307  11.917  17.438   0.373
33048W        W98308  12.424  25.068   1.325
33049W        W98309  39.677  23.607   3.217
33050W        W98310  20.665  24.542   3.128
33051W        W98311  38.388  17.071   3.831
33052W        W98312  17.815   3.089  14.834
33053W        W98313  20.437  18.258  13.153
33054W        W98314  42.803  31.954  14.412
33055W        W98315  12.082  36.892   4.140
33056W        W98316  11.825  30.807   4.548
33057W        W98317  40.300  20.965  14.413
33058W        W98318   2.739  11.586  10.494
33059W        W98319  26.045  31.639  12.868
33060W        W98320  34.409  41.472   4.613
33061W        W98321  21.952  22.448  12.591
33062W        W98322  39.922  43.770  12.575
33063W        W98323  33.916  16.585  13.868
33064W        W98324  28.124   8.213  13.841
33065W        W98325  38.977  31.215  14.727
33066W        W98326  10.662  44.775  10.780
33067W        W98327   3.144  43.805   4.910
33068W        W98328  16.681  36.336   3.792
33069W        W98329   3.700  12.089   4.413
33070W        W98330   1.299   6.585  10.446
33071W        W98331  42.271  15.278  14.768
33072W        W98332  15.222   5.189   3.873
33073W        W98333  10.104   5.223   1.366
33074W        W98334  34.309  12.596   3.269
33075W        W98335  17.093  35.843  12.195
33076W        W98336  11.300   3.510   2.012
33077W        W98337  26.073  37.375  11.118
33078W        W98338  24.864  21.117   2.158
33079W        W98339   1.506  37.555  14.080
33080W        W98340  10.018  29.256  13.880
33081W        W98341   5.486  17.272  11.561
33082W        W98342  12.886  14.901  14.814
33083W        W98343  18.078  44.696  10.596
33084W        W98344  12.312  35.168  14.514
33085W        W98345  24.113  12.575  10.202
33086W        W98346  31.111   7.217   0.659
33087W        W98347  21.196   9.010   0.741
33088W        W98348   2.676  38.395   2.385
33089W        W98349  14.653  30.454   5.153
33090W        W98350  11.085  40.986  10.673
33091W        W98351  33.099  38.800  12.491
33092W        W98352  20.129  20.474  11.328
33093W        W98353   4.714  39.717  10.436
33094W        W98354  39.051  11.677   3.175
33095W        W98355  19.500  36.146  11.175
33096W        W98356  22.695  10.341  11.973
33097W        W98357   3.770  26.187  12.192
33098W        W98358  23.619   6.508   0.424
33099W        W98359  29.170   9.449  14.852
33100W        W98360  44.839  23.198   2.775
33101W        W98361   6.028  37.923   2.310
33102W        W98362   7.987  12.042  14.400
33103W        W98363  22.422  19.810   3.465
33104W        W98364   9.680  25.994  13.878
33105W        W98365  38.090  18.726  11.633
33106W        W98366  14.647  37.581   1.880
33107W        W98367   3.013   2.576   2.285
33108W        W98368  36.903   9.767  12.574
33109W        W98369  15.079  28.237   3.676
33110W        W98370  38.267  31.587  11.652
33111W        W98371  26.110   6.354  12.642
33112W        W98372  33.187  11.517   0.847
33113W        W98373   3.171  22.308  12.523
33114W        W98374  44.311  32.044  11.645
33115W        W98375  40.584  19.209   1.015
33116W        W98376  34.129  34.412  12.563
33117W        W98377   0.020  18.130   1.944
33118W        W98378   5.737  42.950   4.604
33119W        W98379  37.481  39.774  13.594
33120W        W98380  42.522  43.465   1.034
33121W        W98381  24.741  10.895  12.637
33122W        W98382  20.718   2.361   2.724
33123W        W98383  20.608  19.369   9.678
33124W        W98384  31.840  37.164   4.349
33125W        W98385  21.562  10.884  10.709
33126W        W98386   7.427   2.195   3.498
33127W        W98387   5.487  41.323   2.826
33128W        W98388  17.777   0.261   3.923
33129W        W98389   0.611  27.078   0.639
33130W        W98390   4.110  25.103  14.973
33131W        W98391   8.137  30.727  12.368
33132W        W98392  28.201  31.179  11.205
33133W        W98393  43.548  24.576  13.417
33134W        W98394  13.208  44.581  14.050
33135W        W98395   3.216  35.483   3.220
33136W        W98396  20.764  29.966   0.715
33137W        W98397  27.984   7.332   2.142
33138W        W98398  39.582  43.993  12.888
33139W        W98399   8.695   6.999   4.062
33140W        W98400  16.803  30.696  12.359
33141W        W98401  26.951  29.898  14.251
33142W        W98402   1.345  18.655  13.404
33143W        W98403  20.708  38.421   9.793
33144W        W98404  26.017  39.319   3.779
33145W        W98405   9.644   5.504   4.470
33146W        W98406  14.560  30.590  15.000
33147W        W98407  14.729  31.919  10.364
33148W        W98408  40.523  26.638   3.426
33149W        W98409   8.934  22.530   4.547
33150W        W98410   6.876   8.170  13.867
33151W        W98411   8.947   9.803  14.331
33152W        W98412  43.471  14.885   2.912
33153W        W98413  10.165  42.485  10.850
33154W        W98414  18.082   0.251   3.091
33155W        W98415  14.629  27.401   4.635
33156W        W98416  33.562  18.956   4.640
33157W        W98417  15.847  42.004   0.259
33158W        W98418  30.357  24.086   2.367
33159W        W98419  11.701  24.948  12.013
33160W        W98420  38.746   9.240   4.554
33161W        W98421  11.656   4.214   3.845
33162W        W98422   2.896  15.315  13.168
33163W        W98423   7.965  35.618  14.862
33164W        W98424  11.703  31.580  12.975
33165W        W98425  36.758  24.154   4.840
33166W        W98426   3.962  10.416  13.066
33167W        W98427   8.443  31.952  13.143
33168W        W98428  35.090   8.740   2.387
33169W        W98429  38.089  24.323  10.741
33170W        W98430  35.967   9.761   1.919
33171W        W98431  10.892  16.186  11.148
33172W        W98432  24.373   3.940   0.423
33173W        W98433  18.062   5.756   0.407
33174W        W98434  26.942   4.784   4.297
33175W        W98435  23.522  32.118   5.335
33176W        W98436  20.711  44.529   2.852
33177W        W98437  35.960  13.205   4.357
33178W        W98438   6.346  16.275  14.966
33179W        W98439   4.692   1.065   5.073
33180W        W98440   2.733  16.928   0.352
33181W        W98441  32.276  22.128  11.183
33182W        W98442   5.129   4.873   4.786
33183W        W98443  44.229  33.533  13.592
33184W        W98444  40.574  24.275  12.934
33185W        W98445  40.316  23.396  10.958
33186W        W98446  16.302  22.033  11.047
33187W        W98447  26.673  21.267  14.903
33188W        W98448  40.812  16.690  14.539
33189W        W98449  24.509  24.502  11.469
33190W        W98450  35.177   8.644   3.329
33191W        W98451   2.367  23.418   0.345
33192W        W98452  43.008  17.756   3.466
33193W        W98453   1.984  31.383   1.842
33194W        W98454  27.292  37.374  13.974
33195W        W98455  10.142  42.293  14.962
33196W        W98456  14.669   6.162  12.106
33197W        W98457   8.670  26.984  14.494
33198W        W98458  20.415  28.749   4.131
33199W        W98459  24.057  35.040   3.543
33200W        W98460   7.939  40.745   2.066
33201W        W98461  31.574  41.772  13.061
33202W        W98462   9.032  34.930  13.201
33203W        W98463  42.777  33.131  13.442
33204W        W98464   0.412  30.129   4.373
33205W        W98465   8.194   5.899   1.487
33206W        W98466  14.693  17.327   4.763
33207W        W98467   1.235   2.330  11.983
33208W        W98468  10.053  10.591   0.451
33209W        W98469  14.384   7.362   3.734
33210W        W98470   0.267  37.094  10.546
33211W        W98471   9.630  14.397   3.657
33212W        W98472   8.126   9.774   9.856
33213W        W98473   9.304  18.490  11.756
33214W        W98474  26.380  44.967  11.116
33215W        W98475  28.981   6.051  14.941
33216W        W98476  28.477  33.488  14.932
33217W        W98477  44.916  42.947  13.330
33218W        W98478  42.729  25.773  13.912
33219W        W98479   9.960  42.065   0.401
33220W        W98480  37.206   4.321   3.630
33221W        W98481  43.742  43.522  11.104
33222W        W98482  37.910  21.683   2.051
33223W        W98483  32.913  34.564  14.393
33224W        W98484  31.818  21.161   2.083
33225W        W98485   6.379  24.031   1.443
33226W        W98486  39.255  12.636   1.875
33227W        W98487  31.502  22.251   1.317
33228W        W98488   6.749  39.534  10.949
33229W        W98489  16.091  10.133  14.178
33230W        W98490  30.062  28.419   2.082
33231W        W98491  39.998  24.130   3.328
33232W        W98492  44.572  44.347  14.484
33233W        W98493   4.648  22.711  11.122
33234W        W98494  28.168  25.517  12.890
33235W        W98495  40.150  32.084  10.601
33236W        W98496  28.938  40.570  12.484
33237W        W98497  20.514  12.720  10.651
33238W        W98498  43.776  32.081   3.830
33239W        W98499   4.755  13.262   2.294
33240W        W98500  32.170   7.902   2.465
33241W        W98501  31.332   6.304  11.261
33242W        W98502  34.742  24.513  11.123
33243W        W98503  13.885  10.719   0.989
33244W        W98504  32.516  41.859  12.955
33245W        W98505  27.012  13.769  12.011
33246W        W98506   4.953  30.179  12.948
33247W        W98507  26.605  10.285  10.780
33248W        W98508  15.970  24.714   3.930
33249W        W98509   6.902   0.379  10.713
33250W        W98510  23.044   5.240  11.466
33251W        W98511  40.325   7.736   1.429
33252W        W98512  22.250  31.590  11.621
33253W        W98513  15.207   9.400  11.166
33254W        W98514  17.979  33.539  12.429
33255W        W98515   1.463   8.740  10.612
33256W        W98516  10.388  32.468  10.989
33257W        W98517   0.519   7.788   3.366
33258W        W98518  21.747  10.041  11.827
33259W        W98519  10.065   5.327   2.280
33260W        W98520  29.610  19.306  13.018
33261W        W98521   5.845  36.797   4.573
33262W        W98522  30.734  18.735   1.770
33263W        W98523  10.819  11.109  14.068
33264W        W98524  28.172  12.852  11.100
33265W        W98525  39.371  37.951  12.362
33266W        W98526   4.638   7.141  12.063
33267W        W98527  35.144  10.855   1.896
33268W        W98528  20.282   5.247  14.882
33269W        W98529   8.647   9.914   9.773
33270W        W98530  14.835  37.930  14.687
33271W        W98531  10.202   2.702   4.612
33272W        W98532  40.837  16.754  12.517
33273W        W98533  16.701   3.183   4.556
33274W        W98534  22.952  43.188  12.124
33275W        W98535  43.254  28.461  11.171
33276W        W98536  25.459   5.414  12.923
33277W        W98537  40.843  38.616   4.154
33278W        W98538  29.113  41.898   3.839
33279W        W98539  12.789  26.754   4.133
33280W        W98540  26.189  21.206   5.020
33281W        W98541   8.078  39.845  14.049
33282W        W98542   3.116  38.091   3.561
33283W        W98543  22.117  19.180   2.383
33284W        W98544   5.924  32.425  14.347
33285W        W98545  32.044   8.914   3.779
33286W        W98546  30.924  23.601  13.518
33287W        W98547  27.606   1.765   4.757
33288W        W98548  33.725   4.352  14.788
33289W        W98549  13.726  13.942  13.371
33290W        W98550  23.913  38.215  11.161
33291W        W98551  36.077  27.530   4.795
33292W        W98552   6.563   9.101  12.813
33293W        W98553  31.048   0.394  14.593
33294W        W98554  23.044   0.923   2.192
33295W        W98555  31.755  31.958  10.674
33296W        W98556   1.800  33.714  14.398
33297W        W98557   4.007   1.749  11.145
33298W        W98558  17.279  42.087  13.203
33299W        W98559  31.729  41.988   4.823
33300W        W98560  37.306   9.149   2.038
33301W        W98561   0.338  22.491   1.667
33302W        W98562  20.233  20.298  13.964
33303W        W98563  14.056  43.439  12.490
33304W        W98564  12.097  12.196   2.721
33305W        W98565  19.723  29.080   3.111
33306W        W98566  34.050   1.962  14.428
33307W        W98567  41.424   7.565  12.037
33308W        W98568  18.035  20.321  13.543
33309W        W98569   1.450  29.191   4.161
33310W        W98570  10.723   2.921   1.213
33311W        W98571  39.281  19.480  12.794
33312W        W98572  34.814  15.211  12.882
33313W        W98573  13.504   8.855   0.735
33314W        W98574  24.527  44.222  12.305
33315W        W98575  33.668   9.751   3.293
33316W        W98576  35.592  27.890   2.481
33317W        W98577  32.114  33.691   2.523
33318W        W98578   4.103  27.049  10.654
33319W        W98579  24.162  11.890  12.080
33320W        W98580  25.158  41.891  11.946
33321W        W98581  11.297  22.572  11.614
33322W        W98582  35.078  44.924  13.582
33323W        W98583  19.310   8.367   3.741
33324W        W98584   6.231   8.354   2.867
33325W        W98585  23.175  12.113   0.126
33326W        W98586  39.950   5.714   3.150
33327W        W98587   0.167  20.182   3.151
33328W        W98588  44.325  22.628  10.655
33329W        W98589  22.720  15.125  13.173
33330W        W98590  27.230  24.273   2.863
33331W        W98591   4.682  11.346   3.228
33332W        W98592  23.965   9.915  13.962
33333W        W98593  20.533   0.682  12.947
33334W        W98594  25.464  14.030   3.530
33335W        W98595  11.648  18.105  12.875
33336W        W98596  12.565  42.932   5.097
33337W        W98597  36.556  12.169   4.875
33338W        W98598   2.037   2.922   0.886
33339W        W98599   0.956  16.712   2.894
33340W        W98600   6.536  14.219  11.185
33341W        W98601  42.718   7.541   2.482
33342W        W98602   4.885  12.937  12.281
33343W        W98603  43.759  32.046   4.741
33344W        W98604  16.170   5.006   0.443
33345W        W98605  31.473  27.933  14.068
33346W        W98606   6.916  34.028  13.412
33347W        W98607  22.090  13.723  13.549
33348W        W98608  12.743  23.498  12.019
33349W        W98609  34.465   4.671  12.922
33350W        W98610  32.000  11.128   2.146
33351W        W98611  18.302   6.243  11.460
33352W        W98612  17.712  31.234  13.034
33353W        W98613  27.038  25.887   4.622
33354W        W98614   2.872  17.703  13.350
33355W        W98615  19.681  10.136  14.560
33356W        W98616  15.890   9.529   2.921
33357W        W98617  31.053  19.943  11.143
33358W        W98618   6.258  26.602  12.932
33359W        W98619  25.367  40.257  11.110
33360W        W98620  11.325  23.806   4.552
33361W        W98621  42.723  39.654   0.871
33362W        W98622  31.468  25.276  13.790
33363W        W98623  39.280  30.020   4.916
33364W        W98624  40.519  23.333  11.882
33365W        W98625  32.976  11.544   1.713
33366W        W98626  22.330  30.547  10.803
33367W        W98627  19.682   8.756  12.929
33368W        W98628  40.559  30.760   0.423
33369W        W98629   5.578  34.604   1.258
33370W        W98630  11.354  36.769  13.515
33371W        W98631  17.049  16.311  14.570
33372W        W98632   6.152  12.465  14.855
33373W        W98633   6.390  14.391   3.185
33374W        W98634   9.738   3.702   3.783
33375W        W98635  32.450  35.399   1.821
33376W        W98636  37.490  12.057   0.015
33377W        W98637  29.505   9.644  11.498
33378W        W98638  18.368   4.510   2.574
33379W        W98639  19.169  15.574   4.547
33380W        W98640  23.627  33.453  14.109
33381W        W98641   4.657  17.583  10.927
33382W        W98642   9.797  16.152  12.367
33383W        W98643  43.137  20.241   0.540
33384W        W98644  17.854  24.295   3.705
33385W        W98645  42.515   4.300  14.466
33386W        W98646  18.209  44.448  11.925
33387W        W98647  37.299  41.945  10.752
33388W        W98648  21.040  43.775  13.973
33389W        W98649  38.492  29.681   4.671
33390W        W98650  33.446   1.362  12.058
33391W        W98651  12.403  36.839   3.757
33392W        W98652  21.561   5.256   3.514
33393W        W98653  32.002   5.527  13.584
33394W        W98654  25.609  35.922  12.466
33395W        W98655  26.688   1.361  12.156
33396W        W98656  28.973  44.797  13.273
33397W        W98657  22.745  23.394  11.538
33398W        W98658   4.260  22.931   1.290
33399W        W98659  29.746  23.147  13.097
33400W        W98660  32.491  15.692  14.517
33401W        W98661  27.122  15.925   2.376
33402W        W98662  43.964  32.528   3.331
33403W        W98663  20.140  10.478   0.261
33404W        W98664  39.427  22.449  11.793
33405W        W98665  25.104  25.983   0.093
33406W        W98666  43.398  33.524   3.669
33407W        W98667  21.741  20.151  14.095
33408W        W98668  22.176   7.309  14.034
33409W        W98669  28.696  12.040  13.365
33410W        W98670  11.194  27.690  10.570
33411W        W98671  28.953  28.347  14.951
33412W        W98672  14.272  12.278  12.853
33413W        W98673  36.157  37.417  13.557
33414W        W98674  26.250  25.054  14.719
33415W        W98675   6.570  35.044   4.495
33416W        W98676  24.669  27.935   2.273
33417W        W98677   0.576  43.387   2.279
33418W        W98678  16.074  33.985  12.864
33419W        W98679   8.855  27.745  13.845
33420W        W98680  21.759   8.393   3.611
33421W        W98681  19.658  17.689  14.615
33422W        W98682  19.051  43.844   2.188
33423W        W98683   2.230  24.559   3.245
33424W        W98684  30.334  29.130   4.554
33425W        W98685  38.977  32.363  12.302
33426W        W98686  13.205   8.491   4.370
33427W        W98687  39.455  41.954   1.312
33428W        W98688  26.117  17.753  12.890
33429W        W98689  29.740   2.532  14.778
33430W        W98690   4.431  43.907   2.365
33431W        W98691   9.513  25.106  11.477
33432W        W98692  10.760  41.265  14.415
33433W        W98693  30.984   6.103   0.317
33434W        W98694  36.440  35.975  13.457
33435W        W98695  41.467  16.308   2.861
33436W        W98696   3.511  26.716  14.315
33437W        W98697  39.425  18.171   2.560
33438W        W98698  10.154  21.684   2.225
33439W        W98699  10.808   3.947  11.939
33440W        W98700  20.757  38.213  12.996
33441W        W98701   6.632  36.966   0.846
33442W        W98702  25.707  38.799   0.071
33443W        W98703  14.595   3.783  13.348
33444W        W98704  39.935  20.847   4.036
33445W        W98705  25.807  29.901  13.354
33446W        W98706  31.903  40.372   4.361
33447W        W98707  23.299   1.471  12.599
33448W        W98708  29.751   3.252  10.932
33449W        W98709  33.885  44.334   1.880
33450W        W98710  18.987   6.774  11.359
33451W        W98711  32.867  32.890   4.171
33452W        W98712  42.507  32.362  11.446
33453W        W98713  44.467   9.914   1.024
33454W        W98714   4.853   4.178  13.230
33455W        W98715   8.276  42.063   0.624
33456W        W98716  13.301  41.953   3.340
33457W        W98717   5.388   1.347   0.896
33458W        W98718  27.689  20.522  11.095
33459W        W98719  23.218  10.359  11.972
33460W        W98720  26.162  43.080  12.920
33461W        W98721  31.428  19.093   4.596
33462W        W98722  10.058   0.310   1.229
33463W        W98723  24.497  29.472  12.148
33464W        W98724  17.085  24.108  11.924
33465W        W98725  25.235  39.536  10.585
33466W        W98726   5.322  33.325  11.577
33467W        W98727  26.482  19.001  11.619
33468W        W98728  20.110  13.276   5.043
33469W        W98729  17.072  33.104   4.838
33470W        W98730   0.002  30.882   2.403
33471W        W98731   8.986   2.488  12.932
33472W        W98732  17.246  10.802  11.606
33473W        W98733  20.088   1.215  11.536
33474W        W98734  21.214  28.408   0.533
33475W        W98735  20.750  19.188   0.006
33476W        W98736   0.438   7.872  11.398
33477W        W98737  33.621  18.280  12.127
33478W        W98738  15.739  14.750  11.180
33479W        W98739  31.983  33.673  11.333
33480W        W98740   5.951  43.024  10.357
33481W        W98741   6.240  20.320   2.870
33482W        W98742  23.179   0.081  13.920
33483W        W98743  27.026  41.825  12.096
33484W        W98744  24.832  15.394  10.243
33485W        W98745  33.905   2.443  11.024
33486W        W98746  40.073  16.488   3.762
33487W        W98747   9.823  25.539  14.880
33488W        W98748  20.019  20.767  13.800
33489W        W98749   6.999  13.125  12.880
33490W        W98750  41.096  36.666  14.917
33491W        W98751  30.674  35.588  14.470
33492W        W98752  21.838   8.089  11.096
33493W        W98753  19.785  16.606  10.669
33494W        W98754  22.509  39.821  12.807
33495W        W98755  22.653  10.880  14.819
33496W        W98756   4.482  35.091   1.908
33497W        W98757   5.600  24.465   2.876
33498W        W98758  20.026  18.603  12.011
33499W        W98759  30.652  22.631  12.602
33500W        W98760  31.059  35.563  13.400
33501W        W98761  43.822  35.839   0.041
33502W        W98762  29.123  18.292   0.688
33503W        W98763  14.734  21.960  12.897
33504W        W98764  13.180  21.458  14.038
33505W        W98765   5.418  23.512   2.665
33506W        W98766  39.877   3.731  12.589
33507W        W98767  17.992  30.346  12.119
33508W        W98768  32.370  25.528  14.490
33509W        W98769  14.206   2.318  14.298
33510W        W98770  41.572   6.655  14.333
33511W        W98771  14.095  29.045  10.297
33512W        W98772  29.573   4.097  12.903
33513W        W98773  21.214  19.700   3.508
33514W        W98774   0.068  29.930  12.099
33515W        W98775   4.192   8.274   4.960
33516W        W98776  18.368   5.318  14.492
33517W        W98777  41.084  29.260   2.691
33518W        W98778  39.869  24.398  13.874
33519W        W98779   3.699  32.562  10.822
33520W        W98780  15.828  24.104   1.856
33521W        W98781  33.941  17.576  11.570
33522W        W98782  36.087  18.035  11.032
33523W        W98783  23.957  21.611   1.317
33524W        W98784  21.593   9.409   2.307
33525W        W98785  32.272  32.425   4.205
33526W        W98786   1.456  27.941  12.828
33527W        W98787  30.413  20.983   2.090
33528W        W98788  41.053  35.130  13.805
33529W        W98789   6.473  18.362  12.494
33530W        W98790  42.355  25.189  10.975
33531W        W98791   6.737  31.246   1.443
33532W        W98792  42.255  19.003  14.405
33533W        W98793  24.778  33.624   0.309
33534W        W98794  13.811  19.349  12.977
33535W        W98795  19.255  13.294   0.645
33536W        W98796  41.925  23.493  10.363
33537W        W98797   9.802  13.296   3.085
33538W        W98798  28.098  32.833  12.654
33539W        W98799  11.657  44.142   3.546
33540W        W98800   5.475  14.791   3.777
33541W        W98801  28.115  23.420   1.780
33542W        W98802   8.752  31.193   1.168
33543W        W98803  43.616  30.318   5.210
33544W        W98804  36.090   2.363  12.459
33545W        W98805  41.967   6.287  10.292
33546W        W98806   6.800   5.702  14.800
33547W        W98807   2.334  14.190   0.221
33548W        W98808   8.835  21.358   4.988
33549W        W98809  16.600  23.533   1.813
33550W        W98810   2.301  16.680  14.396
33551W        W98811   0.508   3.887  12.903
33552W        W98812  12.194  25.656   0.385
33553W        W98813   7.623  14.077   0.613
33554W        W98814  12.615   7.900   1.378
33555W        W98815  16.360  16.863  11.551
33556W        W98816   6.100   5.972   0.031
33557W        W98817  24.550  36.376  12.667
33558W        W98818  10.659  25.146  14.932
33559W        W98819  12.269  26.583  10.009
33560W        W98820  13.127   1.541  12.919
33561W        W98821  44.847   0.456   1.101
33562W        W98822  34.804  20.487   4.227
33563W        W98823   2.773  40.324   2.525
33564W        W98824   9.932  25.449   9.659
33565W        W98825   6.882   7.274   2.931
33566W        W98826   7.109  19.589  12.006
33567W        W98827   2.443  39.886   4.482
33568W        W98828   7.174  32.523  11.619
33569W        W98829  43.883  41.357   0.950
33570W        W98830  13.839   0.247  14.568
33571W        W98831  12.779   2.178   4.168
33572W        W98832  10.142  28.674   0.418
33573W        W98833  29.127  41.695   1.169
33574W        W98834  24.982   7.826  13.736
33575W        W98835  15.553   4.470   1.313
33576W        W98836   3.467   1.953  12.012
33577W        W98837  26.444  26.623  13.891
33578W        W98838   5.670  34.612   2.594
33579W        W98839  41.965  26.895  12.423
33580W        W98840  17.407   7.884   5.349
33581W        W98841  38.899  27.580  10.694
33582W        W98842   0.982  40.385   3.441
33583W        W98843  13.721  36.825   0.759
33584W        W98844  38.087   0.043   1.399
33585W        W98845  40.382  25.983  14.962
33586W        W98846  31.789  29.470   2.623
33587W        W98847  31.497   6.245   2.562
33588W        W98848  17.899  16.628  12.550
33589W        W98849  16.394  39.437  13.083
33590W        W98850  42.074  39.232   2.928
33591W        W98851  19.233  20.953   9.849
33592W        W98852   3.318  43.236  13.591
33593W        W98853  31.871   1.898   3.305
33594W        W98854  14.345  12.209  11.921
33595W        W98855  20.111  28.691   3.225
33596W        W98856  31.452  12.271  10.961
33597W        W98857  19.629  26.952   2.348
33598W        W98858  29.147  26.967   2.414
33599W        W98859  44.499  31.655  13.998
33600W        W98860   8.508  30.868  13.845
33601W        W98861   7.908  42.911   1.041
33602W        W98862  35.983  36.322   4.985
33603W        W98863  13.875  40.761   3.660
33604W        W98864  23.473  29.355   2.791
33605W        W98865  26.822   8.007   4.528
33606W        W98866  14.290  44.226   4.121
33607W        W98867  19.317  13.348   3.745
33608W        W98868   3.185  20.856  14.363
33609W        W98869  29.087   0.433   1.913
33610W        W98870  29.001  25.797  10.336
33611W        W98871  13.143  17.615  14.379
33612W        W98872  14.606  22.742  14.304
33613W        W98873  31.616  28.807  12.064
33614W        W98874  28.990  37.180  10.615
33615W        W98875  41.515  40.451  12.299
33616W        W98876  38.030  14.765  13.547
33617W        W98877   5.394   3.721  11.670
33618W        W98878  35.203  17.108  10.514
33619W        W98879  32.426  32.931  12.523
33620W        W98880  19.751  29.317  13.041
33621W        W98881   2.882   5.995   3.235
33622W        W98882  39.610  32.972   3.257
33623W        W98883  41.645  23.691   0.357
33624W        W98884  19.143  11.834   1.321
33625W        W98885  15.899   8.871   5.050
33626W        W98886  32.133   1.697  12.783
33627W        W98887  15.479  14.738  11.632
33628W        W98888   8.973   1.954  11.250
33629W        W98889  10.321  43.475   1.204
33630W        W98890   1.902  25.899  10.343
33631W        W98891  27.729  43.731  12.647
33632W        W98892  34.625  35.027   1.833
33633W        W98893  41.758  21.966  14.019
33634W        W98894  28.572  10.666   4.546
33635W        W98895  18.094  44.241   0.364
33636W        W98896  17.319   3.830  13.452
33637W        W98897   8.780   3.992   2.883
33638W        W98898  17.677  43.519   0.943
33639W        W98899   2.364  43.277  13.809
33640W        W98900  11.017   1.560   1.286
33641W        W98901  29.669  35.642  12.128
33642W        W98902  11.563  23.166  12.360
33643W        W98903  36.544  31.974  13.482
33644W        W98904  15.717   7.251  14.815
33645W        W98905  27.315  40.270   3.291
33646W        W98906   0.881   3.224  12.237
33647W        W98907  25.542  26.784   3.189
33648W        W98908  13.712  26.166  14.854
33649W        W98909  12.365  21.950  10.562
33650W        W98910  16.271   9.924  13.253
33651W        W98911  30.293   7.192  14.830
33652W        W98912  27.599  43.527   4.082
33653W        W98913  30.629  21.533   4.119
33654W        W98914   8.809  14.591   5.326
33655W        W98915  16.570  12.198  13.437
33656W        W98916  34.901  13.648   1.712
33657W        W98917  44.944  27.079   2.459
33658W        W98918   2.817   7.870  14.838
33659W        W98919  16.321  29.059   4.140
33660W        W98920  16.277   3.208   2.170
33661W        W98921  38.375  27.629   1.928
33662W        W98922  23.782   3.608   1.304
33663W        W98923   8.138  27.742   1.821
33664W        W98924  15.754   5.784  13.309
33665W        W98925  10.220  31.602   0.270
33666W        W98926   8.366  25.130   4.317
33667W        W98927  20.626   5.707   1.642
33668W        W98928  35.161  13.717   3.714
33669W        W98929  11.431  19.641  11.958
33670W        W98930  30.193  34.445   3.194
33671W        W98931  11.237  23.289   4.557
33672W        W98932  23.043   2.033   3.293
33673W        W98933   2.743  12.326   3.582
33674W        W98934   0.042  17.719  11.428
33675W        W98935  27.664  27.681  13.481
33676W        W98936  11.358  42.653  10.853
33677W        W98937  44.177   8.666  11.067
33678W        W98938   1.366  38.880  14.255
33679W        W98939   4.106  12.252  10.932
33680W        W98940   5.992  33.929  13.576
33681W        W98941  39.511  44.895  12.462
33682W        W98942   4.411  39.551   3.308
33683W        W98943  16.402   6.824   2.015
33684W        W98944  36.466  10.932   2.722
33685W        W98945  18.209   0.542   4.600
33686W        W98946  31.648  28.819   4.070
33687W        W98947   1.391  42.346   1.731
33688W        W98948   3.709  18.174   1.209
33689W        W98949  42.349   5.479  11.124
33690W        W98950   0.229  24.527  14.455
33691W        W98951  23.790  10.701  13.642
33692W        W98952  32.370  34.792  14.514
33693W        W98953  40.814  38.302  10.985
33694W        W98954   7.243  12.325   2.323
33695W        W98955  32.286   7.773  14.663
33696W        W98956  24.586  16.923   4.562
33697W        W98957  40.805  26.909   3.792
33698W        W98958  13.663  17.208  13.943
33699W        W98959  38.851  25.221   2.818
33700W        W98960   1.803  21.289   3.228
33701W        W98961  21.706  13.715   2.856
33702W        W98962  10.276  16.143  11.190
33703W        W98963  44.789   1.684  11.149
33704W        W98964   2.226  35.138   0.203
33705W        W98965  19.728  32.914  14.686
33706W        W98966  10.636  24.611   2.853
33707W        W98967  32.037   2.406  11.469
33708W        W98968   2.543  29.626  13.440
33709W        W98969   0.305  13.549  13.519
33710W        W98970  40.362  31.571  12.598
33711W        W98971   4.950   4.743   1.868
33712W        W98972  24.899  17.415   0.792
33713W        W98973  44.938  23.544  13.553
33714W        W98974  24.501   7.726  14.477
33715W        W98975  19.351  11.651  12.428
33716W        W98976  28.545  22.144  14.348
33717W        W98977   1.950  15.629   0.803
33718W        W98978  19.638  27.673   1.707
33719W        W98979  36.081  37.095   3.607
33720W        W98980  28.469  36.935   1.627
33721W        W98981  26.641  20.712  14.967
33722W        W98982  29.402  23.792   0.740
33723W        W98983  19.288  38.915   4.550
33724W        W98984  13.190  36.626   2.372
33725W        W98985  22.394   3.359   4.614
33726W        W98986  44.790  22.207   0.390
33727W        W98987  35.451  29.135   2.848
33728W        W98988   6.209  10.259  13.816
33729W        W98989  29.071  39.167   4.162
33730W        W98990  40.631   2.994  13.888
33731W        W98991  37.455  23.511   4.755
33732W        W98992  27.963  36.573   4.189
33733W        W98993  38.761   5.033   5.134
33734W        W98994  10.642  30.709  14.394
33735W        W98995  43.238   1.473  13.795
33736W        W98996  42.024  24.671   1.492
33737W        W98997  12.435  18.010  12.439
33738W        W98998  24.983  33.925   3.203
33739W        W98999  42.319   2.800  10.665
33740W        W99000  26.550  21.505   3.134
33741W        W99001  10.101   4.238   2.631
33742W        W99002   2.407   3.543  10.105
33743W        W99003   7.305  17.195  14.414
33744W        W99004  12.197  12.268  10.531
33745W        W99005  21.294   9.705  10.891
33746W        W99006  16.209   1.841   2.616
33747W        W99007  31.045  41.387   1.718
33748W        W99008  43.883  14.592  13.990
33749W        W99009  32.032  25.935   2.802
33750W        W99010  13.599   4.985  14.504
33751W        W99011  38.118  10.301   4.769
33752W        W99012  11.238  13.311  12.439
33753W        W99013  29.862  37.020   4.289
33754W        W99014  37.638   7.133  14.056
33755W        W99015  26.103  42.434   2.665
33756W        W99016  38.448  20.336  12.187
33757W        W99017  40.169  30.007   3.645
33758W        W99018  17.131  37.435   2.453
33759W        W99019  11.371   9.301   4.886
33760W        W99020  17.284  41.747  13.610
33761W        W99021   5.400  10.142  12.856
33762W        W99022  40.874  42.025  12.908
33763W        W99023  25.785  10.785   0.849
33764W        W99024  10.648  23.182  11.616
33765W        W99025  39.834  10.425   4.631
33766W        W99026  26.759   3.856   5.051
33767W        W99027  26.645   1.999   0.294
33768W        W99028  34.415  34.213   0.480
33769W        W99029   2.823  28.123   4.169
33770W        W99030  29.898  40.376  14.377
33771W        W99031  26.572  15.610  13.112
33772W        W99032  31.509  39.986  10.403
33773W        W99033  39.801  17.424   1.283
33774W        W99034  42.935   2.156  14.104
33775W        W99035  26.134  17.555  13.723
33776W        W99036   6.809  12.716  13.146
33777W        W99037  40.391   9.001  10.692
33778W        W99038  15.268  16.619   3.726
33779W        W99039  18.336  39.923   3.656
33780W        W99040  37.743   1.251  11.548
33781W        W99041  22.337  38.968  14.812
33782W        W99042  19.603  21.216  10.192
33783W        W99043  22.278  39.996   3.275
33784W        W99044  34.893  24.734   3.972
33785W        W99045  41.905  15.513  12.078
33786W        W99046  26.034  20.559  14.012
33787W        W99047  19.712  40.729  12.961
33788W        W99048  38.678   0.400   1.971
33789W        W99049  41.219  34.178  13.926
33790W        W99050  22.539  22.053   1.176
33791W        W99051  40.534  10.904   3.280
33792W        W99052  14.085  19.596  10.048
33793W        W99053   1.447  24.285   4.981
33794W        W99054  41.269  30.004   1.453
33795W        W99055  34.872   8.983   1.564
33796W        W99056  30.593  27.187   3.210
33797W        W99057  44.985  13.322   3.140
33798W        W99058   9.744   6.283   2.249
33799W        W99059  43.481  23.536   0.266
33800W        W99060  18.615  18.680   3.592
33801W        W99061  30.164  40.929   0.810
33802W        W99062  43.981   9.444   1.287
33803W        W99063  36.419  41.830  11.620
33804W        W99064  15.770  43.449  10.651
33805W        W99065   9.406  10.160   4.199
33806W        W99066  28.792  13.178  11.696
33807W        W99067  12.414   9.769   5.496
33808W        W99068  12.400  44.071   0.421
33809W        W99069   3.468  25.119   0.785
33810W        W99070  26.446   4.247   1.663
33811W        W99071  41.469  37.182   2.847
33812W        W99072  30.202  30.104  10.675
33813W        W99073  12.561  10.686  11.786
33814W        W99074   0.945  36.148   0.871
33815W        W99075  44.322  20.798  11.829
33816W        W99076   8.720  42.343   2.613
33817W        W99077  26.890  24.666   4.041
33818W        W99078  34.463  44.649  14.854
33819W        W99079  18.528  17.615   3.615
33820W        W99080  18.172  40.577   1.912
33821W        W99081  11.699  38.114  14.337
33822W        W99082  11.497  37.447   4.404
33823W        W99083  31.655  34.659   2.423
33824W        W99084  15.190  39.624   4.237
33825W        W99085  23.128  29.875  14.564
33826W        W99086  27.110  31.369  14.448
33827W        W99087  23.602  38.867   2.341
33828W        W99088  32.857  17.730   4.508
33829W        W99089  17.055   7.939  10.594
33830W        W99090  28.163  26.980   0.007
33831W        W99091   7.874  19.722   4.373
33832W        W99092  23.752  28.331   4.076
33833W        W99093   1.971  21.808   0.884
33834W        W99094   3.859  24.977   3.105
33835W        W99095  27.497  16.174  14.025
33836W        W99096  10.615  44.542   1.046
33837W        W99097  13.267  39.510   0.254
33838W        W99098  30.925  29.946   4.586
33839W        W99099  28.180  18.711   2.997
33840W        W99100  26.134  41.396  14.501
33841W        W99101   6.810  24.150   4.626
33842W        W99102  18.602   4.833   4.699
33843W        W99103  11.286  29.596   4.548
33844W        W99104  22.053  40.371   1.084
33845W        W99105  19.392  29.941  13.660
33846W        W99106  31.431  32.546   0.576
33847W        W99107  18.094  11.305  11.519
33848W        W99108  41.953   6.267  12.103
33849W        W99109  14.613  20.445  10.629
33850W        W99110  12.437  39.356   2.911
33851W        W99111   9.637  19.702  11.727
33852W        W99112  43.626  33.682   1.304
33853W        W99113  17.078   0.328  13.019
33854W        W99114  27.316  17.871  10.107
33855W        W99115  39.103  38.808  11.522
33856W        W99116  22.716  22.773   2.867
33857W        W99117  15.757   4.691   0.248
33858W        W99118   4.229  44.778   1.794
33859W        W99119  17.278  10.420  13.027
33860W        W99120   5.462  43.842   1.181
33861W        W99121   0.916  19.584   3.630
33862W        W99122  28.680  44.354  10.717
33863W        W99123  25.185  21.051   2.560
33864W        W99124   1.271  15.795  13.501
33865W        W99125  14.305  27.721  12.224
33866W        W99126  20.302   2.807  11.600
33867W        W99127  41.381  18.024  11.387
33868W        W99128  17.030  23.698  14.228
33869W        W99129  33.312  36.548  12.468
33870W        W99130  17.578  42.836  12.068
33871W        W99131  24.198  31.528  10.647
33872W        W99132  10.531  43.387   2.395
33873W        W99133  34.484  16.705   4.368
33874W        W99134  34.569  24.227   0.326
33875W        W99135  40.061   7.442  11.290
33876W        W99136  15.203  42.684  11.119
33877W        W99137   1.216  31.151   0.867
33878W        W99138  16.493   9.213  12.730
33879W        W99139  21.052  23.707  13.094
33880W        W99140  26.315  17.238  12.408
33881W        W99141   4.869   1.013  12.167
33882W        W99142  24.489  14.467   1.388
33883W        W99143  42.265   1.871  12.366
33884W        W99144   0.326  10.737  14.012
33885W        W99145  16.354   8.287   1.918
33886W        W99146  25.082  26.249  13.790
33887W        W99147  38.342  40.864  14.491
33888W        W99148   5.700  18.458   1.834
33889W        W99149  24.486  41.006  13.074
33890W        W99150  42.798  36.851   4.297
33891W        W99151  10.355  29.228  12.138
33892W        W99152  27.780  35.524  11.965
33893W        W99153  28.481  33.785   3.721
33894W        W99154  16.988  17.634  13.020
33895W        W99155   1.835   3.877  10.776
33896W        W99156  18.166   9.288   3.218
33897W        W99157   9.577  13.748   3.222
33898W        W99158  24.092   1.189  12.992
33899W        W99159  18.235   7.867  11.274
33900W        W99160  37.591  35.038   1.917
33901W        W99161  26.367   7.983   3.510
33902W        W99162  37.533  25.388   4.129
33903W        W99163   5.907  12.926  13.517
33904W        W99164  29.762  13.098   3.745
33905W        W99165  41.052  10.724   1.985
33906W        W99166  28.126  21.937  13.315
33907W        W99167  24.650  33.904   0.741
33908W        W99168   8.726  19.089   2.268
33909W        W99169  33.531   6.433   0.429
33910W        W99170  41.596  28.275  12.391
33911W        W99171  30.058  25.470  13.664
33912W        W99172  10.660   5.255   1.331
33913W        W99173  41.044  27.383  12.350
33914W        W99174  28.955  23.039   0.333
33915W        W99175  35.315  26.409  13.016
33916W        W99176  42.437  26.139   2.250
33917W        W99177   3.790  30.914   1.719
33918W        W99178   8.415  20.109  13.950
33919W        W99179   0.910  44.054   2.700
33920W        W99180  41.346  30.610   4.080
33921W        W99181  24.777  23.740  12.800
33922W        W99182  27.183  25.248  11.604
33923W        W99183  21.666  21.973   0.927
33924W        W99184  35.350  39.975   1.733
33925W        W99185  37.040  16.958   2.184
33926W        W99186   5.776  17.306  14.354
33927W        W99187  15.730   5.963  12.256
33928W        W99188  33.761  33.178   1.370
33929W        W99189  44.018  39.485  12.577
33930W        W99190  20.569  29.537   4.839
33931W        W99191  35.007   0.323  10.801
33932W        W99192  16.870  15.602   0.316
33933W        W99193  22.572  30.064  13.928
33934W        W99194   3.681  15.762   1.727
33935W        W99195  39.498   7.318   2.844
33936W        W99196  29.903  33.781  14.768
33937W        W99197   6.489  16.219  14.470
33938W        W99198  41.988  17.629   0.389
33939W        W99199   0.013  12.191  12.504
33940W        W99200   5.253   9.773  11.608
33941W        W99201  35.481  37.200   4.879
33942W        W99202  34.069  20.422  10.475
33943W        W99203  29.266   2.487  13.502
33944W        W99204   4.459  16.184   2.096
33945W        W99205  27.889  20.913  12.952
33946W        W99206  27.966  44.369   4.534
33947W        W99207  24.589  18.671   1.112
33948W        W99208  32.985   6.134  14.595
33949W        W99209  10.372  15.425  11.977
33950W        W99210   9.419  22.135   2.804
33951W        W99211  21.526  11.300  12.506
33952W        W99212  23.028  13.290   1.309
33953W        W99213   7.343  12.554  14.844
33954W        W99214  33.579   1.019  12.442
33955W        W99215  40.822  27.062   3.310
33956W        W99216  43.790  21.548   4.348
33957W        W99217  15.793  10.617  12.871
33958W        W99218  15.288  17.020   4.138
33959W        W99219   4.045   1.517  12.487
33960W        W99220  35.312   2.471  11.724
33961W        W99221  35.149   7.754  14.480
33962W        W99222  29.723  20.154  12.483
33963W        W99223  42.235  32.927   3.008
33964W        W99224  39.989   8.248   3.675
33965W        W99225  16.147  12.146  11.192
33966W        W99226  20.611   8.189  11.627
33967W        W99227  44.802   2.111   3.525
33968W        W99228  38.777  21.044  11.047
33969W        W99229   7.801   0.988   3.541
33970W        W99230   8.608  31.122  14.723
33971W        W99231  30.103  28.659   4.565
33972W        W99232  25.831  33.660   2.653
33973W        W99233  34.641  21.127   1.902
33974W        W99234  18.461   4.230  11.654
33975W        W99235   4.701  33.406   1.057
33976W        W99236   4.630   1.262  14.945
33977W        W99237  22.677   0.216   3.293
33978W        W99238   1.703  31.307   2.294
33979W        W99239  42.422  23.951   2.395
33980W        W99240  12.599  12.572   0.376
33981W        W99241  31.613  17.078  14.867
33982W        W99242  23.690  44.935  14.734
33983W        W99243  19.632  13.130  11.853
33984W        W99244   2.988  34.526   0.293
33985W        W99245  44.383  43.993  12.632
33986W        W99246  27.440  11.349  10.964
33987W        W99247   1.462  21.540   1.891
33988W        W99248  39.268  28.548   4.943
33989W        W99249  44.608  29.157  11.620
33990W        W99250  10.625  39.834   4.318
33991W        W99251  12.640   5.833  14.934
33992W        W99252  44.069  29.669   1.859
33993W        W99253  29.427  26.769   5.232
33994W        W99254  34.234   0.895   4.491
33995W        W99255   1.886  41.210   3.752
33996W        W99256  35.149  29.145  14.443
33997W        W99257   2.883  17.019  14.542
33998W        W99258   7.215   8.367  11.511
33999W        W99259  29.411  10.727   2.128
34000W        W99260  36.100   6.632   3.867
34001W        W99261  36.140  14.593   0.243
34002W        W99262  28.428  16.211  14.509
34003W        W99263  16.557  25.444   0.464
34004W        W99264   1.827   7.411   2.396
34005W        W99265  25.492   2.409  13.846
34006W        W99266  32.320  27.383  14.026
34007W        W99267   9.704   8.085  12.290
34008W        W99268  16.578  22.058   2.875
34009W        W99269  28.019  15.830  11.678
34010W        W99270  25.422  15.424  10.637
34011W        W99271  33.019  14.043  11.024
34012W        W99272   7.927  38.407   1.980
34013W        W99273  32.610  28.521  10.680
34014W        W99274   6.012  35.430  11.512
34015W        W99275  18.341  40.876   2.584
34016W        W99276   6.691  24.303   2.002
34017W        W99277   9.446  21.571   4.465
34018W        W99278   6.606  14.792  12.191
34019W        W99279  26.256  29.956   1.924
34020W        W99280   9.145  31.516  10.750
34021W        W99281   3.560   7.471  11.200
34022W        W99282   4.792  43.574   0.721
34023W        W99283  42.337   0.574  12.113
34024W        W99284  33.053   4.470  14.521
34025W        W99285  39.088   1.663   0.464
34026W        W99286  42.020  14.201   0.661
34027W        W99287   3.027   0.536   3.561
34028W        W99288  11.109  20.142   3.780
34029W        W99289   9.625  31.688  13.446
34030W        W99290  17.797  34.510  13.807
34031W        W99291  10.948  36.992   1.436
34032W        W99292  38.988  44.748   4.134
34033W        W99293  40.337  41.999  13.553
34034W        W99294  19.209  33.624   4.432
34035W        W99295   1.412  19.625  13.792
34036W        W99296  31.473   0.894   3.096
34037W        W99297   9.615  17.724  13.339
34038W        W99298  13.043  12.604   0.663
34039W        W99299   3.980   4.739  11.135
34040W        W99300  19.509  17.085   1.649
34041W        W99301  34.561   0.381  11.989
34042W        W99302  37.823  11.312   1.265
34043W        W99303   6.258  29.698  12.301
34044W        W99304   9.685  29.103  12.510
34045W        W99305  11.203  24.125   2.246
34046W        W99306  17.266   8.131  10.135
34047W        W99307  37.393   4.983  12.973
34048W        W99308  10.757  20.543   0.548
34049W        W99309  23.127  16.260   2.657
34050W        W99310  16.377  35.326   4.184
34051W        W99311  21.703  30.084  13.755
34052W        W99312  41.304   5.754  12.492
34053W        W99313  36.048  39.159  12.540
34054W        W99314  40.932  32.693   0.916
34055W        W99315  35.052  14.375  12.409
34056W        W99316   3.639  24.622   1.418
34057W        W99317  21.464  14.806   1.588
34058W        W99318  14.745  22.643  12.412
34059W        W99319   4.862  28.963   4.504
34060W        W99320  33.397   1.996  12.757
34061W        W99321  20.589  21.192  14.421
34062W        W99322   5.912  26.757  11.114
34063W        W99323  21.613   2.353   0.391
34064W        W99324  38.640  42.352  13.366
34065W        W99325  28.596  15.722   2.638
34066W        W99326  19.106   7.357  14.386
34067W        W99327  14.616  44.924  14.924
34068W        W99328   8.478  19.313  13.519
34069W        W99329  21.236  27.193   1.726
34070W        W99330  12.065  43.825   0.080
34071W        W99331  12.658  14.130  11.543
34072W        W99332  23.056   3.069   5.122
34073W        W99333   6.674  32.601  11.577
34074W        W99334  27.188  16.995   1.749
34075W        W99335  32.452   3.396  11.405
34076W        W99336  15.548  12.280   4.343
34077W        W99337  27.518  42.413  12.118
34078W        W99338  16.479  43.999  13.869
34079W        W99339  41.725   3.793  14.338
34080W        W99340  28.805   6.867   2.355
34081W        W99341  23.443  25.536  14.891
34082W        W99342  17.192  11.724  12.246
34083W        W99343  17.361  30.881   0.754
34084W        W99344  38.291  25.208  13.807
34085W        W99345  38.455  16.562   3.903
34086W        W99346   3.391  36.285  14.903
34087W        W99347  31.695  28.708  13.759
34088W        W99348  42.533  14.173   0.752
34089W        W99349  13.059  32.452  11.831
34090W        W99350  39.479  35.798  11.837
34091W        W99351  40.885  14.072  12.058
34092W        W99352   0.890  39.916  10.732
34093W        W99353  44.538  12.004  14.615
34094W        W99354  30.188   5.437   4.354
34095W        W99355  34.646  30.068  12.992
34096W        W99356  32.097  34.933   0.648
34097W        W99357  27.908   2.962   0.560
34098W        W99358  13.109  24.192   0.836
34099W        W99359  20.456  37.778  14.697
34100W        W99360   9.168   6.478  11.046
34101W        W99361   9.069  13.719   0.316
34102W        W99362  42.825  14.135  11.624
34103W        W99363  21.512  38.115   3.619
34104W        W99364  29.984  21.995  11.626
34105W        W99365  22.995  20.498   3.818
34106W        W99366  32.639  28.344   1.348
34107W        W99367  31.040  24.519   4.860
34108W        W99368   3.248  35.413   4.893
34109W        W99369  32.814  14.694   2.333
34110W        W99370  40.965  33.128  13.972
34111W        W99371  37.494  34.208   0.796
34112W        W99372  32.193  23.457  12.616
34113W        W99373  27.106   3.225   0.398
34114W        W99374   4.047  31.392   4.658
34115W        W99375  30.148  11.716   1.661
34116W        W99376   6.449  15.643  12.051
34117W        W99377  12.574  43.503  14.605
34118W        W99378   2.064  18.295  13.909
34119W        W99379  38.609  36.412  13.830
34120W        W99380  17.474  41.307  14.527
34121W        W99381   3.108  19.378   2.269
34122W        W99382  27.488  41.506  14.694
34123W        W99383   9.710  35.571  11.655
34124W        W99384  36.531  40.881   1.208
34125W        W99385  12.312  11.299   3.703
34126W        W99386  38.435  37.299   0.989
34127W        W99387  16.223  33.941   4.083
34128W        W99388  21.641  38.422  14.017
34129W        W99389  11.223  14.589  14.411
34130W        W99390  23.244  30.534   0.834
34131W        W99391  17.077   3.256  11.248
34132W        W99392  22.187  34.629   1.751
34133W        W99393  42.419  19.745  13.410
34134W        W99394  44.895   9.381  13.634
34135W        W99395  43.585  40.664   4.470
34136W        W99396  29.613   4.869   3.113
34137W        W99397  28.630  21.478  14.812
34138W        W99398   3.323  24.557   4.590
34139W        W99399  16.415  38.865   4.600
34140W        W99400  37.834  42.139   0.657
34141W        W99401  25.677  15.272   3.157
34142W        W99402   2.809   9.492   0.671
34143W        W99403  22.991  20.275   1.269
34144W        W99404  38.672  24.010  14.269
34145W        W99405  24.746   7.258   3.092
34146W        W99406  11.724  29.531   0.581
34147W        W99407  14.771   8.434   2.601
34148W        W99408   3.591  35.702  13.024
34149W        W99409   3.063  20.624  12.941
34150W        W99410  11.789  12.595   2.690
34151W        W99411  23.445  44.600   4.112
34152W        W99412  15.248  42.438   3.660
34153W        W99413  40.808   4.195   0.732
34154W        W99414  14.177  33.625  14.723
34155W        W99415   4.669  16.323  12.060
34156W        W99416  18.817   2.467  12.899
34157W        W99417   3.519   6.121  14.861
34158W        W99418  15.720  31.453  11.507
34159W        W99419  37.887  37.607  12.984
34160W        W99420  26.585   0.704   1.869
34161W        W99421   9.260   0.090   0.775
34162W        W99422  24.648  40.795   4.083
34163W        W99423  36.800  36.992   4.186
34164W        W99424  16.332  22.634  12.524
34165W        W99425  10.823  22.980   2.884
34166W        W99426   0.961   8.793  10.756
34167W        W99427  29.567   9.899   3.089
34168W        W99428  22.966   9.785  13.827
34169W        W99429  23.590  28.368  11.173
34170W        W99430  31.042  28.191  14.827
34171W        W99431  35.591  22.766   2.724
34172W        W99432  22.437  26.737   1.155
34173W        W99433  40.481  43.909   3.123
34174W        W99434  13.918   3.047  13.907
34175W        W99435  24.119  20.179  12.924
34176W        W99436  32.465  22.653   1.685
34177W        W99437  41.861  12.548   2.299
34178W        W99438  22.969  33.835   0.216
34179W        W99439   0.472  39.269  12.355
34180W        W99440  41.558  15.242   1.176
34181W        W99441  30.082   6.359  14.273
34182W        W99442  18.306  34.326   4.575
34183W        W99443  41.529   9.092  12.161
34184W        W99444   8.080  14.710  13.944
34185W        W99445   8.319  42.144   2.339
34186W        W99446  27.295   7.196  14.643
34187W        W99447   6.982  22.770  13.383
34188W        W99448  13.658  32.640   0.453
34189W        W99449  33.888   5.960  11.891
34190W        W99450  30.829  33.365   2.905
34191W        W99451  20.606  33.899   2.792
34192W        W99452  36.142  23.508  13.871
34193W        W99453  14.812  17.101   0.216
34194W        W99454  15.622   3.418  12.916
34195W        W99455  33.881  36.965   3.218
34196W        W99456  35.796   3.256   3.132
34197W        W99457   8.979  36.446  11.541
34198W        W99458   6.332  41.289   2.307
34199W        W99459  21.697   9.987  11.266
34200W        W99460  37.632  16.133   2.440
34201W        W99461  35.808   5.386   1.812
34202W        W99462  16.841  42.445  13.811
34203W        W99463  12.932  11.749   2.760
34204W        W99464  11.911  26.546   5.093
34205W        W99465  41.037  32.739  11.631
34206W        W99466  32.372  11.722   4.621
34207W        W99467  12.907  26.633   5.073
34208W        W99468   6.031  19.400   3.679
34209W        W99469  13.093   0.485  11.133
34210W        W99470  24.124  36.559   3.150
34211W        W99471  23.151   3.707  12.957
34212W        W99472  41.882  37.832  14.544
34213W        W99473  29.859   9.110   4.845
34214W        W99474  24.574  41.830   4.171
34215W        W99475  38.911   2.250  14.565
34216W        W99476  31.955  35.067   0.177
34217W        W99477  27.266  42.837  14.386
34218W        W99478   9.246  27.139   3.503
34219W        W99479  25.317  29.726  11.199
34220W        W99480  43.764  37.039   2.241
34221W        W99481  17.527  41.907   0.917
34222W        W99482  26.150  24.453  14.506
34223W        W99483  14.891  27.926  11.462
34224W        W99484  25.070  31.188   1.361
34225W        W99485  22.745  29.053  14.055
34226W        W99486   3.375  40.388  10.622
34227W        W99487   2.388   3.284   0.207
34228W        W99488   4.209   5.228  11.187
34229W        W99489  30.248  23.641  11.627
34230W        W99490  32.661  38.371   4.310
34231W        W99491  14.285  14.617  13.039
34232W        W99492  35.696  34.382   0.794
34233W        W99493   8.939  17.197  10.912
34234W        W99494  36.221  14.320   0.695
34235W        W99495   8.599  21.478   1.400
34236W        W99496  13.771  39.568  11.111
34237W        W99497   0.840   8.091   1.770
34238W        W99498   5.673  41.418   1.171
34239W        W99499  27.562   6.079   3.686
34240W        W99500  32.384   4.370  11.201
34241W        W99501  27.672   2.963  12.761
34242W        W99502  30.658  33.350   5.005
34243W        W99503   7.044   2.008  12.911
34244W        W99504  42.333  39.973   0.794
34245W        W99505   7.348   1.144  11.500
34246W        W99506  28.119  20.584   2.803
34247W        W99507   2.674  17.290   2.329
34248W        W99508   1.460  19.534  12.361
34249W        W99509  16.937  11.903  11.542
34250W        W99510  40.445  35.856   1.841
34251W        W99511   6.599  10.854   0.889
34252W        W99512   8.903  25.077  14.397
34253W        W99513  42.646  27.580   4.730
34254W        W99514  32.990  20.277  11.496
34255W        W99515  14.209  18.534  12.993
34256W        W99516  16.218   9.031   1.976
34257W        W99517  29.948  36.012   4.239
34258W        W99518  35.189  21.119  10.702
34259W        W99519  18.142  12.412   0.893
34260W        W99520   8.810  35.054   0.667
34261W        W99521  32.621  29.260  11.114
34262W        W99522  23.400  23.133   4.948
34263W        W99523  14.136  16.276   2.882
34264W        W99524   6.922  24.457  11.463
34265W        W99525  41.158  37.573   2.160
34266W        W99526  23.065  41.464  11.066
34267W        W99527   2.222  14.818  14.889
34268W        W99528  33.668   4.856   0.822
34269W        W99529   4.684  35.941   0.420
34270W        W99530   3.340  25.279  14.518
34271W        W99531  20.142  11.847  11.268
34272W        W99532  12.528  25.942   1.235
34273W        W99533  17.867  22.038  14.573
34274W        W99534  16.834  39.482   1.742
34275W        W99535   2.239  24.643   0.981
34276W        W99536  11.443  15.236  13.922
34277W        W99537  33.991  36.637   0.344
34278W        W99538  22.670  29.668  12.148
34279W        W99539  27.515  16.196  14.536
34280W        W99540  19.264  10.215  13.055
34281W        W99541  34.130  12.620  12.631
34282W        W99542  10.351  18.775  13.324
34283W        W99543  35.515  23.625  10.481
34284W        W99544  19.758   5.007   3.654
34285W        W99545  35.049  31.829   0.347
34286W        W99546  18.186  38.569  12.508
34287W        W99547  29.583  12.060  13.376
34288W        W99548   8.638  43.488  14.817
34289W        W99549   1.071  23.047   4.147
34290W        W99550  43.161   5.182  13.443
34291W        W99551  29.108  19.020  14.819
34292W        W99552   3.762   3.389  13.857
34293W        W99553  33.897   3.047  14.265
34294W        W99554  17.401  30.319   5.041
34295W        W99555  34.095   9.989  11.141
34296W        W99556  29.559  25.435   2.859
34297W        W99557   7.319  21.681  12.937
34298W        W99558   4.566  13.993   1.543
34299W        W99559  25.452  29.572   2.630
34300W        W99560  25.692  37.134  10.261
34301W        W99561   5.507  39.099  13.537
34302W        W99562  20.431  34.927  13.388
34303W        W99563  39.904  25.451  13.533
34304W        W99564   4.294  26.985   3.174
34305W        W99565  14.628   0.232   4.268
34306W        W99566  42.943  19.796  13.505
34307W        W99567  29.576  27.547   0.968
34308W        W99568   7.942  30.479   0.996
34309W        W99569  30.504  28.114   2.225
34310W        W99570  20.396  19.777   4.007
34311W        W99571   1.873   9.923   2.341
34312W        W99572  33.623  41.042   4.526
34313W        W99573  21.443  42.319   2.296
34314W        W99574  37.877  42.758   2.574
34315W        W99575  22.616  32.684   0.717
34316W        W99576  24.118   7.432   4.292
34317W        W99577  19.488  20.055   2.208
34318W        W99578   1.311  28.529  12.440
34319W        W99579  21.500  22.098  10.473
34320W        W99580  44.771   8.744  13.349
34321W        W99581  42.804   7.204   2.006
34322W        W99582  11.370  22.997  13.213
34323W        W99583  39.528  11.248   3.808
34324W        W99584  40.553   5.399  11.726
34325W        W99585   8.768   6.911  12.935
34326W        W99586  36.783  44.732   2.793
34327W        W99587  17.705  19.169   3.794
34328W        W99588   4.453  44.731   0.868
34329W        W99589   9.872  31.878  13.006
34330W        W99590  41.893  12.701   4.628
34331W        W99591  40.277  30.544  11.112
34332W        W99592  41.727  35.997   4.572
34333W        W99593  13.360  26.655   3.701
34334W        W99594   7.703   1.874   1.176
34335W        W99595  17.739  13.571  13.421
34336W        W99596  12.052  36.865   0.671
34337W        W99597   2.359  13.607   3.445
34338W        W99598  25.823  29.433  12.342
34339W        W99599  25.599  17.851   3.206
34340W        W99600  20.260  19.438   5.072
34341W        W99601  16.310  44.929   2.851
34342W        W99602   7.551   1.326  13.102
34343W        W99603   8.933  34.574   4.327
34344W        W99604   4.183  41.836  13.520
34345W        W99605  36.048   6.320  14.975
34346W        W99606  17.060  11.342   0.451
34347W        W99607  11.324  10.391   2.357
34348W        W99608  17.653  44.721  11.067
34349W        W99609  23.495  20.243   4.321
34350W        W99610  27.175   3.016  12.913
34351W        W99611   3.197  13.806   4.615
34352W        W99612   2.131  14.131  13.259
34353W        W99613   2.798  16.342  13.130
34354W        W99614   2.483  42.044   1.361
34355W        W99615  16.007   5.702  14.712
34356W        W99616  44.442  26.157   1.658
34357W        W99617  14.646  44.234   0.252
34358W        W99618  23.117  16.477  12.067
34359W        W99619  12.178  25.741  10.495
34360W        W99620  32.391   8.154  10.840
34361W        W99621  29.720  10.381   3.794
34362W        W99622  43.437   1.088   3.292
34363W        W99623  39.803  43.929   1.902
34364W        W99624  30.692  27.406  12.139
34365W        W99625  37.029   4.202  12.418
34366W        W99626  20.523  11.232   3.102
34367W        W99627  21.357   8.791  11.099
34368W        W99628  29.884  12.171   0.793
34369W        W99629  32.590   6.305  11.520
34370W        W99630  14.205  17.145  12.999
34371W        W99631   5.283  44.289  11.690
34372W        W99632  12.535  22.681   1.516
34373W        W99633  22.701   0.817  13.591
34374W        W99634   8.915  18.125   2.153
34375W        W99635  12.702   5.889   4.362
34376W        W99636  36.504  24.888   0.734
34377W        W99637  36.467  41.269  10.712
34378W        W99638  11.653   8.165   2.689
34379W        W99639  22.372  40.296  12.936
34380W        W99640   6.279  15.171  12.087
34381W        W99641  42.443  20.807  14.816
34382W        W99642  38.025  29.426  14.044
34383W        W99643  14.005  26.100  14.442
34384W        W99644   0.092  39.505   3.537
34385W        W99645  19.633  12.752   0.135
34386W        W99646   5.300  31.588  12.788
34387W        W99647  20.967   6.389   1.818
34388W        W99648  42.227  34.571   1.344
34389W        W99649  30.960   7.202   5.110
34390W        W99650  20.159  42.751   1.192
34391W        W99651   9.374  34.471   0.292
34392W        W99652   2.420  31.717  10.484
34393W        W99653   2.426   3.950  14.247
34394W        W99654  10.027   1.208  11.159
34395W        W99655  14.559  40.012  12.292
34396W        W99656  35.894   5.278  13.363
34397W        W99657   3.557  26.814  14.849
34398W        W99658  19.214   1.536  13.047
34399W        W99659  38.005  19.404   2.021
34400W        W99660  26.069  32.023   0.665
34401W        W99661  32.171  37.944   4.970
34402W        W99662  35.549  21.106  12.045
34403W        W99663   6.396  39.394   0.717
34404W        W99664  15.643   2.508  14.850
34405W        W99665  29.146   2.050  12.338
34406W        W99666  22.050  35.865   2.954
34407W        W99667  18.623  22.421   0.898
34408W        W99668  10.724  18.039   3.198
34409W        W99669  28.018  37.970   0.413
34410W        W99670  43.957   7.869  14.549
34411W        W99671  21.111  16.171  13.005
34412W        W99672  32.482  30.136  10.935
34413W        W99673  43.576  19.303  11.108
34414W        W99674  11.029  44.381   0.690
34415W        W99675  27.677  27.266   1.502
34416W        W99676   9.643  21.599   2.188
34417W        W99677   4.366   3.734   2.285
34418W        W99678  14.852   7.161  10.639
34419W        W99679  12.170  16.724  14.499
34420W        W99680  34.047  19.194   4.319
34421W        W99681  22.793  20.159  11.543
34422W        W99682  36.829  10.177  14.291
34423W        W99683  10.371   6.323  10.154
34424W        W99684  12.289  33.067   4.340
34425W        W99685   2.785   5.831  13.926
34426W        W99686  18.669  32.178   3.740
34427W        W99687  24.574  20.201   3.618
34428W        W99688  34.533  43.134  12.401
34429W        W99689  14.210   0.991  13.968
34430W        W99690  12.613  25.706  12.122
34431W        W99691  15.276   5.035   4.351
34432W        W99692   8.895   3.875  14.235
34433W        W99693  36.315  15.180   1.062
34434W        W99694  12.754  24.128  11.825
34435W        W99695  29.193  35.160  14.825
34436W        W99696  17.077  41.280  13.578
34437W        W99697   9.520  17.795   2.677
34438W        W99698  30.123  14.289  13.060
34439W        W99699   8.332  23.970   2.286
34440W        W99700   1.798   8.194   1.705
34441W        W99701  40.833  40.756   3.491
34442W        W99702  35.972  27.356   1.407
34443W        W99703  33.430  11.744   1.843
34444W        W99704  11.265  11.192  10.545
34445W        W99705   3.454   5.922   4.362
34446W        W99706  35.099   0.648   2.720
34447W        W99707  29.377  28.165   4.415
34448W        W99708  13.896  23.151  14.627
34449W        W99709  22.746  33.527   5.088
34450W        W99710   9.232  44.967  12.786
34451W        W99711   3.571   9.264   0.919
34452W        W99712   4.824  43.993  13.085
34453W        W99713  35.110  25.221  11.561
34454W        W99714  24.780   5.520   1.264
34455W        W99715  43.656  26.568   3.881
34456W        W99716  29.526  19.212   3.201
34457W        W99717  27.415  26.673   2.699
34458W        W99718   8.911  43.928   4.699
34459W        W99719  16.034   6.002   2.801
34460W        W99720  26.037   3.490   2.911
34461W        W99721  43.375  17.314  13.063
34462W        W99722  28.772  20.104  14.308
34463W        W99723  17.697  22.324  12.087
34464W        W99724  42.515   5.947   2.864
34465W        W99725  18.270  28.978   4.856
34466W        W99726   6.658   8.615  13.962
34467W        W99727   9.864  23.121  14.288
34468W        W99728   9.779  18.621   4.096
34469W        W99729  10.300  32.641  12.924
34470W        W99730  22.698  14.005  14.075
34471W        W99731   2.694  25.680   1.996
34472W        W99732  20.980   9.701   1.227
34473W        W99733  10.153  32.172   4.108
34474W        W99734  43.111  34.312  12.535
34475W        W99735  32.188  14.887   4.057
34476W        W99736   9.831  34.733   3.707
34477W        W99737  28.827   8.669   2.762
34478W        W99738  27.613  22.074  12.003
34479W        W99739  24.570  42.082   0.844
34480W        W99740  14.379  11.215  12.029
34481W        W99741   5.940   7.283   0.379
34482W        W99742  14.131  35.557   4.664
34483W        W99743   5.986   5.952  14.223
34484W        W99744  13.062  37.025  14.454
34485W        W99745  22.985  43.742  12.744
34486W        W99746  24.994  29.022   2.331
34487W        W99747  39.391  22.238  11.331
34488W        W99748   7.515  24.251  14.958
34489W        W99749   4.479  32.348  11.232
34490W        W99750  42.878  24.645   4.823
34491W        W99751   7.329  22.748  14.428
34492W        W99752  28.605  43.469   0.563
34493W        W99753  18.332  24.189   4.900
34494W        W99754  15.779  16.569   3.762
34495W        W99755  44.403   4.170   1.815
34496W        W99756  20.998  34.499   3.268
34497W        W99757  27.099  25.234   2.860
34498W        W99758  14.324   3.548  11.446
34499W        W99759  39.165   7.423  12.556
34500W        W99760   7.307   2.954  14.990
34501W        W99761  21.529  30.184   2.329
34502W        W99762   4.920  44.489   3.642
34503W        W99763  20.526  43.403  11.511
34504W        W99764   1.217  10.581  13.865
34505W        W99765  43.685  44.523  11.629
34506W        W99766  11.091  31.009   0.508
34507W        W99767  21.800  39.762  10.351
34508W        W99768  39.615   2.974   3.031
34509W        W99769  35.951  31.993   1.617
34510W        W99770   2.508   4.453   1.820
34511W        W99771   7.254  27.200   2.153
34512W        W99772  44.902  42.419   2.667
34513W        W99773   2.654  36.397   3.687
34514W        W99774   5.803  40.373   2.207
34515W        W99775  25.255   4.894   0.204
34516W        W99776  44.293   4.153   2.879
34517W        W99777  19.472   4.301  12.560
34518W        W99778  16.768  24.537  10.556
34519W        W99779  37.486  16.149  11.864
34520W        W99780  20.028  44.939  12.928
34521W        W99781   6.734  20.473  11.009
34522W        W99782   2.930  19.163  14.328
34523W        W99783  22.732  38.409  12.434
34524W        W99784  22.084   0.788   3.645
34525W        W99785  28.873  35.859  11.886
34526W        W99786   6.030   2.132   0.935
34527W        W99787  40.019  11.469   5.532
34528W        W99788  12.731  22.737   0.572
34529W        W99789  17.643   0.754   3.996
34530W        W99790  43.827  25.211   1.901
34531W        W99791  28.102  24.576  10.120
34532W        W99792  22.530  36.451  14.496
34533W        W99793  13.683  32.407   1.284
34534W        W99794  13.854  41.397   0.676
34535W        W99795  10.195  27.855   1.466
34536W        W99796  38.293  41.736  10.883
34537W        W99797  15.456  27.543   1.173
34538W        W99798  21.958  20.914  11.547
34539W        W99799  34.897  22.765  14.361
34540W        W99800  29.470   1.636  13.550
34541W        W99801  23.099   2.843  10.556
34542W        W99802  23.199  42.927   3.280
34543W        W99803  22.744  16.262   3.067
34544W        W99804  32.647  16.535  11.124
34545W        W99805  12.105   9.184  13.860
34546W        W99806  35.405  21.347  13.157
34547W        W99807  31.595  22.057   4.537
34548W        W99808  19.679   1.177  11.955
34549W        W99809  35.820   3.175  12.028
34550W        W99810  19.729  43.388   1.807
34551W        W99811  21.176  16.985   5.077
34552W        W99812  12.364  35.444  10.730
34553W        W99813  39.928  32.193   4.268
34554W        W99814  38.593  38.973   1.239
34555W        W99815  12.582  27.997   3.629
34556W        W99816  39.629  40.346  14.320
34557W        W99817  41.533   3.390  10.612
34558W        W99818  12.645   9.761  11.872
34559W        W99819  18.205  44.582   3.615
34560W        W99820  29.950  31.340  10.359
34561W        W99821   9.227   9.797  11.513
34562W        W99822  43.506  19.774  14.016
34563W        W99823   6.774   2.954  11.482
34564W        W99824  29.787  25.604  11.382
34565W        W99825  26.740  19.561  12.531
34566W        W99826  25.512  28.985  10.377
34567W        W99827   8.274  32.097  10.496
34568W        W99828   4.873  16.519   2.852
34569W        W99829  34.396  39.467   0.526
34570W        W99830  37.934   1.896  12.664
34571W        W99831   9.115  44.196   0.787
34572W        W99832  31.778  22.090  12.093
34573W        W99833  16.979  21.805   4.582
34574W        W99834  29.185  21.024  13.955
34575W        W99835  14.380  44.253  13.390
34576W        W99836  44.386  41.384   1.835
34577W        W99837   4.824  21.039   5.093
34578W        W99838  31.854  12.343  14.367
34579W        W99839  12.707  12.437  14.383
34580W        W99840  12.869   4.351  13.472
34581W        W99841  39.507  12.630  10.424
34582W        W99842   9.193   0.482  14.027
34583W        W99843  27.621  34.085  11.141
34584W        W99844  43.439  44.337  11.207
34585W        W99845  27.248  33.427   2.316
34586W        W99846  11.534   2.071   9.798
34587W        W99847  16.395   6.916   4.685
34588W        W99848  15.882   8.954  14.237
34589W        W99849  39.615  30.342   0.326
34590W        W99850  20.367  18.723  12.942
34591W        W99851   8.383  38.297   2.714
34592W        W99852   6.886   2.205   2.131
34593W        W99853  25.398  25.461   4.101
34594W        W99854  42.131  33.438  11.972
34595W        W99855  10.011   3.537   3.336
34596W        W99856  14.370  34.466   0.724
34597W        W99857  20.876  40.594   1.742
34598W        W99858  44.849  18.966  10.979
34599W        W99859  43.450   0.179   3.699
34600W        W99860   8.740  13.537  13.366
34601W        W99861   8.244  44.912  12.471
34602W        W99862   2.830  36.983  14.749
34603W        W99863  23.634  29.182   2.320
34604W        W99864  36.090  43.821  12.918
34605W        W99865  19.585  43.778  11.729
34606W        W99866  13.307  20.217  10.724
34607W        W99867  44.779  43.605  13.914
34608W        W99868  29.349  27.422   2.267
34609W        W99869  10.175  35.325  12.516
34610W        W99870   4.594  33.101  12.031
34611W        W99871  24.218  13.116   4.334
34612W        W99872  14.454   8.307   4.494
34613W        W99873  15.778  32.679   0.970
34614W        W99874  22.996  39.271  12.533
34615W        W99875  11.365   3.700   2.503
34616W        W99876  24.741  27.492   1.915
34617W        W99877  31.568  18.266   1.387
34618W        W99878  38.355  21.311   4.519
34619W        W99879  19.122  37.617   4.376
34620W        W99880  22.636  35.615  14.860
34621W        W99881  43.697  10.211   3.796
34622W        W99882  41.649  28.974  11.966
34623W        W99883   6.303  43.969   1.666
34624W        W99884  26.931  27.964  11.686
34625W        W99885  11.514  28.953  12.972
34626W        W99886  14.235   7.436   1.301
34627W        W99887   7.803   6.113   3.976
34628W        W99888  29.432  24.518  12.973
34629W        W99889   9.813  27.179   4.013
34630W        W99890  20.726   0.280   3.835
34631W        W99891   2.994  13.900   1.333
34632W        W99892  44.604  11.259  14.550
34633W        W99893  37.916   1.338   2.598
34634W        W99894  30.658  32.102   2.427
34635W        W99895   6.112   1.549   4.809
34636W        W99896  23.424  14.484  13.246
34637W        W99897  10.073  28.424  12.021
34638W        W99898   6.517   6.833  10.779
34639W        W99899   7.001  29.997  10.614
34640W        W99900   9.663  30.203  13.197
34641W        W99901  39.052   6.034  11.608
34642W        W99902  18.023  10.947  11.135
34643W        W99903  27.004   0.240  13.376
34644W        W99904  39.732  32.844   2.236
34645W        W99905  31.759  35.538   0.002
34646W        W99906  24.697  24.021  10.796
34647W        W99907  37.552  13.222  13.053
34648W        W99908   8.960   2.821   2.587
34649W        W99909  14.355  43.733  14.792
34650W        W99910  24.585   0.235   0.089
34651W        W99911  43.512   0.738   0.402
34652W        W99912   5.977  27.449  12.390
34653W        W99913  42.977  16.208   3.664
34654W        W99914  26.245   1.720   2.357
34655W        W99915   9.838   9.805   0.511
34656W        W99916  29.516   3.441  13.836
34657W        W99917  13.657  14.262  11.648
34658W        W99918  34.128   7.688  13.352
34659W        W99919  14.252   5.167  12.011
34660W        W99920  40.058  41.109   3.218
34661W        W99921  22.480  12.858   3.127
34662W        W99922   7.151   0.739  12.454
34663W        W99923  41.841  32.309   3.744
34664W        W99924   9.856  40.626   3.986
34665W        W99925  10.665  33.934   2.403
34666W        W99926   4.930  31.461  10.634
34667W        W99927  19.130  22.982   3.183
34668W        W99928  30.061  38.712  14.955
34669W        W99929  39.322  20.829  12.463
34670W        W99930  32.192   1.434   1.528
34671W        W99931  37.324  19.575   3.151
34672W        W99932  36.517  39.699  13.103
34673W        W99933  32.467   6.168   4.069
34674W        W99934  34.113   4.861  12.600
34675W        W99935   5.429  44.217  14.440
34676W        W99936   8.209  31.539  12.913
34677W        W99937  37.783  18.299  11.661
34678W        W99938  19.959   7.853   4.403
34679W        W99939  10.520  30.439   3.467
34680W        W99940   8.585  44.515  12.576
34681W        W99941  34.472   3.670   2.992
34682W        W99942  32.132  31.711   2.233
34683W        W99943   9.678  40.661  11.963
34684W        W99944   7.132  31.631   2.624
34685W        W99945  43.912   8.883  14.338
34686W        W99946  34.477   2.797  14.924
34687W        W99947  34.998   7.890  11.395
34688W        W99948   1.395  40.963  11.145
34689W        W99949  10.072   8.449  10.896
34690W        W99950  16.534  15.721   4.231
34691W        W99951  13.788  31.350   2.293
34692W        W99952  13.859  22.560   3.246
34693W        W99953  16.136  17.980  14.926
34694W        W99954  44.977  30.598   4.525
34695W        W99955  44.263  30.913  10.980
34696W        W99956  17.737  42.796   1.714
34697W        W99957  14.666  17.220   1.414
34698W        W99958  36.481  43.555  12.031
34699W        W99959  22.121   5.964  11.795
34700W        W99960   7.155  42.829   3.797
34701W        W99961  28.659  27.414  11.914
34702W        W99962   1.648  30.605   1.087
34703W        W99963  31.178   1.352  11.561
34704W        W99964  31.676   5.789  12.855
34705W        W99965   8.987  16.999   4.964
34706W        W99966  17.295  28.502  12.393
34707W        W99967   9.841  21.348   0.232
34708W        W99968  24.632  41.310   4.058
34709W        W99969  44.802  35.095  14.399
34710W        W99970  18.238  10.270  10.383
34711W        W99971  36.619  37.120   1.366
34712W        W99972   7.689  40.096  11.667
34713W        W99973  41.427  11.157  14.701
34714W        W99974  28.025  26.063  13.938
34715W        W99975   4.210  38.402  11.603
34716W        W99976  13.682  29.418   4.129
34717W        W99977  44.304  12.834   2.865
34718W        W99978  28.518  32.099   0.814
34719W        W99979  14.157  43.106  13.916
34720W        W99980  15.607  11.790   0.250
34721W        W99981  19.266  14.824   0.871
34722W        W99982  13.672  35.899   4.720
34723W        W99983  39.173  23.708   0.027
34724W        W99984  36.353   1.550  12.539
34725W        W99985  41.061  37.828  11.676
34726W        W99986  32.162  28.640  10.913
34727W        W99987  18.675  24.823   2.481
34728W        W99988   6.735  26.500  12.691
34729W        W99989   2.894  12.754   4.816
34730W        W99990  33.325  14.399  10.285
34731W        W99991  30.586  38.965  10.668
34732W        W99992  31.660  11.351  14.524
34733W        W99993   3.871  29.080   4.709
34734W        W99994  36.879  44.748  14.698
34735W        W99995  12.642  37.442   0.284
34736W        W99996  35.444   9.409  14.007
34737W        W99997  20.662  21.634  13.768
34738W        W99998  19.189  34.502  12.485
34739W        W99999  26.688  28.739   1.524
34740W        W    0  34.992   8.818   1.082
34741W        W    1  28.512   1.160  14.386
34742W        W    2   3.889  30.962   4.429
34743W        W    3  43.660   9.664   3.372
34744W        W    4  37.447   4.903  13.474
34745W        W    5   7.419  37.921   3.145
34746W        W    6  13.571   6.807   2.753
34747W        W    7  28.479  38.043  13.420
34748W        W    8  10.723  33.400   2.379
34749W        W    9   6.007  10.860  10.102
34750W        W   10  15.126  28.137  12.668
34751W        W   11  37.855  36.424   0.814
34752W        W   12   7.105  44.262   1.016
34753W        W   13  21.199  15.762   1.811
34754W        W   14  29.244   2.322   2.667
34755W        W   15   2.201   2.169   2.016
34756W        W   16  18.109   2.909   3.792
34757W        W   17  38.363  31.947  13.838
34758W        W   18  21.429  37.563  10.377
34759W        W   19  36.831   7.283  11.941
34760W        W   20  31.921  23.157  14.373
34761W        W   21   8.943  42.223   1.204
34762W        W   22  13.742   8.328   1.173
34763W        W   23   5.865  32.912   1.794
34764W        W   24  25.083   7.374  12.127
34765W        W   25   5.770  18.238   2.312
34766W        W   26  37.088  15.844  11.677
34767W        W   27  39.823   6.533   2.001
34768W        W   28  18.123  15.109   4.590
34769W        W   29  12.857  42.935   4.658
34770W        W   30  31.819  13.292   0.306
34771W        W   31  14.395   8.010   3.246
34772W        W   32  37.582  35.786   1.382
34773W        W   33  17.097  44.520   3.236
34774W        W   34  33.386  42.026  13.864
34775W        W   35   7.650  29.448   3.832
34776W        W   36  20.952   0.036   4.674
34777W        W   37  32.024   0.993   0.546
34778W        W   38  14.784   8.917   0.838
34779W        W   39  19.199  22.588   0.155
34780W        W   40  12.955  19.655   4.990
34781W        W   41  27.939   6.098   4.521
34782W        W   42  18.594  23.099   5.025
34783W        W   43  25.148  42.586   4.171
34784W        W   44  12.364  24.287   1.872
34785W        W   45  36.006  20.571  14.175
34786W        W   46  24.911  11.666   1.316
34787W        W   47  42.535  13.904   3.111
34788W        W   48   8.678  27.091   1.735
34789W        W   49  15.691  34.621   3.648
34790W        W   50  35.825  10.729  13.047
34791W        W   51  30.570  15.840  13.294
34792W        W   52   5.793  13.574  12.975
34793W        W   53  28.885  26.918   1.981
34794W        W   54  26.020   2.318   2.897
34795W        W   55   4.953  11.519   4.501
34796W        W   56  32.625   8.350   4.166
34797W        W   57   5.196  23.165  12.373
34798W        W   58  27.762  32.480   4.814
34799W        W   59   1.422  15.685   1.458
34800W        W   60   7.424   7.992  13.596
34801W        W   61   3.741  24.120  11.672
34802W        W   62   0.600  11.873  12.469
34803W        W   63  23.790  40.312  12.871
34804W        W   64   5.466  32.800  12.468
34805W        W   65   7.957  29.049   3.844
34806W        W   66  34.194  24.556  11.105
34807W        W   67   6.642   2.872   1.349
34808W        W   68  35.865  33.506  14.582
34809W        W   69  25.051   0.758  11.858
34810W        W   70  34.527  18.901  11.836
34811W        W   71   0.989   4.969  13.755
34812W        W   72  16.975   0.233   1.283
34813W        W   73  28.965  44.164   0.424
34814W        W   74   2.706  43.868  13.354
34815W        W   75   0.500   8.405   0.218
34816W        W   76  22.236  10.719   1.967
34817W        W   77  25.978  14.534  14.749
34818W        W   78  20.856  43.625  14.417
34819W        W   79   4.333  18.482  10.687
34820W        W   80  33.763  18.668   1.679
34821W        W   81  35.870  17.068   1.159
34822W        W   82  25.396  43.706  13.080
34823W        W   83  41.863  30.404  11.255
34824W        W   84  29.342  24.717  13.979
34825W        W   85  20.117  22.068   3.187
34826W        W   86  29.665  42.710  12.148
34827W        W   87   1.045   2.017   3.087
34828W        W   88  38.889  16.068   4.716
34829W        W   89  18.356  13.634  14.976
34830W        W   90   1.948  10.438   2.387
34831W        W   91  34.866  43.609  11.423
34832W        W   92  14.398  28.242  11.543
34833W        W   93   9.732  18.324   1.727
34834W        W   94  39.502  12.693   2.322
34835W        W   95  43.832  19.128   4.163
34836W        W   96  38.139  23.646  11.824
34837W        W   97  19.112  34.478  14.383
34838W        W   98  37.739   5.796  14.081
34839W        W   99  12.336  40.033  14.949
34840W        W  100  39.315  18.739   2.174
34841W        W  101  43.787   4.773  10.253
34842W        W  102  43.503  30.529   4.740
34843W        W  103  31.310   9.777   2.774
34844W        W  104  37.799  13.303   1.498
34845W        W  105   3.773  26.914   3.088
34846W        W  106   4.274  41.075   1.350
34847W        W  107  42.452  30.141  13.202
34848W        W  108   0.057  24.657  12.032
34849W        W  109  31.852  40.766   4.695
34850W        W  110  21.088   5.854   5.095
34851W        W  111  34.395  26.477   0.903
34852W        W  112  34.755   8.850   4.877
34853W        W  113  15.549  23.747  14.332
34854W        W  114  15.338  15.192  13.956
34855W        W  115   1.316  24.371  14.343
34856W        W  116  36.449  28.221   0.391
34857W        W  117  18.541  31.031  14.780
34858W        W  118  44.238  30.640  10.501
34859W        W  119   7.167  37.548   4.313
34860W        W  120  19.029  11.286   1.356
34861W        W  121  30.800  18.732  11.600
34862W        W  122  24.778  10.733  14.893
34863W        W  123  20.751  21.705  12.006
34864W        W  124  26.569  33.205   4.124
34865W        W  125  20.619  14.092  14.797
34866W        W  126  33.430  23.037  11.239
34867W        W  127  13.300   2.163  14.793
34868W        W  128  43.888   6.406   4.945
34869W        W  129  32.113  31.970   4.435
34870W        W  130  16.579  12.272   0.815
34871W        W  131   4.448  10.292   0.472
34872W        W  132  14.267  22.648   1.310
34873W        W  133   5.714   1.172  14.942
34874W        W  134  16.190  38.031   2.336
34875W        W  135   3.588   7.857   4.299
34876W        W  136  18.101  26.177  12.038
34877W        W  137  30.467  15.838   2.341
34878W        W  138   6.958  33.609   0.980
34879W        W  139  18.176   0.195  13.092
34880W        W  140  41.995   8.277  12.551
34881W        W  141  16.902   6.731  10.664
34882W        W  142  41.788   4.355  11.856
34883W        W  143  24.286   5.787  14.757
34884W        W  144  17.140   0.387  14.056
34885W        W  145   9.234  17.709  12.003
34886W        W  146   9.770   4.727  11.287
34887W        W  147  13.640  26.101  13.571
34888W        W  148  27.704  20.602  14.497
34889W        W  149  38.118  32.922   1.826
34890W        W  150   7.617   2.368  12.130
34891W        W  151  21.810  23.054   2.352
34892W        W  152  21.593  13.859   3.370
34893W        W  153  20.149  31.865   0.346
34894W        W  154   4.798  41.001   1.345
34895W        W  155  33.240  39.846  12.113
34896W        W  156  31.511  17.802   4.702
34897W        W  157  39.747   4.108  11.601
34898W        W  158  19.636  35.624   4.551
34899W        W  159  32.873  35.425   3.108
34900W        W  160   4.547  29.523   0.301
34901W        W  161  20.651   2.303   4.593
34902W        W  162  13.216   0.193   4.450
34903W        W  163  26.115  39.906   0.148
34904W        W  164  40.789  31.036  13.061
34905W        W  165  18.962  20.070   2.230
34906W        W  166  27.582   7.260   4.235
34907W        W  167  38.576  43.311  11.979
34908W        W  168   2.754  31.465   0.477
34909W        W  169  39.474  13.155  10.449
34910W        W  170  39.034  27.079   3.806
34911W        W  171  11.315  36.830  11.220
34912W        W  172  14.696  35.126  14.764
34913W        W  173  37.539  23.539  10.461
34914W        W  174  21.810  40.845   1.269
34915W        W  175  15.211  31.656   3.166
34916W        W  176   1.843  32.025  14.515
34917W        W  177  43.403  11.626  12.054
34918W        W  178  36.721   8.449  13.459
34919W        W  179   3.788  24.626  11.609
34920W        W  180   3.367  44.288   4.644
34921W        W  181  15.976   1.252  11.532
34922W        W  182   8.059  44.545  11.366
34923W        W  183   4.707   3.829   4.836
34924W        W  184  38.502  32.829   2.275
34925W        W  185  43.350  23.777  12.890
34926W        W  186  27.749  13.997  12.029
34927W        W  187  16.070  34.963   2.715
34928W        W  188  16.613  39.867  13.286
34929W        W  189   6.640   8.698  14.892
34930W        W  190  27.234   2.646   3.565
34931W        W  191  13.771  12.063   1.647
34932W        W  192  30.648   8.870  13.807
34933W        W  193  27.007  16.478   3.217
34934W        W  194  19.515   4.278  11.134
34935W        W  195  35.309  27.398  12.900
34936W        W  196  28.632  23.209   1.775
34937W        W  197   0.053  12.271   0.331
34938W        W  198   9.422  34.081   2.669
34939W        W  199   3.771   2.010  10.744
34940W        W  200  15.101  26.193  11.139
34941W        W  201  21.493  17.650  11.712
34942W        W  202  20.788   2.479   1.298
34943W        W  203  31.184  13.649  12.095
34944W        W  204  19.157  24.433  11.617
34945W        W  205   4.834  30.733   0.938
34946W        W  206  40.156  43.822  13.024
34947W        W  207   6.300  15.875  12.809
34948W        W  208   1.362  22.140  12.819
34949W        W  209  17.410   4.329  13.310
34950W        W  210  25.309  16.568  11.102
34951W        W  211  43.861   9.953   1.247
34952W        W  212   6.885  43.822   2.311
34953W        W  213  27.129  40.354  11.131
34954W        W  214  24.114  40.096   3.216
34955W        W  215  20.206  33.859  10.999
34956W        W  216  17.187  32.036   3.624
34957W        W  217  15.142  33.910   2.290
34958W        W  218  23.593  44.396  11.161
34959W        W  219  43.059  24.829   3.996
34960W        W  220  36.347  43.393  12.985
34961W        W  221  23.466  33.554   0.011
34962W        W  222  25.128  22.449  12.853
34963W        W  223  35.553  25.213   1.691
34964W        W  224  30.067  27.205   2.680
34965W        W  225   3.733   3.814  13.557
34966W        W  226  30.162  41.074  13.789
34967W        W  227  40.522   2.700   2.835
34968W        W  228   5.769  18.858  10.416
34969W        W  229  19.846  10.291  13.578
34970W        W  230  11.197  37.354  14.327
34971W        W  231   7.223   7.632   3.168
34972W        W  232  34.360   9.365  14.959
34973W        W  233  40.395  42.811  12.013
34974W        W  234  17.790  31.702   2.891
34975W        W  235  13.735  43.465  12.896
34976W        W  236  13.482  31.527   3.861
34977W        W  237  33.519  27.933  13.399
34978W        W  238   1.266  20.931   1.268
34979W        W  239  21.604  34.840   3.797
34980W        W  240   8.139   6.460  13.972
34981W        W  241   4.796  40.966  13.460
34982W        W  242  37.088  41.034  14.917
34983W        W  243  19.595   6.999   5.103
34984W        W  244   7.191  34.319   4.209
34985W        W  245  38.782  21.798  10.568
34986W        W  246  23.790  11.053   2.705
34987W        W  247  11.286  42.823  13.807
34988W        W  248  36.536  11.836  12.080
34989W        W  249  34.693  18.553  11.470
34990W        W  250  42.159  12.590   5.405
34991W        W  251   7.434  37.476   3.880
34992W        W  252   2.029  11.375   4.296
34993W        W  253  20.093  39.633   0.753
34994W        W  254  25.082  35.311   1.238
34995W        W  255  43.342  33.503  12.931
34996W        W  256  34.429   2.315  13.434
34997W        W  257  12.209  42.371   4.289
34998W        W  258  19.740  26.145  10.602
34999W        W  259  24.767  43.912  11.024
35000W        W  260  44.759  42.967  10.497
35001W        W  261  10.341   8.364  14.726
35002W        W  262  43.969  19.270  12.364
35003W        W  263  15.769   4.248   2.774
35004W        W  264   2.911  34.460   1.713
35005W        W  265  24.442  36.499   1.916
35006W        W  266  38.183  10.441   1.296
35007W        W  267  36.161  20.706   0.719
35008W        W  268   1.498  16.965   3.780
35009W        W  269  36.184  25.595  12.016
35010W        W  270  16.771  25.199  13.830
35011W        W  271  14.708  36.844   2.244
35012W        W  272  34.823  17.154  14.477
35013W        W  273  36.394   2.842   2.805
35014W        W  274  28.195   9.944  11.994
35015W        W  275  13.438   5.712   3.204
35016W        W  276  40.545  34.403   2.613
35017W        W  277  11.078  21.583   3.183
35018W        W  278  16.363  16.045   1.810
35019W        W  279  23.006  14.013  11.909
35020W        W  280  44.329   0.313   0.962
35021W        W  281  15.657  23.253   3.596
35022W        W  282  44.233  36.044   9.729
35023W        W  283  37.545  28.979   1.105
35024W        W  284   5.307   3.576   1.388
35025W        W  285  30.699  24.009  14.359
35026W        W  286   0.800  42.787   4.848
35027W        W  287  42.343  31.403  12.405
35028W        W  288  18.890  28.683   2.213
35029W        W  289   2.906   4.775   1.168
35030W        W  290  41.500  22.279  13.381
35031W        W  291  35.973   8.738  12.938
35032W        W  292  15.283   0.325  14.496
35033W        W  293  42.832   8.621   5.009
35034W        W  294  15.006  27.536   1.435
35035W        W  295  31.543  23.113  13.779
35036W        W  296  31.882   0.712  11.996
35037W        W  297   7.634  24.295   3.594
35038W        W  298  20.045  25.557  13.900
35039W        W  299  29.965   6.960   5.049
35040W        W  300  25.892  15.525   2.297
35041W        W  301  16.835  22.458  11.662
35042W        W  302   7.945  22.170   0.921
35043W        W  303  22.487  21.079   1.646
35044W        W  304  22.676  11.643  14.161
35045W        W  305  14.751  14.360   3.693
35046W        W  306   9.902   1.424   4.175
35047W        W  307  24.621  36.881   0.266
35048W        W  308  10.041  19.621  14.423
35049W        W  309  14.339  37.568  12.792
35050W        W  310   4.096   8.735   1.928
35051W        W  311  19.780  18.117  11.910
35052W        W  312  31.672  12.750   2.711
35053W        W  313  13.823  32.181   1.768
35054W        W  314  24.216  33.511   1.389
35055W        W  315   0.540  21.117   3.184
35056W        W  316   8.321   7.665   2.875
35057W        W  317  30.411  31.054  10.359
35058W        W  318  26.540  19.613  12.055
35059W        W  319  19.142  24.719  11.079
35060W        W  320  33.162   0.508  12.998
35061W        W  321  12.329  31.030   3.703
35062W        W  322  39.851  17.252   0.321
35063W        W  323   5.679   6.871  12.522
35064W        W  324  28.088  43.290  11.667
35065W        W  325  32.693  28.001  10.743
35066W        W  326  35.480   8.583  12.844
35067W        W  327   7.336  17.041  11.167
35068W        W  328  36.096   3.014   4.573
35069W        W  329  40.435  44.002  13.408
35070W        W  330   0.981  21.746   3.238
35071W        W  331  33.495  32.427  14.753
35072W        W  332  36.954   0.555   3.130
35073W        W  333  32.033  17.087   4.412
35074W        W  334   2.446  33.981  10.755
35075W        W  335  30.931  17.999  12.040
35076W        W  336  34.785   6.876   1.127
35077W        W  337  40.991  22.538  11.432
35078W        W  338  41.217  30.699  13.871
35079W        W  339  30.388  17.147  11.960
35080W        W  340  19.705   0.403   0.982
35081W        W  341  43.610  34.857  11.029
35082W        W  342  38.443  20.649   2.831
35083W        W  343   8.211  34.220  12.578
35084W        W  344  40.282  34.045   2.865
35085W        W  345  34.794  11.026   0.028
35086W        W  346   6.787  37.899  14.725
35087W        W  347  21.319   9.739   4.540
35088W        W  348  21.521  23.248   1.908
35089W        W  349  14.291  44.229   4.987
35090W        W  350  23.016  11.355   0.711
35091W        W  351   6.357  43.855   0.693
35092W        W  352  16.186  20.689   5.380
35093W        W  353  18.298   2.225  11.103
35094W        W  354   4.525  42.357  14.394
35095W        W  355  15.208  24.545  12.124
35096W        W  356  34.358   8.468   1.789
35097W        W  357  33.434  38.376   2.132
35098W        W  358  36.634  28.522   4.064
35099W        W  359  27.162  14.222   3.163
35100W        W  360  26.659  42.939   1.455
35101W        W  361  16.508  39.844   3.755
35102W        W  362  40.681  14.308  10.220
35103W        W  363  17.670  41.391  11.018
35104W        W  364  14.233  10.554  11.214
35105W        W  365  11.790  14.598   0.641
35106W        W  366   2.461   4.470  14.311
35107W        W  367   9.640  29.465   3.725
35108W        W  368   1.448  31.081  12.406
35109W        W  369  37.923  17.795  12.586
35110W        W  370  43.851  14.402   5.027
35111W        W  371   2.400  16.343  13.458
35112W        W  372  13.849   0.777   4.505
35113W        W  373  13.613  36.272  13.392
35114W        W  374   2.208  28.447   2.230
35115W        W  375  32.488  24.671   2.720
35116W        W  376  29.574  28.742   3.404
35117W        W  377  10.424  14.929  12.709
35118W        W  378  10.112  15.785  13.969
35119W        W  379  29.078  42.767  10.475
35120W        W  380  26.130  37.753   3.988
35121W        W  381   6.177  20.200  13.242
35122W        W  382   2.948  29.168   4.160
35123W        W  383   5.157   9.434   0.792
35124W        W  384   2.879  19.652   2.654
35125W        W  385  20.570   3.497   4.481
35126W        W  386  18.612   6.398  13.571
35127W        W  387   2.657  38.971  12.886
35128W        W  388   4.860  26.614  12.567
35129W        W  389  39.640   6.830  13.452
35130W        W  390   4.857  11.018   4.587
35131W        W  391  15.218  13.525  11.483
35132W        W  392  20.484  40.439   2.398
35133W        W  393  41.723  33.978   2.803
35134W        W  394  44.993  34.011   0.255
35135W        W  395  38.078   3.823  14.529
35136W        W  396   1.101  41.259   3.250
35137W        W  397  31.492  31.679   4.827
35138W        W  398  26.775  14.089  13.006
35139W        W  399  23.170  25.018   0.798
35140W        W  400  17.295  12.452  14.434
35141W        W  401  38.180  28.135  14.804
35142W        W  402  37.195  38.013  14.647
35143W        W  403  44.495  17.054  11.991
35144W        W  404  10.792  32.071  10.615
35145W        W  405  20.502   2.758   3.934
35146W        W  406  13.186  27.478  13.427
35147W        W  407   0.247  34.444  13.865
35148W        W  408  40.525  25.049   1.846
35149W        W  409   0.935  31.899  10.952
35150W        W  410  44.324   2.867   2.160
35151W        W  411  34.857  34.640  11.898
35152W        W  412  29.417  20.410   5.174
35153W        W  413  26.598  29.001   3.819
35154W        W  414  29.784  19.414   0.397
35155W        W  415  28.602   1.012  11.401
35156W        W  416   0.994  26.193  14.450
35157W        W  417  30.666  24.535  11.192
35158W        W  418  17.721   7.882   4.558
35159W        W  419   5.680   1.866   4.099
35160W        W  420  39.246  23.792  10.193
35161W        W  421  32.189  15.312   0.418
35162W        W  422  23.603  32.025  14.389
35163W        W  423   4.311  17.277   3.620
35164W        W  424  22.649   9.164  13.440
35165W        W  425  12.403  15.633  10.685
35166W        W  426  44.450  15.176   3.827
35167W        W  427  28.625  40.591  14.881
35168W        W  428   0.481  40.504   4.152
35169W        W  429  19.491   0.754   1.310
35170W        W  430  36.277  44.318   4.978
35171W        W  431  17.235  38.945  12.729
35172W        W  432  18.554  26.128   4.195
35173W        W  433   5.857   1.725  10.914
35174W        W  434   6.746   0.609   1.293
35175W        W  435  41.303   4.442   1.982
35176W        W  436   7.230   7.276   1.292
35177W        W  437  11.637  34.631   2.637
35178W        W  438   1.209  35.089  14.555
35179W        W  439  21.222  12.574  14.878
35180W        W  440   5.307  16.809  12.877
35181W        W  441  16.423  33.608  14.396
35182W        W  442  31.667   8.169  14.779
35183W        W  443  32.745  31.798  10.730
35184W        W  444  41.299  15.592  11.637
35185W        W  445  29.185  18.776   0.864
35186W        W  446  32.938  40.548   3.130
35187W        W  447  14.008  26.870  14.808
35188W        W  448  37.820  24.049  12.549
35189W        W  449  23.976  41.605   3.647
35190W        W  450   7.447  13.073  12.627
35191W        W  451  34.877   5.551   0.882
35192W        W  452  10.266   2.344  14.530
35193W        W  453  11.420   6.320   0.829
35194W        W  454   6.787  26.981   0.445
35195W        W  455  14.683  34.864   0.855
35196W        W  456  24.733  33.482  12.614
35197W        W  457  37.182  19.610  12.183
35198W        W  458  16.572   0.970   3.633
35199W        W  459  27.715  21.552   1.228
35200W        W  460  16.363  44.965  13.126
35201W        W  461  41.340  13.736   0.952
35202W        W  462  12.395  43.851   0.915
35203W        W  463  43.964  14.741   3.695
35204W        W  464  16.959  41.303  14.490
35205W        W  465  12.333   1.775   0.772
35206W        W  466   3.306  15.871   1.329
35207W        W  467  15.318  23.767   0.273
35208W        W  468   1.106   9.177  11.106
35209W        W  469  16.595  15.384  10.738
35210W        W  470  40.602  40.638   2.631
35211W        W  471   2.680  18.273  10.210
35212W        W  472   3.234  14.722   2.197
35213W        W  473  29.232  23.039   1.266
35214W        W  474  43.284  10.226  10.243
35215W        W  475  31.458   4.265  10.741
35216W        W  476  10.872  32.476   1.523
35217W        W  477   5.768  19.651  13.142
35218W        W  478  23.957   4.701   0.671
35219W        W  479  34.182   0.747  12.907
35220W        W  480  44.899  13.698   1.846
35221W        W  481  35.357  33.142   2.189
35222W        W  482  12.265  38.099   3.375
35223W        W  483  22.485  15.247   2.210
35224W        W  484  16.525   3.419  13.407
35225W        W  485  18.781   8.447   4.628
35226W        W  486  40.799  16.333   0.390
35227W        W  487   5.399  44.474  13.044
35228W        W  488  25.182  31.850   1.969
35229W        W  489   3.894  21.500   3.805
35230W        W  490  44.732  16.813   2.324
35231W        W  491  30.276  40.656  14.114
35232W        W  492  11.860  12.815   0.833
35233W        W  493  14.832  42.005  13.295
35234W        W  494   2.991  33.423   2.010
35235W        W  495  44.051  36.428  10.581
35236W        W  496  44.784  19.018  13.767
35237W        W  497  34.402  29.613   1.492
35238W        W  498   7.807  28.991   2.150
35239W        W  499  22.275  39.847  11.974
35240W        W  500  13.319   6.845  13.455
35241W        W  501   2.737  21.132   3.190
35242W        W  502  10.826  44.300   2.841
35243W        W  503  12.607  43.864  12.340
35244W        W  504  30.411  42.051  11.517
35245W        W  505  39.784  30.679   2.749
35246W        W  506  37.211  25.101  10.223
35247W        W  507  38.587  40.322  12.036
35248W        W  508   4.995  28.925  12.452
35249W        W  509   7.988  36.584  12.096
35250W        W  510  28.304  25.577  13.891
35251W        W  511  12.697  25.487   4.505
35252W        W  512   0.715  17.613  10.393
35253W        W  513  37.945   9.492  11.711
35254W        W  514  15.561  16.596  10.323
35255W        W  515  16.070  33.537  13.166
35256W        W  516   7.077   1.309  14.296
35257W        W  517  22.509  17.281  13.283
35258W        W  518  17.794  12.255   4.826
35259W        W  519  19.825   3.871  13.416
35260W        W  520   7.731   7.909   0.066
35261W        W  521  44.066   8.495   1.311
35262W        W  522  38.036  32.516   2.818
35263W        W  523  33.495   6.847   1.767
35264W        W  524  14.763  19.612   3.571
35265W        W  525  12.387  42.988   3.663
35266W        W  526  36.624  39.532   0.374
35267W        W  527  36.776  28.351  14.988
35268W        W  528  25.134   9.148   4.703
35269W        W  529  37.491  40.859   1.289
35270W        W  530  29.950   9.384  14.604
35271W        W  531   8.151  15.101   4.511
35272W        W  532   3.852   9.086  12.726
35273W        W  533   6.413  31.937   3.686
35274W        W  534   9.233  41.966  13.172
35275W        W  535   0.404  29.173   2.168
35276W        W  536  42.502  27.143   1.669
35277W        W  537  12.936   5.181   3.643
35278W        W  538  18.271  17.212   1.236
35279W        W  539  37.296  43.814   0.986
35280W        W  540   4.493   7.951   0.663
35281W        W  541  20.220  10.164   2.828
35282W        W  542  33.761  15.936  10.185
35283W        W  543  34.349  10.864  12.027
35284W        W  544  26.954  21.300  12.153
35285W        W  545   0.271  19.674  14.083
35286W        W  546  10.344  33.110  13.945
35287W        W  547  29.702  43.503  12.922
35288W        W  548  13.094  18.492   4.370
35289W        W  549  43.060   4.296   1.731
35290W        W  550  16.167   6.006  12.554
35291W        W  551  40.337  31.682  13.488
35292W        W  552  29.184   5.771  10.664
35293W        W  553  29.008   6.883  14.466
35294W        W  554  37.479  39.926  13.106
35295W        W  555  10.414   6.732   2.258
35296W        W  556  24.680  30.927  12.041
35297W        W  557  43.732  26.217   1.836
35298W        W  558  36.607   1.470  13.488
35299W        W  559   9.940   8.859  13.434
35300W        W  560  38.404  11.178   2.133
35301W        W  561  15.333  27.024  14.980
35302W        W  562  13.842  42.725   1.293
35303W        W  563  15.364   6.723  12.532
35304W        W  564   8.285  28.049   4.901
35305W        W  565   8.955   0.430   4.658
35306W        W  566  38.463  21.860  14.074
35307W        W  567  32.522   8.783  12.527
35308W        W  568  18.770  31.906   1.865
35309W        W  569  10.731  22.363  13.260
35310W        W  570  11.270  38.501   1.766
35311W        W  571  15.043  36.199   2.642
35312W        W  572  40.909   3.293  13.492
35313W        W  573  19.743  39.786   2.205
35314W        W  574  26.565   3.321   4.434
35315W        W  575   3.478  24.612  14.017
35316W        W  576   2.558  23.638   3.469
35317W        W  577  16.339  17.700   1.208
35318W        W  578  36.872  23.787  12.423
35319W        W  579   2.231  19.046  11.150
35320W        W  580  22.730   6.813   2.248
35321W        W  581  39.536  12.197   1.931
35322W        W  582  12.268  43.519  10.541
35323W        W  583  10.829  17.201   3.703
35324W        W  584  38.645  36.891   4.785
35325W        W  585  17.267  35.998  12.973
35326W        W  586  39.794  17.529   4.543
35327W        W  587  19.537  15.644   1.786
35328W        W  588   5.216  23.691  13.501
35329W        W  589  18.418  32.122  11.766
35330W        W  590  33.533   2.792  11.840
35331W        W  591  38.297   6.332   3.981
35332W        W  592   2.497   4.283  12.453
35333W        W  593   9.650   3.329  14.492
35334W        W  594  22.082  12.371   1.861
35335W        W  595  21.832   9.758   4.617
35336W        W  596  44.089  32.995   2.180
35337W        W  597  28.547  20.766  11.615
35338W        W  598  39.946  30.728  14.874
35339W        W  599  31.940  17.744   3.321
35340W        W  600  32.876   2.819  10.643
35341W        W  601  10.115  22.631   2.726
35342W        W  602  34.916  11.830  12.800
35343W        W  603  13.766  12.380  14.980
35344W        W  604  32.502  15.738   4.582
35345W        W  605  15.735  12.296   2.441
35346W        W  606  23.464  22.746  10.381
35347W        W  607  42.578   8.307  11.467
35348W        W  608  16.224   9.743  10.922
35349W        W  609   3.994  12.076  14.626
35350W        W  610   0.797  28.626   4.910
35351W        W  611  12.132  26.421  13.363
35352W        W  612  17.213  11.227  14.437
35353W        W  613   5.727  24.912  12.910
35354W        W  614  25.090  12.674   4.651
35355W        W  615  41.371   3.901  12.559
35356W        W  616  11.836  25.770   4.420
35357W        W  617  43.271  42.577   2.798
35358W        W  618   3.709  17.638  11.006
35359W        W  619  14.112  23.743  13.387
35360W        W  620   5.950  43.429   3.693
35361W        W  621  15.712  35.105  13.452
35362W        W  622  40.973   9.172  11.239
35363W        W  623  18.532  40.987  13.897
35364W        W  624   8.231   3.212  14.292
35365W        W  625  35.843  36.507  11.531
35366W        W  626   0.728  37.083   0.770
35367W        W  627  20.002  19.722  12.432
35368W        W  628  25.074  12.716   0.915
35369W        W  629  17.518  32.342   2.358
35370W        W  630  28.840   5.889   4.202
35371W        W  631  26.372   0.431  14.694
35372W        W  632  33.901   4.478  13.378
35373W        W  633  29.417  19.698   1.330
35374W        W  634  10.059  13.613  13.826
35375W        W  635  32.626  22.582   1.125
35376W        W  636  12.790  28.318   9.835
35377W        W  637  21.615  43.276   3.745
35378W        W  638  42.601   6.842   2.994
35379W        W  639   9.304  28.595  13.885
35380W        W  640  30.876   6.707  14.297
35381W        W  641   5.383  30.493  14.850
35382W        W  642  40.045  34.936  13.500
35383W        W  643  23.591   5.528   4.083
35384W        W  644  11.471  14.735   2.749
35385W        W  645   6.994  30.590   0.747
35386W        W  646  33.845   4.222  12.395
35387W        W  647   7.630  20.982   4.055
35388W        W  648  28.902  19.951  10.074
35389W        W  649  37.580  41.203   3.699
35390W        W  650   3.564   4.506   3.337
35391W        W  651  22.089  34.427  14.069
35392W        W  652  43.560  23.334  14.786
35393W        W  653  13.043   7.732  14.903
35394W        W  654  43.859  13.065   0.791
35395W        W  655  30.595  37.364   4.692
35396W        W  656   5.655   5.990  12.491
35397W        W  657  13.213  39.721  14.749
35398W        W  658   3.966  36.308   0.707
35399W        W  659  25.662  43.742  14.377
35400W        W  660  33.821  39.793   4.174
35401W        W  661   2.934  18.042  14.261
35402W        W  662  24.474   4.772  14.857
35403W        W  663   0.784  27.900   4.037
35404W        W  664  23.442   6.854  10.436
35405W        W  665  38.567   5.390  14.130
35406W        W  666  23.704  12.608   3.217
35407W        W  667  33.869  10.961  12.821
35408W        W  668  27.441  22.715   1.801
35409W        W  669   2.449  10.405   4.092
35410W        W  670   2.428  18.151   3.380
35411W        W  671  27.236   2.904   2.699
35412W        W  672   8.714   0.385   1.369
35413W        W  673   8.291  13.831   0.831
35414W        W  674  15.580  15.700   0.880
35415W        W  675   6.913  43.746   4.181
35416W        W  676   1.897  26.710   5.420
35417W        W  677  43.543  17.273   4.132
35418W        W  678  19.333  10.620   4.184
35419W        W  679  19.264   9.615   3.677
35420W        W  680  28.659  29.624  14.420
35421W        W  681  32.366  13.101   3.247
35422W        W  682  20.206  10.178  14.812
35423W        W  683  26.612   0.572   3.201
35424W        W  684   5.213   8.258   1.854
35425W        W  685   8.472  39.637   3.623
35426W        W  686  37.208   5.835   2.887
35427W        W  687  13.375  14.686  14.946
35428W        W  688  37.140  44.442  11.749
35429W        W  689   5.146  24.951   1.747
35430W        W  690  34.296  20.130   1.812
35431W        W  691   9.254  33.201  11.513
35432W        W  692  39.609  20.636  14.860
35433W        W  693  22.505   4.826   1.381
35434W        W  694  31.514  30.747  12.202
35435W        W  695   3.902  15.144  10.602
35436W        W  696  38.236  18.522  13.455
35437W        W  697  28.098  27.130   3.243
35438W        W  698   9.799   1.844  14.551
35439W        W  699  20.885  35.168   0.221
35440W        W  700  22.985  15.086  11.301
35441W        W  701  39.337  26.770   9.898
35442W        W  702  31.920  29.021   3.420
35443W        W  703  22.564   8.724   2.950
35444W        W  704   7.464  10.614  13.823
35445W        W  705  16.639   4.796   0.322
35446W        W  706  21.502  18.251  12.178
35447W        W  707  42.333  42.013  14.866
35448W        W  708  11.673   8.385   4.614
35449W        W  709  40.975  43.757   1.944
35450W        W  710  26.563  30.114   4.593
35451W        W  711   3.798  34.099   1.875
35452W        W  712   5.874  39.618  11.071
35453W        W  713   3.908  36.676   1.083
35454W        W  714   0.651  25.687  13.799
35455W        W  715  31.420  17.377  11.626
35456W        W  716   9.716   7.635   1.383
35457W        W  717  26.620  25.564  11.164
35458W        W  718  15.715   4.325   1.841
35459W        W  719  37.341  12.617   0.742
35460W        W  720  20.355  11.057   1.760
35461W        W  721  18.759  22.073   2.241
35462W        W  722  25.225  42.973  10.631
35463W        W  723  43.245  14.295  11.912
35464W        W  724  17.230  27.705   4.717
35465W        W  725  23.496  34.132   3.243
35466W        W  726  22.916   8.173   2.149
35467W        W  727  39.434  42.718  13.583
35468W        W  728  21.235  39.757  14.938
35469W        W  729   3.249  43.390  10.727
35470W        W  730  39.268  30.751   2.699
35471W        W  731  25.308   7.204   2.342
35472W        W  732   5.251  37.965   2.870
35473W        W  733   3.755  27.755   2.715
35474W        W  734   5.170  41.914  13.289
35475W        W  735  23.126  12.725  10.868
35476W        W  736   8.763  34.959  14.162
35477W        W  737  16.301  27.565  14.947
35478W        W  738  22.506  21.559   1.404
35479W        W  739  33.191   5.428  11.025
35480W        W  740  29.440  26.231   4.102
35481W        W  741   6.481  34.118  13.692
35482W        W  742  41.744  16.807  10.808
35483W        W  743  38.360  28.958  12.276
35484W        W  744   7.810  32.943  14.875
35485W        W  745  19.265  15.759  12.045
35486W        W  746   4.158   7.665   2.192
35487W        W  747   6.968  12.211  13.044
35488W        W  748   9.710  31.604  14.366
35489W        W  749  35.105  42.744   3.683
35490W        W  750  19.168  12.822   0.316
35491W        W  751  31.826   1.367  10.400
35492W        W  752  15.491  31.915  11.450
35493W        W  753  26.138  44.489   3.595
35494W        W  754  37.388  26.887  12.402
35495W        W  755  20.669  35.140  13.818
35496W        W  756  36.364  38.082   0.442
35497W        W  757  19.226  28.946  11.914
35498W        W  758  25.683  35.071   1.705
35499W        W  759   1.735  20.905  13.293
35500W        W  760  44.827  30.358   0.181
35501W        W  761  10.765  12.648   2.622
35502W        W  762   2.987   1.076  11.766
35503W        W  763   3.661  41.635  13.922
35504W        W  764  33.065  25.986   0.477
35505W        W  765  44.050  25.110  11.671
35506W        W  766  29.208  20.253  12.826
35507W        W  767   5.227  22.468   0.240
35508W        W  768  30.830   8.286   3.238
35509W        W  769  36.295  20.348   0.207
35510W        W  770  18.159  37.896   0.775
35511W        W  771  15.117  17.066  13.882
35512W        W  772  37.961  12.452   1.558
35513W        W  773  19.645   9.139   3.329
35514W        W  774  43.248  29.151   0.498
35515W        W  775  11.862  24.067  14.243
35516W        W  776   0.340  15.272  14.358
35517W        W  777  37.914  34.257   2.436
35518W        W  778   7.621   7.255  11.915
35519W        W  779  15.810  10.032   2.803
35520W        W  780  28.012  43.725   0.425
35521W        W  781   6.776  27.994  12.128
35522W        W  782  38.335  29.374   1.431
35523W        W  783  34.783  15.580  11.576
35524W        W  784   4.636  24.232  14.844
35525W        W  785  39.253  24.704  14.921
35526W        W  786  10.190  33.342   4.991
35527W        W  787  21.333  30.378   0.282
35528W        W  788  41.284  23.117  13.018
35529W        W  789   9.433  42.797   1.944
35530W        W  790   6.768  44.166   3.286
35531W        W  791  11.260  14.865  12.575
35532W        W  792   9.340  15.806   2.184
35533W        W  793   3.399   7.813   0.637
35534W        W  794   0.245  10.742  11.951
35535W        W  795  35.994  44.032  10.708
35536W        W  796  27.849  42.722   5.154
35537W        W  797   9.211  40.307   1.296
35538W        W  798  19.374  43.011   4.350
35539W        W  799  32.151   3.919   2.191
35540W        W  800  27.753  41.484   2.810
35541W        W  801  38.579  39.595  10.939
35542W        W  802  14.432  21.084  14.792
35543W        W  803  26.269  29.416   3.718
35544W        W  804   4.791  23.047   1.259
35545W        W  805  37.867  15.674  14.369
35546W        W  806   9.487  10.691  10.749
35547W        W  807   4.713  35.185  13.948
35548W        W  808  22.652  18.107  14.817
35549W        W  809   4.371  32.050   2.120
35550W        W  810   0.735  18.468  11.274
35551W        W  811  44.308  14.294   9.990
35552W        W  812  30.025   3.545   9.863
35553W        W  813  33.907  17.179   3.566
35554W        W  814   4.385  30.810   4.712
35555W        W  815   8.761  13.204   1.373
35556W        W  816  19.245  21.759  12.485
35557W        W  817   7.179  23.215  10.702
35558W        W  818  44.822   7.398  13.014
35559W        W  819  37.909   7.224  12.061
35560W        W  820  10.284  37.432   0.307
35561W        W  821  17.071  14.316  11.573
35562W        W  822   3.471   5.312  12.882
35563W        W  823  12.310  21.749   3.109
35564W        W  824  35.386  21.253   2.598
35565W        W  825  31.137  16.127   3.733
35566W        W  826  33.246  42.860   0.509
35567W        W  827  13.233  11.461   2.266
35568W        W  828  28.665  30.415  13.048
35569W        W  829  13.756  33.163   0.503
35570W        W  830  35.484  28.407   3.846
35571W        W  831  25.002  42.662   1.425
35572W        W  832  42.923  43.510   3.622
35573W        W  833   4.480  29.934   4.307
35574W        W  834   0.286   8.251   3.310
35575W        W  835  18.707   2.775  13.312
35576W        W  836  25.549  25.715   1.734
35577W        W  837   6.182  31.930   2.707
35578W        W  838  11.530  43.854   3.967
35579W        W  839  38.697  28.647  12.651
35580W        W  840  16.793   7.357   3.690
35581W        W  841   6.969  21.970   2.680
35582W        W  842  22.665   6.872  11.242
35583W        W  843  37.632  39.448   0.636
35584W        W  844  44.634  37.921   2.027
35585W        W  845  19.683  30.200  12.524
35586W        W  846   5.643  36.368   0.953
35587W        W  847   1.704  19.037  13.239
35588W        W  848  17.987  29.474  12.917
35589W        W  849  40.990  43.442   0.456
35590W        W  850  13.566  37.230  10.765
35591W        W  851  44.349  21.041   4.509
35592W        W  852  19.201  40.495   3.663
35593W        W  853  38.121   7.594   2.239
35594W        W  854  16.908  39.536   4.162
35595W        W  855  29.972   1.743   3.874
35596W        W  856  11.350  27.924  11.031
35597W        W  857  16.583  36.127   4.254
35598W        W  858  15.801  31.945  13.000
35599W        W  859  31.350  33.420  13.092
35600W        W  860  22.337  22.541  14.863
35601W        W  861  29.985  29.184  10.793
35602W        W  862  18.086  15.307   1.713
35603W        W  863  30.652  21.958  13.388
35604W        W  864  32.042   9.315   2.783
35605W        W  865  16.322   0.873  11.656
35606W        W  866  33.918  11.118   2.217
35607W        W  867  18.759  21.328   3.351
35608W        W  868   1.547  20.741  11.022
35609W        W  869  30.626  31.945  11.384
35610W        W  870   7.975  31.532   0.893
35611W        W  871  27.035  11.202   0.300
35612W        W  872   0.768  17.523   3.747
35613W        W  873  14.083  17.552   2.332
35614W        W  874  25.538  12.199   0.950
35615W        W  875  20.749   9.547  15.000
35616W        W  876  35.983  28.433   0.402
35617W        W  877  20.261  10.558   4.506
35618W        W  878  42.025   7.263  13.102
35619W        W  879  26.448  35.857  12.652
35620W        W  880  31.000  33.950   1.717
35621W        W  881  36.596   4.965   4.061
35622W        W  882  24.866  13.287   2.676
35623W        W  883  30.245  33.479  14.073
35624W        W  884  10.550  36.015  12.190
35625W        W  885  31.530   3.234   2.616
35626W        W  886  16.548   2.360   4.657
35627W        W  887  22.025  33.381  14.750
35628W        W  888  14.127  37.630  13.997
35629W        W  889  21.663  41.616  10.703
35630W        W  890  43.768  17.660   2.756
35631W        W  891  24.564  36.451   2.896
35632W        W  892  11.710  38.550   4.587
35633W        W  893  39.365  23.341  12.120
35634W        W  894  16.656   4.519   2.483
35635W        W  895  15.232  31.362   3.804
35636W        W  896  21.609  32.945   2.640
35637W        W  897  16.636  41.365   4.334
35638W        W  898  30.052  32.906   1.805
35639W        W  899  34.421  43.695  11.649
35640W        W  900  30.434  34.947  14.837
35641W        W  901  16.997  44.783  14.718
35642W        W  902  14.647  23.137   0.432
35643W        W  903  18.133  25.751   3.142
35644W        W  904   0.031  31.452  12.448
35645W        W  905  43.560  33.361  12.496
35646W        W  906  36.724   0.233   4.960
35647W        W  907  37.884   9.103   1.820
35648W        W  908  16.516   9.459  11.254
35649W        W  909  11.924  13.846  14.996
35650W        W  910  21.506  42.765  14.899
35651W        W  911  23.460  18.904  13.840
35652W        W  912  44.765  22.513   2.166
35653W        W  913  21.723   4.754   0.490
35654W        W  914  32.124  38.448   0.363
35655W        W  915   2.934  21.997  12.020
35656W        W  916  40.303  21.072   2.324
35657W        W  917  29.397  23.958  11.255
35658W        W  918  21.517  29.057   2.730
35659W        W  919  19.020  20.938  13.986
35660W        W  920  28.595  39.504  12.889
35661W        W  921  41.456  18.151   1.408
35662W        W  922  15.172  34.372   1.887
35663W        W  923  33.456  42.962  12.503
35664W        W  924   7.891  25.740   0.766
35665W        W  925  39.962  17.359   2.256
35666W        W  926  38.449   1.995   9.884
35667W        W  927  44.870   6.748  11.434
35668W        W  928   1.791  14.417   3.621
35669W        W  929  27.197   8.138   4.228
35670W        W  930  14.860  39.798  14.100
35671W        W  931  14.803  38.974   2.904
35672W        W  932   6.748  44.223   0.655
35673W        W  933  37.378  40.330   4.486
35674W        W  934  19.677  29.992   4.828
35675W        W  935  26.968  20.152  13.551
35676W        W  936  36.881  13.708  13.983
35677W        W  937  27.341  39.796   3.107
35678W        W  938  20.758  18.174  14.007
35679W        W  939  42.162  10.744  10.326
35680W        W  940  14.188  19.312  13.346
35681W        W  941  27.638  36.893   4.949
35682W        W  942   1.539  26.285   2.286
35683W        W  943  38.561  18.540  14.231
35684W        W  944   0.196   8.721  11.991
35685W        W  945   4.348  31.334  14.459
35686W        W  946  14.852  13.829   3.636
35687W        W  947  15.813  14.428   3.748
35688W        W  948  10.280  16.571   3.992
35689W        W  949   6.203  25.194   2.928
35690W        W  950  37.616  31.569   4.272
35691W        W  951   5.199  19.788   5.053
35692W        W  952  38.001  14.682  11.675
35693W        W  953  38.806  18.991  14.521
35694W        W  954  13.070  12.615  12.772
35695W        W  955  44.835  29.560   4.427
35696W        W  956  11.040   1.025  12.051
35697W        W  957  20.011  35.354  14.025
35698W        W  958  14.096  22.295  11.687
35699W        W  959  10.920   3.785   3.333
35700W        W  960  32.950   2.263   1.676
35701W        W  961  12.177  36.113   3.341
35702W        W  962  42.083  31.613  12.822
35703W        W  963  22.778  38.956  11.925
35704W        W  964  11.612  17.015   3.381
35705W        W  965   8.371   3.182   0.343
35706W        W  966  13.777  42.732  10.963
35707W        W  967  32.187  29.189   0.869
35708W        W  968  31.610  25.058   0.925
35709W        W  969   7.742  11.691  10.720
35710W        W  970   8.396  38.045  11.240
35711W        W  971  24.143  16.084  12.840
35712W        W  972  17.288   1.322   0.066
35713W        W  973  43.018  20.190   4.044
35714W        W  974  10.977  44.350  10.800
35715W        W  975   0.803   6.350   3.248
35716W        W  976  35.476  43.489  13.824
35717W        W  977  31.068  37.490  10.022
35718W        W  978  18.818  41.277  13.534
35719W        W  979  29.023   1.146  13.978
35720W        W  980   9.693  23.688  12.112
35721W        W  981  31.166  24.547  11.997
35722W        W  982  31.987   7.368  10.733
35723W        W  983  39.013  20.267   3.317
35724W        W  984  41.781   5.190   1.232
35725W        W  985  26.494   2.446  12.964
35726W        W  986  22.607  26.011   4.623
35727W        W  987   0.973   3.718  14.407
35728W        W  988  42.983  18.364   0.794
35729W        W  989  44.046  31.121  10.543
35730W        W  990  22.934  23.169  11.935
35731W        W  991  30.778  26.146   1.129
35732W        W  992  36.181  22.614   3.742
35733W        W  993  27.560   0.474   3.344
35734W        W  994  28.262  29.958  11.425
35735W        W  995  32.439  33.060   0.372
35736W        W  996  31.274  16.615  10.578
35737W        W  997  12.084   7.884   1.434
35738W        W  998  31.493   8.140   1.723
35739W        W  999  17.616  40.885  12.044
35740W        W 1000  10.365  17.796  14.983
35741W        W 1001  24.688   3.947  14.466
35742W        W 1002  42.717  35.888  14.048
35743W        W 1003  39.553   7.927   2.423
35744W        W 1004  29.990   8.368   1.321
35745W        W 1005  18.010  35.847  14.831
35746W        W 1006   7.931  32.221  12.009
35747W        W 1007  26.303  28.974  11.550
35748W        W 1008   9.179  11.559   0.703
35749W        W 1009   7.956  21.509   2.282
35750W        W 1010   6.092  39.521  11.532
35751W        W 1011  40.507   3.483  13.794
35752W        W 1012  30.509  24.064  11.441
35753W        W 1013  25.667   8.579  10.528
35754W        W 1014  21.850   2.910  11.420
35755W        W 1015   2.508  41.913  12.388
35756W        W 1016  31.084   3.265   0.852
35757W        W 1017  39.370  33.468   3.195
35758W        W 1018  30.570  11.841  11.127
35759W        W 1019  42.565  27.481  12.051
35760W        W 1020   7.467   9.906  11.182
35761W        W 1021  38.972  25.455  13.320
35762W        W 1022  41.784  44.353   4.029
35763W        W 1023  20.389   8.328   3.194
35764W        W 1024  35.733  39.544  13.295
35765W        W 1025  34.642  24.600  13.950
35766W        W 1026  18.431  32.969   0.364
35767W        W 1027  38.455  12.595   2.377
35768W        W 1028  25.403   2.859  11.093
35769W        W 1029  32.079   6.497  10.765
35770W        W 1030  21.683  14.019  14.850
35771W        W 1031  16.786  30.181  14.628
35772W        W 1032  11.156  36.038  11.588
35773W        W 1033  39.864  25.600  11.413
35774W        W 1034  26.185  41.300   0.928
35775W        W 1035  29.581  22.952   4.256
35776W        W 1036  21.402   9.386   5.059
35777W        W 1037  20.752  42.145  14.269
35778W        W 1038  32.989  38.525   1.900
35779W        W 1039  25.985  26.894   1.536
35780W        W 1040  44.954  13.078   0.877
35781W        W 1041  11.249  36.487   0.029
35782W        W 1042  42.394  44.226   1.333
35783W        W 1043  11.269   3.785  12.117
35784W        W 1044  12.286   3.744  11.600
35785W        W 1045  26.268  10.680  10.747
35786W        W 1046   9.344   3.202   0.995
35787W        W 1047   2.013  27.154  12.088
35788W        W 1048  40.589  39.933   3.288
35789W        W 1049   2.032  26.002   4.196
35790W        W 1050  22.708   6.116   0.572
35791W        W 1051  44.338  10.692   0.293
35792W        W 1052   7.011  29.001   3.793
35793W        W 1053  43.922   1.876   0.870
35794W        W 1054  37.792  20.413   1.293
35795W        W 1055  23.399  36.334  14.517
35796W        W 1056  26.023  22.814   3.667
35797W        W 1057  35.627  30.934  13.526
35798W        W 1058   8.585  14.782  13.812
35799W        W 1059  44.819  14.296   3.046
35800W        W 1060  10.358  12.327   1.331
35801W        W 1061   9.693  20.661   2.188
35802W        W 1062  31.653  24.368   9.820
35803W        W 1063  40.111  12.949  12.498
35804W        W 1064  16.368   0.444   2.675
35805W        W 1065  29.678  33.109   2.237
35806W        W 1066  23.526   7.943  13.113
35807W        W 1067  18.669  32.807  14.326
35808W        W 1068   4.809  44.990  12.427
35809W        W 1069  24.184  29.986  14.455
35810W        W 1070  37.784  26.659   3.661
35811W        W 1071  36.440  11.381  11.505
35812W        W 1072  15.674  20.647  11.972
35813W        W 1073  20.176  31.496   1.204
35814W        W 1074  31.548  39.267   1.362
35815W        W 1075  20.077  30.231  10.645
35816W        W 1076  31.906  43.508   3.975
35817W        W 1077  38.947  19.718  13.117
35818W        W 1078   6.587  16.720   4.127
35819W        W 1079  28.865  17.807  14.006
35820W        W 1080  37.594  38.613  13.829
35821W        W 1081  14.720   5.833   0.673
35822W        W 1082  42.825   8.946  10.118
35823W        W 1083  10.270  30.595   1.103
35824W        W 1084  17.278  21.302   0.985
35825W        W 1085   3.967   7.114  11.171
35826W        W 1086  16.089  26.522  12.906
35827W        W 1087  27.147   9.591   3.476
35828W        W 1088   5.868  40.951  13.437
35829W        W 1089  13.569   5.292   2.050
35830W        W 1090  33.635   8.899   2.277
35831W        W 1091  17.548  19.099   0.791
35832W        W 1092  14.525   4.212  13.070
35833W        W 1093  14.457  15.764  12.516
35834W        W 1094  40.881   6.051  12.901
35835W        W 1095   9.698  37.706   0.411
35836W        W 1096  18.151  16.872   2.018
35837W        W 1097  13.383   9.627  14.539
35838W        W 1098  20.568  35.566   0.341
35839W        W 1099   0.668  32.832  11.168
35840W        W 1100   5.211  31.166  14.316
35841W        W 1101  22.756   3.090   9.816
35842W        W 1102  37.029  43.140   4.835
35843W        W 1103   4.670  19.033   2.213
35844W        W 1104  18.479   1.038  13.825
35845W        W 1105  22.713   9.394   0.854
35846W        W 1106   3.404  35.802   4.600
35847W        W 1107  34.522   1.938  14.918
35848W        W 1108  28.626  31.659   0.481
35849W        W 1109  12.301  22.469   0.393
35850W        W 1110  11.862  27.420   4.585
35851W        W 1111  22.608  33.080   0.361
35852W        W 1112  15.317   4.744  11.458
35853W        W 1113  44.278  12.099   1.746
35854W        W 1114   5.723  17.127  13.895
35855W        W 1115  32.032  19.425   4.154
35856W        W 1116  22.549  40.828   4.213
35857W        W 1117   8.499  17.194  12.124
35858W        W 1118  14.320   2.484  12.078
35859W        W 1119  36.310  30.034   2.281
35860W        W 1120  13.768  28.746  14.486
35861W        W 1121  18.320  22.597   3.342
35862W        W 1122  38.531  32.442   1.432
35863W        W 1123  23.000  34.567  11.116
35864W        W 1124  11.124   3.245  12.714
35865W        W 1125   8.257   7.297   1.790
35866W        W 1126  27.583  44.947  13.318
35867W        W 1127  37.408  22.303  13.941
35868W        W 1128   3.128  32.042   3.302
35869W        W 1129  26.122  33.855  10.724
35870W        W 1130   9.746  10.678   0.946
35871W        W 1131  21.228  33.413   2.364
35872W        W 1132  17.278   3.182   2.357
35873W        W 1133  24.673  18.216  12.123
35874W        W 1134  29.213   3.277  11.009
35875W        W 1135  21.131  39.598  11.956
35876W        W 1136  12.829  12.869   1.035
35877W        W 1137  31.905  41.769   2.889
35878W        W 1138  31.062  12.191   1.769
35879W        W 1139  37.026  19.690  11.292
35880W        W 1140  24.648  17.237   4.121
35881W        W 1141  19.523  42.356  10.931
35882W        W 1142  29.400  29.588   1.519
35883W        W 1143  44.922  22.172  12.203
35884W        W 1144  24.176  12.590   4.267
35885W        W 1145   4.936  31.694   4.466
35886W        W 1146  23.068  10.719  13.935
35887W        W 1147  28.605   3.965   2.747
35888W        W 1148  18.672   6.730  12.631
35889W        W 1149  37.774   3.755  14.127
35890W        W 1150  11.143  34.023   4.527
35891W        W 1151  15.835  24.438  13.236
35892W        W 1152  14.554  23.635   1.973
35893W        W 1153  10.835   4.720  10.744
35894W        W 1154  19.525  22.435  11.119
35895W        W 1155  15.379  37.963  13.271
35896W        W 1156   4.164   9.655  14.029
35897W        W 1157  24.942   6.805   3.350
35898W        W 1158  40.478   9.487  11.578
35899W        W 1159  14.156  32.626   1.206
35900W        W 1160  27.554  40.413   4.874
35901W        W 1161   1.926  19.641  13.965
35902W        W 1162  28.182  28.603   0.413
35903W        W 1163  40.253   3.159  14.748
35904W        W 1164  26.967   4.443  10.228
35905W        W 1165  41.846  20.239   1.949
35906W        W 1166  35.441  31.066  13.073
35907W        W 1167  43.436  17.654   1.776
35908W        W 1168   5.778  20.952  13.818
35909W        W 1169  18.297  20.769  10.828
35910W        W 1170  24.573  17.703  12.092
35911W        W 1171  19.318   1.358   0.265
35912W        W 1172  35.290   1.434  11.618
35913W        W 1173  39.734   0.721  11.548
35914W        W 1174  17.910  13.379   0.742
35915W        W 1175  29.629  43.882   1.180
35916W        W 1176   9.161  10.573   4.565
35917W        W 1177  23.575  28.385   2.670
35918W        W 1178  26.068  28.988  12.332
35919W        W 1179  25.133  16.973   4.939
35920W        W 1180  27.990   9.091   4.203
35921W        W 1181  33.028  10.147  12.759
35922W        W 1182  21.086  35.616  10.442
35923W        W 1183  38.001  36.500  10.686
35924W        W 1184   9.186  37.524  14.419
35925W        W 1185  32.153  30.566   0.409
35926W        W 1186  14.742   1.006   3.773
35927W        W 1187  41.240   7.830  13.983
35928W        W 1188  34.650  37.512   1.258
35929W        W 1189  21.015  19.688  14.960
35930W        W 1190  35.111  21.918   1.763
35931W        W 1191  21.815  40.315  14.312
35932W        W 1192  44.974  40.906  13.771
35933W        W 1193   6.311  27.220   1.247
35934W        W 1194  30.428  19.124   1.913
35935W        W 1195  27.031  41.878   0.235
35936W        W 1196   9.522  18.727  14.330
35937W        W 1197  17.331  23.935   4.515
35938W        W 1198  42.270  34.352  10.659
35939W        W 1199  12.807  41.101   2.393
35940W        W 1200  25.760   1.008   3.269
35941W        W 1201  22.694  37.723   3.821
35942W        W 1202  44.384  35.119  14.903
35943W        W 1203  14.197  14.698   4.075
35944W        W 1204  43.673  12.395   3.792
35945W        W 1205  10.300  16.740   3.507
35946W        W 1206  29.701  29.074   0.842
35947W        W 1207  38.876  13.959  14.809
35948W        W 1208  43.766  34.422  13.905
35949W        W 1209  33.030  30.405   2.149
35950W        W 1210  32.115   8.189   2.900
35951W        W 1211   5.827  33.461  13.415
35952W        W 1212   7.684  18.935   0.428
35953W        W 1213  20.154   9.111   2.725
35954W        W 1214  18.481  39.892  13.901
35955W        W 1215  35.028  29.651   0.764
35956W        W 1216  41.598  24.689   1.193
35957W        W 1217  42.295  34.880   0.379
35958W        W 1218   1.029   5.969   2.208
35959W        W 1219  16.228  29.789  11.777
35960W        W 1220  19.283   4.915   0.358
35961W        W 1221  14.134  25.915  13.575
35962W        W 1222  41.301  44.126   1.177
35963W        W 1223  16.615   5.026  10.352
35964W        W 1224   7.809   7.141  12.895
35965W        W 1225   4.923  24.185  13.507
35966W        W 1226   1.601  19.310  12.827
35967W        W 1227  14.812  34.268  10.131
35968W        W 1228  21.193  18.081  11.803
35969W        W 1229  17.417  14.287  10.299
35970W        W 1230  37.229   5.598   4.124
35971W        W 1231  28.512  15.770  11.481
35972W        W 1232  37.974  27.321   2.619
35973W        W 1233  16.915  35.824  14.806
35974W        W 1234  34.660  17.789  13.417
35975W        W 1235  16.110   2.949   4.263
35976W        W 1236  38.060  38.440  12.412
35977W        W 1237  42.398  18.338  13.829
35978W        W 1238  11.715   9.749   0.002
35979W        W 1239   6.958  23.332  13.453
35980W        W 1240  33.110  40.702   0.560
35981W        W 1241   2.857  11.086   1.637
35982W        W 1242  42.651  22.196  11.360
35983W        W 1243  44.882  41.318   4.903
35984W        W 1244  32.813   9.626  13.457
35985W        W 1245  17.880  40.467  11.869
35986W        W 1246   3.340  13.199   2.901
35987W        W 1247  34.846  21.163   2.418
35988W        W 1248  16.162  18.705   0.986
35989W        W 1249  36.384  16.332   3.685
35990W        W 1250  14.690  32.913   2.446
35991W        W 1251  41.842  43.555   0.168
35992W        W 1252  36.296  34.869   2.197
35993W        W 1253  23.741  23.455   4.709
35994W        W 1254   0.820  39.894   3.084
35995W        W 1255  30.522  39.645  12.221
35996W        W 1256  24.307  28.664  13.683
35997W        W 1257  29.759  14.907  10.793
35998W        W 1258  35.144  12.753   2.317
35999W        W 1259   1.536  19.554  10.835
36000W        W 1260  14.353  27.159   4.273
36001W        W 1261   0.024  34.528  11.562
36002W        W 1262  42.578   5.271   1.800
36003W        W 1263  36.484  13.242  10.418
36004W        W 1264   8.953  41.413   2.860
36005W        W 1265  34.254  41.408  11.155
36006W        W 1266  11.717  19.677   2.834
36007W        W 1267   2.800  37.886   3.189
36008W        W 1268  16.634  19.782   1.346
36009W        W 1269  32.502  43.674  13.338
36010W        W 1270  27.498  38.651  11.112
36011W        W 1271  22.038  23.070   4.662
36012W        W 1272  38.296  36.357  14.737
36013W        W 1273  35.893  39.360  14.472
36014W        W 1274  19.568  11.616  14.319
36015W        W 1275  42.238  20.295   1.624
36016W        W 1276   1.657   9.158  11.155
36017W        W 1277  20.147  40.758  12.499
36018W        W 1278  29.689  18.089  12.392
36019W        W 1279  24.415   6.344   0.988
36020W        W 1280  36.478   3.249   0.050
36021W        W 1281   3.430  22.784  11.479
36022W        W 1282  24.644  43.392   4.988
36023W        W 1283  39.370  29.622  12.143
36024W        W 1284  38.894   8.162   2.227
36025W        W 1285   4.496  37.171  13.897
36026W        W 1286  16.302   7.346   4.990
36027W        W 1287   5.759  17.698  12.537
36028W        W 1288   7.379   3.805   1.770
36029W        W 1289   5.902  16.816   0.846
36030W        W 1290  18.159  22.082  13.760
36031W        W 1291   6.448  14.427   2.218
36032W        W 1292  22.461  26.236   3.142
36033W        W 1293  34.407  40.210   1.657
36034W        W 1294  42.375  21.563   2.399
36035W        W 1295  36.618  27.379   0.881
36036W        W 1296   7.141   8.643   3.182
36037W        W 1297  30.090  26.569   1.860
36038W        W 1298  37.133  38.164  13.265
36039W        W 1299  28.928  11.085  11.249
36040W        W 1300  10.735  12.780  11.976
36041W        W 1301  34.144  34.777  10.753
36042W        W 1302  10.321  16.105  14.446
36043W        W 1303  17.523  39.962   4.649
36044W        W 1304   4.310  31.439   3.273
36045W        W 1305  44.730  27.074   2.929
36046W        W 1306  23.016  43.970   1.814
36047W        W 1307  36.152  23.193  14.379
36048W        W 1308  16.370  37.540  13.719
36049W        W 1309  43.555   8.779   3.438
36050W        W 1310  33.657  23.645  12.864
36051W        W 1311  37.330  36.905   0.115
36052W        W 1312  23.183  44.091  11.891
36053W        W 1313  37.316   9.053   2.799
36054W        W 1314  44.736  17.758   2.387
36055W        W 1315  21.250  30.442   1.181
36056W        W 1316  31.964  15.051   0.828
36057W        W 1317   9.948   9.945  14.033
36058W        W 1318  20.290  28.912  14.951
36059W        W 1319  20.545  41.334   2.248
36060W        W 1320   1.915   3.222   1.314
36061W        W 1321  44.008  33.917   0.373
36062W        W 1322  10.128  21.146  10.959
36063W        W 1323  25.790  27.498  13.481
36064W        W 1324  34.451  39.422   0.030
36065W        W 1325   4.028  26.547  13.000
36066W        W 1326   3.372  29.644   0.899
36067W        W 1327  34.300   0.586  14.716
36068W        W 1328  35.060   8.888  10.187
36069W        W 1329  19.010  15.794   0.926
36070W        W 1330  13.244   7.788  13.821
36071W        W 1331  39.030  20.348  13.967
36072W        W 1332  29.005  11.402   1.013
36073W        W 1333  20.010   2.876   3.699
36074W        W 1334  26.894  26.509  12.129
36075W        W 1335  17.831  23.513   4.152
36076W        W 1336  23.223   2.511   2.500
36077W        W 1337  14.796  13.046  12.576
36078W        W 1338  41.911  28.887   2.825
36079W        W 1339  25.535  40.890   4.158
36080W        W 1340  29.779   0.164  13.568
36081W        W 1341  17.141  34.249  14.503
36082W        W 1342  13.269  16.042   2.181
36083W        W 1343  26.238   3.979   4.975
36084W        W 1344  28.556  24.738   1.903
36085W        W 1345  22.800  17.227  13.759
36086W        W 1346  15.981  11.106  13.999
36087W        W 1347  11.299  39.296   2.192
36088W        W 1348   8.917  12.838  11.891
36089W        W 1349   3.578  14.603  14.429
36090W        W 1350  21.722  21.263   4.639
36091W        W 1351   1.522   3.283  13.422
36092W        W 1352  40.596  22.189  10.942
36093W        W 1353  37.874  22.721   1.825
36094W        W 1354  41.425   9.760  13.086
36095W        W 1355  22.598   1.556   4.516
36096W        W 1356  36.297  22.914   2.739
36097W        W 1357  35.200  18.295   1.869
36098W        W 1358  21.206  17.017   4.120
36099W        W 1359   6.692  30.587   1.706
36100W        W 1360  36.489  43.539   2.262
36101W        W 1361   6.055  21.592   2.625
36102W        W 1362  42.977  22.931  14.149
36103W        W 1363  43.014   9.912   1.240
36104W        W 1364   8.340  16.713  12.048
36105W        W 1365  18.224   0.282   5.044
36106W        W 1366   2.901  42.457   2.708
36107W        W 1367  27.010  34.663  10.252
36108W        W 1368  43.011  35.391   3.319
36109W        W 1369  26.080  26.664   2.478
36110W        W 1370  38.323  12.872   2.807
36111W        W 1371   5.637   7.399   1.693
36112W        W 1372  41.442  28.396  11.035
36113W        W 1373  27.889  18.416   3.376
36114W        W 1374  11.855   4.008  11.515
36115W        W 1375  39.227  25.624   0.821
36116W        W 1376  12.794   1.200  10.563
36117W        W 1377  37.045  16.339  12.565
36118W        W 1378  17.256  21.055  12.384
36119W        W 1379  36.661  16.087  14.188
36120W        W 1380   5.442  31.986   4.523
36121W        W 1381  12.720  38.041  11.655
36122W        W 1382  33.842  35.005  14.349
36123W        W 1383  18.689   0.586  13.700
36124W        W 1384  10.292  22.651  11.623
36125W        W 1385  13.419  13.141   3.339
36126W        W 1386  42.437   0.325  10.997
36127W        W 1387  12.953  21.667   4.819
36128W        W 1388   8.787  18.657   4.205
36129W        W 1389   4.296  25.257   3.089
36130W        W 1390   1.769  44.932  11.324
36131W        W 1391  18.247  38.558   4.886
36132W        W 1392  28.600   9.117   1.077
36133W        W 1393  39.731  29.087  12.794
36134W        W 1394  43.840  24.797   2.805
36135W        W 1395  21.718  36.500   3.556
36136W        W 1396  43.889  22.464  10.416
36137W        W 1397   1.019  34.993   2.847
36138W        W 1398  38.883  15.179   3.103
36139W        W 1399   0.829   6.740  11.587
36140W        W 1400  38.977  12.603   2.352
36141W        W 1401   7.408  37.293  11.675
36142W        W 1402   1.348  15.243  12.364
36143W        W 1403  40.905  37.663  12.563
36144W        W 1404  42.348  44.759   2.387
36145W        W 1405  21.723  37.436  14.711
36146W        W 1406   9.505   3.971  12.119
36147W        W 1407  39.354  24.619   0.743
36148W        W 1408  20.720  34.879   2.832
36149W        W 1409  36.788  23.953  13.546
36150W        W 1410  44.406  17.490   3.184
36151W        W 1411   6.399  29.436   4.675
36152W        W 1412  21.549  42.388   1.425
36153W        W 1413  33.372  21.268  14.335
36154W        W 1414  27.305  18.144   2.886
36155W        W 1415   1.933  42.088  12.936
36156W        W 1416  33.474  22.992   2.171
36157W        W 1417  35.659   0.376   1.375
36158W        W 1418  39.306  32.902   0.249
36159W        W 1419  29.023  39.737  13.304
36160W        W 1420  19.766  30.071   2.925
36161W        W 1421   4.042  40.739   0.992
36162W        W 1422   8.691   1.201  10.947
36163W        W 1423  22.029   3.672  14.017
36164W        W 1424  40.751  13.799  10.328
36165W        W 1425  26.877   3.324   3.191
36166W        W 1426  41.261  29.277   1.763
36167W        W 1427  30.430   0.360   3.443
36168W        W 1428  28.188   3.351   0.791
36169W        W 1429   1.891  35.427  12.401
36170W        W 1430  31.640  15.222   0.421
36171W        W 1431   7.419  16.287  10.691
36172W        W 1432  36.887   6.353   1.636
36173W        W 1433  11.808   2.913   1.773
36174W        W 1434  32.928   8.804   0.255
36175W        W 1435  41.067  31.459  12.807
36176W        W 1436  44.498   0.959  11.570
36177W        W 1437  12.487  32.998  13.567
36178W        W 1438  37.471   3.240   4.634
36179W        W 1439  35.706  18.145   1.240
36180W        W 1440  42.296  27.171  14.841
36181W        W 1441  16.361   4.692  12.190
36182W        W 1442  36.547  44.431  13.462
36183W        W 1443  18.315   5.485   2.605
36184W        W 1444   7.666   1.034   2.715
36185W        W 1445  40.571  27.678   2.305
36186W        W 1446  39.013  19.537  14.898
36187W        W 1447  29.578   4.723   4.580
36188W        W 1448  27.627  16.602   3.930
36189W        W 1449   7.643   5.084  10.807
36190W        W 1450   3.416  39.398   3.215
36191W        W 1451  31.920  31.136  12.132
36192W        W 1452  10.292  10.644  11.349
36193W        W 1453  11.910  38.948  11.086
36194W        W 1454  21.933  39.492   3.668
36195W        W 1455  10.932  21.672   4.374
36196W        W 1456  33.141  24.698  12.903
36197W        W 1457  25.675  36.766   0.824
36198W        W 1458  36.837  24.449   3.753
36199W        W 1459  13.702   7.156   0.481
36200W        W 1460  35.426  40.602   0.630
36201W        W 1461   4.206  33.290  14.810
36202W        W 1462   6.728  28.267  11.245
36203W        W 1463  41.482  25.412  14.955
36204W        W 1464  43.286  22.998  13.368
36205W        W 1465  21.560   4.667   0.002
36206W        W 1466  19.354  43.441  13.508
36207W        W 1467  12.635  17.141  11.568
36208W        W 1468  36.809  41.813   3.769
36209W        W 1469  41.341  28.794   1.884
36210W        W 1470  18.822  32.956  12.422
36211W        W 1471   4.766  36.338   3.217
36212W        W 1472  41.012   3.977   1.777
36213W        W 1473  41.414   3.305   9.769
36214W        W 1474  35.909  38.192   0.728
36215W        W 1475  32.005   6.201  14.266
36216W        W 1476   9.562   4.831   3.725
36217W        W 1477  17.358  30.535   1.245
36218W        W 1478  24.070   2.808   2.919
36219W        W 1479  36.939  33.934   0.721
36220W        W 1480   9.025  20.541  14.376
36221W        W 1481  37.659  11.215  14.040
36222W        W 1482  30.595  20.369  12.943
36223W        W 1483  43.037  26.245   0.392
36224W        W 1484  37.720  28.663  13.450
36225W        W 1485  24.663  31.904   0.752
36226W        W 1486  38.386  35.315   1.112
36227W        W 1487  22.783  39.814  11.860
36228W        W 1488  24.438  41.575  12.997
36229W        W 1489  24.400  15.588  11.064
36230W        W 1490  24.105  36.682  11.247
36231W        W 1491  18.707  26.597  10.354
36232W        W 1492  28.576  37.579  13.660
36233W        W 1493   2.641  11.864   2.746
36234W        W 1494  12.574  39.120   4.613
36235W        W 1495   4.240  17.605   4.442
36236W        W 1496  22.002  39.882  12.946
36237W        W 1497  24.938  40.355   1.273
36238W        W 1498  28.630  10.703  11.052
36239W        W 1499  11.928   2.708  12.343
36240W        W 1500  25.618  29.069   3.782
36241W        W 1501  32.794   1.644  11.589
36242W        W 1502  35.087   9.183   0.270
36243W        W 1503  39.234  39.021   2.114
36244W        W 1504  19.421  38.574   3.113
36245W        W 1505  25.656  27.765   1.214
36246W        W 1506  29.939  31.501  10.867
36247W        W 1507  30.092  10.605  13.565
36248W        W 1508   0.954  19.023  11.431
36249W        W 1509   3.950  42.458   2.834
36250W        W 1510  23.744  12.692   2.185
36251W        W 1511  22.760  38.100   1.723
36252W        W 1512  13.139  25.113  11.461
36253W        W 1513  19.137  43.364  10.702
36254W        W 1514  27.067  44.568   2.762
36255W        W 1515  18.080  21.815   0.597
36256W        W 1516  27.244  38.986   4.388
36257W        W 1517  10.896  41.579  13.554
36258W        W 1518  23.493  19.074  12.555
36259W        W 1519  42.572  29.117  12.967
36260W        W 1520  29.835  11.262  13.720
36261W        W 1521   2.211  36.021  10.921
36262W        W 1522  18.178  32.433  13.568
36263W        W 1523  38.501  23.816  11.201
36264W        W 1524  41.226  42.417   3.649
36265W        W 1525   1.546  18.367  13.840
36266W        W 1526  44.827   9.197   1.714
36267W        W 1527  25.707  44.606  11.877
36268W        W 1528  19.935  36.452  11.115
36269W        W 1529  34.056  18.373  13.356
36270W        W 1530  44.998  26.351  12.803
36271W        W 1531   3.193  35.118  12.546
36272W        W 1532  35.332  38.910  13.710
36273W        W 1533  37.150  22.223   2.339
36274W        W 1534  30.146  33.806  10.493
36275W        W 1535  25.177  39.268   9.779
36276W        W 1536  38.027  33.170  13.469
36277W        W 1537  13.255  31.797  13.604
36278W        W 1538  40.905  44.889  11.094
36279W        W 1539   0.472  44.535  14.798
36280W        W 1540  36.920  22.104   3.861
36281W        W 1541  30.834   7.762  13.560
36282W        W 1542  30.343  14.623  13.979
36283W        W 1543  43.362   7.347   1.893
36284W        W 1544  15.562  11.173  11.082
36285W        W 1545  18.154   4.934   3.356
36286W        W 1546   4.186  19.314   5.044
36287W        W 1547  35.938  34.876   1.220
36288W        W 1548   0.048  23.110  10.678
36289W        W 1549  41.422  37.931   4.212
36290W        W 1550  30.010  29.246   3.656
36291W        W 1551   5.156  35.685   0.425
36292W        W 1552  22.518  27.992  11.249
36293W        W 1553  32.003   3.647   2.994
36294W        W 1554  14.209  17.999  10.751
36295W        W 1555  43.160  21.740  13.278
36296W        W 1556  39.944  19.156  13.824
36297W        W 1557  11.211  11.525  14.860
36298W        W 1558  38.290   7.973   1.547
36299W        W 1559  11.786   7.864   2.209
36300W        W 1560  30.609  16.746   4.102
36301W        W 1561  11.684  43.524  11.328
36302W        W 1562  17.536  40.411  12.276
36303W        W 1563   8.227   9.351   2.844
36304W        W 1564  42.575  26.647   5.114
36305W        W 1565  40.454  36.017  10.673
36306W        W 1566  10.157   2.526   1.929
36307W        W 1567   5.541   1.713   1.860
36308W        W 1568  20.677   3.297  11.913
36309W        W 1569  44.993  25.848  12.703
36310W        W 1570  20.881  12.167   4.634
36311W        W 1571  40.471  31.970   9.943
36312W        W 1572  19.461  43.332  11.102
36313W        W 1573   9.613  16.119   1.200
36314W        W 1574  13.819  38.623  12.553
36315W        W 1575  23.958   7.694  10.720
36316W        W 1576  14.238   0.502   2.414
36317W        W 1577   9.421  19.831  12.497
36318W        W 1578  27.574  12.257  14.807
36319W        W 1579  25.387  36.944   2.691
36320W        W 1580  17.193  41.480   0.869
36321W        W 1581  22.436   7.962  11.497
36322W        W 1582  18.599  36.718   3.376
36323W        W 1583  38.934   8.197   0.236
36324W        W 1584   1.508   4.273  12.407
36325W        W 1585  29.871  17.820   2.313
36326W        W 1586  41.114   6.809  11.298
36327W        W 1587  42.427  21.023  14.334
36328W        W 1588  28.775  28.043  12.957
36329W        W 1589  10.777   8.939   1.778
36330W        W 1590  37.144  28.082   0.875
36331W        W 1591   9.955  15.142   1.314
36332W        W 1592  22.005  36.485   3.101
36333W        W 1593  22.766  44.613  11.295
36334W        W 1594  19.682  35.671  12.098
36335W        W 1595  33.690   3.219   0.289
36336W        W 1596   0.445  21.420   1.681
36337W        W 1597   3.027  20.005  14.919
36338W        W 1598  18.552  27.607   1.678
36339W        W 1599  16.011   1.661   3.550
36340W        W 1600  38.759  15.297  11.220
36341W        W 1601  25.749  33.113  11.386
36342W        W 1602  33.479  35.076   5.022
36343W        W 1603  19.190  29.418  12.671
36344W        W 1604   9.118   1.309  14.497
36345W        W 1605   8.145  25.702   1.399
36346W        W 1606  43.038  26.462  13.499
36347W        W 1607  32.517  44.263  14.314
36348W        W 1608  18.789   6.248   2.247
36349W        W 1609  10.794  14.215   1.492
36350W        W 1610   9.247  43.751   0.995
36351W        W 1611  14.774   5.853   3.645
36352W        W 1612  43.306  39.331   3.257
36353W        W 1613  28.945  25.264   4.747
36354W        W 1614  29.611  34.988   0.360
36355W        W 1615   6.917  13.380  11.617
36356W        W 1616  36.754  12.212  11.061
36357W        W 1617  37.540  22.984   4.846
36358W        W 1618  39.056  16.302   2.769
36359W        W 1619  20.513  40.648   2.905
36360W        W 1620   7.755  28.620   3.584
36361W        W 1621  43.381  14.486   0.721
36362W        W 1622  11.822  22.809  12.892
36363W        W 1623  22.187  18.786   3.586
36364W        W 1624  44.313  30.117   0.317
36365W        W 1625   8.942  31.203   0.704
36366W        W 1626  41.768  44.003  10.686
36367W        W 1627  38.940  38.517  13.606
36368W        W 1628   1.362  32.371   0.389
36369W        W 1629  16.363  30.601   0.311
36370W        W 1630   0.313  30.512   3.295
36371W        W 1631   8.206  36.374   4.253
36372W        W 1632   7.218   3.986  14.864
36373W        W 1633  36.489   4.464  10.636
36374W        W 1634   9.365   9.688  14.711
36375W        W 1635  29.503  41.033   2.687
36376W        W 1636  17.541  20.535  12.013
36377W        W 1637   3.219  35.335  10.747
36378W        W 1638  23.741   6.138  14.998
36379W        W 1639  20.657   9.205   2.722
36380W        W 1640  32.952  38.190   1.510
36381W        W 1641  22.685  22.128  14.635
36382W        W 1642  36.463  28.915   3.284
36383W        W 1643   3.751  33.916  11.352
36384W        W 1644  24.794  22.558  13.820
36385W        W 1645  36.869   4.731  12.265
36386W        W 1646  19.729  11.608   2.440
36387W        W 1647  42.107   9.236   2.694
36388W        W 1648  33.950  42.519  11.726
36389W        W 1649  25.860  40.382  11.572
36390W        W 1650  34.942  11.718  14.794
36391W        W 1651  10.833  42.928  14.992
36392W        W 1652  24.470  17.164  12.133
36393W        W 1653  29.301  11.809   1.151
36394W        W 1654  24.581  10.469   4.739
36395W        W 1655  24.299  38.946   0.861
36396W        W 1656  35.129  28.285   0.322
36397W        W 1657  22.921  23.131   3.335
36398W        W 1658  27.493   3.520  14.802
36399W        W 1659  27.776  22.577   1.380
36400W        W 1660  12.968  27.608  10.447
36401W        W 1661  36.597  13.580   4.196
36402W        W 1662  14.284  41.882   1.391
36403W        W 1663  24.478   4.400  13.340
36404W        W 1664  22.377  37.309   0.528
36405W        W 1665  28.615  24.681  11.891
36406W        W 1666  22.214  34.821   5.021
36407W        W 1667  23.900  15.573   1.933
36408W        W 1668  30.344  12.704  13.787
36409W        W 1669  12.801  11.160   3.916
36410W        W 1670   7.457  35.370  11.082
36411W        W 1671  28.632   3.262   0.398
36412W        W 1672  16.367  17.825  14.392
36413W        W 1673  23.215  27.009   4.403
36414W        W 1674   6.869   5.773   3.753
36415W        W 1675  17.759  44.249  12.220
36416W        W 1676  37.042   2.792  11.081
36417W        W 1677   2.490  33.107  11.241
36418W        W 1678   8.856  21.541   0.960
36419W        W 1679  10.619  16.253  11.567
36420W        W 1680  24.916   6.399  13.428
36421W        W 1681  23.622  11.087  11.532
36422W        W 1682  15.579  25.441   4.601
36423W        W 1683   4.694  43.105   3.755
36424W        W 1684  26.722  44.107   4.274
36425W        W 1685  32.895  33.331  10.710
36426W        W 1686  24.412  41.960  14.464
36427W        W 1687  44.373  24.705   2.722
36428W        W 1688  21.014   9.524  12.899
36429W        W 1689  28.385  43.360  13.403
36430W        W 1690  18.221  21.862  14.238
36431W        W 1691  20.044  29.637   2.351
36432W        W 1692  39.718  22.611   1.724
36433W        W 1693   0.400  36.976   4.349
36434W        W 1694   9.213  31.195   3.663
36435W        W 1695   6.322  23.975  13.053
36436W        W 1696   7.036  17.565  12.061
36437W        W 1697  18.773   9.323   1.762
36438W        W 1698   5.173  22.057   0.886
36439W        W 1699  37.751  37.250  11.720
36440W        W 1700   4.527  31.199   1.153
36441W        W 1701  39.586  27.897   0.985
36442W        W 1702  36.697  43.758   1.800
36443W        W 1703  28.079   8.764  13.127
36444W        W 1704  25.561   4.056  13.031
36445W        W 1705  42.266   2.508   2.318
36446W        W 1706  29.612  16.264  14.324
36447W        W 1707  44.678  38.428  14.440
36448W        W 1708  27.989  28.547   1.666
36449W        W 1709  13.150   9.394   4.135
36450W        W 1710  28.385  38.566  11.037
36451W        W 1711  30.061  15.915  10.689
36452W        W 1712  39.016   8.843  10.624
36453W        W 1713  25.098  43.650   2.220
36454W        W 1714  18.127   6.506  11.055
36455W        W 1715  38.624   9.884   1.831
36456W        W 1716  14.647  20.053   1.380
36457W        W 1717  14.116  38.001   4.571
36458W        W 1718  20.752  16.052  12.017
36459W        W 1719  20.230  37.217   3.643
36460W        W 1720  38.559  25.656   3.887
36461W        W 1721  23.168  14.969  13.448
36462W        W 1722  17.590  18.504   9.842
36463W        W 1723  31.907  42.050  10.693
36464W        W 1724  33.783  16.642  14.779
36465W        W 1725   0.405  28.053   2.233
36466W        W 1726  31.543  21.092  13.573
36467W        W 1727  29.684  29.968   0.807
36468W        W 1728  21.101  19.334   3.824
36469W        W 1729  25.959  24.106  12.701
36470W        W 1730  31.162   0.931   4.331
36471W        W 1731  30.555  42.923   0.858
36472W        W 1732   5.042  16.458  14.683
36473W        W 1733   0.051  37.504  14.295
36474W        W 1734   9.924  38.241   1.680
36475W        W 1735  38.823  31.354  12.501
36476W        W 1736  11.282  17.557   2.348
36477W        W 1737   4.486  25.733   1.939
36478W        W 1738  21.143   1.335  14.384
36479W        W 1739  27.985  32.296   0.006
36480W        W 1740   1.934  27.459   2.209
36481W        W 1741  40.982  14.236  12.530
36482W        W 1742  37.359  21.319  11.063
36483W        W 1743   9.428  17.270   4.978
36484W        W 1744  43.774   1.154  14.538
36485W        W 1745  27.967  27.315   2.390
36486W        W 1746  33.547   7.242  13.169
36487W        W 1747  12.392  35.356   1.695
36488W        W 1748  20.723   5.180   5.439
36489W        W 1749  17.360  11.125   1.767
36490W        W 1750  22.133  18.686   2.608
36491W        W 1751  20.587  43.481  13.982
36492W        W 1752   9.767   5.487  14.761
36493W        W 1753  23.902  13.074   5.125
36494W        W 1754   9.899  43.613  14.443
36495W        W 1755   8.361  38.446  13.247
36496W        W 1756  12.774  17.368   2.255
36497W        W 1757  37.870   3.191  13.144
36498W        W 1758  30.961  27.442   0.744
36499W        W 1759  11.621  32.121   2.237
36500W        W 1760  31.848   7.169   2.650
36501W        W 1761  37.996   5.937   0.794
36502W        W 1762  43.741   9.139  13.485
36503W        W 1763  39.564  32.393   2.765
36504W        W 1764  22.748  29.595  14.806
36505W        W 1765  36.340   7.655   3.345
36506W        W 1766   3.422  16.622   3.546
36507W        W 1767   5.954   6.158  13.329
36508W        W 1768  26.024  14.126   1.428
36509W        W 1769  15.716  13.732   0.342
36510W        W 1770  25.222  24.145   0.972
36511W        W 1771  33.159   9.169  11.182
36512W        W 1772  44.773  31.535   0.721
36513W        W 1773  32.179  22.470  10.707
36514W        W 1774  22.541  40.623   5.093
36515W        W 1775   1.463  30.079   1.715
36516W        W 1776  26.648  27.230   1.109
36517W        W 1777  10.414   6.292  13.623
36518W        W 1778  26.123   1.159  12.950
36519W        W 1779  39.235  27.912  13.641
36520W        W 1780  23.541  34.674   5.505
36521W        W 1781  42.276  30.939  13.075
36522W        W 1782  15.229  30.275  11.191
36523W        W 1783  25.039  24.468  11.455
36524W        W 1784  19.222  43.506   4.414
36525W        W 1785  12.119   2.751  11.655
36526W        W 1786  15.105  31.534  12.954
36527W        W 1787  18.781  26.321   2.304
36528W        W 1788   0.246   3.019  12.872
36529W        W 1789  23.401   7.358  10.303
36530W        W 1790   9.170   3.274  10.261
36531W        W 1791   2.182  15.003  10.953
36532W        W 1792  13.009  44.936   1.536
36533W        W 1793  23.068  37.090   3.568
36534W        W 1794  22.383  10.061   3.178
36535W        W 1795  10.614  20.285  10.661
36536W        W 1796  30.187  11.130   3.807
36537W        W 1797   1.106  43.458   2.283
36538W        W 1798  43.446   1.443   1.665
36539W        W 1799  38.585   3.977   0.216
36540W        W 1800  43.452  14.400  13.292
36541W        W 1801  29.970  32.582   3.559
36542W        W 1802   7.455  35.517  14.795
36543W        W 1803  42.482  28.092   1.700
36544W        W 1804  14.268  36.600   4.764
36545W        W 1805  41.866  27.163  10.902
36546W        W 1806  35.109  42.086  11.599
36547W        W 1807  14.699   0.435  14.900
36548W        W 1808  16.833  34.515  12.583
36549W        W 1809   3.615  44.914  13.989
36550W        W 1810  19.514  30.382  13.463
36551W        W 1811  23.181   4.344   3.781
36552W        W 1812  26.978  17.177   0.055
36553W        W 1813  32.444  16.705   4.536
36554W        W 1814   4.267  10.780  14.741
36555W        W 1815   5.429  29.506   0.806
36556W        W 1816  14.860   1.254  14.386
36557W        W 1817  38.043  21.350  11.553
36558W        W 1818  20.010  24.607  12.932
36559W        W 1819  26.147  25.049  11.595
36560W        W 1820  41.875  39.557  12.967
36561W        W 1821  35.130  22.661  13.005
36562W        W 1822   1.514  33.037  13.259
36563W        W 1823   2.267   9.583   0.797
36564W        W 1824   9.675  36.024   4.269
36565W        W 1825  36.406   8.786   4.109
36566W        W 1826  34.990  14.353   2.322
36567W        W 1827   0.736  43.962  11.151
36568W        W 1828   0.331  20.303   2.391
36569W        W 1829  23.907  30.382   3.324
36570W        W 1830  27.927  35.957  11.060
36571W        W 1831  23.647  15.874  14.557
36572W        W 1832  15.805  33.619   2.898
36573W        W 1833  15.849  18.213   2.297
36574W        W 1834  25.678  43.484  14.820
36575W        W 1835  36.947  13.204  10.751
36576W        W 1836  30.866   2.441   3.337
36577W        W 1837   7.833   1.237  10.680
36578W        W 1838  14.148  23.999  14.162
36579W        W 1839  12.188  30.118   1.646
36580W        W 1840  25.590  39.879  10.731
36581W        W 1841  31.730  35.871   2.756
36582W        W 1842   6.440  25.553   2.663
36583W        W 1843  20.263  13.682  14.953
36584W        W 1844  24.307  24.578   3.145
36585W        W 1845  37.513  29.026  10.486
36586W        W 1846  33.626  26.037   2.759
36587W        W 1847   2.332  34.532   0.967
36588W        W 1848   6.731   8.255   3.729
36589W        W 1849  12.245  40.910   4.685
36590W        W 1850  32.232  33.527   0.463
36591W        W 1851   8.478  16.042   3.731
36592W        W 1852  17.637  14.782   1.987
36593W        W 1853  21.036  16.990  11.088
36594W        W 1854  22.988  23.749  13.462
36595W        W 1855  18.708  24.052   0.841
36596W        W 1856  27.209  38.598   0.327
36597W        W 1857   9.994  27.964   5.030
36598W        W 1858  35.782  37.040   4.039
36599W        W 1859  17.292  18.204   0.203
36600W        W 1860  20.575  16.925  11.744
36601W        W 1861  41.296  43.832   0.753
36602W        W 1862  39.596  34.601   3.670
36603W        W 1863   7.471  30.797   4.160
36604W        W 1864  23.975   8.546   2.306
36605W        W 1865  30.121  17.233  14.445
36606W        W 1866   1.214   7.882   2.627
36607W        W 1867  21.608  26.922   3.098
36608W        W 1868  37.271  30.531  11.618
36609W        W 1869  22.545   9.130  10.758
36610W        W 1870   8.928  22.638  11.447
36611W        W 1871   1.664  32.216  14.960
36612W        W 1872  27.982  17.802  14.087
36613W        W 1873  19.213  21.633   3.367
36614W        W 1874  42.763  36.158   0.366
36615W        W 1875  22.092   2.377   4.520
36616W        W 1876  37.548  30.628   3.212
36617W        W 1877  40.911  23.695  12.010
36618W        W 1878  20.985   7.143  14.791
36619W        W 1879   9.514   9.630   4.249
36620W        W 1880  24.229  15.793  11.510
36621W        W 1881  30.985  25.883   0.742
36622W        W 1882  36.922  25.911   4.749
36623W        W 1883  35.758   3.293   4.276
36624W        W 1884   0.797  40.488   1.021
36625W        W 1885   0.875  40.038  13.708
36626W        W 1886   8.258  21.867   1.390
36627W        W 1887  35.890   0.910  12.110
36628W        W 1888   1.520  11.297  11.453
36629W        W 1889  17.346  10.567   1.781
36630W        W 1890  24.083  32.496  11.128
36631W        W 1891  17.746  13.817   0.985
36632W        W 1892  38.280   7.331  14.786
36633W        W 1893  27.539  20.108  13.563
36634W        W 1894  11.240  33.110  11.627
36635W        W 1895  12.755  43.414   4.458
36636W        W 1896   3.037  28.926   4.611
36637W        W 1897  18.180  17.439  11.765
36638W        W 1898  29.278  41.192  13.011
36639W        W 1899  12.143   0.366  11.461
36640W        W 1900  37.601  12.811   0.208
36641W        W 1901  17.144  28.344  10.312
36642W        W 1902  24.551  33.140  14.268
36643W        W 1903  10.368  29.573   1.205
36644W        W 1904   7.803  39.272  12.074
36645W        W 1905  24.367   7.342  14.807
36646W        W 1906   8.220   9.963  13.049
36647W        W 1907  28.126   8.514  11.931
36648W        W 1908   3.071  20.291   3.276
36649W        W 1909  31.817  30.650  11.210
36650W        W 1910  23.140  20.605  14.487
36651W        W 1911  38.051  17.503  14.786
36652W        W 1912  13.187  24.479  10.247
36653W        W 1913   9.675  28.947  14.198
36654W        W 1914  19.172  26.971  10.429
36655W        W 1915  44.408  16.701  14.522
36656W        W 1916  17.286   6.453  12.635
36657W        W 1917  40.486  44.454   2.065
36658W        W 1918  43.381  33.866  12.395
36659W        W 1919  26.585  11.183   2.225
36660W        W 1920  40.617  42.070   1.787
36661W        W 1921  43.280  21.033  11.429
36662W        W 1922  40.895  30.649   3.812
36663W        W 1923  38.277  10.540  14.577
36664W        W 1924  42.344  38.835  11.088
36665W        W 1925  16.802  28.680  12.424
36666W        W 1926  36.412  33.580   4.977
36667W        W 1927  14.143  38.740  14.227
36668W        W 1928  27.869  15.603   3.980
36669W        W 1929  12.583   9.941  14.919
36670W        W 1930   6.123  40.777  12.363
36671W        W 1931  24.000  34.536   0.989
36672W        W 1932  41.967  11.810  13.235
36673W        W 1933  21.069   1.996   2.226
36674W        W 1934  43.065  24.103  12.070
36675W        W 1935  23.536   1.329   0.890
36676W        W 1936   8.382   2.498   3.695
36677W        W 1937   7.443  30.663  14.402
36678W        W 1938  44.496  10.346  13.805
36679W        W 1939  10.216   9.020   3.822
36680W        W 1940  38.113   1.582  10.126
36681W        W 1941   4.202  15.421  14.303
36682W        W 1942  24.057   0.403  12.578
36683W        W 1943   2.644  16.344   4.070
36684W        W 1944   8.570  38.505   1.269
36685W        W 1945  35.318   4.599  12.827
36686W        W 1946  32.114  23.007   1.904
36687W        W 1947  24.262   3.798   2.670
36688W        W 1948  25.715  20.742   1.212
36689W        W 1949   8.077  43.746  13.032
36690W        W 1950  18.720  20.703  12.996
36691W        W 1951  20.263  29.225  12.998
36692W        W 1952  39.106   1.301  12.741
36693W        W 1953   0.350   6.231   1.831
36694W        W 1954  44.731  18.249  12.883
36695W        W 1955  16.539   2.340   2.373
36696W        W 1956  15.594  31.015  11.153
36697W        W 1957   8.162  40.448  11.829
36698W        W 1958  16.098   5.274  14.946
36699W        W 1959  26.785  35.967   1.831
36700W        W 1960  22.605  14.739   0.859
36701W        W 1961   7.865  31.946  14.536
36702W        W 1962  30.499  19.632   2.838
36703W        W 1963  41.044   6.813   0.436
36704W        W 1964  27.094  44.008  11.180
36705W        W 1965  15.883   8.800   3.242
36706W        W 1966  27.647  41.461  11.625
36707W        W 1967  22.142   4.503  14.430
36708W        W 1968  25.573  17.063  10.284
36709W        W 1969  31.569  38.513  12.751
36710W        W 1970   7.257  42.513  13.820
36711W        W 1971   9.355  37.148   3.851
36712W        W 1972  11.628  36.599  11.991
36713W        W 1973   9.706  41.312  12.789
36714W        W 1974  18.758  34.058  13.652
36715W        W 1975  34.622  21.752  12.232
36716W        W 1976   1.008   4.367  11.192
36717W        W 1977  15.375   4.481  12.488
36718W        W 1978  36.124   2.756   1.437
36719W        W 1979  11.608  10.261  13.252
36720W        W 1980  11.855   1.696  12.079
36721W        W 1981  33.915  14.850   0.947
36722W        W 1982  18.010  43.877   2.254
36723W        W 1983  37.714  17.485  13.525
36724W        W 1984   1.475  34.818   2.651
36725W        W 1985  27.570   2.559  11.489
36726W        W 1986  11.201  13.893  12.917
36727W        W 1987  28.847  15.274   2.460
36728W        W 1988  25.050  32.022  14.945
36729W        W 1989   6.455   7.890   2.775
36730W        W 1990   1.495  44.800   1.058
36731W        W 1991  44.321   7.271  10.366
36732W        W 1992  26.972   7.141   0.058
36733W        W 1993   6.485   3.663  14.280
36734W        W 1994   6.857  15.851   3.688
36735W        W 1995  12.233  10.234   2.596
36736W        W 1996   3.528  40.400   3.246
36737W        W 1997   2.188  16.348  13.992
36738W        W 1998  26.915  37.837   1.263
36739W        W 1999  34.651   8.543  10.317
36740W        W 2000   2.880  26.144   3.091
36741W        W 2001   3.889  11.788   1.450
36742W        W 2002  40.484  14.159  12.381
36743W        W 2003  42.234  29.562  11.214
36744W        W 2004  28.670  17.763   0.493
36745W        W 2005  15.343  38.098  14.636
36746W        W 2006   2.382  23.950   4.788
36747W        W 2007  28.838   2.299   4.843
36748W        W 2008  16.023  16.137   3.627
36749W        W 2009  38.310  11.318   3.235
36750W        W 2010  43.698  19.567   3.463
36751W        W 2011  28.013  33.219  11.905
36752W        W 2012  36.215  27.692   0.854
36753W        W 2013  37.358   5.453   1.718
36754W        W 2014   1.923  30.335  13.517
36755W        W 2015  23.250   0.999  10.435
36756W        W 2016  19.616  33.416   4.134
36757W        W 2017  22.681  34.324   5.427
36758W        W 2018  31.439  30.067  14.406
36759W        W 2019  43.523  27.252   0.314
36760W        W 2020  44.126  10.431   9.884
36761W        W 2021  28.574   6.792   2.837
36762W        W 2022  29.215  44.346  12.808
36763W        W 2023  27.673  43.907   2.296
36764W        W 2024  20.943  42.356  11.027
36765W        W 2025  39.049  23.295  11.509
36766W        W 2026   9.827  22.796  12.565
36767W        W 2027  26.273  38.157  12.927
36768W        W 2028  31.668  26.596   0.078
36769W        W 2029   8.767  37.255  12.064
36770W        W 2030   1.932  15.373   3.772
36771W        W 2031  25.588  16.301   3.257
36772W        W 2032  18.311   4.970  12.374
36773W        W 2033  26.971  13.082   4.127
36774W        W 2034  40.088  21.776  13.410
36775W        W 2035  36.451  10.406   2.099
36776W        W 2036  10.569  34.176   0.350
36777W        W 2037  13.298  29.454  11.578
36778W        W 2038   4.516  29.777   1.260
36779W        W 2039  24.729  22.322  14.352
36780W        W 2040   0.406  21.309   0.321
36781W        W 2041  11.090  43.821  13.971
36782W        W 2042  21.243  18.019  13.879
36783W        W 2043  28.757  19.539  12.442
36784W        W 2044  14.010  32.085   2.372
36785W        W 2045  21.446  43.250   1.136
36786W        W 2046  26.027   4.102   1.181
36787W        W 2047   0.776  17.370  12.049
36788W        W 2048  34.541   9.027   0.368
36789W        W 2049  23.235  12.867   2.206
36790W        W 2050  28.748  29.380   4.631
36791W        W 2051  32.444  29.109   3.156
36792W        W 2052   8.701   4.680  11.999
36793W        W 2053  38.574  23.488  11.595
36794W        W 2054  44.945   4.956   0.983
36795W        W 2055  31.263  28.550  10.740
36796W        W 2056  21.464   0.009   0.273
36797W        W 2057  39.526  21.724   4.856
36798W        W 2058  11.352   9.715   4.537
36799W        W 2059  15.064   6.417  10.336
36800W        W 2060  24.059   7.883  14.696
36801W        W 2061  13.813  37.063   2.736
36802W        W 2062  38.286  41.968   0.849
36803W        W 2063  28.012  37.373   2.393
36804W        W 2064  18.038  18.216  11.122
36805W        W 2065   9.904  38.597   0.552
36806W        W 2066  44.768  27.126  13.984
36807W        W 2067   6.982   8.111   3.199
36808W        W 2068   0.912   8.871   2.277
36809W        W 2069   7.142  30.970   1.249
36810W        W 2070  27.053  37.814   2.601
36811W        W 2071  14.379   7.148  14.471
36812W        W 2072  31.699  19.583   4.584
36813W        W 2073  21.976  29.460  11.206
36814W        W 2074  13.187  41.443   2.447
36815W        W 2075   4.986   5.981   4.934
36816W        W 2076   3.016   1.760  13.324
36817W        W 2077  40.408  28.888   4.570
36818W        W 2078  16.143  30.967  14.489
36819W        W 2079   9.139  13.744  11.571
36820W        W 2080  14.326  19.133  14.034
36821W        W 2081  32.183   6.828   2.419
36822W        W 2082  12.384  24.628   3.130
36823W        W 2083   3.151  30.200  13.278
36824W        W 2084  16.384   1.310  14.519
36825W        W 2085  36.620  13.840  11.589
36826W        W 2086   8.645  22.474   1.425
36827W        W 2087  44.759   9.470   0.149
36828W        W 2088  23.916  43.715  12.972
36829W        W 2089   7.586  31.456   2.385
36830W        W 2090   1.285   1.272   2.855
36831W        W 2091   5.494  37.053  14.265
36832W        W 2092  29.540  42.534  10.502
36833W        W 2093  39.224  33.404   4.245
36834W        W 2094  37.277   0.912   2.313
36835W        W 2095  21.108  39.323   2.240
36836W        W 2096  28.071  16.292  10.182
36837W        W 2097  33.042  39.200  10.349
36838W        W 2098  16.126  40.053  14.534
36839W        W 2099  25.131  43.225  14.884
36840W        W 2100   6.439   5.587   3.523
36841W        W 2101   5.732  29.525  12.352
36842W        W 2102   2.987  30.885   1.267
36843W        W 2103   2.511  33.016   0.512
36844W        W 2104   3.321  20.697   3.033
36845W        W 2105  41.368  43.732   0.268
36846W        W 2106  10.054  36.977   5.075
36847W        W 2107   8.502  34.204   2.819
36848W        W 2108   8.960  17.024  11.914
36849W        W 2109  10.892  21.541  10.966
36850W        W 2110  21.175  12.610   2.566
36851W        W 2111   0.936  34.366   3.650
36852W        W 2112  12.263  10.149   2.080
36853W        W 2113  24.249  32.970   0.361
36854W        W 2114  33.304  29.765  10.407
36855W        W 2115  20.294  22.195   4.639
36856W        W 2116   7.142  27.161   9.792
36857W        W 2117   5.867   5.261   4.181
36858W        W 2118  31.312  17.006  13.002
36859W        W 2119  17.335   6.711   2.712
36860W        W 2120  22.823  28.033   3.286
36861W        W 2121  33.029  43.506  13.060
36862W        W 2122  16.120   4.334  11.869
36863W        W 2123  29.225  38.960   1.272
36864W        W 2124   7.787   4.156  13.009
36865W        W 2125  14.498  26.059   3.713
36866W        W 2126  43.945  10.090  14.882
36867W        W 2127  43.019   4.781   3.072
36868W        W 2128  34.903  13.886   0.665
36869W        W 2129   2.460   1.607   4.190
36870W        W 2130  43.028  39.875  13.262
36871W        W 2131   8.132   1.835   2.328
36872W        W 2132  30.430  17.156   0.811
36873W        W 2133   1.120  31.490  10.678
36874W        W 2134   3.479  15.649   0.893
36875W        W 2135  17.999   1.428   1.899
36876W        W 2136   4.304   1.734  12.959
36877W        W 2137  20.080  16.197  10.541
36878W        W 2138   8.248  25.544  11.627
36879W        W 2139  11.340  16.089   3.198
36880W        W 2140  24.031  28.469   2.355
36881W        W 2141  13.172  27.643   4.633
36882W        W 2142  30.356  37.704  11.737
36883W        W 2143   9.388  19.055  12.979
36884W        W 2144  11.161  38.784  12.068
36885W        W 2145  24.782   8.300   9.713
36886W        W 2146   8.724  19.337  10.753
36887W        W 2147  22.660  24.739   4.005
36888W        W 2148  35.343  22.589   3.181
36889W        W 2149  12.398  10.364  10.641
36890W        W 2150  18.474  36.050  11.167
36891W        W 2151   0.320  17.282  10.399
36892W        W 2152  33.956  18.907   1.272
36893W        W 2153  18.273  23.519   2.422
36894W        W 2154  11.076   3.449  10.321
36895W        W 2155  25.670  41.992   0.031
36896W        W 2156   1.846  39.289  12.708
36897W        W 2157  10.776  29.119   4.675
36898W        W 2158  44.359  40.504   5.169
36899W        W 2159  15.590  24.148  11.169
36900W        W 2160   2.409  40.520  12.212
36901W        W 2161  11.163   4.303   1.452
36902W        W 2162   7.739  44.336  10.604
36903W        W 2163  10.817  29.615   3.805
36904W        W 2164   9.513  35.184  10.000
36905W        W 2165  28.639  13.393  12.596
36906W        W 2166  25.571  22.503  14.463
36907W        W 2167  42.773  18.865   0.749
36908W        W 2168  31.330   3.395  14.873
36909W        W 2169  13.696  14.513   0.898
36910W        W 2170  30.634   2.860   3.761
36911W        W 2171  41.495  15.408   0.271
36912W        W 2172  36.507  10.603   4.113
36913W        W 2173  30.218  39.892   0.858
36914W        W 2174  22.163  16.961   4.136
36915W        W 2175   2.099  29.183  12.213
36916W        W 2176  36.557  41.539   4.154
36917W        W 2177  28.611  18.035  14.811
36918W        W 2178  31.938   0.283   2.243
36919W        W 2179   5.498  31.785   3.759
36920W        W 2180   4.674  23.600  12.469
36921W        W 2181  21.744  41.217  13.566
36922W        W 2182  35.060  31.287   2.305
36923W        W 2183  31.669  29.414  12.425
36924W        W 2184  38.949  12.846  11.090
36925W        W 2185  33.399  22.984   1.284
36926W        W 2186   5.999  30.436   0.693
36927W        W 2187  42.414  26.932  12.119
36928W        W 2188  40.787  41.662  14.928
36929W        W 2189  31.121   4.873  11.481
36930W        W 2190  33.131  41.459  14.480
36931W        W 2191  26.443  23.096  14.472
36932W        W 2192  39.842  13.792   4.388
36933W        W 2193  12.792  42.447  12.549
36934W        W 2194  20.108  30.940   4.158
36935W        W 2195  16.834   1.913   4.749
36936W        W 2196  19.706  21.996  12.533
36937W        W 2197   7.410  20.788   3.591
36938W        W 2198  11.853  36.789  13.915
36939W        W 2199  26.049  42.900   2.906
36940W        W 2200   2.009   5.333   4.643
36941W        W 2201  27.371  22.867  11.477
36942W        W 2202  36.266  33.855   0.159
36943W        W 2203  21.722  12.740   1.226
36944W        W 2204  23.525  30.530  13.273
36945W        W 2205  15.857   3.435   4.220
36946W        W 2206   4.218  23.277   2.312
36947W        W 2207  32.815  24.491  13.360
36948W        W 2208  14.794  32.410   3.695
36949W        W 2209  31.166  30.032  11.167
36950W        W 2210  33.397   1.416   0.267
36951W        W 2211  31.634  36.172  14.093
36952W        W 2212  34.001  26.208   1.887
36953W        W 2213  15.611  15.200  11.416
36954W        W 2214  41.841   0.451  12.992
36955W        W 2215  22.134  26.088   2.086
36956W        W 2216  22.180   6.651  12.856
36957W        W 2217  20.742   3.349  10.919
36958W        W 2218  38.817  30.971   3.646
36959W        W 2219  22.195  27.920   2.359
36960W        W 2220  43.845  22.994   2.758
36961W        W 2221  17.508   3.375   2.786
36962W        W 2222  35.365  32.165  12.432
36963W        W 2223   4.972  41.397   0.419
36964W        W 2224   0.175  39.937  12.786
36965W        W 2225  17.061  40.288   1.488
36966W        W 2226   9.637  37.835   4.615
36967W        W 2227  44.153  13.221   1.195
36968W        W 2228   9.348   3.665  14.831
36969W        W 2229  31.451  37.354  10.685
36970W        W 2230  35.822   6.379  12.185
36971W        W 2231  30.547  44.510  13.763
36972W        W 2232   9.620  15.128   1.885
36973W        W 2233  37.694   1.894  14.071
36974W        W 2234  26.355  22.175  12.892
36975W        W 2235  34.497  31.347  13.337
36976W        W 2236  33.396  41.031  10.363
36977W        W 2237  21.213  38.293  14.267
36978W        W 2238  21.728  35.951  12.381
36979W        W 2239  20.369  24.159   0.422
36980W        W 2240   4.346  41.093   4.162
36981W        W 2241  23.668  11.113  12.066
36982W        W 2242  25.971   5.203   4.543
36983W        W 2243  32.996  39.876  14.493
36984W        W 2244  26.164   6.887  10.978
36985W        W 2245  18.236  40.404   3.380
36986W        W 2246  29.047  32.674  13.154
36987W        W 2247   2.698  15.568   0.263
36988W        W 2248   1.954   6.285   4.255
36989W        W 2249   8.436  17.028   4.225
36990W        W 2250  14.457  32.115  13.642
36991W        W 2251  20.238  11.402  12.026
36992W        W 2252  32.970   9.117  14.830
36993W        W 2253  14.721   5.521  13.855
36994W        W 2254  43.886  17.862   3.751
36995W        W 2255  31.690  22.483   4.836
36996W        W 2256  22.146   1.312   3.633
36997W        W 2257  11.136  21.517  13.248
36998W        W 2258  35.589  27.522   4.055
36999W        W 2259  33.640  21.051   3.137
37000W        W 2260  28.982  30.793   0.877
37001W        W 2261   1.883  44.265   3.754
37002W        W 2262  25.733  16.246   2.601
37003W        W 2263   1.089  26.302   0.370
37004W        W 2264  22.681  13.444  14.437
37005W        W 2265  27.309  17.187  12.378
37006W        W 2266  14.223   0.533   1.275
37007W        W 2267   7.513  16.192  13.595
37008W        W 2268  32.169  24.188   3.361
37009W        W 2269  22.644   5.446   3.208
37010W        W 2270   1.949   4.457   0.734
37011W        W 2271  13.191  39.565  13.432
37012W        W 2272   8.143   5.901  12.477
37013W        W 2273  26.664  16.228   3.806
37014W        W 2274  40.486  40.827  13.934
37015W        W 2275  21.501  20.563   0.832
37016W        W 2276  41.497  41.475  12.980
37017W        W 2277  30.821   1.162   1.691
37018W        W 2278  19.078  42.304   4.745
37019W        W 2279  30.928  39.736  12.548
37020W        W 2280  41.377  16.034   3.899
37021W        W 2281  31.284  36.661  13.853
37022W        W 2282  36.502   2.992   0.494
37023W        W 2283  42.286  42.864   5.110
37024W        W 2284  37.971  21.728  14.230
37025W        W 2285  16.289  41.356  10.977
37026W        W 2286   6.052  19.396   4.592
37027W        W 2287   6.223  38.290   1.431
37028W        W 2288  36.451  43.004   2.221
37029W        W 2289  12.824  18.057   2.859
37030W        W 2290  36.747  10.387   0.754
37031W        W 2291  27.223  39.379   2.795
37032W        W 2292  25.953  31.400  11.145
37033W        W 2293  23.905  39.979  12.477
37034W        W 2294  18.040  44.953   4.628
37035W        W 2295  41.383   8.918   4.937
37036W        W 2296  40.377  35.153  11.108
37037W        W 2297  38.409   1.938  12.875
37038W        W 2298  15.025   4.988   2.748
37039W        W 2299  41.254  24.770  13.951
37040W        W 2300  17.845  39.114   4.118
37041W        W 2301  31.340  33.005  11.524
37042W        W 2302  25.867   9.464   0.829
37043W        W 2303  13.725  16.449   3.664
37044W        W 2304   2.380  41.414   3.717
37045W        W 2305  34.873  36.876   4.110
37046W        W 2306  24.540  11.691   1.668
37047W        W 2307  10.328   9.790   0.688
37048W        W 2308  19.307  44.883   4.193
37049W        W 2309  12.836  42.859   0.171
37050W        W 2310   1.958  24.979   3.223
37051W        W 2311  39.207  30.334   2.142
37052W        W 2312   8.225  26.538   0.145
37053W        W 2313  16.112  13.167   2.327
37054W        W 2314  30.587   9.865  13.985
37055W        W 2315  28.192   8.955  10.576
37056W        W 2316  13.498  23.838  11.546
37057W        W 2317  18.708  29.068  14.432
37058W        W 2318   4.907  34.391  12.506
37059W        W 2319  44.991   9.727  12.311
37060W        W 2320  17.780  20.018   0.446
37061W        W 2321   6.457  19.168   0.852
37062W        W 2322  26.001   9.735  12.372
37063W        W 2323  40.791  23.344   4.159
37064W        W 2324  33.569  32.830  13.420
37065W        W 2325  20.469  43.863  14.650
37066W        W 2326  43.786  12.177   1.431
37067W        W 2327  41.539  42.953  11.583
37068W        W 2328  26.577  31.093   4.358
37069W        W 2329  14.127  44.494   2.201
37070W        W 2330  24.872  33.952  14.144
37071W        W 2331   6.723  41.972   0.723
37072W        W 2332   6.932  43.821  10.691
37073W        W 2333  26.243  28.268  13.503
37074W        W 2334  18.133  19.397  12.848
37075W        W 2335  26.565  34.438  14.497
37076W        W 2336  26.561  30.799  10.972
37077W        W 2337  36.371  39.512   2.296
37078W        W 2338  18.265  20.698   3.993
37079W        W 2339   8.760  39.809   4.202
37080W        W 2340  19.087  10.779  11.054
37081W        W 2341  22.932  31.984   4.197
37082W        W 2342  15.091  30.667  14.456
37083W        W 2343  35.510   4.936   1.915
37084W        W 2344  26.996  42.259  13.506
37085W        W 2345  29.038  43.218  14.765
37086W        W 2346  15.977   9.615   1.722
37087W        W 2347  37.478  20.374  11.060
37088W        W 2348   7.747  20.746  14.829
37089W        W 2349  29.029  25.680  11.237
37090W        W 2350  38.814  25.207   3.712
37091W        W 2351  32.328  42.805  11.224
37092W        W 2352  38.195  20.621  10.604
37093W        W 2353   0.367  18.286   3.617
37094W        W 2354   1.407   7.417   2.755
37095W        W 2355  29.429  21.900  12.447
37096W        W 2356  33.404   6.721   3.240
37097W        W 2357  43.838  18.761   1.774
37098W        W 2358  44.519  11.187   0.499
37099W        W 2359  11.384   0.310  13.656
37100W        W 2360  44.118  42.020   2.614
37101W        W 2361  42.650  11.889   3.221
37102W        W 2362  44.423  34.916   0.391
37103W        W 2363   2.514  34.400   1.409
37104W        W 2364  12.894  29.413  12.802
37105W        W 2365  26.103  11.597   1.332
37106W        W 2366  12.620  33.969  12.837
37107W        W 2367  31.127  32.427  14.055
37108W        W 2368  26.612   2.913  11.321
37109W        W 2369  16.984  10.860   2.609
37110W        W 2370  36.568  35.915  11.929
37111W        W 2371  27.220  33.882   4.563
37112W        W 2372  39.827   7.725   2.814
37113W        W 2373  31.193  13.432   1.214
37114W        W 2374  31.105  28.673  11.216
37115W        W 2375  30.289  26.467   3.677
37116W        W 2376  28.540  19.044   3.180
37117W        W 2377  29.931  41.058   0.328
37118W        W 2378  30.709  44.726   4.707
37119W        W 2379  42.823  35.987  10.887
37120W        W 2380  16.635  19.783  14.052
37121W        W 2381  27.406  13.621  14.400
37122W        W 2382  14.210   6.452   1.653
37123W        W 2383  20.224   2.572   2.720
37124W        W 2384  41.928  19.997  12.904
37125W        W 2385  19.196   8.600   0.388
37126W        W 2386   9.914  13.693  14.864
37127W        W 2387  37.357  12.004   4.213
37128W        W 2388  28.566  31.056  13.345
37129W        W 2389  16.041  23.050  12.471
37130W        W 2390  36.729  19.034  14.393
37131W        W 2391  43.566  21.077  12.432
37132W        W 2392  18.786   4.716  13.192
37133W        W 2393   8.221  19.682   2.234
37134W        W 2394  12.628  27.170  12.032
37135W        W 2395  42.723  28.763   0.992
37136W        W 2396  16.822  33.546   2.682
37137W        W 2397   2.786  33.698   4.335
37138W        W 2398  41.513  25.291   1.796
37139W        W 2399  42.539  38.516  14.304
37140W        W 2400   8.104  10.824  11.050
37141W        W 2401   8.364   6.575  11.336
37142W        W 2402  12.167  42.258   2.720
37143W        W 2403  22.030  20.564   0.790
37144W        W 2404  23.109  42.255  13.449
37145W        W 2405  31.212  44.307  13.087
37146W        W 2406  10.822  15.904  14.428
37147W        W 2407  21.252  39.779   3.416
37148W        W 2408   6.604  42.475   0.771
37149W        W 2409  33.980  26.751   3.452
37150W        W 2410  12.560  24.938  12.847
37151W        W 2411   7.799  34.931   2.778
37152W        W 2412  37.634  20.417   3.018
37153W        W 2413  13.888  11.102  12.997
37154W        W 2414  19.711  18.162   0.357
37155W        W 2415  34.316   5.711  10.625
37156W        W 2416  10.637  40.431  13.958
37157W        W 2417  18.975  11.534  11.644
37158W        W 2418   7.250  30.633   4.945
37159W        W 2419  39.449  20.057  13.936
37160W        W 2420  36.996   2.067  12.156
37161W        W 2421  41.914   5.015  13.798
37162W        W 2422  14.645  11.465  13.553
37163W        W 2423   5.423  26.941  10.254
37164W        W 2424  11.777   3.871   2.814
37165W        W 2425  19.570   4.816  13.898
37166W        W 2426   9.101   9.684   3.310
37167W        W 2427  43.726  38.877  11.981
37168W        W 2428  22.581  32.967  13.446
37169W        W 2429  25.931  16.611   4.112
37170W        W 2430   8.132  35.663   3.716
37171W        W 2431  20.049  29.714   3.188
37172W        W 2432  16.869  30.993   2.713
37173W        W 2433  20.110  33.024  12.829
37174W        W 2434  29.918  41.350   2.579
37175W        W 2435  24.717   0.866  14.136
37176W        W 2436  44.158  22.070   2.622
37177W        W 2437  27.743   4.691   4.124
37178W        W 2438  40.007  18.798  11.597
37179W        W 2439  31.137  32.891  10.674
37180W        W 2440  38.049   5.876  12.144
37181W        W 2441  11.560  39.204  13.881
37182W        W 2442  19.613  26.667   1.836
37183W        W 2443  22.070   7.645  11.251
37184W        W 2444   5.228  42.282   4.817
37185W        W 2445   9.879  27.089   2.632
37186W        W 2446  34.568  22.516  14.056
37187W        W 2447  32.427  29.929   1.168
37188W        W 2448  37.213   3.439  12.123
37189W        W 2449  39.427  26.275  12.103
37190W        W 2450  26.393  25.599   4.105
37191W        W 2451  19.951  44.461  13.725
37192W        W 2452  29.135  31.505   1.789
37193W        W 2453  27.006  28.205  13.463
37194W        W 2454  44.472  44.978   2.228
37195W        W 2455  20.795  17.358   4.242
37196W        W 2456  35.020  31.836  14.448
37197W        W 2457   8.377   2.003   0.927
37198W        W 2458  12.789   6.482  12.579
37199W        W 2459  25.980  34.963  13.385
37200W        W 2460  28.083  12.865   3.230
37201W        W 2461  41.719  33.496  10.894
37202W        W 2462  32.876   0.790  13.392
37203W        W 2463  35.971  19.544  12.937
37204W        W 2464  18.084  30.116   1.919
37205W        W 2465  13.252  35.661  14.314
37206W        W 2466  26.153  33.681   0.755
37207W        W 2467   2.741  19.268  12.055
37208W        W 2468  20.701   0.196  12.072
37209W        W 2469  30.653  36.907  13.327
37210W        W 2470  33.577   3.923   0.056
37211W        W 2471  14.239  19.035  12.889
37212W        W 2472  41.885  35.561  13.746
37213W        W 2473  30.862  14.873  12.413
37214W        W 2474  38.596  10.122   1.365
37215W        W 2475  10.691  14.818  13.762
37216W        W 2476  20.087   7.930   3.345
37217W        W 2477  13.310  15.580   1.366
37218W        W 2478  44.905  27.215  11.627
37219W        W 2479   5.263  34.665   0.501
37220W        W 2480  32.788  30.594  10.971
37221W        W 2481  41.361  18.786  14.970
37222W        W 2482  27.313  15.182   2.286
37223W        W 2483  38.420   1.763  14.793
37224W        W 2484   3.714  23.693  12.465
37225W        W 2485   2.326  20.451   2.995
37226W        W 2486  26.938  35.284   0.808
37227W        W 2487  11.103   4.775   4.620
37228W        W 2488  28.045   5.895   3.543
37229W        W 2489   0.890  41.489  11.516
37230W        W 2490  29.571  25.107   1.279
37231W        W 2491   2.102  36.721   2.453
37232W        W 2492  21.610   5.296   2.273
37233W        W 2493   2.798   4.861   1.699
37234W        W 2494   4.366  35.938  13.529
37235W        W 2495  16.770  15.795  14.787
37236W        W 2496  25.926  36.978  12.792
37237W        W 2497  42.461   0.238   2.633
37238W        W 2498  38.186  28.481  12.670
37239W        W 2499   9.394  41.579   1.739
37240W        W 2500  15.210  13.752  14.520
37241W        W 2501  28.773  19.226  11.206
37242W        W 2502  25.715  44.154   0.756
37243W        W 2503  44.835  17.258  11.191
37244W        W 2504   6.386  10.036  11.915
37245W        W 2505  37.505  34.403   4.698
37246W        W 2506   7.191  42.443   1.611
37247W        W 2507  27.104  36.296   3.874
37248W        W 2508  12.062  30.440  13.948
37249W        W 2509  39.324   4.308   4.521
37250W        W 2510   9.593  40.065   2.247
37251W        W 2511  25.451  12.932  13.341
37252W        W 2512  21.137  40.758  14.930
37253W        W 2513  30.267  33.306   0.463
37254W        W 2514  44.455  34.642   1.855
37255W        W 2515  25.800  35.567   9.804
37256W        W 2516  30.368   9.148  13.143
37257W        W 2517  31.031  22.108  12.579
37258W        W 2518   1.320  12.298   0.957
37259W        W 2519  11.365   0.021  14.586
37260W        W 2520  32.729  13.703  13.805
37261W        W 2521  19.653   7.163  14.966
37262W        W 2522   4.077  22.763  11.563
37263W        W 2523  41.398  19.561  13.254
37264W        W 2524  18.892   7.853   4.440
37265W        W 2525  38.300  22.186   4.574
37266W        W 2526   5.737  11.040  11.118
37267W        W 2527  31.106  26.539  13.751
37268W        W 2528   7.319  25.523   0.536
37269W        W 2529  43.312   1.773  12.943
37270W        W 2530   6.765  17.384  13.464
37271W        W 2531  11.665  42.255  10.650
37272W        W 2532  40.228  29.667   4.041
37273W        W 2533   0.900  15.368   2.149
37274W        W 2534  25.132  36.409   2.611
37275W        W 2535  11.298  44.450   1.692
37276W        W 2536  43.763   0.319   3.182
37277W        W 2537  30.691  19.741   0.322
37278W        W 2538  17.362  12.603   3.208
37279W        W 2539   0.276  41.772  11.029
37280W        W 2540   2.905  37.072   1.121
37281W        W 2541   1.262  42.878   4.638
37282W        W 2542   5.382   8.117   1.380
37283W        W 2543   5.334  35.492   4.696
37284W        W 2544  14.117  11.023  12.486
37285W        W 2545  33.000  27.947  11.167
37286W        W 2546   0.982  11.483   3.060
37287W        W 2547  30.915  19.948   2.675
37288W        W 2548   8.431   8.309   3.554
37289W        W 2549   6.849  33.903   3.639
37290W        W 2550   1.792  16.161   3.134
37291W        W 2551   6.216   5.469   4.967
37292W        W 2552   6.536  14.755  14.124
37293W        W 2553  14.375  26.604   3.638
37294W        W 2554   7.456   5.746  12.958
37295W        W 2555  14.716  40.903  11.592
37296W        W 2556  13.245  40.832   4.195
37297W        W 2557  20.738  10.799  13.976
37298W        W 2558  29.689  44.304  14.707
37299W        W 2559  31.565   8.871  11.550
37300W        W 2560   3.337  36.956  12.264
37301W        W 2561   2.744  44.243  14.491
37302W        W 2562   6.467  19.427  10.383
37303W        W 2563  17.722   6.190   3.333
37304W        W 2564  26.707  44.350  13.974
37305W        W 2565  25.901  40.751  12.494
37306W        W 2566  35.568  30.166   0.053
37307W        W 2567   6.350  39.036  13.006
37308W        W 2568  21.111  12.525  12.894
37309W        W 2569  16.782  13.088  12.704
37310W        W 2570  42.701  33.325  11.120
37311W        W 2571   1.305  32.465  12.120
37312W        W 2572  24.602  44.302   3.209
37313W        W 2573  10.155  28.757  14.045
37314W        W 2574  39.273  22.508  13.824
37315W        W 2575   0.878   8.911   4.088
37316W        W 2576  42.988   8.864  12.291
37317W        W 2577  21.751  13.984   0.464
37318W        W 2578  29.696  19.198   1.416
37319W        W 2579  35.462  21.769   2.758
37320W        W 2580  22.503  28.918   3.787
37321W        W 2581  33.950  24.782   0.669
37322W        W 2582  33.088  38.293   3.834
37323W        W 2583  27.397   7.708  12.791
37324W        W 2584  37.550  27.188  14.016
37325W        W 2585   4.011  42.845  11.562
37326W        W 2586  24.849  36.042  13.613
37327W        W 2587  42.309  29.702   3.309
37328W        W 2588  10.904  20.753   4.356
37329W        W 2589  41.972  15.751   2.305
37330W        W 2590  30.400  12.774  12.797
37331W        W 2591  29.101  12.257   2.776
37332W        W 2592   6.577  42.481  12.727
37333W        W 2593  14.620  23.830   1.512
37334W        W 2594  17.788  25.247   1.901
37335W        W 2595  25.208  12.095   1.375
37336W        W 2596  43.319  37.779   1.798
37337W        W 2597   4.844  13.213   0.786
37338W        W 2598  33.538  13.331   4.728
37339W        W 2599  36.434  18.981  11.757
37340W        W 2600  35.490  13.281   4.102
37341W        W 2601   2.355  44.901  14.896
37342W        W 2602   8.899   9.084  14.136
37343W        W 2603  24.441   1.355  13.429
37344W        W 2604  12.274  21.593  11.318
37345W        W 2605  34.896  20.046  14.516
37346W        W 2606  22.048  26.743   4.917
37347W        W 2607  40.587  25.070   0.925
37348W        W 2608  42.506  12.588   2.629
37349W        W 2609  43.740  27.153  14.858
37350W        W 2610  34.683   2.899   4.648
37351W        W 2611   0.337  21.251  12.860
37352W        W 2612  26.370  14.298   3.751
37353W        W 2613  26.042  20.843   0.780
37354W        W 2614  37.396  18.162   2.367
37355W        W 2615  30.479  16.334  12.433
37356W        W 2616  26.596   8.930   2.578
37357W        W 2617  10.232  36.355   3.107
37358W        W 2618  16.723  26.046  11.650
37359W        W 2619  20.990  34.019   3.108
37360W        W 2620  24.280  36.422   1.439
37361W        W 2621  20.418   9.702  14.624
37362W        W 2622  43.396  41.269   0.754
37363W        W 2623  15.227  10.207   0.942
37364W        W 2624  12.498  28.133   4.950
37365W        W 2625  31.392  15.764   0.755
37366W        W 2626  37.655  40.731  10.842
37367W        W 2627  43.354  28.778   1.409
37368W        W 2628  30.915  33.111  13.793
37369W        W 2629  39.626  22.797  12.541
37370W        W 2630  44.525   2.133   1.972
37371W        W 2631  19.485  22.474  12.037
37372W        W 2632  25.283   8.638   0.507
37373W        W 2633   9.336  31.609   1.639
37374W        W 2634  42.738  26.166   1.800
37375W        W 2635  21.758  37.550   2.480
37376W        W 2636  30.125  16.604  13.794
37377W        W 2637  12.772  40.927  13.826
37378W        W 2638  39.540  16.188  13.597
37379W        W 2639  23.205  33.492  12.636
37380W        W 2640  37.870  28.116   1.389
37381W        W 2641   1.120  12.726  14.940
37382W        W 2642  31.868   0.834  11.101
37383W        W 2643  35.616  16.828   0.514
37384W        W 2644   4.314  33.068   4.669
37385W        W 2645  30.379  41.812   3.198
37386W        W 2646  25.251  42.342   3.705
37387W        W 2647  41.939  41.346   0.222
37388W        W 2648  42.485  14.473  14.927
37389W        W 2649   2.853  35.589   0.254
37390W        W 2650  43.941   7.343  12.134
37391W        W 2651   2.195  28.380  13.833
37392W        W 2652  26.004  33.119   1.445
37393W        W 2653  39.044  32.311   2.793
37394W        W 2654   5.729  29.470  10.598
37395W        W 2655   4.185   4.724   2.225
37396W        W 2656  12.368  17.537   3.563
37397W        W 2657  34.989   8.191   2.384
37398W        W 2658  30.966  11.929  10.586
37399W        W 2659  17.254   8.736   4.594
37400W        W 2660  21.210  19.202   2.406
37401W        W 2661  18.644  13.229   4.236
37402W        W 2662  25.109  39.911   1.516
37403W        W 2663  34.352   5.157   1.838
37404W        W 2664  42.510   6.288   2.100
37405W        W 2665  15.640   0.418   3.785
37406W        W 2666  35.684   0.065   3.202
37407W        W 2667  32.392  41.363   0.468
37408W        W 2668  11.898   0.236   4.784
37409W        W 2669  14.369  26.060  14.072
37410W        W 2670  30.704  18.815   2.292
37411W        W 2671  10.400  21.732   3.646
37412W        W 2672  25.955  23.510  11.231
37413W        W 2673  40.472  10.836  11.137
37414W        W 2674   4.344  18.532   2.301
37415W        W 2675  37.070  31.076   3.201
37416W        W 2676   4.272  25.602  14.959
37417W        W 2677  20.240  36.868   1.369
37418W        W 2678  28.917   2.281  10.730
37419W        W 2679   2.532  19.594   3.566
37420W        W 2680  35.962  25.055  10.668
37421W        W 2681  21.560   2.142   4.609
37422W        W 2682  29.624  12.828  14.393
37423W        W 2683  36.678  17.012  14.916
37424W        W 2684  42.231  32.309  11.010
37425W        W 2685  23.750   1.350   0.070
37426W        W 2686  17.347  35.516  10.876
37427W        W 2687  15.392   8.208   4.640
37428W        W 2688  20.497  16.288   1.398
37429W        W 2689  12.207  12.789  10.800
37430W        W 2690   5.982  10.333  10.646
37431W        W 2691  39.969  25.562  11.912
37432W        W 2692  13.688  27.129  11.808
37433W        W 2693  11.274  19.682   2.580
37434W        W 2694  19.956  40.563  10.029
37435W        W 2695  35.880   6.956   1.290
37436W        W 2696  26.458  31.398   2.731
37437W        W 2697  17.381   4.757   0.875
37438W        W 2698  28.924  12.060  12.913
37439W        W 2699  13.391  16.288  10.831
37440W        W 2700  31.133   4.260  13.465
37441W        W 2701  10.717   1.959  10.630
37442W        W 2702  42.006  23.701  14.975
37443W        W 2703  34.471  38.559  14.021
37444W        W 2704   5.095   2.695   1.270
37445W        W 2705  33.817  42.422   3.681
37446W        W 2706  11.171   5.246   1.278
37447W        W 2707  22.529  44.962   3.745
37448W        W 2708  20.591  20.149   3.583
37449W        W 2709  24.586   2.749  11.366
37450W        W 2710  29.639  20.404   3.113
37451W        W 2711  31.415  33.971  14.100
37452W        W 2712  18.756  30.968  11.361
37453W        W 2713  18.758  13.195  14.878
37454W        W 2714  43.503  23.902   1.642
37455W        W 2715   6.760  13.787   0.866
37456W        W 2716  34.925  26.090  13.060
37457W        W 2717   2.993  34.137   4.055
37458W        W 2718   2.766  31.293  11.209
37459W        W 2719  33.351  35.812  14.500
37460W        W 2720   3.731  44.084  14.865
37461W        W 2721   0.884  22.543  10.678
37462W        W 2722  17.808  10.323  12.924
37463W        W 2723   8.387  31.761   3.670
37464W        W 2724  31.577  11.184   2.788
37465W        W 2725  35.446  18.760  12.123
37466W        W 2726  15.726  34.090   3.859
37467W        W 2727  25.594  24.665   0.298
37468W        W 2728  41.475   6.810   3.200
37469W        W 2729  32.335  14.147  10.898
37470W        W 2730  21.419  15.700  14.893
37471W        W 2731  27.674   1.191  14.951
37472W        W 2732  11.231  27.478  12.084
37473W        W 2733  26.953  12.782  11.980
37474W        W 2734  44.022   8.787   3.642
37475W        W 2735  16.450   5.710   2.836
37476W        W 2736   1.181  41.138  10.698
37477W        W 2737   7.681  20.056  14.493
37478W        W 2738  38.324  33.594   4.620
37479W        W 2739   3.734  27.225   0.749
37480W        W 2740   1.138  36.851   2.681
37481W        W 2741  14.012   1.909   1.801
37482W        W 2742   0.373   2.501  12.035
37483W        W 2743  41.748  16.508   4.662
37484W        W 2744  38.029  19.295  10.648
37485W        W 2745  43.001  23.473   2.393
37486W        W 2746  40.514   6.480   4.000
37487W        W 2747  26.486  16.225  11.454
37488W        W 2748  34.624  44.790  10.816
37489W        W 2749   2.303  34.572   2.932
37490W        W 2750  35.946  19.050   0.942
37491W        W 2751   2.299  27.539   3.211
37492W        W 2752  25.883   4.261   1.726
37493W        W 2753  12.136  26.305   1.194
37494W        W 2754  10.784   7.348   0.893
37495W        W 2755  44.389  35.143   2.011
37496W        W 2756  27.391  36.679  11.154
37497W        W 2757  12.535  26.911  10.707
37498W        W 2758  39.272  26.380   0.962
37499W        W 2759  18.015  24.491  13.910
37500W        W 2760  31.970   2.179  13.454
37501W        W 2761  19.188  19.140  12.858
37502W        W 2762   5.341  37.465   2.489
37503W        W 2763  43.174   7.916   3.752
37504W        W 2764  44.461  43.289  14.256
37505W        W 2765  32.170   2.339   4.549
37506W        W 2766  17.588  31.856  11.825
37507W        W 2767  21.051  18.702  14.735
37508W        W 2768  34.466  12.849   3.680
37509W        W 2769   5.751  19.611  11.111
37510W        W 2770  20.992  33.163   4.156
37511W        W 2771   9.845  30.290  13.734
37512W        W 2772  30.380  40.955   3.267
37513W        W 2773  11.041  27.198  10.566
37514W        W 2774  34.898  44.319   3.634
37515W        W 2775  21.879  22.386  11.618
37516W        W 2776  38.006  44.449  12.600
37517W        W 2777  42.545  25.502  10.601
37518W        W 2778  20.622  33.145  12.669
37519W        W 2779  35.658   3.693  11.871
37520W        W 2780  24.169  28.816   1.514
37521W        W 2781  33.450  22.044  10.340
37522W        W 2782  38.505   4.936   2.307
37523W        W 2783  18.672  16.121  14.547
37524W        W 2784  24.429  29.695   1.390
37525W        W 2785  12.854  19.821  12.052
37526W        W 2786  18.552   9.843  11.663
37527W        W 2787  22.893  17.437   2.411
37528W        W 2788  39.038  12.322  14.293
37529W        W 2789   9.867  28.560  12.507
37530W        W 2790  17.663  18.982  12.053
37531W        W 2791  41.581  23.423  14.907
37532W        W 2792   9.935  17.252   5.217
37533W        W 2793  24.112  17.590   2.354
37534W        W 2794  16.200   9.641  12.817
37535W        W 2795  30.588   3.797   2.873
37536W        W 2796  22.040  38.271  12.807
37537W        W 2797  35.463  24.563  11.396
37538W        W 2798   0.341  40.024  13.297
37539W        W 2799  19.982  11.249  12.499
37540W        W 2800   1.881  34.675  11.586
37541W        W 2801   8.885  14.693  14.764
37542W        W 2802  37.977   2.126  11.565
37543W        W 2803   9.414  28.226   4.935
37544W        W 2804  33.476   6.753   0.860
37545W        W 2805  10.799  32.672  13.097
37546W        W 2806  42.425  36.149   2.248
37547W        W 2807  37.061  35.974   2.035
37548W        W 2808  21.342  41.884   0.624
37549W        W 2809  41.353  41.275  12.062
37550W        W 2810  41.049  39.496  14.025
37551W        W 2811   2.384  27.617   5.556
37552W        W 2812  29.621  35.016  13.519
37553W        W 2813  10.326  44.391   0.104
37554W        W 2814   7.489  40.572  13.462
37555W        W 2815  35.408  40.003   2.599
37556W        W 2816  36.518  19.196   0.952
37557W        W 2817  30.038  25.213  10.303
37558W        W 2818  36.605   6.922  13.162
37559W        W 2819  27.195  24.979   4.300
37560W        W 2820  30.487   3.416   4.916
37561W        W 2821  15.836  27.230  14.865
37562W        W 2822  41.352   6.212   3.068
37563W        W 2823  11.800  22.636  11.641
37564W        W 2824   5.026  29.558   0.021
37565W        W 2825   6.304  43.096  11.600
37566W        W 2826  15.090  18.291  10.703
37567W        W 2827  22.287  32.363   3.188
37568W        W 2828  13.069   1.433   0.340
37569W        W 2829  31.565   2.469  11.156
37570W        W 2830  24.774  13.906  10.575
37571W        W 2831   5.836   9.383  11.575
37572W        W 2832   8.067  32.026   1.792
37573W        W 2833  34.481  42.591   0.385
37574W        W 2834  20.804  19.793  11.637
37575W        W 2835  39.042   3.868   3.799
37576W        W 2836  12.512  33.937  13.357
37577W        W 2837  15.519  21.538   1.546
37578W        W 2838  11.613  41.459  14.706
37579W        W 2839   8.266  11.154   4.678
37580W        W 2840  41.509   8.861   2.779
37581W        W 2841   8.578  42.920  12.049
37582W        W 2842  19.323   4.789  10.396
37583W        W 2843  11.656  33.206   3.916
37584W        W 2844  15.164  15.251   1.276
37585W        W 2845  27.733  12.843   2.287
37586W        W 2846   7.148  26.413   5.105
37587W        W 2847  35.982   9.588   0.378
37588W        W 2848   0.680  41.376   2.391
37589W        W 2849  26.566   7.200  10.960
37590W        W 2850  17.108  11.162   4.044
37591W        W 2851   5.179  36.715   4.022
37592W        W 2852  44.412  37.416   4.318
37593W        W 2853  38.567   0.492   0.433
37594W        W 2854   8.190  13.649   1.945
37595W        W 2855  17.335  18.309  14.298
37596W        W 2856  33.809   9.252   4.051
37597W        W 2857  14.388   3.405   0.509
37598W        W 2858  17.519  24.661  12.964
37599W        W 2859  20.886  39.315  10.128
37600W        W 2860  25.981  27.568  13.960
37601W        W 2861  15.053  35.051  12.059
37602W        W 2862  29.464  39.536  11.138
37603W        W 2863  44.350  30.472   3.455
37604W        W 2864  21.084  17.314  13.512
37605W        W 2865   0.775   1.075   9.826
37606W        W 2866   1.484  10.471   4.225
37607W        W 2867  33.847   9.180  10.754
37608W        W 2868   8.844  18.722   3.665
37609W        W 2869   0.510   5.659  13.337
37610W        W 2870   1.534  12.537  10.258
37611W        W 2871  44.839   9.287   3.907
37612W        W 2872  16.139  23.400   3.735
37613W        W 2873  42.800  44.240   4.566
37614W        W 2874  14.575  39.952  14.519
37615W        W 2875   6.230  28.709   2.340
37616W        W 2876   5.990  29.008  10.667
37617W        W 2877  27.557  10.847   1.962
37618W        W 2878  26.550  44.709   2.645
37619W        W 2879  13.180   2.881   1.474
37620W        W 2880  34.044   3.833   1.905
37621W        W 2881  21.107  19.104   0.845
37622W        W 2882   5.801   1.964  14.229
37623W        W 2883  41.526  18.984  13.947
37624W        W 2884  11.730  37.958  10.798
37625W        W 2885  30.564  17.025  14.685
37626W        W 2886   2.358   2.279   1.235
37627W        W 2887  22.998  20.704   0.848
37628W        W 2888  44.258  18.877  11.550
37629W        W 2889  17.643   1.736   0.455
37630W        W 2890   5.949   4.412  12.120
37631W        W 2891   9.115  18.050  13.986
37632W        W 2892  27.162  32.368   1.475
37633W        W 2893  16.443  43.301   1.768
37634W        W 2894  34.119   3.521   0.889
37635W        W 2895  44.060  42.009   3.138
37636W        W 2896  19.989   6.858   2.710
37637W        W 2897  42.579   4.705  12.182
37638W        W 2898  18.306  14.331  14.559
37639W        W 2899  15.846  39.023   3.777
37640W        W 2900  26.869  12.554  11.138
37641W        W 2901   9.500  28.173  10.338
37642W        W 2902   5.039  19.763   1.838
37643W        W 2903  44.954  25.293  12.560
37644W        W 2904  11.036  27.663   1.077
37645W        W 2905  23.960  22.596  12.462
37646W        W 2906  26.510   2.093   2.659
37647W        W 2907  11.598  28.240   3.367
37648W        W 2908  12.772  31.012   0.978
37649W        W 2909  44.540  16.256  10.554
37650W        W 2910  35.050  21.540   0.956
37651W        W 2911   6.293  18.160  14.396
37652W        W 2912  27.251  12.148   3.154
37653W        W 2913  33.457  30.517   3.304
37654W        W 2914  43.418  14.750   0.221
37655W        W 2915  40.037   7.069   2.114
37656W        W 2916  37.644  27.629  12.799
37657W        W 2917  26.483   4.589  10.313
37658W        W 2918   5.734  41.362  13.117
37659W        W 2919  32.380  21.705   3.229
37660W        W 2920  29.685  22.452  11.589
37661W        W 2921   9.825   1.964   0.043
37662W        W 2922  25.425   5.536  10.319
37663W        W 2923  24.782  25.990  14.692
37664W        W 2924  22.048  17.780  14.529
37665W        W 2925   8.155  23.614   4.974
37666W        W 2926  14.178  32.542  10.791
37667W        W 2927  23.325  13.189   4.466
37668W        W 2928   1.859  27.027   4.054
37669W        W 2929  34.389  10.281  12.710
37670W        W 2930  25.293  43.286   1.907
37671W        W 2931  20.728   4.984   0.006
37672W        W 2932   7.988   7.869   1.478
37673W        W 2933  12.064  26.709   4.630
37674W        W 2934  42.223  38.289   0.950
37675W        W 2935  14.607  33.841  12.613
37676W        W 2936   3.878  32.082  12.544
37677W        W 2937  17.243  35.456   0.034
37678W        W 2938   5.426  19.473   0.205
37679W        W 2939  41.022  36.929   0.361
37680W        W 2940  43.848  33.092  14.384
37681W        W 2941  20.233   6.554  11.236
37682W        W 2942  28.153  29.437   0.150
37683W        W 2943  11.782  43.803  10.633
37684W        W 2944   4.799  23.939   4.056
37685W        W 2945  14.784   7.894   0.804
37686W        W 2946   2.304   5.836   3.699
37687W        W 2947  10.581   8.807   3.146
37688W        W 2948  16.728   3.986  12.538
37689W        W 2949  42.994  28.113   1.813
37690W        W 2950  25.786  28.170   9.991
37691W        W 2951  39.112  33.016   3.318
37692W        W 2952   4.968  43.038   4.245
37693W        W 2953   3.405  25.472   1.227
37694W        W 2954   9.511  25.590   3.735
37695W        W 2955  12.671  42.677  14.309
37696W        W 2956  34.340   9.219   4.075
37697W        W 2957  28.196   8.897   0.545
37698W        W 2958  40.780  29.504   2.275
37699W        W 2959  21.661   0.947   2.846
37700W        W 2960  36.285  35.498   0.112
37701W        W 2961  11.436  28.857   0.908
37702W        W 2962  36.514  33.335  13.891
37703W        W 2963   7.341  43.151  11.687
37704W        W 2964   7.195  41.356   4.410
37705W        W 2965  30.937   7.132   4.590
37706W        W 2966  30.110  16.807   4.084
37707W        W 2967  14.643  22.251  12.013
37708W        W 2968  10.380  37.698  14.833
37709W        W 2969  44.145  28.893   4.086
37710W        W 2970  34.091  40.272   3.163
37711W        W 2971  28.079  40.727   0.931
37712W        W 2972  42.713  25.721  11.620
37713W        W 2973  37.344  15.731  14.333
37714W        W 2974  33.335  38.942   4.604
37715W        W 2975  27.085  23.840  11.861
37716W        W 2976  30.184   6.487  11.987
37717W        W 2977  12.194  28.035  11.431
37718W        W 2978  16.588   9.305   0.782
37719W        W 2979  14.549  14.743  13.878
37720W        W 2980  10.469   7.164   2.637
37721W        W 2981  33.353  16.143   0.492
37722W        W 2982  34.952  37.314   3.339
37723W        W 2983   6.668  25.909   9.758
37724W        W 2984  44.393  35.963   0.211
37725W        W 2985   9.754   5.997   2.697
37726W        W 2986  30.674  42.839   4.618
37727W        W 2987  26.699  11.141  14.887
37728W        W 2988   9.340   7.968   1.502
37729W        W 2989  36.534   2.831   4.818
37730W        W 2990  25.454  42.943   3.593
37731W        W 2991  44.047  20.273  13.475
37732W        W 2992  40.718   5.305   2.257
37733W        W 2993  44.363  30.846   3.130
37734W        W 2994  37.987  16.153   1.000
37735W        W 2995  14.382  44.038  11.166
37736W        W 2996  33.522  16.588   0.720
37737W        W 2997  13.834  14.889   1.702
37738W        W 2998   0.671  36.515   4.184
37739W        W 2999  24.301  13.900   2.769
37740W        W 3000   2.701  44.296  11.578
37741W        W 3001  30.974  15.869   0.415
37742W        W 3002   4.363   3.321  13.131
37743W        W 3003   2.689  35.089   4.996
37744W        W 3004  44.676  43.004  12.306
37745W        W 3005   6.648   5.184  14.727
37746W        W 3006  41.011  19.097   4.850
37747W        W 3007   3.485  42.484  11.014
37748W        W 3008  28.615  42.997  10.669
37749W        W 3009  11.824   2.475  14.522
37750W        W 3010  42.970  14.019   1.224
37751W        W 3011  21.688  42.811   0.376
37752W        W 3012  22.271   8.879  11.115
37753W        W 3013   6.387   6.440  13.379
37754W        W 3014   7.111  37.847  12.388
37755W        W 3015  12.883  23.052   0.184
37756W        W 3016  16.300  11.413  14.271
37757W        W 3017  39.900  37.509  12.863
37758W        W 3018  35.415  24.884  11.786
37759W        W 3019  18.873  12.240  10.677
37760W        W 3020  28.004  15.127   4.175
37761W        W 3021  35.696  17.392  11.200
37762W        W 3022  27.193  27.156   4.091
37763W        W 3023  40.501  29.674  13.783
37764W        W 3024  23.602   8.352  11.428
37765W        W 3025  19.889  40.420   1.724
37766W        W 3026  27.091  27.606  11.044
37767W        W 3027  35.010   1.997   3.230
37768W        W 3028   9.940  12.402  13.412
37769W        W 3029   8.112  17.286   5.084
37770W        W 3030  12.012  31.005   4.110
37771W        W 3031  32.450  34.145  12.662
37772W        W 3032  29.645  12.649   2.154
37773W        W 3033  23.898   7.465  11.175
37774W        W 3034   7.809  40.884  14.437
37775W        W 3035  20.690  36.992  10.425
37776W        W 3036  19.557  22.693  13.253
37777W        W 3037  32.624   2.676   4.550
37778W        W 3038  11.876  14.596   2.253
37779W        W 3039  37.939  10.775  13.914
37780W        W 3040  12.520   0.594   1.182
37781W        W 3041  43.795   4.928  11.301
37782W        W 3042  27.107  11.608   4.514
37783W        W 3043  16.507  19.798   0.426
37784W        W 3044   7.914  30.939   0.541
37785W        W 3045   2.938  39.006   4.411
37786W        W 3046   0.837  14.835  11.695
37787W        W 3047   4.336  14.794  11.996
37788W        W 3048  29.010  16.179   3.401
37789W        W 3049  40.491  13.629   1.371
37790W        W 3050  14.143  41.332  11.228
37791W        W 3051  43.755  20.326  10.766
37792W        W 3052  23.016  15.610   1.881
37793W        W 3053   8.113  33.948   1.483
37794W        W 3054  26.641  30.593   3.266
37795W        W 3055  36.446  38.305  12.544
37796W        W 3056  30.441  39.369  10.378
37797W        W 3057  14.436  29.628  11.496
37798W        W 3058  17.084  29.620   2.805
37799W        W 3059  41.372   9.971   1.608
37800W        W 3060  36.530  21.828   1.710
37801W        W 3061   8.341   1.979  13.326
37802W        W 3062  24.857  24.552  12.379
37803W        W 3063   6.915  16.256   2.565
37804W        W 3064   0.849  19.579  12.730
37805W        W 3065  21.774  34.003   2.853
37806W        W 3066  33.613  14.191  12.543
37807W        W 3067  34.134   3.995  10.979
37808W        W 3068  39.916  21.448  13.777
37809W        W 3069   7.956  21.098   1.886
37810W        W 3070  17.971  14.640   2.804
37811W        W 3071  10.295  16.632  11.472
37812W        W 3072   7.195  42.709  11.131
37813W        W 3073  22.963  10.844   1.239
37814W        W 3074   8.617   5.972  12.635
37815W        W 3075  12.439  34.488  11.438
37816W        W 3076  32.971  26.432   0.722
37817W        W 3077   0.320  30.536  13.898
37818W        W 3078  28.594   1.431  13.957
37819W        W 3079  27.455  22.789   3.626
37820W        W 3080  11.345  38.841   1.374
37821W        W 3081  21.018  22.672   3.276
37822W        W 3082   3.785  19.707  12.668
37823W        W 3083  26.734  17.034   3.267
37824W        W 3084   3.469  24.158   3.391
37825W        W 3085  40.448   4.615   2.795
37826W        W 3086   7.306  34.897  13.993
37827W        W 3087  30.362  27.584   2.292
37828W        W 3088  17.572  18.046  13.387
37829W        W 3089   9.394  17.278  12.675
37830W        W 3090  41.258  20.438  12.511
37831W        W 3091   3.272  17.686  11.570
37832W        W 3092  25.445   0.918  11.181
37833W        W 3093  26.662  29.514  13.414
37834W        W 3094  18.358  17.638   1.883
37835W        W 3095  35.618  27.441   4.574
37836W        W 3096  13.556  12.121  10.362
37837W        W 3097   0.334  29.908   4.863
37838W        W 3098  11.387  21.120  13.479
37839W        W 3099  32.312  17.898   0.388
37840W        W 3100  19.811  34.868  13.041
37841W        W 3101  24.752  16.534  13.897
37842W        W 3102  12.376   0.861   1.918
37843W        W 3103   4.043  35.547  11.090
37844W        W 3104  19.150   3.253  13.357
37845W        W 3105  32.957  33.633  12.118
37846W        W 3106  20.269  42.331  14.435
37847W        W 3107  33.974  21.735  11.108
37848W        W 3108   3.244  11.686  10.589
37849W        W 3109  21.740  16.343  12.038
37850W        W 3110  42.246  30.531   2.330
37851W        W 3111  19.312  28.496  12.685
37852W        W 3112   5.621  11.294   4.162
37853W        W 3113  38.499  29.940  11.330
37854W        W 3114  18.535  19.203   3.442
37855W        W 3115  38.902   3.334   3.698
37856W        W 3116  28.126   7.467  12.400
37857W        W 3117  39.877  17.810   3.157
37858W        W 3118   2.731  17.810   3.102
37859W        W 3119  17.676   8.165   3.292
37860W        W 3120  42.275  39.264   3.632
37861W        W 3121  34.354   1.951  11.629
37862W        W 3122   9.718  29.964  12.156
37863W        W 3123   0.294   8.699  14.110
37864W        W 3124  25.299  24.629  14.372
37865W        W 3125  27.626  21.757   1.776
37866W        W 3126  23.160   5.983   0.805
37867W        W 3127  27.129  35.264  14.004
37868W        W 3128  24.185   7.180  11.491
37869W        W 3129   7.626  42.502   0.779
37870W        W 3130  42.748  29.557   2.293
37871W        W 3131  22.124   7.900   2.860
37872W        W 3132   5.229  21.194  13.945
37873W        W 3133   4.854  25.373   1.915
37874W        W 3134  15.044  18.339  13.566
37875W        W 3135   9.381  42.777   0.392
37876W        W 3136  20.712  37.121  12.768
37877W        W 3137   6.193  40.262  11.230
37878W        W 3138  36.636  35.033   2.860
37879W        W 3139  23.586  28.641  11.632
37880W        W 3140  36.092  20.124   4.637
37881W        W 3141  21.125   7.179   3.061
37882W        W 3142  17.797  19.171  13.491
37883W        W 3143  13.826  16.625  12.982
37884W        W 3144  34.862   4.499   5.030
37885W        W 3145  40.503  17.421  13.525
37886W        W 3146  37.408   7.661  14.921
37887W        W 3147  17.649  38.273   3.790
37888W        W 3148  20.167  30.201   4.975
37889W        W 3149  42.510   4.696   3.083
37890W        W 3150  38.937   6.828  13.894
37891W        W 3151  13.222  12.642   1.299
37892W        W 3152  35.716  36.758   1.759
37893W        W 3153   4.695  29.636  13.905
37894W        W 3154  27.614  17.723   0.440
37895W        W 3155  35.386  19.532  10.793
37896W        W 3156  10.592  37.499   2.385
37897W        W 3157  37.031  35.497   0.198
37898W        W 3158  25.914  15.252   3.648
37899W        W 3159   1.711   8.714  13.778
37900W        W 3160  39.788  13.174  11.190
37901W        W 3161  18.856   3.192  10.275
37902W        W 3162  27.192   9.247  13.466
37903W        W 3163  40.329  34.848   4.557
37904W        W 3164  17.107  12.745   2.629
37905W        W 3165   5.756  26.544  13.985
37906W        W 3166  37.824   5.424   0.282
37907W        W 3167   3.754  11.259   1.438
37908W        W 3168  31.948  17.133   2.453
37909W        W 3169  21.008  32.161  11.422
37910W        W 3170  25.155  37.522   1.550
37911W        W 3171  14.279   7.337  12.693
37912W        W 3172   9.860  27.665   3.165
37913W        W 3173  22.239  24.865   3.571
37914W        W 3174   1.179  30.073   2.162
37915W        W 3175  39.874  19.778  11.508
37916W        W 3176   8.867  26.686   0.968
37917W        W 3177  30.203  30.882  11.655
37918W        W 3178   7.813  14.623  13.490
37919W        W 3179  33.455  29.249   0.279
37920W        W 3180  38.405  40.996   2.810
37921W        W 3181   8.975  36.260  12.041
37922W        W 3182   2.735   4.267   1.391
37923W        W 3183  25.177  14.826  12.480
37924W        W 3184  40.606   4.289   3.176
37925W        W 3185  24.997  41.015  12.982
37926W        W 3186  37.833  29.312   2.837
37927W        W 3187   5.966  27.225  12.888
37928W        W 3188  35.668  30.357   4.139
37929W        W 3189  24.484  42.310  11.193
37930W        W 3190  29.179  28.554   2.624
37931W        W 3191  36.394  27.760  12.374
37932W        W 3192  34.587  32.002  13.064
37933W        W 3193  11.888  35.075   3.710
37934W        W 3194   1.530   5.288   0.497
37935W        W 3195  36.828  37.709  10.543
37936W        W 3196  36.632  12.525   4.111
37937W        W 3197  33.551  21.732  11.604
37938W        W 3198  43.548  41.398  10.664
37939W        W 3199  23.269  34.295   2.705
37940W        W 3200   6.249  32.407  12.612
37941W        W 3201  36.172  34.565  12.002
37942W        W 3202   3.812  17.563   1.021
37943W        W 3203  39.309   4.704   0.054
37944W        W 3204  29.124  21.120  12.873
37945W        W 3205  28.846  27.405   2.229
37946W        W 3206  18.770  43.970   1.759
37947W        W 3207  38.602  18.608  11.635
37948W        W 3208   3.800   5.599  13.139
37949W        W 3209  19.302  15.562  11.554
37950W        W 3210  34.808  14.875   4.109
37951W        W 3211  39.942  39.597  13.869
37952W        W 3212  26.878  20.298   1.711
37953W        W 3213  29.955   6.428  11.534
37954W        W 3214   3.309   0.162   2.479
37955W        W 3215  36.427  41.544   0.465
37956W        W 3216  15.124   9.879   1.937
37957W        W 3217  37.993   7.990  13.134
37958W        W 3218  41.789  16.264   2.325
37959W        W 3219  25.157  26.375  14.705
37960W        W 3220  24.148  26.284  13.748
37961W        W 3221  22.982  24.636  14.286
37962W        W 3222  22.133  25.965  12.888
37963W        W 3223  38.559   3.100   1.227
37964W        W 3224  28.145  24.219  10.521
37965W        W 3225  17.189  42.358  11.081
37966W        W 3226   9.132  36.907   4.334
37967W        W 3227  22.999  27.510   3.197
37968W        W 3228  36.864  11.137   2.365
37969W        W 3229  21.002  30.123   2.382
37970W        W 3230  30.358   5.621  11.365
37971W        W 3231  17.098   2.696   2.443
37972W        W 3232   7.255   0.211  12.510
37973W        W 3233  18.079  39.021  13.987
37974W        W 3234   7.916  27.684  13.398
37975W        W 3235  27.795  19.278  13.983
37976W        W 3236  11.287  12.299  12.545
37977W        W 3237  11.674  11.796   1.972
37978W        W 3238  25.279  13.156   0.726
37979W        W 3239   9.690   9.804  10.837
37980W        W 3240   6.915  16.302  10.765
37981W        W 3241  20.239   4.861   4.588
37982W        W 3242  10.148  11.896   1.516
37983W        W 3243  44.803  40.586  11.616
37984W        W 3244  22.590  24.655  14.919
37985W        W 3245   8.877  32.536  11.119
37986W        W 3246  10.317  15.230  13.141
37987W        W 3247  40.795   7.705   3.918
37988W        W 3248  27.416   0.451  14.521
37989W        W 3249  17.861  41.087   2.720
37990W        W 3250  36.272   6.961  12.517
37991W        W 3251  37.902  11.785  14.744
37992W        W 3252  21.806  16.092  11.580
37993W        W 3253  35.524  17.509  10.399
37994W        W 3254   5.728  41.194   4.093
37995W        W 3255  41.977  34.990  10.375
37996W        W 3256   3.727  20.164   1.393
37997W        W 3257   3.892  28.976   2.142
37998W        W 3258  29.550  35.408   0.890
37999W        W 3259  34.962  16.368  13.451
38000W        W 3260  35.612  10.433  13.965
38001W        W 3261  19.724  25.881   2.305
38002W        W 3262  33.977  24.477   1.620
38003W        W 3263   0.473   2.964   4.917
38004W        W 3264   0.045  35.057  11.659
38005W        W 3265  43.543  26.957  14.382
38006W        W 3266  14.398  12.768  12.771
38007W        W 3267   7.131   7.969   1.758
38008W        W 3268  39.251  24.708   3.728
38009W        W 3269  37.309  44.147   4.933
38010W        W 3270  23.652   3.656   4.708
38011W        W 3271  28.338  19.630  13.366
38012W        W 3272  23.821  19.389  13.775
38013W        W 3273  20.027  16.312  11.980
38014W        W 3274  35.532  39.939  11.119
38015W        W 3275  25.088   5.155  14.005
38016W        W 3276  40.008  29.437   1.253
38017W        W 3277   8.447  11.896  11.224
38018W        W 3278  41.544  20.751  12.188
38019W        W 3279  17.053  26.951   1.803
38020W        W 3280  32.913  44.733   4.525
38021W        W 3281  22.614  15.280  11.006
38022W        W 3282  42.829   6.663  11.261
38023W        W 3283  20.376  21.742   2.820
38024W        W 3284  43.867  39.658   1.240
38025W        W 3285  25.940  20.081  12.543
38026W        W 3286  18.216  30.636  11.671
38027W        W 3287   1.892  40.892  13.610
38028W        W 3288  35.834  28.593   1.940
38029W        W 3289   0.936  16.318  12.145
38030W        W 3290   9.433  44.010  12.062
38031W        W 3291   1.910  10.865  14.529
38032W        W 3292   1.980   1.662  11.115
38033W        W 3293  31.176  43.772   4.760
38034W        W 3294  41.953  28.586   4.589
38035W        W 3295  35.397   4.824   3.757
38036W        W 3296  42.436  33.862  10.534
38037W        W 3297  33.081   0.491  14.768
38038W        W 3298  11.706   6.271   4.233
38039W        W 3299  44.453  36.928   4.525
38040W        W 3300   6.698  32.025  10.783
38041W        W 3301  27.723   0.321  12.987
38042W        W 3302   0.990  25.127  11.612
38043W        W 3303  13.139  13.242   1.943
38044W        W 3304  44.184   6.116  13.022
38045W        W 3305  32.568  30.952  13.298
38046W        W 3306  27.549  19.127  13.539
38047W        W 3307   7.017  43.697   3.192
38048W        W 3308  39.401  43.769  10.698
38049W        W 3309  16.653   9.528   0.335
38050W        W 3310  14.398  36.155  11.106
38051W        W 3311  43.171   5.120  12.675
38052W        W 3312  13.175  12.892   3.720
38053W        W 3313  42.962   5.655   4.415
38054W        W 3314  23.763  44.551   2.703
38055W        W 3315  16.516  41.450  11.478
38056W        W 3316  39.953   8.725  10.822
38057W        W 3317  35.479  12.878   3.746
38058W        W 3318  42.198  42.845   1.194
38059W        W 3319  35.824  12.095   3.748
38060W        W 3320  32.836  11.766  10.747
38061W        W 3321  38.765  42.642   5.099
38062W        W 3322  33.599  21.426  11.184
38063W        W 3323   8.202   0.702   3.747
38064W        W 3324  38.428  28.196   4.311
38065W        W 3325   6.718  32.995  13.115
38066W        W 3326  36.501   9.374   0.964
38067W        W 3327  24.764   5.236   2.655
38068W        W 3328  20.546  14.141   2.625
38069W        W 3329  13.765  39.380   2.115
38070W        W 3330  12.159   1.370  13.849
38071W        W 3331   6.948  14.311  11.500
38072W        W 3332  26.075  16.314  12.135
38073W        W 3333  20.697  37.340  11.138
38074W        W 3334  44.207   8.133  13.517
38075W        W 3335  37.491  23.937  11.213
38076W        W 3336  16.604   7.670  10.636
38077W        W 3337  16.319  30.959   0.918
38078W        W 3338  29.501  11.782  13.799
38079W        W 3339  12.136  16.102  10.635
38080W        W 3340  38.884   8.679  11.101
38081W        W 3341  23.328  14.644   1.239
38082W        W 3342   7.122  40.988   2.143
38083W        W 3343  40.187  23.624   3.308
38084W        W 3344   9.934  32.904   1.324
38085W        W 3345  20.106   5.729   4.812
38086W        W 3346  12.999  14.301  14.046
38087W        W 3347  18.617  18.146   3.622
38088W        W 3348   8.212  25.487   3.206
38089W        W 3349  41.738   2.721  11.151
38090W        W 3350  25.023  30.386   2.737
38091W        W 3351   3.999  24.606  13.999
38092W        W 3352   5.388  26.461   2.789
38093W        W 3353  34.540   4.440   2.341
38094W        W 3354   1.921  19.392  13.525
38095W        W 3355  25.690  14.342  10.892
38096W        W 3356   2.294  44.249  13.755
38097W        W 3357  30.804  18.986   2.830
38098W        W 3358  37.012  38.361   1.836
38099W        W 3359  28.948   3.253  11.514
38100W        W 3360  29.818  16.630   3.664
38101W        W 3361  10.808  34.870   4.713
38102W        W 3362   4.836  34.839   4.391
38103W        W 3363  35.600   9.415  12.481
38104W        W 3364  37.560   4.309   4.590
38105W        W 3365  20.700  24.573  10.645
38106W        W 3366  21.596  41.298   1.428
38107W        W 3367  30.744  25.600   3.214
38108W        W 3368  14.316   8.236   3.716
38109W        W 3369  42.417   5.997  10.999
38110W        W 3370  38.264  26.279   1.366
38111W        W 3371  30.978  28.439  12.054
38112W        W 3372  16.314   8.826  13.058
38113W        W 3373  38.028  10.128  13.413
38114W        W 3374  12.736  20.435   2.217
38115W        W 3375   3.914  42.148   0.207
38116W        W 3376  36.612  44.726  13.003
38117W        W 3377  34.025   6.740  11.575
38118W        W 3378  26.560  40.760  12.945
38119W        W 3379  44.476  14.159   3.394
38120W        W 3380  34.080  22.048  14.303
38121W        W 3381  34.412  41.302  14.887
38122W        W 3382  11.643  10.737  13.514
38123W        W 3383  42.180   9.461  11.155
38124W        W 3384  24.374   3.438   2.242
38125W        W 3385  38.559   0.567  12.547
38126W        W 3386  37.316  13.725  12.085
38127W        W 3387   2.016  17.819   1.213
38128W        W 3388  38.268  30.125   4.562
38129W        W 3389  17.158   2.886  10.827
38130W        W 3390   3.758  15.208   1.796
38131W        W 3391  27.284  36.119   1.858
38132W        W 3392  22.590  13.825  11.329
38133W        W 3393  11.336  42.812  14.916
38134W        W 3394   5.747  21.964  12.981
38135W        W 3395   2.772  25.571  14.219
38136W        W 3396  22.134  18.795  14.308
38137W        W 3397  26.919  11.588   2.258
38138W        W 3398  41.428  16.815   2.761
38139W        W 3399  20.511  33.606  14.857
38140W        W 3400  21.423  16.426  11.538
38141W        W 3401  30.499  20.208   0.451
38142W        W 3402   8.169  22.242   4.336
38143W        W 3403  41.431  27.710  13.944
38144W        W 3404  39.347  35.039   3.754
38145W        W 3405  42.452  13.794   1.186
38146W        W 3406  27.142  44.026   0.246
38147W        W 3407  17.098  33.426   0.866
38148W        W 3408  34.844  32.007  10.723
38149W        W 3409   9.613  42.009   2.841
38150W        W 3410  10.597  24.571  12.242
38151W        W 3411   9.973  34.783   1.034
38152W        W 3412  44.774  11.375  13.049
38153W        W 3413  13.128  35.125   1.639
38154W        W 3414  37.299  30.133   3.032
38155W        W 3415   3.471  20.092   0.940
38156W        W 3416  41.054   3.950  12.994
38157W        W 3417   4.961  20.277   1.650
38158W        W 3418   6.243  41.050   2.753
38159W        W 3419  40.473   1.960  13.838
38160W        W 3420  33.855  19.593  10.999
38161W        W 3421  30.085  33.946   1.889
38162W        W 3422  20.087  27.961  11.547
38163W        W 3423  38.520  23.938   1.427
38164W        W 3424  26.283   4.357  10.728
38165W        W 3425  40.589  20.542   2.345
38166W        W 3426  38.830  13.666   4.870
38167W        W 3427  43.714  44.841   0.584
38168W        W 3428  29.843   4.723   5.028
38169W        W 3429  22.571   4.801  14.843
38170W        W 3430  11.762  16.754   2.983
38171W        W 3431  31.849  15.547   0.756
38172W        W 3432  26.891  31.292  13.977
38173W        W 3433  23.954  40.967  12.494
38174W        W 3434   2.230  16.246   1.363
38175W        W 3435  21.225  13.611   4.062
38176W        W 3436  14.243   3.132  12.917
38177W        W 3437  22.828  19.175  14.864
38178W        W 3438  14.316  36.405  14.343
38179W        W 3439  37.371   7.748   1.798
38180W        W 3440  10.810   0.436  14.976
38181W        W 3441  34.563  25.521   0.478
38182W        W 3442   3.193  27.318  12.396
38183W        W 3443   7.961  36.378  11.636
38184W        W 3444  41.308  11.218   4.723
38185W        W 3445  32.807   2.428  14.850
38186W        W 3446  25.729   8.989  14.509
38187W        W 3447  28.099  15.812   2.470
38188W        W 3448  31.387   0.483   1.392
38189W        W 3449   7.167  13.600   2.825
38190W        W 3450  16.284  43.579   2.197
38191W        W 3451  39.976  31.107   2.949
38192W        W 3452  10.823   5.795   5.376
38193W        W 3453  26.920  20.599  13.226
38194W        W 3454  35.643  15.229  12.039
38195W        W 3455  36.358  29.423  14.052
38196W        W 3456  28.911   7.906   3.200
38197W        W 3457  44.006  35.876   4.967
38198W        W 3458  12.382  26.381   9.521
38199W        W 3459  23.556  40.321  10.273
38200W        W 3460  26.703  26.019   1.937
38201W        W 3461   0.324  14.028   3.699
38202W        W 3462   7.714   3.392   1.728
38203W        W 3463  18.668  18.555   4.975
38204W        W 3464  39.083   8.154   3.629
38205W        W 3465  23.643  17.508  12.674
38206W        W 3466   0.919  24.003   0.504
38207W        W 3467  13.827  31.050   0.813
38208W        W 3468  37.534  12.914   3.281
38209W        W 3469  26.935  30.068  12.523
38210W        W 3470   1.976  22.768   4.332
38211W        W 3471  26.964   3.000   3.813
38212W        W 3472   2.333  35.927   2.563
38213W        W 3473  33.491  41.524  13.993
38214W        W 3474  22.753  40.262  11.584
38215W        W 3475   6.832  10.085   3.180
38216W        W 3476  34.615  12.238   5.302
38217W        W 3477  28.463  19.741  14.746
38218W        W 3478  31.916  17.144   3.916
38219W        W 3479  40.262  18.599   0.997
38220W        W 3480  16.802   0.710  13.334
38221W        W 3481  30.267  10.847  13.998
38222W        W 3482  10.076  28.452   1.823
38223W        W 3483  30.704  10.350   3.811
38224W        W 3484  38.705   3.840  13.849
38225W        W 3485  24.991  36.446  14.427
38226W        W 3486  20.226  12.371  11.922
38227W        W 3487  40.756  43.472   2.902
38228W        W 3488  43.730  21.686   2.292
38229W        W 3489  15.067  44.938  10.565
38230W        W 3490   3.211   1.343   1.136
38231W        W 3491  22.100  16.923  12.544
38232W        W 3492  24.777  42.494   2.897
38233W        W 3493  39.161  18.663  11.488
38234W        W 3494  42.249  42.131   1.749
38235W        W 3495  14.289  43.937  14.322
38236W        W 3496  36.116  24.950   0.393
38237W        W 3497  33.849  15.303   1.419
38238W        W 3498  19.816   9.171   4.218
38239W        W 3499  37.578  38.828   4.223
38240W        W 3500  30.096   9.203   3.260
38241W        W 3501   1.556  13.571   3.070
38242W        W 3502  19.474  21.372   2.666
38243W        W 3503  10.929  39.078  12.446
38244W        W 3504   3.927  39.563   3.725
38245W        W 3505  35.436   2.521  11.222
38246W        W 3506  33.886  41.457  13.108
38247W        W 3507  15.516  39.499   0.803
38248W        W 3508  14.099  26.083  11.033
38249W        W 3509  23.478   5.329   1.853
38250W        W 3510  17.863  14.169  12.942
38251W        W 3511  10.172  21.006   0.437
38252W        W 3512  17.079   7.248   1.357
38253W        W 3513  23.858  12.997  11.520
38254W        W 3514  43.817  38.460   1.770
38255W        W 3515  20.117  25.870   3.667
38256W        W 3516  40.905  37.011  14.000
38257W        W 3517  25.627   2.881  13.982
38258W        W 3518   0.252  29.725   1.325
38259W        W 3519   0.034  33.584   4.567
38260W        W 3520  28.761  37.945   0.703
38261W        W 3521   4.217  29.991  12.096
38262W        W 3522  25.626  42.026  12.527
38263W        W 3523  12.704   8.401   3.156
38264W        W 3524  31.276  15.201   0.053
38265W        W 3525  32.620  14.691   4.835
38266W        W 3526  33.130   1.393   1.505
38267W        W 3527  20.555   1.209  14.373
38268W        W 3528  33.975  31.237   4.609
38269W        W 3529  29.419  29.388   4.531
38270W        W 3530  18.270  26.408   4.535
38271W        W 3531  43.424  15.551   1.246
38272W        W 3532  32.866   6.681   0.401
38273W        W 3533  39.222  32.546  11.386
38274W        W 3534  16.787  22.507   0.540
38275W        W 3535  35.278   9.966   1.733
38276W        W 3536  43.521  36.484   0.327
38277W        W 3537  27.500  18.194  14.712
38278W        W 3538  33.020  39.846  12.595
38279W        W 3539  15.659   3.114  13.411
38280W        W 3540  32.536  28.444  11.635
38281W        W 3541  31.528  25.232  12.978
38282W        W 3542   9.132  23.725  14.348
38283W        W 3543   6.576   4.430  12.946
38284W        W 3544  23.954   6.902   0.453
38285W        W 3545  25.143  41.260  14.297
38286W        W 3546  34.400   0.060   4.638
38287W        W 3547  28.125  25.220   4.407
38288W        W 3548  37.044  29.930   0.911
38289W        W 3549   5.951  33.939   2.508
38290W        W 3550  21.683   3.011   2.849
38291W        W 3551  26.135   6.225   1.710
38292W        W 3552  42.175  14.674  13.902
38293W        W 3553  14.677  37.531  11.964
38294W        W 3554  22.234  19.561  11.168
38295W        W 3555  16.789  18.527   4.532
38296W        W 3556  29.916  21.065   4.510
38297W        W 3557  36.014  41.461  11.519
38298W        W 3558  24.617  26.018  13.747
38299W        W 3559  39.990  36.665   0.373
38300W        W 3560  10.827  22.493   3.123
38301W        W 3561  26.922  30.435  13.784
38302W        W 3562  10.222  13.143   3.412
38303W        W 3563  10.849   4.012   2.370
38304W        W 3564  32.340   3.481   3.683
38305W        W 3565  13.573  15.298   3.649
38306W        W 3566  35.010  15.368  13.325
38307W        W 3567  33.451  11.415  14.952
38308W        W 3568   6.400  33.351   3.597
38309W        W 3569  43.956  24.734   0.766
38310W        W 3570   0.886  39.461  12.572
38311W        W 3571  19.800  40.054   0.863
38312W        W 3572  42.299   3.305   2.686
38313W        W 3573  24.741  24.953  11.249
38314W        W 3574   7.954  29.880   3.915
38315W        W 3575  10.100  30.171   0.391
38316W        W 3576  14.877  38.482   3.085
38317W        W 3577  21.931  25.279   2.155
38318W        W 3578  30.478  14.251   2.260
38319W        W 3579  30.399  21.648  14.537
38320W        W 3580  14.671  18.000   0.356
38321W        W 3581   7.117  23.473   2.328
38322W        W 3582  35.752  42.146   3.155
38323W        W 3583  20.191  15.051   1.884
38324W        W 3584  25.737  20.527  14.439
38325W        W 3585  13.231  13.372  10.802
38326W        W 3586  42.892  21.058   2.188
38327W        W 3587   5.480   8.649   1.449
38328W        W 3588  30.573  34.663  12.986
38329W        W 3589  19.336  32.985  11.641
38330W        W 3590  21.313   7.024  11.756
38331W        W 3591  34.681  39.864  12.965
38332W        W 3592  17.085  22.726  12.073
38333W        W 3593  19.925  42.566  14.088
38334W        W 3594  29.616  13.413  11.181
38335W        W 3595  36.014  44.170  13.303
38336W        W 3596   4.479   4.773  11.134
38337W        W 3597  44.298  32.120   1.342
38338W        W 3598  28.096  19.175  10.256
38339W        W 3599  17.633  35.061   4.598
38340W        W 3600  21.100   9.736  13.415
38341W        W 3601  27.421  11.770   3.487
38342W        W 3602  25.236   1.936   1.698
38343W        W 3603  15.784  13.072  14.300
38344W        W 3604  35.930  40.316   4.303
38345W        W 3605  29.777   5.104   2.673
38346W        W 3606   8.914  17.205  12.820
38347W        W 3607  25.538  22.450   1.961
38348W        W 3608  14.748  33.610  13.594
38349W        W 3609  34.979   0.616   4.877
38350W        W 3610   9.837  29.072   2.304
38351W        W 3611  42.768  28.860  13.450
38352W        W 3612   6.805   3.238  14.267
38353W        W 3613  22.676   2.050   4.533
38354W        W 3614  12.933  21.734   0.083
38355W        W 3615   8.859  16.693  12.949
38356W        W 3616  40.424   6.297   4.480
38357W        W 3617  37.534  26.287   3.259
38358W        W 3618   5.347  30.914  11.287
38359W        W 3619  25.514   2.995   0.343
38360W        W 3620   5.702  16.348  12.268
38361W        W 3621  10.852  15.374   2.884
38362W        W 3622  39.361  44.014  12.406
38363W        W 3623  31.538  27.487   2.694
38364W        W 3624  19.457  39.459  14.835
38365W        W 3625  31.519  28.430  13.369
38366W        W 3626  24.382  41.393  11.063
38367W        W 3627  30.146  11.278  10.644
38368W        W 3628   5.335  34.885   3.894
38369W        W 3629  15.407  33.090   0.345
38370W        W 3630   2.414  27.914  13.843
38371W        W 3631  19.715  43.010   1.089
38372W        W 3632   1.828  28.165   0.099
38373W        W 3633   7.317   9.111   3.989
38374W        W 3634  38.984  14.576  14.087
38375W        W 3635  17.846  14.172  11.212
38376W        W 3636  34.886  38.552  13.683
38377W        W 3637  11.324  27.396   0.746
38378W        W 3638  35.621  11.930   2.576
38379W        W 3639  25.717   1.919   3.186
38380W        W 3640  28.320  14.236   2.068
38381W        W 3641  12.805   5.273  13.525
38382W        W 3642   8.242  25.588   4.112
38383W        W 3643  44.854  34.869   2.131
38384W        W 3644  22.000  25.093  12.136
38385W        W 3645  11.390  12.307   3.554
38386W        W 3646   7.284  19.152  14.027
38387W        W 3647  36.096  11.195  12.949
38388W        W 3648   4.395  27.995   3.523
38389W        W 3649  19.071  35.698   2.860
38390W        W 3650  25.050  21.906  13.028
38391W        W 3651  18.524   0.750  11.899
38392W        W 3652  43.103  20.262  13.367
38393W        W 3653  35.878  28.961  11.733
38394W        W 3654  44.011  17.383  14.977
38395W        W 3655  15.005  43.022  12.410
38396W        W 3656  10.834  31.594   1.854
38397W        W 3657  28.216  34.701   3.771
38398W        W 3658  13.088   0.732  10.639
38399W        W 3659  29.060   9.844  14.542
38400W        W 3660  27.458   9.301  12.998
38401W        W 3661  19.121  28.480  11.690
38402W        W 3662  44.326  11.335   3.591
38403W        W 3663  35.331  35.944   0.024
38404W        W 3664  37.461  22.142   3.263
38405W        W 3665   2.437  39.348  14.040
38406W        W 3666  37.522  34.908  13.878
38407W        W 3667   6.390  29.203   4.168
38408W        W 3668  13.149   6.598  13.004
38409W        W 3669  32.400  34.667   2.868
38410W        W 3670  21.312   4.236  12.539
38411W        W 3671  33.987  21.959  12.458
38412W        W 3672   3.086   9.073   0.794
38413W        W 3673  19.782  26.618   2.755
38414W        W 3674  15.447  37.179   3.359
38415W        W 3675  14.207  18.307   2.749
38416W        W 3676   2.874  20.154   2.830
38417W        W 3677  12.164  42.277   1.386
38418W        W 3678  23.570   8.913   0.415
38419W        W 3679   7.082  25.587  14.573
38420W        W 3680  15.691  37.876  14.965
38421W        W 3681   9.780   8.930   0.609
38422W        W 3682  31.674  30.972   2.804
38423W        W 3683  31.506   3.211   1.196
38424W        W 3684  15.081  30.392  14.909
38425W        W 3685  33.495  18.978   0.508
38426W        W 3686  35.981  33.639   2.782
38427W        W 3687  11.061  19.036  11.957
38428W        W 3688  42.453   2.696  14.796
38429W        W 3689  36.948  11.278  14.437
38430W        W 3690  40.830  28.682   4.329
38431W        W 3691  14.685  34.901   1.375
38432W        W 3692  34.608  10.827   0.512
38433W        W 3693  24.167  27.093   2.610
38434W        W 3694  23.497  13.890  11.178
38435W        W 3695  25.978  28.869   0.935
38436W        W 3696  35.052  19.152  10.560
38437W        W 3697  25.503  14.001   0.210
38438W        W 3698  38.387  37.918   3.331
38439W        W 3699  36.687  29.857  13.859
38440W        W 3700  40.512  34.351  13.906
38441W        W 3701  22.597  43.498  12.387
38442W        W 3702   6.720  13.781  13.949
38443W        W 3703  20.671  16.584   1.811
38444W        W 3704   8.362  23.083   0.715
38445W        W 3705   3.209  38.443  11.597
38446W        W 3706   7.265  23.246  14.344
38447W        W 3707  40.988  29.588  13.051
38448W        W 3708   8.172  23.576   3.078
38449W        W 3709  24.216  40.407  12.421
38450W        W 3710   5.437   5.377  14.916
38451W        W 3711  29.851   4.874  12.048
38452W        W 3712  23.296  43.017   5.137
38453W        W 3713  14.876  11.755   0.686
38454W        W 3714  10.614  13.758  14.479
38455W        W 3715  12.377   7.736  13.015
38456W        W 3716  37.991   0.246  11.307
38457W        W 3717  26.024  38.269   3.919
38458W        W 3718  41.445  15.074  11.626
38459W        W 3719  44.504  13.335   0.816
38460W        W 3720  36.010  12.281  13.061
38461W        W 3721  33.089  19.660   4.928
38462W        W 3722  32.536  31.872   0.870
38463W        W 3723  41.009  28.727  14.558
38464W        W 3724  44.491  33.916   2.398
38465W        W 3725  19.653   1.800  12.041
38466W        W 3726  44.778   7.131   3.160
38467W        W 3727  19.155  36.761  11.663
38468W        W 3728   5.324   1.894  11.573
38469W        W 3729   6.204   7.566   4.091
38470W        W 3730  36.899   2.201  14.451
38471W        W 3731   6.677  37.550   4.147
38472W        W 3732  26.022  24.355   0.439
38473W        W 3733  42.600  28.000  14.387
38474W        W 3734   7.059   7.874   0.859
38475W        W 3735  39.877  20.331   4.073
38476W        W 3736   8.463  44.865  11.575
38477W        W 3737  18.371  31.698  13.167
38478W        W 3738  26.558   2.744   1.726
38479W        W 3739  13.994  12.466   0.462
38480W        W 3740   2.520   9.843   0.423
38481W        W 3741  43.791  34.378   3.340
38482W        W 3742  36.629  18.088   1.705
38483W        W 3743  41.261  36.801   2.530
38484W        W 3744  33.595  17.160   4.009
38485W        W 3745   1.443   7.320   1.754
38486W        W 3746  20.125  24.540   3.898
38487W        W 3747  28.503   0.393   1.305
38488W        W 3748  40.053  20.524   1.738
38489W        W 3749  33.975  13.087   4.905
38490W        W 3750  29.582  34.398  12.215
38491W        W 3751  27.120  18.767  11.974
38492W        W 3752   7.769  42.799  13.169
38493W        W 3753  43.840  12.887  14.834
38494W        W 3754  21.993  10.245  14.844
38495W        W 3755   5.318   0.838  14.970
38496W        W 3756  33.817  43.009  11.781
38497W        W 3757  19.232  22.286  13.338
38498W        W 3758  41.497  11.541  11.705
38499W        W 3759  39.870  31.401  11.644
38500W        W 3760   6.113  43.770   4.619
38501W        W 3761  26.470  18.480   2.345
38502W        W 3762  17.478  15.281  11.604
38503W        W 3763   4.125  19.003  11.390
38504W        W 3764   0.798  30.123   4.733
38505W        W 3765  21.278  27.513  14.580
38506W        W 3766  21.071  36.082   0.090
38507W        W 3767   1.631  31.443  14.141
38508W        W 3768   9.746  26.013   3.973
38509W        W 3769  26.966   4.246   3.222
38510W        W 3770  39.816  10.876   2.169
38511W        W 3771   9.808  35.252   3.647
38512W        W 3772  12.175  40.719   1.301
38513W        W 3773  15.507  34.166   0.298
38514W        W 3774  19.319  32.748   2.765
38515W        W 3775  32.573   0.025  12.392
38516W        W 3776  35.958  31.533   3.403
38517W        W 3777  20.692  14.635  13.562
38518W        W 3778  29.365   1.239   3.293
38519W        W 3779  34.935  17.478   2.621
38520W        W 3780  23.594   6.730  13.907
38521W        W 3781   4.296   4.173   0.884
38522W        W 3782  35.060  24.028   1.844
38523W        W 3783  26.795  37.463  14.014
38524W        W 3784  37.512  26.226  10.710
38525W        W 3785  31.089   6.305   4.920
38526W        W 3786  21.215   6.189   2.791
38527W        W 3787  11.686  38.157   1.824
38528W        W 3788  36.466  22.963  12.937
38529W        W 3789   1.766   0.729   4.416
38530W        W 3790  26.081  12.745   3.132
38531W        W 3791  43.824  27.604  14.493
38532W        W 3792  21.508  34.572  11.178
38533W        W 3793  18.408   7.584  13.779
38534W        W 3794  35.550  25.579   3.900
38535W        W 3795  19.726  33.914  11.478
38536W        W 3796   0.824  32.468   3.306
38537W        W 3797  17.198  17.577   3.723
38538W        W 3798   5.776  12.178   3.162
38539W        W 3799  23.544  14.202  12.201
38540W        W 3800  15.270  14.849  10.675
38541W        W 3801  20.566   8.918   0.259
38542W        W 3802   7.258  27.115  13.400
38543W        W 3803  27.433   3.983   1.279
38544W        W 3804  13.270  10.560   2.876
38545W        W 3805  41.539   6.238  11.425
38546W        W 3806  40.060  23.264  11.627
38547W        W 3807  32.878  32.038   4.560
38548W        W 3808  12.789  37.843  12.122
38549W        W 3809  12.538  10.049  13.846
38550W        W 3810  44.769  25.133   3.666
38551W        W 3811   4.457  13.153   3.909
38552W        W 3812  30.727  36.445   3.976
38553W        W 3813   0.733   2.493   4.977
38554W        W 3814  16.029  27.008   0.811
38555W        W 3815   9.539  39.398  11.564
38556W        W 3816  26.861  30.698   4.107
38557W        W 3817   2.270  43.884   1.879
38558W        W 3818  29.246  40.339   3.721
38559W        W 3819  38.752  38.763  11.911
38560W        W 3820  28.713   4.386   2.205
38561W        W 3821  28.499   0.203  14.229
38562W        W 3822   0.932  34.000  14.925
38563W        W 3823  14.287  29.727  12.467
38564W        W 3824  23.378  39.984  13.311
38565W        W 3825  13.731   7.722   1.941
38566W        W 3826  41.492  30.039   2.402
38567W        W 3827  21.034   2.422  14.442
38568W        W 3828  21.841   8.602  11.180
38569W        W 3829  16.550  34.386  14.000
38570W        W 3830  28.465   8.890   4.714
38571W        W 3831  24.204  22.706   3.224
38572W        W 3832  20.744  43.053   0.280
38573W        W 3833   6.669  15.336  14.808
38574W        W 3834  11.116  20.354  10.841
38575W        W 3835  41.243   0.202   0.345
38576W        W 3836   1.668  17.192  13.112
38577W        W 3837  36.963  10.279   0.257
38578W        W 3838  32.447  40.962   4.171
38579W        W 3839  39.619  13.530   2.701
38580W        W 3840  26.752  33.059  12.576
38581W        W 3841  20.279   4.916   2.762
38582W        W 3842  29.685  28.881  13.070
38583W        W 3843  36.900   3.456   9.748
38584W        W 3844  30.354  12.085  14.876
38585W        W 3845  10.837   4.661   4.209
38586W        W 3846  39.081  27.254  12.145
38587W        W 3847  29.254   5.669  11.583
38588W        W 3848  39.346   4.702   1.675
38589W        W 3849  34.065   6.308   1.340
38590W        W 3850  15.999  13.524  13.895
38591W        W 3851  17.287  16.205   0.898
38592W        W 3852  29.186  27.260  11.189
38593W        W 3853   9.570  21.556  14.288
38594W        W 3854  31.432  18.321  13.037
38595W        W 3855  12.654  16.496   2.623
38596W        W 3856  23.230  39.037   2.697
38597W        W 3857  29.240  30.153  10.708
38598W        W 3858   6.912  25.695  12.534
38599W        W 3859  12.279  43.463  13.764
38600W        W 3860   1.252   7.335   0.418
38601W        W 3861   7.981  43.283  12.419
38602W        W 3862   7.613  43.720  13.823
38603W        W 3863  24.979  26.945  12.477
38604W        W 3864  16.965  10.122  11.031
38605W        W 3865   9.474   0.216  10.683
38606W        W 3866  22.980  15.825   2.866
38607W        W 3867  17.274  34.621   0.407
38608W        W 3868  13.532  20.157  11.650
38609W        W 3869  17.168  44.642   0.368
38610W        W 3870  38.207  31.022  10.731
38611W        W 3871  18.031  31.104  14.821
38612W        W 3872  15.229   6.416   3.125
38613W        W 3873  25.194  28.945   4.080
38614W        W 3874  24.022   9.300   3.007
38615W        W 3875  28.364  26.085  14.357
38616W        W 3876  15.978  21.329   0.923
38617W        W 3877  10.076  16.749   0.849
38618W        W 3878  39.177   1.002   3.527
38619W        W 3879   8.866  13.104  10.493
38620W        W 3880  28.110  10.668   0.105
38621W        W 3881   1.302   5.309   1.734
38622W        W 3882  44.384  28.887   4.788
38623W        W 3883  22.176   4.965   1.003
38624W        W 3884  34.939  21.880   3.859
38625W        W 3885   2.339  44.732  12.596
38626W        W 3886   4.857  42.926   1.918
38627W        W 3887  31.629  32.690  10.609
38628W        W 3888  12.838  23.568  13.027
38629W        W 3889  21.614   5.442   3.037
38630W        W 3890  14.604   2.719   2.205
38631W        W 3891  44.472  40.831   2.475
38632W        W 3892   5.261  34.451   1.672
38633W        W 3893  11.108  12.673   1.331
38634W        W 3894  44.225  10.723   1.827
38635W        W 3895  19.996  15.448   2.610
38636W        W 3896  41.174  32.357   1.238
38637W        W 3897   4.761   8.294  10.852
38638W        W 3898  11.382  25.922  12.404
38639W        W 3899   2.525   0.861   1.793
38640W        W 3900   5.436  14.777   2.867
38641W        W 3901  40.484  29.719  14.313
38642W        W 3902   5.420   2.496   4.084
38643W        W 3903   5.738  25.967   2.391
38644W        W 3904  42.469  22.850   1.703
38645W        W 3905   8.363  20.970   1.330
38646W        W 3906  42.409  19.838  12.093
38647W        W 3907  11.749  11.121  10.369
38648W        W 3908  20.139  15.923  10.072
38649W        W 3909   0.345  36.850   1.473
38650W        W 3910  16.319  17.200   0.157
38651W        W 3911  26.607  33.558  13.982
38652W        W 3912  34.372  18.750   2.276
38653W        W 3913  24.262  26.032  14.709
38654W        W 3914  33.869  11.713  10.751
38655W        W 3915  37.045  15.853  14.942
38656W        W 3916   9.166  11.685   0.098
38657W        W 3917  14.674  41.864  12.799
38658W        W 3918  31.973  10.674  11.884
38659W        W 3919  12.612  18.683  14.871
38660W        W 3920   9.728  18.835  11.581
38661W        W 3921   2.070  18.739   3.764
38662W        W 3922  32.393  11.354   0.937
38663W        W 3923  19.632  25.246   4.048
38664W        W 3924  15.008  40.260  12.301
38665W        W 3925  41.481   6.708   2.262
38666W        W 3926  42.831   0.518   2.876
38667W        W 3927   6.677  27.529   0.475
38668W        W 3928   0.016  29.919   4.097
38669W        W 3929   3.762  18.603   3.130
38670W        W 3930   1.270  28.957  11.969
38671W        W 3931   8.281   6.678  12.205
38672W        W 3932   5.319  42.900  12.048
38673W        W 3933  20.585   2.067  12.647
38674W        W 3934  24.098  24.031  14.830
38675W        W 3935  15.688   7.496   2.757
38676W        W 3936   3.780  29.574   4.524
38677W        W 3937   8.163  24.998   2.151
38678W        W 3938  19.734  24.383  14.308
38679W        W 3939  19.146  11.230   4.165
38680W        W 3940  39.352  31.970   3.023
38681W        W 3941  22.139  29.552  12.997
38682W        W 3942   0.182  41.595  12.124
38683W        W 3943  43.734  24.497   2.286
38684W        W 3944  40.791  39.003  13.497
38685W        W 3945  16.480  36.025  11.496
38686W        W 3946   2.402  24.294   1.836
38687W        W 3947  34.610  18.185   4.206
38688W        W 3948  27.480  32.973   2.234
38689W        W 3949  35.649  32.475  11.519
38690W        W 3950  14.591  27.071  11.097
38691W        W 3951   7.390   9.447   1.882
38692W        W 3952  30.481  35.576   2.568
38693W        W 3953  16.697  34.666   0.904
38694W        W 3954  25.231  13.641  10.699
38695W        W 3955   1.085  35.770   4.551
38696W        W 3956  28.188   7.771   1.888
38697W        W 3957  39.795  15.741  13.447
38698W        W 3958   8.397  24.319   9.927
38699W        W 3959  43.150  24.571   3.280
38700W        W 3960  39.112  32.804  14.493
38701W        W 3961  33.819  26.625   2.660
38702W        W 3962  23.663  28.114  14.080
38703W        W 3963  20.570   3.335   1.292
38704W        W 3964  39.602  35.311   2.883
38705W        W 3965   7.318  25.167  14.368
38706W        W 3966   5.442  21.635  14.448
38707W        W 3967   0.294  16.112   4.391
38708W        W 3968  37.385  11.216   2.370
38709W        W 3969   5.228  35.082  12.447
38710W        W 3970   4.862  11.714   4.970
38711W        W 3971  44.436  28.820  14.131
38712W        W 3972  43.259  40.030  14.406
38713W        W 3973   9.657  11.137  11.835
38714W        W 3974  36.146  23.151  13.513
38715W        W 3975  29.373  16.025   3.062
38716W        W 3976   1.470  21.955   1.226
38717W        W 3977  30.603   3.462  12.949
38718W        W 3978  29.981  19.977   3.627
38719W        W 3979  38.224  31.025   2.630
38720W        W 3980   5.622  27.939   0.003
38721W        W 3981  23.818  32.023   0.269
38722W        W 3982  14.388  27.595   3.650
38723W        W 3983  17.269   7.799  12.512
38724W        W 3984  28.968   6.682  12.490
38725W        W 3985   7.367  43.429   1.601
38726W        W 3986   4.443  35.472  12.726
38727W        W 3987  10.876  16.964  14.754
38728W        W 3988  37.081  30.478  14.466
38729W        W 3989  19.235  16.135   1.900
38730W        W 3990  22.459   3.294  10.222
38731W        W 3991   9.013  28.051   2.295
38732W        W 3992  36.165  17.569  11.179
38733W        W 3993  42.932   6.090   5.326
38734W        W 3994   4.242  33.397   1.375
38735W        W 3995  43.351  12.770   1.402
38736W        W 3996   3.393   2.833   0.339
38737W        W 3997  28.500  39.923   1.152
38738W        W 3998  13.285  36.407  12.715
38739W        W 3999  43.274   5.022   4.306
38740W        W 4000  15.659  15.296   2.686
38741W        W 4001  21.618  23.769   2.764
38742W        W 4002   1.805  36.600   2.848
38743W        W 4003  44.961  22.068   1.846
38744W        W 4004   5.359  13.090  13.531
38745W        W 4005  39.251   9.333   4.627
38746W        W 4006  32.862  39.761  10.848
38747W        W 4007  43.770  35.152  11.648
38748W        W 4008  22.995  12.515  12.589
38749W        W 4009  19.899  15.263  13.299
38750W        W 4010  14.924  12.711   2.744
38751W        W 4011   6.351  32.004   5.068
38752W        W 4012  33.319  35.806   0.027
38753W        W 4013  33.640  41.435   0.768
38754W        W 4014  36.935   2.204   0.414
38755W        W 4015  44.483  11.688   0.827
38756W        W 4016  42.843   6.821  12.138
38757W        W 4017  42.911  35.839  14.961
38758W        W 4018  21.356  31.063   4.620
38759W        W 4019  42.401  28.902  13.857
38760W        W 4020  37.395   9.629  11.024
38761W        W 4021  23.778  37.913  13.097
38762W        W 4022  39.064  43.117  12.088
38763W        W 4023  25.451   1.816  11.095
38764W        W 4024  36.596   2.997   1.396
38765W        W 4025  16.260   7.068  11.068
38766W        W 4026   8.246  12.311  13.763
38767W        W 4027  44.258   6.224  14.968
38768W        W 4028  20.633   4.493   1.296
38769W        W 4029  18.660  12.440   2.824
38770W        W 4030  27.517  27.133  12.594
38771W        W 4031   3.535   8.343   1.198
38772W        W 4032  41.296  16.127   3.368
38773W        W 4033  40.440  42.324  11.199
38774W        W 4034   5.191   7.709  12.344
38775W        W 4035  11.305   5.743   1.199
38776W        W 4036   6.792  11.872   3.783
38777W        W 4037   5.472  38.998  11.181
38778W        W 4038   6.546   0.899   4.077
38779W        W 4039  14.657   8.115  13.587
38780W        W 4040  38.844  10.572  13.965
38781W        W 4041  19.407   9.429   9.906
38782W        W 4042  20.912  28.081   1.327
38783W        W 4043   5.667  31.396   1.625
38784W        W 4044   7.016  16.302  13.441
38785W        W 4045  40.997  27.219  11.063
38786W        W 4046   2.878  39.517   4.644
38787W        W 4047   7.592  33.402   2.346
38788W        W 4048  15.061  13.982  14.089
38789W        W 4049  43.382  40.273  11.546
38790W        W 4050  42.111  17.165  14.848
38791W        W 4051  23.052  16.555   3.370
38792W        W 4052  20.790  43.200  12.941
38793W        W 4053  28.940  31.589  14.562
38794W        W 4054  34.200  36.861  11.976
38795W        W 4055  21.290  15.320  12.945
38796W        W 4056  37.844  26.989   2.232
38797W        W 4057  24.042  24.709   3.583
38798W        W 4058  43.947  27.108  11.656
38799W        W 4059  13.131   5.883   3.598
38800W        W 4060  33.154  27.105   2.374
38801W        W 4061  38.622  16.601  11.117
38802W        W 4062  28.473   6.295   4.557
38803W        W 4063  32.436   9.884   3.144
38804W        W 4064  22.310  26.185   2.568
38805W        W 4065  39.161  36.385  14.389
38806W        W 4066  28.160  41.078  13.512
38807W        W 4067  14.606  37.029  12.094
38808W        W 4068   0.477  37.575   0.190
38809W        W 4069  39.673  10.012  13.038
38810W        W 4070  21.677  22.602  11.045
38811W        W 4071  43.234  26.065   1.868
38812W        W 4072  40.077  21.960   2.399
38813W        W 4073  39.855  10.871  10.593
38814W        W 4074  26.694  13.663  13.802
38815W        W 4075  21.133   9.366   2.560
38816W        W 4076   5.880  39.326   4.057
38817W        W 4077   8.357  37.136  12.515
38818W        W 4078  17.023   2.923   3.711
38819W        W 4079   3.040   9.710   3.674
38820W        W 4080   1.429   5.705   2.416
38821W        W 4081  19.453   4.883   4.100
38822W        W 4082   4.246   9.609   1.677
38823W        W 4083  35.145   6.776   2.674
38824W        W 4084  42.467  10.410  14.007
38825W        W 4085  35.672  39.108   2.767
38826W        W 4086  11.358  35.394  12.126
38827W        W 4087   0.398  20.019  12.824
38828W        W 4088  32.870   3.865   2.640
38829W        W 4089  14.680  27.053  11.598
38830W        W 4090   3.189   1.279   0.362
38831W        W 4091   6.950   0.741   3.253
38832W        W 4092  18.556  27.102   0.899
38833W        W 4093   3.602   7.784  12.433
38834W        W 4094  15.134  26.832   2.842
38835W        W 4095   0.095   1.838  12.519
38836W        W 4096  22.985   0.411  12.466
38837W        W 4097  33.417  20.061  13.481
38838W        W 4098  19.929  36.591  13.542
38839W        W 4099   1.326  16.213   1.473
38840W        W 4100  26.622  30.346   0.097
38841W        W 4101  28.478  21.856  13.882
38842W        W 4102   6.742   8.891   2.871
38843W        W 4103   5.307  19.102   1.419
38844W        W 4104   3.316  33.072  13.379
38845W        W 4105   1.945  10.992  12.182
38846W        W 4106  12.709   8.575  12.925
38847W        W 4107  29.666  35.851  10.719
38848W        W 4108  35.394  32.913  10.723
38849W        W 4109   4.698  30.686   1.919
38850W        W 4110  18.043  28.446  12.814
38851W        W 4111  12.004  28.340  14.744
38852W        W 4112  30.452  20.826  12.103
38853W        W 4113  25.967   6.843   3.058
38854W        W 4114  19.128  13.207  11.706
38855W        W 4115  14.452  10.330   0.133
38856W        W 4116  33.043   1.907   3.861
38857W        W 4117   0.395   9.386   3.682
38858W        W 4118  21.111   7.503  14.446
38859W        W 4119   5.302  25.746  14.991
38860W        W 4120  29.951  28.657  14.757
38861W        W 4121   1.325  15.934   1.926
38862W        W 4122  40.248  10.225   4.265
38863W        W 4123  30.017  32.440   0.647
38864W        W 4124  15.772  34.012  11.182
38865W        W 4125  30.497  20.107  13.401
38866W        W 4126  21.946  31.027   1.766
38867W        W 4127  12.737  31.779   3.208
38868W        W 4128  33.976   3.222   5.040
38869W        W 4129  16.638  36.892   0.916
38870W        W 4130  28.631  31.433  14.165
38871W        W 4131  11.860   9.213   3.484
38872W        W 4132  28.589  25.724   1.601
38873W        W 4133  33.665  37.267  14.904
38874W        W 4134   5.884  16.193   0.211
38875W        W 4135  29.536  30.936  12.982
38876W        W 4136  10.741  19.121   2.298
38877W        W 4137  19.743  43.245  12.953
38878W        W 4138  40.368  11.781   1.901
38879W        W 4139  31.171  24.232   2.590
38880W        W 4140   1.865  28.046  14.567
38881W        W 4141  34.602  13.042  13.483
38882W        W 4142  35.482  13.063  12.169
38883W        W 4143  43.588  34.908  13.899
38884W        W 4144  32.575   8.225  14.742
38885W        W 4145  18.548  26.709  14.042
38886W        W 4146   3.792  23.181   0.849
38887W        W 4147  22.759  35.338  11.762
38888W        W 4148  24.162  38.930  11.610
38889W        W 4149  14.819  24.549  13.360
38890W        W 4150  24.518  14.141  13.373
38891W        W 4151  30.725  22.841   3.748
38892W        W 4152  40.104  43.505   1.921
38893W        W 4153  31.467  20.260  14.222
38894W        W 4154  20.750  17.967   3.001
38895W        W 4155  33.228   1.725  13.619
38896W        W 4156   4.874  11.713  14.849
38897W        W 4157  33.618  44.725  10.081
38898W        W 4158   1.143  35.172  11.209
38899W        W 4159   0.591  15.740   5.619
38900W        W 4160  36.950  17.219   1.168
38901W        W 4161  20.641  32.777   4.037
38902W        W 4162  15.278  21.179   1.237
38903W        W 4163  22.932  15.479  12.086
38904W        W 4164  36.409  36.098   0.790
38905W        W 4165  33.511  15.783  13.853
38906W        W 4166  14.076  18.384  11.259
38907W        W 4167   8.990  39.175   3.003
38908W        W 4168  37.328  17.869   4.709
38909W        W 4169  23.001  37.639  10.312
38910W        W 4170  33.525  29.981  12.621
38911W        W 4171  18.771  27.421  10.949
38912W        W 4172  44.894  12.768  14.376
38913W        W 4173   0.481  14.103  11.050
38914W        W 4174  36.962  33.994   2.220
38915W        W 4175  35.893  29.753   3.720
38916W        W 4176   5.657  18.727  14.845
38917W        W 4177  22.143  28.853  11.894
38918W        W 4178  40.001  19.224   3.360
38919W        W 4179   5.847  15.888  12.495
38920W        W 4180  32.536   2.580   3.773
38921W        W 4181  33.628  43.870   2.841
38922W        W 4182  23.358  38.084  11.262
38923W        W 4183  38.621  33.546  13.082
38924W        W 4184  25.033   1.743  10.790
38925W        W 4185  44.240  27.238   3.689
38926W        W 4186  35.101  31.687   1.362
38927W        W 4187  33.441  14.158  10.752
38928W        W 4188  25.645   2.137  12.541
38929W        W 4189  27.537   8.818  13.238
38930W        W 4190  38.587  42.221  12.005
38931W        W 4191   3.629  36.158   4.260
38932W        W 4192   0.883  42.585   0.843
38933W        W 4193  31.582  36.375   1.461
38934W        W 4194  16.684  13.318  10.756
38935W        W 4195  34.544  35.317  12.857
38936W        W 4196   9.551  29.120   1.399
38937W        W 4197  28.787  22.548   4.718
38938W        W 4198  31.890   3.539  13.517
38939W        W 4199  44.508  28.972   0.908
38940W        W 4200  27.802  27.482   2.866
38941W        W 4201  31.466  43.936   2.431
38942W        W 4202  37.515   5.993  12.351
38943W        W 4203  38.736  41.271  11.865
38944W        W 4204  20.454  15.255   0.860
38945W        W 4205  41.813  44.488   3.196
38946W        W 4206  20.697  17.415  10.194
38947W        W 4207  19.199   4.715  13.541
38948W        W 4208   4.269  25.498  12.999
38949W        W 4209  31.466   9.405   3.185
38950W        W 4210  33.960   8.179   3.150
38951W        W 4211  15.171   0.503   1.223
38952W        W 4212  31.477  10.463  11.351
38953W        W 4213  17.737   6.280  11.664
38954W        W 4214   7.436  18.682   2.239
38955W        W 4215   8.460  10.941  13.970
38956W        W 4216   3.383  18.107   0.481
38957W        W 4217   2.824  27.630   9.725
38958W        W 4218   5.717  19.536  11.607
38959W        W 4219  43.120  15.757   3.413
38960W        W 4220   2.820  35.381   2.238
38961W        W 4221  23.025   7.937   2.897
38962W        W 4222  27.104  15.403  11.640
38963W        W 4223   6.319   2.832   0.455
38964W        W 4224  37.939  42.273   4.370
38965W        W 4225  18.292  18.718  14.440
38966W        W 4226  40.447  28.935   3.049
38967W        W 4227  10.397  24.623  10.710
38968W        W 4228   6.445  31.405  10.843
38969W        W 4229  37.915  31.866  14.097
38970W        W 4230  22.690   3.160   0.928
38971W        W 4231  26.430  13.078   2.862
38972W        W 4232  27.930   3.466  14.342
38973W        W 4233  35.299  40.941  12.762
38974W        W 4234  35.954  32.979   4.252
38975W        W 4235  36.583   2.759  14.931
38976W        W 4236  24.487   7.206   2.603
38977W        W 4237  27.651  14.321   2.314
38978W        W 4238  37.237   5.519  14.556
38979W        W 4239  35.593  40.797   0.018
38980W        W 4240   5.560  17.957   1.935
38981W        W 4241  27.907  31.209   2.710
38982W        W 4242  13.971  34.042  14.984
38983W        W 4243  30.553  33.612   0.944
38984W        W 4244   1.975  43.552   0.565
38985W        W 4245   0.735  32.125  11.764
38986W        W 4246  44.380  39.011  13.851
38987W        W 4247  37.235  40.835  11.352
38988W        W 4248  36.512  12.097  13.992
38989W        W 4249  36.972  31.114  11.833
38990W        W 4250   7.997   4.897   0.320
38991W        W 4251  40.329  34.406   0.382
38992W        W 4252  23.952   8.149   2.681
38993W        W 4253  11.081   5.600   4.988
38994W        W 4254  37.455  40.110  12.613
38995W        W 4255  27.421  18.759   0.298
38996W        W 4256  27.577  41.503   4.099
38997W        W 4257  23.297  37.485  13.959
38998W        W 4258  23.469   4.670  13.998
38999W        W 4259  27.476  11.391   0.506
39000W        W 4260  41.325  18.888   2.821
39001W        W 4261  33.036  32.889   3.245
39002W        W 4262  15.877  14.174  12.098
39003W        W 4263   6.181   5.967  12.500
39004W        W 4264  10.902  29.438  13.876
39005W        W 4265  17.034  32.316   2.634
39006W        W 4266  35.493  22.546  11.633
39007W        W 4267  41.798  41.066   2.163
39008W        W 4268  31.036  26.595   1.309
39009W        W 4269   5.369  33.901   3.674
39010W        W 4270  37.206  42.400   0.726
39011W        W 4271  30.959   2.473   1.331
39012W        W 4272  38.060  30.588   4.423
39013W        W 4273  41.934  27.052   2.468
39014W        W 4274   8.209  29.502  13.794
39015W        W 4275  27.606  15.180   0.391
39016W        W 4276  38.510   6.255   1.474
39017W        W 4277   6.474  11.677   2.992
39018W        W 4278  28.897  25.598   2.373
39019W        W 4279  22.761  30.364   1.746
39020W        W 4280  31.700   1.772   0.240
39021W        W 4281   4.776  38.355  10.153
39022W        W 4282  27.021  32.394  11.927
39023W        W 4283  35.126  13.554  14.404
39024W        W 4284  17.360  27.685   2.506
39025W        W 4285  13.577   9.961  14.914
39026W        W 4286  32.939  44.170  14.631
39027W        W 4287   4.740  15.501   0.028
39028W        W 4288  29.922  29.090   1.848
39029W        W 4289  37.939  41.534   1.953
39030W        W 4290   9.868  22.359  11.656
39031W        W 4291  41.826  17.021   4.648
39032W        W 4292  18.171  18.331   0.707
39033W        W 4293  17.387  30.859   4.119
39034W        W 4294  13.764  29.507  13.814
39035W        W 4295  29.704  19.632  12.057
39036W        W 4296  26.288  44.262  14.739
39037W        W 4297  17.790   9.134   4.100
39038W        W 4298  42.332  19.409   2.831
39039W        W 4299  23.147  42.451  14.323
39040W        W 4300  33.771   9.247   3.102
39041W        W 4301  43.158  17.757  11.096
39042W        W 4302   3.462  23.810   2.414
39043W        W 4303  19.453  13.302   0.162
39044W        W 4304   0.764   2.754   2.438
39045W        W 4305   4.772  26.108   4.625
39046W        W 4306  12.895  18.027  10.326
39047W        W 4307  32.351  19.449   1.122
39048W        W 4308  18.831  22.403  13.805
39049W        W 4309  33.746  25.418  11.675
39050W        W 4310  36.575  17.556  11.465
39051W        W 4311  18.571  33.214  14.651
39052W        W 4312   3.196  11.611  13.464
39053W        W 4313   1.138  24.045  14.777
39054W        W 4314  36.296  43.849  11.611
39055W        W 4315  37.953   7.819  14.083
39056W        W 4316  14.388  24.710   4.079
39057W        W 4317  40.392  34.018   3.947
39058W        W 4318  38.946  39.794  10.618
39059W        W 4319  44.485   7.675  12.261
39060W        W 4320   7.664  23.034  10.752
39061W        W 4321  17.273   9.451  11.722
39062W        W 4322   1.400  20.706   0.022
39063W        W 4323  24.508  22.116  13.916
39064W        W 4324   9.483  28.011   4.460
39065W        W 4325   7.655  38.761   4.539
39066W        W 4326  44.325   7.409  10.865
39067W        W 4327  23.316  12.733  12.972
39068W        W 4328  17.884  20.274  11.695
39069W        W 4329  14.172  32.617  11.284
39070W        W 4330  35.540   4.124  12.807
39071W        W 4331  14.213  23.218   4.911
39072W        W 4332  30.899  20.550   0.480
39073W        W 4333  20.504  42.499  11.268
39074W        W 4334  25.014   6.876   3.859
39075W        W 4335  14.545  37.602  13.289
39076W        W 4336   4.184  36.289  13.855
39077W        W 4337  26.890  34.617   4.697
39078W        W 4338  23.541   5.438  11.578
39079W        W 4339  37.186  34.469   2.227
39080W        W 4340  30.162   0.273   4.294
39081W        W 4341   1.493  38.320  14.889
39082W        W 4342  44.472   7.161  12.161
39083W        W 4343  17.389  28.018   3.335
39084W        W 4344  26.479   9.780   4.968
39085W        W 4345  33.829  44.241  12.238
39086W        W 4346   2.437  35.421   3.795
39087W        W 4347  13.442  34.877  14.175
39088W        W 4348  44.329  23.916   2.342
39089W        W 4349  36.115  16.700  14.575
39090W        W 4350  43.822  36.955  11.192
39091W        W 4351  15.364  14.430   3.137
39092W        W 4352  37.398  20.694   4.909
39093W        W 4353  16.734  14.280   4.796
39094W        W 4354  38.907   6.496   2.714
39095W        W 4355  26.465   7.348  14.893
39096W        W 4356   4.678  40.026   0.890
39097W        W 4357  14.301   2.614  13.074
39098W        W 4358   0.825  35.321  10.843
39099W        W 4359  28.681   7.149   3.863
39100W        W 4360  31.397  14.179  14.022
39101W        W 4361   8.742  24.571  12.178
39102W        W 4362  33.225  29.740   0.287
39103W        W 4363  19.860  21.654   2.896
39104W        W 4364  34.548  39.937  14.318
39105W        W 4365  33.929  33.916   2.058
39106W        W 4366  22.153  25.696  14.304
39107W        W 4367  21.336   7.606   4.522
39108W        W 4368  11.900  11.341   4.147
39109W        W 4369  37.505  12.860  12.009
39110W        W 4370  16.743   0.703   1.679
39111W        W 4371   0.227  17.787  14.116
39112W        W 4372   2.929   1.416  13.727
39113W        W 4373  27.328  21.243  10.782
39114W        W 4374  26.453  25.189   3.787
39115W        W 4375  18.525  12.895   3.720
39116W        W 4376  39.863  41.997   3.089
39117W        W 4377  10.278  10.665  12.907
39118W        W 4378  41.180  42.675   5.121
39119W        W 4379  11.746  35.727   1.823
39120W        W 4380  42.753   3.808  13.399
39121W        W 4381   0.431   0.265   0.524
39122W        W 4382  11.478  26.830   5.179
39123W        W 4383  43.878  38.731  14.333
39124W        W 4384  15.336   0.303   1.769
39125W        W 4385  11.669  13.722  11.947
39126W        W 4386  36.476   4.025   0.461
39127W        W 4387  37.603  24.864   3.413
39128W        W 4388   1.852  39.602   0.789
39129W        W 4389  32.521  12.816   0.708
39130W        W 4390  31.243   8.856   2.650
39131W        W 4391   5.457  24.619  13.805
39132W        W 4392  27.698  37.572  14.685
39133W        W 4393   8.451   0.262  10.770
39134W        W 4394  33.160  43.829   0.674
39135W        W 4395  17.371  36.514  13.783
39136W        W 4396  33.371   3.208  11.568
39137W        W 4397   3.457  12.871   4.111
39138W        W 4398   3.935  32.393   0.482
39139W        W 4399  33.895  11.048   4.390
39140W        W 4400  32.024  30.056  10.710
39141W        W 4401  12.857  24.479   4.331
39142W        W 4402  21.187  32.117  14.838
39143W        W 4403   8.223   8.556   2.360
39144W        W 4404  44.744   4.791  10.311
39145W        W 4405  18.639  29.665  10.764
39146W        W 4406  14.622  21.028  14.236
39147W        W 4407   8.904  37.156   3.625
39148W        W 4408   9.680  42.393  10.648
39149W        W 4409   6.108   6.407   4.650
39150W        W 4410  10.886   3.005   3.709
39151W        W 4411   6.148  34.094   3.132
39152W        W 4412  16.830  31.974   4.029
39153W        W 4413  11.062  18.293  12.080
39154W        W 4414  16.182  32.106  11.933
39155W        W 4415  22.127  29.643   2.734
39156W        W 4416  40.129  40.064   1.981
39157W        W 4417  28.508  18.264   2.797
39158W        W 4418  11.559   8.902   3.231
39159W        W 4419  43.295   0.350   2.367
39160W        W 4420  12.190  34.629   1.330
39161W        W 4421  30.105   2.848   0.822
39162W        W 4422   0.689  14.277  14.538
39163W        W 4423  35.838  32.746  14.247
39164W        W 4424  22.217  24.075  13.277
39165W        W 4425   8.716  43.943   2.816
39166W        W 4426  19.819   6.809  14.513
39167W        W 4427  40.117  44.196   2.301
39168W        W 4428  44.819  27.970  12.068
39169W        W 4429  22.741  27.540   2.717
39170W        W 4430   4.335   1.525  10.725
39171W        W 4431  31.852   2.586   2.211
39172W        W 4432   4.936  26.920   1.365
39173W        W 4433  16.562  25.917  13.490
39174W        W 4434  38.555  39.450  11.886
39175W        W 4435   4.917  19.402   0.320
39176W        W 4436  23.650  12.257  12.534
39177W        W 4437   2.844   3.778   2.273
39178W        W 4438  32.339   3.432   2.217
39179W        W 4439  34.338  42.819   2.752
39180W        W 4440  36.120  39.590  12.220
39181W        W 4441  14.264  12.048   2.386
39182W        W 4442   9.442  42.227   0.331
39183W        W 4443  23.023  34.569  12.013
39184W        W 4444  29.814  21.521  12.503
39185W        W 4445  41.793  16.698  13.463
39186W        W 4446  30.207  25.722   1.618
39187W        W 4447  28.395  25.778   4.960
39188W        W 4448  13.845   1.903  14.978
39189W        W 4449  35.237  15.817  11.525
39190W        W 4450  44.832  38.028  10.653
39191W        W 4451  17.761  37.937   0.402
39192W        W 4452  36.920  37.626   4.460
39193W        W 4453  27.138  29.857   2.273
39194W        W 4454  23.591  16.031   1.364
39195W        W 4455  25.724  25.709   4.568
39196W        W 4456  10.403  14.299   3.222
39197W        W 4457  29.665   4.649  12.960
39198W        W 4458  24.915  15.802   2.522
39199W        W 4459  40.304  36.405  10.367
39200W        W 4460  26.462  28.928   0.236
39201W        W 4461  38.793  10.820  14.479
39202W        W 4462  21.260  37.817   1.844
39203W        W 4463   9.553  21.154   3.521
39204W        W 4464  41.110  22.064   4.247
39205W        W 4465  36.979  33.349   2.746
39206W        W 4466   1.637  11.322   5.066
39207W        W 4467  19.055  40.890   3.358
39208W        W 4468  10.856  44.821   0.207
39209W        W 4469  29.683  22.215  13.357
39210W        W 4470   5.911  21.997  12.019
39211W        W 4471  39.392  13.255   0.729
39212W        W 4472  39.884  25.864  13.131
39213W        W 4473  14.816   3.844  12.877
39214W        W 4474  14.642  33.377  12.928
39215W        W 4475  14.721   6.864   9.655
39216W        W 4476  40.392   5.756   4.588
39217W        W 4477  36.660  14.564   0.303
39218W        W 4478  25.098   0.869   3.725
39219W        W 4479  10.162  10.352  12.440
39220W        W 4480  39.793  16.646  13.553
39221W        W 4481   9.500  26.717  10.684
39222W        W 4482  33.866  30.990   4.136
39223W        W 4483  32.540  29.436   1.843
39224W        W 4484  38.049  40.222   1.202
39225W        W 4485  38.118  38.459  13.386
39226W        W 4486   5.436   2.813   0.827
39227W        W 4487  26.216  43.042   0.382
39228W        W 4488  26.963   9.713  13.366
39229W        W 4489   4.772  33.605   4.632
39230W        W 4490   7.260   1.802  14.279
39231W        W 4491   8.072   3.467   0.692
39232W        W 4492  31.396  21.564  10.507
39233W        W 4493  33.883  19.326  13.260
39234W        W 4494  41.928   0.372  11.173
39235W        W 4495  36.299  34.670   4.511
39236W        W 4496   0.669  30.008   2.055
39237W        W 4497  28.680  19.618   4.387
39238W        W 4498   3.427  35.055   2.685
39239W        W 4499   0.996  30.961  11.357
39240W        W 4500  33.855  30.201   4.536
39241W        W 4501   9.802  15.495   2.866
39242W        W 4502  40.514  40.356   3.591
39243W        W 4503  14.091  26.315   3.983
39244W        W 4504  22.882  41.474  14.935
39245W        W 4505  25.483  10.681  13.518
39246W        W 4506   7.798   0.192   3.097
39247W        W 4507  37.625  12.163  14.532
39248W        W 4508   4.219   0.685  13.487
39249W        W 4509  10.125  19.258   3.670
39250W        W 4510  34.060   7.851   1.384
39251W        W 4511  44.409  14.076   0.108
39252W        W 4512  21.813  38.659   1.446
39253W        W 4513  37.398  44.921   4.511
39254W        W 4514   8.192   1.224   3.763
39255W        W 4515  18.369  14.250  12.547
39256W        W 4516   4.811   1.038  13.153
39257W        W 4517  12.211  29.925  13.992
39258W        W 4518  30.392   9.962   1.702
39259W        W 4519  24.257  28.452   3.907
39260W        W 4520  43.211  37.462  12.103
39261W        W 4521  37.054  26.505   3.236
39262W        W 4522  23.140  19.771   2.630
39263W        W 4523   4.163  35.453   4.305
39264W        W 4524  20.399   7.354   0.457
39265W        W 4525  38.343  25.668   4.353
39266W        W 4526   6.882  42.347  14.462
39267W        W 4527  36.436  41.257  12.901
39268W        W 4528   8.128  11.228   1.383
39269W        W 4529   9.203  31.446   0.343
39270W        W 4530   4.782  40.596   3.664
39271W        W 4531   4.380  43.713   1.068
39272W        W 4532  19.030   3.733   0.108
39273W        W 4533  29.421  20.128   4.729
39274W        W 4534  14.589  31.915  14.098
39275W        W 4535   9.767  41.413  13.296
39276W        W 4536  25.425  41.367   1.227
39277W        W 4537  26.651  26.300   1.056
39278W        W 4538  42.512  40.099  11.715
39279W        W 4539  36.124  32.430   4.927
39280W        W 4540  29.761  18.531  12.657
39281W        W 4541  27.388   6.266  10.638
39282W        W 4542   1.289  30.171  14.851
39283W        W 4543  27.218  13.708  13.903
39284W        W 4544  15.336   6.166   2.687
39285W        W 4545   6.301   0.809  11.843
39286W        W 4546  28.169  36.419  10.495
39287W        W 4547   8.377  17.262  11.619
39288W        W 4548  30.142   4.721  11.652
39289W        W 4549  26.661  12.003   0.311
39290W        W 4550  30.695   8.005   5.012
39291W        W 4551  21.586  26.455   2.147
39292W        W 4552  24.777  24.042  14.206
39293W        W 4553  30.659  41.852  11.927
39294W        W 4554  20.276  22.118  13.622
39295W        W 4555  37.898  22.472   2.318
39296W        W 4556   9.589  40.021  13.797
39297W        W 4557  19.143  31.868  11.128
39298W        W 4558  23.256  41.836  12.354
39299W        W 4559  35.518  16.671   2.112
39300W        W 4560  42.370  11.938  14.000
39301W        W 4561  17.723  27.449  12.024
39302W        W 4562  28.603  23.103  11.178
39303W        W 4563  37.163  39.272  11.935
39304W        W 4564  12.338  36.642   3.285
39305W        W 4565  23.139  19.293   2.894
39306W        W 4566  29.666  19.339   2.270
39307W        W 4567  11.356  27.577   3.895
39308W        W 4568   9.796  19.492  14.862
39309W        W 4569  27.092   9.165   4.880
39310W        W 4570  28.981   7.363   2.301
39311W        W 4571  14.200  12.279   1.894
39312W        W 4572   1.663  10.277  13.514
39313W        W 4573  42.240  18.072   0.415
39314W        W 4574  22.135  28.322  11.676
39315W        W 4575  40.752   2.234   2.870
39316W        W 4576  34.723  19.537  11.235
39317W        W 4577  20.896  26.804  14.845
39318W        W 4578  17.251   7.247  11.123
39319W        W 4579  16.120  29.279  12.507
39320W        W 4580  23.277   4.011  13.374
39321W        W 4581  31.288   6.680   4.538
39322W        W 4582  34.966  27.225   0.060
39323W        W 4583  42.261  32.002   3.859
39324W        W 4584  28.763  41.315  12.896
39325W        W 4585  20.709  31.916  14.953
39326W        W 4586  44.425  16.254   0.291
39327W        W 4587  10.116  38.060   3.730
39328W        W 4588  36.087  35.068  12.180
39329W        W 4589  37.559  23.907   0.486
39330W        W 4590  18.622  21.009  12.577
39331W        W 4591   6.451  38.020   4.198
39332W        W 4592  29.612  16.870  11.625
39333W        W 4593  30.808  32.110   4.319
39334W        W 4594  35.082  12.660   4.614
39335W        W 4595  13.109  17.239   2.624
39336W        W 4596  12.432   2.601  11.262
39337W        W 4597   3.177  42.761  13.465
39338W        W 4598   8.089  20.854  12.359
39339W        W 4599  26.042  31.628  11.973
39340W        W 4600  15.026  13.339  12.958
39341W        W 4601  37.124   7.880  14.541
39342W        W 4602  39.992  31.128  13.925
39343W        W 4603  31.694  23.533  14.039
39344W        W 4604   4.090   2.028  12.583
39345W        W 4605   7.923  20.187   3.135
39346W        W 4606  17.478  10.792  13.837
39347W        W 4607  38.391   2.848  11.953
39348W        W 4608  39.648   6.950  12.200
39349W        W 4609  37.037  12.393  10.669
39350W        W 4610   4.833  10.294  14.079
39351W        W 4611   8.270  11.687  10.801
39352W        W 4612  22.252  27.805  10.847
39353W        W 4613  43.534   2.882  12.801
39354W        W 4614   6.145   0.292   4.532
39355W        W 4615  21.462  31.284   4.127
39356W        W 4616  27.714  29.502  14.897
39357W        W 4617   2.371  37.390  14.062
39358W        W 4618  38.063  18.033  13.466
39359W        W 4619  20.669  12.337  13.951
39360W        W 4620  38.055  37.049  14.199
39361W        W 4621  14.103  35.081  12.880
39362W        W 4622  19.485   3.749   1.996
39363W        W 4623  34.620  28.477   3.668
39364W        W 4624  15.723  19.362  13.845
39365W        W 4625  36.184  38.487  12.023
39366W        W 4626  33.218  35.918   9.957
39367W        W 4627  43.949  30.479   1.487
39368W        W 4628  41.872   5.198  12.001
39369W        W 4629  28.666   5.882   1.465
39370W        W 4630  25.923  33.542  11.602
39371W        W 4631  20.823   6.732  14.325
39372W        W 4632  40.632  30.381  11.857
39373W        W 4633  17.556  44.886   1.004
39374W        W 4634  32.873  32.590  14.390
39375W        W 4635  28.670   3.825   0.006
39376W        W 4636  41.306   7.962  14.672
39377W        W 4637  30.503  40.145  13.998
39378W        W 4638  26.776  17.856   3.596
39379W        W 4639  23.098  12.736  12.080
39380W        W 4640  29.220   3.757   3.250
39381W        W 4641  44.851  13.331  12.215
39382W        W 4642  30.493  34.762  11.418
39383W        W 4643  19.064   6.068   1.266
39384W        W 4644  40.996   9.581  11.550
39385W        W 4645   0.798  37.748  13.128
39386W        W 4646  40.867   2.522  13.919
39387W        W 4647  15.623  41.120  10.295
39388W        W 4648   1.854  22.307  12.923
39389W        W 4649   7.850  11.711   2.634
39390W        W 4650  14.082  21.961   3.658
39391W        W 4651  34.437   9.188   1.389
39392W        W 4652  23.458  22.603  11.563
39393W        W 4653  17.880  17.968  12.988
39394W        W 4654  35.884  20.989  14.502
39395W        W 4655   9.136  23.606  13.481
39396W        W 4656  44.041   6.729  13.450
39397W        W 4657   3.063   2.997   3.676
39398W        W 4658  34.938  41.325  12.619
39399W        W 4659   7.347  21.430  12.472
39400W        W 4660  28.513  40.291  10.746
39401W        W 4661  18.342   3.867  14.351
39402W        W 4662  36.491   7.986   2.951
39403W        W 4663  44.935  42.793   1.845
39404W        W 4664  25.485  20.775   3.253
39405W        W 4665   1.757  11.837   0.041
39406W        W 4666  11.814  44.139   1.299
39407W        W 4667  31.462  14.682  10.830
39408W        W 4668   3.842   3.471  14.782
39409W        W 4669  43.257  20.672   4.088
39410W        W 4670  43.193   8.582   0.675
39411W        W 4671   6.128  34.831  12.536
39412W        W 4672  33.809   6.842   2.308
39413W        W 4673  10.713  30.128   3.857
39414W        W 4674  39.016  37.403  14.454
39415W        W 4675  43.406  35.214   4.610
39416W        W 4676  16.982   1.661  12.918
39417W        W 4677  18.268  31.818   5.000
39418W        W 4678   8.374  43.383   3.313
39419W        W 4679   1.248  25.137   2.791
39420W        W 4680   8.707  13.548  12.474
39421W        W 4681  12.752  34.739  12.375
39422W        W 4682  21.282  39.383   1.254
39423W        W 4683  25.116  11.859   3.195
39424W        W 4684  44.435   6.438  10.905
39425W        W 4685  39.339  18.715   3.343
39426W        W 4686  12.744  30.040   0.176
39427W        W 4687   0.878  11.499  12.251
39428W        W 4688  25.235  33.155  12.045
39429W        W 4689  25.465  20.112  12.333
39430W        W 4690  31.183   7.919   3.588
39431W        W 4691  26.998  27.984  12.667
39432W        W 4692  14.081  26.228   1.882
39433W        W 4693  41.426   8.087  12.002
39434W        W 4694  43.309  22.691   0.545
39435W        W 4695  31.537  28.155  12.933
39436W        W 4696  36.906  36.520  12.067
39437W        W 4697  19.474  37.839  12.365
39438W        W 4698  12.079   9.919   1.370
39439W        W 4699  41.445   6.734  14.978
39440W        W 4700  10.347  42.955   2.652
39441W        W 4701  34.199   0.876  13.818
39442W        W 4702  34.389  22.080   0.670
39443W        W 4703   0.930   7.231  11.632
39444W        W 4704  43.514  17.484   1.282
39445W        W 4705  28.947  31.585  10.635
39446W        W 4706  18.594  11.170  11.548
39447W        W 4707  42.980  12.463  11.983
39448W        W 4708  34.382  37.333  14.936
39449W        W 4709  11.049  35.045  10.784
39450W        W 4710   5.415   6.881   4.298
39451W        W 4711  31.026  17.047   3.530
39452W        W 4712   9.746  43.792  13.547
39453W        W 4713  18.954  30.440  13.969
39454W        W 4714  15.620  34.585  12.146
39455W        W 4715   3.402  28.401   1.753
39456W        W 4716  23.748  15.633   0.379
39457W        W 4717  43.485  10.766  11.074
39458W        W 4718   2.572  25.658   0.616
39459W        W 4719  29.473  33.240   1.099
39460W        W 4720  30.688  33.587   0.418
39461W        W 4721  35.383   0.042   2.179
39462W        W 4722  23.795  39.027  11.990
39463W        W 4723   3.798   3.787  13.045
39464W        W 4724  19.085  39.909   4.839
39465W        W 4725  24.742  35.296  11.980
39466W        W 4726  25.448  10.370   0.661
39467W        W 4727  43.679   7.599  12.541
39468W        W 4728  25.673   4.230   3.728
39469W        W 4729  24.553  23.054   2.292
39470W        W 4730  17.720  39.032  12.848
39471W        W 4731   6.460  39.123   2.589
39472W        W 4732  19.543   7.402   2.344
39473W        W 4733  33.605   3.895  12.054
39474W        W 4734  18.236  42.369  12.916
39475W        W 4735  40.787  40.580   3.978
39476W        W 4736  20.607  25.019  11.781
39477W        W 4737  31.156  41.972   2.367
39478W        W 4738   8.405  17.219   0.486
39479W        W 4739   8.005   9.292   1.101
39480W        W 4740  35.461   6.729  11.956
39481W        W 4741  28.072   2.732  11.877
39482W        W 4742   2.337  28.163  14.305
39483W        W 4743  18.128  32.941  13.548
39484W        W 4744  15.045  14.626   4.067
39485W        W 4745  31.515  33.565  13.622
39486W        W 4746  14.611  20.816   4.200
39487W        W 4747  40.177  10.551  12.445
39488W        W 4748   7.073  35.004  14.877
39489W        W 4749   3.832  18.224  14.210
39490W        W 4750  36.522  16.579   1.800
39491W        W 4751  38.510   5.722   1.443
39492W        W 4752  33.802  33.004  12.428
39493W        W 4753  34.149  13.570  10.651
39494W        W 4754  31.450  42.864  10.213
39495W        W 4755  43.600  35.955   0.684
39496W        W 4756  11.157  33.648   3.117
39497W        W 4757  42.312  22.175   2.753
39498W        W 4758   2.357  28.363   0.389
39499W        W 4759  21.250  19.318  10.255
39500W        W 4760  12.751  30.163  13.323
39501W        W 4761  44.414  40.403  10.532
39502W        W 4762  39.945  33.931   2.051
39503W        W 4763   7.332  32.330   4.153
39504W        W 4764  33.385  31.447   0.260
39505W        W 4765  23.552  37.382   4.697
39506W        W 4766  10.805  36.337  14.800
39507W        W 4767  18.548  42.619   1.975
39508W        W 4768  28.227  37.451  11.419
39509W        W 4769  15.362  18.253   1.634
39510W        W 4770  41.841  31.422   2.526
39511W        W 4771  21.241   4.922  14.335
39512W        W 4772  35.591  42.846   2.711
39513W        W 4773  21.097  25.528  12.883
39514W        W 4774  17.435  40.341   2.729
39515W        W 4775   5.930   5.209  14.871
39516W        W 4776  19.500  17.842  12.519
39517W        W 4777  29.547   3.338  11.377
39518W        W 4778  44.987   6.623  10.509
39519W        W 4779  40.812  16.972   1.244
39520W        W 4780  41.933  24.055   2.675
39521W        W 4781   6.840  40.370  10.531
39522W        W 4782  11.531  39.952   1.376
39523W        W 4783  25.715  19.607  14.276
39524W        W 4784   7.646   2.002   0.369
39525W        W 4785   6.222  20.938  14.863
39526W        W 4786  44.832  23.342   4.677
39527W        W 4787  38.447  13.358   2.698
39528W        W 4788  25.006  30.382  11.885
39529W        W 4789  21.128  35.833   2.739
39530W        W 4790   7.401   1.679  12.729
39531W        W 4791   4.850  30.216   1.095
39532W        W 4792  24.985  11.208  12.089
39533W        W 4793   2.224  44.727  13.943
39534W        W 4794  14.749   6.660  10.664
39535W        W 4795  35.109   5.688  11.074
39536W        W 4796  34.429  43.477  10.348
39537W        W 4797   7.297  32.348  13.886
39538W        W 4798  10.644   9.027  11.900
39539W        W 4799  37.298  13.849   4.559
39540W        W 4800   5.488  16.258  12.717
39541W        W 4801   5.810   2.461  12.027
39542W        W 4802  40.252  13.337  11.135
39543W        W 4803  20.190  12.460  13.703
39544W        W 4804  12.653  27.774  13.008
39545W        W 4805  23.582  29.029  11.971
39546W        W 4806  40.533   8.694   1.244
39547W        W 4807   7.074  12.060  13.942
39548W        W 4808   4.957  17.968  14.930
39549W        W 4809  32.644  20.675   2.377
39550W        W 4810  41.602   1.678  10.291
39551W        W 4811   1.040  33.651  12.910
39552W        W 4812  36.322  27.420  13.642
39553W        W 4813  19.873   9.943  11.826
39554W        W 4814  11.895  40.048   3.354
39555W        W 4815   2.630  11.389  14.900
39556W        W 4816   1.461  29.415  14.068
39557W        W 4817   2.771  15.222   1.908
39558W        W 4818  36.929   1.131   0.259
39559W        W 4819  32.352   5.219   0.921
39560W        W 4820   4.233   7.853  13.919
39561W        W 4821  10.369  40.922   1.638
39562W        W 4822  10.854  25.716   0.731
39563W        W 4823   7.906  20.188   1.439
39564W        W 4824  25.253  21.593  11.718
39565W        W 4825  33.581  26.730  11.990
39566W        W 4826  39.808  33.569  13.441
39567W        W 4827  11.798  11.256   0.114
39568W        W 4828   8.132   6.312   4.801
39569W        W 4829  24.457  37.784   2.756
39570W        W 4830  37.966  24.510  11.453
39571W        W 4831  32.392  27.295  12.101
39572W        W 4832  33.951  17.875   2.109
39573W        W 4833  27.898  43.231  12.640
39574W        W 4834  12.738  26.495  14.845
39575W        W 4835  32.481   1.299   3.983
39576W        W 4836  10.744  25.500   3.120
39577W        W 4837   6.279  26.042   4.157
39578W        W 4838  26.791  17.157  11.567
39579W        W 4839  33.404  19.070  12.690
39580W        W 4840  13.887  12.352   2.629
39581W        W 4841  18.628  35.350   2.180
39582W        W 4842  11.112  35.441  12.583
39583W        W 4843  16.981  24.947  10.861
39584W        W 4844  27.251  14.754  13.557
39585W        W 4845  36.614  14.766   1.226
39586W        W 4846  27.519  28.417  11.026
39587W        W 4847  38.260  23.118  10.690
39588W        W 4848  25.577  39.243   0.927
39589W        W 4849   1.923  22.783  12.681
39590W        W 4850  44.251   8.210  14.020
39591W        W 4851  32.233  26.755   5.066
39592W        W 4852  23.207  13.218   3.553
39593W        W 4853  39.394   9.225  12.661
39594W        W 4854  24.936   8.731   0.897
39595W        W 4855  19.516  23.996   4.522
39596W        W 4856  42.455   2.188  11.421
39597W        W 4857  36.934  15.016   0.477
39598W        W 4858  11.641  43.513   2.910
39599W        W 4859  11.688   3.226   0.161
39600W        W 4860   3.940  32.184   3.664
39601W        W 4861  15.063  23.905   3.269
39602W        W 4862  19.099  10.888  14.337
39603W        W 4863  33.667  26.288   3.207
39604W        W 4864   8.305  31.396  12.392
39605W        W 4865  35.891  16.045   3.694
39606W        W 4866  42.524  33.299  12.820
39607W        W 4867  30.737  32.847  11.106
39608W        W 4868   4.958   2.486   2.134
39609W        W 4869  31.824  39.955   3.558
39610W        W 4870  24.996  32.717  12.869
39611W        W 4871  40.827  18.547  11.227
39612W        W 4872  18.363  25.525   4.625
39613W        W 4873  25.564  17.334   3.270
39614W        W 4874  24.328  13.352   0.914
39615W        W 4875  13.746  27.415  11.082
39616W        W 4876  21.844  41.098  14.086
39617W        W 4877  27.007   1.508   3.119
39618W        W 4878  36.324  23.284  10.474
39619W        W 4879   1.888  31.691  12.005
39620W        W 4880   1.772  40.217  12.512
39621W        W 4881  34.003  28.069  11.826
39622W        W 4882  40.311  41.098  10.006
39623W        W 4883  42.398   4.986  10.931
39624W        W 4884  13.227  19.000  11.751
39625W        W 4885   4.064  21.449   2.807
39626W        W 4886  34.064  44.558   1.444
39627W        W 4887  16.422  22.992  13.414
39628W        W 4888  27.779  42.856  14.527
39629W        W 4889  29.548   4.711  10.959
39630W        W 4890  21.678  30.488   3.647
39631W        W 4891  23.459  37.034  11.043
39632W        W 4892  19.708   2.524  11.350
39633W        W 4893  17.806   2.183   1.896
39634W        W 4894  25.716  15.608   4.044
39635W        W 4895  26.564   7.827   0.066
39636W        W 4896  36.791  31.634   3.872
39637W        W 4897   5.843  19.441  12.076
39638W        W 4898  26.767  19.764  11.592
39639W        W 4899  20.978  15.484   4.155
39640W        W 4900  33.342   7.710  12.968
39641W        W 4901  37.636  36.563   0.374
39642W        W 4902  14.945  40.965   4.810
39643W        W 4903  24.915  44.989   4.278
39644W        W 4904  16.057  33.462   4.146
39645W        W 4905  29.879  31.968   0.434
39646W        W 4906  22.504   9.383  14.946
39647W        W 4907  12.880   1.227   2.375
39648W        W 4908  32.537  42.932   3.160
39649W        W 4909   4.898  14.066  13.018
39650W        W 4910   0.995  43.254  14.387
39651W        W 4911   1.478  13.854  14.415
39652W        W 4912   5.111  42.779   3.783
39653W        W 4913  32.214  23.496   9.862
39654W        W 4914  43.306  40.904   2.245
39655W        W 4915  21.510  17.280  12.069
39656W        W 4916  11.040  33.639  10.497
39657W        W 4917   5.814  12.463   0.484
39658W        W 4918  23.066   4.982   0.671
39659W        W 4919  25.999   6.819   1.758
39660W        W 4920  35.994   6.203   2.907
39661W        W 4921  34.881  21.527  10.582
39662W        W 4922  24.649  11.400  12.647
39663W        W 4923  34.489  39.879  11.633
39664W        W 4924   8.926  25.816   0.470
39665W        W 4925   0.386  27.005   4.894
39666W        W 4926  40.335  31.507  14.916
39667W        W 4927  17.720  43.451   2.923
39668W        W 4928   3.279  27.153  14.063
39669W        W 4929   4.238  12.298  13.531
39670W        W 4930  23.809  43.213   0.149
39671W        W 4931  35.544  23.675   2.347
39672W        W 4932  32.894  34.926  12.812
39673W        W 4933  12.539   4.914  14.976
39674W        W 4934   2.940  23.085   1.381
39675W        W 4935  24.435  27.454  12.427
39676W        W 4936  34.925  37.658  14.937
39677W        W 4937  28.772  18.548   0.383
39678W        W 4938  24.994  11.167   0.245
39679W        W 4939  17.101  15.836  12.893
39680W        W 4940  29.048  26.448   1.800
39681W        W 4941  40.075  32.382  13.079
39682W        W 4942  36.084  29.038   4.214
39683W        W 4943  30.487  29.673  10.617
39684W        W 4944  12.694   0.359   1.637
39685W        W 4945   2.416  39.355  13.061
39686W        W 4946  29.626  37.247  14.725
39687W        W 4947  15.177  18.662  12.923
39688W        W 4948  14.080   5.928   1.531
39689W        W 4949   1.790  27.511   3.140
39690W        W 4950  27.218  28.073  11.267
39691W        W 4951  42.900   9.112   3.268
39692W        W 4952  20.859  38.442   1.394
39693W        W 4953  15.208  16.150   4.328
39694W        W 4954  11.529  19.104   0.484
39695W        W 4955  28.377  23.047  11.647
39696W        W 4956  27.766   7.016  11.650
39697W        W 4957  30.650  42.833   2.348
39698W        W 4958  38.102  28.941   4.130
39699W        W 4959  33.043  41.077   2.245
39700W        W 4960   5.900  26.735  10.123
39701W        W 4961  20.656  14.774   3.541
39702W        W 4962  25.652  12.351   2.253
39703W        W 4963  33.580  22.179  14.329
39704W        W 4964  10.329  14.664  11.160
39705W        W 4965  40.410   6.310  13.867
39706W        W 4966  22.872  40.257   0.421
39707W        W 4967  39.602  19.541   3.296
39708W        W 4968  13.943   0.238   0.456
39709W        W 4969  10.398  43.004   0.469
39710W        W 4970  29.045  40.399   2.738
39711W        W 4971  13.981  35.389   0.822
39712W        W 4972  30.390  21.763  12.972
39713W        W 4973  25.998  43.864   5.041
39714W        W 4974  38.461  31.990   0.260
39715W        W 4975  14.605  30.533   4.645
39716W        W 4976  31.440   5.408   4.740
39717W        W 4977  30.499  40.052   1.243
39718W        W 4978  37.992  20.271  13.961
39719W        W 4979  19.767   6.899   0.434
39720W        W 4980  31.136  44.850  11.587
39721W        W 4981  43.516  37.935  12.444
39722W        W 4982  44.994  32.439   4.173
39723W        W 4983  23.230  34.372  14.563
39724W        W 4984  15.356  39.833  13.534
39725W        W 4985   7.752   6.749  11.991
39726W        W 4986  44.445   5.913  13.476
39727W        W 4987  11.640  35.923  10.680
39728W        W 4988  34.668  15.833   3.370
39729W        W 4989   3.631  11.139  14.924
39730W        W 4990  27.999  22.692   0.838
39731W        W 4991  33.844   7.708   1.829
39732W        W 4992  12.849  22.241   1.354
39733W        W 4993  17.284  43.230   2.660
39734W        W 4994  18.570  13.818   4.971
39735W        W 4995   2.749  24.640   1.718
39736W        W 4996  30.599  32.239  13.040
39737W        W 4997  43.549  40.851   2.700
39738W        W 4998   0.262  15.396   5.808
39739W        W 4999  30.612  16.692  13.532
39740W        W 5000  26.884  19.973   4.535
39741W        W 5001  25.533   5.788   4.616
39742W        W 5002  10.269  33.864  12.537
39743W        W 5003  44.261   5.955  10.796
39744W        W 5004  27.041  40.991  12.676
39745W        W 5005  13.587  43.978  12.862
39746W        W 5006   5.099  11.172  14.496
39747W        W 5007  13.579  18.190  14.932
39748W        W 5008  19.050  22.766  11.995
39749W        W 5009  28.701  11.799  10.662
39750W        W 5010  30.063   0.273  12.901
39751W        W 5011  29.367  17.051  13.785
39752W        W 5012   1.274  38.384  13.035
39753W        W 5013  18.655  22.884   2.240
39754W        W 5014  40.304  25.123  10.728
39755W        W 5015  41.279  39.534  10.863
39756W        W 5016  18.612  13.257  12.537
39757W        W 5017  31.718  22.241  10.629
39758W        W 5018  34.865  37.418   1.720
39759W        W 5019  19.707   5.720  11.527
39760W        W 5020  23.958   3.147   2.134
39761W        W 5021  20.173  13.606  11.609
39762W        W 5022  20.493  11.184  14.337
39763W        W 5023  17.334  39.063   0.551
39764W        W 5024  31.394  44.892  12.023
39765W        W 5025   5.322  44.796  10.831
39766W        W 5026  30.139  34.966   1.862
39767W        W 5027  18.045  18.098   1.692
39768W        W 5028  25.555  19.118  14.311
39769W        W 5029  33.844  18.416  14.354
39770W        W 5030  32.464  15.206   4.788
39771W        W 5031  38.749  31.209   1.784
39772W        W 5032   8.788  24.592   1.837
39773W        W 5033   6.592   8.500  12.643
39774W        W 5034  11.827  31.804   0.393
39775W        W 5035   1.471  41.531   1.459
39776W        W 5036  33.193  17.008   2.731
39777W        W 5037   6.396  25.478  11.006
39778W        W 5038   7.432  43.011   0.220
39779W        W 5039  16.611  42.448  13.338
39780W        W 5040  44.256  29.411  13.690
39781W        W 5041  13.220  36.399   2.861
39782W        W 5042   6.229  40.796   0.867
39783W        W 5043  41.204  11.888   1.403
39784W        W 5044  31.124  31.576  11.871
39785W        W 5045  14.858  40.307  14.057
39786W        W 5046  26.610  40.359  14.022
39787W        W 5047  10.864  41.284   3.071
39788W        W 5048  10.913  29.155   5.410
39789W        W 5049  24.130  22.103   0.988
39790W        W 5050  31.328   4.976   0.815
39791W        W 5051  22.469  17.106  10.992
39792W        W 5052  33.376  12.083   2.716
39793W        W 5053  33.992  34.583   0.288
39794W        W 5054  25.866   4.899   9.601
39795W        W 5055  27.468  18.237   0.224
39796W        W 5056  34.533  13.289  12.995
39797W        W 5057  17.778  29.915  11.918
39798W        W 5058  14.075   3.403   2.592
39799W        W 5059  29.937  13.311   3.292
39800W        W 5060   2.381  36.467  13.609
39801W        W 5061  25.057   4.284   3.148
39802W        W 5062  13.341  13.887  10.772
39803W        W 5063   9.134  16.866  12.481
39804W        W 5064   4.980  27.158   0.887
39805W        W 5065  13.571  31.330   1.303
39806W        W 5066   6.408  15.558   1.331
39807W        W 5067  13.690  23.989  10.698
39808W        W 5068  14.100  29.654  14.397
39809W        W 5069  14.277  12.542  11.203
39810W        W 5070  23.996  16.037   1.719
39811W        W 5071  17.206  12.552  12.113
39812W        W 5072  25.531  26.127  10.638
39813W        W 5073   1.325  34.507   3.333
39814W        W 5074  10.949  18.011   3.693
39815W        W 5075   9.393   3.944  14.383
39816W        W 5076   9.192   2.852  10.573
39817W        W 5077  19.726  18.436   3.256
39818W        W 5078  35.561  28.356   3.348
39819W        W 5079  38.554  14.963  14.568
39820W        W 5080  10.668   7.878   1.739
39821W        W 5081  22.563  34.859   5.384
39822W        W 5082  15.781  23.153   4.552
39823W        W 5083   1.246  41.037   0.356
39824W        W 5084  14.598  13.619   2.745
39825W        W 5085   7.881   6.951  14.234
39826W        W 5086  41.913   9.926  13.079
39827W        W 5087  25.717  19.298  13.850
39828W        W 5088  21.599  18.048  14.456
39829W        W 5089   1.785  26.682   1.832
39830W        W 5090  13.240  43.438   3.163
39831W        W 5091  15.698  40.431  12.470
39832W        W 5092  28.681  36.013   4.541
39833W        W 5093  41.917   6.643   0.492
39834W        W 5094  37.328  33.594  11.303
39835W        W 5095  12.983  20.163   5.002
39836W        W 5096   4.363   3.392   1.383
39837W        W 5097  36.027  11.773   2.885
39838W        W 5098   8.822  43.965  14.689
39839W        W 5099  34.522  37.518   3.065
39840W        W 5100   4.101   8.117  11.204
39841W        W 5101  26.495  38.595  10.614
39842W        W 5102  33.478  18.008  10.329
39843W        W 5103  12.367  15.362   4.165
39844W        W 5104  18.603  32.503  13.901
39845W        W 5105  19.646  27.391   1.269
39846W        W 5106  23.427  42.426   0.180
39847W        W 5107   2.563  32.634  10.999
39848W        W 5108   2.285  44.905   2.143
39849W        W 5109  36.311  12.256   3.831
39850W        W 5110  41.534   9.117   4.488
39851W        W 5111  28.651  32.300   4.306
39852W        W 5112  24.723  32.466   4.379
39853W        W 5113   7.336  11.221  12.865
39854W        W 5114  15.144   8.885  11.044
39855W        W 5115   4.831  13.894   3.323
39856W        W 5116  32.060  28.944  14.029
39857W        W 5117   2.805  25.996  14.511
39858W        W 5118  12.322   1.015   0.224
39859W        W 5119  12.289  41.349  14.371
39860W        W 5120  14.813  27.325  14.301
39861W        W 5121  15.243   7.203   2.669
39862W        W 5122   2.323   3.842   0.145
39863W        W 5123  21.144  27.735   3.832
39864W        W 5124  14.411  24.829  11.538
39865W        W 5125  42.676  10.505  11.458
39866W        W 5126  21.632  42.785   2.377
39867W        W 5127  31.502  16.285   0.727
39868W        W 5128   2.845   5.264   3.396
39869W        W 5129  35.988  18.755  11.600
39870W        W 5130  34.278   9.531  12.016
39871W        W 5131  44.753  12.660  10.837
39872W        W 5132  33.833  33.688  13.622
39873W        W 5133  39.601  32.190  10.648
39874W        W 5134  11.928  26.626  12.051
39875W        W 5135   1.227  29.949   1.282
39876W        W 5136  14.543  42.081   1.801
39877W        W 5137  16.589  26.082  14.884
39878W        W 5138  28.300  33.561  10.400
39879W        W 5139  21.558  33.529   2.765
39880W        W 5140   9.330  37.596   4.957
39881W        W 5141  16.012  27.044   4.609
39882W        W 5142   6.548   1.712   1.786
39883W        W 5143  24.220  12.688   2.382
39884W        W 5144  33.075  39.366   2.889
39885W        W 5145  37.380  19.602  11.683
39886W        W 5146  38.440   3.619   2.666
39887W        W 5147  15.129  10.194   1.454
39888W        W 5148  13.352  16.751  10.593
39889W        W 5149  28.473  18.772   1.609
39890W        W 5150  20.052  41.370   4.393
39891W        W 5151  27.610   1.273  13.108
39892W        W 5152  36.359  33.521  11.988
39893W        W 5153  14.199  25.763   0.959
39894W        W 5154  41.756  13.126  13.354
39895W        W 5155  25.198  32.514   2.810
39896W        W 5156  26.835   0.521   0.362
39897W        W 5157  38.547  15.767  14.929
39898W        W 5158  25.022  29.260   1.844
39899W        W 5159   7.615  10.162  11.613
39900W        W 5160  15.688  13.234   1.401
39901W        W 5161   3.265  25.537   3.357
39902W        W 5162  20.998  32.890   0.395
39903W        W 5163  26.316   6.247  12.161
39904W        W 5164  32.832  36.567  10.734
39905W        W 5165  16.540   1.482   2.746
39906W        W 5166  27.973   5.735   4.902
39907W        W 5167  36.397  40.693  10.861
39908W        W 5168  19.779   1.661   0.891
39909W        W 5169  44.357  13.842   1.708
39910W        W 5170  32.909  20.781   1.470
39911W        W 5171  35.564  37.358  12.706
39912W        W 5172  38.647  16.130  13.830
39913W        W 5173  15.379   1.659  12.629
39914W        W 5174  35.511  39.051   0.684
39915W        W 5175  11.982  27.968  10.174
39916W        W 5176  13.525  27.703  12.979
39917W        W 5177  25.581  29.719  14.263
39918W        W 5178  31.173   7.021   3.636
39919W        W 5179  35.059  17.576   2.117
39920W        W 5180  15.186  39.976   1.029
39921W        W 5181  20.779   5.348   4.238
39922W        W 5182  30.959  41.454  11.792
39923W        W 5183  14.274  27.020   3.274
39924W        W 5184  23.845  35.301  12.578
39925W        W 5185  23.960   4.730  13.966
39926W        W 5186  12.124  33.253   0.893
39927W        W 5187   0.789  42.035   2.603
39928W        W 5188  16.052  37.410  14.551
39929W        W 5189   6.173  12.469  11.805
39930W        W 5190  37.585   3.941   4.941
39931W        W 5191  21.235  40.774   2.236
39932W        W 5192  32.096  13.127  13.935
39933W        W 5193  22.019  30.904   3.344
39934W        W 5194  41.128  21.795   4.864
39935W        W 5195  10.038  39.421  13.393
39936W        W 5196  11.174   0.153   0.978
39937W        W 5197   5.774  27.967   1.287
39938W        W 5198  18.114  27.125   3.875
39939W        W 5199   9.192  22.611  11.011
39940W        W 5200  27.641  32.417  11.545
39941W        W 5201   8.060  38.916   5.362
39942W        W 5202   2.382  44.416   3.865
39943W        W 5203  15.375   2.270  12.837
39944W        W 5204   0.440  20.038   0.815
39945W        W 5205  40.696   3.405  10.664
39946W        W 5206   2.156  17.074   4.573
39947W        W 5207  19.597  21.473  12.101
39948W        W 5208  40.307  39.789   1.156
39949W        W 5209  11.515  36.679   2.363
39950W        W 5210  44.536  39.975  14.531
39951W        W 5211   3.059   4.669   3.222
39952W        W 5212  36.525  31.440  12.714
39953W        W 5213  41.322  37.446  10.041
39954W        W 5214  44.225   5.321   3.624
39955W        W 5215  36.449  21.347  12.159
39956W        W 5216  24.726  32.620  14.129
39957W        W 5217  33.087  27.589  11.534
39958W        W 5218  10.041  28.549   0.899
39959W        W 5219  43.965   6.903   3.166
39960W        W 5220  26.962  44.955   1.824
39961W        W 5221  18.065  35.400   2.788
39962W        W 5222  41.824  24.951   5.115
39963W        W 5223  13.828  39.290   2.850
39964W        W 5224  36.928  30.655  11.200
39965W        W 5225  21.500  16.963   1.124
39966W        W 5226  44.294  15.143   2.854
39967W        W 5227  10.884   1.471  13.715
39968W        W 5228   6.376  33.196  12.391
39969W        W 5229   4.433  14.832  13.439
39970W        W 5230  30.607  42.797   3.252
39971W        W 5231  17.257  17.134  11.561
39972W        W 5232  32.673  44.366   4.144
39973W        W 5233  12.208  43.286   1.900
39974W        W 5234  26.978  41.529  14.589
39975W        W 5235  44.315  38.558  14.093
39976W        W 5236  28.456  16.499   1.304
39977W        W 5237   4.146  39.589   4.196
39978W        W 5238   0.881   0.093   2.834
39979W        W 5239  23.976   9.662  12.909
39980W        W 5240  21.084  28.418   3.277
39981W        W 5241  14.061  39.942  14.506
39982W        W 5242  26.679  27.695  12.957
39983W        W 5243  35.311  34.440   2.711
39984W        W 5244  37.814  33.606  13.736
39985W        W 5245   4.215  14.561   1.024
39986W        W 5246  40.514  15.695   3.784
39987W        W 5247  14.919   6.802   1.720
39988W        W 5248  30.593  22.714   1.316
39989W        W 5249   8.695  36.384  14.285
39990W        W 5250  13.084  13.689   4.137
39991W        W 5251  11.480  41.991   4.605
39992W        W 5252  11.923   4.792  12.533
39993W        W 5253  40.862  24.204   1.275
39994W        W 5254  44.994  30.153  14.566
39995W        W 5255  43.296  44.491   4.000
39996W        W 5256  11.563  37.582   0.901
39997W        W 5257   0.023  37.903   2.361
39998W        W 5258  10.416  25.958  12.043
39999W        W 5259  11.866  40.184   0.037
40000W        W 5260  41.730  34.713   1.289
40001W        W 5261  14.107  39.424   3.309
40002W        W 5262   0.306  14.291   3.225
40003W        W 5263  29.551   6.278   1.985
40004W        W 5264   3.894  41.585   2.222
40005W        W 5265  15.178  41.104  14.227
40006W        W 5266  13.355  37.409  13.141
40007W        W 5267  42.628  33.589  11.863
40008W        W 5268  27.187  18.962  13.886
40009W        W 5269  14.813  35.778   2.871
40010W        W 5270   7.807   8.198  10.682
40011W        W 5271  40.547  25.004  14.257
40012W        W 5272  25.662  42.427   1.726
40013W        W 5273   3.649  39.829   3.384
40014W        W 5274  31.506  31.056   1.787
40015W        W 5275  36.871  16.179  10.658
40016W        W 5276   4.473  13.131   1.400
40017W        W 5277  39.457   9.418  12.187
40018W        W 5278  21.749  11.577  13.934
40019W        W 5279  10.924  26.505  12.103
40020W        W 5280  10.468  36.957   2.321
40021W        W 5281  13.779   0.357   3.243
40022W        W 5282   5.333  22.166  12.099
40023W        W 5283  22.503  32.091  11.742
40024W        W 5284  18.772  36.540   0.003
40025W        W 5285  43.367   9.881  13.760
40026W        W 5286   3.962   9.590  12.707
40027W        W 5287  23.003  29.485  13.432
40028W        W 5288  20.721  44.445  10.498
40029W        W 5289   3.767  36.599  11.544
40030W        W 5290  35.823  35.030  12.617
40031W        W 5291  32.664  32.481  13.928
40032W        W 5292  38.042  34.875   1.742
40033W        W 5293  40.872  38.743  11.250
40034W        W 5294   2.817  33.567  14.864
40035W        W 5295  35.084  33.526   2.383
40036W        W 5296  19.076  42.550  11.376
40037W        W 5297  20.677  22.586   1.758
40038W        W 5298   1.251  14.418  11.467
40039W        W 5299  31.065   3.159  10.792
40040W        W 5300   1.492   1.705   0.870
40041W        W 5301  18.756  41.570  11.564
40042W        W 5302   7.536  19.521  11.505
40043W        W 5303  34.781  12.264  12.555
40044W        W 5304  40.616  21.725  13.398
40045W        W 5305  29.247   0.053   3.554
40046W        W 5306   6.641  24.470   1.215
40047W        W 5307  40.482  17.733   3.671
40048W        W 5308  21.072  22.925   1.856
40049W        W 5309   7.333  12.739   0.397
40050W        W 5310   1.896   6.517  10.706
40051W        W 5311  10.730   1.042   1.304
40052W        W 5312  18.508  38.481   3.146
40053W        W 5313  15.325  10.552   4.105
40054W        W 5314  30.649   4.204  13.650
40055W        W 5315  23.021  16.728  11.602
40056W        W 5316   1.005  32.036  14.439
40057W        W 5317  16.273  22.025  12.961
40058W        W 5318  12.407   9.741   1.788
40059W        W 5319  19.448  38.052   4.083
40060W        W 5320  27.295   5.868   1.245
40061W        W 5321   5.195  16.377  12.015
40062W        W 5322   5.385  23.711  10.642
40063W        W 5323  17.062   9.911  11.810
40064W        W 5324  14.199  19.814  13.395
40065W        W 5325  44.799   4.889   2.850
40066W        W 5326  26.185  11.306   1.797
40067W        W 5327   3.338  31.417  14.925
40068W        W 5328  29.102  10.526   4.607
40069W        W 5329  14.806  28.398  11.242
40070W        W 5330  19.551  15.073  11.607
40071W        W 5331  15.536  25.138   3.120
40072W        W 5332  22.042  26.548  12.909
40073W        W 5333  21.339  38.886   0.734
40074W        W 5334  17.623  15.666  10.685
40075W        W 5335  16.035  40.919   1.744
40076W        W 5336  35.421   7.387   3.638
40077W        W 5337  10.218  23.818   2.199
40078W        W 5338  21.722  43.006   2.846
40079W        W 5339  39.858  26.616   1.090
40080W        W 5340  10.095  36.193   4.492
40081W        W 5341  23.963   3.103  10.586
40082W        W 5342  17.511  19.693  14.128
40083W        W 5343   6.860  29.225  14.329
40084W        W 5344  13.353  13.098   1.499
40085W        W 5345  14.742   8.812  11.848
40086W        W 5346   9.074   4.138  11.524
40087W        W 5347  18.351  24.150   0.307
40088W        W 5348  34.126  37.154   0.378
40089W        W 5349   0.349  23.436   1.790
40090W        W 5350  21.446  30.939  11.928
40091W        W 5351  43.217   2.389   1.346
40092W        W 5352  24.232   9.376  11.657
40093W        W 5353  26.493  43.202   2.804
40094W        W 5354   8.125  17.338  13.279
40095W        W 5355  15.699  38.767   0.347
40096W        W 5356  25.019   0.230  11.622
40097W        W 5357   9.378  10.723  11.686
40098W        W 5358  42.465  42.060  13.865
40099W        W 5359  27.454   4.046  14.100
40100W        W 5360   6.286   0.525  12.625
40101W        W 5361   1.430  32.357  14.516
40102W        W 5362  19.683  33.083  12.048
40103W        W 5363  27.576  10.667  14.405
40104W        W 5364  27.547  40.067  12.984
40105W        W 5365   0.934  28.929  14.131
40106W        W 5366  12.542  34.156   2.250
40107W        W 5367   7.214  44.361  13.998
40108W        W 5368  11.799  14.020  11.546
40109W        W 5369  22.178  43.665   3.679
40110W        W 5370  33.918  31.512   4.155
40111W        W 5371  22.645   7.929   5.010
40112W        W 5372  13.071  15.246   3.468
40113W        W 5373  27.247   5.721  10.642
40114W        W 5374   1.514  36.036   4.692
40115W        W 5375  42.347   4.261  13.979
40116W        W 5376  33.989  13.767  11.121
40117W        W 5377  42.931  38.910  10.650
40118W        W 5378  21.130   0.235   2.729
40119W        W 5379  19.605   9.621   0.217
40120W        W 5380  39.451  25.726   3.978
40121W        W 5381  27.440  15.294  13.748
40122W        W 5382   3.215  27.206   2.387
40123W        W 5383  12.300  24.721   2.213
40124W        W 5384   2.354  32.115  10.800
40125W        W 5385  11.386   8.659   5.179
40126W        W 5386   7.184   8.270   4.150
40127W        W 5387  31.534  35.614  13.885
40128W        W 5388  24.589  35.453  14.826
40129W        W 5389  27.581  35.403  13.758
40130W        W 5390  14.382   6.864   5.052
40131W        W 5391  16.795  32.329  14.427
40132W        W 5392  39.931  38.012   0.245
40133W        W 5393  32.804  30.987   3.136
40134W        W 5394  23.104  34.828  13.143
40135W        W 5395  16.659   1.048   0.686
40136W        W 5396   3.204  37.095   2.098
40137W        W 5397  41.700   7.465   1.235
40138W        W 5398  32.878  25.139   1.428
40139W        W 5399  29.713  40.426  14.888
40140W        W 5400   0.670  42.285   4.621
40141W        W 5401  35.711  15.241   1.891
40142W        W 5402  18.467  31.676  10.059
40143W        W 5403   4.859  39.122   2.185
40144W        W 5404  32.699  28.657   0.915
40145W        W 5405  26.564  20.866   0.873
40146W        W 5406   8.538  13.739   0.339
40147W        W 5407   4.392  24.016   0.268
40148W        W 5408  32.949  37.998   0.056
40149W        W 5409   9.045  38.469  12.370
40150W        W 5410  21.640  19.618   0.216
40151W        W 5411  10.590  16.768  13.380
40152W        W 5412   5.230  40.910   1.003
40153W        W 5413   0.410  23.531  12.442
40154W        W 5414  38.880  33.818  14.453
40155W        W 5415  35.453  40.302  11.804
40156W        W 5416  28.232  24.820   0.892
40157W        W 5417   7.208  11.663  10.661
40158W        W 5418  22.246  30.739   0.235
40159W        W 5419  32.017   7.920  11.588
40160W        W 5420  30.657  13.839   1.115
40161W        W 5421  27.563  37.620  10.740
40162W        W 5422  10.944  13.049   2.878
40163W        W 5423  27.691   3.824  12.363
40164W        W 5424  33.041  22.688  10.967
40165W        W 5425  40.591  13.118   5.067
40166W        W 5426   4.373  17.049   4.497
40167W        W 5427   0.258  20.606   4.766
40168W        W 5428  34.643  35.966   1.919
40169W        W 5429  29.504  42.417   0.180
40170W        W 5430  26.108  36.597   2.193
40171W        W 5431  26.513  42.036  12.407
40172W        W 5432  16.173  40.452  12.216
40173W        W 5433   1.644  20.721   4.565
40174W        W 5434   2.278  40.358   3.695
40175W        W 5435   5.468  39.423   1.902
40176W        W 5436  12.049  44.701   9.878
40177W        W 5437   4.195  17.803  12.166
40178W        W 5438  13.787  21.449  12.951
40179W        W 5439  30.727   5.249  11.466
40180W        W 5440  21.449  41.819   3.159
40181W        W 5441   9.421  26.901  12.035
40182W        W 5442  42.962   0.444  12.905
40183W        W 5443  13.503  37.387  14.877
40184W        W 5444  31.123  20.275  11.554
40185W        W 5445   0.579  13.600  12.436
40186W        W 5446  29.474  43.426   3.361
40187W        W 5447  32.003  15.028   2.177
40188W        W 5448  41.874   5.512  13.709
40189W        W 5449  41.916   7.939   0.890
40190W        W 5450  23.693  29.695   2.423
40191W        W 5451   4.796   2.342   0.375
40192W        W 5452  29.002  20.011  11.622
40193W        W 5453  37.344   2.441  12.374
40194W        W 5454  17.866  18.467   0.214
40195W        W 5455   3.874   9.194  14.632
40196W        W 5456  32.159   5.750   3.762
40197W        W 5457  15.177  43.434   3.145
40198W        W 5458  19.723  39.593   2.701
40199W        W 5459   3.662  43.229   3.288
40200W        W 5460   2.922  12.868   0.970
40201W        W 5461  34.285  29.625  12.977
40202W        W 5462   3.113  18.788   3.796
40203W        W 5463  12.902  14.220  13.533
40204W        W 5464  18.296  28.642  12.388
40205W        W 5465  19.511  36.366  13.000
40206W        W 5466  26.032  18.167   3.097
40207W        W 5467   0.907  34.926  11.575
40208W        W 5468  40.789  39.824   3.758
40209W        W 5469   4.723  43.411   1.289
40210W        W 5470  20.114  32.600   0.926
40211W        W 5471  39.521   6.862   0.392
40212W        W 5472   9.161  26.062  11.602
40213W        W 5473  39.333   6.271  11.975
40214W        W 5474  27.896  13.660  13.579
40215W        W 5475  33.063  21.536  14.751
40216W        W 5476   5.658  30.048   0.824
40217W        W 5477  12.170  39.969  10.537
40218W        W 5478  10.803   2.989  10.496
40219W        W 5479  23.178  39.790   4.544
40220W        W 5480  27.041  25.097   0.423
40221W        W 5481   3.956  43.292  12.217
40222W        W 5482  12.651  20.629   2.711
40223W        W 5483  33.984  23.690   2.634
40224W        W 5484  28.250  30.143  11.928
40225W        W 5485  20.293   5.438   2.764
40226W        W 5486  39.001  37.915  10.594
40227W        W 5487  36.648  43.174   1.293
40228W        W 5488   6.841  39.439   2.428
40229W        W 5489  44.400  15.773   4.663
40230W        W 5490   0.626  29.359  11.556
40231W        W 5491  41.708  18.069   0.395
40232W        W 5492  17.021   6.799  12.952
40233W        W 5493  41.050  22.294  11.946
40234W        W 5494  13.618   8.349   5.028
40235W        W 5495   3.279  42.865   2.636
40236W        W 5496  44.084   1.647  13.310
40237W        W 5497  25.223   3.121  13.767
40238W        W 5498  33.363  22.512  13.885
40239W        W 5499  11.798   8.791   4.306
40240W        W 5500  33.348  21.720   1.675
40241W        W 5501  34.985  13.099  13.089
40242W        W 5502   4.121   4.897   3.909
40243W        W 5503   5.393  12.276   1.803
40244W        W 5504  29.901   0.726  12.559
40245W        W 5505   2.672  32.270   1.135
40246W        W 5506  10.367   5.733  11.107
40247W        W 5507   1.026  24.651   2.781
40248W        W 5508  28.745   2.710   0.352
40249W        W 5509  32.978  33.511   1.924
40250W        W 5510  26.655  39.585  10.665
40251W        W 5511  23.651  33.917   4.858
40252W        W 5512   2.473  26.654  12.889
40253W        W 5513  11.475  25.666  10.100
40254W        W 5514   7.960  41.022   4.572
40255W        W 5515  18.824  34.470  12.868
40256W        W 5516  41.067   4.564   3.078
40257W        W 5517  38.757  32.285   0.996
40258W        W 5518  19.571   6.149  12.630
40259W        W 5519  33.009  23.344   1.418
40260W        W 5520  29.321   6.896  13.391
40261W        W 5521  25.006  11.369  13.925
40262W        W 5522  35.374  28.002  14.476
40263W        W 5523  26.236  22.047  13.442
40264W        W 5524   7.322  15.816  14.328
40265W        W 5525   3.874  15.182   3.340
40266W        W 5526  43.506  34.598   1.927
40267W        W 5527   6.351  24.496   1.666
40268W        W 5528  24.194  26.756   3.484
40269W        W 5529  40.360   7.638  13.324
40270W        W 5530  20.835   1.649   4.240
40271W        W 5531   7.754  26.519   1.411
40272W        W 5532   2.878  36.831   2.412
40273W        W 5533  33.950  25.303   0.681
40274W        W 5534  14.258  25.170  13.567
40275W        W 5535  34.961  14.407  11.094
40276W        W 5536  15.250  11.947   3.885
40277W        W 5537  13.061  19.211   2.297
40278W        W 5538  14.285  32.400   1.987
40279W        W 5539  41.270   6.250  14.823
40280W        W 5540  31.461  30.952   0.448
40281W        W 5541  16.122  32.619   3.699
40282W        W 5542  44.551  22.498   4.150
40283W        W 5543  36.735  34.652  13.232
40284W        W 5544   2.010   0.990   4.806
40285W        W 5545   8.739   8.254  13.320
40286W        W 5546   3.279  39.141   2.783
40287W        W 5547   5.312  30.246   0.301
40288W        W 5548  19.070   4.640  12.060
40289W        W 5549  14.865  15.475  12.281
40290W        W 5550   7.273  24.086  12.592
40291W        W 5551   0.243  36.057  12.812
40292W        W 5552  24.958   8.509  11.202
40293W        W 5553  26.295  36.796   9.956
40294W        W 5554  37.157  16.716   1.217
40295W        W 5555  29.050  36.989  13.603
40296W        W 5556   1.942  10.250   4.094
40297W        W 5557  24.766  27.984  10.511
40298W        W 5558   5.816  17.592  13.042
40299W        W 5559   5.843  15.004   1.681
40300W        W 5560  40.498  30.665  13.325
40301W        W 5561   0.787  39.401   2.271
40302W        W 5562  24.973  28.048  11.655
40303W        W 5563  40.606  39.758  14.786
40304W        W 5564  24.289  27.960  14.289
40305W        W 5565  17.019   7.636   1.708
40306W        W 5566  43.437  17.762   4.037
40307W        W 5567  19.424  24.945  12.104
40308W        W 5568   4.964  34.748  13.758
40309W        W 5569   1.283  31.049  10.481
40310W        W 5570  10.731  25.691   2.625
40311W        W 5571  32.043  27.482   2.573
40312W        W 5572  20.971  14.839  12.986
40313W        W 5573  38.875  40.336  11.521
40314W        W 5574  23.091  13.792   2.211
40315W        W 5575  20.699  41.631  14.230
40316W        W 5576  38.233   0.926   2.565
40317W        W 5577  19.243   5.591   1.315
40318W        W 5578  33.063   7.155  11.583
40319W        W 5579  20.211  24.529  14.469
40320W        W 5580  10.516   2.741  14.756
40321W        W 5581  43.027  43.601   1.010
40322W        W 5582  37.520  30.005  13.341
40323W        W 5583  10.200  23.131  11.857
40324W        W 5584  30.862  24.566   2.898
40325W        W 5585   8.200  43.350  13.333
40326W        W 5586  16.588  29.500   2.764
40327W        W 5587  14.616  13.570   0.704
40328W        W 5588  44.453  21.632  12.605
40329W        W 5589  30.725  20.247   2.260
40330W        W 5590  44.504   9.741   4.670
40331W        W 5591  35.067  13.538  13.488
40332W        W 5592  23.237  16.184  12.494
40333W        W 5593  42.346  37.605  14.032
40334W        W 5594   1.747  17.714   3.187
40335W        W 5595  23.570  12.114  13.039
40336W        W 5596  40.723   0.461  14.804
40337W        W 5597  39.714  40.555  14.800
40338W        W 5598  22.303  41.672  14.859
40339W        W 5599  36.585  22.679  11.159
40340W        W 5600   7.459  41.030  13.897
40341W        W 5601  38.442  17.191   1.892
40342W        W 5602  27.212  37.367  14.503
40343W        W 5603   9.386   3.309  13.094
40344W        W 5604  30.946  31.027   3.344
40345W        W 5605   1.586  28.534   1.032
40346W        W 5606   3.145  33.384   3.362
40347W        W 5607  33.078   2.814   4.804
40348W        W 5608  33.148  23.775  12.859
40349W        W 5609  10.814  19.068  13.348
40350W        W 5610  34.660  20.247  14.950
40351W        W 5611  30.545  30.386   3.529
40352W        W 5612  41.472  13.414   1.368
40353W        W 5613   9.807  27.881   2.690
40354W        W 5614   6.707  26.641  13.183
40355W        W 5615  40.959  42.228   1.381
40356W        W 5616  22.990  15.846   9.414
40357W        W 5617  42.649  18.412  13.358
40358W        W 5618   3.605  12.129  10.813
40359W        W 5619   8.659  41.716  11.048
40360W        W 5620  34.965  17.498  13.735
40361W        W 5621  42.893   9.947   3.629
40362W        W 5622  42.819  20.674  13.525
40363W        W 5623  15.015  28.931   3.897
40364W        W 5624  19.205  14.615  11.470
40365W        W 5625  42.703  34.801   4.118
40366W        W 5626  18.679   6.937  13.100
40367W        W 5627  16.108  22.662   2.680
40368W        W 5628  16.720  44.632   4.477
40369W        W 5629  17.232  18.102  11.640
40370W        W 5630  35.005   8.611  13.399
40371W        W 5631  25.257  19.042  13.841
40372W        W 5632  16.561  42.849   2.144
40373W        W 5633  28.475  25.155  13.089
40374W        W 5634  39.061  42.113  11.058
40375W        W 5635  26.997  39.266  13.945
40376W        W 5636  32.515  25.204   0.478
40377W        W 5637  13.850  14.437  13.495
40378W        W 5638   2.708   6.532   4.643
40379W        W 5639   6.019  44.366   2.880
40380W        W 5640  29.277   9.183  13.431
40381W        W 5641  13.739  40.052  10.975
40382W        W 5642  27.946  35.997   0.474
40383W        W 5643   9.604  10.232   0.698
40384W        W 5644  12.653  13.428   4.062
40385W        W 5645  29.895   5.151   4.707
40386W        W 5646   2.659  28.719  12.478
40387W        W 5647  10.586   8.368   0.897
40388W        W 5648  34.673  14.779   2.301
40389W        W 5649  26.654  30.629   4.618
40390W        W 5650  29.385  23.562   1.207
40391W        W 5651   9.816  39.913   0.239
40392W        W 5652  14.933   3.424   1.427
40393W        W 5653  24.294  32.701  12.430
40394W        W 5654   9.092  42.829   3.288
40395W        W 5655  43.960  28.578  12.435
40396W        W 5656  13.551  26.652   4.640
40397W        W 5657  36.678  29.090  11.943
40398W        W 5658   4.863  21.745   1.174
40399W        W 5659  37.056  30.967   0.820
40400W        W 5660  26.191  12.257   2.951
40401W        W 5661  13.324   9.877  11.612
40402W        W 5662   7.667  16.611   1.441
40403W        W 5663  17.339  38.561   0.412
40404W        W 5664  30.922  34.264  14.805
40405W        W 5665  25.201  30.570   2.255
40406W        W 5666   9.115  19.499   0.428
40407W        W 5667  27.701  31.126  10.790
40408W        W 5668   8.114  42.018  14.598
40409W        W 5669  33.067  38.158  11.397
40410W        W 5670  37.944  38.801   1.784
40411W        W 5671  16.443  18.476  11.904
40412W        W 5672   3.837   5.447  13.630
40413W        W 5673  21.255  24.961   0.017
40414W        W 5674  36.948  26.280  14.159
40415W        W 5675   2.865  12.665  13.926
40416W        W 5676  32.160   8.851   2.172
40417W        W 5677  16.348  25.487  13.810
40418W        W 5678  33.370  24.427  10.744
40419W        W 5679  20.196   8.926  11.655
40420W        W 5680  11.467  17.989   1.135
40421W        W 5681  21.189   5.536   1.114
40422W        W 5682  41.478  30.714   1.179
40423W        W 5683  16.812  12.674  13.003
40424W        W 5684  19.136  30.642  14.409
40425W        W 5685   6.254  42.399  13.850
40426W        W 5686   7.596  33.940   1.423
40427W        W 5687   9.938   4.890  12.135
40428W        W 5688  38.339  18.615  12.092
40429W        W 5689  21.051  21.066  14.272
40430W        W 5690  19.106   5.051  14.511
40431W        W 5691  41.741  22.844  12.072
40432W        W 5692  19.038  18.982   3.592
40433W        W 5693  44.408  23.870  12.079
40434W        W 5694   5.721   9.897  11.520
40435W        W 5695  34.107  18.715   3.229
40436W        W 5696  44.525  11.859   2.333
40437W        W 5697  41.294  21.639  14.930
40438W        W 5698  16.615  32.538  11.118
40439W        W 5699  36.285  26.754  11.188
40440W        W 5700  30.050  16.760  11.921
40441W        W 5701  29.100  27.163   4.927
40442W        W 5702   1.636  28.601   2.836
40443W        W 5703  28.599   6.273  14.686
40444W        W 5704  14.153  35.933   0.481
40445W        W 5705  24.907   3.200   0.851
40446W        W 5706  44.452  25.500  14.237
40447W        W 5707  18.366  30.316   2.897
40448W        W 5708  30.520  41.968  13.258
40449W        W 5709  14.139  16.561   4.243
40450W        W 5710  31.898  18.491  12.844
40451W        W 5711  28.248  37.314   2.852
40452W        W 5712  38.525  40.449  10.942
40453W        W 5713  33.479  29.234  12.195
40454W        W 5714  17.684  28.781  12.594
40455W        W 5715   0.017  25.831   1.449
40456W        W 5716  35.010  37.672  10.622
40457W        W 5717   7.411  29.629   0.774
40458W        W 5718  35.858  42.333   4.371
40459W        W 5719  33.603  41.017  13.997
40460W        W 5720   8.289  38.528  11.960
40461W        W 5721   2.587  23.199   5.439
40462W        W 5722  14.879  18.524  12.489
40463W        W 5723  29.286  33.538  13.040
40464W        W 5724  17.057  38.031  14.283
40465W        W 5725  13.770  20.563  11.479
40466W        W 5726  31.686  13.209   3.792
40467W        W 5727  26.223  23.256  12.990
40468W        W 5728  40.823  34.569   0.374
40469W        W 5729   1.399   6.144  14.879
40470W        W 5730  23.854  42.809   5.104
40471W        W 5731  20.773  35.409  11.159
40472W        W 5732   8.812   6.490  10.550
40473W        W 5733   9.630  23.103   3.183
40474W        W 5734  15.238  33.499   4.541
40475W        W 5735  27.554  34.076   2.581
40476W        W 5736  28.156  39.975   3.550
40477W        W 5737  37.436  12.883  11.179
40478W        W 5738  18.072  16.293   2.863
40479W        W 5739  36.197   8.586  13.381
40480W        W 5740   9.091  30.787  10.228
40481W        W 5741  11.781   9.265  14.816
40482W        W 5742  18.052  10.312   3.452
40483W        W 5743   8.795  33.511   3.716
40484W        W 5744  14.328  25.568  11.994
40485W        W 5745  14.140   2.370   5.016
40486W        W 5746  39.594  40.353   1.656
40487W        W 5747  23.292   9.683  12.506
40488W        W 5748  14.000  28.398   1.234
40489W        W 5749   0.366  44.995   2.803
40490W        W 5750  12.740  31.417  14.329
40491W        W 5751  41.433  21.791   0.778
40492W        W 5752  24.183  43.435   3.134
40493W        W 5753   3.442  29.193   4.370
40494W        W 5754   0.823  24.600   0.744
40495W        W 5755  40.596  19.487   2.671
40496W        W 5756   7.668   2.744   3.765
40497W        W 5757  27.361  12.683  11.202
40498W        W 5758  10.773  43.319   0.314
40499W        W 5759  40.485  12.352  14.304
40500W        W 5760  36.345  37.628   2.654
40501W        W 5761  11.142  30.143   0.967
40502W        W 5762  11.201  24.395   2.713
40503W        W 5763  21.341   9.899   3.762
40504W        W 5764  12.104  24.703  13.972
40505W        W 5765  11.810  10.382   2.163
40506W        W 5766  30.615   3.664  13.758
40507W        W 5767   1.232  35.019   3.326
40508W        W 5768  39.843  34.591  12.806
40509W        W 5769  20.176  33.132   0.955
40510W        W 5770  33.948  10.766  14.582
40511W        W 5771  38.466  27.561  13.882
40512W        W 5772  38.300  25.211  12.260
40513W        W 5773  14.313  43.419  13.505
40514W        W 5774  23.569  31.315  14.867
40515W        W 5775   4.288  41.527   1.657
40516W        W 5776  20.001   8.664  14.080
40517W        W 5777  30.529  31.696  14.035
40518W        W 5778   6.906  20.729   4.343
40519W        W 5779  11.349  22.113   1.525
40520W        W 5780  37.080  34.954  10.892
40521W        W 5781  36.800  44.063   3.113
40522W        W 5782  31.422  12.771   4.479
40523W        W 5783  21.900  27.708   1.380
40524W        W 5784  37.428  14.228  12.103
40525W        W 5785   9.910   7.384   1.818
40526W        W 5786  15.776  31.128  11.930
40527W        W 5787  44.349  24.405  13.811
40528W        W 5788  35.498  38.287   0.413
40529W        W 5789  11.416  39.923   4.759
40530W        W 5790  13.626   3.334  14.493
40531W        W 5791  38.998   3.872   0.505
40532W        W 5792  18.542  39.965   2.306
40533W        W 5793   6.779  41.499  14.816
40534W        W 5794  19.526  42.453   0.527
40535W        W 5795  39.445  23.894   4.625
40536W        W 5796  33.889  10.921   3.872
40537W        W 5797  39.413  17.982   0.477
40538W        W 5798  18.148   7.708   0.085
40539W        W 5799  18.640  17.304   2.212
40540W        W 5800  20.101  35.371   0.469
40541W        W 5801   0.786   8.618   1.816
40542W        W 5802  37.799  33.934  11.617
40543W        W 5803  22.078   4.498   2.327
40544W        W 5804  31.321  27.503  13.822
40545W        W 5805  22.130  11.319   0.987
40546W        W 5806  24.130  24.456  12.863
40547W        W 5807  41.084   4.710   3.842
40548W        W 5808  43.255  20.899   1.860
40549W        W 5809  31.518  32.662   4.669
40550W        W 5810  38.417  13.672  14.967
40551W        W 5811  13.001   3.505  13.008
40552W        W 5812  21.312  21.727   9.929
40553W        W 5813   4.722  39.932   4.384
40554W        W 5814  40.446   0.412   2.913
40555W        W 5815   6.604  44.615  11.149
40556W        W 5816  41.026  34.061  10.890
40557W        W 5817  24.031  15.546   4.529
40558W        W 5818  11.255  39.468   4.972
40559W        W 5819  18.339   4.999  14.958
40560W        W 5820  40.076  20.590   2.250
40561W        W 5821  17.209  35.952  13.511
40562W        W 5822  39.532   9.242  10.690
40563W        W 5823  42.889  12.076   2.624
40564W        W 5824  28.681  12.676   3.283
40565W        W 5825  18.733  32.443   4.211
40566W        W 5826   9.202  10.181  14.537
40567W        W 5827  38.182  14.790  13.006
40568W        W 5828  13.697  41.822   2.909
40569W        W 5829  17.244  36.499   3.784
40570W        W 5830  19.727  43.918   1.896
40571W        W 5831  33.872  15.722   0.808
40572W        W 5832   3.348  32.932  13.888
40573W        W 5833  16.694  44.476  13.919
40574W        W 5834   8.065  17.578   2.706
40575W        W 5835  12.471  31.839  12.571
40576W        W 5836   7.167  14.860   3.161
40577W        W 5837  14.724   0.491   0.834
40578W        W 5838  44.162  32.275   0.467
40579W        W 5839  22.728  29.938  13.449
40580W        W 5840  38.140   7.274   0.855
40581W        W 5841  14.556  16.393  14.296
40582W        W 5842  16.871   4.186   1.394
40583W        W 5843  11.247  32.920   3.779
40584W        W 5844  34.254  33.733   3.580
40585W        W 5845  40.407   7.225  13.880
40586W        W 5846  31.047   1.579   5.122
40587W        W 5847   7.745  11.232  13.858
40588W        W 5848  41.001  24.031   0.815
40589W        W 5849  39.207  27.611  11.610
40590W        W 5850  20.811  13.720   0.111
40591W        W 5851  18.971  29.250  10.780
40592W        W 5852  19.931  35.288   5.051
40593W        W 5853  37.128  44.450   2.319
40594W        W 5854  39.482  11.670  10.558
40595W        W 5855   3.252  24.542  11.538
40596W        W 5856  35.060  10.430   2.823
40597W        W 5857   0.378  22.116   1.012
40598W        W 5858  38.391   2.870  13.956
40599W        W 5859  37.432  36.399  12.103
40600W        W 5860  34.836  20.456  11.228
40601W        W 5861   3.243  26.569   3.070
40602W        W 5862  37.420  15.125  11.979
40603W        W 5863  12.676   5.452   1.865
40604W        W 5864  40.467  24.040  14.678
40605W        W 5865  21.112   1.534   3.787
40606W        W 5866  26.052   9.486  11.409
40607W        W 5867  39.955   0.549  12.892
40608W        W 5868  28.422  17.964   1.400
40609W        W 5869  20.234   0.197  12.491
40610W        W 5870  34.354  32.744   1.891
40611W        W 5871  23.880  44.036   1.014
40612W        W 5872  25.043  43.275   3.776
40613W        W 5873   6.867  12.631  14.662
40614W        W 5874  19.250  19.670   0.912
40615W        W 5875  16.158  30.911   4.314
40616W        W 5876  11.188  10.755   4.554
40617W        W 5877  10.294  38.852   4.092
40618W        W 5878  38.494  24.396  12.052
40619W        W 5879  31.941  23.095  12.899
40620W        W 5880  21.034  16.267   2.882
40621W        W 5881   5.784  38.799  13.849
40622W        W 5882   1.495  29.104   0.751
40623W        W 5883  16.545   5.312  11.119
40624W        W 5884  22.232  11.746  13.909
40625W        W 5885   1.857  14.056  12.056
40626W        W 5886  16.746  29.496   1.443
40627W        W 5887  35.658   2.398  12.742
40628W        W 5888  22.100   4.982   3.202
40629W        W 5889  33.602   6.684  11.287
40630W        W 5890   2.321   3.202  13.754
40631W        W 5891  40.961  40.803   2.266
40632W        W 5892  19.529  20.562   3.662
40633W        W 5893  44.100  26.255  12.042
40634W        W 5894  17.401  22.980   5.369
40635W        W 5895   2.898  21.270  14.329
40636W        W 5896  37.058  30.758  12.581
40637W        W 5897  34.291   0.888   1.174
40638W        W 5898  10.562  20.481   1.812
40639W        W 5899  11.125  43.462   0.669
40640W        W 5900  29.409  18.770   2.716
40641W        W 5901   2.462  10.587  11.144
40642W        W 5902  34.524  12.316  13.841
40643W        W 5903  14.386  41.610   1.863
40644W        W 5904  26.484  29.009  12.024
40645W        W 5905  41.570  32.347   2.860
40646W        W 5906  17.412  31.094  11.716
40647W        W 5907  11.615  33.108   0.769
40648W        W 5908  11.228   5.868   0.711
40649W        W 5909  15.535  30.579   2.823
40650W        W 5910   5.237  21.987   1.766
40651W        W 5911   5.269  17.794   2.899
40652W        W 5912   3.662   8.634  12.906
40653W        W 5913  14.667  20.755  11.896
40654W        W 5914  24.006  29.700  13.484
40655W        W 5915   8.365  34.645  10.731
40656W        W 5916  27.406  24.216  12.140
40657W        W 5917  39.461   2.149  10.752
40658W        W 5918  20.046  38.525  11.051
40659W        W 5919  16.215  41.865  12.373
40660W        W 5920   8.411  10.385   1.673
40661W        W 5921   3.234  30.725  10.607
40662W        W 5922  19.227  34.598  11.114
40663W        W 5923  44.245  30.992  12.280
40664W        W 5924   4.646   4.851   4.626
40665W        W 5925  40.844   4.108  12.088
40666W        W 5926  36.121  24.217  10.215
40667W        W 5927  31.645  32.891  11.091
40668W        W 5928   0.820   1.836  14.449
40669W        W 5929  29.249  15.773  12.441
40670W        W 5930  38.885  23.170  13.833
40671W        W 5931  11.765   1.938   0.364
40672W        W 5932  26.296  34.804   2.400
40673W        W 5933  15.669   7.703  10.734
40674W        W 5934  15.128  13.239  10.756
40675W        W 5935   6.604  41.369  12.022
40676W        W 5936  31.539  21.232   0.408
40677W        W 5937   7.455  39.440  10.462
40678W        W 5938  14.925  31.852  13.546
40679W        W 5939  13.613  10.261  13.067
40680W        W 5940  22.788   9.663  12.549
40681W        W 5941  25.226   1.923  13.419
40682W        W 5942  19.582  38.569   0.392
40683W        W 5943  26.496  13.161  13.837
40684W        W 5944  14.233   3.369  12.445
40685W        W 5945  38.690  20.109   1.831
40686W        W 5946  38.433  14.212  12.959
40687W        W 5947   1.439  37.982  13.326
40688W        W 5948  35.977  17.469  12.085
40689W        W 5949  22.781   6.960  13.452
40690W        W 5950  25.504  33.385  14.819
40691W        W 5951  12.826  38.938  10.891
40692W        W 5952  42.442  42.075  12.407
40693W        W 5953  27.922  10.775   1.536
40694W        W 5954  26.137  16.815  13.314
40695W        W 5955  29.655  24.158   0.233
40696W        W 5956  42.756   5.345  12.842
40697W        W 5957  23.710  24.792   0.433
40698W        W 5958   0.786  36.801   1.213
40699W        W 5959  14.693   3.663  12.405
40700W        W 5960  30.771  16.775   0.745
40701W        W 5961  43.300  39.511   0.318
40702W        W 5962  14.358   5.927  13.822
40703W        W 5963  33.928  35.092  14.928
40704W        W 5964  36.420  28.025  14.324
40705W        W 5965  27.643  13.764   4.125
40706W        W 5966   8.099  39.024   3.144
40707W        W 5967  36.246  21.506  14.834
40708W        W 5968  36.704  34.887   1.863
40709W        W 5969   7.686   7.482  14.779
40710W        W 5970   0.455   9.892   2.708
40711W        W 5971  15.695  36.958  13.272
40712W        W 5972  29.073  30.660   0.342
40713W        W 5973   6.713  13.160  11.198
40714W        W 5974  35.054  26.426   3.226
40715W        W 5975  25.040  21.372  13.510
40716W        W 5976  35.048   6.810  14.402
40717W        W 5977  27.031   8.829   2.853
40718W        W 5978  40.418  25.407   2.210
40719W        W 5979  13.589  21.178  14.542
40720W        W 5980   9.833  27.027  13.565
40721W        W 5981  36.926   7.896   4.139
40722W        W 5982  37.316   6.948   0.675
40723W        W 5983  32.584  18.732  13.457
40724W        W 5984  21.490  39.819   5.409
40725W        W 5985  13.416  11.809  12.921
40726W        W 5986  36.359  42.336  11.823
40727W        W 5987  16.045  36.579  12.372
40728W        W 5988  43.891   5.843  11.899
40729W        W 5989   6.190  17.652   3.098
40730W        W 5990  37.342  30.433   2.597
40731W        W 5991  29.485   6.105  13.217
40732W        W 5992  22.964   7.101  14.804
40733W        W 5993  23.611   9.052   3.207
40734W        W 5994  13.596  11.680  12.029
40735W        W 5995  32.515   2.326   3.278
40736W        W 5996  25.542  10.300  11.137
40737W        W 5997  10.645   3.785   1.975
40738W        W 5998  16.250   7.174  13.335
40739W        W 5999  25.199  10.057   1.122
40740W        W 6000  19.183  38.875   3.505
40741W        W 6001  25.048  41.597   4.129
40742W        W 6002  10.515  43.044  14.609
40743W        W 6003  35.499  29.646   2.895
40744W        W 6004  44.867  22.665  13.283
40745W        W 6005  42.574   9.930  14.846
40746W        W 6006   1.851  33.218  12.023
40747W        W 6007  39.891  30.100   4.539
40748W        W 6008  21.959  11.004  13.382
40749W        W 6009  42.511  16.828  11.958
40750W        W 6010  30.024  28.722   3.685
40751W        W 6011   2.705   0.072  11.471
40752W        W 6012  21.002  33.410   0.477
40753W        W 6013  36.983   0.019  14.268
40754W        W 6014  10.222  23.074  12.383
40755W        W 6015  40.233   5.973   0.803
40756W        W 6016  25.556  25.609   0.812
40757W        W 6017  40.473   1.979  10.439
40758W        W 6018  38.918  24.639  14.053
40759W        W 6019  25.772  31.858   2.568
40760W        W 6020  37.481  28.015   4.683
40761W        W 6021  26.520  18.064  11.841
40762W        W 6022  20.399  35.899  13.930
40763W        W 6023  43.355  33.211   1.482
40764W        W 6024   5.801  28.121   4.481
40765W        W 6025  14.761  32.854  12.917
40766W        W 6026   6.118  27.908  14.904
40767W        W 6027   8.046  35.628  13.887
40768W        W 6028  37.256  17.577  12.078
40769W        W 6029  39.332  13.655  10.553
40770W        W 6030   8.324   7.498   1.315
40771W        W 6031  25.560  14.140  12.861
40772W        W 6032  18.024  34.970   0.522
40773W        W 6033  22.285  41.604   1.935
40774W        W 6034  33.442   5.407   2.923
40775W        W 6035  40.488  32.150   5.091
40776W        W 6036  43.351   1.799   3.594
40777W        W 6037   3.688  36.365  13.910
40778W        W 6038   6.014  40.545  13.065
40779W        W 6039  38.644  37.670   3.737
40780W        W 6040  33.713  29.372   2.790
40781W        W 6041  35.954  26.528   0.224
40782W        W 6042  29.034  22.261   4.313
40783W        W 6043   8.639  11.654  11.983
40784W        W 6044  22.153  38.556   3.222
40785W        W 6045   2.945   3.867  13.066
40786W        W 6046  17.629   3.819  11.639
40787W        W 6047   4.766  13.256  14.218
40788W        W 6048  31.134  43.928  14.384
40789W        W 6049   9.215  22.563  14.510
40790W        W 6050  17.095  21.799  12.849
40791W        W 6051  36.834   7.750   3.259
40792W        W 6052  14.510  11.432   0.889
40793W        W 6053  14.604  16.197  12.840
40794W        W 6054  34.536  30.397   0.580
40795W        W 6055  17.599   7.336  10.586
40796W        W 6056  20.665  28.922  10.371
40797W        W 6057  17.415   5.756   2.256
40798W        W 6058  25.531  24.806  10.745
40799W        W 6059  15.656   7.625  13.935
40800W        W 6060   7.621  38.474   1.056
40801W        W 6061  10.907  28.595  11.617
40802W        W 6062  31.349  34.598  14.903
40803W        W 6063  20.533  10.878   0.349
40804W        W 6064  29.374  42.408  13.392
40805W        W 6065  15.315  27.584  11.137
40806W        W 6066  25.573   3.915  10.439
40807W        W 6067  29.268   7.365   0.065
40808W        W 6068  42.700  21.500   0.311
40809W        W 6069  22.162  26.490   0.763
40810W        W 6070  29.962  20.836   2.338
40811W        W 6071   0.461  41.837  11.497
40812W        W 6072  29.612   8.459   4.135
40813W        W 6073  40.977  17.721   1.813
40814W        W 6074   5.827  34.804   3.035
40815W        W 6075  34.925  34.918  10.925
40816W        W 6076  20.023  16.140   2.422
40817W        W 6077  20.261   3.272   0.855
40818W        W 6078  12.675   9.918  10.726
40819W        W 6079   9.381  44.566   0.530
40820W        W 6080   1.259   0.783  10.487
40821W        W 6081  29.328  27.214   9.847
40822W        W 6082  40.713   3.812  14.429
40823W        W 6083  23.797   1.850  14.851
40824W        W 6084  26.465  14.095   4.219
40825W        W 6085  29.944  26.238   2.764
40826W        W 6086  32.630  27.327   1.121
40827W        W 6087  10.207  24.575   0.497
40828W        W 6088  33.002  18.184   1.213
40829W        W 6089  36.607  24.088  11.995
40830W        W 6090  36.643  15.031   4.172
40831W        W 6091   8.272  35.555  11.529
40832W        W 6092  19.626  37.551  10.428
40833W        W 6093  44.083  21.225  12.615
40834W        W 6094  28.999   7.319  14.160
40835W        W 6095   2.041  14.809   0.390
40836W        W 6096  21.769  35.360  11.147
40837W        W 6097   1.812  13.375  13.475
40838W        W 6098  18.705  43.007  10.750
40839W        W 6099  30.852  41.280   2.218
40840W        W 6100   9.391   8.542  12.507
40841W        W 6101  25.008   0.912   1.759
40842W        W 6102   4.215  12.303   2.394
40843W        W 6103   7.839  18.966   2.535
40844W        W 6104  12.183  30.995  12.098
40845W        W 6105  36.117  11.027   0.812
40846W        W 6106   7.814  22.816   3.176
40847W        W 6107  23.464  31.521   4.738
40848W        W 6108  42.612  39.970   2.866
40849W        W 6109  27.700  19.379  13.107
40850W        W 6110   4.315  40.739   0.471
40851W        W 6111  34.477  29.462  14.910
40852W        W 6112  30.964  44.001  14.900
40853W        W 6113  17.735   4.196  12.436
40854W        W 6114  13.737  22.314  14.765
40855W        W 6115  40.047   1.247  14.759
40856W        W 6116  11.061  15.113  13.478
40857W        W 6117  20.334   9.901  12.427
40858W        W 6118  18.901  30.008   1.155
40859W        W 6119  31.667  34.648   4.189
40860W        W 6120   0.361  15.644   0.210
40861W        W 6121  18.068  42.796   3.380
40862W        W 6122  43.446  25.076  14.297
40863W        W 6123  40.399  44.421   3.049
40864W        W 6124  17.212   1.929  10.272
40865W        W 6125   4.046  12.812   5.185
40866W        W 6126  32.033  17.218   3.412
40867W        W 6127  42.877  32.884  10.804
40868W        W 6128   7.241   5.396  14.912
40869W        W 6129  22.442  41.050  14.348
40870W        W 6130  43.830   2.666   1.527
40871W        W 6131  19.308   1.356  10.763
40872W        W 6132  43.147  28.037  12.592
40873W        W 6133   0.836   2.334  12.312
40874W        W 6134  41.427  14.765   4.385
40875W        W 6135  32.662  34.583   3.318
40876W        W 6136   2.435   5.827  10.995
40877W        W 6137  29.136   8.511  12.055
40878W        W 6138  28.684  18.649  11.811
40879W        W 6139  31.492  39.892  12.917
40880W        W 6140  25.611  11.966  12.090
40881W        W 6141  18.606  24.771   3.804
40882W        W 6142  16.517  42.423   3.241
40883W        W 6143   2.379  15.866  14.917
40884W        W 6144  14.121  24.390   3.717
40885W        W 6145   8.163  39.876  10.669
40886W        W 6146  35.531  10.441   2.630
40887W        W 6147   7.862  35.017   4.583
40888W        W 6148  28.007  24.469  13.020
40889W        W 6149  37.332  20.471   3.417
40890W        W 6150  32.553  21.018  13.986
40891W        W 6151  24.298  22.304  11.214
40892W        W 6152  21.010  14.061  10.789
40893W        W 6153   6.818  42.537  14.922
40894W        W 6154   7.531  10.171  13.513
40895W        W 6155  43.492  26.588   4.594
40896W        W 6156  30.024  31.173  12.848
40897W        W 6157  21.476  28.860  13.766
40898W        W 6158   2.217  38.509  11.626
40899W        W 6159  41.863   8.242   3.734
40900W        W 6160  38.383  27.027   2.774
40901W        W 6161  36.842  41.910  13.526
40902W        W 6162  38.100  16.561  11.188
40903W        W 6163   1.220  36.789  14.178
40904W        W 6164  20.342  36.212  10.899
40905W        W 6165  24.103  26.719  13.983
40906W        W 6166  10.021  11.289   3.907
40907W        W 6167  38.150  14.200  14.320
40908W        W 6168  13.367  33.802  10.978
40909W        W 6169  44.202  27.038  11.172
40910W        W 6170  42.858  11.109   2.215
40911W        W 6171  28.729  44.009   1.165
40912W        W 6172  26.707  19.529   0.393
40913W        W 6173  15.235   1.080  14.767
40914W        W 6174   1.311  36.311  14.002
40915W        W 6175   9.933  26.186  12.037
40916W        W 6176   4.909  19.705   4.618
40917W        W 6177   9.951  34.510   3.227
40918W        W 6178  26.705   6.929   3.294
40919W        W 6179  17.642  11.765   3.483
40920W        W 6180  38.350  42.392  13.812
40921W        W 6181  32.069  32.061  12.586
40922W        W 6182  43.357   9.790   3.751
40923W        W 6183  39.058  28.232  14.697
40924W        W 6184  32.389  27.066  13.614
40925W        W 6185   8.644  28.438  14.406
40926W        W 6186  41.818  12.086   2.066
40927W        W 6187   3.684  39.417  13.433
40928W        W 6188  20.990  33.901   0.289
40929W        W 6189  19.840  42.790   4.447
40930W        W 6190   2.546  32.191  10.294
40931W        W 6191  28.306   5.385   4.676
40932W        W 6192  35.210  14.693   3.753
40933W        W 6193  34.002  41.562  13.921
40934W        W 6194  36.978  20.171   3.624
40935W        W 6195  37.597   9.138  11.065
40936W        W 6196   3.710  15.352  14.093
40937W        W 6197  30.109   5.818  12.177
40938W        W 6198  24.508  39.507   1.939
40939W        W 6199   2.822  16.013  13.580
40940W        W 6200  44.940   0.044   1.418
40941W        W 6201  39.316  31.605   4.522
40942W        W 6202   8.136  22.935  11.099
40943W        W 6203  27.809  35.555   4.797
40944W        W 6204  25.686  11.310  12.586
40945W        W 6205   4.276  35.300   1.483
40946W        W 6206  10.823  28.723   2.320
40947W        W 6207  38.761   6.760   4.700
40948W        W 6208  39.016  16.999  13.318
40949W        W 6209  32.838  41.696  11.956
40950W        W 6210  26.230  12.222   0.522
40951W        W 6211   4.997  17.503   4.154
40952W        W 6212  24.777  20.274   1.625
40953W        W 6213   1.327  42.908  11.440
40954W        W 6214  24.087  32.949  12.974
40955W        W 6215   8.940  15.223   2.773
40956W        W 6216  38.811  13.715  10.567
40957W        W 6217  40.571  23.574  15.000
40958W        W 6218  23.793  15.109   2.885
40959W        W 6219  26.966  32.620  10.649
40960W        W 6220  17.598   6.511   4.320
40961W        W 6221  36.393  14.297   4.634
40962W        W 6222   7.220  28.903  12.104
40963W        W 6223   6.749  35.058  11.118
40964W        W 6224  23.652  25.385  11.197
40965W        W 6225   5.163  41.797  11.463
40966W        W 6226  23.828  43.802   4.179
40967W        W 6227  38.252  31.964  12.865
40968W        W 6228   9.363   6.221   3.637
40969W        W 6229  28.701  33.365   2.185
40970W        W 6230  30.114  17.202  12.378
40971W        W 6231  16.519  30.605   3.602
40972W        W 6232  18.274  43.044   1.789
40973W        W 6233   6.898   6.809  13.262
40974W        W 6234  44.395  30.477   0.829
40975W        W 6235  24.339   1.475  11.676
40976W        W 6236  44.285  25.643   3.574
40977W        W 6237  27.343  34.701  14.351
40978W        W 6238  17.692  43.921  14.439
40979W        W 6239  11.758   8.752   3.718
40980W        W 6240  17.593   9.756  13.816
40981W        W 6241  33.908   1.854   1.315
40982W        W 6242  29.159   0.655   0.947
40983W        W 6243  29.030   4.208  11.386
40984W        W 6244  19.294  13.002  14.285
40985W        W 6245  38.066  26.947  10.754
40986W        W 6246  36.099  38.877   2.103
40987W        W 6247   2.302  34.617  13.945
40988W        W 6248  13.052   8.644   4.858
40989W        W 6249  17.694  21.486   2.599
40990W        W 6250  42.792  16.120  13.060
40991W        W 6251  42.380  13.642  14.317
40992W        W 6252  12.313  32.643  12.507
40993W        W 6253  18.033  37.225   2.248
40994W        W 6254  23.970  10.132   5.077
40995W        W 6255   9.762  15.623   1.967
40996W        W 6256  32.683   1.839   3.155
40997W        W 6257  27.105   7.412  13.609
40998W        W 6258   6.810  28.223   0.492
40999W        W 6259  38.505  31.094  14.929
41000W        W 6260  23.931  14.329   4.367
41001W        W 6261  38.465  14.096   4.997
41002W        W 6262  15.183  23.637   1.877
41003W        W 6263   5.557   7.930   0.917
41004W        W 6264   8.052   7.231   2.251
41005W        W 6265  41.375   0.039   1.347
41006W        W 6266   5.767   7.262   3.980
41007W        W 6267  41.532  18.174   2.387
41008W        W 6268  15.827  32.500  14.239
41009W        W 6269  28.543  10.534   0.895
41010W        W 6270  43.162  40.326   4.465
41011W        W 6271   0.786   4.648  14.100
41012W        W 6272  31.501   7.336  10.517
41013W        W 6273  15.146   3.558   4.078
41014W        W 6274  33.406  11.382   4.522
41015W        W 6275  36.680  21.740  13.877
41016W        W 6276  33.362  17.061   0.602
41017W        W 6277  18.581  19.021   0.692
41018W        W 6278  28.921   3.605   3.706
41019W        W 6279  31.986  18.465   5.033
41020W        W 6280  19.059  14.155   2.252
41021W        W 6281  26.231  21.970  14.486
41022W        W 6282  39.740  10.264  12.394
41023W        W 6283  21.706  30.628  14.992
41024W        W 6284  11.816  10.638   4.607
41025W        W 6285  31.401  15.105  11.132
41026W        W 6286  31.831  19.386   2.335
41027W        W 6287  30.385  42.488   3.617
41028W        W 6288  29.076   7.725  12.425
41029W        W 6289  25.061  39.957  14.938
41030W        W 6290  40.951  38.095   4.113
41031W        W 6291  10.787  25.460  13.907
41032W        W 6292   2.420   6.202  13.829
41033W        W 6293   8.167  10.202   0.636
41034W        W 6294  31.117  31.600   2.545
41035W        W 6295  44.694   6.965  14.958
41036W        W 6296  20.045  33.743   1.286
41037W        W 6297  26.555   9.176   0.284
41038W        W 6298  24.636   4.137  13.759
41039W        W 6299  29.412  10.585  12.982
41040W        W 6300  11.822   7.707   0.787
41041W        W 6301  17.040  38.957   1.566
41042W        W 6302   8.982  24.760  10.328
41043W        W 6303  22.301  13.408  11.917
41044W        W 6304  15.211  24.677   1.222
41045W        W 6305   6.706  27.472   4.186
41046W        W 6306  36.508  44.505   3.578
41047W        W 6307  28.655  35.594   1.196
41048W        W 6308  14.265   2.702   0.929
41049W        W 6309  41.042  41.553   0.660
41050W        W 6310  29.060  26.434   3.278
41051W        W 6311  28.270   3.433  13.925
41052W        W 6312   7.210   8.871  10.672
41053W        W 6313  40.634  24.066  11.454
41054W        W 6314  43.423  42.030  12.271
41055W        W 6315  28.963   2.309  11.735
41056W        W 6316  32.433  13.689  14.754
41057W        W 6317   5.845  31.878   3.296
41058W        W 6318  13.016   2.280   0.226
41059W        W 6319   8.257  20.534   2.131
41060W        W 6320  20.287  30.121   1.301
41061W        W 6321  14.461  15.332   3.778
41062W        W 6322  38.879  30.481   2.907
41063W        W 6323   4.166  42.521  12.469
41064W        W 6324  23.257  40.299   3.334
41065W        W 6325   6.179  14.478   4.591
41066W        W 6326   2.792  27.438   2.568
41067W        W 6327  20.202  32.513   3.221
41068W        W 6328   3.922  33.472  13.257
41069W        W 6329  14.809  23.499  11.555
41070W        W 6330  30.776  29.491  11.992
41071W        W 6331  24.779  44.280   0.858
41072W        W 6332  15.313  21.308  10.344
41073W        W 6333  28.362   1.859  10.744
41074W        W 6334   4.492  24.048  11.995
41075W        W 6335  30.683  28.413   0.134
41076W        W 6336  23.083  13.902   4.025
41077W        W 6337  32.462  21.317   4.694
41078W        W 6338  15.414  13.316   3.908
41079W        W 6339   8.613  15.770   1.439
41080W        W 6340   7.092   2.273  12.081
41081W        W 6341  19.483  10.557   3.330
41082W        W 6342  44.791  18.303   2.357
41083W        W 6343  36.787  31.519  11.514
41084W        W 6344  39.042  41.542   2.901
41085W        W 6345  18.175  38.328   2.789
41086W        W 6346  12.928  12.109   1.454
41087W        W 6347  20.576  11.901   1.926
41088W        W 6348  28.733  15.369  13.460
41089W        W 6349   3.334  30.587   2.131
41090W        W 6350  20.175  41.389  14.544
41091W        W 6351  17.343  12.115  10.572
41092W        W 6352  26.338  38.630   4.230
41093W        W 6353  24.634  22.801   0.975
41094W        W 6354  36.097  16.681  13.125
41095W        W 6355  44.980  29.187   0.934
41096W        W 6356   9.030   2.307   0.294
41097W        W 6357  32.128  30.457  14.079
41098W        W 6358  13.188  19.202  10.484
41099W        W 6359   0.229  27.467   0.768
41100W        W 6360   2.794  30.071   0.568
41101W        W 6361   0.559  35.138   2.660
41102W        W 6362  35.049  29.141  10.725
41103W        W 6363  39.366   4.459  14.133
41104W        W 6364  39.010  24.928  13.373
41105W        W 6365   5.701  11.282   1.509
41106W        W 6366   0.550   8.495  12.895
41107W        W 6367  29.895  32.468  13.513
41108W        W 6368  28.032  39.748   1.307
41109W        W 6369  34.117  11.707   2.447
41110W        W 6370  30.567   7.290  14.391
41111W        W 6371  42.888  37.334  10.578
41112W        W 6372  26.261  11.596  10.806
41113W        W 6373   2.686  41.311  11.345
41114W        W 6374  28.098  38.005   4.690
41115W        W 6375  38.907  14.286  13.274
41116W        W 6376   6.837   2.493  11.694
41117W        W 6377  33.940  16.295  12.532
41118W        W 6378  18.235  35.901   1.164
41119W        W 6379  16.080  30.514   0.740
41120W        W 6380  31.515  19.150   1.960
41121W        W 6381   8.916  27.252   0.365
41122W        W 6382  14.292  40.818  14.492
41123W        W 6383  31.659  35.542  12.995
41124W        W 6384  39.030   4.427   1.380
41125W        W 6385  44.515  32.039  14.346
41126W        W 6386  31.871  24.985  12.206
41127W        W 6387   7.227  43.843  12.363
41128W        W 6388  15.569  27.722  13.926
41129W        W 6389  30.218  22.634   0.426
41130W        W 6390  26.305  20.736  11.626
41131W        W 6391   4.936  25.222   4.233
41132W        W 6392  26.871  40.322   1.429
41133W        W 6393   5.087  17.736  10.667
41134W        W 6394  32.933  29.473  13.847
41135W        W 6395  15.018  32.381  14.910
41136W        W 6396  36.552  24.616  11.879
41137W        W 6397   0.715  10.778   3.924
41138W        W 6398  33.405  18.715  11.122
41139W        W 6399  19.628  42.338   1.419
41140W        W 6400  43.987   2.786  12.560
41141W        W 6401   4.827  18.534  12.881
41142W        W 6402   1.218  15.880  11.105
41143W        W 6403   1.288  13.234  13.348
41144W        W 6404  12.079  12.053  10.047
41145W        W 6405  18.892   2.847  14.907
41146W        W 6406   1.109  40.888  12.321
41147W        W 6407   4.982  13.678   0.333
41148W        W 6408  17.070   4.176  11.153
41149W        W 6409  22.750  21.961  13.683
41150W        W 6410  21.777  16.889   3.020
41151W        W 6411   7.212  44.269   4.017
41152W        W 6412  28.068  26.541   3.981
41153W        W 6413  40.457  17.136   2.976
41154W        W 6414  26.448   1.681  10.787
41155W        W 6415   3.741   4.871   0.398
41156W        W 6416  44.590  24.952  12.146
41157W        W 6417  21.673   8.617   2.680
41158W        W 6418  40.329  10.516  10.740
41159W        W 6419  22.952   7.754  12.413
41160W        W 6420  14.096  40.929   1.410
41161W        W 6421  38.411  32.995  13.852
41162W        W 6422  10.207  22.021  10.563
41163W        W 6423  41.829  22.107   2.366
41164W        W 6424   9.204  39.990   3.278
41165W        W 6425  41.412  12.230  10.521
41166W        W 6426  30.097  20.326  10.739
41167W        W 6427  40.321  21.991  12.995
41168W        W 6428  31.539  35.036  11.176
41169W        W 6429  39.463   8.415   4.743
41170W        W 6430  39.851  40.496  13.150
41171W        W 6431  11.267  15.608  14.514
41172W        W 6432  32.035  23.803   2.372
41173W        W 6433  17.117  29.413  14.731
41174W        W 6434  30.982  40.613   2.890
41175W        W 6435  35.906  39.307   2.330
41176W        W 6436  17.499  21.790   4.652
41177W        W 6437  28.994  11.571  13.773
41178W        W 6438  28.434  17.337   2.620
41179W        W 6439  12.130  18.688   3.116
41180W        W 6440  40.520  14.230  14.697
41181W        W 6441  44.355  17.745  13.503
41182W        W 6442   2.038  30.485   3.430
41183W        W 6443  26.183   3.656   4.251
41184W        W 6444  27.991  32.784  12.153
41185W        W 6445  14.691   6.663  12.021
41186W        W 6446  20.050   4.223   1.421
41187W        W 6447  28.434   0.303   3.702
41188W        W 6448  11.331   0.226  11.593
41189W        W 6449  11.601  41.787   1.859
41190W        W 6450  26.902  44.722  14.486
41191W        W 6451  18.345  25.243   3.748
41192W        W 6452   5.854  36.517   2.369
41193W        W 6453  36.458  36.739   4.520
41194W        W 6454  19.692  27.071  10.584
41195W        W 6455  26.772  21.061   1.845
41196W        W 6456  35.410  43.337   4.796
41197W        W 6457   7.973  39.894   2.608
41198W        W 6458  43.831  30.529   3.389
41199W        W 6459   5.222   9.647  12.874
41200W        W 6460  44.334   1.395  12.907
41201W        W 6461   1.018  37.574   5.003
41202W        W 6462  42.580  43.592   0.553
41203W        W 6463  37.090  24.515   4.654
41204W        W 6464  33.888  15.108   3.642
41205W        W 6465  22.132  21.224  13.951
41206W        W 6466  20.823  27.329  11.217
41207W        W 6467  36.951  16.056  12.126
41208W        W 6468  10.097   9.699  13.018
41209W        W 6469  21.469  21.176   3.664
41210W        W 6470  26.159  35.665   5.153
41211W        W 6471  18.130  26.913   2.195
41212W        W 6472  23.749  19.563  11.658
41213W        W 6473  35.337   3.017   0.906
41214W        W 6474  17.651  18.722   4.901
41215W        W 6475  14.094  25.563   1.440
41216W        W 6476   0.734  38.034  12.145
41217W        W 6477  35.529  23.209   4.299
41218W        W 6478   7.457  37.109   2.677
41219W        W 6479  23.078  33.835   4.065
41220W        W 6480  14.613  28.105  12.634
41221W        W 6481  29.685  30.489   3.063
41222W        W 6482  35.367  38.406   2.284
41223W        W 6483  10.702  36.389  10.929
41224W        W 6484  29.137  31.581  13.980
41225W        W 6485   2.785   0.931  13.614
41226W        W 6486  31.555  19.172  11.311
41227W        W 6487  23.509  24.383  12.532
41228W        W 6488  34.680  19.033  11.328
41229W        W 6489  25.321  27.659   3.812
41230W        W 6490  25.702  25.057  12.827
41231W        W 6491  20.312  36.333  12.586
41232W        W 6492  33.699  42.724  12.939
41233W        W 6493   5.745   2.101   0.320
41234W        W 6494  30.519  14.771   0.898
41235W        W 6495   3.759  20.565  13.689
41236W        W 6496  14.278  13.265  13.519
41237W        W 6497  41.409  38.861   5.045
41238W        W 6498  29.820  38.525   5.170
41239W        W 6499   3.792   6.888  10.714
41240W        W 6500   5.201  23.062   3.489
41241W        W 6501  10.377  27.126  10.602
41242W        W 6502  37.212  20.540  10.645
41243W        W 6503   1.117  24.393  13.854
41244W        W 6504  32.150  27.920   2.851
41245W        W 6505  18.285  12.307  14.296
41246W        W 6506  26.679  43.787   2.432
41247W        W 6507  12.410  40.031  13.602
41248W        W 6508  12.844  30.516   0.338
41249W        W 6509  29.172  25.000  10.821
41250W        W 6510  42.104   7.123   0.522
41251W        W 6511  10.276  37.951   2.423
41252W        W 6512   7.762  38.935  14.361
41253W        W 6513  28.874  43.865  10.622
41254W        W 6514   1.345   5.873   3.779
41255W        W 6515  10.751  34.804  14.081
41256W        W 6516  37.600   7.895   0.381
41257W        W 6517  32.950  20.686   3.895
41258W        W 6518   2.949  20.102   1.891
41259W        W 6519  39.292  11.278   1.496
41260W        W 6520  12.234  25.904  13.345
41261W        W 6521  28.509  44.381   2.167
41262W        W 6522  14.652  15.029  14.296
41263W        W 6523   6.897  23.200   3.174
41264W        W 6524   3.386   6.894   0.578
41265W        W 6525   4.043  42.813   1.475
41266W        W 6526  40.777   5.188  10.806
41267W        W 6527   6.484  29.649   0.911
41268W        W 6528   6.309  18.665  11.158
41269W        W 6529  32.013  42.299   0.903
41270W        W 6530   7.714  27.736   2.699
41271W        W 6531  44.350  17.600  14.003
41272W        W 6532  24.169  38.953   1.392
41273W        W 6533   8.549  26.003  12.845
41274W        W 6534   0.920  23.996  10.499
41275W        W 6535  17.332   2.402   3.707
41276W        W 6536  38.345  37.316  14.957
41277W        W 6537  10.758   6.607   1.305
41278W        W 6538  22.654  33.924   2.200
41279W        W 6539  16.257  13.373  13.139
41280W        W 6540  29.592  29.688  12.668
41281W        W 6541  23.682  32.589  11.577
41282W        W 6542  25.833  19.472  13.375
41283W        W 6543  35.986  36.947   1.324
41284W        W 6544  31.417  32.403   1.935
41285W        W 6545  10.220  11.767   3.841
41286W        W 6546  32.042  36.448   1.125
41287W        W 6547  34.337   1.349   2.313
41288W        W 6548  41.420  26.928   0.049
41289W        W 6549   0.491  20.722  13.943
41290W        W 6550  17.049   9.706  10.409
41291W        W 6551  29.513  44.833   4.618
41292W        W 6552   1.500  38.703   0.248
41293W        W 6553  42.939  38.282  11.507
41294W        W 6554  33.227  15.149   3.724
41295W        W 6555  29.215  23.469   3.606
41296W        W 6556   0.411  38.709  11.536
41297W        W 6557  26.671   3.353   0.922
41298W        W 6558   6.718  27.502   1.382
41299W        W 6559  39.615  16.331  11.170
41300W        W 6560  26.471   2.581   5.219
41301W        W 6561  26.190   2.009  11.560
41302W        W 6562   9.842  20.288  13.840
41303W        W 6563   6.792  20.238   4.595
41304W        W 6564  30.861  12.730  13.917
41305W        W 6565  20.155  20.256  12.071
41306W        W 6566  13.881  44.266   1.382
41307W        W 6567  25.039  20.530  11.228
41308W        W 6568  37.856   5.825   4.748
41309W        W 6569   1.453  10.835  12.382
41310W        W 6570  21.725   8.799  11.633
41311W        W 6571   3.721  31.492   4.218
41312W        W 6572  27.168  30.851  13.971
41313W        W 6573  14.384  22.532   5.360
41314W        W 6574  20.152   5.751  13.038
41315W        W 6575   2.757   6.495   3.324
41316W        W 6576  23.754  26.725   3.221
41317W        W 6577  23.373  44.887   2.650
41318W        W 6578  30.252  35.967   1.729
41319W        W 6579  21.536  27.621   1.789
41320W        W 6580   7.792  41.254  12.826
41321W        W 6581  14.768  19.664   4.093
41322W        W 6582  43.795  40.437   0.835
41323W        W 6583   6.120   9.205   0.868
41324W        W 6584   1.918  37.370   1.821
41325W        W 6585   6.642  22.654  12.127
41326W        W 6586  25.254  25.362  11.486
41327W        W 6587   8.917  24.200  14.890
41328W        W 6588  19.274  23.876   5.531
41329W        W 6589  28.025   5.878   0.272
41330W        W 6590  26.083  14.243  11.242
41331W        W 6591  23.226  25.678   1.261
41332W        W 6592  32.268  13.251   1.287
41333W        W 6593  13.117  27.581   0.787
41334W        W 6594  28.423  31.024   4.449
41335W        W 6595   6.866  17.049  10.379
41336W        W 6596  14.913  11.848  13.898
41337W        W 6597  21.570   1.236   4.839
41338W        W 6598  13.907  23.809   0.919
41339W        W 6599  14.799  31.574   0.321
41340W        W 6600  27.021  12.368   2.740
41341W        W 6601  18.541   0.968  10.538
41342W        W 6602  36.476  22.684   4.311
41343W        W 6603  16.409   9.301  10.784
41344W        W 6604  36.518   6.616   2.168
41345W        W 6605  41.036  40.542  12.471
41346W        W 6606  10.226  34.376   1.265
41347W        W 6607  31.929   5.312   3.653
41348W        W 6608  22.331  25.273  14.006
41349W        W 6609  43.905  10.221  10.847
41350W        W 6610  25.862  18.766  11.231
41351W        W 6611  43.920  16.021  14.510
41352W        W 6612   6.287  11.343   4.875
41353W        W 6613  29.108  36.581   0.436
41354W        W 6614   7.904  36.470   3.761
41355W        W 6615  32.999  23.269  12.846
41356W        W 6616  40.650   0.285   5.573
41357W        W 6617  39.796  27.307   2.941
41358W        W 6618  18.976   2.323  13.382
41359W        W 6619  24.762  30.486   1.997
41360W        W 6620   2.121   6.397   1.648
41361W        W 6621  15.129  16.202  14.397
41362W        W 6622   5.017   3.268  13.102
41363W        W 6623  42.513   4.910   9.912
41364W        W 6624   9.649  27.441   3.589
41365W        W 6625  40.967  33.649   0.845
41366W        W 6626  25.128  24.925  12.153
41367W        W 6627  20.123  39.570  11.047
41368W        W 6628  42.059  22.590  10.614
41369W        W 6629  39.962  32.488  14.485
41370W        W 6630   4.922  23.275   3.119
41371W        W 6631  12.247   1.211  11.099
41372W        W 6632  10.211  26.711  14.037
41373W        W 6633  25.640  33.440  13.947
41374W        W 6634  11.092  21.573  12.735
41375W        W 6635   5.775  25.396   1.357
41376W        W 6636  28.092  31.542   4.696
41377W        W 6637  25.817  11.148   3.757
41378W        W 6638   9.142  25.549  12.118
41379W        W 6639  43.992   3.859  14.980
41380W        W 6640  27.974  39.233   1.411
41381W        W 6641  36.596  24.896   0.166
41382W        W 6642  35.032  20.085  11.539
41383W        W 6643  41.295  19.682   4.826
41384W        W 6644  21.389  44.780   4.849
41385W        W 6645  42.620  28.074   0.255
41386W        W 6646   8.248   9.015  12.849
41387W        W 6647  13.857  35.148   2.410
41388W        W 6648   6.951  32.815   1.411
41389W        W 6649  27.675   6.254   0.132
41390W        W 6650  24.602  44.123  11.480
41391W        W 6651  34.408   2.463   3.690
41392W        W 6652  22.911   3.968  10.828
41393W        W 6653   6.743  42.932   2.826
41394W        W 6654  27.480  32.899  12.985
41395W        W 6655  15.879  44.470   2.649
41396W        W 6656  19.775  43.945  12.600
41397W        W 6657  12.901  25.044   2.878
41398W        W 6658  11.212  41.433   0.678
41399W        W 6659  40.930  39.402   4.719
41400W        W 6660  12.168  44.031   3.541
41401W        W 6661  35.070   5.978   2.080
41402W        W 6662  30.176  25.965  13.913
41403W        W 6663  18.621  14.205  14.150
41404W        W 6664   7.390  36.883  11.113
41405W        W 6665   6.217   7.940  10.799
41406W        W 6666   2.072  19.590  11.643
41407W        W 6667  38.549  20.290   4.580
41408W        W 6668  42.609  20.027   4.335
41409W        W 6669   1.740  12.580  11.990
41410W        W 6670  38.418  32.061  13.337
41411W        W 6671  24.043  22.574   2.733
41412W        W 6672  31.000  42.933   3.891
41413W        W 6673  35.802  35.540   4.380
41414W        W 6674  21.023  32.702  14.539
41415W        W 6675   6.924  10.514  13.910
41416W        W 6676   7.333  18.639   1.697
41417W        W 6677  23.202  10.579  14.435
41418W        W 6678  12.789  16.881   0.401
41419W        W 6679  32.948  31.458  11.047
41420W        W 6680  14.247  32.669  11.764
41421W        W 6681  41.046  35.400   2.304
41422W        W 6682   1.723   7.960   0.047
41423W        W 6683  44.295  40.520  13.361
41424W        W 6684  13.823  39.718   2.531
41425W        W 6685  43.925  11.055  11.258
41426W        W 6686  14.766  17.788   4.539
41427W        W 6687  19.732   2.101   1.168
41428W        W 6688  39.463  34.572  14.116
41429W        W 6689  33.474  13.143  11.685
41430W        W 6690   1.780  35.050   4.685
41431W        W 6691  25.075  43.111   3.277
41432W        W 6692  30.060  20.651   1.867
41433W        W 6693   7.746  23.273   0.015
41434W        W 6694  18.352  26.625   4.071
41435W        W 6695   9.741  27.037   1.693
41436W        W 6696  44.906   2.696  13.130
41437W        W 6697  15.337  36.474  11.651
41438W        W 6698   1.898  17.788  12.094
41439W        W 6699  31.193  31.914  10.711
41440W        W 6700  14.883   9.169   1.294
41441W        W 6701  27.739  39.992  13.931
41442W        W 6702   0.847   2.372   3.926
41443W        W 6703  30.949  43.710   0.785
41444W        W 6704  29.434   5.866   1.687
41445W        W 6705   6.293  38.830   0.731
41446W        W 6706  27.245  10.920   0.686
41447W        W 6707  36.281  10.788   4.565
41448W        W 6708  42.295  35.578   1.113
41449W        W 6709   8.691   0.722  13.812
41450W        W 6710   1.830  32.798   2.148
41451W        W 6711  25.753  16.560   0.017
41452W        W 6712  30.578  43.394  12.797
41453W        W 6713  41.882   5.875  11.587
41454W        W 6714  18.290  38.788  12.056
41455W        W 6715  34.560  10.215  11.172
41456W        W 6716  25.245  12.438  14.954
41457W        W 6717  38.888  32.925  11.556
41458W        W 6718   3.801   6.856   0.251
41459W        W 6719  24.164  11.796  13.404
41460W        W 6720  18.123  35.506  12.991
41461W        W 6721  44.367  14.687   0.827
41462W        W 6722  31.551  26.750   1.378
41463W        W 6723   5.135  24.652   1.300
41464W        W 6724  41.130  36.429  14.447
41465W        W 6725  22.155  27.529  14.613
41466W        W 6726   9.712  19.226  14.279
41467W        W 6727  31.371  10.640   1.671
41468W        W 6728  40.738  30.570  14.013
41469W        W 6729  30.411  29.983   4.853
41470W        W 6730  25.085   6.433  12.017
41471W        W 6731  21.063  42.005   1.030
41472W        W 6732  27.679  12.605   1.339
41473W        W 6733  31.067  22.644  13.998
41474W        W 6734  42.259  13.341   2.351
41475W        W 6735  43.663  29.505  14.825
41476W        W 6736  10.020  20.289   3.903
41477W        W 6737  17.295  25.967   1.416
41478W        W 6738  20.235  37.046  13.662
41479W        W 6739   4.812  23.514   0.966
41480W        W 6740   5.995  21.147  12.438
41481W        W 6741  25.006  41.431  14.760
41482W        W 6742  22.617  19.767   1.857
41483W        W 6743   6.597  29.720   1.443
41484W        W 6744  35.323  15.346  13.743
41485W        W 6745  35.445  23.923   9.729
41486W        W 6746  27.985  17.554  11.636
41487W        W 6747  41.504  20.321  14.987
41488W        W 6748  23.969   9.030   2.564
41489W        W 6749   5.823  35.876  14.577
41490W        W 6750  41.790  29.839   2.762
41491W        W 6751  38.335   4.861   1.245
41492W        W 6752  10.265  24.626  12.634
41493W        W 6753  44.022  29.663   0.732
41494W        W 6754  19.100  32.907  10.793
41495W        W 6755   5.050   7.931   0.999
41496W        W 6756  25.189  35.640   2.107
41497W        W 6757  42.847  36.692   5.096
41498W        W 6758  36.722  38.395  12.041
41499W        W 6759  33.150   6.393   0.069
41500W        W 6760  44.775   8.855   4.213
41501W        W 6761  13.265  36.234   4.634
41502W        W 6762  20.217  35.774   3.074
41503W        W 6763  24.555  35.110   1.696
41504W        W 6764  26.012  40.816   0.907
41505W        W 6765  21.797  25.523   4.123
41506W        W 6766  41.511   7.391   2.828
41507W        W 6767  12.965  32.074   0.949
41508W        W 6768  17.663  14.866  11.834
41509W        W 6769  28.191   8.358  14.885
41510W        W 6770  21.653   8.866  12.826
41511W        W 6771   6.813  10.727   3.800
41512W        W 6772   8.296   9.493   1.488
41513W        W 6773   2.504  44.285   0.989
41514W        W 6774   5.086  20.364  14.327
41515W        W 6775  29.929  18.091   0.572
41516W        W 6776  41.133  33.532   2.351
41517W        W 6777  12.919  31.930   4.383
41518W        W 6778  32.876  27.139  13.443
41519W        W 6779  33.552   0.566  11.504
41520W        W 6780  35.862   4.606   3.716
41521W        W 6781  40.809  39.080  12.562
41522W        W 6782  14.635  36.077  10.652
41523W        W 6783  17.074   1.390   0.570
41524W        W 6784  18.526  10.326   4.276
41525W        W 6785  37.346  13.165  11.643
41526W        W 6786  15.048   1.048   1.223
41527W        W 6787   6.638   5.312  14.212
41528W        W 6788  22.079  38.302   1.216
41529W        W 6789  17.786  11.060  13.323
41530W        W 6790  23.737  44.511   1.775
41531W        W 6791  17.118   9.310   0.799
41532W        W 6792  27.258   4.663  14.556
41533W        W 6793  36.746  39.863  10.828
41534W        W 6794   2.584  32.603   0.164
41535W        W 6795  17.302   1.991  13.925
41536W        W 6796  26.061  34.606   0.321
41537W        W 6797   2.682  20.023  13.943
41538W        W 6798  26.890  42.202   3.769
41539W        W 6799   4.637  24.905   1.829
41540W        W 6800  18.200  35.588   2.316
41541W        W 6801  16.799   3.066  11.680
41542W        W 6802  34.402  37.039   3.202
41543W        W 6803  24.324  13.332  14.477
41544W        W 6804  19.124  30.834   0.375
41545W        W 6805  16.450  17.109  13.426
41546W        W 6806  26.747  42.887   2.370
41547W        W 6807  28.370  27.583   2.194
41548W        W 6808  25.482   9.430  14.565
41549W        W 6809   5.436   4.516   4.114
41550W        W 6810   1.403  29.458   0.006
41551W        W 6811  16.135  37.434   4.403
41552W        W 6812  21.074   7.681  13.429
41553W        W 6813   3.635   1.493   4.520
41554W        W 6814  41.418  11.318  12.164
41555W        W 6815  37.850  20.107   0.146
41556W        W 6816  39.077  38.860  14.031
41557W        W 6817   8.195  19.893   2.723
41558W        W 6818  44.934   5.903   2.686
41559W        W 6819  37.268  23.498   3.693
41560W        W 6820   2.977  22.622  10.785
41561W        W 6821  13.573  41.569  11.533
41562W        W 6822  15.307  43.374   4.495
41563W        W 6823  22.177  43.066  13.363
41564W        W 6824   0.329  16.207   3.865
41565W        W 6825  39.076  21.713  12.425
41566W        W 6826  41.261  20.889  13.557
41567W        W 6827  27.202   8.726  14.305
41568W        W 6828  20.181  16.828   0.018
41569W        W 6829  43.965  41.399  10.956
41570W        W 6830  39.302   1.277   2.675
41571W        W 6831  44.667  16.273  14.839
41572W        W 6832  26.974  39.405   4.614
41573W        W 6833  14.087   4.852  12.384
41574W        W 6834  43.243  16.594   1.400
41575W        W 6835   9.102  16.937   0.068
41576W        W 6836  32.977  16.803   2.255
41577W        W 6837  22.217  25.628  10.687
41578W        W 6838  12.733  29.695   2.260
41579W        W 6839  20.476  43.556   1.284
41580W        W 6840  30.692  38.412   4.596
41581W        W 6841  19.300  18.947   0.368
41582W        W 6842  28.505  35.857  14.793
41583W        W 6843  16.713  22.972  12.974
41584W        W 6844  18.201  34.042  14.509
41585W        W 6845  30.896  41.875   1.335
41586W        W 6846  13.875  17.797   0.124
41587W        W 6847  26.966   2.755  14.655
41588W        W 6848   9.762  15.067  13.337
41589W        W 6849  35.603  24.408  11.908
41590W        W 6850  37.615   0.562   1.149
41591W        W 6851  35.939  17.567  14.803
41592W        W 6852   4.199  42.415   4.791
41593W        W 6853  17.178  11.990  11.045
41594W        W 6854  41.207   0.709  11.782
41595W        W 6855   0.866  32.074  13.049
41596W        W 6856  22.682  40.721  12.973
41597W        W 6857  37.854  36.977  10.896
41598W        W 6858   6.619  35.860  14.947
41599W        W 6859  29.517  30.089   1.355
41600W        W 6860   5.367  29.278   3.328
41601W        W 6861   0.178  24.039  13.347
41602W        W 6862  36.414  27.135   1.292
41603W        W 6863  11.899  21.409   4.877
41604W        W 6864  25.179   9.801  12.880
41605W        W 6865  30.807  12.707  11.570
41606W        W 6866   8.811  37.515   5.072
41607W        W 6867  17.274  14.867   1.090
41608W        W 6868  41.387  14.645   1.872
41609W        W 6869  18.718  22.965   1.725
41610W        W 6870  20.241  41.403   1.794
41611W        W 6871   8.738   3.165  14.406
41612W        W 6872   6.818   8.807  14.430
41613W        W 6873  36.963   5.240  12.229
41614W        W 6874   0.029  16.713   0.959
41615W        W 6875  10.099  20.218   4.453
41616W        W 6876  16.605  42.349   2.340
41617W        W 6877  33.707   9.158   0.218
41618W        W 6878  41.327   3.738   0.270
41619W        W 6879   2.841  34.897   2.028
41620W        W 6880   7.804  44.706  12.151
41621W        W 6881  29.145  25.504   9.953
41622W        W 6882  31.127  38.578   4.882
41623W        W 6883  30.382  26.992   1.765
41624W        W 6884  39.238  36.247  11.908
41625W        W 6885  41.486  33.547   0.098
41626W        W 6886  14.008   1.284  11.560
41627W        W 6887  33.435  23.909  11.681
41628W        W 6888  25.139  32.279   4.639
41629W        W 6889  22.516   0.483   3.716
41630W        W 6890  34.580  23.692   1.348
41631W        W 6891   7.106  24.120  12.108
41632W        W 6892  24.285  43.078  13.543
41633W        W 6893  40.352  26.915  13.554
41634W        W 6894   8.505  11.017   3.284
41635W        W 6895   6.334   0.945  11.104
41636W        W 6896  31.468  37.587   2.436
41637W        W 6897  36.444   2.399  14.546
41638W        W 6898   8.900  15.303   1.423
41639W        W 6899  26.212  25.879  11.109
41640W        W 6900  11.654  40.423   2.066
41641W        W 6901  39.975  36.558  13.383
41642W        W 6902  14.114  40.596  10.777
41643W        W 6903   8.868  39.479   0.329
41644W        W 6904  29.932   5.802   0.360
41645W        W 6905   7.391  11.728   0.571
41646W        W 6906  34.852  41.712  13.482
41647W        W 6907   0.954  35.624   0.833
41648W        W 6908  17.041  14.683   2.572
41649W        W 6909  14.895  18.797  13.361
41650W        W 6910   9.142  15.208   0.982
41651W        W 6911  29.368  32.347  11.160
41652W        W 6912  44.408  23.612   1.405
41653W        W 6913  43.758  11.559   0.528
41654W        W 6914  20.492   3.303   0.365
41655W        W 6915  43.104  42.667   3.744
41656W        W 6916  41.541   6.624  12.707
41657W        W 6917  13.459   0.692  12.889
41658W        W 6918   8.842  43.108  10.803
41659W        W 6919  32.374  37.957   2.224
41660W        W 6920  40.901  16.639  13.547
41661W        W 6921  12.881  17.105  12.628
41662W        W 6922  26.104  31.977   3.364
41663W        W 6923   0.944  13.632  11.864
41664W        W 6924  42.526  39.899  13.412
41665W        W 6925  33.497  13.822  13.922
41666W        W 6926  36.819  29.594   4.065
41667W        W 6927  24.707  22.628   3.226
41668W        W 6928  41.695  23.263  11.713
41669W        W 6929  23.009  27.072   2.873
41670W        W 6930   3.504  30.452   0.029
41671W        W 6931  27.589   8.275   2.832
41672W        W 6932  35.500  31.404   3.223
41673W        W 6933  39.908   2.377  10.844
41674W        W 6934  39.415  41.256  10.703
41675W        W 6935  28.682  40.021  13.546
41676W        W 6936   8.331  33.038  14.986
41677W        W 6937  42.734  13.000  10.672
41678W        W 6938   9.454  22.897   2.324
41679W        W 6939  35.118  14.588   1.330
41680W        W 6940  35.387  35.632   2.850
41681W        W 6941  41.932   7.390  12.148
41682W        W 6942  40.505  33.037   4.617
41683W        W 6943  14.099  44.747   0.730
41684W        W 6944   1.916   4.782   2.597
41685W        W 6945  23.478  33.135  10.695
41686W        W 6946  14.170  35.699  12.722
41687W        W 6947  29.003   0.852  11.697
41688W        W 6948  13.241   2.516   1.015
41689W        W 6949   8.831  18.038  11.826
41690W        W 6950  26.665  31.711   0.287
41691W        W 6951  26.025   2.252   3.403
41692W        W 6952  14.568  31.461  14.844
41693W        W 6953  27.077  36.356   3.277
41694W        W 6954  29.618  20.698   2.696
41695W        W 6955  24.990  29.985   4.626
41696W        W 6956  43.457  31.372   1.278
41697W        W 6957  40.689  10.730  12.480
41698W        W 6958   1.483  27.164  13.596
41699W        W 6959   2.452   7.233   1.847
41700W        W 6960  13.216  43.795   3.529
41701W        W 6961   2.480  22.671  14.298
41702W        W 6962  29.352  26.116  13.413
41703W        W 6963  25.979  32.858   2.386
41704W        W 6964  40.114  23.582  13.501
41705W        W 6965  43.058  14.086   0.714
41706W        W 6966  40.532  34.026  11.135
41707W        W 6967  22.765  13.873  12.660
41708W        W 6968   0.713  44.401  10.654
41709W        W 6969  18.261  37.437   4.229
41710W        W 6970  34.551  10.364  10.277
41711W        W 6971  39.346  11.764  14.418
41712W        W 6972  41.560  43.226  11.072
41713W        W 6973  40.934   9.351  14.354
41714W        W 6974  41.359  26.148   3.407
41715W        W 6975  37.614   1.540  12.913
41716W        W 6976  16.188   8.357  12.859
41717W        W 6977  40.972  22.638  13.033
41718W        W 6978   8.152  29.342  12.028
41719W        W 6979  39.572  17.658  11.669
41720W        W 6980   4.348  19.496   3.785
41721W        W 6981  30.602  22.862  10.804
41722W        W 6982  15.552  22.644  11.233
41723W        W 6983  26.135  35.378   3.144
41724W        W 6984  27.989  11.723   1.530
41725W        W 6985   7.251  19.581   3.119
41726W        W 6986  30.105  36.635   4.625
41727W        W 6987  15.770  20.981   2.139
41728W        W 6988  12.843  15.061  12.099
41729W        W 6989  21.597  34.163   0.342
41730W        W 6990   0.042  14.989   4.464
41731W        W 6991   8.982   2.992  13.028
41732W        W 6992   2.293   6.850   2.766
41733W        W 6993   2.232  15.668   4.630
41734W        W 6994  17.081  10.983   4.557
41735W        W 6995   5.717  38.068   3.146
41736W        W 6996   9.364  29.876   2.317
41737W        W 6997  25.598  33.127   0.241
41738W        W 6998  25.688  43.358   4.345
41739W        W 6999  37.339  42.750   3.908
41740W        W 7000   7.668  27.139   1.825
41741W        W 7001  19.237  39.785  11.504
41742W        W 7002  34.308  16.188  11.983
41743W        W 7003  12.269  23.927  14.518
41744W        W 7004  16.162  33.522  11.122
41745W        W 7005   9.283   5.302   1.765
41746W        W 7006   5.065   4.656  11.770
41747W        W 7007  40.599   4.968   5.044
41748W        W 7008  22.413  35.555   1.640
41749W        W 7009  38.600   5.909   3.938
41750W        W 7010  39.159  11.270  11.470
41751W        W 7011  33.454   2.324   1.685
41752W        W 7012  44.019   2.357   1.141
41753W        W 7013   6.579  29.381  12.614
41754W        W 7014  25.670   2.225   0.753
41755W        W 7015   0.982   9.217  12.064
41756W        W 7016  23.134  10.243  13.670
41757W        W 7017  14.056  10.861  14.304
41758W        W 7018  26.187  27.049   2.129
41759W        W 7019  17.228  26.182   3.853
41760W        W 7020   6.735   0.362   0.808
41761W        W 7021  16.002  24.949   2.217
41762W        W 7022   8.935  34.472   0.021
41763W        W 7023  23.504   0.920  14.810
41764W        W 7024  15.658  23.091   1.612
41765W        W 7025  18.335   7.578   1.993
41766W        W 7026  18.701  37.287  13.892
41767W        W 7027  44.057  37.043   1.806
41768W        W 7028  23.062  22.273   4.573
41769W        W 7029  16.804   0.015  10.636
41770W        W 7030  36.604  23.936  11.083
41771W        W 7031  20.748  15.653   3.705
41772W        W 7032   3.909  17.168   2.761
41773W        W 7033   2.156  41.142  10.630
41774W        W 7034  29.469  42.987   4.237
41775W        W 7035  26.884  23.514  10.515
41776W        W 7036   5.424  28.257  13.928
41777W        W 7037  19.964   1.329   1.504
41778W        W 7038  28.400  14.244   1.557
41779W        W 7039  26.039   3.191  14.121
41780W        W 7040   6.498  41.950  13.773
41781W        W 7041  28.807  32.005   3.679
41782W        W 7042  10.089  27.550  10.572
41783W        W 7043  38.739  19.494   4.164
41784W        W 7044   8.619  33.769   4.634
41785W        W 7045   2.931   9.348   4.587
41786W        W 7046  11.350  22.803  10.744
41787W        W 7047   2.546  26.953   1.370
41788W        W 7048   4.997  25.098  13.511
41789W        W 7049  30.961  36.337  12.931
41790W        W 7050   0.229  31.217   1.492
41791W        W 7051   8.202  39.794  12.893
41792W        W 7052  32.154   5.490   1.367
41793W        W 7053  16.714   0.153   4.602
41794W        W 7054   5.807  15.652   4.333
41795W        W 7055  15.806  40.095  13.420
41796W        W 7056  27.165   8.222  11.504
41797W        W 7057  38.031  28.342  13.181
41798W        W 7058  35.855  40.854   0.467
41799W        W 7059  35.079  29.828  14.178
41800W        W 7060  13.468  16.713   3.172
41801W        W 7061  42.302  37.004   3.419
41802W        W 7062   4.728   5.902  10.711
41803W        W 7063  18.120   3.869  10.497
41804W        W 7064  41.589  42.415   0.710
41805W        W 7065  20.213  22.637  13.950
41806W        W 7066  36.080  34.248  13.870
41807W        W 7067  40.044  23.040   3.127
41808W        W 7068  26.988  27.085  11.595
41809W        W 7069  13.720  43.099  11.614
41810W        W 7070   4.271  44.208  10.894
41811W        W 7071  15.299  44.885   3.150
41812W        W 7072  44.318  42.701  10.357
41813W        W 7073  30.315  11.279   1.435
41814W        W 7074  37.021   4.403  13.899
41815W        W 7075  16.939  13.732  13.249
41816W        W 7076  27.646   6.357  11.086
41817W        W 7077  32.400  23.453   0.669
41818W        W 7078  44.968   4.376  11.087
41819W        W 7079  14.674  23.783  12.123
41820W        W 7080  11.191  29.108   1.719
41821W        W 7081   4.636  37.905   0.492
41822W        W 7082  21.537   0.510  14.847
41823W        W 7083  27.475  13.716   3.130
41824W        W 7084  18.657  41.328  11.112
41825W        W 7085  44.114  24.434   4.167
41826W        W 7086   6.208  23.491   4.591
41827W        W 7087  16.703   9.222  14.908
41828W        W 7088   7.978   3.879   3.266
41829W        W 7089  23.355  29.492  12.083
41830W        W 7090  40.418  24.522   2.833
41831W        W 7091  30.536  23.618  12.570
41832W        W 7092  29.022   2.683  10.413
41833W        W 7093  16.879  16.613   4.600
41834W        W 7094  21.160   1.243   1.689
41835W        W 7095  33.206  37.048  12.051
41836W        W 7096   9.675  40.895   0.728
41837W        W 7097  11.187  38.902   3.603
41838W        W 7098  39.475  10.946  11.150
41839W        W 7099   5.815  21.012   2.678
41840W        W 7100   0.812  33.030   1.716
41841W        W 7101   4.932  41.934  13.754
41842W        W 7102  19.793   1.761   2.854
41843W        W 7103  11.645  24.139  12.477
41844W        W 7104  17.693  37.718  14.880
41845W        W 7105   5.944  28.096  11.856
41846W        W 7106  19.804   2.941   4.168
41847W        W 7107  19.515  40.762   1.842
41848W        W 7108   7.519  44.308   2.773
41849W        W 7109   4.665  33.900  12.614
41850W        W 7110  29.374   3.227  12.819
41851W        W 7111  11.324   4.858   0.745
41852W        W 7112   4.996  29.548  12.149
41853W        W 7113  31.608  11.115  12.485
41854W        W 7114  38.363  17.099  12.370
41855W        W 7115  20.970  34.813   4.704
41856W        W 7116   3.597  28.873  13.883
41857W        W 7117   7.787  13.621   0.762
41858W        W 7118  40.436  18.580   1.850
41859W        W 7119  39.939  22.548   1.259
41860W        W 7120   2.707   2.216  12.413
41861W        W 7121  29.307  28.555  10.774
41862W        W 7122  32.405   0.765  11.974
41863W        W 7123  32.673  43.497   0.218
41864W        W 7124  23.815   6.926   3.231
41865W        W 7125  18.614  14.300   2.475
41866W        W 7126  29.624  26.818   1.249
41867W        W 7127   4.368  10.870   4.519
41868W        W 7128  35.021  28.976  12.580
41869W        W 7129  19.236  28.107   1.470
41870W        W 7130  14.711   3.374  13.036
41871W        W 7131   7.515  32.285   0.740
41872W        W 7132  35.617  12.697   2.853
41873W        W 7133  31.138  42.323   1.033
41874W        W 7134  19.110  34.841   2.365
41875W        W 7135   0.473  20.658   1.484
41876W        W 7136   0.665  38.042  14.005
41877W        W 7137  33.413   0.867   1.784
41878W        W 7138  34.920  10.202  11.561
41879W        W 7139   4.874  33.131  14.059
41880W        W 7140  25.534  25.552  14.913
41881W        W 7141  14.821   4.919  11.560
41882W        W 7142  31.038  30.380  10.791
41883W        W 7143  13.879  38.060  12.933
41884W        W 7144  37.833   4.175  12.880
41885W        W 7145   6.819  36.130   0.379
41886W        W 7146   0.181  21.220  11.500
41887W        W 7147  18.215  30.129  11.697
41888W        W 7148   8.321  28.926  12.936
41889W        W 7149  30.472   6.469   4.365
41890W        W 7150  37.958  43.529   4.127
41891W        W 7151  44.093  14.688  12.458
41892W        W 7152  22.249  23.009   2.078
41893W        W 7153   7.181  23.061  11.195
41894W        W 7154  20.695  10.681  10.605
41895W        W 7155  43.530  37.492  11.667
41896W        W 7156  23.189   4.508   2.404
41897W        W 7157  34.171  26.958  11.105
41898W        W 7158   3.276  31.822   2.813
41899W        W 7159   5.264  12.497  14.847
41900W        W 7160  35.516  28.854  13.224
41901W        W 7161  22.233  22.016  14.878
41902W        W 7162   9.409   2.841  13.325
41903W        W 7163  40.950  22.197  13.391
41904W        W 7164  42.268  14.352   3.295
41905W        W 7165  28.648  36.965  10.294
41906W        W 7166   2.395  35.158   4.241
41907W        W 7167  41.333   6.670   4.176
41908W        W 7168  14.305  41.590  14.454
41909W        W 7169  13.672   5.310   0.705
41910W        W 7170  14.250  21.626  11.658
41911W        W 7171  42.952  22.890  12.340
41912W        W 7172  31.070   3.853  14.903
41913W        W 7173  19.985  38.906   0.334
41914W        W 7174  30.197  28.571  12.999
41915W        W 7175  21.929  42.821  13.767
41916W        W 7176  42.815  11.993   2.120
41917W        W 7177   3.767   7.680  11.957
41918W        W 7178  41.800  25.013   0.037
41919W        W 7179   1.839   3.993  12.075
41920W        W 7180   6.775  29.867   2.755
41921W        W 7181  10.021  18.137   3.362
41922W        W 7182   3.296  38.269   0.906
41923W        W 7183  21.001  40.211   3.522
41924W        W 7184  21.474  14.210   2.968
41925W        W 7185  17.118  28.456   3.335
41926W        W 7186   6.265  24.138  13.942
41927W        W 7187   6.391   2.516  10.027
41928W        W 7188  27.891  38.806  10.803
41929W        W 7189  32.899  36.508   0.679
41930W        W 7190  28.709  37.505   4.810
41931W        W 7191  13.126   4.862  13.636
41932W        W 7192  28.655  22.078  12.891
41933W        W 7193  33.652  31.641   4.572
41934W        W 7194  12.546  38.518   2.841
41935W        W 7195   2.786  12.826   0.119
41936W        W 7196  33.012   3.021  14.172
41937W        W 7197   0.234  14.672  12.237
41938W        W 7198  40.348  18.819  11.181
41939W        W 7199  43.328  18.932  12.951
41940W        W 7200  29.050   1.900   2.932
41941W        W 7201  10.752  17.104  10.875
41942W        W 7202  32.628  42.365  14.432
41943W        W 7203  21.751  21.569   1.536
41944W        W 7204  14.805  42.893  14.927
41945W        W 7205   8.834  42.588  10.800
41946W        W 7206   2.565  21.434   4.532
41947W        W 7207  41.575  43.114  13.884
41948W        W 7208  15.691  37.921   2.689
41949W        W 7209  13.347  18.185  12.039
41950W        W 7210  36.950  41.629   4.507
41951W        W 7211  21.001  14.284  13.840
41952W        W 7212  28.970  26.979   5.408
41953W        W 7213  44.839   3.410   1.800
41954W        W 7214  16.009   0.502   1.263
41955W        W 7215  38.872   9.147   3.706
41956W        W 7216  43.801   6.208  10.625
41957W        W 7217   2.583  41.591   4.220
41958W        W 7218   0.389  15.772   0.708
41959W        W 7219  35.975  20.339  12.482
41960W        W 7220  27.402   3.578  13.871
41961W        W 7221  16.639  41.722  12.043
41962W        W 7222  37.282  38.555  12.865
41963W        W 7223  15.627   9.577   0.503
41964W        W 7224  28.622  23.908   2.842
41965W        W 7225  19.569  37.809   4.526
41966W        W 7226  40.337   9.359  14.827
41967W        W 7227  41.893  40.924  10.978
41968W        W 7228  43.985  33.335   0.408
41969W        W 7229  16.369  27.265   3.176
41970W        W 7230  21.189  12.416  13.989
41971W        W 7231  34.447  41.777   1.922
41972W        W 7232  20.179  26.250  11.470
41973W        W 7233  31.491  42.220   4.426
41974W        W 7234  24.519  23.836   3.700
41975W        W 7235   9.847  29.887   0.049
41976W        W 7236  17.974  31.677   0.919
41977W        W 7237   7.706  40.759   3.730
41978W        W 7238  15.245  41.022   2.125
41979W        W 7239  37.776  12.571   3.594
41980W        W 7240  11.908  19.639  12.139
41981W        W 7241  13.669  31.708   4.755
41982W        W 7242  14.071  10.128  10.945
41983W        W 7243  28.864  31.437   0.048
41984W        W 7244  33.494  19.964   4.791
41985W        W 7245   3.970  39.612  12.976
41986W        W 7246  36.005   9.262   2.612
41987W        W 7247   4.190   1.893  14.035
41988W        W 7248  25.409  16.570  10.163
41989W        W 7249  39.438  39.812   4.350
41990W        W 7250   7.356   4.014   2.276
41991W        W 7251   2.469   5.295  13.214
41992W        W 7252  18.313  15.373  13.423
41993W        W 7253  43.286   1.254   4.867
41994W        W 7254   3.936   4.886  13.110
41995W        W 7255  26.687  30.576   2.322
41996W        W 7256   0.908  18.791  12.926
41997W        W 7257  38.926  14.395  11.429
41998W        W 7258  13.873  38.036  14.261
41999W        W 7259  36.882  42.854  14.868
42000W        W 7260  43.722   3.437   4.613
42001W        W 7261  39.515  15.208   1.371
42002W        W 7262  43.329  24.176   2.510
42003W        W 7263  21.861  33.115   1.329
42004W        W 7264  29.513  26.611  13.566
42005W        W 7265  10.345  25.945  14.564
42006W        W 7266   8.187  23.073   1.918
42007W        W 7267  14.747   6.390  14.479
42008W        W 7268   1.129  19.252  13.021
42009W        W 7269  41.637  22.189   1.867
42010W        W 7270   0.871  43.964  13.550
42011W        W 7271  14.382   9.426   0.065
42012W        W 7272  38.812   3.677   2.321
42013W        W 7273  16.219   9.178  11.582
42014W        W 7274  29.395  42.249   3.628
42015W        W 7275  33.318  37.817  12.225
42016W        W 7276  20.217  30.001  13.862
42017W        W 7277  38.536  33.438   0.373
42018W        W 7278   8.520  41.880  14.289
42019W        W 7279  42.031  37.988   3.175
42020W        W 7280  22.501  19.609   0.717
42021W        W 7281  21.235  30.386  14.387
42022W        W 7282  37.577  14.290   2.141
42023W        W 7283   0.270  27.102  10.548
42024W        W 7284  23.130  44.872  13.433
42025W        W 7285  29.101  19.684   2.618
42026W        W 7286   4.016  14.406   3.923
42027W        W 7287  34.011  12.510  13.951
42028W        W 7288  33.215  18.792  14.769
42029W        W 7289  11.139  15.735  11.178
42030W        W 7290  21.499  13.688   1.764
42031W        W 7291  15.816   1.904   1.902
42032W        W 7292  11.429  23.700   1.725
42033W        W 7293  12.239   8.978   5.574
42034W        W 7294  41.866  18.645  12.944
42035W        W 7295  33.992  32.138  12.784
42036W        W 7296  30.773  35.628   1.103
42037W        W 7297  35.887  23.626  14.367
42038W        W 7298  19.271  40.528  12.055
42039W        W 7299  20.568  18.911   1.426
42040W        W 7300  18.846  18.137  13.897
42041W        W 7301  26.404  17.274   1.511
42042W        W 7302   6.999  44.633   1.398
42043W        W 7303  29.367  32.118   0.426
42044W        W 7304  35.885  11.390  13.882
42045W        W 7305  18.335  21.553   2.013
42046W        W 7306  44.352   7.731   2.619
42047W        W 7307  28.436  39.858   1.653
42048W        W 7308  23.085  30.009  12.107
42049W        W 7309  27.174  30.398  12.132
42050W        W 7310  20.799  23.134   3.211
42051W        W 7311  26.334   6.755  12.342
42052W        W 7312  25.225  33.419   1.120
42053W        W 7313  10.452  10.893   4.136
42054W        W 7314  18.796   2.812  11.557
42055W        W 7315  39.368  24.402  13.985
42056W        W 7316  18.107  25.503  13.273
42057W        W 7317   8.836  36.289  10.607
42058W        W 7318  33.047  17.484  13.074
42059W        W 7319  12.357  35.585  12.215
42060W        W 7320   9.364  33.072   2.101
42061W        W 7321  25.356  43.044   4.095
42062W        W 7322  22.012  40.768  14.456
42063W        W 7323  17.169  19.306  14.311
42064W        W 7324   3.855   6.825  11.596
42065W        W 7325  31.026  10.513  13.788
42066W        W 7326  17.565  40.274   0.858
42067W        W 7327   8.270   8.071   2.547
42068W        W 7328  17.709   0.756  11.095
42069W        W 7329  37.148  30.152   1.379
42070W        W 7330   3.388  42.611   5.087
42071W        W 7331  27.432  43.928   3.777
42072W        W 7332  12.887  20.342   0.439
42073W        W 7333  28.020  10.049   1.697
42074W        W 7334  15.072  10.886  12.399
42075W        W 7335  32.911  16.687  10.698
42076W        W 7336  23.094  22.743   3.716
42077W        W 7337  18.492  44.751   4.459
42078W        W 7338  32.638   9.002  14.427
42079W        W 7339  32.612   3.025  13.089
42080W        W 7340   0.921  44.230   4.476
42081W        W 7341  14.163  23.482  12.058
42082W        W 7342   4.061  23.774   2.319
42083W        W 7343  34.419  23.122   4.098
42084W        W 7344  16.335  19.050   1.327
42085W        W 7345  43.039  16.699  13.839
42086W        W 7346  18.274   2.355  11.981
42087W        W 7347   7.641  30.126   0.734
42088W        W 7348  14.659  41.328  12.909
42089W        W 7349   8.965  33.853   1.789
42090W        W 7350  38.973  11.672   1.396
42091W        W 7351  34.991  26.086   2.869
42092W        W 7352  14.708  31.948  13.088
42093W        W 7353  32.462  12.396  11.177
42094W        W 7354  28.983  15.253   4.403
42095W        W 7355  17.396  23.678   0.188
42096W        W 7356  14.236  12.118   1.396
42097W        W 7357  30.093   7.316   4.173
42098W        W 7358   0.255  10.885   2.733
42099W        W 7359   5.900  36.064   3.295
42100W        W 7360  11.274  16.616   3.143
42101W        W 7361  34.854  32.874  11.585
42102W        W 7362   0.492  40.741   2.771
42103W        W 7363  29.962  12.530  12.004
42104W        W 7364  10.453  31.433  14.820
42105W        W 7365  13.803   9.543   1.817
42106W        W 7366  20.073  31.974  10.615
42107W        W 7367  40.892   3.737  11.179
42108W        W 7368  35.585  25.710   5.222
42109W        W 7369  19.204  24.096  14.038
42110W        W 7370  44.302  40.477  10.003
42111W        W 7371  38.336  39.894  12.198
42112W        W 7372  31.294  43.485   1.304
42113W        W 7373  32.096   8.386  11.201
42114W        W 7374  32.031   7.935   0.998
42115W        W 7375   0.467  38.062   2.561
42116W        W 7376   6.601  29.689  14.358
42117W        W 7377  44.282  25.779   3.066
42118W        W 7378  17.099  27.029  11.069
42119W        W 7379  30.038  34.343  14.563
42120W        W 7380  25.574  13.870   2.481
42121W        W 7381  36.834  17.384   0.263
42122W        W 7382  13.477  40.048   2.277
42123W        W 7383  24.604  41.883   3.214
42124W        W 7384  12.898  34.353   3.195
42125W        W 7385  42.300  29.093   1.699
42126W        W 7386  26.967  12.434   4.884
42127W        W 7387  33.538  38.032   3.760
42128W        W 7388  32.696  26.112   3.199
42129W        W 7389   5.748  42.506   1.055
42130W        W 7390  17.777   1.392   1.422
42131W        W 7391  12.648  12.678   4.654
42132W        W 7392   6.803   3.261   4.280
42133W        W 7393  18.150   8.754   4.155
42134W        W 7394  17.657   1.580   3.788
42135W        W 7395  26.027  19.217   1.385
42136W        W 7396  18.321  43.222  12.151
42137W        W 7397  44.720  16.390   0.706
42138W        W 7398  30.553  40.567  13.155
42139W        W 7399  13.312  41.543  12.600
42140W        W 7400  19.111  44.247  12.265
42141W        W 7401   9.089   3.502  13.894
42142W        W 7402  27.976  10.505  10.743
42143W        W 7403  18.169  21.302   0.700
42144W        W 7404  32.468  31.639  14.953
42145W        W 7405  14.520  20.458  11.490
42146W        W 7406   5.243  34.865   0.982
42147W        W 7407  14.529   9.107   4.086
42148W        W 7408  18.516  34.626  10.245
42149W        W 7409  41.826   8.763  12.443
42150W        W 7410   7.861  34.168   4.113
42151W        W 7411   9.143  22.823   0.932
42152W        W 7412  17.590   3.819   0.325
42153W        W 7413   5.528  25.766  10.406
42154W        W 7414   0.333  40.717  14.582
42155W        W 7415   8.112   2.630   2.827
42156W        W 7416  16.122  37.116  12.895
42157W        W 7417  18.028  17.244   5.006
42158W        W 7418  40.054   9.829   3.143
42159W        W 7419  15.801   6.420   0.878
42160W        W 7420  36.374  39.058   3.903
42161W        W 7421  16.316  42.883  12.603
42162W        W 7422  33.379   3.462  14.910
42163W        W 7423  39.089  18.028  13.381
42164W        W 7424  25.678  37.890  13.429
42165W        W 7425  20.384  32.828   1.310
42166W        W 7426   6.199  12.766   3.862
42167W        W 7427  37.431  23.315  14.101
42168W        W 7428   4.291  12.714   1.149
42169W        W 7429   7.496   3.457   0.475
42170W        W 7430   2.725  29.852   4.915
42171W        W 7431  44.755   5.722   2.245
42172W        W 7432  44.574  30.937   3.618
42173W        W 7433  31.203  10.748   2.354
42174W        W 7434  33.511  29.145   3.354
42175W        W 7435  43.369  13.197   1.713
42176W        W 7436   1.833  42.945  11.530
42177W        W 7437  17.253  23.213  12.064
42178W        W 7438  17.298  13.524  12.020
42179W        W 7439  22.559  16.981   3.796
42180W        W 7440  35.411  31.166  14.925
42181W        W 7441   4.471  37.983   1.477
42182W        W 7442  12.312  33.483  12.827
42183W        W 7443   1.231  14.673   0.039
42184W        W 7444   4.757  36.996   3.825
42185W        W 7445  44.903  38.352   2.157
42186W        W 7446  19.136   8.827  10.696
42187W        W 7447  24.665  11.823  13.551
42188W        W 7448  39.018   5.391  14.967
42189W        W 7449  13.154  20.143   2.269
42190W        W 7450  38.379  42.339   3.166
42191W        W 7451  44.038   7.944  12.384
42192W        W 7452  15.149   7.725  14.448
42193W        W 7453  42.198  29.410   0.318
42194W        W 7454   7.743  25.553   4.958
42195W        W 7455  31.961  13.858  14.441
42196W        W 7456  31.104  40.806   3.717
42197W        W 7457  27.448  39.465   2.313
42198W        W 7458   7.884  29.045   4.355
42199W        W 7459   7.452  41.877   3.498
42200W        W 7460   4.995  17.296   0.402
42201W        W 7461  30.911   2.533  12.873
42202W        W 7462   3.570  36.452   5.277
42203W        W 7463  44.855  38.550  11.531
42204W        W 7464  34.083  26.517  12.128
42205W        W 7465  38.343  18.651  11.180
42206W        W 7466  25.625  44.377  12.960
42207W        W 7467  30.635  34.325   4.143
42208W        W 7468  14.826  41.604   3.230
42209W        W 7469  17.571   1.889   1.386
42210W        W 7470   7.591   9.729  11.970
42211W        W 7471  29.857  18.047  12.880
42212W        W 7472   5.326  17.318  12.097
42213W        W 7473  23.734  36.232  12.969
42214W        W 7474  10.097  24.183   0.824
42215W        W 7475   3.014   5.865  13.472
42216W        W 7476  27.704   0.129   4.102
42217W        W 7477   6.576  16.398   2.921
42218W        W 7478  34.054   2.514   0.750
42219W        W 7479  23.041  29.955   1.950
42220W        W 7480  13.879   3.374   0.516
42221W        W 7481  31.621  31.223   0.868
42222W        W 7482  29.399  28.621  14.794
42223W        W 7483  13.576  10.944   4.617
42224W        W 7484  30.235  26.626  14.583
42225W        W 7485  10.383  27.154   0.328
42226W        W 7486  33.649  36.590   3.996
42227W        W 7487  27.894   8.959   2.377
42228W        W 7488  42.747  11.058   4.880
42229W        W 7489   9.716  39.496  14.551
42230W        W 7490  12.551  30.587   0.768
42231W        W 7491   7.786  22.123   3.706
42232W        W 7492   7.874  34.717   1.094
42233W        W 7493   5.355   7.415  13.345
42234W        W 7494  34.973  14.623   1.858
42235W        W 7495  38.816  24.087   4.716
42236W        W 7496  37.159  20.854  13.723
42237W        W 7497  15.750   1.634  11.135
42238W        W 7498  22.192   3.205  13.049
42239W        W 7499  34.581  28.488   2.608
42240W        W 7500  39.347  28.477   3.401
42241W        W 7501  19.304  19.971   0.499
42242W        W 7502  41.490   5.592  14.297
42243W        W 7503  34.294  26.607   4.960
42244W        W 7504  21.084  33.680  10.651
42245W        W 7505   6.488  18.691  14.951
42246W        W 7506  16.484  21.115  12.144
42247W        W 7507   8.155  15.929   4.114
42248W        W 7508  12.530  43.882   3.885
42249W        W 7509  43.241  11.220   1.474
42250W        W 7510  39.820  40.455   2.117
42251W        W 7511  36.341  32.717   1.790
42252W        W 7512  16.238  20.882  10.981
42253W        W 7513  15.802  44.207   5.046
42254W        W 7514  15.767  33.462   4.614
42255W        W 7515  37.726  15.607   1.225
42256W        W 7516  31.056   2.984   1.306
42257W        W 7517  36.039  24.471   3.318
42258W        W 7518  31.604  27.936   3.664
42259W        W 7519  23.793  29.917   4.466
42260W        W 7520   2.797  14.303  12.688
42261W        W 7521  15.124  17.483   1.914
42262W        W 7522   1.472  44.526  11.114
42263W        W 7523   8.813  14.622  14.257
42264W        W 7524   5.937  36.202   0.565
42265W        W 7525  41.932  30.066   3.192
42266W        W 7526  32.325  28.627  12.584
42267W        W 7527  17.292   4.763   3.541
42268W        W 7528  19.621  43.780   4.562
42269W        W 7529  16.153  25.078  12.062
42270W        W 7530  22.667  41.875   4.527
42271W        W 7531  34.298  21.684  13.200
42272W        W 7532  37.251  21.082   2.341
42273W        W 7533  38.232  15.484  10.093
42274W        W 7534  17.150  37.861  11.107
42275W        W 7535  32.585  40.577   1.841
42276W        W 7536  32.115   0.765  11.546
42277W        W 7537  36.773  30.455   5.128
42278W        W 7538  31.565  15.405   2.228
42279W        W 7539  12.987  36.997   2.010
42280W        W 7540  18.971  42.707   4.265
42281W        W 7541  24.259  44.381   0.865
42282W        W 7542  12.730   6.713  12.067
42283W        W 7543  31.142  34.422   0.362
42284W        W 7544  14.124  44.006   4.550
42285W        W 7545  32.852  31.165  13.680
42286W        W 7546  44.341  13.258   2.540
42287W        W 7547  27.553  34.513  11.390
42288W        W 7548   4.463  39.867   2.774
42289W        W 7549  24.158  13.943   2.260
42290W        W 7550  35.387  26.144   1.631
42291W        W 7551  13.686  26.170  12.166
42292W        W 7552  32.591  14.225  13.923
42293W        W 7553   5.109  37.604  13.397
42294W        W 7554  14.708   7.462  11.159
42295W        W 7555   8.175  18.191  11.570
42296W        W 7556  20.756  43.087   4.067
42297W        W 7557   1.006  14.859   1.287
42298W        W 7558  26.503  23.294  12.072
42299W        W 7559  31.659   8.639  12.880
42300W        W 7560  43.465  18.615  13.351
42301W        W 7561  44.207  20.293  12.542
42302W        W 7562   2.509  36.027   2.090
42303W        W 7563  27.778   5.873  11.795
42304W        W 7564   9.330  40.721  12.576
42305W        W 7565  20.285  44.894  11.127
42306W        W 7566  23.081  20.014  11.925
42307W        W 7567  31.503  26.652   3.131
42308W        W 7568  23.308  21.569  12.950
42309W        W 7569  18.706  24.598  14.574
42310W        W 7570  16.177  35.858   1.528
42311W        W 7571  43.414   3.487  11.100
42312W        W 7572  20.998  23.409   2.018
42313W        W 7573   2.607  40.303   4.126
42314W        W 7574  16.154  10.655  12.476
42315W        W 7575  34.467   4.935  10.105
42316W        W 7576  24.939   1.836   4.135
42317W        W 7577  41.501   1.262  12.918
42318W        W 7578  43.121  12.804  12.607
42319W        W 7579  35.075  39.772   3.213
42320W        W 7580  35.387  12.570  12.049
42321W        W 7581  38.101  21.602  12.563
42322W        W 7582  33.458  21.616   0.472
42323W        W 7583   7.598  12.619   0.868
42324W        W 7584  30.721  13.626   0.277
42325W        W 7585   5.111  31.090  10.310
42326W        W 7586   9.583  41.477  12.306
42327W        W 7587  23.230  43.264  10.722
42328W        W 7588   6.853  40.108   3.078
42329W        W 7589  34.636  30.759  10.819
42330W        W 7590  38.081   2.886   1.603
42331W        W 7591   5.657  42.781  13.574
42332W        W 7592  27.425  31.093   4.472
42333W        W 7593  39.460  27.232  12.973
42334W        W 7594   6.569   3.265  11.101
42335W        W 7595   8.554  35.652   2.865
42336W        W 7596  22.605  19.470  13.053
42337W        W 7597  40.272  17.810   2.377
42338W        W 7598  38.500  26.569   4.401
42339W        W 7599   4.608  31.035   3.119
42340W        W 7600  40.884  29.091   0.946
42341W        W 7601  16.126  36.673  11.051
42342W        W 7602   9.294  26.171   0.560
42343W        W 7603  25.052  22.963  11.462
42344W        W 7604  38.373   5.254   1.610
42345W        W 7605  34.922  37.039   1.318
42346W        W 7606  22.073  42.910   0.730
42347W        W 7607  34.072  42.811  10.824
42348W        W 7608   7.194  29.220  13.425
42349W        W 7609  24.130  11.187   4.221
42350W        W 7610  14.720  44.993   0.925
42351W        W 7611  27.800   4.761  13.034
42352W        W 7612  10.099  43.824   1.549
42353W        W 7613  17.777   1.025  10.656
42354W        W 7614  19.509  19.770   1.775
42355W        W 7615   5.179  41.485   3.292
42356W        W 7616  30.453  34.441   0.993
42357W        W 7617  39.072  38.597  12.510
42358W        W 7618   5.699  19.114   2.300
42359W        W 7619  12.183  10.862   2.412
42360W        W 7620  26.304  16.508  12.914
42361W        W 7621  34.078  32.023  10.038
42362W        W 7622   2.217  18.591  11.645
42363W        W 7623  12.269   7.602  13.518
42364W        W 7624  21.981  14.156   2.854
42365W        W 7625   9.242  42.942   4.636
42366W        W 7626  18.023  16.797   1.027
42367W        W 7627  12.348  12.566   1.809
42368W        W 7628  17.544  32.059   1.880
42369W        W 7629   5.327   1.696   5.364
42370W        W 7630  12.151  17.039  14.927
42371W        W 7631   1.482  37.520  13.525
42372W        W 7632  31.968  26.164  13.388
42373W        W 7633  14.853   6.030  13.790
42374W        W 7634   3.428   9.790  13.508
42375W        W 7635  13.686   2.564  11.222
42376W        W 7636  17.472  37.364   3.405
42377W        W 7637  38.925  10.915   4.517
42378W        W 7638  33.540   8.446  14.226
42379W        W 7639  14.292  10.835  10.688
42380W        W 7640  18.510  43.083  11.693
42381W        W 7641  14.665  41.417   4.787
42382W        W 7642  25.092   3.808  10.821
42383W        W 7643  27.506  11.873   0.722
42384W        W 7644  38.049  42.715   4.725
42385W        W 7645  19.711  16.401   2.786
42386W        W 7646  40.146  43.789   4.936
42387W        W 7647  36.392  31.623  14.465
42388W        W 7648   6.234  44.422   0.687
42389W        W 7649  36.832  37.117   3.194
42390W        W 7650  41.612  25.154   0.901
42391W        W 7651  23.111  44.639  11.671
42392W        W 7652   1.039  21.581  12.543
42393W        W 7653   4.205  10.875   4.026
42394W        W 7654   5.304   0.801  12.392
42395W        W 7655  37.113  21.957  11.604
42396W        W 7656  14.074  21.112  10.819
42397W        W 7657  12.136  21.484  13.313
42398W        W 7658  12.312  13.765   2.865
42399W        W 7659  11.138  22.458   4.296
42400W        W 7660   0.228  42.889  14.614
42401W        W 7661  10.460  24.100  14.364
42402W        W 7662  42.962   5.116  10.096
42403W        W 7663   3.104  30.951  11.035
42404W        W 7664   2.801  42.420   1.583
42405W        W 7665  22.628  12.632  13.923
42406W        W 7666   4.168  26.213   1.261
42407W        W 7667  32.095  15.581  13.980
42408W        W 7668  20.222  33.937   2.215
42409W        W 7669   7.358  25.232  11.258
42410W        W 7670  27.168   5.401   2.016
42411W        W 7671   0.163  17.503   2.672
42412W        W 7672  26.239  40.371   0.320
42413W        W 7673   1.828  21.762  12.987
42414W        W 7674  23.556  44.878  10.371
42415W        W 7675  28.870  17.607   3.259
42416W        W 7676  36.341  24.569   2.865
42417W        W 7677  14.598  30.906  12.503
42418W        W 7678  16.231  11.318   2.947
42419W        W 7679  20.028   6.287  10.833
42420W        W 7680  10.535  29.089  13.939
42421W        W 7681  10.362   1.009  14.460
42422W        W 7682  15.971  43.238  13.505
42423W        W 7683  18.570  43.977   4.027
42424W        W 7684   8.740   7.866   4.241
42425W        W 7685  19.700   8.874   2.903
42426W        W 7686  21.161  44.730  12.264
42427W        W 7687  26.233  28.394   2.644
42428W        W 7688  22.592  12.605  11.983
42429W        W 7689  32.683   5.982   2.204
42430W        W 7690  13.170  40.043   1.067
42431W        W 7691  39.626  36.529  14.547
42432W        W 7692   4.811  22.220  12.869
42433W        W 7693  10.679  27.959  13.881
42434W        W 7694   8.879  20.135  11.539
42435W        W 7695  36.400   9.530   1.824
42436W        W 7696  39.999  11.049   0.933
42437W        W 7697  29.960  37.840  13.483
42438W        W 7698   0.260   3.985  11.913
42439W        W 7699   0.721   6.587   1.843
42440W        W 7700  36.972   3.235   2.216
42441W        W 7701  28.062  11.133   0.326
42442W        W 7702  21.646   9.691   4.119
42443W        W 7703   5.180  14.118   5.017
42444W        W 7704  11.287  44.436   4.593
42445W        W 7705  44.602  34.996  13.513
42446W        W 7706  27.072  32.336  14.001
42447W        W 7707  28.502  25.994   4.519
42448W        W 7708  43.014   5.310  11.883
42449W        W 7709  15.624  15.622   4.025
42450W        W 7710  15.782  31.327   1.200
42451W        W 7711  33.551  20.688   2.175
42452W        W 7712  35.096  36.880  11.197
42453W        W 7713  10.221  41.010  11.130
42454W        W 7714  30.237  18.500   3.880
42455W        W 7715  12.793  34.891   3.318
42456W        W 7716  13.687  30.988   3.173
42457W        W 7717  37.121  30.482   2.103
42458W        W 7718   2.363  30.914  14.003
42459W        W 7719  37.557  21.036   1.917
42460W        W 7720  42.432  25.246   1.879
42461W        W 7721  38.951  41.608   1.911
42462W        W 7722  12.777  34.569   4.397
42463W        W 7723  38.838  15.047   3.590
42464W        W 7724   7.210  35.468   4.119
42465W        W 7725  41.041  30.203   0.324
42466W        W 7726  32.777  30.075   3.112
42467W        W 7727  25.659  17.581   0.260
42468W        W 7728  21.536  26.451   3.255
42469W        W 7729  12.411   6.197   0.891
42470W        W 7730  39.994  34.421  14.964
42471W        W 7731  20.794  33.788   0.807
42472W        W 7732  29.092  29.095  10.691
42473W        W 7733   6.197  44.542   4.226
42474W        W 7734   2.917  13.383   1.297
42475W        W 7735  24.792  15.344   2.790
42476W        W 7736   7.033   8.375  10.798
42477W        W 7737  12.238   6.727   3.398
42478W        W 7738   5.177  17.854   4.480
42479W        W 7739  25.769  28.606  13.509
42480W        W 7740  19.674  39.626  10.739
42481W        W 7741  35.773  27.142  13.015
42482W        W 7742  10.192   7.163   3.072
42483W        W 7743  13.803   0.943  14.902
42484W        W 7744  44.455  20.674   1.184
42485W        W 7745  34.759  26.671  14.757
42486W        W 7746  31.208  41.156   4.088
42487W        W 7747  10.294  34.838  12.553
42488W        W 7748  24.669   1.680   3.726
42489W        W 7749  44.799  30.198  13.011
42490W        W 7750  43.808  24.500  13.916
42491W        W 7751  27.964  14.273  10.701
42492W        W 7752  26.946  22.905  14.839
42493W        W 7753  36.488  31.949  11.523
42494W        W 7754  16.233  35.345   1.474
42495W        W 7755  37.414  41.956   4.548
42496W        W 7756   3.038   2.138  14.070
42497W        W 7757  31.856  38.348   1.752
42498W        W 7758  34.420   7.269  11.580
42499W        W 7759  13.936   4.038  12.587
42500W        W 7760   0.191  33.250  14.770
42501W        W 7761   5.161  23.583  14.003
42502W        W 7762  40.134  20.563   0.055
42503W        W 7763   3.478  13.110  14.933
42504W        W 7764  30.577  40.989  12.404
42505W        W 7765  20.980  25.464  11.161
42506W        W 7766   4.822   1.998   2.284
42507W        W 7767   4.869  11.130  13.490
42508W        W 7768  43.349  13.662   1.350
42509W        W 7769  27.055   3.257   4.247
42510W        W 7770  43.584   8.287   3.289
42511W        W 7771   3.825  19.968   2.812
42512W        W 7772  37.434  16.276   3.709
42513W        W 7773   6.097   8.336  14.770
42514W        W 7774  31.774  39.389   4.145
42515W        W 7775  42.261  26.343  14.514
42516W        W 7776   5.072   2.655  11.056
42517W        W 7777  38.385  10.836  14.165
42518W        W 7778  34.409  30.122   2.279
42519W        W 7779  34.659  28.248  12.347
42520W        W 7780  23.911  17.094   0.733
42521W        W 7781   6.377   5.777  12.056
42522W        W 7782  38.137  30.979   0.858
42523W        W 7783   5.651  16.989   1.811
42524W        W 7784  12.919  27.749  14.928
42525W        W 7785  32.597  38.938  10.492
42526W        W 7786   7.564   4.466   2.652
42527W        W 7787   3.031  38.567   3.803
42528W        W 7788  27.274   1.328   4.223
42529W        W 7789  16.820   4.634   3.312
42530W        W 7790   3.718  25.867   5.225
42531W        W 7791  14.581  21.248  11.918
42532W        W 7792  42.266  21.215   0.765
42533W        W 7793  37.345  29.204   2.079
42534W        W 7794  19.944  19.211  14.414
42535W        W 7795  40.795  41.435  13.543
42536W        W 7796  32.547  35.374  14.527
42537W        W 7797  11.271  38.059  14.056
42538W        W 7798  38.592  33.013  11.975
42539W        W 7799  25.896  22.784   5.006
42540W        W 7800  14.854   2.837  14.281
42541W        W 7801   2.381  42.194  14.034
42542W        W 7802  40.821  37.363  11.010
42543W        W 7803  20.205  26.773   0.991
42544W        W 7804   1.830   3.313  13.972
42545W        W 7805  35.605  30.019  14.014
42546W        W 7806  28.714  18.740  10.554
42547W        W 7807  29.816   2.378  12.029
42548W        W 7808   4.174  19.059  13.923
42549W        W 7809  39.377  28.406   2.355
42550W        W 7810  43.893  43.719  13.802
42551W        W 7811  44.237  34.135   3.663
42552W        W 7812   5.773   0.574   1.257
42553W        W 7813   3.205   2.384  11.950
42554W        W 7814  15.849  13.742   2.330
42555W        W 7815  39.445   5.773   3.346
42556W        W 7816   5.694  37.901   0.370
42557W        W 7817  41.400  41.498   4.328
42558W        W 7818  34.614   5.502  11.020
42559W        W 7819  23.116  28.152  11.153
42560W        W 7820  38.002  38.088   0.200
42561W        W 7821  41.860  27.614   1.258
42562W        W 7822  43.030  44.012   3.635
42563W        W 7823  40.873  28.034   0.975
42564W        W 7824  17.173   7.268   4.236
42565W        W 7825  24.236  33.901   1.717
42566W        W 7826  31.792   5.807   4.743
42567W        W 7827  31.064  35.161   3.065
42568W        W 7828  28.353  22.264  11.608
42569W        W 7829  20.679  10.718  11.580
42570W        W 7830  27.473   3.714  10.884
42571W        W 7831  39.986   1.754   4.658
42572W        W 7832  12.268  15.720   3.802
42573W        W 7833  27.332  14.777   1.469
42574W        W 7834  20.243  21.536  10.580
42575W        W 7835  33.778  30.635  11.136
42576W        W 7836  31.700  10.795   3.114
42577W        W 7837   9.600   6.106   1.358
42578W        W 7838  39.853  44.951  12.030
42579W        W 7839  16.132  42.632   2.347
42580W        W 7840  37.821  27.783  13.269
42581W        W 7841   4.338   2.437   4.856
42582W        W 7842   9.170   3.297  12.631
42583W        W 7843  21.552  44.390  14.524
42584W        W 7844  23.058   9.424  12.124
42585W        W 7845   7.412  38.829   3.650
42586W        W 7846  26.755  30.820   0.239
42587W        W 7847   6.194  14.849   3.287
42588W        W 7848  15.449  34.003  12.140
42589W        W 7849  31.474  25.913   1.766
42590W        W 7850   6.158  23.852   3.255
42591W        W 7851  44.968  12.237  13.560
42592W        W 7852  31.518   3.849  12.847
42593W        W 7853  34.747   5.059   0.961
42594W        W 7854  19.952  28.675  11.121
42595W        W 7855  21.748  22.571  10.526
42596W        W 7856   5.618   0.443   2.224
42597W        W 7857  22.415  38.540   2.371
42598W        W 7858  13.258  43.149   2.054
42599W        W 7859  43.094   5.213   1.793
42600W        W 7860  18.175  22.987   2.398
42601W        W 7861   3.507  18.761  12.121
42602W        W 7862  30.777  10.645  12.994
42603W        W 7863  14.175  29.611  11.971
42604W        W 7864   8.853  40.784  12.386
42605W        W 7865   4.683  41.783   2.790
42606W        W 7866  24.657  16.638  13.376
42607W        W 7867  38.363  11.598  11.708
42608W        W 7868  17.660  34.013  11.546
42609W        W 7869  44.398   9.838   2.762
42610W        W 7870  25.024  10.598  10.606
42611W        W 7871   2.807   6.937  14.836
42612W        W 7872  13.212  34.574  11.111
42613W        W 7873  27.021   0.828  11.984
42614W        W 7874  25.913   5.739   1.728
42615W        W 7875  21.465  21.050  14.614
42616W        W 7876   5.431  18.260   4.705
42617W        W 7877  20.130  11.885  13.585
42618W        W 7878  37.911  17.262  10.680
42619W        W 7879  27.534  36.355   0.672
42620W        W 7880  32.985   4.193   1.415
42621W        W 7881  41.767  19.567   3.537
42622W        W 7882   4.713   2.006   0.798
42623W        W 7883   8.133   2.256   0.175
42624W        W 7884  31.933   4.402   3.605
42625W        W 7885  16.844   7.570  11.084
42626W        W 7886  22.211  41.845   3.307
42627W        W 7887  43.993  40.271  11.250
42628W        W 7888  42.217   8.308  14.869
42629W        W 7889  31.844   0.186  14.568
42630W        W 7890  10.943  25.992  12.121
42631W        W 7891  30.898   7.374   1.439
42632W        W 7892  35.954   5.652  10.518
42633W        W 7893  28.910  20.143   2.724
42634W        W 7894   5.691  21.138   2.178
42635W        W 7895  40.412   1.860   0.842
42636W        W 7896  42.845  29.409   4.140
42637W        W 7897  23.661   9.183   0.857
42638W        W 7898  34.883  36.884  14.325
42639W        W 7899  42.311  38.083   2.710
42640W        W 7900   7.251  14.045  13.843
42641W        W 7901  36.257  12.064  11.069
42642W        W 7902   7.248  43.140  14.458
42643W        W 7903  24.688  15.021   4.260
42644W        W 7904   6.362  10.082  13.311
42645W        W 7905  28.038  36.901   4.589
42646W        W 7906  11.857   8.478   5.091
42647W        W 7907   4.842   0.572  12.448
42648W        W 7908  41.704  27.167   1.475
42649W        W 7909  33.090  35.448   0.330
42650W        W 7910  34.105  30.879   2.808
42651W        W 7911  10.265   3.218   4.569
42652W        W 7912  31.711  40.780  13.285
42653W        W 7913   8.211   5.264   2.871
42654W        W 7914  34.569  10.669  11.417
42655W        W 7915  12.253   5.647   4.482
42656W        W 7916  42.564   5.579  10.663
42657W        W 7917   3.205  22.080  13.002
42658W        W 7918  21.912  25.623  14.921
42659W        W 7919  10.696  32.555  14.282
42660W        W 7920  28.933  22.202  11.663
42661W        W 7921  43.771  36.675  14.450
42662W        W 7922  34.032   6.187   3.871
42663W        W 7923  38.962  15.472   0.166
42664W        W 7924  26.299  31.411   4.018
42665W        W 7925  28.033   6.687  10.995
42666W        W 7926  20.120  15.816  14.984
42667W        W 7927  28.328  34.502  14.332
42668W        W 7928  38.390   2.342   4.885
42669W        W 7929  18.448  34.820   4.466
42670W        W 7930  32.354   9.307   2.350
42671W        W 7931  35.822  13.821  12.086
42672W        W 7932  22.192   6.693   1.476
42673W        W 7933  22.239  14.554  10.890
42674W        W 7934  31.395  25.652   2.210
42675W        W 7935  35.552  13.771   4.027
42676W        W 7936  26.016  24.018   4.159
42677W        W 7937  44.192   7.231  13.584
42678W        W 7938   0.065   5.450   4.639
42679W        W 7939  20.203  43.686  12.486
42680W        W 7940  38.563  19.027  14.057
42681W        W 7941  20.793  36.422   9.769
42682W        W 7942   0.284  19.225  11.182
42683W        W 7943   3.174  32.340   2.779
42684W        W 7944  34.648   1.092  13.969
42685W        W 7945  34.080   4.736   4.211
42686W        W 7946  17.181  16.199   4.475
42687W        W 7947  34.441  44.636   3.704
42688W        W 7948   5.602  28.112   2.702
42689W        W 7949  22.484  36.578  13.431
42690W        W 7950  34.306   7.964   1.838
42691W        W 7951   2.758  11.829   3.939
42692W        W 7952  38.011  14.718   3.836
42693W        W 7953  14.379   8.237  14.000
42694W        W 7954  27.234  21.237  12.603
42695W        W 7955  32.608  38.313  11.669
42696W        W 7956  31.524  42.598   2.808
42697W        W 7957  22.117  14.262  12.424
42698W        W 7958  14.851   5.463   4.614
42699W        W 7959  43.438   3.996   3.996
42700W        W 7960  40.572  29.664   3.637
42701W        W 7961  32.486   6.012   2.764
42702W        W 7962   0.916   6.292  10.644
42703W        W 7963  17.184  16.342   1.414
42704W        W 7964  20.788   7.208  11.870
42705W        W 7965  39.987  36.603   1.292
42706W        W 7966  41.025   4.298  12.554
42707W        W 7967  39.302  10.395   4.272
42708W        W 7968  36.974  36.292   3.787
42709W        W 7969  31.081  41.831  13.892
42710W        W 7970  21.492  32.460   0.800
42711W        W 7971  26.267   2.375   0.798
42712W        W 7972  43.021   5.156  14.370
42713W        W 7973  41.062  16.050  11.939
42714W        W 7974  35.450  33.513   1.012
42715W        W 7975  25.529  44.374   2.112
42716W        W 7976  38.463  20.114  11.693
42717W        W 7977  14.219  29.172   2.895
42718W        W 7978  26.529  33.228   2.296
42719W        W 7979  13.598  20.311  14.637
42720W        W 7980  26.625   8.404   4.229
42721W        W 7981  12.850   6.591  13.459
42722W        W 7982  19.595   0.304   4.695
42723W        W 7983  16.105  15.528   0.913
42724W        W 7984  38.406  32.647   0.935
42725W        W 7985   4.860   7.828  10.627
42726W        W 7986   0.135  11.689  12.571
42727W        W 7987  35.418  35.558  11.921
42728W        W 7988  40.522   4.900  12.097
42729W        W 7989  11.592  20.359   3.796
42730W        W 7990  41.494  26.882   2.220
42731W        W 7991   9.331   5.709   2.766
42732W        W 7992  17.402  22.535   5.084
42733W        W 7993  13.795  13.611  10.709
42734W        W 7994  42.350  15.118   2.215
42735W        W 7995  13.653  18.130   0.443
42736W        W 7996   9.224  20.906  11.220
42737W        W 7997  16.284  44.472  10.697
42738W        W 7998  31.354   2.715   2.189
42739W        W 7999  18.293   0.259   0.301
42740W        W 8000  15.523  26.466   2.989
42741W        W 8001   4.293  14.300  13.323
42742W        W 8002  40.953  18.676   3.126
42743W        W 8003   0.269  38.922  13.729
42744W        W 8004  19.113  14.580   1.950
42745W        W 8005   7.184  20.116   0.369
42746W        W 8006   5.987  13.214   1.608
42747W        W 8007   7.676  24.251   4.529
42748W        W 8008  15.757   8.802   2.729
42749W        W 8009  13.683  25.265  14.468
42750W        W 8010  24.280  12.755  12.814
42751W        W 8011  43.202  25.561   2.292
42752W        W 8012  31.658  42.561  14.432
42753W        W 8013  24.229  44.237  10.137
42754W        W 8014   3.375  13.587   1.157
42755W        W 8015  11.183   7.824   1.903
42756W        W 8016  33.441  25.982   0.909
42757W        W 8017  11.375   9.849  13.897
42758W        W 8018  39.234  43.696   1.336
42759W        W 8019  10.205  40.192  12.711
42760W        W 8020   1.332  33.379   0.446
42761W        W 8021   8.483  16.454  14.294
42762W        W 8022  15.072  29.146   1.372
42763W        W 8023  44.302  27.643  14.277
42764W        W 8024   6.426  14.762  11.410
42765W        W 8025   8.693  39.453  14.820
42766W        W 8026  30.967  37.552  12.544
42767W        W 8027   9.427  19.324   2.752
42768W        W 8028  15.061  30.544   4.847
42769W        W 8029   1.216   0.965  11.927
42770W        W 8030  38.233   8.868  12.739
42771W        W 8031  39.666  36.396   0.937
42772W        W 8032  24.161  21.542   2.830
42773W        W 8033  21.492  21.527  11.652
42774W        W 8034  24.491  22.815  10.253
42775W        W 8035  37.575  28.634  11.752
42776W        W 8036  39.824  34.073  14.630
42777W        W 8037  26.067  32.137   4.267
42778W        W 8038  37.156  32.999  13.328
42779W        W 8039  27.924   4.709  10.093
42780W        W 8040   4.956   0.687   2.800
42781W        W 8041  11.344  44.690  11.576
42782W        W 8042  26.633  26.075   4.926
42783W        W 8043  10.137  38.460   2.814
42784W        W 8044  34.560   3.882  12.533
42785W        W 8045   3.096   7.766  12.383
42786W        W 8046   8.368  10.709  13.536
42787W        W 8047  40.813  11.089   4.068
42788W        W 8048  30.597  44.021   1.236
42789W        W 8049  38.875   7.371   2.096
42790W        W 8050   9.266  11.612  11.153
42791W        W 8051   2.148  11.333   5.070
42792W        W 8052  39.338   4.877  12.868
42793W        W 8053  19.541  24.107  10.677
42794W        W 8054   0.379  16.153   0.347
42795W        W 8055  20.843  16.597  12.036
42796W        W 8056  27.125  28.166   2.844
42797W        W 8057  12.212  19.542   4.645
42798W        W 8058  35.128  16.566   3.570
42799W        W 8059  35.852   4.653  11.967
42800W        W 8060  33.116  18.695   4.680
42801W        W 8061  41.601  20.171   3.277
42802W        W 8062  32.560  20.717  14.445
42803W        W 8063  13.139   9.461   0.391
42804W        W 8064   5.232  39.831  11.631
42805W        W 8065  38.423   7.856  13.882
42806W        W 8066  44.803  27.435  11.165
42807W        W 8067   1.920  40.989  14.109
42808W        W 8068   8.768  25.557  13.995
42809W        W 8069  28.921  10.406  11.758
42810W        W 8070  33.614  41.214  13.502
42811W        W 8071  13.549   4.951   3.089
42812W        W 8072  13.077  14.198   1.735
42813W        W 8073  16.536   2.365  14.938
42814W        W 8074  43.006  22.980   4.161
42815W        W 8075  23.116   4.306   1.907
42816W        W 8076  42.054  43.038  10.748
42817W        W 8077  36.464  31.930   1.418
42818W        W 8078  13.356  26.577  11.074
42819W        W 8079   6.143  18.592  12.138
42820W        W 8080   8.832  10.416  11.119
42821W        W 8081  24.789  21.616  13.919
42822W        W 8082   3.007  42.662  10.865
42823W        W 8083  27.625   0.989   4.102
42824W        W 8084  27.922  33.107  11.059
42825W        W 8085  18.692  33.484   1.430
42826W        W 8086  38.515   3.330  11.798
42827W        W 8087   0.366   5.853  11.724
42828W        W 8088  41.772  22.406   1.409
42829W        W 8089  22.670   8.396  11.594
42830W        W 8090  14.351  19.753  12.416
42831W        W 8091  31.296  29.104  13.535
42832W        W 8092  37.588  38.113   1.139
42833W        W 8093   1.170   1.991  14.054
42834W        W 8094  22.749  33.862  10.687
42835W        W 8095  23.110  31.872  10.148
42836W        W 8096  20.411  42.258   3.652
42837W        W 8097  26.956  15.722   1.505
42838W        W 8098  24.538  15.384   1.319
42839W        W 8099  15.139  19.205  12.822
42840W        W 8100  43.728  12.643  13.957
42841W        W 8101  26.055  38.916   2.399
42842W        W 8102  39.035  24.968   4.162
42843W        W 8103   0.207  34.479   0.122
42844W        W 8104  42.349  42.816   3.168
42845W        W 8105  34.098  11.796   1.085
42846W        W 8106  31.466  36.904  11.591
42847W        W 8107   4.186  27.632   1.790
42848W        W 8108  42.457  22.811   2.676
42849W        W 8109  44.008  40.181  14.267
42850W        W 8110  44.803   4.061  14.859
42851W        W 8111   2.571  29.982  14.115
42852W        W 8112  29.917  30.036  14.376
42853W        W 8113  42.062   0.850  11.189
42854W        W 8114  11.626  16.167  11.486
42855W        W 8115  41.850  10.398  14.379
42856W        W 8116  35.659   7.203  14.079
42857W        W 8117  30.526  19.012  14.906
42858W        W 8118  35.417  30.547   5.022
42859W        W 8119  39.802  12.274   2.359
42860W        W 8120  11.243  32.062  12.899
42861W        W 8121  20.698  33.110  11.654
42862W        W 8122  17.768  14.678   3.293
42863W        W 8123  42.356   2.293   0.280
42864W        W 8124  40.407  20.666   4.227
42865W        W 8125   0.585  36.323   1.229
42866W        W 8126   7.943  38.930  14.873
42867W        W 8127  44.959  42.123   1.237
42868W        W 8128  10.939  38.518  13.765
42869W        W 8129  35.851  15.140  11.587
42870W        W 8130  10.837  26.628  12.934
42871W        W 8131  33.274  19.326   3.689
42872W        W 8132  32.534  26.976  11.722
42873W        W 8133   4.587  12.412  11.080
42874W        W 8134  23.156  22.156   3.068
42875W        W 8135  10.877  22.485   0.242
42876W        W 8136  41.362  40.778  14.082
42877W        W 8137  11.786  26.122  12.153
42878W        W 8138  37.928  30.480   0.906
42879W        W 8139  25.214  40.592   3.365
42880W        W 8140   7.248   6.603   3.253
42881W        W 8141   3.415  19.579   3.373
42882W        W 8142   3.293  35.415   1.316
42883W        W 8143   1.831   5.540  12.096
42884W        W 8144   4.794  24.091   2.550
42885W        W 8145  27.165   4.569  11.078
42886W        W 8146  15.619  22.218   3.641
42887W        W 8147  32.292   4.310   4.117
42888W        W 8148   1.727  25.484   3.204
42889W        W 8149  25.930  44.458  12.314
42890W        W 8150  30.711  41.106   4.220
42891W        W 8151   8.507  31.067  12.876
42892W        W 8152  40.011  26.516   1.782
42893W        W 8153  16.139  42.489  14.543
42894W        W 8154  21.605  17.041  14.284
42895W        W 8155  35.884  28.019  11.583
42896W        W 8156  43.813  30.539  14.090
42897W        W 8157  22.580  33.314  11.995
42898W        W 8158  13.832  36.815  10.586
42899W        W 8159  28.566   4.917  12.438
42900W        W 8160   9.913  11.328  13.712
42901W        W 8161  20.552  15.098   4.939
42902W        W 8162  31.639  19.320   2.804
42903W        W 8163   2.849  19.070  10.683
42904W        W 8164   2.143  28.118   1.764
42905W        W 8165  33.398  42.365   3.992
42906W        W 8166  34.662  20.208   3.507
42907W        W 8167  35.572  25.666   1.462
42908W        W 8168  30.159  17.594  13.717
42909W        W 8169   0.268  26.426   1.868
42910W        W 8170   6.964   8.731  13.558
42911W        W 8171   3.874  40.578   3.710
42912W        W 8172  40.139  35.157   4.190
42913W        W 8173  38.113  10.934   2.863
42914W        W 8174  16.393  33.070  11.977
42915W        W 8175  20.869  24.034   0.344
42916W        W 8176  10.365  35.076   0.914
42917W        W 8177  37.035  42.098   1.474
42918W        W 8178  16.932  10.295   1.959
42919W        W 8179  21.951  23.392  10.693
42920W        W 8180   0.685  42.344   0.394
42921W        W 8181  23.223   4.931  11.075
42922W        W 8182   0.876  31.670  11.982
42923W        W 8183  42.940  11.288  12.925
42924W        W 8184  22.011  26.764  14.197
42925W        W 8185  34.879  23.190   2.837
42926W        W 8186  19.687  13.533   4.867
42927W        W 8187  12.212  29.549  12.308
42928W        W 8188  42.741  40.461  14.773
42929W        W 8189   5.733  27.132  13.467
42930W        W 8190   6.691  39.806   4.824
42931W        W 8191  23.592  20.215  11.184
42932W        W 8192  43.708  33.488  10.751
42933W        W 8193  38.030  29.149   4.657
42934W        W 8194  38.857   5.401   2.740
42935W        W 8195  16.863  20.868  12.664
42936W        W 8196   1.710  15.539  12.617
42937W        W 8197  13.657  17.723   1.621
42938W        W 8198  43.978  29.617  11.136
42939W        W 8199  11.419  34.502  12.859
42940W        W 8200  37.417   3.372  10.990
42941W        W 8201  12.168   9.225  12.430
42942W        W 8202  41.395  43.096   1.228
42943W        W 8203   6.707   6.187  10.650
42944W        W 8204  16.554  41.961   1.957
42945W        W 8205   7.843  33.150   0.904
42946W        W 8206   9.303  39.600  12.890
42947W        W 8207  10.246  13.223  14.902
42948W        W 8208   6.107  33.428   1.130
42949W        W 8209  24.492  16.089   2.398
42950W        W 8210  38.492  16.349  14.297
42951W        W 8211  14.811  43.913  11.893
42952W        W 8212  13.914   9.653   2.794
42953W        W 8213  36.972   7.760   2.767
42954W        W 8214  43.268   0.626  14.949
42955W        W 8215  39.165  34.450   3.258
42956W        W 8216  14.975  25.572   1.632
42957W        W 8217  27.424  43.540   2.539
42958W        W 8218  24.147  40.251  13.587
42959W        W 8219  25.656  26.285  12.648
42960W        W 8220  36.463  36.088   1.317
42961W        W 8221  35.316   8.223  13.161
42962W        W 8222   9.032  33.410   4.646
42963W        W 8223   6.768  30.675   5.132
42964W        W 8224  43.405  33.308  11.628
42965W        W 8225  20.055  15.562   1.813
42966W        W 8226  37.093  38.970  14.824
42967W        W 8227  14.711   8.314  13.106
42968W        W 8228  44.504  23.003  14.933
42969W        W 8229  44.181   1.255  13.639
42970W        W 8230  19.063  30.598  10.945
42971W        W 8231  35.202  42.875  14.941
42972W        W 8232   9.295  12.751  12.439
42973W        W 8233  40.358  40.834   3.742
42974W        W 8234  15.259  22.671   4.163
42975W        W 8235  33.920  11.199  12.381
42976W        W 8236  30.151  31.654   4.026
42977W        W 8237  24.646  14.402  10.392
42978W        W 8238  11.380  16.558  13.708
42979W        W 8239  30.667  34.458  12.485
42980W        W 8240  13.829   7.242   2.901
42981W        W 8241   1.384  26.024   3.121
42982W        W 8242  32.568  37.230  11.240
42983W        W 8243  13.129  26.597   0.492
42984W        W 8244  11.438   2.717  11.093
42985W        W 8245  25.080  10.497  13.814
42986W        W 8246  28.194  30.808  14.944
42987W        W 8247  34.238   5.736   3.093
42988W        W 8248  27.406  34.992  10.315
42989W        W 8249   6.281  31.584   2.320
42990W        W 8250   4.095  25.948   1.685
42991W        W 8251   0.266  15.605   4.541
42992W        W 8252  23.501  25.174   4.083
42993W        W 8253   3.441  15.797   2.211
42994W        W 8254   1.383  10.240  12.264
42995W        W 8255   2.501  10.682   0.214
42996W        W 8256  25.035  24.599  10.592
42997W        W 8257  23.460  27.160   3.110
42998W        W 8258   8.903  19.995   3.114
42999W        W 8259  14.347  30.160  13.972
43000W        W 8260  11.285   6.310   3.480
43001W        W 8261  25.536  32.876   1.461
43002W        W 8262   4.513   2.565  10.832
43003W        W 8263  20.798  33.545  11.425
43004W        W 8264  43.859   8.407   3.935
43005W        W 8265   4.405  30.601  10.961
43006W        W 8266  31.394  27.523  12.879
43007W        W 8267  17.518  27.706  11.618
43008W        W 8268  16.975  30.674   4.416
43009W        W 8269  40.720  12.607  13.892
43010W        W 8270  15.112  14.381  13.358
43011W        W 8271  27.697  28.506   4.642
43012W        W 8272  32.016  10.948   0.773
43013W        W 8273  29.391   6.646   3.559
43014W        W 8274  11.281  34.641  10.539
43015W        W 8275  40.253  24.337  11.117
43016W        W 8276  23.731  26.518   3.695
43017W        W 8277  26.076  44.927   3.847
43018W        W 8278  22.149  28.216  13.852
43019W        W 8279   2.674  27.949   3.709
43020W        W 8280  30.778  36.220   0.864
43021W        W 8281  18.515  36.156   3.571
43022W        W 8282  33.409  17.105   2.270
43023W        W 8283  25.242  15.835  11.512
43024W        W 8284  40.753   6.918   4.181
43025W        W 8285  33.944   0.363   1.363
43026W        W 8286  24.179  42.720  13.138
43027W        W 8287  22.203  11.921   3.131
43028W        W 8288  24.131  14.352   1.865
43029W        W 8289  12.145  22.593  14.913
43030W        W 8290   2.990  13.385  12.317
43031W        W 8291  19.666  24.636  10.905
43032W        W 8292  43.476  27.949   1.975
43033W        W 8293  21.995  11.814  14.918
43034W        W 8294  41.949   3.631  11.223
43035W        W 8295  16.041  31.621  11.089
43036W        W 8296  42.742  12.543   1.343
43037W        W 8297  14.051  44.954  10.830
43038W        W 8298  33.685   3.480  14.081
43039W        W 8299   8.447  39.020  14.947
43040W        W 8300  32.357  14.987   3.156
43041W        W 8301  20.262  17.758   4.348
43042W        W 8302  12.003  25.811   1.268
43043W        W 8303  16.818  12.451   0.123
43044W        W 8304   0.099  36.505   1.165
43045W        W 8305  39.170  28.999  11.933
43046W        W 8306  43.585   5.545   4.414
43047W        W 8307  39.379  29.426   4.369
43048W        W 8308  28.687   9.635   1.022
43049W        W 8309  26.494   7.949  10.441
43050W        W 8310  13.748  25.515  10.465
43051W        W 8311  11.148  12.231   3.116
43052W        W 8312   9.855  27.934  13.955
43053W        W 8313   9.630  22.616  11.266
43054W        W 8314   1.767   4.936   0.804
43055W        W 8315  16.789  31.710  13.897
43056W        W 8316  34.416  39.352   2.476
43057W        W 8317  41.984  14.491  12.490
43058W        W 8318  40.831   1.697   3.749
43059W        W 8319  33.806  16.067  12.056
43060W        W 8320  14.368  39.998   0.100
43061W        W 8321  16.558  40.790  11.996
43062W        W 8322  26.250  41.578   1.900
43063W        W 8323   8.303  34.405   1.227
43064W        W 8324   3.729  33.124   4.908
43065W        W 8325  42.978  14.206   4.026
43066W        W 8326  25.474  42.898  11.617
43067W        W 8327  28.453  27.664  13.125
43068W        W 8328  19.800  37.493   3.584
43069W        W 8329   1.429  32.031  12.809
43070W        W 8330  35.693   0.950   3.572
43071W        W 8331  20.308  15.765   1.388
43072W        W 8332  33.138  31.355   3.252
43073W        W 8333  20.779   3.295   0.805
43074W        W 8334  38.779  35.356   3.266
43075W        W 8335  22.121  19.477  10.666
43076W        W 8336  22.690  25.583   4.220
43077W        W 8337  17.093  33.991   1.192
43078W        W 8338  34.866  22.998   2.350
43079W        W 8339  40.096  19.090   1.134
43080W        W 8340   4.292   1.205   2.346
43081W        W 8341  17.111  35.956   0.259
43082W        W 8342  28.539  31.681  12.604
43083W        W 8343  26.419  25.073   2.241
43084W        W 8344   7.798   1.118   4.062
43085W        W 8345  36.667  15.871   2.358
43086W        W 8346  35.363   7.148  10.625
43087W        W 8347  32.608   4.171  14.615
43088W        W 8348  31.228   5.183  13.473
43089W        W 8349  40.821   0.945  14.994
43090W        W 8350  15.611  32.683   3.733
43091W        W 8351  14.546  13.278  14.778
43092W        W 8352  14.229   8.327  12.879
43093W        W 8353  42.020  29.580   1.722
43094W        W 8354  17.561  35.486   3.742
43095W        W 8355  31.244  11.370   0.323
43096W        W 8356  21.765  33.891   4.563
43097W        W 8357  33.716  16.256  13.014
43098W        W 8358  22.471   3.677   3.853
43099W        W 8359  11.618  38.357  11.645
43100W        W 8360  39.728  40.831   1.499
43101W        W 8361   1.902  34.437   0.730
43102W        W 8362  18.204   4.287  13.955
43103W        W 8363  22.623  31.182  12.147
43104W        W 8364   8.430  33.461   4.132
43105W        W 8365   8.656  23.480   3.233
43106W        W 8366  31.343  30.715   4.592
43107W        W 8367  17.527  17.784  13.837
43108W        W 8368  13.895  17.931  14.626
43109W        W 8369  11.645   1.903   3.765
43110W        W 8370  35.563  43.489  11.873
43111W        W 8371  35.381  43.866  11.155
43112W        W 8372   7.016   4.940   0.017
43113W        W 8373  43.985  41.459  11.472
43114W        W 8374  29.657  31.161   1.314
43115W        W 8375  21.798  22.672   0.343
43116W        W 8376  12.680   2.251  12.368
43117W        W 8377  23.824  28.133  10.390
43118W        W 8378  40.136   9.219   1.401
43119W        W 8379  29.050  14.872   1.671
43120W        W 8380  12.040  23.518   3.171
43121W        W 8381  38.869  18.105  14.860
43122W        W 8382   6.336  31.664   3.233
43123W        W 8383   4.961  34.286  10.459
43124W        W 8384  32.033  29.179   1.844
43125W        W 8385   2.825  13.351  10.277
43126W        W 8386  23.158  16.180   1.096
43127W        W 8387  26.975  39.076  14.430
43128W        W 8388  28.093  17.494   1.767
43129W        W 8389  15.137  33.083   3.207
43130W        W 8390  26.666   4.833   3.101
43131W        W 8391  10.579  21.181  11.213
43132W        W 8392  12.213   2.304   0.846
43133W        W 8393  19.420   2.440   0.374
43134W        W 8394   3.593   2.463  14.808
43135W        W 8395   1.018   6.277  11.637
43136W        W 8396  39.591  38.388   0.766
43137W        W 8397  44.030  36.973   3.606
43138W        W 8398  42.883  20.180   2.527
43139W        W 8399   4.890  18.587  11.846
43140W        W 8400  22.518   7.270  13.126
43141W        W 8401   4.863  17.097   3.753
43142W        W 8402  31.478  42.479   3.608
43143W        W 8403  41.459  23.155   3.340
43144W        W 8404  34.209  26.359  10.653
43145W        W 8405  44.055  31.034  13.361
43146W        W 8406  40.984  35.628  13.625
43147W        W 8407  35.870  40.599  12.246
43148W        W 8408   1.043  40.185   0.675
43149W        W 8409  32.890  42.100  11.642
43150W        W 8410  24.235  13.973  12.149
43151W        W 8411  23.418  31.694   0.241
43152W        W 8412  34.578  20.357  13.072
43153W        W 8413   6.746  21.644   0.189
43154W        W 8414  13.626  33.361  12.051
43155W        W 8415  28.304  14.636   1.218
43156W        W 8416   1.838  12.982  10.130
43157W        W 8417   1.572  23.238   9.805
43158W        W 8418  19.530   0.755  12.890
43159W        W 8419  13.576  15.675  10.861
43160W        W 8420  29.187   6.018  14.023
43161W        W 8421  31.920   1.875   4.530
43162W        W 8422  19.405  29.829   0.424
43163W        W 8423  17.341  28.144   2.833
43164W        W 8424   5.909  38.137   1.846
43165W        W 8425  44.321  16.321   1.111
43166W        W 8426  13.598  37.339  11.259
43167W        W 8427  29.907  17.198   0.779
43168W        W 8428  19.689  32.177  12.003
43169W        W 8429  27.023  38.414   3.646
43170W        W 8430  11.881  11.899  14.480
43171W        W 8431   2.260  31.380   3.630
43172W        W 8432  35.399   0.175   2.717
43173W        W 8433   6.235  23.111  10.425
43174W        W 8434  11.988  20.716  14.884
43175W        W 8435  13.813  15.788   4.502
43176W        W 8436  33.968  13.037  13.817
43177W        W 8437  38.095  41.520  13.404
43178W        W 8438   6.656  21.545   3.371
43179W        W 8439   9.595  17.180   0.000
43180W        W 8440  44.038  12.209  13.396
43181W        W 8441  14.357   3.331  13.894
43182W        W 8442  26.624  23.781  14.046
43183W        W 8443  11.108  30.808  14.739
43184W        W 8444  33.364  10.762  11.984
43185W        W 8445  17.011  14.169   3.279
43186W        W 8446  31.977  17.749  12.400
43187W        W 8447  21.258   1.713   2.602
43188W        W 8448   7.841   8.348  13.777
43189W        W 8449  28.761  11.561  11.109
43190W        W 8450   0.339  37.156   2.311
43191W        W 8451  30.382  29.974   0.206
43192W        W 8452  18.506  32.584  12.058
43193W        W 8453  33.883  11.371   1.361
43194W        W 8454   5.438   0.761   2.603
43195W        W 8455  35.071  32.184   3.217
43196W        W 8456  11.631  27.460   2.648
43197W        W 8457  24.013  31.852  12.803
43198W        W 8458  41.561  32.636  11.549
43199W        W 8459  12.199  42.698   0.441
43200W        W 8460   4.895  39.951  11.265
43201W        W 8461  41.553  40.521   1.878
43202W        W 8462   5.676  20.991  12.823
43203W        W 8463   8.368  36.058  12.787
43204W        W 8464  41.932  26.283  13.895
43205W        W 8465  29.007  11.520  12.889
43206W        W 8466  13.587  15.387   4.853
43207W        W 8467   8.760  14.332  12.936
43208W        W 8468  44.569  25.127  11.648
43209W        W 8469  29.675  44.675   3.723
43210W        W 8470  21.260  35.896   0.907
43211W        W 8471  17.300   6.271   2.408
43212W        W 8472  40.891  34.217   1.694
43213W        W 8473  24.762  28.578   3.746
43214W        W 8474  15.221   0.368  12.526
43215W        W 8475  32.450  23.983  14.363
43216W        W 8476  21.032   9.323  11.162
43217W        W 8477   8.093  28.236   1.717
43218W        W 8478   7.421  38.085   2.334
43219W        W 8479  42.037   2.252  12.031
43220W        W 8480  24.392   9.148  12.105
43221W        W 8481  37.468  36.359  14.388
43222W        W 8482  23.687  33.516  12.453
43223W        W 8483  18.189  15.161   0.833
43224W        W 8484  42.870  19.636   3.402
43225W        W 8485  28.167   9.576   4.203
43226W        W 8486   1.809  32.986  13.921
43227W        W 8487  27.605  38.119   4.923
43228W        W 8488  26.984   3.750  10.734
43229W        W 8489   3.261  11.439  14.412
43230W        W 8490  42.865  15.809  14.087
43231W        W 8491  44.929  39.871   3.163
43232W        W 8492  11.475   3.721  13.121
43233W        W 8493  28.882  33.173  12.912
43234W        W 8494  18.104  44.269  13.523
43235W        W 8495  15.922   9.797   4.808
43236W        W 8496  34.358  33.054  11.589
43237W        W 8497  10.959  41.912   4.663
43238W        W 8498  10.259   2.647  13.629
43239W        W 8499  29.568  15.333  13.871
43240W        W 8500  21.492  38.086  11.344
43241W        W 8501  22.198   9.402  13.564
43242W        W 8502  20.759   4.644   3.711
43243W        W 8503  16.003  40.069   2.552
43244W        W 8504  36.453   9.770  14.088
43245W        W 8505   7.446  20.025   4.062
43246W        W 8506   5.987  19.622  14.999
43247W        W 8507   2.962  35.796   1.938
43248W        W 8508  17.139  26.526   1.461
43249W        W 8509  38.468   7.280   1.789
43250W        W 8510   8.847   6.015  10.760
43251W        W 8511  18.298   2.008  14.440
43252W        W 8512   4.488   6.178   3.768
43253W        W 8513  14.317  44.997  12.127
43254W        W 8514  22.437  30.122   3.276
43255W        W 8515  42.119  31.644  12.005
43256W        W 8516  34.137  41.860   3.066
43257W        W 8517  15.289  19.579   4.700
43258W        W 8518  38.846  19.988   3.736
43259W        W 8519  33.994  31.178   3.226
43260W        W 8520  15.116  43.278   3.649
43261W        W 8521  31.155  37.368  12.085
43262W        W 8522  14.143  11.546   2.224
43263W        W 8523  25.461  44.188  10.505
43264W        W 8524  13.648   0.921  13.481
43265W        W 8525  12.775  42.940  12.359
43266W        W 8526  28.407  35.743  13.295
43267W        W 8527  17.249  23.442   4.652
43268W        W 8528  42.022  23.234  11.305
43269W        W 8529  17.418  25.506  13.036
43270W        W 8530  35.884  32.467   1.882
43271W        W 8531   6.278  23.435  14.450
43272W        W 8532   2.481  17.356  13.443
43273W        W 8533   1.296   7.365   4.138
43274W        W 8534  28.133  42.096   1.103
43275W        W 8535  24.667   7.844   4.854
43276W        W 8536  27.424  37.395   0.074
43277W        W 8537  13.330  41.775   3.822
43278W        W 8538  42.304  17.213   1.851
43279W        W 8539   6.774  38.293   4.568
43280W        W 8540  34.172  38.732   0.740
43281W        W 8541  42.107  33.297   2.107
43282W        W 8542  36.867  34.394   1.807
43283W        W 8543   1.253  11.741   2.695
43284W        W 8544  10.197  30.782   3.716
43285W        W 8545   4.242  27.439  12.095
43286W        W 8546  38.550  33.820   4.204
43287W        W 8547  27.520  17.658   3.037
43288W        W 8548  17.107   7.838   2.294
43289W        W 8549  40.967  40.962   2.817
43290W        W 8550  15.457  43.277  13.665
43291W        W 8551  10.162  37.162  13.421
43292W        W 8552   7.153   7.413  13.326
43293W        W 8553  30.004  19.522   4.130
43294W        W 8554  23.750  10.176  11.951
43295W        W 8555  24.501   3.765   0.905
43296W        W 8556  18.147  36.526   3.542
43297W        W 8557   6.282   6.653  11.671
43298W        W 8558  13.320  27.618   2.065
43299W        W 8559  42.849  42.985  13.539
43300W        W 8560  40.053  44.001   2.798
43301W        W 8561  20.777  42.182   3.217
43302W        W 8562   6.001  19.824   4.097
43303W        W 8563  34.934  33.858  11.548
43304W        W 8564  44.662  33.594  10.619
43305W        W 8565  19.620  17.751  14.102
43306W        W 8566  39.686  34.508  10.633
43307W        W 8567  11.102  29.984  13.419
43308W        W 8568  35.146  23.302  10.302
43309W        W 8569  23.532  38.951  10.595
43310W        W 8570   6.673  28.028   1.393
43311W        W 8571  15.782  35.612  13.418
43312W        W 8572  35.700   6.201   2.310
43313W        W 8573   5.157  21.513  11.521
43314W        W 8574   4.892  17.721  14.460
43315W        W 8575   2.224  31.288  10.758
43316W        W 8576  13.064  10.847  10.951
43317W        W 8577   6.786   3.080  13.381
43318W        W 8578  19.773   7.846  12.025
43319W        W 8579  21.508  30.426  12.027
43320W        W 8580  17.288   8.792  13.081
43321W        W 8581   9.354  22.410   3.257
43322W        W 8582  29.369  16.206  13.299
43323W        W 8583   4.741   5.339  12.868
43324W        W 8584  10.815  26.681   0.816
43325W        W 8585  13.299  19.649   2.307
43326W        W 8586  19.258  12.564   4.064
43327W        W 8587  33.568  37.430  11.940
43328W        W 8588   5.050  22.421  13.434
43329W        W 8589  40.599  36.478  12.125
43330W        W 8590  11.171  35.921   2.861
43331W        W 8591   5.322  14.318   4.553
43332W        W 8592  10.434  36.713  13.614
43333W        W 8593  10.613  32.708  10.587
43334W        W 8594  19.315  35.465  12.524
43335W        W 8595  31.417  17.970   3.391
43336W        W 8596  14.363  36.529  10.703
43337W        W 8597  37.878  25.635   4.592
43338W        W 8598  25.707  31.977  13.529
43339W        W 8599  18.631  12.184  13.926
43340W        W 8600  32.900  22.747   4.626
43341W        W 8601   6.748  12.146   1.121
43342W        W 8602  19.177  14.198  13.008
43343W        W 8603  16.650  40.897   4.075
43344W        W 8604  31.458  12.696   3.210
43345W        W 8605  17.403  44.464  14.697
43346W        W 8606  10.757  41.843   3.295
43347W        W 8607  24.891  25.697   3.273
43348W        W 8608  11.023  44.731  14.301
43349W        W 8609  31.228  20.614  12.394
43350W        W 8610  40.578   0.688  14.078
43351W        W 8611  24.190  41.132   3.819
43352W        W 8612   0.773  23.732  14.999
43353W        W 8613  41.023  32.339  10.848
43354W        W 8614  10.504  10.457  14.918
43355W        W 8615  39.375  41.404   4.175
43356W        W 8616  25.698  41.241  13.295
43357W        W 8617  26.423  17.195  11.915
43358W        W 8618  32.185  22.113   0.955
43359W        W 8619  21.232  20.158  14.990
43360W        W 8620  29.507  35.830   2.788
43361W        W 8621   4.705  23.082   3.634
43362W        W 8622   6.866  34.245   2.322
43363W        W 8623  28.099  40.305  14.200
43364W        W 8624  36.786   5.695  12.911
43365W        W 8625  19.959  17.782  11.011
43366W        W 8626  24.557  24.580  14.970
43367W        W 8627  30.613  30.715   3.151
43368W        W 8628   4.489  29.361   4.742
43369W        W 8629  14.307  27.593  10.278
43370W        W 8630  34.869   2.048  13.452
43371W        W 8631  15.539  24.697   2.205
43372W        W 8632   1.402  34.824  11.652
43373W        W 8633   9.410  17.030  11.615
43374W        W 8634  38.279  23.095  11.642
43375W        W 8635  30.177  21.556   0.022
43376W        W 8636  15.811  32.405   0.532
43377W        W 8637   9.336  37.913  12.675
43378W        W 8638  14.284  43.516   1.625
43379W        W 8639  25.069  34.340  13.322
43380W        W 8640  43.818   6.266   4.418
43381W        W 8641   9.916   0.511  13.104
43382W        W 8642  24.780  25.986   4.753
43383W        W 8643  17.687   4.661   3.198
43384W        W 8644  30.942  17.677  12.472
43385W        W 8645  23.453   0.675   1.447
43386W        W 8646  39.788   4.985  13.366
43387W        W 8647  15.727  19.315  12.617
43388W        W 8648  24.241  30.952  13.049
43389W        W 8649  28.110  22.867  11.008
43390W        W 8650   1.555  36.579   1.465
43391W        W 8651  44.751  44.318   1.723
43392W        W 8652  21.155  19.614   5.210
43393W        W 8653  27.642  35.164   1.202
43394W        W 8654  12.148  28.946  14.040
43395W        W 8655   8.479   7.819   3.790
43396W        W 8656  21.132   9.323   2.047
43397W        W 8657   7.219  26.429  12.867
43398W        W 8658  36.879  16.669   4.465
43399W        W 8659  31.889  42.850   5.057
43400W        W 8660   0.943  38.619  14.962
43401W        W 8661  39.020  40.535  12.453
43402W        W 8662   8.993  40.784   3.723
43403W        W 8663  14.328  37.206   2.188
43404W        W 8664  34.672  35.091   3.798
43405W        W 8665  31.541  17.322   1.037
43406W        W 8666  41.900  36.953  11.806
43407W        W 8667  42.973  31.102   3.743
43408W        W 8668   9.177  23.361   3.187
43409W        W 8669  24.726  37.944   3.717
43410W        W 8670   0.296  27.461   2.152
43411W        W 8671   5.917  14.753  14.900
43412W        W 8672  39.284  43.745   0.412
43413W        W 8673  19.999  18.486   3.737
43414W        W 8674  33.512  25.520  12.994
43415W        W 8675  17.587   1.740  11.063
43416W        W 8676   7.887  21.608   3.602
43417W        W 8677   5.893  29.579   4.651
43418W        W 8678  41.042  35.268  11.509
43419W        W 8679  17.040   5.408   2.332
43420W        W 8680   4.434  30.688   3.849
43421W        W 8681  22.584   8.170   3.088
43422W        W 8682  10.336  39.387  14.495
43423W        W 8683  29.575  30.168  12.484
43424W        W 8684   7.395  10.943   2.379
43425W        W 8685  23.689   6.643  13.365
43426W        W 8686  17.244   3.921   3.508
43427W        W 8687  36.074   8.312   4.627
43428W        W 8688  17.268  15.600   2.791
43429W        W 8689  20.371  40.519   1.905
43430W        W 8690   7.483   5.320  11.407
43431W        W 8691  39.954   7.986  14.008
43432W        W 8692   6.316  41.259  14.852
43433W        W 8693  30.482  28.710  14.752
43434W        W 8694   2.387  30.510   4.618
43435W        W 8695  24.241  22.591  12.920
43436W        W 8696  23.959  33.365   0.055
43437W        W 8697  10.267  44.394   1.471
43438W        W 8698  42.923  18.792  11.924
43439W        W 8699   4.653   6.976   3.965
43440W        W 8700  18.599  18.028   0.750
43441W        W 8701  12.880   2.937  12.142
43442W        W 8702  28.662  25.696  12.927
43443W        W 8703  44.796   3.701   3.655
43444W        W 8704  28.660  29.110  10.959
43445W        W 8705  11.183  40.563   1.877
43446W        W 8706  27.188  11.102  12.540
43447W        W 8707  11.173   9.803  14.401
43448W        W 8708  32.566  30.078   4.107
43449W        W 8709   4.230  39.402   2.832
43450W        W 8710  37.361  31.665  12.410
43451W        W 8711  40.401  31.235  11.569
43452W        W 8712  26.923  22.245   1.364
43453W        W 8713  14.907  20.958  12.693
43454W        W 8714  42.401  15.738  12.102
43455W        W 8715  29.530  10.863   4.617
43456W        W 8716   3.912   6.560  12.036
43457W        W 8717   9.726  27.474  14.794
43458W        W 8718  24.154   3.297   3.064
43459W        W 8719  39.408  11.101  10.659
43460W        W 8720  11.599  15.032  13.462
43461W        W 8721   3.218  17.020   3.826
43462W        W 8722  24.910  35.189   0.738
43463W        W 8723  33.543  23.464   3.608
43464W        W 8724  32.374  20.712   1.410
43465W        W 8725   2.977  23.014   4.655
43466W        W 8726  32.921  19.387   4.124
43467W        W 8727  35.447  10.799   1.313
43468W        W 8728  33.515  10.507   5.089
43469W        W 8729  37.675  24.641  11.038
43470W        W 8730  38.879  17.269   0.418
43471W        W 8731   0.293  37.978  14.394
43472W        W 8732  25.975  12.945   1.768
43473W        W 8733  14.115  17.679  12.517
43474W        W 8734   0.376  39.063   3.606
43475W        W 8735  43.236  18.568   2.752
43476W        W 8736  22.597  15.166   3.798
43477W        W 8737  26.310  14.052  12.134
43478W        W 8738   8.226  14.232  10.897
43479W        W 8739  19.234  10.642   2.872
43480W        W 8740  26.027  40.449  12.939
43481W        W 8741  28.421   3.292  10.666
43482W        W 8742  19.277  27.178  14.783
43483W        W 8743  18.217   8.610   1.923
43484W        W 8744  11.601  13.681  13.608
43485W        W 8745  37.029   5.827   1.424
43486W        W 8746  43.690  32.964  13.476
43487W        W 8747  32.518  38.471   2.771
43488W        W 8748   6.726  20.780  14.864
43489W        W 8749  26.704  39.109   9.820
43490W        W 8750  41.891  38.402  13.838
43491W        W 8751  26.155  36.854   3.564
43492W        W 8752   3.294  35.983  12.723
43493W        W 8753   0.478   3.032  14.398
43494W        W 8754  36.377  36.016  12.481
43495W        W 8755   7.124  42.867  13.475
43496W        W 8756   2.342  15.732   1.237
43497W        W 8757  35.613   7.006   2.690
43498W        W 8758  29.377  15.193  10.976
43499W        W 8759  10.935  19.239   0.251
43500W        W 8760  32.842  15.278  10.933
43501W        W 8761  31.654   0.801  13.866
43502W        W 8762  41.450  41.203  14.411
43503W        W 8763   7.822  34.988   3.693
43504W        W 8764  16.313  23.464  14.096
43505W        W 8765  11.514  29.994   0.471
43506W        W 8766  37.513  30.634  14.250
43507W        W 8767  42.364  41.539   0.860
43508W        W 8768  16.850   4.609  13.972
43509W        W 8769  44.903  33.427  11.526
43510W        W 8770  18.569  19.102  14.220
43511W        W 8771  30.106  11.694  10.975
43512W        W 8772   1.345   8.705  11.122
43513W        W 8773  26.821  17.165  12.269
43514W        W 8774   1.966  23.088  10.318
43515W        W 8775  26.434   6.214  13.045
43516W        W 8776  27.619  19.618   4.188
43517W        W 8777   8.780   9.380   1.302
43518W        W 8778   1.329   9.234   1.248
43519W        W 8779  35.275  38.287  14.475
43520W        W 8780  18.635   2.753   2.970
43521W        W 8781   6.387  23.079  11.924
43522W        W 8782  29.739  31.970  13.013
43523W        W 8783  38.634  12.219   0.263
43524W        W 8784   7.934   9.729   0.288
43525W        W 8785  23.070  34.861  12.649
43526W        W 8786   7.356   1.410   4.149
43527W        W 8787  32.088  38.999   5.049
43528W        W 8788   5.428  16.485   1.838
43529W        W 8789  19.565   5.681   4.499
43530W        W 8790  29.897  20.791   0.127
43531W        W 8791  39.018  17.790   1.673
43532W        W 8792   1.264  31.440  11.602
43533W        W 8793  43.583   3.397  14.348
43534W        W 8794  38.540  44.373  11.108
43535W        W 8795  11.897   6.785  13.616
43536W        W 8796  30.375  43.361  11.070
43537W        W 8797  12.242  34.881   1.823
43538W        W 8798  18.085  44.516   2.758
43539W        W 8799  34.398  25.970   0.742
43540W        W 8800  35.534  14.613   4.587
43541W        W 8801  19.616  27.203  12.016
43542W        W 8802  31.048  34.117   4.393
43543W        W 8803  12.148  27.564  14.283
43544W        W 8804  25.452   4.618  11.784
43545W        W 8805  44.975  43.753   3.607
43546W        W 8806  29.503  33.650  11.122
43547W        W 8807  22.134  42.917  12.879
43548W        W 8808   5.430  42.797   3.368
43549W        W 8809   4.653  37.835   4.642
43550W        W 8810  40.521   2.813  11.384
43551W        W 8811   4.087  16.548   2.336
43552W        W 8812  33.428   7.495  11.670
43553W        W 8813  35.494   9.052   3.197
43554W        W 8814  38.737  24.967   0.142
43555W        W 8815   4.918  38.031  11.728
43556W        W 8816  34.034  23.467   4.174
43557W        W 8817  36.094  23.178   1.361
43558W        W 8818   8.949   1.979  14.828
43559W        W 8819  41.231  23.534   3.089
43560W        W 8820  42.840  21.727  14.834
43561W        W 8821  12.152  22.392   1.321
43562W        W 8822  20.290   9.609   3.624
43563W        W 8823  28.835  33.367  12.143
43564W        W 8824  21.254   7.718   1.816
43565W        W 8825  18.541  41.728  13.515
43566W        W 8826  37.704   3.787   3.992
43567W        W 8827  38.934  26.341   4.555
43568W        W 8828  39.303   7.319   0.164
43569W        W 8829  16.774  17.368   3.515
43570W        W 8830  32.462  23.627   1.312
43571W        W 8831  42.798  37.543  13.050
43572W        W 8832  25.901  21.389   3.664
43573W        W 8833  24.979  34.526   1.862
43574W        W 8834  12.313  41.016  13.580
43575W        W 8835  31.958  16.675  12.364
43576W        W 8836   4.817  14.112  14.560
43577W        W 8837   4.126  14.263  11.983
43578W        W 8838  17.119  43.020   4.242
43579W        W 8839   6.648   9.271  13.330
43580W        W 8840  21.127  31.530   3.223
43581W        W 8841  37.650  38.997  14.183
43582W        W 8842  44.398  23.677   3.792
43583W        W 8843  39.793   4.985   1.725
43584W        W 8844  27.180   9.337   1.621
43585W        W 8845  22.034   9.234   2.792
43586W        W 8846  31.633  32.727   1.015
43587W        W 8847  17.697  29.863   1.705
43588W        W 8848   4.887  20.343  11.550
43589W        W 8849  23.255   0.848   3.796
43590W        W 8850  26.137   0.868   4.310
43591W        W 8851   6.226  30.379  10.524
43592W        W 8852  22.439  23.549   1.821
43593W        W 8853   2.309   2.363   0.724
43594W        W 8854  43.892  38.200  12.644
43595W        W 8855  12.068  34.492   0.006
43596W        W 8856  21.238  33.187  11.507
43597W        W 8857  36.897  32.374   4.388
43598W        W 8858  39.162  35.145   0.956
43599W        W 8859   5.354  19.250  12.016
43600W        W 8860  16.743   6.467   4.470
43601W        W 8861   5.378  20.516   1.906
43602W        W 8862  36.857  44.866   3.684
43603W        W 8863  39.393  10.415  12.042
43604W        W 8864   1.306   4.518  12.815
43605W        W 8865  12.145  25.152  14.980
43606W        W 8866  33.908  12.274   0.709
43607W        W 8867  15.295  29.923  13.307
43608W        W 8868  32.996   8.608  12.398
43609W        W 8869   2.146   7.000  13.556
43610W        W 8870  18.128  16.864   4.085
43611W        W 8871   5.103  37.053   2.173
43612W        W 8872  29.858  11.134   3.375
43613W        W 8873  22.957  14.014  14.863
43614W        W 8874  12.136  16.255  12.626
43615W        W 8875  36.736  23.529  10.763
43616W        W 8876  32.903  25.499   0.712
43617W        W 8877  11.522   0.057  12.014
43618W        W 8878   7.453  18.144   1.773
43619W        W 8879  32.153  38.152   3.631
43620W        W 8880  32.925  25.122   2.861
43621W        W 8881  36.489   2.366  12.139
43622W        W 8882  43.329  40.016   0.313
43623W        W 8883  11.127  19.188   3.944
43624W        W 8884   6.607  22.078  14.325
43625W        W 8885   5.619   2.859   1.321
43626W        W 8886  34.787  37.312  14.011
43627W        W 8887  13.793   4.796  14.930
43628W        W 8888  16.817  15.570   3.131
43629W        W 8889  18.581  16.713   2.278
43630W        W 8890  31.027  15.782   4.125
43631W        W 8891  30.517  33.958  12.413
43632W        W 8892   9.903  24.131  14.372
43633W        W 8893  32.528  28.408   4.545
43634W        W 8894  18.229  34.902   2.855
43635W        W 8895  44.816  20.819  10.702
43636W        W 8896  14.344  13.898  11.361
43637W        W 8897  36.751  30.203   2.876
43638W        W 8898  13.653  32.856   0.927
43639W        W 8899  29.378  33.050  12.815
43640W        W 8900  44.979  23.296   3.254
43641W        W 8901  18.565  17.675   0.373
43642W        W 8902  40.925  34.420  13.578
43643W        W 8903   0.216  39.818  14.740
43644W        W 8904  29.721  26.412  13.141
43645W        W 8905  17.282  18.434   4.677
43646W        W 8906  43.263  38.052  13.879
43647W        W 8907  31.329  27.793   0.016
43648W        W 8908  22.074  21.792   1.196
43649W        W 8909   8.695  26.057  14.711
43650W        W 8910  38.421   1.239  14.824
43651W        W 8911   1.155  14.243  10.655
43652W        W 8912  33.369  40.516  10.641
43653W        W 8913   7.556  15.637  14.756
43654W        W 8914   3.737   4.479   2.144
43655W        W 8915   6.057   1.815   1.876
43656W        W 8916  37.654   9.353   0.024
43657W        W 8917  21.176  17.268  10.670
43658W        W 8918  36.361  22.209  12.586
43659W        W 8919  41.582  29.523  10.557
43660W        W 8920  10.332  44.027  10.197
43661W        W 8921  37.602  15.563   3.170
43662W        W 8922  32.855   6.810   4.096
43663W        W 8923   2.013  20.639  12.927
43664W        W 8924   1.755  32.457   0.760
43665W        W 8925  35.973  24.713  12.909
43666W        W 8926  34.093   0.976  12.448
43667W        W 8927   2.184  16.141   3.882
43668W        W 8928  13.353   9.118  14.451
43669W        W 8929   5.333  39.260  12.631
43670W        W 8930  17.652   9.162  13.035
43671W        W 8931  30.792  16.204  13.579
43672W        W 8932  39.286  38.893  10.650
43673W        W 8933  35.800  13.219   0.326
43674W        W 8934  16.817  43.298  11.960
43675W        W 8935   5.773  33.029  11.561
43676W        W 8936   6.849  32.991   2.864
43677W        W 8937  23.674  20.737   3.582
43678W        W 8938  35.835  41.748  11.143
43679W        W 8939  11.787  26.514  13.944
43680W        W 8940   5.782   3.915  13.023
43681W        W 8941  37.535  13.024  14.033
43682W        W 8942  44.528  30.541   3.970
43683W        W 8943  44.230  43.736   1.239
43684W        W 8944  32.006  22.331   1.428
43685W        W 8945   2.815  19.577   4.021
43686W        W 8946  41.487  13.069  12.606
43687W        W 8947  19.565  29.480   2.215
43688W        W 8948  11.665  13.446   4.037
43689W        W 8949  11.710   9.506   9.778
43690W        W 8950  39.190  12.876  10.069
43691W        W 8951  36.641  34.698   0.845
43692W        W 8952  11.756  19.506  13.838
43693W        W 8953   8.653  15.006   2.371
43694W        W 8954   7.321  38.446  13.480
43695W        W 8955  29.187  12.507   0.404
43696W        W 8956  41.312  33.144  11.489
43697W        W 8957  42.895   4.262   0.867
43698W        W 8958  19.160  17.367   1.372
43699W        W 8959  36.300  12.845   0.769
43700W        W 8960  34.757   0.864   4.468
43701W        W 8961  14.864  16.343  13.292
43702W        W 8962   7.847  27.913   2.240
43703W        W 8963  44.173  43.607   0.525
43704W        W 8964   1.389   9.667   0.728
43705W        W 8965  42.060   3.394  14.491
43706W        W 8966   6.478  29.956  10.621
43707W        W 8967  36.483  11.220   4.732
43708W        W 8968   9.668  44.815  11.984
43709W        W 8969   4.218  11.126  14.344
43710W        W 8970  34.010   9.135  14.032
43711W        W 8971  11.937  13.189  11.061
43712W        W 8972  31.455  14.257   4.660
43713W        W 8973  23.472  37.858   3.263
43714W        W 8974   3.607   7.872   3.029
43715W        W 8975  25.608   9.268  11.292
43716W        W 8976   2.792   8.879   2.262
43717W        W 8977  21.558  41.066  14.611
43718W        W 8978  13.831   7.839   4.859
43719W        W 8979  32.591  33.983   4.848
43720W        W 8980  36.139  17.754  11.681
43721W        W 8981  37.886  41.811   4.628
43722W        W 8982  19.457  37.130   2.401
43723W        W 8983  39.299  17.131  10.652
43724W        W 8984  43.371  12.152  12.147
43725W        W 8985   5.326  27.240   2.335
43726W        W 8986   8.307  28.770   2.320
43727W        W 8987   0.305   5.788  13.840
43728W        W 8988  34.603  43.576   3.859
43729W        W 8989  35.376  13.579  12.148
43730W        W 8990  24.306  17.734   3.270
43731W        W 8991  38.357  15.828   1.766
43732W        W 8992  20.233  37.588   2.790
43733W        W 8993  44.718   2.508  11.472
43734W        W 8994  15.923  16.745   1.446
43735W        W 8995  28.150  36.353   3.760
43736W        W 8996  24.997  25.039  14.461
43737W        W 8997  25.451  25.269  12.410
43738W        W 8998  13.156   9.650   3.198
43739W        W 8999  25.425  31.870  13.970
43740W        W 9000  19.726   6.382   2.326
43741W        W 9001  43.993  26.090   3.515
43742W        W 9002  17.641  11.745   2.749
43743W        W 9003  21.048   8.658   3.836
43744W        W 9004   0.835  37.508   1.610
43745W        W 9005  24.588   9.552   3.763
43746W        W 9006  44.362  19.715  14.116
43747W        W 9007   7.209  42.067   2.664
43748W        W 9008   7.972   5.524  10.773
43749W        W 9009  17.507   1.251   4.589
43750W        W 9010  33.902  39.020   1.699
43751W        W 9011  17.634  31.978  12.380
43752W        W 9012  39.021  16.696  14.726
43753W        W 9013   3.858   6.369   2.071
43754W        W 9014  36.527  42.353   4.630
43755W        W 9015   2.213  39.164   2.370
43756W        W 9016  21.955  20.059   5.259
43757W        W 9017  28.722  29.487  13.017
43758W        W 9018  23.970   2.128   4.227
43759W        W 9019  23.134   2.829   4.617
43760W        W 9020  13.064  24.709  12.868
43761W        W 9021  21.892  28.669  10.703
43762W        W 9022   5.948   9.284   3.655
43763W        W 9023  43.839  20.670   4.532
43764W        W 9024  25.430   9.442   3.386
43765W        W 9025  16.413  22.786  11.599
43766W        W 9026   2.006   5.584  11.182
43767W        W 9027  19.342  26.653   0.489
43768W        W 9028  24.106   9.042   1.142
43769W        W 9029   4.172   9.125   2.298
43770W        W 9030  35.549  24.753   4.276
43771W        W 9031   6.662   6.303   0.861
43772W        W 9032  18.274  17.388  11.273
43773W        W 9033  19.162  35.861   1.468
43774W        W 9034   7.269  18.210   0.400
43775W        W 9035  33.322  29.179   3.849
43776W        W 9036  17.282   7.250  14.291
43777W        W 9037  37.601  19.095  11.603
43778W        W 9038   2.396  21.178  11.669
43779W        W 9039   4.485  23.680  10.437
43780W        W 9040  12.840  39.938   0.046
43781W        W 9041  10.364   0.250  13.296
43782W        W 9042   4.874   5.392  12.351
43783W        W 9043  18.604  20.452   2.676
43784W        W 9044  32.691  33.961   2.622
43785W        W 9045  25.269   7.359   9.761
43786W        W 9046  10.418  19.496  10.156
43787W        W 9047   9.200  23.172   4.034
43788W        W 9048  19.598  30.883  13.516
43789W        W 9049  35.978  22.309  13.363
43790W        W 9050  42.060  21.173  14.884
43791W        W 9051  23.952  13.444   3.852
43792W        W 9052  38.020  30.157  11.217
43793W        W 9053  28.680  39.286  11.511
43794W        W 9054   9.928  17.090   1.381
43795W        W 9055   8.931   0.680   9.938
43796W        W 9056  26.552  15.185   1.451
43797W        W 9057  40.772  34.921   2.165
43798W        W 9058   4.808  27.679   4.062
43799W        W 9059  40.326  33.607  13.389
43800W        W 9060  37.040  32.736  11.101
43801W        W 9061   8.137  39.309  11.592
43802W        W 9062  20.022  34.380  14.369
43803W        W 9063  16.581  12.679   2.631
43804W        W 9064  28.121   4.304  11.043
43805W        W 9065  18.144  26.131   0.494
43806W        W 9066   7.868  24.949   1.540
43807W        W 9067  16.584  21.708  13.851
43808W        W 9068  29.771  43.404   1.316
43809W        W 9069  11.645   2.360  12.622
43810W        W 9070  23.545   6.471   3.196
43811W        W 9071  33.435   8.476  11.609
43812W        W 9072  37.922   4.421  14.752
43813W        W 9073  19.179  27.917   3.876
43814W        W 9074   8.498  43.491   2.838
43815W        W 9075  36.517  35.063   4.241
43816W        W 9076  43.505  43.924  12.742
43817W        W 9077  38.504   4.680   0.263
43818W        W 9078  27.183  41.257  13.579
43819W        W 9079  16.083   0.650   3.937
43820W        W 9080  12.807  39.606  12.904
43821W        W 9081  21.676  22.233   4.489
43822W        W 9082   8.197  20.481  14.810
43823W        W 9083  15.624   2.601  13.623
43824W        W 9084  44.882   5.764   1.295
43825W        W 9085   3.037   0.289   4.075
43826W        W 9086   2.265  32.427  11.950
43827W        W 9087  20.710   7.659   2.616
43828W        W 9088   4.508  32.155  11.821
43829W        W 9089  22.687  35.524  12.315
43830W        W 9090  38.308  19.568   0.333
43831W        W 9091  36.001   6.454   1.350
43832W        W 9092   5.563   2.368  11.610
43833W        W 9093  22.378  16.879  14.750
43834W        W 9094  40.684  15.848   9.617
43835W        W 9095  36.840   8.139   1.260
43836W        W 9096  24.983  28.030   0.911
43837W        W 9097  13.815   2.207  12.962
43838W        W 9098  23.825  38.056   0.931
43839W        W 9099   1.061   8.445  12.092
43840W        W 9100  18.852  33.462   0.942
43841W        W 9101  14.949  40.708   0.010
43842W        W 9102  14.867   5.965   4.537
43843W        W 9103  26.415  12.293  11.027
43844W        W 9104   9.819  36.637  11.182
43845W        W 9105   5.651   7.178   2.561
43846W        W 9106  24.686  29.938  11.982
43847W        W 9107  43.355  42.799   0.769
43848W        W 9108  16.290  16.571  13.595
43849W        W 9109   9.296  42.063   4.059
43850W        W 9110  16.889   9.740   3.742
43851W        W 9111  26.080  15.112   1.186
43852W        W 9112   4.721  19.447   3.381
43853W        W 9113  17.230   1.810   3.098
43854W        W 9114  43.298  38.081  10.536
43855W        W 9115  41.188  12.697  11.682
43856W        W 9116   3.262  24.763  14.462
43857W        W 9117  31.690  41.778  12.541
43858W        W 9118  40.190  42.491  13.529
43859W        W 9119  23.461  28.068   3.584
43860W        W 9120  23.198  37.013  11.892
43861W        W 9121  38.279  26.704  11.205
43862W        W 9122  24.177  29.796   4.096
43863W        W 9123  21.434   1.846  12.289
43864W        W 9124  33.020  16.342   3.884
43865W        W 9125  39.819   9.875   2.689
43866W        W 9126  14.075  33.956   0.884
43867W        W 9127  42.985   7.429   4.573
43868W        W 9128  38.839  20.995  14.750
43869W        W 9129   7.141  11.734  12.926
43870W        W 9130   9.542  13.680  13.913
43871W        W 9131   9.344   4.751   4.233
43872W        W 9132  43.107  17.553   4.389
43873W        W 9133  16.205   4.894   4.603
43874W        W 9134  40.590  24.615   3.316
43875W        W 9135  41.768   1.293  11.898
43876W        W 9136  33.027  12.016   4.241
43877W        W 9137  22.645  32.150   0.731
43878W        W 9138   1.815  10.086  12.543
43879W        W 9139  13.197  18.176   3.277
43880W        W 9140   4.395  22.279  12.465
43881W        W 9141  41.367  20.556  13.965
43882W        W 9142  27.585   5.876   1.688
43883W        W 9143   8.354  39.113   3.580
43884W        W 9144  37.478  14.104  12.621
43885W        W 9145  38.274  31.691   4.634
43886W        W 9146  43.435  31.660   3.333
43887W        W 9147   2.169   1.428   0.283
43888W        W 9148  16.051   3.738  12.362
43889W        W 9149  34.340  28.321   2.190
43890W        W 9150  14.411  12.281   3.410
43891W        W 9151   6.963  34.009  14.614
43892W        W 9152  32.014  32.906   3.163
43893W        W 9153  10.162  13.620  12.931
43894W        W 9154  35.459  43.934  14.118
43895W        W 9155  36.491  13.238  13.192
43896W        W 9156  44.785  14.440  10.191
43897W        W 9157   2.337   0.205   1.371
43898W        W 9158  32.770   0.615   4.990
43899W        W 9159  39.390  14.499  11.178
43900W        W 9160  17.497  33.025   4.490
43901W        W 9161  36.412  19.810  12.846
43902W        W 9162  30.633  19.308   2.425
43903W        W 9163  32.996  29.631   4.627
43904W        W 9164  10.458  29.119  13.018
43905W        W 9165   1.359  10.390   4.713
43906W        W 9166  14.536   4.216  14.017
43907W        W 9167  18.552  26.981  11.669
43908W        W 9168  37.086  39.992   4.738
43909W        W 9169   4.409  36.423   0.410
43910W        W 9170  28.238  24.394  13.501
43911W        W 9171  16.649  37.661   2.420
43912W        W 9172  31.394   0.534  14.237
43913W        W 9173  19.957   6.019  14.915
43914W        W 9174  39.550   9.321  11.202
43915W        W 9175   4.926   9.608  11.263
43916W        W 9176  28.715  37.858   3.176
43917W        W 9177  38.128   8.939   2.296
43918W        W 9178  31.824  38.502  12.281
43919W        W 9179  15.273   6.474   4.022
43920W        W 9180   1.830   1.888  12.986
43921W        W 9181  42.321  22.572   3.126
43922W        W 9182  42.108   5.389  11.572
43923W        W 9183  17.402  40.375  14.777
43924W        W 9184   2.338  22.521  13.347
43925W        W 9185  39.586  24.898   3.376
43926W        W 9186  17.988  29.999   0.395
43927W        W 9187  17.592  10.855   0.808
43928W        W 9188  23.236  11.300   1.185
43929W        W 9189  44.864  13.710   5.393
43930W        W 9190  19.265  25.663   4.155
43931W        W 9191  37.403   3.792  14.977
43932W        W 9192  17.130   9.265   2.342
43933W        W 9193  38.844  26.111  11.512
43934W        W 9194  13.068  14.213   4.114
43935W        W 9195   3.504  29.417  11.551
43936W        W 9196  31.532  41.580  14.393
43937W        W 9197  37.088  21.574   1.674
43938W        W 9198  36.090  13.642   0.332
43939W        W 9199   6.244  11.656  10.175
43940W        W 9200  16.165  11.253   0.255
43941W        W 9201  18.552   9.710  10.728
43942W        W 9202  24.918  15.277  12.436
43943W        W 9203  27.101  35.973   1.391
43944W        W 9204  11.153  23.589  10.995
43945W        W 9205  38.548  23.684   2.608
43946W        W 9206   4.189  29.865  11.163
43947W        W 9207  12.042  40.282  11.132
43948W        W 9208  42.069  29.949  12.125
43949W        W 9209  29.957  12.195  10.757
43950W        W 9210  39.477  15.321  13.277
43951W        W 9211  12.440   5.599   4.014
43952W        W 9212  43.091  37.755   4.104
43953W        W 9213   0.029  36.553   3.300
43954W        W 9214  39.989  27.613   0.801
43955W        W 9215  33.161  41.597   2.238
43956W        W 9216  13.936  42.038  13.351
43957W        W 9217  21.588  44.606  14.045
43958W        W 9218   4.182  29.687   2.711
43959W        W 9219  27.417  29.980  12.372
43960W        W 9220  28.171  32.001   9.800
43961W        W 9221  27.646   9.674   2.875
43962W        W 9222  42.000  40.747  14.917
43963W        W 9223  12.641  29.257  10.983
43964W        W 9224  36.825  28.017  12.148
43965W        W 9225  21.143  40.405  14.505
43966W        W 9226  33.013  42.644   2.357
43967W        W 9227  31.566  18.268  14.526
43968W        W 9228  11.288  42.534  10.366
43969W        W 9229  18.888  27.994   3.464
43970W        W 9230  32.954   6.452  12.825
43971W        W 9231  38.642  31.362   3.993
43972W        W 9232  16.594  16.724   2.470
43973W        W 9233  10.687  40.709  11.163
43974W        W 9234  27.596  15.988  11.368
43975W        W 9235  32.090  32.399  11.639
43976W        W 9236  44.424  26.656   2.862
43977W        W 9237  26.292  37.863   2.613
43978W        W 9238  31.653  23.050   2.299
43979W        W 9239  18.932  42.494   3.409
43980W        W 9240  40.082  32.413   2.709
43981W        W 9241   4.471  14.469  14.683
43982W        W 9242  37.434  34.867   1.268
43983W        W 9243  35.855   0.268  12.543
43984W        W 9244  36.903  24.409   2.431
43985W        W 9245  42.872  13.259  12.639
43986W        W 9246  17.474  26.647   0.448
43987W        W 9247  42.846  30.114   0.725
43988W        W 9248  13.385  32.065  14.547
43989W        W 9249   9.567  39.825   2.748
43990W        W 9250  40.022  39.322  11.138
43991W        W 9251  34.985  20.617   0.087
43992W        W 9252  26.113  35.081  13.885
43993W        W 9253  17.027   1.469  11.885
43994W        W 9254  32.087  11.257  12.595
43995W        W 9255  16.831   3.808  12.048
43996W        W 9256  16.303  14.774   1.480
43997W        W 9257  37.338  25.224  11.910
43998W        W 9258   3.808  24.923  12.170
43999W        W 9259  22.047  28.248   1.904
44000W        W 9260  13.144  36.479  13.637
44001W        W 9261   4.687  10.909  14.303
44002W        W 9262  11.966  35.063   0.796
44003W        W 9263   3.695  24.427   4.262
44004W        W 9264  23.037  44.050   3.802
44005W        W 9265   4.735  18.965  13.155
44006W        W 9266  42.391  37.336   1.850
44007W        W 9267  19.641  34.861  11.657
44008W        W 9268  38.041  32.030   3.791
44009W        W 9269  13.477   6.349  13.360
44010W        W 9270   6.991  22.197   1.792
44011W        W 9271  31.960  43.800   2.176
44012W        W 9272  29.347   5.164   4.721
44013W        W 9273   4.037  27.653   2.287
44014W        W 9274  23.350   2.767   3.720
44015W        W 9275  34.686   0.432  12.974
44016W        W 9276  22.786  43.795   4.165
44017W        W 9277   4.146   9.630   2.187
44018W        W 9278   1.017  42.919  11.975
44019W        W 9279  16.384  18.218   0.954
44020W        W 9280  20.541  43.044  12.104
44021W        W 9281  40.373  33.106   2.127
44022W        W 9282  23.635  34.322   1.298
44023W        W 9283  37.595  35.353   3.752
44024W        W 9284  35.434   7.348  12.826
44025W        W 9285  13.293  22.762   0.303
44026W        W 9286  21.269  38.258  14.765
44027W        W 9287  18.604  23.265  13.882
44028W        W 9288  20.012   3.117   2.133
44029W        W 9289  43.139  26.998   2.843
44030W        W 9290  31.223  20.110   2.265
44031W        W 9291   5.743   1.953  11.868
44032W        W 9292  26.480  30.952   3.839
44033W        W 9293  10.607   3.861   4.622
44034W        W 9294  20.731  34.568  12.851
44035W        W 9295  23.094  12.920  13.910
44036W        W 9296  40.981  26.214  13.953
44037W        W 9297  16.211  44.128  12.871
44038W        W 9298  38.059  12.845   3.253
44039W        W 9299  17.162  11.777   0.209
44040W        W 9300   8.836  20.744   3.739
44041W        W 9301  24.196  35.662   0.362
44042W        W 9302  11.443  42.525  12.078
44043W        W 9303  19.784  33.399  14.555
44044W        W 9304  11.069  17.594   4.030
44045W        W 9305  29.826  29.092   4.671
44046W        W 9306   4.826  29.947  14.731
44047W        W 9307  26.633  44.205   2.796
44048W        W 9308  39.885  27.551  13.673
44049W        W 9309  37.620  36.860  12.271
44050W        W 9310  11.855  18.598  12.885
44051W        W 9311  37.518  29.797   1.383
44052W        W 9312  34.464   6.745   3.151
44053W        W 9313  35.484  25.063   3.825
44054W        W 9314  27.875  12.654  12.083
44055W        W 9315  20.648  15.034   0.432
44056W        W 9316  35.866  12.357  11.198
44057W        W 9317  20.578   2.871   1.013
44058W        W 9318  35.579  19.983   3.153
44059W        W 9319  16.184   5.148   1.344
44060W        W 9320  29.701  11.377  12.811
44061W        W 9321  29.840  41.949   3.310
44062W        W 9322  14.251  33.874   2.915
44063W        W 9323  29.668  18.710   3.182
44064W        W 9324  42.572  25.575  13.414
44065W        W 9325  41.521  17.113  11.644
44066W        W 9326  43.027  34.452  12.047
44067W        W 9327  18.095  39.551  11.750
44068W        W 9328  24.240  32.981  14.850
44069W        W 9329  39.014  19.291  14.019
44070W        W 9330   0.973  30.261   1.731
44071W        W 9331  28.105  20.866  11.024
44072W        W 9332  38.475  11.172   4.634
44073W        W 9333  37.331   4.612  12.041
44074W        W 9334  35.145  15.614  12.844
44075W        W 9335  25.030  33.065   1.483
44076W        W 9336  36.694  36.913  13.154
44077W        W 9337  17.095  36.303  14.732
44078W        W 9338   7.073  24.594  12.396
44079W        W 9339  33.184   6.650   3.716
44080W        W 9340  21.826  12.623  11.558
44081W        W 9341  39.675  34.594  11.595
44082W        W 9342  39.014  41.488  12.988
44083W        W 9343  21.112  24.706  13.478
44084W        W 9344  31.421   9.423   1.353
44085W        W 9345  43.472   5.389  14.024
44086W        W 9346  17.299  13.526   3.849
44087W        W 9347  18.139  30.745   3.150
44088W        W 9348  20.424  34.018  14.486
44089W        W 9349   5.205  38.438  11.537
44090W        W 9350  13.396  40.314  10.126
44091W        W 9351  25.934   4.843  14.840
44092W        W 9352  36.800   9.172  10.884
44093W        W 9353  12.023  29.069   4.193
44094W        W 9354  27.524  19.138   1.482
44095W        W 9355  44.849  40.107  14.930
44096W        W 9356  43.255  23.695   3.349
44097W        W 9357  23.636  32.616   3.455
44098W        W 9358  13.700  44.475   0.927
44099W        W 9359  41.737  28.596   3.243
44100W        W 9360  19.034  17.775  11.614
44101W        W 9361  21.481   4.174  14.849
44102W        W 9362   4.359  18.707   0.331
44103W        W 9363  43.757  32.467   0.193
44104W        W 9364  12.199  25.436  14.463
44105W        W 9365  32.932   3.007   4.284
44106W        W 9366  23.718  33.369   1.470
44107W        W 9367  25.514  15.201  12.504
44108W        W 9368  20.958  40.540   2.633
44109W        W 9369  26.209  19.229  13.080
44110W        W 9370   2.279  20.088  12.922
44111W        W 9371  43.244  38.445   3.436
44112W        W 9372  38.161  17.982   1.378
44113W        W 9373  12.286  14.644   4.582
44114W        W 9374  26.445  33.666   2.035
44115W        W 9375  18.072  35.908  13.922
44116W        W 9376  35.140  12.561  11.590
44117W        W 9377   0.422   6.091   4.237
44118W        W 9378   0.079  37.091   1.842
44119W        W 9379   2.794  26.313  11.223
44120W        W 9380   1.480  34.658   1.683
44121W        W 9381  13.716  41.529  14.317
44122W        W 9382  41.534   4.795   3.638
44123W        W 9383  18.154  43.700  14.348
44124W        W 9384  43.846  21.040   9.976
44125W        W 9385  34.534   8.661   1.338
44126W        W 9386   9.555  13.112  12.138
44127W        W 9387   2.883   0.020   2.742
44128W        W 9388   5.618  33.064  12.049
44129W        W 9389  22.798  29.943  12.560
44130W        W 9390   1.500  14.682  14.331
44131W        W 9391  34.016  12.156   4.274
44132W        W 9392  13.852  39.438  14.227
44133W        W 9393   7.178  37.957   3.636
44134W        W 9394  23.536  17.688   3.090
44135W        W 9395  39.976  43.929   4.284
44136W        W 9396  41.618  17.719   2.631
44137W        W 9397  23.890  11.130  13.915
44138W        W 9398  17.755  11.249   4.772
44139W        W 9399  43.923  37.184  12.481
44140W        W 9400  33.152   5.139  10.585
44141W        W 9401  39.493  35.458  10.614
44142W        W 9402  19.198   0.238   0.273
44143W        W 9403  34.847   0.828   3.171
44144W        W 9404  20.212  19.691  12.908
44145W        W 9405  42.440   3.003   2.232
44146W        W 9406  27.082  37.022  10.593
44147W        W 9407  36.394  24.520  14.280
44148W        W 9408  38.798  41.065  10.259
44149W        W 9409  33.396  43.815   0.199
44150W        W 9410  42.743  30.092   2.734
44151W        W 9411  21.141  39.781  13.330
44152W        W 9412  17.779  26.138  11.633
44153W        W 9413   7.600  20.350  13.000
44154W        W 9414  11.968  21.944  11.582
44155W        W 9415  28.420  13.926  14.292
44156W        W 9416  30.364  44.858   3.281
44157W        W 9417  22.956   9.172   5.660
44158W        W 9418  36.112   3.772   1.238
44159W        W 9419  18.719  36.596   2.645
44160W        W 9420   3.345  31.408   3.434
44161W        W 9421  18.504   8.227   0.729
44162W        W 9422  33.463  37.581  10.938
44163W        W 9423  25.563  24.638  13.928
44164W        W 9424  34.022   4.523   0.647
44165W        W 9425  37.021   2.394  13.117
44166W        W 9426   1.615  34.371   4.257
44167W        W 9427  29.338  44.144   5.123
44168W        W 9428  42.086  34.388   0.837
44169W        W 9429  40.067  10.771   3.077
44170W        W 9430   3.209  16.219  14.921
44171W        W 9431  44.474  28.211   0.425
44172W        W 9432  22.796  19.646  11.614
44173W        W 9433  40.953  12.931  14.936
44174W        W 9434  31.399   1.781   1.702
44175W        W 9435  32.830  25.522  14.239
44176W        W 9436  41.990  41.305  13.695
44177W        W 9437  19.586  35.501  13.808
44178W        W 9438   2.962   1.096   0.773
44179W        W 9439  33.213  20.554  13.371
44180W        W 9440   1.058  23.447   4.948
44181W        W 9441  29.968  44.208   3.734
44182W        W 9442  33.358   5.332   0.705
44183W        W 9443  19.497  10.602  13.359
44184W        W 9444  38.890  41.201   1.599
44185W        W 9445   3.339   4.985  11.940
44186W        W 9446  25.525  11.625   3.405
44187W        W 9447  30.055   7.268  13.386
44188W        W 9448  14.663  14.897   0.184
44189W        W 9449   6.419  28.466   2.740
44190W        W 9450  21.335   8.241   3.864
44191W        W 9451  10.047   8.333   4.946
44192W        W 9452  44.838  27.620   4.109
44193W        W 9453  42.419  32.444   3.110
44194W        W 9454  44.929   0.920   4.915
44195W        W 9455  12.671  16.204   1.284
44196W        W 9456  27.375   9.215  11.590
44197W        W 9457  33.109  19.843  14.742
44198W        W 9458  11.409  26.084   1.687
44199W        W 9459  31.539  35.055  12.030
44200W        W 9460   4.824  19.050   1.300
44201W        W 9461  19.646  18.318   4.566
44202W        W 9462  34.701  37.687  11.333
44203W        W 9463   8.332  35.177   3.727
44204W        W 9464  36.818  10.208  10.663
44205W        W 9465   5.658  39.831   2.179
44206W        W 9466   9.271   5.700  10.630
44207W        W 9467  19.921  39.501  11.591
44208W        W 9468   5.466  27.179  12.941
44209W        W 9469  10.370   0.199  11.594
44210W        W 9470   7.427  40.582   0.297
44211W        W 9471  42.011  18.641   3.115
44212W        W 9472  32.397  21.630  12.258
44213W        W 9473  16.266  31.819  12.340
44214W        W 9474   1.815  40.385   1.305
44215W        W 9475  38.045  18.031  14.773
44216W        W 9476   9.161  22.251  13.047
44217W        W 9477  34.479  41.589  12.550
44218W        W 9478  32.468  42.486   2.885
44219W        W 9479  44.402  27.728  12.289
44220W        W 9480  42.166  11.421   9.875
44221W        W 9481  14.434  40.940   4.708
44222W        W 9482   0.440  19.646   2.189
44223W        W 9483   2.442  39.433  11.502
44224W        W 9484  23.622  34.394   4.662
44225W        W 9485  10.148  44.914   1.532
44226W        W 9486  22.627  23.895  12.435
44227W        W 9487  18.538  42.568   2.518
44228W        W 9488  20.484  35.286   1.093
44229W        W 9489   4.937  38.066  14.180
44230W        W 9490  10.208  32.095  13.951
44231W        W 9491   2.530  28.995   4.456
44232W        W 9492  10.315  40.583   0.400
44233W        W 9493  11.694  14.864  11.029
44234W        W 9494  18.066   2.825  12.094
44235W        W 9495   9.420  35.986   2.295
44236W        W 9496   6.758  37.478  10.683
44237W        W 9497  16.391  38.434  13.841
44238W        W 9498  11.666  22.080  13.343
44239W        W 9499  37.877  28.415   2.254
44240W        W 9500  41.024  23.991   1.729
44241W        W 9501  15.243  40.127   4.113
44242W        W 9502  39.700  17.121  12.978
44243W        W 9503  28.406  26.140  13.521
44244W        W 9504  14.830  12.763   5.061
44245W        W 9505  35.249  33.362   5.112
44246W        W 9506  24.247  19.187  13.979
44247W        W 9507   0.953  30.603   4.839
44248W        W 9508  37.017  24.177  11.239
44249W        W 9509   2.895  41.488   1.924
44250W        W 9510  10.656  30.646   4.733
44251W        W 9511  35.641  17.200   4.210
44252W        W 9512  11.078  14.277   0.016
44253W        W 9513  25.707  11.109   2.738
44254W        W 9514  26.814  29.459   3.627
44255W        W 9515   8.480  15.267  10.714
44256W        W 9516  42.982  44.363  10.947
44257W        W 9517   5.699  41.449   3.275
44258W        W 9518  24.553  13.549  13.776
44259W        W 9519  42.774  39.856  12.383
44260W        W 9520  40.432  42.757   1.494
44261W        W 9521  42.210  40.993   3.786
44262W        W 9522  18.694  32.664  11.071
44263W        W 9523  17.160  34.940   0.803
44264W        W 9524  15.175  43.947   4.433
44265W        W 9525   2.772  27.099   4.034
44266W        W 9526   1.297   9.949  14.389
44267W        W 9527  17.555  26.563   3.852
44268W        W 9528   2.916  11.164   4.625
44269W        W 9529  37.991  24.770   0.294
44270W        W 9530  38.496  40.473   1.165
44271W        W 9531  32.943  28.412   3.753
44272W        W 9532  12.774  14.295   5.024
44273W        W 9533  19.546  38.300  11.062
44274W        W 9534  22.071  20.619   1.667
44275W        W 9535  30.544   7.818   0.060
44276W        W 9536  43.288   4.213   1.234
44277W        W 9537  26.685  22.127   5.083
44278W        W 9538  31.654  34.427  14.009
44279W        W 9539  20.004  35.137   0.907
44280W        W 9540  42.737  31.372   2.273
44281W        W 9541  16.692  29.537  13.373
44282W        W 9542   2.168   5.376   2.847
44283W        W 9543  29.701  35.951   3.261
44284W        W 9544   5.748  42.410  13.930
44285W        W 9545  37.610   9.271   2.435
44286W        W 9546   4.350  24.818  12.430
44287W        W 9547  17.288  39.598  10.675
44288W        W 9548  34.829  19.152  12.526
44289W        W 9549  38.082   0.113  12.314
44290W        W 9550   7.924   3.506   5.022
44291W        W 9551  37.611  21.982  11.631
44292W        W 9552  12.293   7.766   3.190
44293W        W 9553  36.736   9.799  13.064
44294W        W 9554  31.974  32.436   0.695
44295W        W 9555   0.334  30.948  14.853
44296W        W 9556  29.015   5.035  14.937
44297W        W 9557   5.915  24.671  14.830
44298W        W 9558  36.724  18.101   1.164
44299W        W 9559   9.842  17.696   3.123
44300W        W 9560   6.244   2.538   1.306
44301W        W 9561  25.415   5.754  12.568
44302W        W 9562  31.184  38.466  11.046
44303W        W 9563   6.504  25.697   4.752
44304W        W 9564  40.527  29.194  12.505
44305W        W 9565  24.990  15.670   4.645
44306W        W 9566  24.126  17.125   4.163
44307W        W 9567  41.553  19.084  13.070
44308W        W 9568  18.284  33.467  11.087
44309W        W 9569  25.081  29.508   0.552
44310W        W 9570  22.667  28.527   3.148
44311W        W 9571  43.975  21.874   3.592
44312W        W 9572   9.724  19.696   1.782
44313W        W 9573  19.198  25.299   1.835
44314W        W 9574   7.316  42.076   3.967
44315W        W 9575  12.319  29.570   1.940
44316W        W 9576  38.785  22.220   4.380
44317W        W 9577   3.427   6.829  13.060
44318W        W 9578  29.653  41.454  11.021
44319W        W 9579   1.543  37.874   4.192
44320W        W 9580  36.300   8.709   1.641
44321W        W 9581  37.057  34.613   3.479
44322W        W 9582  25.109  38.938  12.126
44323W        W 9583   5.176   8.335  11.685
44324W        W 9584  20.331  32.524   1.881
44325W        W 9585  43.746  23.737  14.505
44326W        W 9586  44.360   2.396   2.378
44327W        W 9587  34.798  42.921   2.170
44328W        W 9588   0.683  40.873   4.636
44329W        W 9589   0.775  40.833   0.510
44330W        W 9590  41.826  43.313   2.197
44331W        W 9591  25.929  19.109  12.375
44332W        W 9592   1.031  20.740   1.696
44333W        W 9593   4.328  41.982   0.881
44334W        W 9594   3.527  12.579  12.473
44335W        W 9595  29.590  37.810   1.891
44336W        W 9596   4.445   0.267   4.116
44337W        W 9597  42.337   7.278   2.255
44338W        W 9598  27.967  37.998   1.738
44339W        W 9599  10.269  29.749  10.462
44340W        W 9600  37.090  11.939  12.054
44341W        W 9601  26.906  41.807  11.586
44342W        W 9602  42.102  11.624   0.028
44343W        W 9603  24.125  41.585  14.256
44344W        W 9604   5.268  30.402   4.848
44345W        W 9605  38.122   5.175   2.059
44346W        W 9606   0.409  33.560  13.944
44347W        W 9607  28.826  23.590  14.323
44348W        W 9608  41.523  34.996  12.501
44349W        W 9609  12.668  16.755   1.831
44350W        W 9610  32.091  11.617  11.838
44351W        W 9611  21.646  18.479   1.349
44352W        W 9612  29.886  21.672   0.466
44353W        W 9613  39.804  32.341   2.283
44354W        W 9614  16.434  38.384   3.134
44355W        W 9615  37.109  24.665   4.147
44356W        W 9616  14.557  42.383   2.709
44357W        W 9617  11.312  23.596  14.912
44358W        W 9618  13.094   8.621  14.341
44359W        W 9619  16.913  27.674  12.370
44360W        W 9620   1.165  15.048   3.582
44361W        W 9621  17.835   6.826   0.040
44362W        W 9622  41.095  23.146   0.845
44363W        W 9623  12.250  27.079  14.438
44364W        W 9624   6.488   7.842   4.468
44365W        W 9625  37.068   9.725  14.339
44366W        W 9626   9.265  37.279   2.674
44367W        W 9627   2.360  37.391   3.707
44368W        W 9628  20.069  24.164   0.016
44369W        W 9629  28.268  39.871  12.432
44370W        W 9630  39.501  30.557  12.867
44371W        W 9631  10.256  35.012   5.024
44372W        W 9632  11.340  18.517  12.861
44373W        W 9633  21.132  43.376  12.583
44374W        W 9634   3.713  12.791  12.034
44375W        W 9635   8.916  44.725  13.953
44376W        W 9636  15.730  42.798  13.265
44377W        W 9637  41.014  37.539  13.415
44378W        W 9638  44.355  22.443  14.058
44379W        W 9639  44.312  29.046   3.576
44380W        W 9640  17.704  35.955  10.442
44381W        W 9641  18.694  39.957  14.705
44382W        W 9642  17.847  35.980   3.280
44383W        W 9643  20.583  30.872   0.075
44384W        W 9644  32.436  32.103  11.069
44385W        W 9645   6.479  20.975  12.449
44386W        W 9646  30.464  16.858  11.554
44387W        W 9647  44.979  36.435  10.965
44388W        W 9648  27.361  27.191   2.786
44389W        W 9649  23.492  19.390  11.238
44390W        W 9650  18.676   9.010  11.973
44391W        W 9651   6.466  32.744   2.200
44392W        W 9652   1.695  31.073  11.968
44393W        W 9653  43.823  28.178   4.613
44394W        W 9654  38.096  32.621  14.527
44395W        W 9655  36.517  32.136   5.026
44396W        W 9656  22.519  12.610   1.649
44397W        W 9657  43.519  29.968  13.518
44398W        W 9658  11.741  18.963  13.759
44399W        W 9659  22.061  22.811   1.418
44400W        W 9660  44.942   6.401  10.966
44401W        W 9661  44.426   2.420  14.393
44402W        W 9662  32.564  39.303  14.296
44403W        W 9663  14.344  21.307  13.481
44404W        W 9664  33.007   7.295  14.786
44405W        W 9665   9.292   2.459  14.247
44406W        W 9666  33.485  44.538  13.285
44407W        W 9667   2.685   4.871  11.631
44408W        W 9668  42.520   4.639  13.004
44409W        W 9669  25.966  29.378   4.724
44410W        W 9670  16.608  37.915  14.010
44411W        W 9671  12.217   6.129   3.575
44412W        W 9672  30.240  26.262  11.663
44413W        W 9673  41.786   0.874   4.124
44414W        W 9674  11.742   7.658   2.663
44415W        W 9675  23.111  15.959  12.040
44416W        W 9676  17.177  29.115   1.650
44417W        W 9677  30.932  42.692  13.965
44418W        W 9678  33.093  43.547   1.126
44419W        W 9679  27.959  42.422  13.774
44420W        W 9680  15.184   0.444   2.279
44421W        W 9681  44.575  22.909   2.430
44422W        W 9682  10.584  11.295   2.680
44423W        W 9683  40.351  23.155  14.765
44424W        W 9684  10.879  25.603  14.839
44425W        W 9685  22.184  37.892   2.396
44426W        W 9686  14.170   4.348  12.220
44427W        W 9687  42.336  23.659  14.572
44428W        W 9688  10.553  37.036   4.594
44429W        W 9689  32.878  20.569  14.045
44430W        W 9690  37.874   1.149   2.125
44431W        W 9691  23.203  34.908   9.828
44432W        W 9692  12.300  43.276   2.766
44433W        W 9693  33.472  33.341  14.363
44434W        W 9694  35.806   9.274  14.409
44435W        W 9695  36.108  38.836   2.610
44436W        W 9696  32.535  20.552  11.602
44437W        W 9697  16.220  40.460   2.885
44438W        W 9698   1.373  37.410   2.441
44439W        W 9699  36.350  35.583  13.106
44440W        W 9700  31.661  16.480   3.222
44441W        W 9701  26.214  14.808   0.653
44442W        W 9702  28.637  15.017   1.390
44443W        W 9703  37.508  30.458   1.197
44444W        W 9704  27.881   1.979  14.762
44445W        W 9705  27.777  28.974  13.942
44446W        W 9706  36.004  11.335   0.403
44447W        W 9707  41.849  14.461  11.972
44448W        W 9708  25.929  23.593   0.866
44449W        W 9709   9.600  39.814   4.444
44450W        W 9710  24.360  35.247  12.488
44451W        W 9711  36.046   2.292   2.357
44452W        W 9712  26.644  41.703  14.932
44453W        W 9713  11.242  31.573  12.067
44454W        W 9714  17.265  32.723   0.350
44455W        W 9715  37.007  44.374   0.993
44456W        W 9716  10.652   4.151   4.199
44457W        W 9717   5.683  41.844  13.394
44458W        W 9718   1.207  40.991   3.847
44459W        W 9719  10.878  19.234   1.386
44460W        W 9720  33.459  33.585   2.616
44461W        W 9721  35.464   5.613  13.715
44462W        W 9722  37.463  26.459   1.326
44463W        W 9723  14.184  20.979   4.643
44464W        W 9724   6.953  38.019   4.116
44465W        W 9725  44.582  23.653   2.887
44466W        W 9726  40.759  25.365  11.589
44467W        W 9727  30.524  10.599  14.398
44468W        W 9728  40.879  16.037   3.663
44469W        W 9729  25.871  20.943  12.507
44470W        W 9730  25.414  36.404   1.790
44471W        W 9731   9.679  12.406   0.703
44472W        W 9732   3.378   8.503  14.814
44473W        W 9733   5.221  22.085  14.870
44474W        W 9734  16.087  16.224   2.692
44475W        W 9735   2.888  28.725   3.235
44476W        W 9736  12.569   3.899   9.728
44477W        W 9737  37.261  14.840  10.962
44478W        W 9738  41.962  34.532  14.551
44479W        W 9739   8.319  43.465   0.244
44480W        W 9740   2.913  20.752  11.145
44481W        W 9741  14.167  24.274   0.889
44482W        W 9742  13.192  16.821   1.844
44483W        W 9743   4.371   9.827  14.504
44484W        W 9744  11.331  14.188   2.335
44485W        W 9745   4.255  43.709  14.529
44486W        W 9746  42.391  28.533  11.716
44487W        W 9747  35.451   1.065  12.401
44488W        W 9748  10.790  36.435  11.416
44489W        W 9749   9.790   8.154  14.177
44490W        W 9750  28.642  42.875  13.232
44491W        W 9751   1.203  33.123   3.832
44492W        W 9752  31.558  31.999  13.051
44493W        W 9753  19.576   1.731   2.369
44494W        W 9754   7.721  11.988   0.929
44495W        W 9755  24.735  23.935   2.316
44496W        W 9756   4.901  19.494  11.194
44497W        W 9757  22.494  18.197  10.206
44498W        W 9758  34.426  42.293   1.908
44499W        W 9759  30.819  44.825  12.856
44500W        W 9760  31.852  13.059  10.832
44501W        W 9761  20.603   0.004  13.817
44502W        W 9762   8.697   5.151  12.909
44503W        W 9763  27.948  16.997  12.848
44504W        W 9764  41.906   8.254  10.771
44505W        W 9765  41.635  16.793   0.826
44506W        W 9766  39.270   3.942  13.981
44507W        W 9767  33.957   4.928  11.157
44508W        W 9768   6.246  39.482  10.733
44509W        W 9769  43.889  43.364  10.639
44510W        W 9770  43.445  27.466  11.449
44511W        W 9771  14.355  42.402  10.828
44512W        W 9772  39.045  33.907   4.321
44513W        W 9773  38.360  41.946  13.514
44514W        W 9774   1.839   1.443   1.144
44515W        W 9775  22.661  43.293  14.439
44516W        W 9776  17.875   4.899  12.659
44517W        W 9777  26.230  24.019   0.854
44518W        W 9778  25.573  43.145   2.715
44519W        W 9779  23.230  24.159   2.096
44520W        W 9780   8.824  28.152   2.780
44521W        W 9781   1.763   3.028   1.761
44522W        W 9782  27.851   9.731   4.611
44523W        W 9783   5.215  39.133   0.824
44524W        W 9784  43.395  42.476   4.117
44525W        W 9785  42.490  42.433   4.906
44526W        W 9786   8.806  33.450   2.804
44527W        W 9787  16.174   5.511   0.412
44528W        W 9788  10.258  25.430   1.864
44529W        W 9789  18.457  19.109  12.419
44530W        W 9790  10.297  12.633  12.182
44531W        W 9791  42.994  39.114   4.576
44532W        W 9792  39.572  35.439   4.620
44533W        W 9793  27.658  34.485   0.383
44534W        W 9794  30.412  36.005   2.239
44535W        W 9795   4.820   8.160  14.686
44536W        W 9796  14.181  35.043  14.915
44537W        W 9797  12.860   2.301  14.542
44538W        W 9798  18.727  12.766  12.520
44539W        W 9799   2.728   8.804  13.913
44540W        W 9800  14.256  27.202  12.959
44541W        W 9801  18.234   5.258  11.540
44542W        W 9802  34.011  12.921   3.905
44543W        W 9803  31.090   4.118  11.961
44544W        W 9804  10.424  25.475   4.541
44545W        W 9805  44.693  44.405   3.001
44546W        W 9806  16.578  19.229  11.944
44547W        W 9807  43.781  22.141  13.063
44548W        W 9808  15.259  17.472  14.824
44549W        W 9809  11.698   7.198  10.333
44550W        W 9810  40.271  28.699   3.585
44551W        W 9811  34.810  31.478  12.903
44552W        W 9812  38.548  32.125  12.444
44553W        W 9813  33.274  42.917   5.207
44554W        W 9814  30.522  21.196  10.661
44555W        W 9815  17.160  22.065   2.127
44556W        W 9816  42.006  34.920   0.864
44557W        W 9817  39.555  28.886   3.152
44558W        W 9818  28.641  18.311  13.997
44559W        W 9819  41.880  26.881  14.841
44560W        W 9820  14.833  43.985  11.395
44561W        W 9821  43.480  30.932   3.665
44562W        W 9822  10.098   1.737  12.508
44563W        W 9823  30.243  14.725  10.756
44564W        W 9824   6.919  17.597   0.363
44565W        W 9825  13.548  21.529  13.386
44566W        W 9826  11.408  27.563   4.417
44567W        W 9827   7.202  43.852   2.715
44568W        W 9828  19.139  39.959  13.007
44569W        W 9829  25.253  31.477  14.421
44570W        W 9830  26.034  16.514  11.523
44571W        W 9831  40.252   4.709   1.762
44572W        W 9832  35.633  16.388   4.134
44573W        W 9833  25.173  39.464   2.629
44574W        W 9834   9.923  38.100  13.789
44575W        W 9835   5.377  35.084   0.070
44576W        W 9836  24.765  22.342  12.511
44577W        W 9837  21.170  38.668   9.856
44578W        W 9838  24.612   2.209   2.629
44579W        W 9839  33.029  39.870   0.001
44580W        W 9840  36.368  30.098   4.583
44581W        W 9841  38.906  20.309  11.454
44582W        W 9842  26.879  43.030  14.100
44583W        W 9843  27.618   8.526  12.831
44584W        W 9844  21.123  25.248  13.452
44585W        W 9845  37.833  16.727  13.882
44586W        W 9846   1.241  31.992  11.822
44587W        W 9847  40.893  26.416   3.741
44588W        W 9848  43.197  32.579  12.947
44589W        W 9849  24.970  27.460  12.483
44590W        W 9850  42.185  16.623   2.289
44591W        W 9851  38.773  33.908   4.808
44592W        W 9852  24.388   8.226  12.032
44593W        W 9853  35.678  22.530   3.588
44594W        W 9854  41.742   6.937   2.692
44595W        W 9855  27.304   6.815  13.733
44596W        W 9856  37.368   8.355   4.943
44597W        W 9857   9.433  29.488  11.738
44598W        W 9858   9.554  32.038  11.198
44599W        W 9859  38.471  30.590  12.911
44600W        W 9860  33.465  10.847   4.189
44601W        W 9861  43.717  31.576   0.316
44602W        W 9862  24.562  30.858  12.595
44603W        W 9863  14.803   3.228  12.069
44604W        W 9864  21.779  21.222  10.778
44605W        W 9865  40.838  28.237  11.106
44606W        W 9866   9.114  27.018  12.841
44607W        W 9867  35.485  40.337  10.334
44608W        W 9868  15.426  22.869   0.688
44609W        W 9869  38.422  37.821  12.183
44610W        W 9870  35.362  40.810   2.252
44611W        W 9871  43.965  11.226   1.785
44612W        W 9872  44.842  11.805  13.857
44613W        W 9873  13.874  21.588  14.350
44614W        W 9874  32.532  23.132   1.166
44615W        W 9875  37.616   3.837  13.640
44616W        W 9876  15.203  32.575  13.031
44617W        W 9877  37.062   2.253   1.375
44618W        W 9878  20.189  42.737  13.629
44619W        W 9879  16.432   2.284  14.013
44620W        W 9880  35.554  30.912   3.283
44621W        W 9881  28.697  22.654  11.681
44622W        W 9882  34.575  14.783  12.984
44623W        W 9883  29.110   8.201  13.404
44624W        W 9884   0.086  13.435   4.587
44625W        W 9885   0.291  38.949  14.236
44626W        W 9886  28.558  25.914   3.652
44627W        W 9887  43.288  14.813  11.990
44628W        W 9888  44.720  38.255   3.660
44629W        W 9889  17.076  10.170   4.110
44630W        W 9890  23.715  39.810   4.170
44631W        W 9891  23.640   2.176   5.086
44632W        W 9892   5.935  14.202  14.977
44633W        W 9893  25.942  43.508  11.107
44634W        W 9894  37.082  34.218   3.116
44635W        W 9895  11.508  23.170   0.144
44636W        W 9896  17.553   5.258   2.356
44637W        W 9897   3.273  40.186  10.105
44638W        W 9898  11.848   7.242  11.394
44639W        W 9899  21.720  41.503  14.407
44640W        W 9900   3.172  36.394   3.678
44641W        W 9901  26.462  19.163  10.732
44642W        W 9902  17.320  26.210  12.511
44643W        W 9903  18.610  36.798  13.854
44644W        W 9904   2.349  28.690  14.453
44645W        W 9905  28.007  38.309  10.772
44646W        W 9906  12.570  26.778   4.581
44647W        W 9907  34.413   9.794   2.729
44648W        W 9908  15.795  23.907  12.524
44649W        W 9909  15.385  31.658  14.484
44650W        W 9910   8.248   5.416   1.798
44651W        W 9911   5.818   1.325   0.550
44652W        W 9912  18.955  32.299  12.010
44653W        W 9913   0.507  33.430  12.173
44654W        W 9914  29.456  20.687  12.808
44655W        W 9915   0.070  44.338   0.820
44656W        W 9916  12.724  27.001  11.544
44657W        W 9917   3.172  12.575  12.850
44658W        W 9918  20.330  18.315   2.860
44659W        W 9919  30.556  30.938   3.671
44660W        W 9920  24.479   5.997   1.377
44661W        W 9921  35.906  35.588  12.103
44662W        W 9922  36.069  28.276   2.762
44663W        W 9923  38.975  31.994   0.069
44664W        W 9924   2.990   5.134   4.476
44665W        W 9925  43.886  12.305   0.261
44666W        W 9926   6.237  35.911  14.228
44667W        W 9927  29.107  41.967   4.363
44668W        W 9928  25.937  29.978  14.524
44669W        W 9929  23.507   2.419  11.126
44670W        W 9930   7.402   8.671  11.107
44671W        W 9931  34.634   9.930  11.934
44672W        W 9932  30.237  27.085  11.431
44673W        W 9933  21.549  14.134  11.597
44674W        W 9934  18.564  11.249   4.100
44675W        W 9935  39.863  40.902  12.096
44676W        W 9936  11.799  13.763   2.750
44677W        W 9937  36.911   6.356   2.957
44678W        W 9938   9.226  44.682   1.998
44679W        W 9939   9.951  25.401  11.495
44680W        W 9940  27.842   4.867  12.108
44681W        W 9941  28.476  15.031  13.835
44682W        W 9942  37.930  29.348  12.888
44683W        W 9943  10.503  41.810  12.945
44684W        W 9944   2.579  15.203  12.326
44685W        W 9945  10.698  44.219   4.400
44686W        W 9946  39.619  18.510   4.315
44687W        W 9947   2.520  13.707   0.376
44688W        W 9948   3.530  22.337   2.248
44689W        W 9949  41.832  27.289  10.400
44690W        W 9950   5.825  24.165  13.635
44691W        W 9951   3.384  30.667   4.646
44692W        W 9952  34.603  30.226   4.221
44693W        W 9953  42.798   4.784   1.774
44694W        W 9954  27.980  28.874  14.431
44695W        W 9955  35.009  43.398  11.879
44696W        W 9956  12.228   3.543  10.656
44697W        W 9957  31.919   5.289  12.648
44698W        W 9958   1.471  25.213   2.343
44699W        W 9959  44.752  31.002   2.838
44700W        W 9960   6.703  33.652  13.765
44701W        W 9961  10.813   7.286  12.588
44702W        W 9962  12.785  11.886  12.412
44703W        W 9963   7.188  21.523  14.927
44704W        W 9964   3.455   3.898  10.946
44705W        W 9965  27.583  29.182   4.082
44706W        W 9966   8.374  18.229   2.275
44707W        W 9967  25.461  25.872   2.243
44708W        W 9968   2.797  20.667  13.390
44709W        W 9969  30.395  40.959  10.684
44710W        W 9970  33.176   5.945   4.601
44711W        W 9971  13.684  22.210  12.093
44712W        W 9972  30.637  36.395   3.469
44713W        W 9973  44.784  30.400  13.800
44714W        W 9974  31.769  26.285   0.505
44715W        W 9975   2.496  37.329   2.787
44716W        W 9976  34.501  26.360   0.383
44717W        W 9977  15.667  36.384   4.999
44718W        W 9978  26.141  11.823   4.932
44719W        W 9979  15.025  23.586   4.584
44720W        W 9980  44.831  37.794   2.821
44721W        W 9981  21.209  27.739  13.064
44722W        W 9982  19.149  10.102   3.602
44723W        W 9983  14.395   6.887   3.026
44724W        W 9984   6.274  17.175  14.341
44725W        W 9985  28.910  43.340  12.102
44726W        W 9986  26.838  15.856  13.504
44727W        W 9987  44.724  15.132  13.817
44728W        W 9988  23.975   6.217  13.260
44729W        W 9989   7.139   7.028  11.386
44730W        W 9990  30.589   4.719   3.115
44731W        W 9991  35.875  10.900  12.433
44732W        W 9992  14.094  25.213   0.760
44733W        W 9993  11.522  34.101  10.497
44734W        W 9994  37.337   5.772   0.029
44735W        W 9995  18.728  42.032   3.275
44736W        W 9996  27.826   9.179   0.263
44737W        W 9997  13.038  25.915   3.252
44738W        W 9998  26.911  26.680   1.326
44739W        W 9999  44.347  42.399   4.307
44740W        W10000  34.952  43.910  14.024
44741W        W10001  38.975   4.644   3.349
44742W        W10002   8.974  39.885  12.588
44743W        W10003  24.137  42.447   4.719
44744W        W10004  36.060   9.298  12.911
44745W        W10005  29.164  23.225   4.082
44746W        W10006  16.568  22.460  12.933
44747W        W10007  25.660  16.832   3.309
44748W        W10008  23.171  32.809  13.151
44749W        W10009  40.028  26.879   3.893
44750W        W10010  42.604  44.118  11.643
44751W        W10011  15.269  17.240   0.433
44752W        W10012  31.456  12.550   1.803
44753W        W10013   2.731   7.347   1.026
44754W        W10014  28.067   1.441  14.382
44755W        W10015  29.213   8.233  12.466
44756W        W10016   2.833  11.713   0.867
44757W        W10017  30.742  16.513  14.464
44758W        W10018   0.020  20.503  13.915
44759W        W10019  13.259  35.824  11.589
44760W        W10020  39.245  37.452   2.730
44761W        W10021  36.869  24.197  10.722
44762W        W10022  36.203  12.788  10.532
44763W        W10023  21.221  41.824   2.303
44764W        W10024  18.503  29.945   4.525
44765W        W10025   1.643  34.955   0.865
44766W        W10026  11.912  34.839  11.540
44767W        W10027  43.430   7.788   0.241
44768W        W10028  40.289  30.667  14.307
44769W        W10029  24.485   5.677   1.794
44770W        W10030  17.074   6.952   3.315
44771W        W10031   4.217  37.991   1.938
44772W        W10032  31.517  33.872   1.880
44773W        W10033  21.750  27.976   4.524
44774W        W10034   2.731  22.538   4.662
44775W        W10035   3.285  36.101  11.214
44776W        W10036   7.880  39.369  14.110
44777W        W10037  43.114  14.346  12.905
44778W        W10038   2.955  21.777  11.137
44779W        W10039  14.664  18.727  12.907
44780W        W10040  26.086   6.591  14.366
44781W        W10041   8.224  43.736  12.523
44782W        W10042  10.954  36.438   1.550
44783W        W10043  14.695  24.736  11.076
44784W        W10044  14.294  19.291  11.008
44785W        W10045  21.232  28.411  14.511
44786W        W10046   7.229  13.670   1.931
44787W        W10047  36.635  21.366   1.866
44788W        W10048  37.897  19.335  12.434
44789W        W10049  30.155  38.694  13.917
44790W        W10050   0.329  12.881   1.727
44791W        W10051   0.260  12.182  13.986
44792W        W10052  31.652  26.621  12.877
44793W        W10053  32.947   1.049   4.050
44794W        W10054  37.500  41.047  11.715
44795W        W10055  44.467  11.804  11.292
44796W        W10056   9.985  24.134  12.036
44797W        W10057  39.912  24.124   3.870
44798W        W10058  30.777  44.287  12.825
44799W        W10059  21.966  22.077  12.976
44800W        W10060   5.745   0.915  12.104
44801W        W10061  30.909  19.214   4.573
44802W        W10062   6.605  43.614   1.899
44803W        W10063   2.806  39.822   2.377
44804W        W10064   7.469  35.229   0.723
44805W        W10065  38.325  18.218  13.896
44806W        W10066  32.540  19.334  10.346
44807W        W10067   6.316  32.950  14.007
44808W        W10068  25.565  11.216  13.076
44809W        W10069  40.493  35.796  11.989
44810W        W10070  21.435   4.294  13.096
44811W        W10071  17.781   4.078  13.577
44812W        W10072  37.766  31.635  14.539
44813W        W10073  29.036  10.629   3.313
44814W        W10074  28.622  18.197   0.771
44815W        W10075  33.865  14.304   4.954
44816W        W10076  13.637   6.777  13.017
44817W        W10077   2.448  43.841  14.402
44818W        W10078  12.120   3.262  11.592
44819W        W10079   7.699  10.584  14.307
44820W        W10080  21.265  10.013   0.922
44821W        W10081  12.872  19.197  11.443
44822W        W10082  44.840  34.986   3.489
44823W        W10083  38.426   1.673   1.138
44824W        W10084  40.010   9.308  11.460
44825W        W10085  22.169   8.375   2.674
44826W        W10086  17.819  11.386   1.744
44827W        W10087   3.400   3.631   0.987
44828W        W10088   1.213  29.215   2.635
44829W        W10089  29.212  27.097  12.957
44830W        W10090   5.731  30.651  13.056
44831W        W10091  14.588   1.683  12.495
44832W        W10092   1.715   1.228  10.989
44833W        W10093  35.416   7.619  11.502
44834W        W10094  26.501  41.958   3.228
44835W        W10095  24.760  39.772   4.144
44836W        W10096  29.280  14.311   4.934
44837W        W10097  27.692  18.568   2.330
44838W        W10098  10.689   3.884  10.943
44839W        W10099   0.930  30.236   0.958
44840W        W10100  17.291  29.619  11.069
44841W        W10101  15.162  18.159  13.100
44842W        W10102  29.393  16.517   3.377
44843W        W10103  15.325  39.997  14.040
44844W        W10104  43.815   2.954   2.430
44845W        W10105  23.627  11.867   4.544
44846W        W10106  39.282  11.764   1.808
44847W        W10107   0.436  12.810   1.230
44848W        W10108  19.993  16.335   1.480
44849W        W10109   1.199  44.348   0.415
44850W        W10110   4.651   2.323   3.577
44851W        W10111  33.595  23.728   4.058
44852W        W10112  24.277  16.327   4.066
44853W        W10113  11.645   9.834  10.742
44854W        W10114  26.614  41.163  11.077
44855W        W10115  38.297   5.164   0.278
44856W        W10116   0.667   1.913  13.953
44857W        W10117  19.681  23.526   1.656
44858W        W10118   7.146  22.793   2.588
44859W        W10119  42.629   3.976   2.143
44860W        W10120  13.421   7.815   3.270
44861W        W10121   0.814  44.836   2.402
44862W        W10122  42.695  30.477  11.559
44863W        W10123   5.967  16.671  14.994
44864W        W10124  18.874  12.111  14.916
44865W        W10125  19.080  12.021  11.540
44866W        W10126  38.509  26.091   3.619
44867W        W10127  39.867   7.789  12.558
44868W        W10128   9.799  23.024   3.679
44869W        W10129  32.943  39.086   2.392
44870W        W10130  10.130  19.715  12.983
44871W        W10131  14.017   1.363   4.848
44872W        W10132   3.302  18.326  10.745
44873W        W10133  20.950  32.171   1.878
44874W        W10134  19.110   4.751   3.350
44875W        W10135   3.841   4.324   0.686
44876W        W10136  21.015  33.588   2.797
44877W        W10137  29.098   0.688  13.095
44878W        W10138  25.920  15.178  14.818
44879W        W10139  39.770  37.605   2.941
44880W        W10140  22.960  30.260   4.606
44881W        W10141  24.619  22.321   9.815
44882W        W10142  23.799  34.991   4.039
44883W        W10143  36.432  25.413   3.787
44884W        W10144  26.707  11.282  12.488
44885W        W10145  29.328  41.941   0.073
44886W        W10146  34.505  10.162   4.579
44887W        W10147  12.338   3.414   3.184
44888W        W10148   6.767   1.106   0.080
44889W        W10149  39.905   1.296  10.709
44890W        W10150  36.441  11.197   1.293
44891W        W10151  12.052  38.384  14.616
44892W        W10152  19.827  10.291  13.067
44893W        W10153  41.768  43.860   0.987
44894W        W10154  31.417   6.668  11.621
44895W        W10155  35.522  26.660  10.578
44896W        W10156  42.530   6.818  11.638
44897W        W10157   4.871  44.487  14.670
44898W        W10158  36.547  42.910  13.039
44899W        W10159  32.083  44.743  14.409
44900W        W10160   8.922  35.472   3.199
44901W        W10161  43.031  14.690  12.431
44902W        W10162   7.846   0.291   2.218
44903W        W10163  18.604   6.226  11.900
44904W        W10164  28.449  29.518  11.682
44905W        W10165  31.347  36.491  11.251
44906W        W10166  10.365   2.039  12.093
44907W        W10167  36.517  44.495   4.512
44908W        W10168  17.711  18.218   4.944
44909W        W10169  18.104  21.709   3.723
44910W        W10170  39.918  34.690   4.088
44911W        W10171  28.618   9.138  10.809
44912W        W10172  30.376  35.145  13.071
44913W        W10173  40.577   1.748   2.841
44914W        W10174  17.711  28.781  10.950
44915W        W10175  17.478  44.904   2.309
44916W        W10176  27.954  32.131  13.977
44917W        W10177  24.320   6.221   3.646
44918W        W10178   2.715  31.116   0.875
44919W        W10179  44.041  14.559  11.792
44920W        W10180  20.313   0.850  14.697
44921W        W10181   7.499   4.814   0.189
44922W        W10182  28.994  38.570   2.830
44923W        W10183  28.530  38.448   1.006
44924W        W10184  37.808  12.206  12.624
44925W        W10185  26.966  23.032  11.879
44926W        W10186  44.986  22.274   1.335
44927W        W10187  33.864  40.786  13.611
44928W        W10188  41.441  43.210   0.289
44929W        W10189  43.511   4.376  10.744
44930W        W10190   7.661   9.720   4.994
44931W        W10191  41.307  23.159   1.323
44932W        W10192  44.944  24.295   0.959
44933W        W10193  35.123  25.652  12.916
44934W        W10194  12.648  12.319  13.857
44935W        W10195  30.057  40.566   0.459
44936W        W10196  33.191   5.174   1.378
44937W        W10197  44.251  35.324  14.416
44938W        W10198  19.911  19.484  13.302
44939W        W10199  31.381  19.475   3.697
44940W        W10200  16.481  17.628   9.646
44941W        W10201   2.459  18.651   1.465
44942W        W10202  12.171   5.249  12.758
44943W        W10203   6.836   3.851   2.366
44944W        W10204  26.490  37.477   1.314
44945W        W10205  12.177  35.429   2.590
44946W        W10206  21.041  34.003   1.207
44947W        W10207  14.372  31.173  10.747
44948W        W10208  37.791   3.320   0.353
44949W        W10209  18.015  26.076   2.416
44950W        W10210  11.390  25.178   2.459
44951W        W10211  35.962  33.418  11.677
44952W        W10212  27.063  15.981   2.883
44953W        W10213  10.943  30.349  11.322
44954W        W10214  27.628   4.599   3.605
44955W        W10215   0.256  23.933   1.840
44956W        W10216  24.567  43.860  10.213
44957W        W10217  39.846  27.099  13.340
44958W        W10218  29.173  36.227   2.736
44959W        W10219  26.452  32.272  13.207
44960W        W10220  14.819  41.717   2.113
44961W        W10221  25.455  26.014   0.490
44962W        W10222  23.964  10.320   0.080
44963W        W10223   7.357  39.569   4.199
44964W        W10224   8.232   5.456  12.039
44965W        W10225  25.936   0.463  11.491
44966W        W10226  12.054   0.182  13.139
44967W        W10227  27.394  44.804   0.748
44968W        W10228   3.273   4.800  10.454
44969W        W10229  18.478  22.013   1.821
44970W        W10230  19.792  39.617  13.962
44971W        W10231  27.146  39.369  14.832
44972W        W10232  15.028  41.391  11.518
44973W        W10233  20.991  34.064  13.566
44974W        W10234  43.257  13.776   4.245
44975W        W10235  15.336  24.084  12.418
44976W        W10236  37.361  22.262  14.848
44977W        W10237  30.597  27.977   2.736
44978W        W10238  34.443  21.968   3.735
44979W        W10239  37.918  37.487   4.626
44980W        W10240  29.636  43.861   3.097
44981W        W10241  13.536   1.708   1.961
44982W        W10242   2.078  15.469  11.167
44983W        W10243  26.259  10.727  11.267
44984W        W10244  29.063  12.599  13.736
44985W        W10245  39.948   3.484   4.159
44986W        W10246  31.042  19.786  12.438
44987W        W10247  27.345  22.146   1.075
44988W        W10248  43.144  17.637  14.503
44989W        W10249  16.072  19.664   3.653
44990W        W10250  13.747  24.709   4.626
44991W        W10251  34.608  29.159   4.233
44992W        W10252  36.665  36.390  14.128
44993W        W10253  30.922  31.357  13.309
44994W        W10254   5.673  26.621   3.170
44995W        W10255  12.194  38.370  14.133
44996W        W10256   0.032  24.514  13.518
44997W        W10257  21.483  26.893   1.325
44998W        W10258  17.250   0.285  10.740
44999W        W10259  22.810  12.755   4.084
45000W        W10260  11.731  41.502  10.120
45001W        W10261   4.924  44.980   4.156
45002W        W10262   9.410  16.101  13.333
45003W        W10263  18.165  14.167  13.868
45004W        W10264   7.210  13.062  13.941
45005W        W10265   3.670   4.263  12.812
45006W        W10266   7.558  42.239  12.371
45007W        W10267   0.538  22.049   3.325
45008W        W10268  39.513  10.434   2.030
45009W        W10269  31.378  20.869  14.005
45010W        W10270  13.607  34.922   4.666
45011W        W10271  34.053  36.912  14.904
45012W        W10272  43.870  18.965  13.763
45013W        W10273  38.875  16.794   2.653
45014W        W10274  43.010  14.019  14.919
45015W        W10275   9.520  28.865  12.927
45016W        W10276  14.681   0.660  13.226
45017W        W10277  39.910  39.384   0.278
45018W        W10278  18.285  24.624  10.547
45019W        W10279  28.339  27.446   3.580
45020W        W10280   8.262  44.748   3.786
45021W        W10281   7.240  41.954  13.305
45022W        W10282   9.409  39.322   2.736
45023W        W10283  16.026  27.571   1.327
45024W        W10284  19.103  24.971   3.227
45025W        W10285  27.678  34.591  12.988
45026W        W10286  42.387   5.148  11.959
45027W        W10287  35.473  17.256  12.086
45028W        W10288  36.163   0.444   2.232
45029W        W10289   6.689  21.124   2.537
45030W        W10290  40.793   5.982  13.973
45031W        W10291  34.702  38.123   1.000
45032W        W10292  29.551  44.399   1.117
45033W        W10293  40.315  24.052  12.520
45034W        W10294  22.504   7.304   2.217
45035W        W10295   6.959  34.731  12.374
45036W        W10296  20.045  40.416  13.479
45037W        W10297   8.071  25.502   2.273
45038W        W10298   0.604  35.962   4.607
45039W        W10299  30.538  30.147   2.508
45040W        W10300  35.212   2.730   1.326
45041W        W10301  31.227   9.622   0.887
45042W        W10302  24.706  21.282   0.807
45043W        W10303  30.484  35.817   0.724
45044W        W10304  34.668  33.383   1.184
45045W        W10305   8.931  33.946   2.741
45046W        W10306  30.502   5.748  11.850
45047W        W10307  27.703  28.597  12.632
45048W        W10308  17.481   9.861  11.474
45049W        W10309  43.475  19.265  13.951
45050W        W10310   0.773  28.905  13.628
45051W        W10311  29.290   5.220   2.893
45052W        W10312  32.905  41.782   1.252
45053W        W10313  35.213  34.583  11.160
45054W        W10314  40.024   5.368  12.435
45055W        W10315  24.118  21.538  13.407
45056W        W10316   8.196  16.144   1.213
45057W        W10317  13.761   5.890   4.461
45058W        W10318  16.989   5.788   2.851
45059W        W10319   6.374  34.377   3.767
45060W        W10320  40.553  13.665   4.598
45061W        W10321  13.754   2.712   3.166
45062W        W10322   0.921   2.742  12.027
45063W        W10323  17.177  37.000   0.246
45064W        W10324  22.029  13.794  14.488
45065W        W10325  37.817  27.016   4.032
45066W        W10326  15.206  35.436   4.714
45067W        W10327  22.899   6.161  12.927
45068W        W10328   7.725  24.480  11.213
45069W        W10329  31.194  23.335  10.757
45070W        W10330  37.111   3.317  13.778
45071W        W10331  13.414  33.389   2.154
45072W        W10332  11.478  17.703  13.160
45073W        W10333  43.066  19.666  12.625
45074W        W10334   8.243  42.173  11.554
45075W        W10335  28.123  42.805  10.664
45076W        W10336  19.017  32.846  13.919
45077W        W10337  19.179  15.348  14.551
45078W        W10338  38.105  19.249  11.547
45079W        W10339  20.353  29.243   2.274
45080W        W10340  11.383  10.458   0.379
45081W        W10341  18.161   0.106   3.629
45082W        W10342   0.200  23.097  13.371
45083W        W10343   6.607  35.573  10.961
45084W        W10344  25.179  16.676  12.607
45085W        W10345  15.828  34.853   2.264
45086W        W10346  18.319   2.000  12.355
45087W        W10347   5.585  12.720   4.636
45088W        W10348  34.996  13.605  11.496
45089W        W10349  15.271  19.733   5.195
45090W        W10350  23.621  43.375   4.411
45091W        W10351  41.757  33.166   1.254
45092W        W10352  28.132  33.103  10.580
45093W        W10353  43.353  19.726   1.011
45094W        W10354  16.089  17.031  14.261
45095W        W10355  30.527  27.779   1.826
45096W        W10356  31.069  16.066   4.564
45097W        W10357  22.429  26.011   0.236
45098W        W10358  13.894  29.464  11.574
45099W        W10359  13.297  38.531   3.286
45100W        W10360   8.417  28.463  14.921
45101W        W10361  43.354  34.211   4.624
45102W        W10362  18.214   2.503   2.778
45103W        W10363  31.907  37.982   0.428
45104W        W10364   6.783  23.094   4.038
45105W        W10365   9.226  37.740   1.812
45106W        W10366  41.825   0.836  14.588
45107W        W10367  11.631  30.336   1.806
45108W        W10368  19.953  24.083  10.363
45109W        W10369  28.703   9.855  13.738
45110W        W10370  43.511  41.476  11.167
45111W        W10371  12.409  19.771   1.385
45112W        W10372  16.296  16.860   0.591
45113W        W10373  15.627  21.013  13.232
45114W        W10374  14.106  24.733  13.769
45115W        W10375  13.509  18.194   2.272
45116W        W10376   8.892  36.111  13.519
45117W        W10377  36.644  34.224   1.021
45118W        W10378  31.972  12.172   2.157
45119W        W10379  13.730   8.265   4.538
45120W        W10380  29.346  12.615   0.901
45121W        W10381   7.273  18.128  14.562
45122W        W10382  29.671  33.956   3.249
45123W        W10383   9.380  11.394  13.811
45124W        W10384  21.018  35.829   1.361
45125W        W10385   6.148  31.439   1.773
45126W        W10386  20.621  28.894  12.908
45127W        W10387  20.958   8.838  14.453
45128W        W10388  25.410  35.382  11.069
45129W        W10389   0.713  20.778   3.539
45130W        W10390  11.303  23.996   1.245
45131W        W10391  40.369   2.275   1.823
45132W        W10392   8.326  31.370   4.016
45133W        W10393   0.833   3.268  11.254
45134W        W10394  19.777  30.589  10.190
45135W        W10395  37.815  25.222  12.101
45136W        W10396   9.618   9.289  10.708
45137W        W10397   8.961  21.644   2.821
45138W        W10398   5.404   4.011   1.759
45139W        W10399  38.853  27.645   1.670
45140W        W10400   2.114  29.749   4.167
45141W        W10401   4.676  39.026  13.843
45142W        W10402  19.233   6.324   1.689
45143W        W10403  17.823  18.011   2.913
45144W        W10404  35.311  29.663  12.898
45145W        W10405  12.143   4.963   3.118
45146W        W10406  12.642  24.766  13.920
45147W        W10407  39.714  25.449  12.867
45148W        W10408   1.430  37.482   1.466
45149W        W10409   3.676  11.418   2.421
45150W        W10410  13.288  33.531  14.489
45151W        W10411  44.343  33.118   1.247
45152W        W10412   5.704  10.272  12.444
45153W        W10413  44.740  28.474  12.941
45154W        W10414  10.252  24.455   3.654
45155W        W10415   1.020   3.246   1.051
45156W        W10416  19.659  32.440   4.449
45157W        W10417  10.492   8.750  12.317
45158W        W10418  16.246   3.885  13.421
45159W        W10419  42.451  22.501   0.241
45160W        W10420  42.560  14.325   1.254
45161W        W10421   6.239  19.514   1.247
45162W        W10422  17.541  44.029  13.048
45163W        W10423  36.481  16.526  10.565
45164W        W10424  38.838  15.811   1.417
45165W        W10425  33.807  35.575  14.292
45166W        W10426   9.675  30.676   1.271
45167W        W10427  35.290  12.234  12.408
45168W        W10428  19.231  22.368   1.318
45169W        W10429  20.098  29.439   3.629
45170W        W10430  38.892  43.240   4.528
45171W        W10431  18.217  14.694   4.262
45172W        W10432  39.911   2.277   3.091
45173W        W10433  23.502  10.116   4.120
45174W        W10434   4.856  27.021   2.333
45175W        W10435  19.015  15.666   1.790
45176W        W10436  22.516   2.018   2.825
45177W        W10437  14.791  18.242   4.797
45178W        W10438   5.037   5.427  11.874
45179W        W10439  32.742   6.860  11.323
45180W        W10440   6.469   1.893   0.897
45181W        W10441   4.868  19.300  11.703
45182W        W10442   7.762  36.000   3.550
45183W        W10443   0.865  29.678  12.496
45184W        W10444  18.540  27.997  14.462
45185W        W10445   2.479  37.443  10.555
45186W        W10446  37.043  16.695  10.520
45187W        W10447  22.433  42.899  13.789
45188W        W10448  29.508  17.431   3.680
45189W        W10449  27.488  30.401  13.830
45190W        W10450  34.422  15.352  10.668
45191W        W10451  23.757  28.875   2.731
45192W        W10452  10.126  34.345  10.777
45193W        W10453  27.888  44.466  11.152
45194W        W10454  44.275  10.303   4.649
45195W        W10455  19.993   6.437  12.575
45196W        W10456   3.283  24.648   3.215
45197W        W10457  21.745  33.863   0.734
45198W        W10458  27.096   5.004   2.358
45199W        W10459  28.105  38.108  11.220
45200W        W10460  44.436   2.382  12.551
45201W        W10461   4.398  39.798   3.781
45202W        W10462  14.101   2.468  13.823
45203W        W10463   6.481  42.387   0.276
45204W        W10464  37.544  11.264  14.585
45205W        W10465  30.951  43.340  12.430
45206W        W10466   6.667   2.566  13.471
45207W        W10467   2.185  19.234   4.385
45208W        W10468  31.598  38.846   4.871
45209W        W10469  27.149  25.126  12.655
45210W        W10470  29.230  18.487   3.127
45211W        W10471   7.707  10.614   0.255
45212W        W10472  20.122  24.544  10.644
45213W        W10473  44.976  27.359   1.230
45214W        W10474  19.489  41.428  13.832
45215W        W10475  37.440  40.832  13.439
45216W        W10476  23.541  30.943   1.507
45217W        W10477   1.782  18.027   0.805
45218W        W10478  28.069  21.177   3.275
45219W        W10479  25.547   2.425   3.224
45220W        W10480   6.782  24.181  13.958
45221W        W10481  38.082  11.350  13.115
45222W        W10482   5.441  22.686   4.280
45223W        W10483   4.436  42.000  13.943
45224W        W10484  18.539   0.935   0.719
45225W        W10485  23.977   0.379   0.772
45226W        W10486  16.723  17.178   9.725
45227W        W10487  10.471  25.443  11.358
45228W        W10488  41.436  43.489  14.827
45229W        W10489  27.142  40.888   0.861
45230W        W10490  43.805  22.918  11.274
45231W        W10491  40.806  41.753   3.205
45232W        W10492  33.446   8.422  14.731
45233W        W10493  37.839  34.491  10.999
45234W        W10494   9.272  41.819   2.156
45235W        W10495  25.253  21.862  13.571
45236W        W10496  17.133  19.092   0.332
45237W        W10497  30.042   4.711  14.405
45238W        W10498  39.014  22.571   2.103
45239W        W10499  10.319   8.139  13.069
45240W        W10500   7.918  33.018   2.811
45241W        W10501  31.623   0.871   1.648
45242W        W10502   5.216  44.308  10.686
45243W        W10503  24.460   0.788  12.628
45244W        W10504  27.394   0.826   1.029
45245W        W10505  30.508   0.653   4.327
45246W        W10506   2.797  43.445   0.579
45247W        W10507   8.659  12.674  12.995
45248W        W10508  40.994  43.955   4.630
45249W        W10509  17.749   7.429  14.110
45250W        W10510  34.731  38.238  12.052
45251W        W10511   1.472  34.312  11.578
45252W        W10512  33.492  43.210   1.222
45253W        W10513  16.573  38.244  12.136
45254W        W10514  10.788  12.597   0.310
45255W        W10515  28.580  14.825   0.244
45256W        W10516   6.365  29.601  14.848
45257W        W10517   9.699   4.997   3.193
45258W        W10518  27.479  39.790  13.436
45259W        W10519  40.457  18.056   1.924
45260W        W10520  13.206  24.115   2.929
45261W        W10521  38.043   4.512   4.587
45262W        W10522   5.171  43.544   0.232
45263W        W10523  12.439  42.438   0.981
45264W        W10524   2.325  31.853   1.880
45265W        W10525  15.603  42.432  14.502
45266W        W10526   7.412   5.348  14.087
45267W        W10527  17.626  22.193  11.587
45268W        W10528  29.499  24.131   2.683
45269W        W10529  24.163   1.846  11.337
45270W        W10530  42.766   8.412  12.932
45271W        W10531  20.742  37.583   2.621
45272W        W10532  12.382  36.933  13.822
45273W        W10533  40.400  10.180  14.130
45274W        W10534   2.381  25.674  11.664
45275W        W10535   9.041  42.856   4.163
45276W        W10536  40.525  21.668  11.616
45277W        W10537   5.517   8.653  10.822
45278W        W10538  31.974  21.347  10.710
45279W        W10539   1.732  42.067   3.358
45280W        W10540   0.159  44.509  10.692
45281W        W10541  13.329  31.177   2.695
45282W        W10542  27.215  36.791  11.989
45283W        W10543  35.333  41.935   3.880
45284W        W10544  26.435   3.400  11.565
45285W        W10545  17.641   0.833   1.498
45286W        W10546  13.362  38.919  13.885
45287W        W10547  15.361  23.708  13.840
45288W        W10548  28.103   5.196  13.778
45289W        W10549  35.315  24.450   0.387
45290W        W10550   9.175  16.827   0.934
45291W        W10551  31.403  31.290  13.538
45292W        W10552   0.271  12.608  10.842
45293W        W10553  15.212  18.527   0.884
45294W        W10554  35.417   2.424  13.657
45295W        W10555   0.787  42.198   3.187
45296W        W10556  26.198  33.431  13.327
45297W        W10557   3.535  13.756  14.365
45298W        W10558  10.403   0.774  13.294
45299W        W10559  12.856   0.246  14.832
45300W        W10560  19.781  17.229  11.668
45301W        W10561  27.299  27.088  11.162
45302W        W10562  17.624  29.166  14.123
45303W        W10563   3.839  28.202  13.272
45304W        W10564   3.832  15.233   2.825
45305W        W10565   2.695  32.106  13.318
45306W        W10566  43.515  14.933  10.172
45307W        W10567  26.479  21.974   3.356
45308W        W10568  38.536  17.303   2.887
45309W        W10569  26.576  37.047  10.684
45310W        W10570  23.560  22.268   4.275
45311W        W10571  26.578  11.521   2.631
45312W        W10572   5.768  41.538  14.813
45313W        W10573   8.767  29.586   0.528
45314W        W10574  20.773  31.124  14.027
45315W        W10575   7.170  32.000  12.455
45316W        W10576  15.059  15.908  13.515
45317W        W10577  35.708   7.328  14.876
45318W        W10578  25.252   5.939  11.129
45319W        W10579  41.014  23.600   4.568
45320W        W10580  42.004  29.045   4.182
45321W        W10581  19.232  43.453  11.555
45322W        W10582   3.950  16.535   3.608
45323W        W10583  23.167   0.007  10.685
45324W        W10584  33.025  24.957  13.473
45325W        W10585   2.770  28.384   2.892
45326W        W10586  43.919  41.743   0.234
45327W        W10587  22.140  11.067  12.903
45328W        W10588  10.583  33.072   0.543
45329W        W10589  33.517  34.155   4.660
45330W        W10590  19.693  18.840  12.382
45331W        W10591  26.115  27.351  10.655
45332W        W10592   9.392  25.740   3.246
45333W        W10593  34.946  43.480   5.044
45334W        W10594  25.159   5.462  12.180
45335W        W10595  27.264  38.467  12.968
45336W        W10596   6.415  19.553   0.287
45337W        W10597   3.131  16.508   4.020
45338W        W10598   3.854  39.639  12.053
45339W        W10599  20.848  20.626   3.322
45340W        W10600  10.151  43.747  13.918
45341W        W10601  20.801   7.672   9.942
45342W        W10602  13.016  36.508  10.699
45343W        W10603  27.569  33.069  14.709
45344W        W10604  40.342  16.890  12.423
45345W        W10605   0.804   1.916  12.610
45346W        W10606  28.950   2.697   1.870
45347W        W10607  36.459  32.433  14.851
45348W        W10608  39.091   9.829   1.573
45349W        W10609  24.193  38.588   4.484
45350W        W10610   6.021  17.655  12.058
45351W        W10611  23.425  41.495  11.443
45352W        W10612  10.643  27.716   5.625
45353W        W10613  26.949  33.253   5.227
45354W        W10614  16.251  28.504   4.094
45355W        W10615  26.286  12.294  11.506
45356W        W10616  40.842  14.056   3.020
45357W        W10617  25.902  34.548   0.814
45358W        W10618  29.571  38.843  10.505
45359W        W10619   4.624  17.604  10.404
45360W        W10620  19.227  18.881   1.318
45361W        W10621  17.219  21.679  13.763
45362W        W10622  30.602  44.300   4.462
45363W        W10623  43.957   7.346   0.695
45364W        W10624  36.049  22.028  12.949
45365W        W10625   8.425  12.123  10.565
45366W        W10626  18.235  27.444   0.242
45367W        W10627   6.474   3.593  13.033
45368W        W10628   4.868   4.275  14.961
45369W        W10629  14.101  31.325   3.294
45370W        W10630  18.958   5.765   0.845
45371W        W10631  34.940  41.108  14.011
45372W        W10632  21.490  15.096   2.595
45373W        W10633  23.544  37.945  12.602
45374W        W10634  35.261   4.317  11.162
45375W        W10635  27.874  20.645   3.258
45376W        W10636  16.722  28.965  11.985
45377W        W10637  14.736  25.121  12.627
45378W        W10638   9.607  26.944  14.859
45379W        W10639  29.798  17.312   2.908
45380W        W10640  41.130   1.935   3.095
45381W        W10641   6.127   4.172   0.454
45382W        W10642   5.635  22.107  11.095
45383W        W10643  18.462   6.206  10.538
45384W        W10644   3.200  37.995   2.177
45385W        W10645  39.362  28.173  12.671
45386W        W10646  43.784   3.057  13.978
45387W        W10647  20.136  43.720   1.647
45388W        W10648  41.853  26.433   1.626
45389W        W10649   6.707  16.298   0.762
45390W        W10650  12.474  43.933  13.636
45391W        W10651  26.594  36.798   4.328
45392W        W10652  15.816  11.115   4.866
45393W        W10653  28.821  12.299  14.190
45394W        W10654  20.635  35.703  10.200
45395W        W10655   9.685  25.374  14.029
45396W        W10656  40.578  44.310  13.901
45397W        W10657   0.258  42.081  13.438
45398W        W10658   6.886  13.331   1.123
45399W        W10659  27.444  35.556  13.281
45400W        W10660  39.531   2.326   0.831
45401W        W10661  41.089   9.693   1.956
45402W        W10662   9.103  27.268  13.806
45403W        W10663  11.043  26.503  13.400
45404W        W10664  28.874  41.768   0.265
45405W        W10665  44.786  16.918   0.523
45406W        W10666  22.360  13.703  12.388
45407W        W10667  27.477  37.237  12.084
45408W        W10668  36.948  26.047   3.818
45409W        W10669  18.751  23.601  12.531
45410W        W10670  20.709  41.122   4.383
45411W        W10671   5.170  24.423   3.626
45412W        W10672  31.102  31.663  12.372
45413W        W10673  21.332  17.132   0.530
45414W        W10674  44.236  22.830   0.356
45415W        W10675   9.767  41.822  13.618
45416W        W10676   1.925  13.296   2.322
45417W        W10677  10.324  13.432  13.414
45418W        W10678  34.502  41.798  14.717
45419W        W10679  43.281  10.615  12.039
45420W        W10680   8.993  44.056  14.191
45421W        W10681  29.448  18.068  10.775
45422W        W10682  25.517  23.688  11.441
45423W        W10683  26.629  16.736   2.861
45424W        W10684  14.791  24.062   4.628
45425W        W10685  44.557  14.338   1.549
45426W        W10686  44.896   8.694   1.562
45427W        W10687   8.379  36.111  10.823
45428W        W10688  12.443  10.115  12.606
45429W        W10689  41.376  39.534  13.155
45430W        W10690  36.490   9.569   0.472
45431W        W10691  21.660   0.373   0.903
45432W        W10692  28.499  14.518  11.377
45433W        W10693  27.475  32.533  14.785
45434W        W10694   5.354  21.087  15.000
45435W        W10695  13.377  44.348   4.777
45436W        W10696   4.887   1.065  12.652
45437W        W10697  18.492  40.943   4.783
45438W        W10698  39.853  20.196   2.559
45439W        W10699  31.544  17.271   4.578
45440W        W10700   1.221  19.652   4.032
45441W        W10701  18.708   0.505   5.082
45442W        W10702  34.677  16.750   4.848
45443W        W10703   0.752  25.095   2.664
45444W        W10704   5.733  11.633  11.960
45445W        W10705  44.648  17.107   5.368
45446W        W10706  30.180  39.754   3.722
45447W        W10707  26.989  43.404   2.781
45448W        W10708   1.241  33.912  14.456
45449W        W10709  36.748  24.972   9.993
45450W        W10710  17.203  40.244   1.993
45451W        W10711  26.158   5.575  12.208
45452W        W10712  13.897  36.362  11.063
45453W        W10713  11.411  31.251  14.652
45454W        W10714  33.370  42.320  11.617
45455W        W10715  30.450  11.817   0.328
45456W        W10716  14.941   9.615   3.743
45457W        W10717  34.753  25.904   5.413
45458W        W10718  35.076  32.304  14.188
45459W        W10719  39.407  22.369  12.334
45460W        W10720  35.842  36.863  13.894
45461W        W10721  11.747   0.462  14.010
45462W        W10722  18.868  23.452   9.695
45463W        W10723  10.484  24.148  11.948
45464W        W10724  40.449  35.131  12.543
45465W        W10725  23.740  40.326   3.547
45466W        W10726   5.611  33.217   0.478
45467W        W10727   4.215  26.107  10.673
45468W        W10728  32.335  20.362  14.791
45469W        W10729  18.049  41.239  14.006
45470W        W10730  35.549  19.247  13.012
45471W        W10731  13.133   5.184  14.357
45472W        W10732  37.611  37.018   4.805
45473W        W10733  35.068  44.724   2.714
45474W        W10734  34.865   9.293  14.816
45475W        W10735   9.440  15.513  13.414
45476W        W10736  29.000  24.313   4.665
45477W        W10737  31.260  39.583   0.271
45478W        W10738  20.364  33.329  13.147
45479W        W10739   5.835  22.285  10.638
45480W        W10740  16.796  42.934  10.713
45481W        W10741  14.570   6.576   0.419
45482W        W10742   6.476  10.684   2.076
45483W        W10743  34.845   8.239   3.159
45484W        W10744  10.235   9.308  13.511
45485W        W10745  25.948  34.324  10.585
45486W        W10746  20.955  34.930  13.396
45487W        W10747  36.541   2.984   3.273
45488W        W10748  12.290  10.498   4.375
45489W        W10749  19.615  21.261   5.068
45490W        W10750  15.769  33.105  10.328
45491W        W10751  17.880  30.129   2.843
45492W        W10752  14.581  32.850   2.935
45493W        W10753  36.389  26.204  14.917
45494W        W10754   0.975   5.745   4.590
45495W        W10755  32.340  21.988   3.674
45496W        W10756  40.807   0.258  13.402
45497W        W10757  22.844  38.926  14.788
45498W        W10758  37.945  43.448  12.461
45499W        W10759  20.072  42.498   1.701
45500W        W10760  16.984  10.630  12.059
45501W        W10761  41.475  34.512  12.983
45502W        W10762   2.972  36.560  14.474
45503W        W10763  13.094  24.992  10.956
45504W        W10764  22.131  29.067  10.910
45505W        W10765  26.118  32.969  11.064
45506W        W10766  18.429  26.967   0.360
45507W        W10767  29.783  26.258   3.694
45508W        W10768  33.562  26.373   0.490
45509W        W10769  31.009  29.863  10.694
45510W        W10770  36.600  12.782   2.756
45511W        W10771  13.263  11.140   3.185
45512W        W10772  18.767  35.599   0.110
45513W        W10773  29.073   7.850  14.189
45514W        W10774  16.409  44.799  13.600
45515W        W10775  11.340  17.664  14.023
45516W        W10776  24.502  37.384   2.417
45517W        W10777  11.925  43.330  11.924
45518W        W10778  27.959   0.009   1.851
45519W        W10779  44.870   7.935  13.012
45520W        W10780  17.518  11.757   0.557
45521W        W10781  26.879   8.559  11.888
45522W        W10782  33.804  22.690   1.803
45523W        W10783  23.994  31.861  10.275
45524W        W10784  36.188  23.226   3.167
45525W        W10785  19.349  21.056  13.607
45526W        W10786  26.895  39.142   0.798
45527W        W10787  19.100  37.974   0.959
45528W        W10788  43.926   5.253   3.029
45529W        W10789  21.760  43.940   4.150
45530W        W10790  17.525  11.454   3.896
45531W        W10791  22.217  44.920   3.330
45532W        W10792  22.237  30.185  13.548
45533W        W10793  39.227   9.707  13.921
45534W        W10794  43.613  26.024  11.158
45535W        W10795  29.353  15.677  11.150
45536W        W10796  39.037   6.170   3.241
45537W        W10797  21.666   2.443  11.578
45538W        W10798  16.457  42.372  11.533
45539W        W10799   1.436   9.753  12.110
45540W        W10800  20.088  41.688  11.248
45541W        W10801   7.688  33.064  13.392
45542W        W10802  40.892  21.817   3.864
45543W        W10803  17.702  31.423  13.890
45544W        W10804   1.063  40.450  12.049
45545W        W10805  36.804  32.452  14.476
45546W        W10806  43.340  16.618  14.793
45547W        W10807   0.287   0.649   0.822
45548W        W10808  42.916   5.207   4.677
45549W        W10809  40.419   3.986   4.053
45550W        W10810  26.415   2.185  14.790
45551W        W10811  15.160  27.390  13.941
45552W        W10812  21.304  32.380  13.465
45553W        W10813  33.632  17.685  13.883
45554W        W10814  17.802   7.839  12.246
45555W        W10815  11.697  24.404  11.968
45556W        W10816  26.373   9.002   1.237
45557W        W10817  20.051  44.147  11.602
45558W        W10818  37.892  29.431  10.685
45559W        W10819  40.886  27.549   1.889
45560W        W10820   2.267  32.559  10.570
45561W        W10821   3.301  15.272  13.735
45562W        W10822  26.431  11.179  11.142
45563W        W10823   3.520  29.486   1.386
45564W        W10824  39.329   4.768  12.337
45565W        W10825  44.309   6.641  14.237
45566W        W10826  20.768  26.672   5.040
45567W        W10827  22.679  21.462   3.620
45568W        W10828  10.202  40.278   4.179
45569W        W10829   9.886  21.306  13.393
45570W        W10830   8.826  30.954  14.269
45571W        W10831   3.258  29.606  12.505
45572W        W10832  25.227   6.847  14.049
45573W        W10833  26.088  39.527  13.016
45574W        W10834   2.320  19.070   0.322
45575W        W10835  42.839   7.490  13.496
45576W        W10836  14.841   9.736  10.932
45577W        W10837  23.673   9.793  14.393
45578W        W10838  13.275  27.510   0.270
45579W        W10839  18.013  44.806   4.097
45580W        W10840   8.289  34.039   2.370
45581W        W10841   6.242  34.933  10.647
45582W        W10842  36.634   0.381   2.406
45583W        W10843   4.903  26.008   1.188
45584W        W10844  36.084  17.566  12.949
45585W        W10845   2.720  14.030   4.601
45586W        W10846   9.112  21.265   4.175
45587W        W10847  31.025  27.449   3.234
45588W        W10848  18.317  41.387  14.966
45589W        W10849  24.691  34.863  11.714
45590W        W10850  11.319  26.042  13.297
45591W        W10851  43.823   3.341  11.430
45592W        W10852  33.912   5.746  11.439
45593W        W10853  16.243  22.847  14.911
45594W        W10854   1.060   4.707   0.011
45595W        W10855  31.704  10.301  12.911
45596W        W10856  33.590   2.458  12.620
45597W        W10857  19.078  26.052   0.888
45598W        W10858  13.138  17.161   3.150
45599W        W10859  27.977  20.330  13.840
45600W        W10860  15.531  40.831  11.174
45601W        W10861  11.215   4.178   2.688
45602W        W10862  42.625  30.016  11.047
45603W        W10863  33.134  42.052   0.331
45604W        W10864  15.378  30.042  11.617
45605W        W10865  37.744  36.454  12.592
45606W        W10866  30.550  34.167  10.647
45607W        W10867  39.927  42.978   0.736
45608W        W10868   6.799  19.775  13.046
45609W        W10869  23.157  15.747  14.767
45610W        W10870  19.521   1.925  13.950
45611W        W10871  34.963  28.444   1.638
45612W        W10872  35.516  16.826  13.942
45613W        W10873  41.347  42.892   0.722
45614W        W10874  23.582   3.479   4.205
45615W        W10875   7.876  40.355  14.392
45616W        W10876  10.595  21.679  10.535
45617W        W10877   2.735   4.456  11.992
45618W        W10878  22.893  38.542   4.424
45619W        W10879  28.788  16.028  14.025
45620W        W10880  33.760   9.805  14.506
45621W        W10881  43.444  11.150  14.474
45622W        W10882  37.857  11.105   3.287
45623W        W10883   5.693  17.816   3.179
45624W        W10884  29.076  30.920  13.270
45625W        W10885  23.086  28.003  13.760
45626W        W10886   9.139   1.934  10.744
45627W        W10887   8.199  44.295   0.253
45628W        W10888   9.258  13.762   2.819
45629W        W10889  39.873  18.016  14.715
45630W        W10890  30.092  37.735   2.063
45631W        W10891   9.499  30.892   3.382
45632W        W10892  33.200  23.741  14.653
45633W        W10893   3.888  24.701  12.637
45634W        W10894  26.712  22.128   4.142
45635W        W10895  13.043  42.913  10.872
45636W        W10896  16.786  43.428   2.878
45637W        W10897  16.637  13.275   3.410
45638W        W10898  23.106  25.783  14.501
45639W        W10899  16.147   9.151   3.860
45640W        W10900  16.990   7.976  11.367
45641W        W10901  28.896  35.236   2.640
45642W        W10902  20.558  42.541   0.283
45643W        W10903  31.438  32.754   2.779
45644W        W10904   7.062  43.003  12.089
45645W        W10905  14.175   7.716   5.641
45646W        W10906  33.411  18.428   2.851
45647W        W10907   1.121  39.048   1.974
45648W        W10908  11.763   1.494   3.465
45649W        W10909   7.460  21.506  14.485
45650W        W10910   6.686  18.697   1.470
45651W        W10911   2.817  14.652  12.010
45652W        W10912  37.373  10.632   5.174
45653W        W10913  35.604  17.129  14.946
45654W        W10914  25.453  37.913   2.337
45655W        W10915   7.714  44.549   0.460
45656W        W10916  35.817  41.230  11.079
45657W        W10917  14.693   2.376  14.519
45658W        W10918  15.483  30.407   3.722
45659W        W10919  18.118  22.237   0.897
45660W        W10920  16.587  31.823   2.101
45661W        W10921  36.951  24.157   4.321
45662W        W10922   9.718  41.824   4.833
45663W        W10923  11.604  43.238  14.878
45664W        W10924  39.529  23.370  14.387
45665W        W10925  14.699   1.501   0.770
45666W        W10926   2.045  19.823   1.861
45667W        W10927  33.129  26.773  13.981
45668W        W10928  44.987  29.933   2.697
45669W        W10929  15.243  43.415  10.691
45670W        W10930  20.461  43.242   2.665
45671W        W10931   1.900  22.433   3.952
45672W        W10932  40.412  18.295   1.401
45673W        W10933  39.871   9.321  12.498
45674W        W10934  23.597  33.126  13.323
45675W        W10935  32.872  31.642  14.062
45676W        W10936   2.312  18.379   1.928
45677W        W10937   5.919  27.278  11.168
45678W        W10938  17.286   2.626   4.159
45679W        W10939  29.076   9.347  14.360
45680W        W10940  16.717  40.431  11.549
45681W        W10941  18.029  42.753  14.421
45682W        W10942  22.648  34.391   4.496
45683W        W10943  18.325  12.558  12.033
45684W        W10944  19.826  27.114   2.829
45685W        W10945  41.399  44.797  12.325
45686W        W10946  12.812  36.446  11.967
45687W        W10947  12.855  37.122   3.827
45688W        W10948  18.526  40.877   0.783
45689W        W10949  35.623  11.405  12.960
45690W        W10950   4.225   5.227   2.306
45691W        W10951  10.933  14.335   0.569
45692W        W10952  29.652  14.908  13.572
45693W        W10953  13.128   7.002   2.138
45694W        W10954   0.438  40.990  13.509
45695W        W10955   4.218  12.764   2.168
45696W        W10956  37.351  27.923  13.532
45697W        W10957  30.821  14.043  11.324
45698W        W10958   1.015   4.470   0.868
45699W        W10959  43.612   1.004  12.267
45700W        W10960  43.574  34.664   3.719
45701W        W10961  10.155  44.036   2.850
45702W        W10962  34.915  38.916   3.693
45703W        W10963  20.605  34.157  14.981
45704W        W10964  29.579  26.630  10.230
45705W        W10965   1.062  21.621   0.975
45706W        W10966   8.210  37.356  13.390
45707W        W10967  14.368  29.096   1.808
45708W        W10968  16.660  28.935  14.498
45709W        W10969  44.471   2.847  12.344
45710W        W10970  21.622  32.431   2.653
45711W        W10971  35.598  20.350   1.418
45712W        W10972  20.336  18.123   1.673
45713W        W10973   8.248  13.830  12.604
45714W        W10974  20.094  25.634   1.148
45715W        W10975  44.787  17.161   4.637
45716W        W10976  32.509  37.277   5.330
45717W        W10977  29.998  25.639  14.796
45718W        W10978  16.279  39.922   1.578
45719W        W10979  15.739   6.170  10.953
45720W        W10980  34.086  10.495  11.175
45721W        W10981  33.462  13.595   2.803
45722W        W10982   4.116   9.793  12.269
45723W        W10983  15.176   0.741   0.768
45724W        W10984  18.684   2.270  14.174
45725W        W10985   5.827  43.838  14.471
45726W        W10986   4.843  31.328   2.362
45727W        W10987  31.045  14.603  13.364
45728W        W10988   5.403  34.412   3.713
45729W        W10989  11.344  19.793  11.482
45730W        W10990  22.967  13.504  13.435
45731W        W10991  24.184  32.519   2.784
45732W        W10992  10.177  16.805   1.731
45733W        W10993  27.186  13.209   3.238
45734W        W10994   2.165  22.293   1.784
45735W        W10995   4.887   6.161   4.120
45736W        W10996  34.479  23.802  13.481
45737W        W10997  34.717  28.107   1.930
45738W        W10998   2.047   5.940   0.879
45739W        W10999  33.566   9.327   0.726
45740W        W11000  16.477   1.485   3.651
45741W        W11001  35.566  41.212   3.283
45742W        W11002  22.516  36.617   1.731
45743W        W11003  37.368  44.828   5.429
45744W        W11004  37.570   1.806  13.551
45745W        W11005  43.341  25.173   4.588
45746W        W11006  33.330  37.521  10.133
45747W        W11007  42.447  29.150  14.332
45748W        W11008  30.737   8.790   4.464
45749W        W11009  19.023   2.501  10.650
45750W        W11010  28.265  41.372   2.777
45751W        W11011  42.746  22.009  13.999
45752W        W11012  43.849   6.332  14.019
45753W        W11013  24.061   7.632   0.132
45754W        W11014  22.821  29.098  14.917
45755W        W11015  34.366  39.007  12.161
45756W        W11016  19.610  31.019   0.384
45757W        W11017  35.610  29.572  12.442
45758W        W11018  19.239  40.276  11.612
45759W        W11019  43.984  23.042  14.007
45760W        W11020  23.075   5.402   2.303
45761W        W11021   6.694  34.082  11.577
45762W        W11022  38.974  44.257   0.470
45763W        W11023  13.106   6.457   1.335
45764W        W11024   5.064  26.512   4.560
45765W        W11025  26.070  39.923   1.167
45766W        W11026   1.644  31.078  14.816
45767W        W11027  36.073  16.355   3.236
45768W        W11028  24.927  24.685  13.386
45769W        W11029   9.517   9.580   4.757
45770W        W11030   1.016  14.074  11.117
45771W        W11031   8.500  31.406   2.627
45772W        W11032  18.797  41.559  13.108
45773W        W11033  30.636   2.196   4.849
45774W        W11034   3.259  21.168   3.268
45775W        W11035  10.787  23.560   4.621
45776W        W11036  10.346   5.216  12.483
45777W        W11037  35.873  18.492  12.033
45778W        W11038  43.698   5.317   0.041
45779W        W11039  10.182  24.612  13.556
45780W        W11040  35.830  33.506   4.172
45781W        W11041   1.514  34.688  14.381
45782W        W11042  24.224  29.647  14.000
45783W        W11043  39.779  37.222  14.042
45784W        W11044  42.725   1.211   3.789
45785W        W11045  19.327  43.452   0.385
45786W        W11046  35.450  29.977   0.882
45787W        W11047  29.691  26.028   0.777
45788W        W11048   1.395   8.911   0.288
45789W        W11049  28.101  40.209  12.807
45790W        W11050   7.867   4.871   5.032
45791W        W11051  20.625  21.959   3.248
45792W        W11052  10.480  25.115   1.506
45793W        W11053  18.035  41.058   1.739
45794W        W11054  31.367   5.933   1.231
45795W        W11055  26.188  34.036   1.704
45796W        W11056   9.983   9.574  12.154
45797W        W11057  11.184  15.691  13.998
45798W        W11058  15.155  31.438  12.455
45799W        W11059  12.848  43.439  12.199
45800W        W11060  38.953  37.566   3.336
45801W        W11061   8.253  40.094   1.336
45802W        W11062  27.572  44.331   0.892
45803W        W11063  24.115  15.830   3.194
45804W        W11064  29.059  11.933   2.369
45805W        W11065  32.843  17.125   1.863
45806W        W11066  18.138  35.332  14.778
45807W        W11067  40.375  39.623   0.237
45808W        W11068   0.766  41.651  12.408
45809W        W11069   2.070   9.044  10.845
45810W        W11070  26.179  18.002  13.968
45811W        W11071  11.699  11.818   0.955
45812W        W11072  23.548  26.636   0.686
45813W        W11073  17.055  23.812  12.838
45814W        W11074  33.394  18.896   2.647
45815W        W11075  10.878  37.527  10.557
45816W        W11076  32.009   5.859   2.838
45817W        W11077   6.052  13.960  14.466
45818W        W11078  29.439  25.636   2.408
45819W        W11079   8.378  25.537   4.628
45820W        W11080  38.329  22.857  12.117
45821W        W11081  37.504  43.184  12.581
45822W        W11082  27.127  29.458  13.640
45823W        W11083  19.586  28.661   1.930
45824W        W11084  22.565  43.087   0.168
45825W        W11085   8.224  19.947  14.908
45826W        W11086   4.010  25.224  13.381
45827W        W11087   2.325  28.140  14.840
45828W        W11088  26.514  22.260   4.585
45829W        W11089  20.769  17.690   4.627
45830W        W11090  37.454  16.567   3.269
45831W        W11091   6.214   2.441   4.565
45832W        W11092  10.463  34.465  13.376
45833W        W11093  24.314   6.912   2.184
45834W        W11094  23.308   2.893   0.232
45835W        W11095  39.948  26.890   2.672
45836W        W11096  29.511   3.474  11.865
45837W        W11097  29.947   0.389  14.383
45838W        W11098  39.589   7.730   0.915
45839W        W11099  30.023  17.655   4.687
45840W        W11100   9.613  36.588   1.247
45841W        W11101  21.292  21.211  13.306
45842W        W11102  44.747  35.440   3.775
45843W        W11103  40.142  16.162  14.235
45844W        W11104  21.499  43.550  14.095
45845W        W11105  17.012  44.030  13.926
45846W        W11106  37.307  31.691   1.812
45847W        W11107  26.613  41.859   4.930
45848W        W11108   7.878  20.670   3.347
45849W        W11109  37.491  32.433  13.735
45850W        W11110  21.123  26.586  13.862
45851W        W11111  41.417  24.239   1.460
45852W        W11112  17.836  24.759   2.281
45853W        W11113  14.268  16.124  13.949
45854W        W11114   6.797  13.717   2.458
45855W        W11115  23.740   6.367   1.819
45856W        W11116   7.660  23.938   1.906
45857W        W11117  30.651  43.125  11.495
45858W        W11118   4.966  26.218   0.703
45859W        W11119  24.557  36.746  14.466
45860W        W11120  26.229  37.123   2.174
45861W        W11121  32.412  12.175   4.351
45862W        W11122  11.922   7.906   4.012
45863W        W11123  34.079   0.190  12.099
45864W        W11124   8.297  32.052   1.327
45865W        W11125   1.849  35.897   1.968
45866W        W11126   3.691  12.711   3.661
45867W        W11127  27.625  18.868  13.100
45868W        W11128  15.188  19.379   4.240
45869W        W11129   3.332  39.611   0.388
45870W        W11130  32.168  11.666   2.131
45871W        W11131  37.264  32.562  11.566
45872W        W11132  28.618  24.575  11.389
45873W        W11133  33.713  21.967   2.737
45874W        W11134  40.082  43.412   1.010
45875W        W11135   7.411  37.017  12.547
45876W        W11136   8.287  33.089  11.402
45877W        W11137  38.036   3.285  12.672
45878W        W11138  44.364   3.232   4.151
45879W        W11139   7.315  29.405   9.841
45880W        W11140  40.400  39.239  10.738
45881W        W11141  16.394  43.749   0.065
45882W        W11142  44.763  40.850  11.175
45883W        W11143  15.263  26.498   0.538
45884W        W11144  21.065  39.391  10.608
45885W        W11145  34.816   2.395   1.068
45886W        W11146  18.306  23.863  12.468
45887W        W11147  43.869   2.406   3.607
45888W        W11148   4.538  35.744  14.646
45889W        W11149  19.640  18.549   4.108
45890W        W11150  38.162  14.906   0.459
45891W        W11151  34.123   4.228   2.191
45892W        W11152  43.924  32.327   4.320
45893W        W11153   0.780  34.834  14.437
45894W        W11154  28.595  37.379   1.891
45895W        W11155   3.461  32.611   0.435
45896W        W11156  36.033  42.454  12.577
45897W        W11157  20.303  21.692   0.894
45898W        W11158  25.332   1.879   0.972
45899W        W11159   9.463  10.627   2.455
45900W        W11160  29.332  34.490  14.495
45901W        W11161  38.885  13.559   0.211
45902W        W11162  38.326  14.129  12.448
45903W        W11163  35.612  22.241   4.742
45904W        W11164  12.720   8.920  14.905
45905W        W11165  13.864  42.101  11.607
45906W        W11166   6.377   5.233   4.307
45907W        W11167   9.629  10.317  13.329
45908W        W11168  11.322   5.440   2.182
45909W        W11169   8.937  14.208  11.547
45910W        W11170  27.400  41.052  13.040
45911W        W11171  13.418   0.518  10.280
45912W        W11172  19.867  36.979   4.728
45913W        W11173  31.475  27.815  11.968
45914W        W11174  35.846  15.415  13.618
45915W        W11175  23.203  15.347  13.089
45916W        W11176  28.342  26.328  10.913
45917W        W11177  18.843  35.468  13.654
45918W        W11178  42.022  42.842  13.881
45919W        W11179  27.755   0.816   3.008
45920W        W11180  42.075  17.067  12.094
45921W        W11181  25.219  17.154  14.424
45922W        W11182   6.315  37.739  10.445
45923W        W11183  31.343  37.048   0.767
45924W        W11184  17.101  27.644  10.749
45925W        W11185  12.410   1.518  10.716
45926W        W11186  38.438  41.248  13.720
45927W        W11187  18.274   7.699   3.274
45928W        W11188  21.042   8.718   0.339
45929W        W11189   2.677  39.834  13.916
45930W        W11190  29.022  37.542   2.437
45931W        W11191  30.683   1.332  11.224
45932W        W11192  33.621  41.279  14.430
45933W        W11193  26.177   2.999  13.291
45934W        W11194   8.561  44.263   4.889
45935W        W11195  19.757  11.299  13.029
45936W        W11196  36.538  30.927   1.234
45937W        W11197  38.259  18.228  11.470
45938W        W11198  11.440  20.230  12.684
45939W        W11199  23.564  17.162   3.048
45940W        W11200  17.847  19.009  11.135
45941W        W11201   0.300   8.652  13.591
45942W        W11202  16.280  41.849  14.958
45943W        W11203  26.916  39.915   1.728
45944W        W11204   0.341   7.116   4.198
45945W        W11205  31.946  28.728  14.509
45946W        W11206   3.934   0.315  11.626
45947W        W11207  40.964  32.354  13.584
45948W        W11208  15.571  18.918   3.693
45949W        W11209   9.755  20.031  12.111
45950W        W11210  28.731  32.532  11.945
45951W        W11211  30.062  32.508   1.133
45952W        W11212  36.452  44.729  14.392
45953W        W11213  18.298  26.209  13.965
45954W        W11214  29.509  24.260   4.508
45955W        W11215   2.474  34.519  10.549
45956W        W11216  40.976  42.489   1.832
45957W        W11217  29.539  13.158   4.577
45958W        W11218   2.491  12.266   4.051
45959W        W11219  13.654  37.964   3.629
45960W        W11220  39.486   4.328  10.275
45961W        W11221  25.586  39.363  14.446
45962W        W11222  20.832  33.988   1.743
45963W        W11223   2.481  27.510  12.885
45964W        W11224  25.111  28.256  12.089
45965W        W11225  21.576  13.073  11.643
45966W        W11226  32.131  10.811   3.901
45967W        W11227  29.670  37.484   4.547
45968W        W11228  14.067  10.792  12.022
45969W        W11229  23.151   7.336  13.404
45970W        W11230  43.440  41.753   2.118
45971W        W11231  27.530  34.977   0.262
45972W        W11232  11.052   7.845  14.292
45973W        W11233  10.949  22.208  11.511
45974W        W11234   3.544  11.962  13.564
45975W        W11235  16.627  23.944  11.547
45976W        W11236  26.340  24.230   2.635
45977W        W11237  16.387  35.659   1.085
45978W        W11238  40.167  23.811   4.640
45979W        W11239  24.054  34.947  13.022
45980W        W11240  27.999  40.785  14.454
45981W        W11241   3.423  27.128  11.203
45982W        W11242  14.885  29.866  11.050
45983W        W11243  41.304  11.054   4.197
45984W        W11244  26.921  20.402  13.993
45985W        W11245  17.008  19.000  12.554
45986W        W11246  11.520  16.405  11.930
45987W        W11247   0.449  38.190   2.070
45988W        W11248  25.093  39.925   2.025
45989W        W11249  31.788  39.443  12.867
45990W        W11250  43.800  40.397  13.422
45991W        W11251   8.836  32.201   0.818
45992W        W11252  23.559  23.065   2.371
45993W        W11253  34.884  27.531   2.436
45994W        W11254  18.617  14.068  12.142
45995W        W11255  42.684   3.185  12.747
45996W        W11256  27.120  11.083   4.531
45997W        W11257  42.654  20.267   0.737
45998W        W11258  28.378  15.623  11.973
45999W        W11259  43.757  21.689  13.304
46000W        W11260  17.647  21.331  12.125
46001W        W11261  24.047   2.728  10.936
46002W        W11262   5.714  32.785   0.218
46003W        W11263  31.062  21.266  13.846
46004W        W11264  37.838  11.214  13.545
46005W        W11265  30.016  21.516   2.947
46006W        W11266  30.104   6.178   4.577
46007W        W11267  14.771  37.970   2.210
46008W        W11268   4.379  39.282   4.544
46009W        W11269  17.703   2.466   4.483
46010W        W11270  12.234  14.898   1.447
46011W        W11271   7.175  24.968  12.995
46012W        W11272  44.769  30.517   2.137
46013W        W11273   2.348  21.930   2.994
46014W        W11274  22.150  27.120   3.652
46015W        W11275  14.831  28.395  10.718
46016W        W11276  16.513   5.013   2.418
46017W        W11277  30.773  22.464  14.435
46018W        W11278  26.338   1.050  12.468
46019W        W11279  32.050  39.725   0.845
46020W        W11280  30.952  17.759   5.004
46021W        W11281   1.829  44.385  13.987
46022W        W11282  22.478  15.049   2.792
46023W        W11283   1.226   7.396  13.061
46024W        W11284  44.216  20.295   3.335
46025W        W11285   3.298  43.705   0.914
46026W        W11286  31.116  12.850   4.069
46027W        W11287  19.489  32.429   1.298
46028W        W11288  35.069  28.457  12.591
46029W        W11289  35.007  31.116  10.682
46030W        W11290  30.968  40.350  10.905
46031W        W11291  23.116  26.051  13.857
46032W        W11292  15.638  38.913   4.248
46033W        W11293  28.542  43.497  10.812
46034W        W11294  31.087  10.007   3.681
46035W        W11295   2.143  16.161   4.400
46036W        W11296  10.349  36.560  14.992
46037W        W11297  33.134  16.002   2.891
46038W        W11298  34.041  26.830   1.071
46039W        W11299  38.559  39.847   2.226
46040W        W11300   2.418   4.023   2.770
46041W        W11301  38.347  44.688   4.089
46042W        W11302  24.654  11.347   4.277
46043W        W11303  15.274   8.019  14.838
46044W        W11304  29.197  25.592  13.651
46045W        W11305  10.604  42.254  14.438
46046W        W11306  30.146   8.689  11.662
46047W        W11307  44.061  15.643   1.460
46048W        W11308  42.617  14.306  13.068
46049W        W11309  20.118  40.212   3.667
46050W        W11310  32.726  20.270  12.946
46051W        W11311  13.355  29.097  14.242
46052W        W11312  13.653  44.122   4.361
46053W        W11313  35.575   9.298  13.451
46054W        W11314  28.404  32.420  11.062
46055W        W11315  28.435   1.606   3.112
46056W        W11316  40.422  28.061   4.231
46057W        W11317  43.771   0.329   0.760
46058W        W11318   8.662  29.498   4.048
46059W        W11319  33.545  43.781  14.697
46060W        W11320   0.540  33.593   4.392
46061W        W11321   1.450   0.375   0.456
46062W        W11322  23.972   3.502   1.766
46063W        W11323  15.539   1.381   2.770
46064W        W11324  36.808  14.215   3.856
46065W        W11325  37.423  11.206   0.954
46066W        W11326  26.433  13.654  12.976
46067W        W11327  32.574   6.172   0.921
46068W        W11328  43.468  11.863   2.667
46069W        W11329  34.616   2.388  12.539
46070W        W11330   5.403  35.634  14.951
46071W        W11331  37.037  27.503  10.374
46072W        W11332  10.348  32.369  12.480
46073W        W11333  33.404  35.525  13.335
46074W        W11334  22.422  12.092  12.047
46075W        W11335   6.388  39.983  11.633
46076W        W11336  41.707  21.607  12.592
46077W        W11337  15.292  12.568  11.925
46078W        W11338  42.458  30.275   1.417
46079W        W11339   9.887  40.884  13.311
46080W        W11340  15.091   2.825   4.558
46081W        W11341  20.513  28.038  14.471
46082W        W11342  31.473  40.537   4.036
46083W        W11343  34.185   7.190   0.780
46084W        W11344  29.546  27.105  13.376
46085W        W11345  36.046   7.680   2.911
46086W        W11346  20.518  23.534   1.654
46087W        W11347  15.118  34.560  11.129
46088W        W11348  25.697  24.062   0.776
46089W        W11349  32.789   2.360   1.193
46090W        W11350   0.346  39.529  13.061
46091W        W11351  35.077  24.004   1.309
46092W        W11352  32.009  17.776  13.803
46093W        W11353  38.070  10.255   0.796
46094W        W11354  23.019  14.390   4.115
46095W        W11355  20.855  13.260   0.433
46096W        W11356   3.666  40.177   1.796
46097W        W11357  42.191   0.738  14.997
46098W        W11358  29.872  21.578  13.575
46099W        W11359  41.761  16.002   5.048
46100W        W11360  44.388   8.693   0.205
46101W        W11361  29.235  41.746  13.886
46102W        W11362  27.712  21.864  14.870
46103W        W11363  35.992  13.577  12.545
46104W        W11364  27.415  24.294  13.927
46105W        W11365  42.370   8.688  13.102
46106W        W11366  38.897   6.869  14.634
46107W        W11367   4.315  21.706  13.332
46108W        W11368   2.771  34.688   0.728
46109W        W11369  22.142  11.560   4.606
46110W        W11370   0.417  32.517  13.376
46111W        W11371  43.285   6.365   3.159
46112W        W11372   0.827  12.849  14.365
46113W        W11373  34.314  41.673  12.061
46114W        W11374  18.143  18.493   1.998
46115W        W11375  19.969   8.148   2.778
46116W        W11376   2.290   9.935   1.725
46117W        W11377  28.426  42.385   3.699
46118W        W11378  18.423  17.821  14.902
46119W        W11379  32.607   2.284   4.208
46120W        W11380  23.570  28.628   1.606
46121W        W11381  32.409   4.269   0.084
46122W        W11382   2.849   6.816  13.928
46123W        W11383  10.121  34.617   2.711
46124W        W11384   5.374   5.581  12.354
46125W        W11385   4.241   3.322  13.678
46126W        W11386  14.808   9.763  12.526
46127W        W11387  29.890  43.200  11.993
46128W        W11388  12.387   6.978   0.486
46129W        W11389  25.052  29.179  10.676
46130W        W11390  21.993  23.271   0.207
46131W        W11391   8.613   1.912   2.195
46132W        W11392  40.404  33.143  14.818
46133W        W11393   1.921  29.867  14.055
46134W        W11394  44.916  11.700  11.777
46135W        W11395  27.399  27.665   1.296
46136W        W11396  32.201  31.242   2.033
46137W        W11397   9.310   9.165   0.188
46138W        W11398   7.192  10.027   4.946
46139W        W11399  35.369  13.612   1.948
46140W        W11400  39.116   0.456  12.962
46141W        W11401  43.728   9.756   5.131
46142W        W11402  43.531  28.614   4.566
46143W        W11403  35.837   6.334   0.475
46144W        W11404   1.430  19.608  14.304
46145W        W11405  22.660  14.576   4.978
46146W        W11406   5.465  32.402  13.859
46147W        W11407  23.076  39.100   4.061
46148W        W11408  29.121   8.962  14.984
46149W        W11409   6.365  19.976  14.827
46150W        W11410   6.866   0.023   3.648
46151W        W11411  40.491   6.244  11.618
46152W        W11412   2.532  11.334   4.137
46153W        W11413  11.262  24.419   3.728
46154W        W11414  11.811  30.092  11.137
46155W        W11415  37.851  19.270   1.063
46156W        W11416  35.228  42.980  11.642
46157W        W11417  20.723   8.688   1.254
46158W        W11418  14.094  36.121   3.284
46159W        W11419   4.473   4.625   0.682
46160W        W11420  41.593  28.747   0.201
46161W        W11421   3.324  16.170  13.476
46162W        W11422  15.785  12.602   4.017
46163W        W11423  40.785  40.131   2.721
46164W        W11424   5.170  36.728   3.099
46165W        W11425   2.804  22.269  13.423
46166W        W11426  34.083  26.104  14.911
46167W        W11427  12.212  14.219   3.794
46168W        W11428  29.210  15.608   4.682
46169W        W11429  35.957  12.365  10.693
46170W        W11430  35.486  30.905  12.136
46171W        W11431  36.403  23.243  14.825
46172W        W11432  24.777  39.904  11.552
46173W        W11433   2.090  11.805  12.258
46174W        W11434  29.908  15.823  14.461
46175W        W11435   7.901  28.456   2.189
46176W        W11436  21.699   0.154   2.358
46177W        W11437  24.784  17.129  13.470
46178W        W11438  32.055  33.968   0.261
46179W        W11439  36.128  43.291  14.050
46180W        W11440  12.350  44.289   4.566
46181W        W11441   1.501  29.660   0.914
46182W        W11442  21.257  24.152   1.269
46183W        W11443  22.103  44.526   4.290
46184W        W11444   2.048  24.952  12.532
46185W        W11445  14.292  28.930  10.822
46186W        W11446  32.982   6.376   4.862
46187W        W11447  20.303  27.010   0.534
46188W        W11448  21.792   4.599  14.002
46189W        W11449  44.834  10.859   0.264
46190W        W11450  19.096  24.617   2.308
46191W        W11451  32.252  43.264   0.487
46192W        W11452  16.568  41.240  14.175
46193W        W11453  29.796  33.405   0.280
46194W        W11454  40.291  20.113   2.268
46195W        W11455   1.952  13.248   2.921
46196W        W11456  43.415  14.274   4.309
46197W        W11457  25.313  31.112   0.335
46198W        W11458  44.236  21.532   4.060
46199W        W11459  30.209  29.707  11.043
46200W        W11460  42.802  10.655  12.336
46201W        W11461  23.485  11.764  10.782
46202W        W11462  34.209   0.220  12.936
46203W        W11463  18.651  22.545  11.133
46204W        W11464  29.453  12.651   2.664
46205W        W11465   1.277  32.610   5.052
46206W        W11466   8.356  10.273   1.122
46207W        W11467  36.844  15.709  14.493
46208W        W11468  21.083   3.018  11.112
46209W        W11469  43.584  12.407  14.459
46210W        W11470  32.998  12.072   1.775
46211W        W11471  32.508  18.770   1.697
46212W        W11472  30.082  23.423   2.704
46213W        W11473  28.041  20.025  12.872
46214W        W11474  35.351  35.629  13.862
46215W        W11475  41.110   6.413   2.605
46216W        W11476  43.895   7.359  14.549
46217W        W11477  23.450  10.238   1.761
46218W        W11478  26.620  11.128  13.962
46219W        W11479  19.025  39.876  10.658
46220W        W11480  19.774  33.470   0.892
46221W        W11481  17.786   9.402  11.066
46222W        W11482  14.765  27.866  14.299
46223W        W11483  29.512  44.784  14.838
46224W        W11484  41.235   1.473  10.993
46225W        W11485  15.248   1.783   2.671
46226W        W11486   4.085  24.103   0.692
46227W        W11487   8.189  23.260  11.496
46228W        W11488  23.060  37.928   2.613
46229W        W11489   4.317  15.141   3.044
46230W        W11490  18.564   1.775  14.893
46231W        W11491  36.914  44.673  12.550
46232W        W11492  38.413  23.630  13.299
46233W        W11493   7.437  25.491   2.831
46234W        W11494  17.185  27.479  14.291
46235W        W11495   7.427  34.043  13.493
46236W        W11496   6.919  22.236   0.942
46237W        W11497  15.545  42.340   4.111
46238W        W11498  13.792  31.402  14.064
46239W        W11499  36.766  20.160  12.942
46240W        W11500  31.404  34.523  11.928
46241W        W11501  30.915  11.380  14.065
46242W        W11502  12.459   9.853  11.234
46243W        W11503   2.723  39.319   2.606
46244W        W11504  21.319  26.649  11.595
46245W        W11505  12.049   4.765   0.472
46246W        W11506  20.279  13.382   4.560
46247W        W11507  23.149  22.519   2.698
46248W        W11508  30.345  29.408  13.467
46249W        W11509  36.155  18.152   1.947
46250W        W11510  18.333   4.916   0.748
46251W        W11511  18.975  29.688  10.372
46252W        W11512  37.850  16.814   0.755
46253W        W11513  33.922  32.572   3.657
46254W        W11514   0.265  31.615   0.485
46255W        W11515  40.900   1.718  10.541
46256W        W11516   6.667  44.876  14.522
46257W        W11517  40.414   3.324   4.323
46258W        W11518  43.273  16.039  13.237
46259W        W11519  33.420  39.545  12.820
46260W        W11520   1.765   5.283  12.548
46261W        W11521  31.849  39.827  12.538
46262W        W11522   3.046   6.375   1.864
46263W        W11523  33.262  24.078  14.025
46264W        W11524  13.826  33.348  13.385
46265W        W11525   8.125   0.316   0.227
46266W        W11526   6.322  31.386  12.442
46267W        W11527  43.123   0.242  11.497
46268W        W11528  15.618  42.466  12.353
46269W        W11529  16.664   4.988  14.280
46270W        W11530  43.347   7.701   1.265
46271W        W11531  40.238   6.892   4.143
46272W        W11532  43.037  42.024   1.391
46273W        W11533  29.598   9.768  13.653
46274W        W11534  39.732  10.725  11.552
46275W        W11535   1.514  27.492   3.661
46276W        W11536   6.394  13.350   0.859
46277W        W11537  21.042  37.957   2.799
46278W        W11538  14.976   4.305   3.623
46279W        W11539  12.727  20.605   3.831
46280W        W11540   4.413  11.327   3.678
46281W        W11541   0.393  22.136  14.417
46282W        W11542   9.858  42.499  13.860
46283W        W11543  32.479   0.805   3.221
46284W        W11544  20.563  22.128  14.099
46285W        W11545   6.479  28.522   3.574
46286W        W11546  15.812   4.633   3.635
46287W        W11547  31.439  21.518  13.283
46288W        W11548  34.629  13.780  13.074
46289W        W11549  32.760  13.224   1.482
46290W        W11550   1.381  20.541   2.017
46291W        W11551  10.195  12.689  14.498
46292W        W11552  22.632  26.760   0.665
46293W        W11553  14.549  36.090  13.990
46294W        W11554  41.058   0.246  11.620
46295W        W11555  22.671  27.213  14.045
46296W        W11556  26.668  14.709   3.659
46297W        W11557  13.679  19.398  10.497
46298W        W11558   9.808   5.988  14.866
46299W        W11559  22.226  40.859  10.672
46300W        W11560   2.858  22.973   1.881
46301W        W11561  30.168  36.812   1.374
46302W        W11562  40.930  33.092  14.975
46303W        W11563  30.188  32.336   2.581
46304W        W11564  37.058  32.613  12.441
46305W        W11565   1.463  38.423  14.050
46306W        W11566   6.220   4.007   1.262
46307W        W11567   4.319   7.766   0.192
46308W        W11568  13.593  27.056   1.452
46309W        W11569  42.469  24.109   3.413
46310W        W11570  28.865  32.401  13.586
46311W        W11571   7.783  11.199   4.460
46312W        W11572   3.269  29.917   1.321
46313W        W11573  44.441   9.151  13.808
46314W        W11574   7.499  30.372  14.853
46315W        W11575  42.213  37.585   2.266
46316W        W11576   6.257  14.253  10.725
46317W        W11577   5.106   7.500   5.060
46318W        W11578  34.466   7.839  10.582
46319W        W11579   7.877  34.913  11.631
46320W        W11580  10.726  11.754   2.884
46321W        W11581  34.851  32.579   1.209
46322W        W11582  44.587  40.479   3.470
46323W        W11583  24.016  37.528   4.529
46324W        W11584  32.927  25.968   0.992
46325W        W11585   7.211   3.478   2.311
46326W        W11586   5.646   9.445  14.135
46327W        W11587  44.445  44.261  12.116
46328W        W11588   8.891  31.993  14.468
46329W        W11589   6.282  20.004   1.857
46330W        W11590  42.970  17.306  10.856
46331W        W11591  42.573   7.319   0.465
46332W        W11592   8.803  14.468  10.722
46333W        W11593  32.006  37.437  13.773
46334W        W11594  43.761  26.655   2.107
46335W        W11595  22.422  38.985   3.246
46336W        W11596  23.179  13.710   4.486
46337W        W11597  31.908  39.234   4.610
46338W        W11598   6.919  42.609   1.201
46339W        W11599  44.606  14.650   2.281
46340W        W11600  28.385  16.328  13.490
46341W        W11601   9.533  26.605  13.507
46342W        W11602  34.183  42.370  13.554
46343W        W11603  24.426  27.115  11.627
46344W        W11604  30.429   5.786  14.472
46345W        W11605  25.015  19.598  14.501
46346W        W11606  12.738  39.453   0.252
46347W        W11607  20.270  32.217  14.946
46348W        W11608  17.088  31.264   4.043
46349W        W11609  40.438  43.728   0.289
46350W        W11610   4.292   2.366   0.448
46351W        W11611  36.980  25.936   2.192
46352W        W11612  43.028   6.574  13.829
46353W        W11613  34.853  31.396  11.447
46354W        W11614  21.026  11.093  10.642
46355W        W11615  16.161  19.717   3.142
46356W        W11616  10.143  13.750   4.251
46357W        W11617  14.499  37.510  11.104
46358W        W11618   9.916  10.340   2.256
46359W        W11619  30.488  43.441   0.865
46360W        W11620  26.940  35.603  13.343
46361W        W11621  29.923  29.678  12.224
46362W        W11622   5.285  24.740   4.048
46363W        W11623  24.722  40.515  13.826
46364W        W11624  25.761  29.848  14.995
46365W        W11625   9.931  16.805   3.157
46366W        W11626  24.335  28.037   3.073
46367W        W11627  18.949  43.297   3.619
46368W        W11628  30.077  37.082  10.675
46369W        W11629   4.327  28.543   1.747
46370W        W11630  14.912  22.133   1.513
46371W        W11631   7.952  43.636   2.339
46372W        W11632   1.294   3.860  12.139
46373W        W11633  28.029  19.234   0.280
46374W        W11634   2.077  11.762  11.021
46375W        W11635   5.264  18.631  12.643
46376W        W11636  24.802   0.551   0.422
46377W        W11637  43.935  16.271   0.765
46378W        W11638  26.081  21.645   1.779
46379W        W11639  31.394   7.392  14.082
46380W        W11640  44.321  37.490   1.944
46381W        W11641  35.435  24.359   1.653
46382W        W11642  14.545  17.802   2.235
46383W        W11643   4.323  31.998  10.857
46384W        W11644  21.200  12.721   1.232
46385W        W11645  19.749  19.781   0.745
46386W        W11646   2.276  14.329  11.924
46387W        W11647  10.791  30.576  13.069
46388W        W11648  24.844  20.767  13.346
46389W        W11649  38.556  24.080  10.716
46390W        W11650   4.347  38.953  10.409
46391W        W11651  18.768  25.046  13.888
46392W        W11652   8.181   8.671  14.843
46393W        W11653  39.397   3.817   3.067
46394W        W11654  22.622  19.865  11.181
46395W        W11655  37.161  41.616  13.807
46396W        W11656  30.907  43.330  11.919
46397W        W11657  16.728   0.970  13.821
46398W        W11658  40.911   1.295  13.522
46399W        W11659   2.409  26.073  12.555
46400W        W11660  27.075  39.848   3.556
46401W        W11661  37.979  27.370   0.728
46402W        W11662  24.426  27.258  13.399
46403W        W11663  41.866  13.116   3.259
46404W        W11664  18.980  43.977  10.778
46405W        W11665  15.760   5.133   4.486
46406W        W11666  27.252  19.597  12.444
46407W        W11667  20.632  34.084  11.195
46408W        W11668   3.248  43.332   2.355
46409W        W11669  34.438   4.518  13.426
46410W        W11670   2.538  25.515   2.880
46411W        W11671  10.359  23.275  14.222
46412W        W11672   7.660  36.389   0.387
46413W        W11673  43.106   8.867   3.722
46414W        W11674  33.049  32.776   2.148
46415W        W11675  23.231  43.882  13.764
46416W        W11676   7.039  40.842   0.064
46417W        W11677   2.039  38.810  11.998
46418W        W11678   9.449   5.321   4.924
46419W        W11679   6.942  32.846   2.383
46420W        W11680  15.857  21.131  14.782
46421W        W11681  38.345  35.934  14.439
46422W        W11682  12.412  12.706  10.304
46423W        W11683   2.955  22.696   4.022
46424W        W11684   9.763  18.520  11.994
46425W        W11685   3.201   1.504   1.617
46426W        W11686   6.810  17.564  11.578
46427W        W11687  12.956  10.441   5.414
46428W        W11688   0.319  36.345   3.744
46429W        W11689  29.348  27.423  14.569
46430W        W11690  21.094   8.293  12.309
46431W        W11691  26.638  41.479   4.132
46432W        W11692  34.410   4.299  11.599
46433W        W11693  36.983   9.844   1.072
46434W        W11694  19.181   3.364   1.781
46435W        W11695  26.577  20.202   2.115
46436W        W11696   5.712  36.255   2.857
46437W        W11697   9.300  44.709   3.701
46438W        W11698  21.722  21.970  12.482
46439W        W11699  30.868  32.604  12.627
46440W        W11700  20.187  27.709   2.407
46441W        W11701  37.747  28.131  11.735
46442W        W11702  36.364  10.993  12.565
46443W        W11703  36.560   7.384  12.615
46444W        W11704  44.860  42.521   3.204
46445W        W11705  34.533  11.871   2.723
46446W        W11706  12.807  10.769  12.974
46447W        W11707  17.617   0.802   3.279
46448W        W11708   2.713  37.927  13.879
46449W        W11709  21.075  23.772  10.765
46450W        W11710  40.021  11.731   1.293
46451W        W11711  31.279  13.587   1.714
46452W        W11712   3.380   2.598   0.815
46453W        W11713  12.671  26.237   3.120
46454W        W11714  43.461   9.731  11.084
46455W        W11715  40.890  23.996  14.989
46456W        W11716   6.220  10.838   2.877
46457W        W11717  32.344   6.117  11.074
46458W        W11718  40.787  41.945   0.394
46459W        W11719  37.961  32.153   0.341
46460W        W11720  26.011  24.661  13.032
46461W        W11721  14.843   3.751   3.695
46462W        W11722  44.345   3.841  13.607
46463W        W11723   4.886  18.672  10.866
46464W        W11724   1.241  10.124  11.728
46465W        W11725  23.597  22.025   0.209
46466W        W11726  19.027  31.499   4.144
46467W        W11727  21.781  34.426  11.588
46468W        W11728  43.699  16.258  14.933
46469W        W11729  41.591  44.512  14.725
46470W        W11730  27.963  41.025  11.243
46471W        W11731  27.083   0.323   3.981
46472W        W11732   2.524  21.102  13.487
46473W        W11733  41.976  44.247  13.985
46474W        W11734  31.830  22.046   3.760
46475W        W11735   9.772   7.315  13.752
46476W        W11736  27.939  14.183  12.477
46477W        W11737  42.123  26.924   3.838
46478W        W11738  40.821  27.729   2.794
46479W        W11739  11.218  11.779   2.225
46480W        W11740   4.172  26.134  14.861
46481W        W11741  30.377  19.785  11.560
46482W        W11742  44.343  34.495   1.363
46483W        W11743   2.805  24.023   1.616
46484W        W11744  39.501  29.325   1.361
46485W        W11745  27.799   5.679  13.119
46486W        W11746   1.443  23.769   5.003
46487W        W11747   7.823  39.405  14.611
46488W        W11748  14.913   8.313  13.995
46489W        W11749   9.352  20.773  10.612
46490W        W11750  39.039  12.407   0.584
46491W        W11751  11.822  23.472   1.955
46492W        W11752   1.717  17.567  11.660
46493W        W11753  44.314  37.773   2.868
46494W        W11754   9.624  22.297   4.221
46495W        W11755  20.218  16.695  12.900
46496W        W11756  41.496  27.458  11.156
46497W        W11757  18.634  24.989  12.505
46498W        W11758  37.393  20.092   1.017
46499W        W11759  30.022   8.879  14.516
46500W        W11760   3.584  26.263   3.771
46501W        W11761  38.873  10.770  10.705
46502W        W11762  19.267   4.796   2.862
46503W        W11763  42.057   8.303  11.550
46504W        W11764   5.488   5.022   3.304
46505W        W11765   5.616  29.695   1.261
46506W        W11766  40.810   4.316   4.021
46507W        W11767  31.535  28.509  14.737
46508W        W11768  39.336  41.894   3.184
46509W        W11769  31.354  40.660   4.850
46510W        W11770  17.344  31.124  11.196
46511W        W11771  42.373  32.769  10.872
46512W        W11772   7.360  18.481   3.126
46513W        W11773  15.243  28.708   1.814
46514W        W11774   6.333  39.123   1.161
46515W        W11775   3.293  11.120  13.622
46516W        W11776   0.310  17.081   0.745
46517W        W11777  44.245  32.112  13.887
46518W        W11778  11.292  13.926   3.570
46519W        W11779   9.277   6.830  14.790
46520W        W11780   2.237  12.508  14.771
46521W        W11781   4.428  33.979   2.071
46522W        W11782  39.277  21.035   3.246
46523W        W11783  36.548  24.578   3.344
46524W        W11784  11.808  25.218   4.419
46525W        W11785   9.200  11.028   4.878
46526W        W11786  37.948   6.209   1.799
46527W        W11787  15.385  28.777   9.825
46528W        W11788   0.631  41.979   4.201
46529W        W11789  12.253  36.606   1.370
46530W        W11790  13.375  22.177  10.752
46531W        W11791  40.432  38.351   1.161
46532W        W11792  43.055  41.340  14.359
46533W        W11793  29.660  33.021   3.235
46534W        W11794  30.666  32.659  13.966
46535W        W11795  15.083  43.536  13.934
46536W        W11796   0.814   3.861   1.662
46537W        W11797  41.419  38.202  13.911
46538W        W11798  36.295  36.583   0.561
46539W        W11799  18.507  38.923  13.367
46540W        W11800  38.299  13.241  14.494
46541W        W11801  34.670  27.653   3.587
46542W        W11802  23.779  21.987  13.439
46543W        W11803  21.269  33.382  14.007
46544W        W11804  27.872  23.146  11.656
46545W        W11805  14.099   4.786   2.594
46546W        W11806  24.568  24.953  14.109
46547W        W11807  42.027  17.253  10.783
46548W        W11808  28.229   3.853  11.541
46549W        W11809   4.225  22.493  13.957
46550W        W11810  14.304   5.978  13.109
46551W        W11811  38.057  20.443   4.476
46552W        W11812  24.725  44.548  13.767
46553W        W11813   2.148   9.693  14.030
46554W        W11814   6.060  30.085   3.194
46555W        W11815  35.914  31.651   0.741
46556W        W11816  21.695  28.480  14.736
46557W        W11817  44.015  22.054  14.407
46558W        W11818  19.453  36.863   4.248
46559W        W11819  36.236  41.879  13.796
46560W        W11820   8.405   5.184   3.798
46561W        W11821  11.285  23.015  14.304
46562W        W11822  37.146  13.622   0.353
46563W        W11823  22.840  20.086   3.564
46564W        W11824  27.912  26.563  14.830
46565W        W11825   0.955  28.990  10.711
46566W        W11826  40.925  20.638   1.726
46567W        W11827  32.051  12.800  12.616
46568W        W11828  10.841  43.162  10.244
46569W        W11829  40.504  17.974  11.605
46570W        W11830  25.628  35.314   4.104
46571W        W11831   1.769  41.178   0.266
46572W        W11832   4.038  11.747   0.238
46573W        W11833  17.780  24.285   1.935
46574W        W11834  16.567  30.570   2.762
46575W        W11835  28.675  43.290  12.552
46576W        W11836  35.516  29.368   3.336
46577W        W11837  31.427  30.807  10.882
46578W        W11838  14.751  30.698   1.381
46579W        W11839  19.176  10.649   1.602
46580W        W11840   7.416  36.324   3.277
46581W        W11841  17.110  35.115  10.648
46582W        W11842  31.709   1.886  14.351
46583W        W11843   0.823  28.851  11.724
46584W        W11844  36.793   4.418   1.726
46585W        W11845  43.342  22.731  11.087
46586W        W11846  30.563   7.357  10.465
46587W        W11847  36.212  37.041  12.967
46588W        W11848  19.718   6.183   1.823
46589W        W11849  24.638   1.744  14.778
46590W        W11850   8.892   4.904  12.436
46591W        W11851   8.230  44.972  11.138
46592W        W11852  13.138  39.879  11.597
46593W        W11853   7.949  35.038   0.704
46594W        W11854  12.650  44.284   0.817
46595W        W11855   6.179  19.494   1.775
46596W        W11856  24.571  40.776  11.625
46597W        W11857  13.833  32.332   5.070
46598W        W11858   0.681  23.020  13.589
46599W        W11859  35.098  12.508   0.358
46600W        W11860  30.916  35.644   3.896
46601W        W11861  21.101  18.781   4.655
46602W        W11862  35.441  16.322   0.189
46603W        W11863   8.873  15.664   1.002
46604W        W11864  21.211  11.251   1.310
46605W        W11865  27.659  18.004  10.502
46606W        W11866  14.768   8.764  13.414
46607W        W11867  34.092  16.222  14.748
46608W        W11868  10.816  38.506   4.061
46609W        W11869   4.234  39.737  14.263
46610W        W11870  25.799  19.761   4.725
46611W        W11871  22.429  34.509   4.046
46612W        W11872  43.088   9.729  10.235
46613W        W11873  34.981   8.899   2.904
46614W        W11874  20.293   9.648   4.522
46615W        W11875  28.750   1.478  11.565
46616W        W11876   4.695  28.442  12.488
46617W        W11877   1.444   9.637   2.238
46618W        W11878  19.066  26.212  11.948
46619W        W11879  29.626  10.942   1.672
46620W        W11880  40.383  26.695  12.772
46621W        W11881  23.671  31.138   3.777
46622W        W11882   0.747  11.812   2.710
46623W        W11883  20.547  17.844   2.532
46624W        W11884  10.347  42.025  12.493
46625W        W11885  42.496  22.590  12.411
46626W        W11886  42.339  28.656  12.703
46627W        W11887  38.585  29.579   2.436
46628W        W11888  22.158  31.876   2.351
46629W        W11889  25.017  37.919  14.567
46630W        W11890  42.477  40.732  10.377
46631W        W11891  30.380  34.422  11.069
46632W        W11892  43.644   5.340  13.502
46633W        W11893  23.017   1.287  13.032
46634W        W11894  25.732   5.912  10.130
46635W        W11895   0.724   4.185   3.664
46636W        W11896   5.318  26.670  12.840
46637W        W11897   9.337  20.244   3.242
46638W        W11898  19.242  23.836   9.723
46639W        W11899  17.232  24.961  12.139
46640W        W11900  25.671  36.939  10.744
46641W        W11901  42.714  19.825   3.849
46642W        W11902  36.885  14.082   0.383
46643W        W11903  37.256   5.304   0.277
46644W        W11904  33.518   2.318   3.183
46645W        W11905  44.014   0.963  11.920
46646W        W11906  17.887  21.793   5.165
46647W        W11907  28.014   2.563  10.722
46648W        W11908  30.328  42.280   1.162
46649W        W11909   0.496  24.053   3.171
46650W        W11910  19.133   9.926  12.591
46651W        W11911  25.161  24.079  10.617
46652W        W11912   0.020   3.230  14.497
46653W        W11913  34.802   5.872  10.680
46654W        W11914  12.464  36.113  14.123
46655W        W11915   7.729  44.328  11.688
46656W        W11916  34.698  15.371  14.914
46657W        W11917   1.303  15.897  10.183
46658W        W11918  24.772  18.704   2.599
46659W        W11919  25.490  32.861  12.383
46660W        W11920   6.585  12.694  12.656
46661W        W11921  35.822  40.837  14.536
46662W        W11922  30.123  34.456   1.917
46663W        W11923   0.029  35.335   4.200
46664W        W11924  43.484  17.919  12.385
46665W        W11925  20.602   8.627   3.588
46666W        W11926   3.792   4.612  14.367
46667W        W11927  31.915  38.858  14.801
46668W        W11928  20.777  34.677  14.793
46669W        W11929  18.086  36.231  11.640
46670W        W11930  25.698  20.278  13.722
46671W        W11931  15.155  16.017   4.815
46672W        W11932  33.899  21.487   2.866
46673W        W11933  14.169  14.273   0.867
46674W        W11934  40.397   1.510  14.285
46675W        W11935  25.780   0.521   4.539
46676W        W11936  13.409   2.915  14.344
46677W        W11937  35.583  19.706   0.808
46678W        W11938  17.227  39.306   2.770
46679W        W11939  19.541  35.473   9.872
46680W        W11940  34.089  43.291   4.699
46681W        W11941  13.896  19.950   1.798
46682W        W11942  11.610   7.687  14.936
46683W        W11943  16.334  40.743   1.344
46684W        W11944  44.413  37.600  11.015
46685W        W11945  42.059   5.717   4.509
46686W        W11946   3.923  43.475   2.713
46687W        W11947  21.190  21.152  11.272
46688W        W11948   2.542  10.159   4.993
46689W        W11949  43.352  32.673   3.121
46690W        W11950  31.186  44.403   4.149
46691W        W11951  36.186  23.718  14.764
46692W        W11952  26.149  38.962   4.692
46693W        W11953  18.285  43.373   2.216
46694W        W11954  13.753  43.242   0.410
46695W        W11955  35.095   4.808  13.849
46696W        W11956  41.799  25.472   0.367
46697W        W11957  11.189  33.985  11.422
46698W        W11958  17.294  33.204   4.063
46699W        W11959  31.092   1.654  11.978
46700W        W11960  21.670  34.762  10.723
46701W        W11961  35.127  20.109   3.326
46702W        W11962  16.065   1.996  14.220
46703W        W11963  19.614  23.836  13.124
46704W        W11964  23.668  21.748   4.219
46705W        W11965   1.206  21.951   2.655
46706W        W11966  11.626  35.344  11.553
46707W        W11967  30.900  15.822  10.210
46708W        W11968  27.409   5.996  12.773
46709W        W11969  15.320  10.907  12.912
46710W        W11970   4.081  21.150  11.983
46711W        W11971  19.699  39.728   1.259
46712W        W11972  29.560   9.614  10.637
46713W        W11973  33.969   3.330  10.453
46714W        W11974  14.849  24.487  11.476
46715W        W11975   6.399  15.526  14.228
46716W        W11976  31.886  12.324  10.116
46717W        W11977  14.234   4.636  13.216
46718W        W11978  12.337  44.598   0.488
46719W        W11979   9.676  43.829   1.924
46720W        W11980  24.771  18.813   0.107
46721W        W11981  31.663  16.465   1.954
46722W        W11982  22.704   8.905   1.756
46723W        W11983   5.413   7.913  13.326
46724W        W11984  12.547  25.562   2.632
46725W        W11985  30.146   2.427   4.103
46726W        W11986   1.561  30.541  11.239
46727W        W11987  24.556  11.730  14.033
46728W        W11988  14.155   7.382   0.400
46729W        W11989  14.694  32.570  10.682
46730W        W11990  29.032  43.807  11.965
46731W        W11991  38.315  31.670  14.455
46732W        W11992  37.273   8.845   4.661
46733W        W11993   0.701   7.043  12.429
46734W        W11994  30.903   4.718  13.450
46735W        W11995  31.015   5.797   4.636
46736W        W11996  25.600  32.667   0.753
46737W        W11997  40.091  26.933  12.364
46738W        W11998   7.482  17.266   0.253
46739W        W11999  19.241  44.718  11.349
46740W        W12000   8.968  15.978   1.834
46741W        W12001   5.158   6.918  13.392
46742W        W12002   7.697  16.551  13.270
46743W        W12003   9.278   0.745   3.652
46744W        W12004   6.395   0.030  12.510
46745W        W12005   4.645  11.877  12.132
46746W        W12006  12.672  37.644   3.236
46747W        W12007  15.901   7.557  13.490
46748W        W12008  25.945  32.256   1.112
46749W        W12009  19.741  19.983  14.884
46750W        W12010  44.842  39.534   4.144
46751W        W12011  42.290  27.696  12.461
46752W        W12012  10.852  18.116  13.469
46753W        W12013   6.247  35.383   1.321
46754W        W12014   2.240  37.887   3.671
46755W        W12015  43.661  43.783   2.165
46756W        W12016  23.539  11.458  11.204
46757W        W12017   0.500   7.333   4.638
46758W        W12018  13.683  27.081   2.493
46759W        W12019  19.164  27.092  10.930
46760W        W12020  35.357   9.859   4.005
46761W        W12021  10.874  31.017   1.870
46762W        W12022  24.064  44.482  10.890
46763W        W12023  30.456   2.622   5.085
46764W        W12024  20.257  32.040  14.440
46765W        W12025  11.949  19.806  13.481
46766W        W12026   7.417   0.227  10.753
46767W        W12027   7.443  22.412   4.486
46768W        W12028  35.929  33.592  11.202
46769W        W12029   0.661  21.281   0.839
46770W        W12030  12.470  31.573   2.811
46771W        W12031  30.469   6.182   0.282
46772W        W12032   5.767  26.772  13.095
46773W        W12033  26.545  43.943  10.199
46774W        W12034   4.324  29.454   0.753
46775W        W12035  13.116  39.054   2.399
46776W        W12036  18.033  22.837   3.685
46777W        W12037  12.361   3.816   0.751
46778W        W12038  28.147  19.085   2.069
46779W        W12039  42.092  20.029   4.246
46780W        W12040  29.851  37.913   4.240
46781W        W12041  35.205  32.208   1.314
46782W        W12042  28.131  33.648  12.997
46783W        W12043  11.356  20.827  10.728
46784W        W12044   2.512  34.444  10.014
46785W        W12045  43.064  19.574   2.884
46786W        W12046  17.974   3.534   4.079
46787W        W12047  27.553   1.821  12.932
46788W        W12048   8.166  24.694  10.973
46789W        W12049  36.050  11.823  12.263
46790W        W12050   0.894  14.338   0.420
46791W        W12051   9.216  15.525   0.140
46792W        W12052  32.876  38.105   0.544
46793W        W12053  30.792   4.200   3.153
46794W        W12054  26.105   4.575   1.373
46795W        W12055  43.879   6.851   4.638
46796W        W12056  27.317   0.743  12.437
46797W        W12057  10.915  33.526  11.502
46798W        W12058  34.539  41.726  11.442
46799W        W12059   7.988   6.804  10.260
46800W        W12060  31.620  21.433  12.747
46801W        W12061  14.438   4.812   4.127
46802W        W12062  34.347  27.478  12.107
46803W        W12063  30.711  40.521   1.281
46804W        W12064   5.184  43.735  11.737
46805W        W12065  17.935   3.905   0.723
46806W        W12066  29.971  30.481  12.612
46807W        W12067   7.077  14.496   3.599
46808W        W12068  41.165  17.043  12.103
46809W        W12069   0.765  22.076   2.880
46810W        W12070  17.695  29.558   0.382
46811W        W12071  23.177  11.501  13.490
46812W        W12072  12.375  25.543   1.515
46813W        W12073  12.733  20.153   3.574
46814W        W12074   3.759  24.565  14.485
46815W        W12075   7.446  44.902   4.777
46816W        W12076  44.394  11.939  14.122
46817W        W12077  43.193  27.188   1.151
46818W        W12078  32.497  14.093  13.425
46819W        W12079   2.749  43.382  11.523
46820W        W12080  31.847  34.344  13.538
46821W        W12081  15.705  31.537   3.022
46822W        W12082  24.760   3.665   2.516
46823W        W12083  28.234  22.821   1.285
46824W        W12084   4.016   0.751  12.970
46825W        W12085  36.256  11.597   1.752
46826W        W12086  22.624  34.978   1.628
46827W        W12087  42.300  33.931  12.069
46828W        W12088  26.516   8.480   1.434
46829W        W12089  22.150  38.292   2.760
46830W        W12090   5.833  13.740   2.315
46831W        W12091  33.141  16.693  11.169
46832W        W12092  12.766  23.946   3.677
46833W        W12093  28.751  21.488  11.046
46834W        W12094   6.776  40.018  13.781
46835W        W12095   5.462  17.057   4.195
46836W        W12096  30.364  37.798  14.813
46837W        W12097  43.923  26.107   4.032
46838W        W12098   5.696   6.289  12.042
46839W        W12099  16.849  30.925   0.888
46840W        W12100  16.060  24.021   3.253
46841W        W12101  35.781  13.774  13.070
46842W        W12102   1.558   8.303  13.005
46843W        W12103  34.557  41.987   4.564
46844W        W12104  10.661  12.655   1.688
46845W        W12105  22.230   3.242   3.626
46846W        W12106  23.275   8.375  13.251
46847W        W12107   9.701  34.956  13.253
46848W        W12108  11.478  26.968  14.817
46849W        W12109  14.758   2.487   0.883
46850W        W12110   4.886  28.524   2.440
46851W        W12111  43.522  44.166   3.674
46852W        W12112   4.356  41.121   0.836
46853W        W12113  25.150  18.404  12.080
46854W        W12114  34.653   0.957  12.952
46855W        W12115  23.682  16.545  12.809
46856W        W12116  42.320  39.834  12.112
46857W        W12117   6.874  16.747   3.233
46858W        W12118  11.733  27.259  14.429
46859W        W12119  10.387   1.689   2.342
46860W        W12120  21.127  16.174  14.028
46861W        W12121  19.525   2.965  13.844
46862W        W12122  43.453  36.142  13.029
46863W        W12123   0.501  38.385   4.167
46864W        W12124   4.773   7.379  11.650
46865W        W12125  21.574  10.758   2.911
46866W        W12126  26.459  27.154  12.480
46867W        W12127  20.914  10.905   4.132
46868W        W12128  14.895  11.101   2.405
46869W        W12129   1.586  24.730  12.540
46870W        W12130  22.163  33.896  13.006
46871W        W12131  30.441   3.286   3.141
46872W        W12132  24.294  22.064  13.444
46873W        W12133  16.365  22.945  14.302
46874W        W12134  30.084  39.438   4.513
46875W        W12135  33.195  35.601  11.546
46876W        W12136   6.431  30.586  10.959
46877W        W12137  10.242  37.640  13.716
46878W        W12138  29.778  33.510   5.095
46879W        W12139  26.442  20.025  12.423
46880W        W12140   1.616  29.616  13.087
46881W        W12141  43.797   5.845  14.296
46882W        W12142  40.441   4.779   3.283
46883W        W12143  44.787  43.336   4.374
46884W        W12144  35.674  39.456  11.297
46885W        W12145  12.702  21.273  13.991
46886W        W12146  20.108  32.070  12.838
46887W        W12147  33.048  41.701   4.608
46888W        W12148  17.604  30.037  12.405
46889W        W12149  13.594  35.081  12.375
46890W        W12150  38.108  40.153   2.272
46891W        W12151  19.691  42.879  10.347
46892W        W12152  33.925   7.358   1.435
46893W        W12153  28.413   3.946   2.265
46894W        W12154   8.226   5.361   0.224
46895W        W12155   0.855  38.223   2.875
46896W        W12156  10.822   8.989  11.177
46897W        W12157  26.527  44.789  11.587
46898W        W12158  21.743  16.334   2.251
46899W        W12159  30.177  44.375   4.160
46900W        W12160  36.861  39.581   4.928
46901W        W12161  21.194  22.307   1.226
46902W        W12162   9.403  12.568   3.884
46903W        W12163   2.363  25.649   1.478
46904W        W12164  30.182  20.730   3.311
46905W        W12165  23.067  12.247  13.031
46906W        W12166  26.970  40.330   4.218
46907W        W12167   4.532  39.523   2.123
46908W        W12168   2.790   8.928  12.860
46909W        W12169   8.146  22.021   3.161
46910W        W12170  29.623   7.735   0.023
46911W        W12171  10.985  28.982  13.012
46912W        W12172  22.514  22.245  12.141
46913W        W12173   8.606  18.393  13.907
46914W        W12174   8.183  40.332  14.938
46915W        W12175  39.408  33.787  11.767
46916W        W12176  25.535  24.086  11.926
46917W        W12177  21.292   2.512  12.029
46918W        W12178  30.244  13.558  11.840
46919W        W12179  42.811  11.867  13.441
46920W        W12180   2.699  25.990  12.131
46921W        W12181   1.844   6.855   4.941
46922W        W12182  10.649  31.311  11.513
46923W        W12183  14.286   1.954   3.200
46924W        W12184  12.353  41.608  12.571
46925W        W12185   1.733  13.387  14.357
46926W        W12186   7.889   8.969  11.159
46927W        W12187  32.865   7.380  11.142
46928W        W12188  41.466  11.015   1.053
46929W        W12189  40.057  37.168   2.898
46930W        W12190  40.524  12.658   4.356
46931W        W12191  14.517  20.497  13.865
46932W        W12192  40.888  30.961  13.556
46933W        W12193  40.364  20.834   1.417
46934W        W12194  24.102   8.770   1.581
46935W        W12195  25.103  38.612   4.198
46936W        W12196  36.333   9.321  14.367
46937W        W12197  20.489  34.013  12.110
46938W        W12198  25.492  27.773  11.086
46939W        W12199  36.057  42.584  13.101
46940W        W12200   2.918  26.018   0.761
46941W        W12201  44.257  26.359  10.018
46942W        W12202   7.667  33.166  10.706
46943W        W12203  10.735   7.030  13.968
46944W        W12204  13.223  20.864   3.809
46945W        W12205  12.739  42.063   0.778
46946W        W12206   7.970  41.823   4.480
46947W        W12207  35.966  20.331  11.601
46948W        W12208   1.305   8.261   0.822
46949W        W12209  44.402  25.273   3.196
46950W        W12210   9.397  14.706  13.421
46951W        W12211  31.863  21.318   1.242
46952W        W12212  35.006  27.987   0.747
46953W        W12213  24.241  26.488  14.436
46954W        W12214   2.863  29.227  13.533
46955W        W12215  23.074  17.565   3.280
46956W        W12216   7.825  22.140   4.722
46957W        W12217  37.847   8.738  13.978
46958W        W12218   6.259  29.982   1.819
46959W        W12219  29.318  36.215  13.936
46960W        W12220  21.098  37.388   4.037
46961W        W12221  22.559  29.407   2.841
46962W        W12222   9.131  33.593  14.785
46963W        W12223  24.457  15.314  13.420
46964W        W12224  32.366   7.593   3.308
46965W        W12225  39.489  31.762   4.998
46966W        W12226  11.896  16.317   0.391
46967W        W12227  16.965  36.508   3.338
46968W        W12228  19.584  24.745   3.236
46969W        W12229  42.942   6.408   4.708
46970W        W12230   6.380  10.517  14.253
46971W        W12231  26.545   3.300   3.901
46972W        W12232  25.521  22.629   3.650
46973W        W12233  44.775  36.874  10.738
46974W        W12234  39.451  27.079   3.500
46975W        W12235  44.893  39.116   3.830
46976W        W12236   9.813  20.965   1.595
46977W        W12237   1.658  12.219  10.636
46978W        W12238   5.620  30.564   4.530
46979W        W12239  43.626  12.168   0.935
46980W        W12240  32.624  38.647  13.925
46981W        W12241  36.939  43.656  11.444
46982W        W12242   5.381  32.115   3.312
46983W        W12243  28.681  39.764   2.617
46984W        W12244  14.546   6.879  12.750
46985W        W12245  21.563  38.856   4.324
46986W        W12246  32.530  10.315   0.982
46987W        W12247  25.651  33.451   4.943
46988W        W12248   1.814  25.221   4.580
46989W        W12249  23.128   0.598  13.803
46990W        W12250  17.698  17.692   3.736
46991W        W12251  31.221  21.767  13.815
46992W        W12252  11.725  44.781  10.329
46993W        W12253  11.178  35.466   4.156
46994W        W12254  25.798  15.518   1.346
46995W        W12255   8.629  16.725  13.403
46996W        W12256  29.691  25.224  12.441
46997W        W12257  14.599  10.748  12.100
46998W        W12258  40.399  33.962   2.346
46999W        W12259  31.898  40.436  11.522
47000W        W12260   2.289  27.043   2.346
47001W        W12261  27.157  17.395  10.280
47002W        W12262  25.025  17.523   2.635
47003W        W12263  19.240  40.528  10.742
47004W        W12264  15.293  27.612   0.677
47005W        W12265  36.585  25.978  12.027
47006W        W12266  30.432  12.085  13.471
47007W        W12267   6.942  33.067   0.922
47008W        W12268  40.840  31.879  13.402
47009W        W12269  16.088  39.840  11.455
47010W        W12270  18.014   1.786   2.276
47011W        W12271  21.675  24.470   1.310
47012W        W12272   3.362  13.827   0.691
47013W        W12273  13.681  23.617   0.265
47014W        W12274   8.320   2.190   1.449
47015W        W12275  30.545   0.326  14.436
47016W        W12276  28.075   3.260   1.779
47017W        W12277  15.932  20.898   4.916
47018W        W12278  23.554  23.849   2.864
47019W        W12279  14.541  22.767  11.073
47020W        W12280  43.542  26.222   0.463
47021W        W12281  21.029  22.823   4.320
47022W        W12282  42.422   0.878   2.297
47023W        W12283  41.399  24.104  12.534
47024W        W12284  15.864  34.700  11.709
47025W        W12285  39.159  19.821   4.150
47026W        W12286   8.962  25.884   1.481
47027W        W12287   6.624  11.142   1.316
47028W        W12288  35.480  21.617   2.243
47029W        W12289  34.427  23.288  10.612
47030W        W12290  44.346   3.311   3.026
47031W        W12291   7.827  17.237   2.129
47032W        W12292  37.872  15.805   0.448
47033W        W12293  31.335  24.430  10.234
47034W        W12294  25.063   1.418  13.490
47035W        W12295  44.637  31.146   5.066
47036W        W12296  36.124   2.622  12.927
47037W        W12297  13.725  17.190   4.946
47038W        W12298  18.273  32.434   3.968
47039W        W12299   0.940  37.564   0.765
47040W        W12300  33.576  34.438  10.706
47041W        W12301   0.883  39.071   3.432
47042W        W12302   5.772  12.202   4.672
47043W        W12303  27.591  14.235   3.846
47044W        W12304  35.150  18.613  10.523
47045W        W12305  41.997  40.554   3.594
47046W        W12306   8.463   2.448  13.098
47047W        W12307  39.240  36.706   0.889
47048W        W12308  28.642   2.898  13.104
47049W        W12309  37.534  38.847   2.743
47050W        W12310   7.897  38.444  13.558
47051W        W12311  23.880   8.512   5.056
47052W        W12312  15.083  42.900   0.479
47053W        W12313  13.322  10.800  12.992
47054W        W12314  30.740  16.158  12.035
47055W        W12315  22.280  11.218  11.000
47056W        W12316  18.708   7.846   1.747
47057W        W12317   6.440  38.528  12.974
47058W        W12318   6.998  30.253  14.928
47059W        W12319   3.959  22.277  12.811
47060W        W12320   1.026  29.347  12.875
47061W        W12321  32.524  17.786  13.106
47062W        W12322  34.271  14.543  12.149
47063W        W12323  21.195  40.410  11.512
47064W        W12324  32.666   7.062  12.153
47065W        W12325  40.156  32.523   1.380
47066W        W12326  19.698  18.177  10.827
47067W        W12327  13.750  19.291   4.767
47068W        W12328   4.251  10.366   3.216
47069W        W12329   6.981  32.083   3.349
47070W        W12330  12.191  37.543   0.032
47071W        W12331  40.300  30.174  14.491
47072W        W12332  25.362  42.004  14.608
47073W        W12333  40.546  31.504   3.328
47074W        W12334  10.917  18.963   1.836
47075W        W12335   2.722  24.733  13.572
47076W        W12336  19.170  21.859   1.350
47077W        W12337  11.467  22.093  11.525
47078W        W12338  35.339   2.801   0.432
47079W        W12339  12.176  37.593   3.367
47080W        W12340  17.575  19.114  10.301
47081W        W12341  25.480  20.920  13.102
47082W        W12342  28.161   3.853   0.051
47083W        W12343  39.016  16.261  14.450
47084W        W12344  21.671  38.147   3.093
47085W        W12345  39.509   1.242   4.116
47086W        W12346  36.332  35.026  13.445
47087W        W12347  15.865  35.465  12.094
47088W        W12348  13.870  37.158  14.034
47089W        W12349  23.727  11.391   0.264
47090W        W12350  26.072  26.616  11.176
47091W        W12351   1.331  33.576   4.852
47092W        W12352  10.011   6.169  12.536
47093W        W12353  11.270  13.818   2.728
47094W        W12354  39.578  13.353   3.191
47095W        W12355  22.556  41.974   0.204
47096W        W12356  30.097   7.422  11.870
47097W        W12357  20.442   4.644  11.071
47098W        W12358  32.706  28.792  14.978
47099W        W12359   2.288  17.821   0.019
47100W        W12360  13.738  31.857   4.199
47101W        W12361  29.526  14.757  11.232
47102W        W12362  42.910  41.815  11.355
47103W        W12363  11.298  36.559  13.053
47104W        W12364  38.597  18.425   2.656
47105W        W12365   0.539  32.024  13.520
47106W        W12366  20.215  35.061   1.864
47107W        W12367  21.969  26.702  10.795
47108W        W12368  28.024   9.980  10.747
47109W        W12369  21.229  10.498   4.213
47110W        W12370  30.867  11.174   1.275
47111W        W12371  13.697  28.994  13.854
47112W        W12372  20.578  26.334  11.157
47113W        W12373  42.907   2.493  12.159
47114W        W12374   1.260  20.139  14.317
47115W        W12375  38.836  32.183  13.712
47116W        W12376  21.257  37.855  13.452
47117W        W12377  44.064  16.972   1.203
47118W        W12378  42.293  15.546  11.421
47119W        W12379  33.925  42.805   4.491
47120W        W12380   5.998  26.074  13.976
47121W        W12381  39.770  36.767  11.073
47122W        W12382   0.333  10.262   0.839
47123W        W12383  41.926   8.241   3.222
47124W        W12384  43.181  17.669  12.032
47125W        W12385  38.835   0.472   5.342
47126W        W12386   5.734  13.654  13.881
47127W        W12387  39.974  16.790   0.478
47128W        W12388  29.677  30.311   2.312
47129W        W12389  15.029  11.686  12.693
47130W        W12390   7.248  23.607   0.413
47131W        W12391  26.041  44.146   1.387
47132W        W12392  29.973  34.699  14.959
47133W        W12393  24.934   6.430  14.277
47134W        W12394  10.176  40.025  12.113
47135W        W12395   1.849  35.804   1.026
47136W        W12396  24.708  33.447  10.729
47137W        W12397  26.162  21.990   2.882
47138W        W12398  21.290  10.150  11.621
47139W        W12399  37.529  37.349   3.359
47140W        W12400   3.019  22.248   2.363
47141W        W12401   1.015  41.760   1.331
47142W        W12402  32.138   7.809  10.545
47143W        W12403   2.650  28.540  14.039
47144W        W12404   2.511  28.166  11.046
47145W        W12405  17.026   5.751  11.098
47146W        W12406  22.722  35.558  12.840
47147W        W12407   2.393  11.149   4.628
47148W        W12408  37.971  15.160   1.254
47149W        W12409   6.927   1.374  11.721
47150W        W12410  41.293  12.365   1.206
47151W        W12411  23.413  25.184   1.250
47152W        W12412  43.309  30.061   1.819
47153W        W12413   1.253  34.945  14.043
47154W        W12414  41.911  27.719   4.064
47155W        W12415  25.020  34.243   0.805
47156W        W12416   9.466   7.718  12.810
47157W        W12417  44.635   6.510  10.120
47158W        W12418  36.102  21.576   4.587
47159W        W12419  34.822  25.653  11.632
47160W        W12420  40.510  13.384  14.321
47161W        W12421  24.628  20.143  11.904
47162W        W12422  18.671  38.556   0.300
47163W        W12423  29.464  44.888   1.931
47164W        W12424  26.524  39.925  10.299
47165W        W12425  20.243  31.520   2.656
47166W        W12426  43.027  34.703  14.788
47167W        W12427   3.286  38.655   2.949
47168W        W12428   7.846  19.451  11.106
47169W        W12429  34.974  28.768   1.248
47170W        W12430  43.935  34.511  11.970
47171W        W12431  19.579  16.142  10.737
47172W        W12432   9.881   2.609   1.279
47173W        W12433  39.537  15.424   0.423
47174W        W12434  29.451   5.295  10.704
47175W        W12435   5.042  39.510  12.225
47176W        W12436  35.187  13.620   4.497
47177W        W12437  40.482  13.168   1.649
47178W        W12438  33.288  39.842   4.102
47179W        W12439  31.433  10.416   3.324
47180W        W12440  10.146  43.218   4.627
47181W        W12441  33.940  36.111   1.437
47182W        W12442  19.565   4.405   4.155
47183W        W12443  37.828  10.813   1.450
47184W        W12444  18.995  13.674   2.477
47185W        W12445   7.344  40.490   4.392
47186W        W12446   1.482   3.626  13.004
47187W        W12447  23.151   7.058  12.021
47188W        W12448  32.893  15.510  13.092
47189W        W12449  31.136  21.461   4.178
47190W        W12450  44.198   1.742  13.817
47191W        W12451  32.673  25.541   1.175
47192W        W12452   5.734   8.684   4.510
47193W        W12453  29.183  14.374   1.787
47194W        W12454   8.863  30.688  10.700
47195W        W12455  32.831  20.721  14.921
47196W        W12456  34.533  44.302  10.992
47197W        W12457  11.296   2.953  12.019
47198W        W12458  33.852  44.733  12.081
47199W        W12459  20.524   6.878  11.572
47200W        W12460  39.393  34.696   4.146
47201W        W12461  17.200  20.528  13.447
47202W        W12462  40.225   0.439   3.350
47203W        W12463  22.978   4.190  13.014
47204W        W12464  21.635  32.075   4.513
47205W        W12465  32.687  43.491   2.748
47206W        W12466  41.942   4.335  10.726
47207W        W12467  17.145  32.557  11.935
47208W        W12468  15.202  44.466   1.419
47209W        W12469  27.568   0.291  12.466
47210W        W12470  44.235  19.654   0.975
47211W        W12471  10.181  41.572   0.425
47212W        W12472   8.123  16.245   4.530
47213W        W12473  20.561  26.929   2.259
47214W        W12474   4.241   5.289   3.569
47215W        W12475  27.494  15.927  11.868
47216W        W12476  23.138  11.875   3.701
47217W        W12477  10.484  18.811  12.642
47218W        W12478  28.959  29.381  13.461
47219W        W12479  19.148   7.257  11.527
47220W        W12480  28.629  29.351  14.906
47221W        W12481  12.615  21.199   0.460
47222W        W12482  13.688  34.657   0.521
47223W        W12483  19.558  32.085   1.688
47224W        W12484  16.195  44.965   3.380
47225W        W12485  17.317  32.675   1.743
47226W        W12486  28.675  30.501   3.598
47227W        W12487  27.035  13.674   2.311
47228W        W12488  37.912  40.229  11.488
47229W        W12489   2.229  20.197   0.989
47230W        W12490  33.446  12.281   4.120
47231W        W12491   1.035  17.631   0.290
47232W        W12492   0.044  33.925  13.901
47233W        W12493   2.258  43.778   4.680
47234W        W12494  12.276  36.862   2.733
47235W        W12495   4.244  20.671   1.700
47236W        W12496  26.514  41.938   0.403
47237W        W12497  26.740  35.025   2.560
47238W        W12498  39.877   6.386   0.509
47239W        W12499  15.593  32.639  11.173
47240W        W12500  30.219  40.759   3.717
47241W        W12501   2.993  25.642   0.273
47242W        W12502  37.234  31.881  14.642
47243W        W12503  29.131   9.967   2.383
47244W        W12504   3.469  13.820   4.187
47245W        W12505  11.160  39.458  11.491
47246W        W12506  21.715  35.016  10.263
47247W        W12507  43.463  14.670  13.724
47248W        W12508   9.699  42.567  11.157
47249W        W12509  28.982  43.956  14.551
47250W        W12510  34.806  24.668   0.368
47251W        W12511  30.202  44.352  10.789
47252W        W12512  38.894  41.233  13.962
47253W        W12513  24.809  27.000   0.274
47254W        W12514   5.179  24.921  12.912
47255W        W12515   0.230  14.214   2.710
47256W        W12516  37.974  18.623  12.990
47257W        W12517  41.850  15.987   2.764
47258W        W12518   2.772  13.730  11.987
47259W        W12519  19.753  15.782   0.356
47260W        W12520  41.523  38.246  10.247
47261W        W12521   8.891  39.327   4.468
47262W        W12522  25.447  23.683  10.491
47263W        W12523  21.197   5.835   5.614
47264W        W12524  44.846  29.671   4.947
47265W        W12525  10.655  17.245   0.193
47266W        W12526  32.704  21.879  14.334
47267W        W12527  43.292  10.767  12.539
47268W        W12528  26.054  41.835   3.459
47269W        W12529  32.487  10.157  10.658
47270W        W12530  11.888  34.976  14.796
47271W        W12531  24.527  38.560   1.529
47272W        W12532  44.706   7.920  13.892
47273W        W12533  35.074   7.171  11.250
47274W        W12534   6.734  27.186   1.848
47275W        W12535  30.055  30.514   4.597
47276W        W12536   9.875  41.906  12.308
47277W        W12537  38.586  17.891   2.633
47278W        W12538  44.858  16.286   4.083
47279W        W12539  16.685  35.363   4.614
47280W        W12540  41.736   3.849  10.804
47281W        W12541  33.068  18.375   3.243
47282W        W12542  23.611  36.100   1.778
47283W        W12543  34.001   8.308   0.547
47284W        W12544  22.551  22.923  11.460
47285W        W12545  16.994  17.072  13.422
47286W        W12546  16.034  39.532   3.743
47287W        W12547  30.828  39.291   2.618
47288W        W12548  20.185  22.294  14.909
47289W        W12549  31.428  28.896  14.403
47290W        W12550  10.219  44.654  11.796
47291W        W12551  12.316  40.835   0.314
47292W        W12552  33.943  36.338  10.596
47293W        W12553  34.170   6.424   2.393
47294W        W12554  28.545  28.928   2.187
47295W        W12555   0.475  37.539   2.666
47296W        W12556  17.150  39.935   1.104
47297W        W12557  25.722   2.245  14.278
47298W        W12558  37.324  42.941  11.922
47299W        W12559  17.165  13.013   4.579
47300W        W12560  40.325  19.731   5.189
47301W        W12561  13.661  30.439  14.261
47302W        W12562  16.950  13.283  14.775
47303W        W12563  30.843  39.611   1.741
47304W        W12564  42.057  37.378  10.742
47305W        W12565  25.066  23.457  11.326
47306W        W12566  19.044  13.727   1.953
47307W        W12567   1.321  29.265   3.176
47308W        W12568  16.280  24.216   2.775
47309W        W12569  19.874  29.916  13.470
47310W        W12570  37.226  12.434  11.970
47311W        W12571  43.881   2.934  10.626
47312W        W12572  19.043  39.344   0.198
47313W        W12573   2.762  14.759  12.494
47314W        W12574   5.225  17.863   3.872
47315W        W12575  14.966   8.823   4.192
47316W        W12576   0.961  43.358  12.313
47317W        W12577  39.202  34.598  10.474
47318W        W12578   5.811  19.047  12.374
47319W        W12579  17.527  23.772   3.191
47320W        W12580  15.122  29.449  13.166
47321W        W12581  26.190  40.516  12.090
47322W        W12582  41.770   7.369   0.200
47323W        W12583  28.268  36.390   2.721
47324W        W12584  18.982  23.874   3.252
47325W        W12585  22.080  23.135  14.461
47326W        W12586  27.402  32.365   0.756
47327W        W12587   1.846  39.072  14.425
47328W        W12588   9.250  19.003   0.522
47329W        W12589   1.419   8.799  12.903
47330W        W12590  20.503  13.700  12.490
47331W        W12591  28.033  22.052  10.577
47332W        W12592  23.509   1.660  11.830
47333W        W12593  16.116  15.011   1.035
47334W        W12594  22.559  42.966   1.668
47335W        W12595  32.762  40.443   4.495
47336W        W12596  33.671  37.445   4.181
47337W        W12597  43.405  13.860   2.831
47338W        W12598  38.395  27.581   1.411
47339W        W12599  35.038   4.372   0.427
47340W        W12600  20.355   5.247   0.769
47341W        W12601  43.832  13.018  13.083
47342W        W12602   6.341  26.463  10.085
47343W        W12603  43.324  31.152  12.222
47344W        W12604   2.824   6.514  10.572
47345W        W12605  21.839  16.892  12.116
47346W        W12606  37.435  37.327  12.111
47347W        W12607  21.795  19.350  11.062
47348W        W12608  28.642  23.577  13.828
47349W        W12609  31.973   6.152  12.094
47350W        W12610  34.895  38.441  13.052
47351W        W12611   2.304   8.366   1.637
47352W        W12612  22.788  32.844  14.913
47353W        W12613  32.490   2.026   0.698
47354W        W12614  34.863  23.005  12.632
47355W        W12615  21.709  11.909  10.620
47356W        W12616  19.576  18.233  14.385
47357W        W12617  17.629  29.957  13.515
47358W        W12618  38.837  36.615   3.161
47359W        W12619   8.910  24.979   1.429
47360W        W12620  28.547  31.901  14.402
47361W        W12621  21.722   0.409   1.904
47362W        W12622  40.913  14.989   2.860
47363W        W12623  26.981  28.780  12.949
47364W        W12624  17.561  40.904   1.884
47365W        W12625  32.122   6.168   4.459
47366W        W12626  16.788  22.193  11.204
47367W        W12627   9.491  21.544  11.504
47368W        W12628   6.706  32.516  12.881
47369W        W12629  42.496  22.178   4.156
47370W        W12630  38.400   3.883   0.715
47371W        W12631  39.778   1.353   2.358
47372W        W12632  28.427  31.689   3.214
47373W        W12633  29.022  22.217   0.927
47374W        W12634  22.702   2.419   0.016
47375W        W12635   3.070   1.730  10.171
47376W        W12636  14.805  31.025   3.968
47377W        W12637  37.495  31.756  11.102
47378W        W12638  37.496  19.606   2.667
47379W        W12639   2.417  15.144   0.318
47380W        W12640   5.202  21.997  13.124
47381W        W12641  44.379  39.017   2.092
47382W        W12642  16.576  38.957  10.781
47383W        W12643  43.644  30.058  11.107
47384W        W12644  34.978   3.343   2.124
47385W        W12645  27.579  35.084   2.645
47386W        W12646  44.495  42.446   1.237
47387W        W12647  18.103   8.665   0.031
47388W        W12648  22.519   9.248   3.700
47389W        W12649  23.978  35.044  11.655
47390W        W12650  44.903  37.786   3.733
47391W        W12651  35.420   7.701   0.834
47392W        W12652  25.476   7.318   2.928
47393W        W12653  15.805  16.290   2.272
47394W        W12654  30.978  29.161   1.777
47395W        W12655   9.669   1.175   0.388
47396W        W12656  35.140  42.074  12.957
47397W        W12657  16.297  26.004   1.655
47398W        W12658   6.344  20.002  13.904
47399W        W12659  37.652  14.226  14.132
47400W        W12660   0.249  28.025   2.790
47401W        W12661   0.498  13.356   3.104
47402W        W12662  39.341   7.713  10.987
47403W        W12663  18.266  16.505  10.286
47404W        W12664  32.435   2.041  11.587
47405W        W12665  33.377   7.310   4.051
47406W        W12666  21.575  36.186   3.134
47407W        W12667  21.551  32.486  13.926
47408W        W12668  26.920  13.971   5.054
47409W        W12669  43.433  43.320   0.868
47410W        W12670  14.050  28.324   0.717
47411W        W12671  39.206   8.651   0.789
47412W        W12672  10.959  17.599   3.397
47413W        W12673  23.277  10.872   2.243
47414W        W12674  28.040  13.798   4.921
47415W        W12675  29.995  22.657   3.353
47416W        W12676   2.183  20.919   3.228
47417W        W12677  41.018  32.210   0.667
47418W        W12678  14.887   9.857   4.483
47419W        W12679  44.513   7.208   4.877
47420W        W12680  17.728  18.109   0.530
47421W        W12681  31.161  25.800   1.230
47422W        W12682  28.930  40.008   1.738
47423W        W12683  26.835   0.253   3.552
47424W        W12684   5.276   4.716  14.354
47425W        W12685  42.524  10.851   0.986
47426W        W12686  30.920  10.071   0.224
47427W        W12687  27.285  25.425  14.493
47428W        W12688  34.517  32.478  14.980
47429W        W12689   7.132  26.684  12.420
47430W        W12690  14.978  33.555   1.311
47431W        W12691  42.934  39.240   2.354
47432W        W12692  39.575  38.027   1.194
47433W        W12693  12.850   2.900  11.596
47434W        W12694  23.644  37.153  14.877
47435W        W12695  38.258  10.906   3.633
47436W        W12696  24.935  44.327  12.623
47437W        W12697  36.930  24.228   1.757
47438W        W12698  40.356   2.008  14.326
47439W        W12699  15.669  25.650   3.215
47440W        W12700  30.394   2.222  14.215
47441W        W12701  10.556  21.214   1.359
47442W        W12702  27.651   2.475  11.994
47443W        W12703  31.908  23.399   0.489
47444W        W12704  13.781  32.739  14.586
47445W        W12705  40.355  41.472  10.772
47446W        W12706  22.470  22.191  12.963
47447W        W12707  25.100   2.381   2.956
47448W        W12708  43.005  40.461  14.321
47449W        W12709   2.522   5.951   4.155
47450W        W12710  39.307  30.778   3.671
47451W        W12711  32.417  17.145   4.035
47452W        W12712   6.305  27.432  10.334
47453W        W12713  19.597  14.677  13.404
47454W        W12714   9.357  30.835   4.983
47455W        W12715   3.398  15.549  11.199
47456W        W12716  21.655  23.281   3.674
47457W        W12717  30.204   9.573   0.901
47458W        W12718  31.356  15.157   2.944
47459W        W12719   6.661  43.704  12.897
47460W        W12720  11.722   5.180   0.468
47461W        W12721  36.707  12.772  10.535
47462W        W12722   2.319   8.888   0.300
47463W        W12723  34.645  11.801   2.222
47464W        W12724  25.947  34.650   1.932
47465W        W12725  20.237  26.492   0.553
47466W        W12726   4.560  13.714  14.326
47467W        W12727  11.363  35.413   1.681
47468W        W12728  35.401  38.032   3.087
47469W        W12729  22.178  13.904  14.980
47470W        W12730  29.292  12.097   3.263
47471W        W12731  36.812  25.025   3.766
47472W        W12732  11.593  36.991  12.969
47473W        W12733  25.829  27.447   3.869
47474W        W12734  38.685  34.458   2.152
47475W        W12735  12.916  13.114   3.250
47476W        W12736  20.614  34.057  10.686
47477W        W12737  43.430   2.664  13.277
47478W        W12738   5.713  18.635   2.698
47479W        W12739  14.011   8.772  12.741
47480W        W12740  12.702  37.904   4.109
47481W        W12741   5.534  10.393   2.658
47482W        W12742  20.515   9.129   1.470
47483W        W12743   3.917   8.629   3.952
47484W        W12744  35.260  14.895  14.022
47485W        W12745   8.450  29.989   3.715
47486W        W12746  28.040  40.014  12.000
47487W        W12747  33.374  37.387   1.667
47488W        W12748  36.959  23.079  13.032
47489W        W12749  18.078  18.403  12.802
47490W        W12750   6.922  20.584   1.294
47491W        W12751   8.032  29.028  13.792
47492W        W12752  16.650  30.227   0.547
47493W        W12753  27.190  33.802  12.815
47494W        W12754  14.877  43.028   3.252
47495W        W12755  29.790   5.484   0.781
47496W        W12756  16.066  16.871  11.132
47497W        W12757  31.429  28.414   3.762
47498W        W12758  26.943   8.688   4.859
47499W        W12759   5.445  21.453   4.687
47500W        W12760  35.683  38.589   1.899
47501W        W12761   8.436  22.650   4.526
47502W        W12762   2.349  29.172  13.579
47503W        W12763  16.852  17.735   2.752
47504W        W12764  17.875  23.195  13.377
47505W        W12765  42.822   5.277  10.993
47506W        W12766  18.642  17.737  13.518
47507W        W12767  22.369  22.520  11.748
47508W        W12768  24.071   4.208  12.098
47509W        W12769  14.527  24.372   1.544
47510W        W12770  30.419  33.753  12.856
47511W        W12771  16.774  31.566   4.871
47512W        W12772  18.377  12.657   3.235
47513W        W12773   8.787  44.805   2.264
47514W        W12774  14.300  36.688   3.859
47515W        W12775  40.108  41.311  11.202
47516W        W12776   9.364  29.347   2.278
47517W        W12777  25.913   6.115  14.397
47518W        W12778  18.603  27.589   1.172
47519W        W12779  34.620  23.232   1.827
47520W        W12780  25.236  17.680   1.590
47521W        W12781  39.792  35.887  13.881
47522W        W12782  18.890   1.354  14.953
47523W        W12783  32.445  36.698  14.876
47524W        W12784  10.345  33.164   9.906
47525W        W12785  19.837  44.991   2.737
47526W        W12786  34.397  42.802   4.248
47527W        W12787  33.984   0.302   0.283
47528W        W12788  16.886  44.680  13.427
47529W        W12789  35.554   4.766   1.023
47530W        W12790  37.800  35.621  14.988
47531W        W12791   4.517   4.245   3.334
47532W        W12792  38.789   9.782  10.589
47533W        W12793  26.541  44.356  10.508
47534W        W12794  42.627   5.350  11.532
47535W        W12795  11.821  24.637  12.440
47536W        W12796   8.468  40.937  10.630
47537W        W12797  23.185  35.704  10.793
47538W        W12798  17.680   3.819   3.731
47539W        W12799  15.994   0.804  11.249
47540W        W12800  40.450  10.995   4.911
47541W        W12801   0.464  35.829   1.822
47542W        W12802  40.751  37.540   1.407
47543W        W12803  20.998  19.056  13.804
47544W        W12804  17.090  25.075   1.393
47545W        W12805  15.657  27.192   2.379
47546W        W12806  26.403  26.632  13.019
47547W        W12807  12.361  30.559  13.449
47548W        W12808  33.198  22.533   1.127
47549W        W12809  38.331  39.420   1.338
47550W        W12810  12.438  28.600   2.380
47551W        W12811  33.968   1.323  13.804
47552W        W12812  22.135  41.743   4.791
47553W        W12813  24.290  40.802  12.097
47554W        W12814  41.845  11.099   2.584
47555W        W12815  14.399  43.770  12.694
47556W        W12816  28.924  42.189  14.817
47557W        W12817  22.483  17.516  14.511
47558W        W12818   3.047  23.953   0.654
47559W        W12819   3.697  27.969  14.414
47560W        W12820  21.989  15.149   2.662
47561W        W12821  15.324  12.094  12.140
47562W        W12822   0.801   7.758   4.640
47563W        W12823  44.961  35.664   1.749
47564W        W12824  11.162  41.763  13.955
47565W        W12825  14.150  10.863   3.604
47566W        W12826  13.832   1.789   2.996
47567W        W12827  33.434  18.977   1.311
47568W        W12828  13.700  19.225  13.540
47569W        W12829   2.718  43.711   2.143
47570W        W12830  32.901  22.612   3.262
47571W        W12831   2.950  30.026  12.565
47572W        W12832  19.088  18.469   3.645
47573W        W12833   7.862  21.158  10.493
47574W        W12834   4.685   4.206  14.027
47575W        W12835  13.298  43.284  10.638
47576W        W12836   0.495  34.487   1.909
47577W        W12837  15.777  22.755   2.293
47578W        W12838   2.547  15.257   4.783
47579W        W12839  19.304  16.425  14.802
47580W        W12840  33.027   8.422   5.029
47581W        W12841  21.275  20.595  10.573
47582W        W12842  42.408  31.457  10.656
47583W        W12843  27.845  15.512   5.114
47584W        W12844   6.421  39.998  12.142
47585W        W12845   9.594  28.047   2.246
47586W        W12846  23.449  40.995  12.358
47587W        W12847   5.671  40.613   1.171
47588W        W12848   1.491  19.529  13.289
47589W        W12849  15.764  29.519   3.372
47590W        W12850   6.669  39.406  11.532
47591W        W12851  34.153  30.570   0.894
47592W        W12852  38.900  23.432  14.689
47593W        W12853  40.874  33.328   3.659
47594W        W12854   9.220  43.328   4.195
47595W        W12855  36.138   5.873  11.545
47596W        W12856  23.060  26.005   0.884
47597W        W12857  19.213  37.796  10.601
47598W        W12858  13.765  12.716   2.223
47599W        W12859  20.083  12.797   2.818
47600W        W12860  28.676   6.368   2.227
47601W        W12861  36.343  33.018   0.545
47602W        W12862  14.109  40.072   2.802
47603W        W12863  24.521  21.216  11.973
47604W        W12864   0.716  25.137  14.948
47605W        W12865  25.492  21.164  11.590
47606W        W12866  35.110  37.500   2.189
47607W        W12867  37.442   5.927  10.176
47608W        W12868  26.143  35.400   4.671
47609W        W12869   0.959  35.578   1.768
47610W        W12870  31.837  43.335   2.375
47611W        W12871  26.180  35.783   3.513
47612W        W12872   5.475   8.802  13.430
47613W        W12873   5.315  20.151   1.196
47614W        W12874  29.649  22.257   1.320
47615W        W12875   6.134  12.474   2.384
47616W        W12876  29.077  15.533  10.719
47617W        W12877  35.356   1.323  11.121
47618W        W12878  17.039   2.844  12.151
47619W        W12879  14.636  33.637  14.481
47620W        W12880  33.782  37.755  14.004
47621W        W12881  36.733  10.785   3.693
47622W        W12882   3.455  24.003   3.885
47623W        W12883  25.113  39.391  13.841
47624W        W12884  24.398  23.724   1.952
47625W        W12885  15.697  40.392   4.671
47626W        W12886  13.136  21.232   0.413
47627W        W12887  30.175   8.956  12.668
47628W        W12888  32.807  21.154   2.250
47629W        W12889  37.551  12.586  11.574
47630W        W12890   8.439  43.891  13.476
47631W        W12891  30.124  11.699  12.557
47632W        W12892  24.642  39.418  11.660
47633W        W12893   2.904   0.482   2.399
47634W        W12894  16.759  16.859   5.028
47635W        W12895  25.772  13.305  12.426
47636W        W12896  35.125  12.695   1.406
47637W        W12897  44.383  42.334  14.842
47638W        W12898  38.401   4.133  11.457
47639W        W12899  36.170  33.361   4.538
47640W        W12900  42.748  11.326  13.417
47641W        W12901  22.656  25.085   4.407
47642W        W12902  23.499   2.721   2.110
47643W        W12903  18.289  34.525  13.988
47644W        W12904  39.302  18.109  11.612
47645W        W12905  35.650  37.440   2.306
47646W        W12906   9.397  19.471  12.115
47647W        W12907  23.605  11.063   3.599
47648W        W12908  21.674   4.017  12.000
47649W        W12909  18.713  29.371   2.843
47650W        W12910  10.708  13.312   3.265
47651W        W12911   1.860  14.941  13.523
47652W        W12912  29.206  37.978   2.269
47653W        W12913   4.784  14.478  13.293
47654W        W12914  21.380  42.392  11.939
47655W        W12915  31.940  40.849   4.141
47656W        W12916  30.942  37.519   1.306
47657W        W12917  22.067  10.582   2.954
47658W        W12918  44.009  40.392  12.948
47659W        W12919  37.611  18.359   1.858
47660W        W12920   2.423  16.614  12.901
47661W        W12921   9.278  10.494  13.658
47662W        W12922  25.054   2.007   0.010
47663W        W12923  44.766  20.654  14.325
47664W        W12924  37.348   5.029  14.388
47665W        W12925   3.555   9.900  12.551
47666W        W12926  17.021  36.532  11.120
47667W        W12927  13.469  44.466  13.041
47668W        W12928  29.004  28.054   4.829
47669W        W12929  13.146  32.407   2.299
47670W        W12930  35.099  25.835   1.335
47671W        W12931  21.361  43.415  12.082
47672W        W12932  43.778  30.931  14.867
47673W        W12933  31.023  15.059  13.647
47674W        W12934  13.224   3.364  10.741
47675W        W12935  14.585  21.014  13.109
47676W        W12936  34.059  15.673   3.698
47677W        W12937  20.405  22.084  11.904
47678W        W12938  31.117  44.805  12.440
47679W        W12939   3.142  30.154   4.788
47680W        W12940  21.984  36.060   3.431
47681W        W12941  18.625  17.850  12.430
47682W        W12942  16.343  37.014   4.644
47683W        W12943  14.172  12.469  14.257
47684W        W12944  28.011   1.890   3.114
47685W        W12945  12.094  13.760   4.637
47686W        W12946  42.944  35.423  14.014
47687W        W12947   2.167  44.864   2.650
47688W        W12948  16.549  27.964   4.685
47689W        W12949   1.848  43.621   0.072
47690W        W12950  30.091   0.307  10.421
47691W        W12951  44.001  18.592   0.514
47692W        W12952  30.491   2.650  11.160
47693W        W12953   0.420  40.845   0.898
47694W        W12954  40.115   1.957   4.187
47695W        W12955  18.668  19.887  11.910
47696W        W12956   7.409   2.715   3.312
47697W        W12957   9.358  25.946   4.545
47698W        W12958  16.933  41.624   3.788
47699W        W12959  27.272  25.157   3.453
47700W        W12960  14.150   1.427   1.931
47701W        W12961  25.135   6.369   1.778
47702W        W12962  41.136  27.540   4.418
47703W        W12963  29.190  43.891   4.268
47704W        W12964  13.865   3.536  14.091
47705W        W12965  42.356  27.741   1.330
47706W        W12966  30.025  32.439  13.003
47707W        W12967  23.586  30.491   1.241
47708W        W12968  36.169  19.871   2.208
47709W        W12969  37.117  27.380   2.680
47710W        W12970  43.796  41.439   4.921
47711W        W12971  35.610   0.588  13.160
47712W        W12972  37.393   7.266  13.140
47713W        W12973  11.053  40.505  11.985
47714W        W12974   1.740  32.058   4.582
47715W        W12975  37.670  41.803  12.915
47716W        W12976  30.663  42.817  13.554
47717W        W12977   2.340  29.522  13.983
47718W        W12978   9.134  32.825   4.532
47719W        W12979  10.654  42.024   2.281
47720W        W12980  30.570  19.542  12.490
47721W        W12981   6.810  12.804  14.171
47722W        W12982  18.233  12.592  12.952
47723W        W12983  31.187  13.518   3.797
47724W        W12984  14.870  41.547  10.256
47725W        W12985  21.018  35.881  12.612
47726W        W12986  11.600  12.308   1.773
47727W        W12987   1.241  25.111  14.842
47728W        W12988  42.713  22.441   5.050
47729W        W12989  43.431  29.135   4.631
47730W        W12990  18.014   1.886  11.899
47731W        W12991  25.700  41.890  13.981
47732W        W12992   0.025  30.579   1.668
47733W        W12993  41.389  33.580   4.303
47734W        W12994  19.127  31.349  12.065
47735W        W12995  39.949   0.856   2.212
47736W        W12996  20.993   1.070   4.603
47737W        W12997   8.960  34.518  13.986
47738W        W12998  36.879  31.394   1.823
47739W        W12999  44.914  27.159  12.510
47740W        W13000   5.765  16.056  13.919
47741W        W13001  35.403  34.928  13.162
47742W        W13002  10.642  33.040  12.121
47743W        W13003   0.857  27.902  14.049
47744W        W13004   5.516  43.765  13.482
47745W        W13005   2.545  12.747  13.549
47746W        W13006  26.711  11.233   3.270
47747W        W13007  11.612  35.473   0.839
47748W        W13008   9.168  15.292   4.509
47749W        W13009   1.738  20.210   1.210
47750W        W13010   3.975  27.502  11.202
47751W        W13011  42.999   3.795  14.736
47752W        W13012  34.935  10.887  11.984
47753W        W13013   5.045  22.789   2.251
47754W        W13014   3.672  17.247  12.064
47755W        W13015  43.807  16.691   3.408
47756W        W13016  44.271  32.490  14.426
47757W        W13017  24.186  24.023  10.613
47758W        W13018   7.485  32.984   3.630
47759W        W13019   7.272   3.772   2.738
47760W        W13020  14.354   1.345   3.936
47761W        W13021  33.030   9.231   4.595
47762W        W13022   1.991   9.223   0.535
47763W        W13023  26.474  32.993  12.128
47764W        W13024   3.896  17.373  14.315
47765W        W13025   3.824  31.566  14.863
47766W        W13026  41.337  33.585  11.246
47767W        W13027  35.959  12.175  14.878
47768W        W13028  28.309  12.828   2.365
47769W        W13029  10.304  21.954   4.096
47770W        W13030  17.019  25.029   3.258
47771W        W13031   4.369  24.224  14.025
47772W        W13032   5.435  25.392  12.930
47773W        W13033  16.983  26.441   5.133
47774W        W13034  25.951  39.778  13.657
47775W        W13035  32.454  28.613  14.549
47776W        W13036   8.844  30.955   5.067
47777W        W13037  19.332  15.078   3.866
47778W        W13038   0.450  25.434  12.096
47779W        W13039  43.488   6.165  13.461
47780W        W13040  40.333   7.762  12.798
47781W        W13041  35.965  19.277   3.062
47782W        W13042  17.528  34.577  14.722
47783W        W13043  15.909  43.378   1.824
47784W        W13044   1.000  31.806  13.475
47785W        W13045  31.160   8.620  13.072
47786W        W13046  25.465  44.964  10.966
47787W        W13047   5.943   6.748  14.914
47788W        W13048  25.999  14.834   4.431
47789W        W13049   6.933  42.264  11.576
47790W        W13050  39.587  26.506  13.414
47791W        W13051  33.879  14.175  12.073
47792W        W13052  15.832   8.148   4.373
47793W        W13053  35.032   0.366   1.235
47794W        W13054  17.541  25.173   2.387
47795W        W13055  17.660  16.801   0.210
47796W        W13056  40.999  19.556  14.955
47797W        W13057  35.459  33.419   3.234
47798W        W13058   0.968  30.579   2.195
47799W        W13059  37.049  17.273  10.447
47800W        W13060  13.226   8.741  10.511
47801W        W13061   3.341  31.229  12.317
47802W        W13062  42.807  14.232   2.176
47803W        W13063  33.560  14.293  11.632
47804W        W13064   4.733  39.579  10.935
47805W        W13065   6.767  44.126   1.406
47806W        W13066  31.535  17.110  12.060
47807W        W13067  43.806  39.545  13.064
47808W        W13068  22.100  24.684  12.478
47809W        W13069   2.308  36.474   0.051
47810W        W13070  13.681  25.042  10.689
47811W        W13071  33.387  26.402  14.296
47812W        W13072  23.674   5.273  12.170
47813W        W13073   1.031  24.918  13.561
47814W        W13074   9.878  27.766   0.219
47815W        W13075  31.899  44.064   3.791
47816W        W13076  33.927  16.633   0.319
47817W        W13077  18.509  27.616  14.855
47818W        W13078  38.014  20.850  11.465
47819W        W13079  37.023  10.056  14.756
47820W        W13080  37.481  14.195  11.531
47821W        W13081   4.673  34.400  13.469
47822W        W13082   1.724  42.944  13.166
47823W        W13083  30.443   4.312   2.775
47824W        W13084  13.656  17.255   3.226
47825W        W13085  38.456  15.845  12.825
47826W        W13086  31.426   0.310   2.939
47827W        W13087  19.644  27.610  13.466
47828W        W13088  10.285  32.595  13.857
47829W        W13089  18.608  14.972   4.074
47830W        W13090  17.697  10.659   0.335
47831W        W13091   9.809  11.328  14.233
47832W        W13092  32.643   3.076   3.737
47833W        W13093   6.861  12.862   1.325
47834W        W13094  22.510  14.648   4.101
47835W        W13095  40.821   9.224  13.111
47836W        W13096   6.911  15.293   3.133
47837W        W13097  31.580  37.653  12.146
47838W        W13098  29.745   5.569  11.407
47839W        W13099  17.583  37.151   4.535
47840W        W13100  37.111   6.303   4.597
47841W        W13101   1.410  11.379   0.167
47842W        W13102  37.497  30.935  14.845
47843W        W13103  10.028  34.711   2.091
47844W        W13104  34.627  26.587   1.362
47845W        W13105  43.285  25.979  10.780
47846W        W13106  44.673  35.546  13.428
47847W        W13107  44.624  11.425  12.570
47848W        W13108   2.811  35.438  11.515
47849W        W13109  10.376  29.441   1.697
47850W        W13110  30.439  36.754  10.444
47851W        W13111  19.089  43.846  13.304
47852W        W13112   8.215   1.272   4.587
47853W        W13113  37.222  33.634   5.068
47854W        W13114  34.388  17.145   4.665
47855W        W13115  25.835  27.700  12.994
47856W        W13116   7.300  37.048  13.486
47857W        W13117  43.218  20.691   0.310
47858W        W13118  11.521  44.014   3.052
47859W        W13119   4.944  41.855   4.144
47860W        W13120  33.872  44.398   0.935
47861W        W13121  25.991  20.117   4.338
47862W        W13122  37.505   3.747   4.463
47863W        W13123   2.286   7.810  13.952
47864W        W13124  36.988  44.214   0.497
47865W        W13125  13.690  34.887  14.949
47866W        W13126  33.817   5.993   0.315
47867W        W13127  43.793  42.788  11.497
47868W        W13128   5.977  18.692   2.231
47869W        W13129  22.066  42.274   1.386
47870W        W13130  43.406   2.400  14.138
47871W        W13131  16.511  11.108  13.894
47872W        W13132   9.952  33.474  11.061
47873W        W13133  14.615  37.332   0.329
47874W        W13134  12.624   9.827   4.993
47875W        W13135  17.296  42.105   3.129
47876W        W13136  40.912  17.215   0.812
47877W        W13137  20.250   4.111   2.312
47878W        W13138   0.039  24.963  11.519
47879W        W13139   7.701  10.340  12.558
47880W        W13140  13.829  11.887   1.172
47881W        W13141   0.287  30.399  11.536
47882W        W13142  20.553   3.918  13.977
47883W        W13143  44.448  26.925  11.611
47884W        W13144  37.883  13.028   4.538
47885W        W13145   3.247  35.794  14.870
47886W        W13146   0.035  28.914  12.916
47887W        W13147  32.338  41.998  14.832
47888W        W13148  38.805  12.595   3.695
47889W        W13149  40.278  22.836   1.615
47890W        W13150   5.932  37.486   0.590
47891W        W13151  34.409  15.056   4.385
47892W        W13152  28.948   0.961   2.412
47893W        W13153  16.009  42.542   0.472
47894W        W13154  29.562  29.173  12.650
47895W        W13155  42.516   3.936   0.643
47896W        W13156  44.803   6.318   1.858
47897W        W13157  20.020  39.541   1.695
47898W        W13158  41.518  35.219  11.390
47899W        W13159   6.651  25.145   0.005
47900W        W13160  42.467  23.499  11.483
47901W        W13161  20.647   9.471  12.450
47902W        W13162  32.171  15.701  12.571
47903W        W13163  12.173  32.400   3.639
47904W        W13164  13.091  36.877  11.914
47905W        W13165  11.693  32.465  12.082
47906W        W13166  27.004  42.262   4.304
47907W        W13167   6.807  34.864   2.697
47908W        W13168   4.880  28.076   3.319
47909W        W13169  28.352  16.257  11.604
47910W        W13170   9.264   8.141   0.598
47911W        W13171  41.839  29.351  11.588
47912W        W13172  27.028  39.085   0.295
47913W        W13173   9.205  43.395  11.056
47914W        W13174  30.044  28.884   2.307
47915W        W13175   0.266  31.717   1.406
47916W        W13176   4.067  43.684  10.953
47917W        W13177  25.983  39.006  11.653
47918W        W13178  10.863  35.828   0.994
47919W        W13179  10.685  10.560  12.611
47920W        W13180  17.064  37.919   1.619
47921W        W13181   2.799  43.118  10.779
47922W        W13182  35.026  40.714   4.867
47923W        W13183   0.948  24.993   3.177
47924W        W13184  44.452   1.991  13.415
47925W        W13185  26.020  28.869  10.598
47926W        W13186  28.540  13.771   1.370
47927W        W13187   6.745  24.231  12.541
47928W        W13188  40.525  22.984  14.321
47929W        W13189  14.360  30.241  12.586
47930W        W13190   6.164  15.334  14.978
47931W        W13191  38.766   4.706  13.555
47932W        W13192  22.673  35.745  13.972
47933W        W13193  43.090  29.124  12.929
47934W        W13194  42.487  40.409  14.339
47935W        W13195  28.587   9.266   3.409
47936W        W13196  39.788  27.521   1.278
47937W        W13197  20.701  44.548  11.007
47938W        W13198  14.376  29.577   1.564
47939W        W13199  24.199  43.349   1.580
47940W        W13200  35.888  41.778  13.378
47941W        W13201  16.296  27.624   3.550
47942W        W13202   1.755  18.826  13.693
47943W        W13203   4.665   9.317  13.463
47944W        W13204  18.066  27.052  13.370
47945W        W13205  40.902  29.104  13.976
47946W        W13206  27.504  25.481  12.533
47947W        W13207  23.887  31.481   0.252
47948W        W13208  27.095  33.410  10.255
47949W        W13209  19.114   2.840   1.713
47950W        W13210  44.369   6.009   1.327
47951W        W13211  31.071  36.825   2.216
47952W        W13212  15.605  18.010   2.750
47953W        W13213  19.273  19.169  13.419
47954W        W13214  33.493  16.609   1.791
47955W        W13215  13.961   3.233   3.989
47956W        W13216  13.414  24.532   4.184
47957W        W13217  18.770  27.306  12.483
47958W        W13218  20.241   4.154  13.591
47959W        W13219  20.951   9.078  14.923
47960W        W13220  34.405  14.280  13.000
47961W        W13221  25.729   9.997  10.764
47962W        W13222  31.550  25.862   2.683
47963W        W13223  24.691   8.059  11.068
47964W        W13224  26.957  10.190   1.908
47965W        W13225  17.735  36.664   4.568
47966W        W13226  39.499  32.602  14.815
47967W        W13227   6.437  10.672   4.235
47968W        W13228   9.311  31.893   3.072
47969W        W13229  26.477   0.057  13.366
47970W        W13230  30.606  20.214   1.406
47971W        W13231  24.089   9.942  14.729
47972W        W13232  31.919  38.585  11.776
47973W        W13233  44.272  37.344   3.343
47974W        W13234   8.133   5.464  14.707
47975W        W13235  12.396  15.138   2.731
47976W        W13236  43.493  12.733   1.912
47977W        W13237  32.385  27.779  11.922
47978W        W13238  22.176  23.903  11.534
47979W        W13239  17.057  17.613  11.562
47980W        W13240  41.279   7.293  14.012
47981W        W13241   2.963  34.446  10.677
47982W        W13242  27.614  36.416   3.020
47983W        W13243  14.700  36.337   4.563
47984W        W13244  41.436  44.233   4.562
47985W        W13245   5.832  20.802   1.803
47986W        W13246  42.849  15.229  14.244
47987W        W13247  33.378  33.854  14.360
47988W        W13248  36.415  33.639  13.463
47989W        W13249   1.716  27.517  11.004
47990W        W13250  34.511  32.919   4.134
47991W        W13251  41.734  35.474  12.683
47992W        W13252  22.793  42.018  12.576
47993W        W13253  21.080  40.703   3.661
47994W        W13254   0.784  39.831   2.563
47995W        W13255  37.324  42.864  13.356
47996W        W13256  18.672  14.258  13.650
47997W        W13257  23.252  39.098  14.311
47998W        W13258  25.604  35.305   3.199
47999W        W13259  12.316   4.432   2.272
48000W        W13260   1.377  34.305   1.332
48001W        W13261   7.234   9.840  10.739
48002W        W13262  30.634  15.823  12.395
48003W        W13263   7.746  15.807  11.567
48004W        W13264  17.685  33.393   0.023
48005W        W13265  35.581  42.641   3.188
48006W        W13266   2.315   8.401   4.696
48007W        W13267  13.978  31.143   0.327
48008W        W13268  38.350  29.499   1.939
48009W        W13269  40.378  18.835   3.238
48010W        W13270   4.744   5.744   0.223
48011W        W13271  21.276   4.197   0.817
48012W        W13272   1.962   4.761  14.856
48013W        W13273  38.390  36.085   3.712
48014W        W13274   8.481  18.232   3.063
48015W        W13275  28.141  24.210  14.266
48016W        W13276  19.676  39.832  11.209
48017W        W13277  26.966   4.888  14.927
48018W        W13278  11.530  17.565   1.882
48019W        W13279  13.192  22.974  14.028
48020W        W13280  17.047  15.573  12.421
48021W        W13281   1.990   9.725   0.364
48022W        W13282  17.450  41.050   2.388
48023W        W13283  24.199  23.072  11.540
48024W        W13284   8.823  42.581  14.507
48025W        W13285  37.490  35.066   3.352
48026W        W13286  41.081  23.497  14.962
48027W        W13287  42.907  26.887   3.972
48028W        W13288  38.656  11.176  11.629
48029W        W13289  19.239   3.970   2.441
48030W        W13290  23.036  43.407  13.136
48031W        W13291  43.557  25.587  14.364
48032W        W13292   4.914  44.117  14.308
48033W        W13293  18.137  30.519  14.798
48034W        W13294   6.449  40.801   4.164
48035W        W13295  40.512  27.115  13.062
48036W        W13296  28.925   3.318  12.538
48037W        W13297  43.044   7.889  14.316
48038W        W13298  19.013  29.011   1.295
48039W        W13299  31.076   1.453   4.358
48040W        W13300   2.551  21.685   0.177
48041W        W13301   5.623   8.903  11.644
48042W        W13302  21.538  29.675  11.552
48043W        W13303  30.606   6.151   4.746
48044W        W13304   2.872   3.548   0.911
48045W        W13305  33.982  27.497   2.910
48046W        W13306  25.955  42.126  11.346
48047W        W13307   0.330  16.100   2.695
48048W        W13308  44.906  14.367   3.603
48049W        W13309  22.617  30.858   1.341
48050W        W13310  14.728  32.369   2.773
48051W        W13311  16.310  11.147  12.478
48052W        W13312  40.955  38.444  13.908
48053W        W13313   4.036  34.375   2.353
48054W        W13314  18.591  37.918  11.110
48055W        W13315   8.739  31.485  14.369
48056W        W13316   6.220  40.369   1.872
48057W        W13317  29.462  11.281  11.973
48058W        W13318   1.037  31.393   4.607
48059W        W13319  20.620  30.016   4.616
48060W        W13320  10.079  42.232  13.467
48061W        W13321  37.631  40.579  13.928
48062W        W13322  31.421  42.079   0.659
48063W        W13323  39.208  24.694   1.715
48064W        W13324   6.742   5.969  11.133
48065W        W13325  18.119  15.091  13.043
48066W        W13326  11.328  44.807   0.605
48067W        W13327   7.597  14.258   4.648
48068W        W13328   9.820  29.439  11.078
48069W        W13329  32.207  16.777   2.701
48070W        W13330  28.263  35.974  13.768
48071W        W13331  13.334  17.247  12.428
48072W        W13332   1.742  42.603   0.373
48073W        W13333   5.022  35.299  11.544
48074W        W13334  38.295  40.564   1.649
48075W        W13335   1.279  30.100   9.565
48076W        W13336  31.087  12.605  11.157
48077W        W13337  31.942  25.220  14.483
48078W        W13338  31.779  42.784   1.178
48079W        W13339  42.396  26.643  12.537
48080W        W13340  29.412  35.640  14.871
48081W        W13341   1.574  14.622   1.383
48082W        W13342  42.330  34.655  12.461
48083W        W13343  31.105  38.028   0.333
48084W        W13344   1.359  30.914   2.286
48085W        W13345   2.276  15.262  12.797
48086W        W13346  41.482  24.923   2.177
48087W        W13347  21.548   3.342  14.430
48088W        W13348   2.405  17.653   3.960
48089W        W13349  40.017   6.415   4.169
48090W        W13350  27.476  14.479   2.792
48091W        W13351  38.886  17.767   4.244
48092W        W13352   3.324  32.983   4.589
48093W        W13353  44.156  41.213   2.304
48094W        W13354  36.027  12.724   0.323
48095W        W13355   5.128  26.760  14.793
48096W        W13356   7.270  28.066  14.864
48097W        W13357  17.107  14.533   3.648
48098W        W13358   4.911  32.403  13.082
48099W        W13359   6.822  22.610   3.819
48100W        W13360  33.955   3.352   2.142
48101W        W13361  24.209  42.726  10.902
48102W        W13362  23.736  41.069  14.999
48103W        W13363   3.390   4.144  12.341
48104W        W13364  30.440  19.777  14.415
48105W        W13365   5.358  34.876  10.786
48106W        W13366   7.954   6.370  12.558
48107W        W13367  18.816  44.333   2.211
48108W        W13368  19.761  11.560  11.073
48109W        W13369  38.502  13.274   0.485
48110W        W13370  38.164  33.773   2.424
48111W        W13371  35.858  40.077   1.754
48112W        W13372   4.440  33.851   1.141
48113W        W13373   0.655  32.400  14.308
48114W        W13374  18.035   3.455  14.450
48115W        W13375  10.689  25.482   1.169
48116W        W13376  15.243  11.110   0.520
48117W        W13377   4.846  35.503   3.579
48118W        W13378  32.964  35.536  10.551
48119W        W13379  28.477  18.241  11.583
48120W        W13380  22.915  39.523  14.391
48121W        W13381  38.546   1.763  10.346
48122W        W13382  22.014  37.029   3.166
48123W        W13383  13.698  24.901   1.976
48124W        W13384   6.828  39.838  11.364
48125W        W13385  10.144  20.222  12.976
48126W        W13386   3.342  13.170   2.393
48127W        W13387  35.120  38.749  14.143
48128W        W13388  11.158  37.043   0.736
48129W        W13389   5.456  37.534  10.665
48130W        W13390  22.324   1.385  12.419
48131W        W13391  14.949  26.612  10.246
48132W        W13392  36.591  44.508  11.148
48133W        W13393   2.938  18.595  12.991
48134W        W13394  14.101  11.550   2.752
48135W        W13395   1.922  33.009   1.688
48136W        W13396  36.461  15.920   0.350
48137W        W13397  33.378  27.074  13.001
48138W        W13398  37.788  43.878   0.892
48139W        W13399  28.151  16.662   4.382
48140W        W13400   9.533   8.733   3.419
48141W        W13401  37.874  23.505   0.932
48142W        W13402  15.047  38.424  14.886
48143W        W13403  28.536  41.929  10.705
48144W        W13404  44.949  16.288  14.415
48145W        W13405  26.145  34.356  13.820
48146W        W13406  29.093  32.858  13.744
48147W        W13407  36.455  15.284  11.468
48148W        W13408   4.261   9.719  13.139
48149W        W13409  10.833  44.194  12.486
48150W        W13410   4.534   3.710   3.444
48151W        W13411  34.161  21.268   4.112
48152W        W13412  18.116  11.870  12.533
48153W        W13413  38.305   3.455  10.944
48154W        W13414  31.912   4.401   5.373
48155W        W13415  21.525  16.465  10.766
48156W        W13416  20.103   7.990  10.143
48157W        W13417  20.858  17.155  14.006
48158W        W13418  20.580  29.022   4.580
48159W        W13419   4.846  22.282  10.901
48160W        W13420  41.890  36.011  14.877
48161W        W13421  17.778   3.607  14.893
48162W        W13422  43.716  40.081  10.630
48163W        W13423   6.320  14.081   2.734
48164W        W13424  27.495  11.603  12.798
48165W        W13425  33.381  23.276   0.832
48166W        W13426  15.210  13.954   3.291
48167W        W13427  12.171  20.138  14.796
48168W        W13428  42.878  23.462  14.055
48169W        W13429  40.278  34.830  12.984
48170W        W13430  25.154   8.334   1.186
48171W        W13431  21.293  37.866   4.196
48172W        W13432  20.681  16.615  14.256
48173W        W13433  32.020  28.968   2.853
48174W        W13434   6.111  22.786  14.999
48175W        W13435  22.157  25.542   0.387
48176W        W13436  18.846  28.705  12.759
48177W        W13437   6.468  26.360  10.556
48178W        W13438   1.886  44.480  13.466
48179W        W13439   7.159  14.992   1.717
48180W        W13440  41.084  33.176   1.019
48181W        W13441  31.391   1.445  13.895
48182W        W13442   6.464  23.596  11.713
48183W        W13443  23.177  33.150  14.087
48184W        W13444  35.365  13.597   1.411
48185W        W13445  38.580   6.203   3.014
48186W        W13446   1.393  14.229   0.224
48187W        W13447  13.208  38.026  13.416
48188W        W13448  17.297   7.418  14.786
48189W        W13449  10.180  14.165  11.097
48190W        W13450   8.121  25.025  14.764
48191W        W13451  26.460  23.875   3.732
48192W        W13452   0.864  17.419  13.601
48193W        W13453   9.068  21.504  14.393
48194W        W13454  37.172  14.007   2.334
48195W        W13455  40.531  12.549   0.215
48196W        W13456  32.274  17.024   1.330
48197W        W13457  16.093  10.195  11.122
48198W        W13458  38.586  39.338  12.895
48199W        W13459  34.873  32.434  12.864
48200W        W13460  36.496  19.882  11.543
48201W        W13461  30.682  41.779   2.322
48202W        W13462  33.437  30.931   1.507
48203W        W13463  15.665  21.573   0.009
48204W        W13464   3.854  26.280   4.922
48205W        W13465   7.303  11.171   3.257
48206W        W13466   9.475  36.330  11.413
48207W        W13467  30.436  20.632   4.107
48208W        W13468   9.099  41.451  14.772
48209W        W13469  31.552  22.317   3.197
48210W        W13470  35.385  17.282   3.755
48211W        W13471   7.159   6.523  11.468
48212W        W13472  15.224  28.613  14.560
48213W        W13473  27.426  18.286  12.024
48214W        W13474  18.481  17.040  11.957
48215W        W13475   3.778  31.393   1.483
48216W        W13476  27.929   7.909  10.572
48217W        W13477  34.136  30.125  12.921
48218W        W13478   0.936  12.927  12.406
48219W        W13479  33.525   8.701   5.082
48220W        W13480  26.003   2.315  11.045
48221W        W13481  22.207  41.980   0.990
48222W        W13482  20.751  31.812   3.716
48223W        W13483  26.113  41.787  12.601
48224W        W13484   3.268  41.235   0.763
48225W        W13485  12.580   3.471   4.927
48226W        W13486  21.956  43.846  14.926
48227W        W13487  29.102   5.147  11.603
48228W        W13488   7.207  16.071   1.403
48229W        W13489  23.259   2.486   1.171
48230W        W13490  24.025   2.749  12.915
48231W        W13491   9.129  14.678  13.865
48232W        W13492  37.047  12.854  13.823
48233W        W13493  26.695  41.861   2.292
48234W        W13494  36.800  27.022  11.562
48235W        W13495   5.645  37.228  12.077
48236W        W13496  22.334  17.703  12.176
48237W        W13497  26.798  28.861  11.637
48238W        W13498  38.962  17.423  11.948
48239W        W13499  19.679  22.627   1.525
48240W        W13500  41.287  20.524   1.303
48241W        W13501   3.793  17.622  11.511
48242W        W13502  20.880  34.374   2.747
48243W        W13503  12.683  22.721  14.079
48244W        W13504  11.289  14.377   1.446
48245W        W13505  31.616  30.641  11.708
48246W        W13506  35.089   6.380  14.746
48247W        W13507  20.420  31.042   2.694
48248W        W13508   1.270  37.001  11.493
48249W        W13509  34.266  34.131   1.743
48250W        W13510  21.707  26.248   0.735
48251W        W13511   6.102   4.542  13.129
48252W        W13512   7.148  24.516   1.222
48253W        W13513  16.446  30.321  11.837
48254W        W13514   8.732  35.820  11.982
48255W        W13515   7.647  38.855  13.314
48256W        W13516   3.881   3.936   0.061
48257W        W13517  23.145  18.252  14.808
48258W        W13518  26.318   2.707  10.922
48259W        W13519  44.406   2.443   3.792
48260W        W13520  33.821  32.551  12.104
48261W        W13521  26.575   4.512   1.209
48262W        W13522  41.849  10.191   1.643
48263W        W13523   8.528  16.001  11.379
48264W        W13524   8.430   4.260  13.881
48265W        W13525  29.484  43.898   2.612
48266W        W13526  43.974  26.946   4.006
48267W        W13527  15.738   1.745   2.420
48268W        W13528  22.801   3.671   2.621
48269W        W13529  21.730  23.064  13.966
48270W        W13530  25.217  27.706   1.895
48271W        W13531  27.136  26.037  13.108
48272W        W13532  17.086  23.686   1.864
48273W        W13533  28.525   4.845  14.858
48274W        W13534   5.553  30.916  12.640
48275W        W13535   6.418  24.049   2.390
48276W        W13536  33.102  18.028   1.720
48277W        W13537  23.539  11.503   2.838
48278W        W13538  24.763  28.532  11.777
48279W        W13539  12.852  28.891   1.684
48280W        W13540   3.898  11.829  11.129
48281W        W13541  24.058   5.281  13.058
48282W        W13542  30.438  24.373   3.671
48283W        W13543  27.593  10.144  10.523
48284W        W13544   0.930  32.208  10.540
48285W        W13545  42.102  25.122  11.646
48286W        W13546   6.762  21.026  11.793
48287W        W13547   8.791   2.204   3.779
48288W        W13548  24.575  14.036  10.001
48289W        W13549  11.111  30.555  14.269
48290W        W13550  28.909  15.842   0.348
48291W        W13551  37.641  28.225   0.883
48292W        W13552  21.153  26.917   0.838
48293W        W13553  18.584  35.126   3.661
48294W        W13554  39.800  23.624  12.538
48295W        W13555  31.045  37.576  14.378
48296W        W13556  40.697   4.998   1.808
48297W        W13557   3.367  32.205  12.552
48298W        W13558  17.103  17.054   3.767
48299W        W13559  31.896  13.305   3.344
48300W        W13560  31.508  38.556  13.259
48301W        W13561  10.306  11.223   0.772
48302W        W13562   6.880  17.722  13.892
48303W        W13563  37.077  16.191  14.541
48304W        W13564  13.676  38.788  13.431
48305W        W13565  18.761   3.182  12.414
48306W        W13566  18.353   6.657   1.169
48307W        W13567   5.753  12.795  12.513
48308W        W13568   8.608  25.561  12.086
48309W        W13569  42.183  28.227  12.364
48310W        W13570  13.799  13.427  13.393
48311W        W13571  26.591  36.945   1.433
48312W        W13572   3.484  34.670   0.263
48313W        W13573  39.870  40.844  11.266
48314W        W13574  14.255   3.049  10.668
48315W        W13575  32.619   8.498  14.317
48316W        W13576  39.511  31.054  11.607
48317W        W13577  41.583  30.743  11.574
48318W        W13578  28.877  36.161   3.717
48319W        W13579   0.433  31.388  12.108
48320W        W13580  39.481  19.048   2.560
48321W        W13581  34.441   1.817   2.058
48322W        W13582  39.326   5.744   1.655
48323W        W13583  41.681  16.784   2.308
48324W        W13584  23.373  37.233   1.826
48325W        W13585  40.614  14.777   3.688
48326W        W13586   2.785  44.422  13.479
48327W        W13587   8.640  22.712  12.324
48328W        W13588  27.121  37.856  13.840
48329W        W13589   4.862  41.952  14.264
48330W        W13590  23.078  34.103   0.661
48331W        W13591  42.926  43.219   4.576
48332W        W13592  39.447  25.105   0.845
48333W        W13593  12.132   0.188  10.996
48334W        W13594  32.226  16.562  12.925
48335W        W13595  35.497  32.580   0.471
48336W        W13596   1.778   6.877   3.408
48337W        W13597  20.631  19.649  13.820
48338W        W13598   4.442   7.155   2.218
48339W        W13599  41.270   0.841   4.204
48340W        W13600  26.121   1.189   2.381
48341W        W13601   6.555  40.483  13.278
48342W        W13602  17.156  16.132   1.903
48343W        W13603  13.648  35.082  10.683
48344W        W13604   6.158  26.115   9.757
48345W        W13605   5.788   4.398   1.910
48346W        W13606  22.110  29.829  13.964
48347W        W13607  36.563  19.898  14.075
48348W        W13608  23.475  17.719   0.400
48349W        W13609  14.747  16.828   4.614
48350W        W13610  15.122   3.184   2.706
48351W        W13611  38.883   5.367   3.961
48352W        W13612  23.383  28.471  13.821
48353W        W13613  32.858   9.313  13.020
48354W        W13614  14.269  18.089   3.196
48355W        W13615  24.825  40.324   0.276
48356W        W13616  35.278   8.130  12.637
48357W        W13617  25.965  40.764   0.097
48358W        W13618   7.739   0.035  12.535
48359W        W13619  29.978  34.925   3.157
48360W        W13620  33.941  35.837  12.509
48361W        W13621  12.327   1.544  11.956
48362W        W13622  41.521  13.984   0.532
48363W        W13623  39.970  21.617   4.571
48364W        W13624  27.233  19.775   1.275
48365W        W13625  25.269  18.673  14.999
48366W        W13626  20.181   1.894   3.649
48367W        W13627   6.229  33.433  13.771
48368W        W13628  23.020   8.455   3.809
48369W        W13629  32.614  16.337  13.788
48370W        W13630  23.427  31.380  14.012
48371W        W13631  28.100  39.825  14.760
48372W        W13632   3.411  30.617  13.402
48373W        W13633  21.555   8.160  11.913
48374W        W13634  18.299  21.257  13.404
48375W        W13635  36.595   9.518  11.599
48376W        W13636  30.782  34.624  10.797
48377W        W13637  38.693  42.279   0.849
48378W        W13638  28.049  33.506  11.469
48379W        W13639  19.423  30.203  14.811
48380W        W13640  16.048   6.471   1.362
48381W        W13641  44.399  44.778   3.245
48382W        W13642  28.819  14.841  11.672
48383W        W13643  14.708  13.906   3.148
48384W        W13644   3.739  32.479  14.359
48385W        W13645  31.358   8.375  12.073
48386W        W13646  28.435  25.000  11.162
48387W        W13647   7.000  28.919   2.482
48388W        W13648   4.864   6.800   1.989
48389W        W13649  12.625  24.402   3.881
48390W        W13650  31.173  14.296   4.225
48391W        W13651  43.327   0.105  14.826
48392W        W13652  36.184  38.179   2.701
48393W        W13653   9.430  10.892  13.944
48394W        W13654  31.562  14.625   4.242
48395W        W13655  13.108   2.136  10.624
48396W        W13656  28.234  28.206  11.494
48397W        W13657  29.587  13.902   2.737
48398W        W13658  31.759  41.344  13.977
48399W        W13659  21.554  27.523  12.770
48400W        W13660  29.877  40.969   3.433
48401W        W13661   1.508  16.686  14.819
48402W        W13662  13.106   4.333   3.547
48403W        W13663  16.693  41.834   1.410
48404W        W13664   9.190  31.601  11.760
48405W        W13665   2.990  11.767  11.319
48406W        W13666  35.388  13.340   3.137
48407W        W13667   4.284  16.730   0.520
48408W        W13668  39.111   0.921  10.204
48409W        W13669  22.074   2.229   2.609
48410W        W13670  10.325  40.710  13.611
48411W        W13671  41.816  31.981  11.061
48412W        W13672  40.495  37.375   0.420
48413W        W13673  12.317   5.970  11.089
48414W        W13674  42.358  42.066   0.802
48415W        W13675  17.653  32.083   0.945
48416W        W13676   8.703  30.004  12.274
48417W        W13677  33.867  16.298   4.851
48418W        W13678  15.735   1.242  13.859
48419W        W13679  32.913  43.963   0.210
48420W        W13680  39.398   4.513  11.428
48421W        W13681   8.356  37.865   4.101
48422W        W13682  35.079  15.641  11.982
48423W        W13683  43.668  28.148  12.568
48424W        W13684  38.834   2.779  12.219
48425W        W13685  27.944  11.675   2.427
48426W        W13686  33.358  20.899   1.169
48427W        W13687  10.301  12.185   2.231
48428W        W13688   8.388  43.380  10.686
48429W        W13689  40.007  38.813  11.120
48430W        W13690   6.485  18.175  14.893
48431W        W13691   3.474  11.934  11.482
48432W        W13692  20.929   6.719  11.902
48433W        W13693  24.045  19.155  12.972
48434W        W13694  43.759  19.093   3.242
48435W        W13695  44.505   1.980  10.709
48436W        W13696   5.744  29.076  12.026
48437W        W13697  44.563  40.375   0.260
48438W        W13698  14.949  39.304   4.632
48439W        W13699  27.962  41.848  14.765
48440W        W13700  18.640  10.653  14.340
48441W        W13701   8.612  27.230   2.892
48442W        W13702  21.126  19.566  13.980
48443W        W13703  36.667  33.590  14.868
48444W        W13704  42.806   0.507   2.344
48445W        W13705  15.320  34.084   4.205
48446W        W13706  43.865  34.065  14.305
48447W        W13707  19.878   6.914  11.168
48448W        W13708  33.105  40.749  12.834
48449W        W13709  43.427  34.325  14.289
48450W        W13710  33.331  21.507   4.381
48451W        W13711  13.974  39.934  12.971
48452W        W13712   6.801  43.513  14.905
48453W        W13713  30.398  29.871  12.035
48454W        W13714  33.857  22.170  12.930
48455W        W13715   8.288  38.512   3.175
48456W        W13716  42.287  34.272   1.803
48457W        W13717  12.353  35.177  12.948
48458W        W13718   0.215  33.917  13.024
48459W        W13719  41.974  33.328   0.770
48460W        W13720  24.678  13.636   4.700
48461W        W13721   4.759  17.337   3.279
48462W        W13722  34.525  21.103   2.861
48463W        W13723  39.381  37.595   2.114
48464W        W13724  30.657  19.327  11.706
48465W        W13725  36.253   5.559   0.389
48466W        W13726  29.862  26.741   3.581
48467W        W13727   0.356  35.522  13.064
48468W        W13728  20.524  23.455  12.030
48469W        W13729   5.329  13.085   0.961
48470W        W13730  36.606  43.323  14.356
48471W        W13731  40.229  40.426  13.550
48472W        W13732  13.740  21.472   1.896
48473W        W13733  16.645  27.043  11.367
48474W        W13734  20.153   9.637   2.796
48475W        W13735  24.022  23.980   1.722
48476W        W13736  33.538  21.664   4.840
48477W        W13737  12.246  38.063  14.983
48478W        W13738  19.151  24.622   4.691
48479W        W13739  35.183  34.440   0.875
48480W        W13740  12.987  37.357   2.960
48481W        W13741  36.625  44.481   2.192
48482W        W13742  39.952  15.473   1.508
48483W        W13743  37.077  35.100   4.214
48484W        W13744  18.194   8.951  11.726
48485W        W13745   4.229  35.713   1.182
48486W        W13746  34.398  36.784  13.264
48487W        W13747  36.284  15.369  10.041
48488W        W13748  15.768  43.952  11.692
48489W        W13749  16.802  36.887   2.969
48490W        W13750   0.326  23.317   0.684
48491W        W13751  41.538  16.284   0.918
48492W        W13752  28.931  18.314   2.137
48493W        W13753  16.239  18.605   4.633
48494W        W13754  41.209  38.448   3.653
48495W        W13755  34.071  11.300  11.026
48496W        W13756  17.622  31.318   1.446
48497W        W13757  37.523  26.540   4.142
48498W        W13758  34.826  32.306   2.250
48499W        W13759  39.596  42.905  11.174
48500W        W13760   6.433   0.204  10.545
48501W        W13761  36.146  24.650  14.973
48502W        W13762  16.889  32.976  11.133
48503W        W13763  12.929  39.507   4.670
48504W        W13764  33.532  14.372  13.549
48505W        W13765  14.532  10.747   4.458
48506W        W13766   7.831  32.276   1.398
48507W        W13767  41.025  32.426   4.147
48508W        W13768  21.980  11.121   2.748
48509W        W13769  15.721  38.285   4.171
48510W        W13770  17.189  20.242   1.931
48511W        W13771  33.959  24.624  12.567
48512W        W13772  12.569   5.653  13.775
48513W        W13773  24.929  26.128   4.277
48514W        W13774  24.455  34.753  12.659
48515W        W13775  28.140   4.765  14.487
48516W        W13776  25.255  16.130   2.768
48517W        W13777  40.506  15.930   4.738
48518W        W13778   3.467  41.518   2.656
48519W        W13779  43.743  39.142   1.226
48520W        W13780  14.623  16.264   3.098
48521W        W13781  43.494  18.272  11.123
48522W        W13782  19.690   6.476   1.393
48523W        W13783   9.797  24.717   1.849
48524W        W13784  33.927  34.074   0.340
48525W        W13785  33.409  37.909   4.242
48526W        W13786  28.248  26.016  12.953
48527W        W13787   9.798  35.603   1.639
48528W        W13788  42.382  38.445   2.358
48529W        W13789   4.345  31.045   1.629
48530W        W13790   6.635  20.751   0.362
48531W        W13791   2.228  34.839   1.400
48532W        W13792   0.517  22.039  13.403
48533W        W13793  35.082  17.599  12.866
48534W        W13794  35.659  35.007   1.631
48535W        W13795  32.067   2.267  10.464
48536W        W13796  34.416  15.359  13.847
48537W        W13797   5.700   8.377  11.617
48538W        W13798   7.960   1.739   0.049
48539W        W13799  40.931   3.737   2.255
48540W        W13800  14.438  28.940  12.602
48541W        W13801  43.535   4.280   3.584
48542W        W13802  35.949  28.248  12.047
48543W        W13803  27.985  21.773  11.028
48544W        W13804   9.874   7.871  13.129
48545W        W13805  42.351  43.244   1.463
48546W        W13806  35.842  16.047  14.025
48547W        W13807  32.939   1.023  12.929
48548W        W13808  27.661  13.149   1.235
48549W        W13809  10.410  39.015  12.512
48550W        W13810  29.542  42.093  13.017
48551W        W13811  13.466  15.401   4.353
48552W        W13812  43.929  32.106  14.346
48553W        W13813  25.260  29.169   4.573
48554W        W13814   6.453  37.184  11.233
48555W        W13815   4.544   5.541   0.661
48556W        W13816   3.290  44.662   3.905
48557W        W13817  33.493  23.195  14.526
48558W        W13818  13.308  36.883  14.899
48559W        W13819   4.173   0.260   3.077
48560W        W13820  33.093  23.534  11.585
48561W        W13821  26.116  19.034   2.719
48562W        W13822  42.430  33.420   0.508
48563W        W13823  17.731   8.714   0.412
48564W        W13824   9.274  36.962  13.431
48565W        W13825  41.826  37.101   3.240
48566W        W13826   1.623  43.307  11.234
48567W        W13827  19.229   0.406  10.693
48568W        W13828  44.242  32.436  14.978
48569W        W13829  30.600  36.024   0.244
48570W        W13830   0.322  16.243   1.799
48571W        W13831   5.165   2.062   1.875
48572W        W13832   0.972  32.007   2.522
48573W        W13833   0.227  19.716   4.173
48574W        W13834   9.839  26.902  12.700
48575W        W13835  35.773  38.961  10.399
48576W        W13836  32.464  19.213   4.396
48577W        W13837   7.384  29.337   1.218
48578W        W13838  43.549   9.669   0.585
48579W        W13839  35.522  21.307   0.798
48580W        W13840  33.541  12.250   1.872
48581W        W13841  41.512  43.396   1.686
48582W        W13842  20.985  27.489  12.635
48583W        W13843  19.947   3.461   4.166
48584W        W13844   5.398  32.629  10.978
48585W        W13845  44.271  38.506   1.521
48586W        W13846  12.928  34.588  11.517
48587W        W13847  11.631  42.527  11.611
48588W        W13848  40.745  30.156   1.262
48589W        W13849  43.117  31.558  11.203
48590W        W13850  42.265  21.189   4.278
48591W        W13851   2.549   4.208   2.299
48592W        W13852  19.202   6.033   4.187
48593W        W13853  40.393  18.500   2.843
48594W        W13854  13.248  41.807   4.837
48595W        W13855  27.853  31.303  11.966
48596W        W13856  23.561  24.707   0.967
48597W        W13857  44.212  30.160   1.805
48598W        W13858  16.642  30.982  14.318
48599W        W13859  10.620  31.803  13.991
48600W        W13860  26.553  35.061  10.076
48601W        W13861  17.187   0.971  13.564
48602W        W13862  39.486  30.093  12.589
48603W        W13863  16.124  20.569   2.147
48604W        W13864  28.932  36.270  13.040
48605W        W13865  16.565   7.793   2.356
48606W        W13866   6.745   8.192   1.449
48607W        W13867  37.048  20.180   0.584
48608W        W13868  42.213   2.281   1.463
48609W        W13869  35.556  29.247  10.544
48610W        W13870  21.425  31.931   1.860
48611W        W13871  29.440  29.109   0.389
48612W        W13872   2.046  23.729   3.606
48613W        W13873  36.015  35.853   1.483
48614W        W13874  22.778  34.187   2.633
48615W        W13875  36.418  31.571  14.974
48616W        W13876  33.098  34.426   0.396
48617W        W13877  26.983  13.430   3.679
48618W        W13878  10.607  22.796  12.978
48619W        W13879  14.261   7.790  10.602
48620W        W13880  35.956  29.129  13.184
48621W        W13881  12.722  26.437  11.492
48622W        W13882   5.294   5.893   4.271
48623W        W13883  35.419  36.445   0.783
48624W        W13884  25.220  22.894  13.753
48625W        W13885   2.065  40.283  11.143
48626W        W13886  41.565  26.602  12.333
48627W        W13887  23.296  29.105   1.265
48628W        W13888   8.955  40.119   2.845
48629W        W13889  36.788  23.048  10.578
48630W        W13890   1.772   3.555   1.698
48631W        W13891  18.378  14.693   4.764
48632W        W13892  28.116  27.453  11.991
48633W        W13893   4.918   3.323   0.485
48634W        W13894  32.803   5.176  13.389
48635W        W13895   0.714  18.505  14.293
48636W        W13896   1.978  36.173  14.336
48637W        W13897  17.278  10.774  12.490
48638W        W13898  12.636  27.114   3.475
48639W        W13899  14.971   6.874   0.244
48640W        W13900  39.767  41.866   0.318
48641W        W13901  17.073  22.306  12.850
48642W        W13902  22.118  42.553  13.325
48643W        W13903  35.620  30.350  12.779
48644W        W13904  36.247   4.349  12.194
48645W        W13905  30.883   4.779   4.969
48646W        W13906  12.842  12.148  12.863
48647W        W13907  43.401   6.323  12.366
48648W        W13908  27.570  17.191   3.708
48649W        W13909  38.190  42.827   3.430
48650W        W13910  32.160  20.108   0.575
48651W        W13911   9.669  44.858   0.234
48652W        W13912  21.120  41.182   9.864
48653W        W13913  11.675  42.004  13.045
48654W        W13914  42.775   7.605   3.229
48655W        W13915  42.977  16.291  14.594
48656W        W13916  25.499  20.581   2.780
48657W        W13917  14.600   0.691  12.545
48658W        W13918  33.888  36.551  13.595
48659W        W13919  30.978   7.615   0.309
48660W        W13920  42.251   6.923   2.631
48661W        W13921  44.243   0.534  10.313
48662W        W13922  28.752  29.494   2.752
48663W        W13923  42.017  32.115  12.940
48664W        W13924   5.713  10.829   2.868
48665W        W13925  43.566  38.975   2.928
48666W        W13926  25.846  15.195   0.732
48667W        W13927   3.267   4.852   4.149
48668W        W13928  35.747  12.742  13.053
48669W        W13929   5.616  27.814   4.898
48670W        W13930   8.828  23.575  13.083
48671W        W13931  24.470  23.834   0.941
48672W        W13932   5.355   1.827   0.022
48673W        W13933  13.847  15.050  12.219
48674W        W13934  19.501   0.582  11.132
48675W        W13935   0.741  10.464  10.674
48676W        W13936  20.424  33.277  13.978
48677W        W13937  17.256   6.754  12.093
48678W        W13938  13.112   9.617  12.004
48679W        W13939  11.835  25.178   2.733
48680W        W13940   3.252   7.315  10.791
48681W        W13941  32.375  12.384  14.360
48682W        W13942  10.262   7.826  13.494
48683W        W13943  13.751  13.684   4.682
48684W        W13944  33.788  36.459   3.202
48685W        W13945  33.505   1.779   3.646
48686W        W13946  34.882   4.446  13.105
48687W        W13947  30.225  38.518   4.811
48688W        W13948  15.825  43.997  12.571
48689W        W13949  36.343  22.692  13.361
48690W        W13950  16.791  28.167   4.205
48691W        W13951  25.273  40.874  12.007
48692W        W13952  19.667  13.103  12.361
48693W        W13953  30.194  11.384  14.503
48694W        W13954  20.558  40.782   4.763
48695W        W13955   3.380   5.229   2.538
48696W        W13956   9.963  10.702   4.186
48697W        W13957   8.595  10.879   0.353
48698W        W13958  24.484   8.715  14.438
48699W        W13959   8.865   8.293   3.138
48700W        W13960   5.359   6.399   4.079
48701W        W13961  15.795  41.496   1.793
48702W        W13962  20.571  18.213   2.156
48703W        W13963  34.376   2.930  14.419
48704W        W13964   4.822  15.546   0.530
48705W        W13965  33.222  19.241   0.858
48706W        W13966  39.616  37.536  11.486
48707W        W13967  33.408  21.991  13.879
48708W        W13968   4.844  36.282  10.804
48709W        W13969  31.942  25.379  13.972
48710W        W13970  10.850  25.165  11.112
48711W        W13971  18.961  14.155  12.523
48712W        W13972   1.850   9.790  13.454
48713W        W13973  29.037   3.243  13.866
48714W        W13974   6.291  14.738  13.013
48715W        W13975  38.582  16.705   0.105
48716W        W13976  14.332  37.529   3.196
48717W        W13977  35.359  36.970  11.632
48718W        W13978   3.206   2.760  14.323
48719W        W13979  37.097   4.223   2.134
48720W        W13980  38.074  40.417  12.978
48721W        W13981   1.195  10.903   0.129
48722W        W13982  25.300  21.430  13.061
48723W        W13983   7.501  41.071   0.165
48724W        W13984  24.238   5.187   2.676
48725W        W13985  34.594  38.043   2.795
48726W        W13986  12.729  10.423   1.675
48727W        W13987  11.941   1.200  12.029
48728W        W13988  10.058  21.507   4.075
48729W        W13989  24.458  34.426  11.057
48730W        W13990  23.038   9.315  10.747
48731W        W13991   7.679  42.285   1.735
48732W        W13992  43.390  20.314  12.901
48733W        W13993   3.085  19.661   1.644
48734W        W13994  37.581  13.190   1.026
48735W        W13995  41.502  27.724  11.581
48736W        W13996  27.530  31.040  14.275
48737W        W13997  12.764  13.600  11.626
48738W        W13998  22.135  13.246  12.368
48739W        W13999  24.571  12.118  11.361
48740W        W14000  12.960  11.178   4.892
48741W        W14001  14.448  11.082  10.226
48742W        W14002  12.760  30.558   2.742
48743W        W14003  38.364   2.818  14.847
48744W        W14004  42.787   3.310  13.568
48745W        W14005  23.610  36.889   0.326
48746W        W14006  44.920  37.005  14.299
48747W        W14007  16.139  27.200  12.638
48748W        W14008  38.781  32.485  10.825
48749W        W14009  22.769   9.275  11.196
48750W        W14010  31.156  37.550   3.326
48751W        W14011  34.620  19.147  10.825
48752W        W14012  42.443   3.034   3.708
48753W        W14013  23.366  40.249   0.563
48754W        W14014  40.507  40.998   0.204
48755W        W14015  13.715  16.074  14.769
48756W        W14016  26.160   9.776  10.994
48757W        W14017  25.232  32.153  13.544
48758W        W14018  25.267  40.488  13.836
48759W        W14019  34.375  15.780   0.878
48760W        W14020  33.640  13.614  12.550
48761W        W14021  20.089   3.460   2.885
48762W        W14022  10.596  34.102   4.747
48763W        W14023  25.523  40.239  11.933
48764W        W14024  37.482  39.374   3.278
48765W        W14025  31.139  17.941   4.125
48766W        W14026  35.885  13.184   2.409
48767W        W14027  42.742  31.423  14.436
48768W        W14028  28.638  17.030   1.256
48769W        W14029   0.306  34.146  14.758
48770W        W14030  29.102  25.132   1.074
48771W        W14031  12.030  30.639   1.696
48772W        W14032  38.332  16.753   4.899
48773W        W14033  22.135  12.584  13.164
48774W        W14034  11.324  19.282  11.588
48775W        W14035  21.629  12.181   0.030
48776W        W14036  42.047  28.052  14.406
48777W        W14037  26.882  13.511  12.777
48778W        W14038  15.188   6.935  13.372
48779W        W14039  32.880  19.455  11.135
48780W        W14040   1.938   6.909   0.911
48781W        W14041  34.382  22.249  14.752
48782W        W14042  10.263  20.233  12.012
48783W        W14043  14.745   6.326   0.915
48784W        W14044  37.844   4.750  12.131
48785W        W14045  11.569  21.958   2.091
48786W        W14046  40.392  18.101   0.900
48787W        W14047   4.913   5.979  13.636
48788W        W14048  42.827  14.934   4.596
48789W        W14049  21.966  12.875   0.796
48790W        W14050  44.209  39.480   0.303
48791W        W14051  22.614   8.144   3.604
48792W        W14052   6.248  39.114  13.816
48793W        W14053  25.569  31.758  13.058
48794W        W14054  39.776  31.004   1.391
48795W        W14055  11.091   6.301  12.886
48796W        W14056  14.111  38.475  10.726
48797W        W14057  13.641   6.650   0.402
48798W        W14058  19.023  24.114  10.767
48799W        W14059  17.597   5.660   0.714
48800W        W14060  32.766  33.445   0.533
48801W        W14061  43.702  21.179  13.965
48802W        W14062  14.287  15.714   4.089
48803W        W14063  11.346  24.539  12.635
48804W        W14064   3.424  34.538  12.620
48805W        W14065  17.620  41.409   4.733
48806W        W14066   4.340  22.728  13.445
48807W        W14067  21.487  14.850  13.018
48808W        W14068  22.173  35.478   0.432
48809W        W14069  43.912  16.531   0.308
48810W        W14070  25.628  13.735  11.548
48811W        W14071  34.649   6.215   2.283
48812W        W14072  43.753  15.510  14.453
48813W        W14073  27.007  31.198   2.778
48814W        W14074   2.630  33.085   1.827
48815W        W14075  18.662  38.849  11.683
48816W        W14076  39.322  16.848   3.888
48817W        W14077  32.573   1.715   0.285
48818W        W14078  17.138  35.085  10.116
48819W        W14079  30.170  25.038   2.337
48820W        W14080   7.417   9.240   4.980
48821W        W14081  21.626   3.841  12.855
48822W        W14082  17.529  26.680  14.939
48823W        W14083  22.406  28.027   0.557
48824W        W14084  16.070  14.556   0.447
48825W        W14085  26.133  33.406   0.320
48826W        W14086  10.630  40.276   4.608
48827W        W14087  11.109  15.579   3.308
48828W        W14088   0.776  31.145   2.031
48829W        W14089  42.940  43.452  11.141
48830W        W14090   1.857  15.083   2.643
48831W        W14091  15.880   2.397   0.469
48832W        W14092  10.898  44.925  13.798
48833W        W14093  34.100   8.633  13.320
48834W        W14094  29.754   3.958  12.005
48835W        W14095   0.489  13.531   2.316
48836W        W14096  10.553  13.803   3.223
48837W        W14097  34.081  37.420   3.336
48838W        W14098  16.234   0.822   0.923
48839W        W14099   8.256   2.709   1.413
48840W        W14100   8.630  35.400   4.112
48841W        W14101  19.780  44.793  14.381
48842W        W14102  25.729  43.363   1.662
48843W        W14103  11.343  20.511   2.605
48844W        W14104  38.421   6.708   2.894
48845W        W14105  19.692  20.697  11.512
48846W        W14106   7.167  43.522  14.045
48847W        W14107  25.584  22.277   4.237
48848W        W14108  41.522  23.106  11.260
48849W        W14109  26.042  12.251  13.592
48850W        W14110  36.257   5.933   2.568
48851W        W14111  14.817  23.793   4.163
48852W        W14112  22.034  11.876   3.771
48853W        W14113  34.265  19.796  11.324
48854W        W14114   1.758  10.376  14.430
48855W        W14115   7.306  31.012  12.004
48856W        W14116  35.806  25.988   0.228
48857W        W14117  41.448  28.772   4.532
48858W        W14118  14.372  44.832  11.666
48859W        W14119  19.735  26.531  11.417
48860W        W14120  33.628  23.794  14.969
48861W        W14121  16.061  28.052   2.365
48862W        W14122   8.887   8.905   0.002
48863W        W14123   2.353  10.686   2.206
48864W        W14124  38.572  18.088  13.475
48865W        W14125  17.337  13.450  14.479
48866W        W14126  43.486  23.651   4.412
48867W        W14127  11.261  40.308   2.353
48868W        W14128  32.658  15.401  14.921
48869W        W14129  35.483  39.920  12.597
48870W        W14130  22.770  26.123  14.855
48871W        W14131  31.459  20.097   4.500
48872W        W14132  23.674  17.571  13.512
48873W        W14133   3.315  34.400   3.325
48874W        W14134  29.137  33.054   1.451
48875W        W14135  24.779  26.157   2.858
48876W        W14136  12.756  41.756  12.924
48877W        W14137   6.716  21.710  13.920
48878W        W14138  15.387  42.793   4.431
48879W        W14139   6.401  37.192   3.912
48880W        W14140   9.961  33.808   0.812
48881W        W14141   3.781  26.781  11.574
48882W        W14142  16.340  32.301   3.311
48883W        W14143   3.291  18.196   1.512
48884W        W14144  20.146  33.602   1.781
48885W        W14145  33.383  14.838   0.902
48886W        W14146  23.394   3.616   2.408
48887W        W14147  41.754  10.011   4.224
48888W        W14148  10.765  21.752   1.860
48889W        W14149  27.884  32.996   4.096
48890W        W14150  18.069  34.850   4.841
48891W        W14151  16.618  34.876   0.015
48892W        W14152  24.738   4.912   0.272
48893W        W14153  29.337  36.792   1.836
48894W        W14154  24.043  33.607   4.718
48895W        W14155   5.485  37.484  13.021
48896W        W14156  11.471  25.040  12.529
48897W        W14157   4.076  19.010   2.945
48898W        W14158   6.243   6.796  14.448
48899W        W14159  29.169  23.636  13.899
48900W        W14160  35.138  39.045   2.779
48901W        W14161   7.799   1.527   3.742
48902W        W14162   9.717  44.830   2.275
48903W        W14163   7.270   3.751  13.663
48904W        W14164   5.301  24.102  13.868
48905W        W14165   2.548   2.762   1.003
48906W        W14166  21.958  21.112   1.697
48907W        W14167  34.566  25.652  12.097
48908W        W14168  42.509  28.068   3.375
48909W        W14169  11.035  42.960   4.081
48910W        W14170  24.698  39.545   2.818
48911W        W14171  20.133  29.952  12.496
48912W        W14172  19.037  37.677  13.142
48913W        W14173  41.379   3.121   1.964
48914W        W14174  39.564   8.884   2.432
48915W        W14175  30.017  16.568   2.112
48916W        W14176  33.098   7.949  13.971
48917W        W14177   3.772   7.654  13.872
48918W        W14178  17.407  39.483  12.929
48919W        W14179  39.306  42.017   0.002
48920W        W14180   0.510  38.578   2.746
48921W        W14181  16.537  18.873   3.620
48922W        W14182  43.235  28.466   4.030
48923W        W14183  44.479  31.350  13.188
48924W        W14184   8.352  34.360  11.162
48925W        W14185  27.955  44.311   1.271
48926W        W14186   2.764  30.387  12.933
48927W        W14187   3.413  40.818  14.961
48928W        W14188  31.217  20.429   4.195
48929W        W14189  37.093  34.970  13.014
48930W        W14190  30.867  30.509  12.740
48931W        W14191  31.444  32.199   2.812
48932W        W14192  10.217  36.088  10.643
48933W        W14193  22.053  12.587   0.391
48934W        W14194  31.159   6.184   3.276
48935W        W14195  17.942  12.262  14.773
48936W        W14196  43.573  23.047  14.335
48937W        W14197  32.905  31.883  14.549
48938W        W14198  31.903   4.560   2.824
48939W        W14199   2.809  37.390   1.505
48940W        W14200  16.679  40.291   2.187
48941W        W14201  43.475  10.251  11.151
48942W        W14202  34.146  30.505   4.197
48943W        W14203  37.843  40.895  13.050
48944W        W14204  23.701   7.627   2.360
48945W        W14205  18.534  21.194   0.290
48946W        W14206   0.864   0.533  13.658
48947W        W14207   5.478  25.178  14.451
48948W        W14208   3.199  33.404   1.202
48949W        W14209  33.067  41.837   1.755
48950W        W14210  34.930   0.387  12.518
48951W        W14211   1.523   7.207   4.611
48952W        W14212   9.196  18.338   3.497
48953W        W14213  44.397   8.412  10.688
48954W        W14214  39.872  13.875  10.604
48955W        W14215  18.319  29.246   2.318
48956W        W14216   0.794  35.386   3.673
48957W        W14217   7.224   6.802  14.096
48958W        W14218  18.178   7.789  13.050
48959W        W14219  31.161  12.736   2.792
48960W        W14220  13.726  32.865  11.223
48961W        W14221  20.731  25.404   1.215
48962W        W14222  37.130   4.185   4.901
48963W        W14223  29.714  33.041   4.882
48964W        W14224  18.177   5.402   3.107
48965W        W14225   3.470  16.499  11.977
48966W        W14226  10.640  21.601  14.001
48967W        W14227  10.842  43.234  14.229
48968W        W14228  29.989  23.926   0.885
48969W        W14229  28.468  44.490   4.512
48970W        W14230  38.873  30.583   0.397
48971W        W14231  34.648  39.331   3.809
48972W        W14232  13.769  44.521  10.673
48973W        W14233  25.673  38.328  12.097
48974W        W14234  20.279  25.122   0.218
48975W        W14235  12.198  44.353  11.696
48976W        W14236  41.023  18.036  13.855
48977W        W14237  16.083  39.100   3.292
48978W        W14238  26.052  13.918   3.985
48979W        W14239  21.973  10.831  12.003
48980W        W14240  21.621  20.765  12.944
48981W        W14241   1.161  43.204   4.085
48982W        W14242   3.731  42.608   1.049
48983W        W14243  44.428   3.440  10.627
48984W        W14244   5.862  34.443  14.411
48985W        W14245  15.386  22.515   3.188
48986W        W14246  15.603  44.444  11.671
48987W        W14247   2.614  15.779   4.995
48988W        W14248   4.796  26.665   3.714
48989W        W14249  12.529  17.671   1.923
48990W        W14250  18.570  16.079  10.424
48991W        W14251  44.704   3.481  13.609
48992W        W14252  23.620  27.552  11.076
48993W        W14253  19.105  22.858   1.232
48994W        W14254  22.299   1.411   5.395
48995W        W14255   1.311  35.717  13.393
48996W        W14256   9.831   3.518  14.943
48997W        W14257  18.870  33.049   0.631
48998W        W14258   2.726   3.323   3.465
48999W        W14259  44.421  33.134   1.798
49000W        W14260  39.632  38.513  10.740
49001W        W14261  19.304  33.719   0.850
49002W        W14262  19.597  22.123   3.947
49003W        W14263  13.378  44.120  12.407
49004W        W14264  20.330  41.442   5.006
49005W        W14265   6.217  23.942  14.441
49006W        W14266  44.912  25.955  13.249
49007W        W14267  36.216  32.788   2.702
49008W        W14268  18.954  10.428   3.277
49009W        W14269  35.362  24.521   3.854
49010W        W14270  40.670  25.410   2.640
49011W        W14271   0.930  15.729  11.994
49012W        W14272   6.645  39.910   2.423
49013W        W14273  41.777  26.627   2.692
49014W        W14274  36.156  17.650  10.290
49015W        W14275  14.897  35.620  14.825
49016W        W14276   5.021  20.124   0.746
49017W        W14277   8.914  34.691   0.998
49018W        W14278   1.755   2.774  13.070
49019W        W14279  35.482  32.367  11.984
49020W        W14280  13.769   7.337  12.839
49021W        W14281  41.245  25.223  11.419
49022W        W14282   0.401  31.514   1.896
49023W        W14283   7.289  42.223  11.019
49024W        W14284   1.259  10.596  11.926
49025W        W14285  33.563  42.789   9.984
49026W        W14286  43.004  19.665   4.234
49027W        W14287  11.547  38.375   2.797
49028W        W14288  40.975  13.195  12.557
49029W        W14289  40.529  17.230   5.080
49030W        W14290   1.459  40.321  13.860
49031W        W14291  43.076  21.988  12.576
49032W        W14292  12.606   1.007   3.790
49033W        W14293  19.690  15.485   4.578
49034W        W14294  19.351  26.205  12.376
49035W        W14295   3.625  14.718  11.637
49036W        W14296  44.349  39.633   4.359
49037W        W14297  42.857  20.998   1.453
49038W        W14298  44.538   4.654   1.896
49039W        W14299  26.014  24.527   4.225
49040W        W14300   2.868  30.985  14.016
49041W        W14301  43.980  16.442   9.776
49042W        W14302  35.058   0.472   2.230
49043W        W14303   8.259  25.181   2.639
49044W        W14304   6.208  33.564  12.799
49045W        W14305   9.873  19.306  11.453
49046W        W14306  10.274  16.051   4.054
49047W        W14307  40.821   4.503   1.751
49048W        W14308  44.746   9.937  11.072
49049W        W14309  30.707  10.910   0.734
49050W        W14310  30.964  27.170   2.784
49051W        W14311  28.328  40.873   3.950
49052W        W14312  17.331  17.611   1.875
49053W        W14313   9.381  27.247  14.462
49054W        W14314  19.080  19.581  12.609
49055W        W14315  32.672   5.871   3.687
49056W        W14316  12.871  21.535  10.496
49057W        W14317   9.402  40.463   3.161
49058W        W14318   8.228   9.370   3.760
49059W        W14319  29.531   2.926   0.053
49060W        W14320  17.693  43.404  13.795
49061W        W14321  31.925  36.746  13.007
49062W        W14322  29.056  10.798   0.811
49063W        W14323   5.699   4.151   2.834
49064W        W14324  29.047  33.521   1.810
49065W        W14325  41.709  38.074  11.121
49066W        W14326  24.294  31.758   4.292
49067W        W14327  34.667  23.947  11.982
49068W        W14328   5.919  28.027  13.983
49069W        W14329   3.158  18.249   4.342
49070W        W14330  15.737  30.613   2.348
49071W        W14331  11.625  25.054   0.915
49072W        W14332  39.473  34.089  13.345
49073W        W14333   2.062  26.509   2.251
49074W        W14334  24.146  28.154  13.769
49075W        W14335  15.285   9.707  13.720
49076W        W14336  25.865   6.877  12.546
49077W        W14337   9.860  11.202  12.319
49078W        W14338  44.250  24.432   2.287
49079W        W14339  30.069  13.521   3.741
49080W        W14340  17.601  21.954   2.836
49081W        W14341   7.116  18.202   2.180
49082W        W14342   2.603  44.609   2.400
49083W        W14343  26.691  23.028  12.896
49084W        W14344  30.355  15.800  11.947
49085W        W14345  16.845  20.713  12.179
49086W        W14346   2.768   8.711  13.373
49087W        W14347  35.005  12.212   3.373
49088W        W14348  17.358   7.248  12.008
49089W        W14349  28.469  19.129  12.570
49090W        W14350  18.463  18.302   2.365
49091W        W14351  18.602  14.888  13.074
49092W        W14352  38.131   6.295   2.797
49093W        W14353  30.073  36.655   0.482
49094W        W14354  27.488  17.195   0.349
49095W        W14355   7.603  26.381   9.884
49096W        W14356  39.839   5.297   2.837
49097W        W14357  26.644   8.241  11.553
49098W        W14358  14.717  43.511   3.412
49099W        W14359  35.850  43.038  10.780
49100W        W14360  15.643  19.104  14.305
49101W        W14361  23.057  15.539   2.405
49102W        W14362  25.307   9.917   4.160
49103W        W14363  23.499  13.645   1.804
49104W        W14364  35.350  37.045  14.024
49105W        W14365  32.515  39.970  12.624
49106W        W14366   5.076  42.433   4.319
49107W        W14367  20.123  37.825   2.323
49108W        W14368  35.837  25.149  12.008
49109W        W14369  16.638  17.217  12.452
49110W        W14370  20.564  20.965   3.036
49111W        W14371  32.226  38.391  10.948
49112W        W14372   6.322  32.945   1.178
49113W        W14373  21.282  24.012   4.055
49114W        W14374  33.926  27.209   4.630
49115W        W14375  30.364   9.950   2.604
49116W        W14376  27.817   0.571   4.356
49117W        W14377  37.879  25.872  10.556
49118W        W14378   0.669  15.245   3.045
49119W        W14379  41.837   7.388   2.142
49120W        W14380  30.186   2.135   2.668
49121W        W14381   1.374  36.338   2.809
49122W        W14382  41.280  37.922   3.706
49123W        W14383   8.815   4.214   3.705
49124W        W14384   4.714  36.898  14.459
49125W        W14385  21.136   4.027   2.149
49126W        W14386  10.556  15.356  11.498
49127W        W14387   4.195  37.710  14.902
49128W        W14388   2.791  29.571  12.323
49129W        W14389  32.851   7.412   2.831
49130W        W14390  12.363  24.425  13.554
49131W        W14391  20.647   3.580  12.486
49132W        W14392  28.235  29.647  12.601
49133W        W14393  13.680  21.191  14.045
49134W        W14394  38.608  34.582  12.474
49135W        W14395  37.865  40.823   0.350
49136W        W14396  35.668  33.164  12.463
49137W        W14397   9.586   0.748  14.804
49138W        W14398  29.439  29.466  13.605
49139W        W14399  13.280  30.762  13.968
49140W        W14400  27.584   6.910   4.622
49141W        W14401  37.823  24.458  13.773
49142W        W14402  16.797  25.112  11.893
49143W        W14403  35.845  36.944  12.544
49144W        W14404  18.992  22.126   1.739
49145W        W14405  36.018  10.647  14.435
49146W        W14406  20.923   5.861   4.126
49147W        W14407  10.676   4.289   0.176
49148W        W14408  28.008   8.210   3.650
49149W        W14409  44.518  19.963  10.579
49150W        W14410  24.315  24.192  11.078
49151W        W14411   5.374  17.282  13.570
49152W        W14412  10.361  24.550  11.546
49153W        W14413   4.313  20.034   0.182
49154W        W14414  18.248  28.427  14.327
49155W        W14415  31.989  11.874   2.794
49156W        W14416  12.048  19.291   2.141
49157W        W14417  12.285  37.273  10.762
49158W        W14418  36.926  37.361  13.056
49159W        W14419  14.474   1.797   1.141
49160W        W14420   7.715  35.993   3.024
49161W        W14421   4.046  42.000   4.093
49162W        W14422  43.777  25.088   3.690
49163W        W14423  27.557  11.829   0.194
49164W        W14424   7.296  28.648  12.555
49165W        W14425  19.981   4.727  14.235
49166W        W14426  24.605  37.100   1.153
49167W        W14427  25.580  15.533   4.935
49168W        W14428   5.680  28.578   3.157
49169W        W14429  40.878  40.930  14.272
49170W        W14430  14.871   3.754   2.282
49171W        W14431  13.845  23.133   4.541
49172W        W14432  12.923  28.746   4.060
49173W        W14433  25.475  29.477  10.580
49174W        W14434  28.519   0.663  14.483
49175W        W14435  35.667  24.982  14.497
49176W        W14436   5.401  38.125  11.956
49177W        W14437  27.985  19.256  12.437
49178W        W14438   5.864   0.257  11.352
49179W        W14439  12.731  11.363   4.378
49180W        W14440   9.548  33.697   4.863
49181W        W14441   9.217  29.094  13.927
49182W        W14442  39.781  30.653  13.958
49183W        W14443   3.292  17.808   4.056
49184W        W14444  24.414  25.066   3.660
49185W        W14445  16.999  42.739  14.463
49186W        W14446  18.256  31.386  12.170
49187W        W14447   3.274  14.347  13.389
49188W        W14448  43.808  44.411  10.728
49189W        W14449  44.794  30.509  11.553
49190W        W14450  17.556  32.957  14.113
49191W        W14451  34.182  24.952   1.795
49192W        W14452  36.627  30.052  14.951
49193W        W14453  15.275  12.936   3.565
49194W        W14454  36.002  19.827  13.376
49195W        W14455  19.211  16.331   2.817
49196W        W14456   6.216  44.850  14.781
49197W        W14457  12.099  25.079  13.124
49198W        W14458   7.232  36.814   0.911
49199W        W14459  10.726  22.346   0.813
49200W        W14460  25.191  17.445  10.264
49201W        W14461  13.701  24.460  13.483
49202W        W14462  25.738  28.567  11.516
49203W        W14463  36.540  21.543   4.922
49204W        W14464  27.316  31.676   4.195
49205W        W14465  18.182  36.989   3.838
49206W        W14466  21.844   2.879  14.464
49207W        W14467  44.209  35.046   2.917
49208W        W14468  11.726  16.572   0.797
49209W        W14469  18.827  41.871   4.585
49210W        W14470  25.437  11.306  10.765
49211W        W14471  26.663  42.051  10.727
49212W        W14472  26.127  17.006   2.389
49213W        W14473  16.703  24.315  14.904
49214W        W14474  26.070  32.537   0.527
49215W        W14475  12.579   4.978   2.775
49216W        W14476  23.498  41.856   1.815
49217W        W14477  18.057  13.837   1.865
49218W        W14478   3.980  25.359   3.819
49219W        W14479   4.626  11.146   4.134
49220W        W14480  33.520  38.472  10.619
49221W        W14481   3.657  17.234  12.920
49222W        W14482   6.223  16.672  14.534
49223W        W14483  12.878  17.645  13.894
49224W        W14484  32.728   1.323   1.825
49225W        W14485  18.323   9.055  10.384
49226W        W14486   1.860  20.203   3.689
49227W        W14487  20.359  25.121  10.588
49228W        W14488  32.723  13.127   5.195
49229W        W14489   7.431  40.732  14.770
49230W        W14490  30.202   6.360   3.141
49231W        W14491  28.361  17.198  13.125
49232W        W14492  41.902  37.812   2.617
49233W        W14493  29.871  15.636  11.091
49234W        W14494   1.447  20.565  13.968
49235W        W14495  12.058  13.677  11.155
49236W        W14496  17.649  36.923   0.066
49237W        W14497   8.721  40.330  13.713
49238W        W14498  33.835  24.517   4.518
49239W        W14499   9.964  26.475   1.906
49240W        W14500  25.376  13.150   0.163
49241W        W14501  39.621  41.522  11.655
49242W        W14502  17.682  39.530   3.066
49243W        W14503   6.237  28.212   4.131
49244W        W14504  12.674  30.407   4.918
49245W        W14505  24.195  40.894   1.300
49246W        W14506  19.206  16.530   0.300
49247W        W14507  36.616  22.474  12.966
49248W        W14508  22.296   4.278   1.380
49249W        W14509  28.078  23.786   1.395
49250W        W14510  15.740  40.500  11.949
49251W        W14511   7.405  31.480   1.240
49252W        W14512  44.979  42.374   2.136
49253W        W14513  44.972  38.207  14.052
49254W        W14514  19.243  40.900   2.807
49255W        W14515  25.472  20.266  11.308
49256W        W14516   3.203  37.784  14.886
49257W        W14517  38.539  17.697  14.794
49258W        W14518  42.357  26.126  12.551
49259W        W14519   4.399  38.541   1.744
49260W        W14520   8.144   4.926   1.316
49261W        W14521  38.229  22.129   1.530
49262W        W14522  20.737  13.227  14.237
49263W        W14523  40.869  44.901   4.302
49264W        W14524  14.810  29.919   3.826
49265W        W14525  29.232  17.507   2.825
49266W        W14526   8.634  18.967  11.098
49267W        W14527  41.341  16.857   4.565
49268W        W14528  43.858  26.588  13.600
49269W        W14529  39.770  32.112   0.275
49270W        W14530  12.527  27.661   5.200
49271W        W14531  21.285  20.617   3.046
49272W        W14532  32.634   4.743   0.185
49273W        W14533  15.672  36.944  11.025
49274W        W14534   8.749  37.254  10.860
49275W        W14535  11.849   1.261   2.266
49276W        W14536   5.954  36.156  10.727
49277W        W14537  28.050   0.774   3.929
49278W        W14538  35.044  22.637   0.998
49279W        W14539  19.358  34.332  14.809
49280W        W14540  17.590  16.770  12.955
49281W        W14541   7.929  36.064   0.780
49282W        W14542   2.075   5.255  10.398
49283W        W14543  34.877  42.620  13.812
49284W        W14544  26.193  40.000  12.754
49285W        W14545  13.569   5.172   0.212
49286W        W14546  33.598  23.990   3.620
49287W        W14547  15.504   3.804  10.851
49288W        W14548   0.286   1.474  11.924
49289W        W14549  17.292   2.696   3.302
49290W        W14550  43.988  39.956  14.720
49291W        W14551  10.855  22.043   3.426
49292W        W14552  18.372  11.219   3.621
49293W        W14553  26.089   3.883  10.676
49294W        W14554  36.752  33.986   0.240
49295W        W14555  27.629  34.454   1.674
49296W        W14556  14.308   7.979  13.245
49297W        W14557  41.374  37.645   0.483
49298W        W14558  35.657  37.821  11.101
49299W        W14559  17.183  15.763  11.497
49300W        W14560  35.598  37.429  11.764
49301W        W14561  18.789  29.443   3.890
49302W        W14562  34.338  37.879  12.142
49303W        W14563  14.162  39.016  10.725
49304W        W14564  24.503  38.749   4.124
49305W        W14565   3.365  17.979   2.491
49306W        W14566  44.916  11.911  14.987
49307W        W14567  31.881  21.705  10.361
49308W        W14568  18.748  17.379   3.180
49309W        W14569   8.350  36.931  12.057
49310W        W14570  34.307  28.934   3.723
49311W        W14571  10.088   4.647   4.544
49312W        W14572  36.075   1.172   0.329
49313W        W14573  24.630   6.628  11.807
49314W        W14574  31.603  44.747   0.206
49315W        W14575   8.404  24.753  13.578
49316W        W14576   0.834  37.360   2.285
49317W        W14577  37.892  33.498  14.731
49318W        W14578   2.122  21.435   4.116
49319W        W14579   0.501  42.299  13.056
49320W        W14580  21.659  14.427  13.329
49321W        W14581  16.353  44.255   2.716
49322W        W14582  27.424  34.339   0.834
49323W        W14583  43.035  42.837   4.246
49324W        W14584  37.996  13.834   4.036
49325W        W14585  24.524  37.787  14.291
49326W        W14586  31.097   0.404   4.245
49327W        W14587  17.410   9.283   3.813
49328W        W14588  10.790  14.102  12.723
49329W        W14589  32.584  40.479   2.734
49330W        W14590   4.859   6.276   1.909
49331W        W14591  31.638  44.548  13.313
49332W        W14592  32.676  30.035  13.002
49333W        W14593  33.476  39.275  13.296
49334W        W14594  43.303   1.136  14.806
49335W        W14595   5.442   1.196  11.441
49336W        W14596   0.149  27.989  14.788
49337W        W14597  16.113  25.525   4.716
49338W        W14598  22.108  43.412   0.922
49339W        W14599  17.480  39.324  11.096
49340W        W14600  20.619  16.219  13.949
49341W        W14601  28.576  12.864  12.680
49342W        W14602  18.255   0.445  12.232
49343W        W14603   9.665  10.351   3.788
49344W        W14604  37.094  29.093  14.075
49345W        W14605  17.164  35.451  14.538
49346W        W14606   6.898  36.029   2.810
49347W        W14607  33.587  37.942  12.658
49348W        W14608  15.323  44.424   1.909
49349W        W14609  42.899  13.175  14.545
49350W        W14610  14.729   7.865  11.477
49351W        W14611  39.352   2.396  12.520
49352W        W14612  17.207  39.081   3.654
49353W        W14613  34.341  43.091   2.302
49354W        W14614  23.139  44.957  14.869
49355W        W14615  32.943   1.476  12.049
49356W        W14616   2.649  41.857   2.796
49357W        W14617  40.897  20.169  12.792
49358W        W14618  41.060  14.221   3.938
49359W        W14619   3.762  27.617  12.030
49360W        W14620   6.133  34.075   4.227
49361W        W14621  24.218  36.962  13.273
49362W        W14622  29.918  15.546   3.758
49363W        W14623   1.590  43.387   5.160
49364W        W14624   3.504  21.763  14.575
49365W        W14625  38.435   5.535   9.702
49366W        W14626  44.855   9.633   2.595
49367W        W14627  33.536  40.333   1.539
49368W        W14628   7.805  32.542  13.866
49369W        W14629  40.708  31.115   1.513
49370W        W14630  44.335  13.328   1.681
49371W        W14631  40.620  17.568   2.738
49372W        W14632  38.323   2.881  12.899
49373W        W14633  29.548  29.230   3.209
49374W        W14634  42.668   6.362   0.775
49375W        W14635  34.909  25.384   3.192
49376W        W14636  31.846   6.440   1.702
49377W        W14637  42.507  18.182  14.886
49378W        W14638  17.605  35.068  14.890
49379W        W14639   1.945  17.335  14.237
49380W        W14640  39.926  35.946   0.971
49381W        W14641  40.041   5.809  13.458
49382W        W14642   2.606   3.758   3.683
49383W        W14643  25.094   8.196  11.593
49384W        W14644  23.536  13.116  14.752
49385W        W14645  38.727  39.548  14.862
49386W        W14646  38.896   9.726   1.105
49387W        W14647  25.133   9.716   2.724
49388W        W14648  40.330  26.183   3.245
49389W        W14649  27.175  32.763  12.589
49390W        W14650  18.298  22.113   3.176
49391W        W14651  22.137  10.782  13.952
49392W        W14652  43.958  29.129   4.559
49393W        W14653  40.311   6.722  12.434
49394W        W14654  15.079  34.778  14.743
49395W        W14655  13.440  31.178  12.869
49396W        W14656  39.319  14.304  11.731
49397W        W14657  37.421   8.609  13.075
49398W        W14658  22.191  33.673  11.546
49399W        W14659  38.847  40.442  13.420
49400W        W14660  29.897  27.412  13.798
49401W        W14661  10.343  26.112  13.450
49402W        W14662   7.367  10.649  10.607
49403W        W14663  29.436  33.125  10.981
49404W        W14664  35.117  23.047   1.870
49405W        W14665   1.036  32.877  10.751
49406W        W14666  29.541   1.734   3.279
49407W        W14667  19.862  20.872   4.776
49408W        W14668  15.538  21.695   3.649
49409W        W14669   3.116   4.254  14.943
49410W        W14670  43.134  42.370   3.241
49411W        W14671  33.614  12.172  10.688
49412W        W14672  33.483  24.749   4.155
49413W        W14673  10.717  30.866   2.842
49414W        W14674  36.591  32.388   3.608
49415W        W14675  11.821  23.502   3.616
49416W        W14676   4.038  34.896  14.527
49417W        W14677   2.165  30.608   0.264
49418W        W14678  20.684  17.690  14.843
49419W        W14679  42.804   3.655  12.498
49420W        W14680   6.915  36.390  12.893
49421W        W14681  27.237  23.126  10.891
49422W        W14682  36.978   2.666   4.125
49423W        W14683  41.368   2.397  13.880
49424W        W14684  14.593  44.255   2.220
49425W        W14685  12.553  33.348   3.095
49426W        W14686   1.458  18.025  12.445
49427W        W14687  20.151  39.915  11.446
49428W        W14688  32.417  26.711  11.047
49429W        W14689   7.495  28.534  14.756
49430W        W14690  37.539  20.040  13.401
49431W        W14691  25.677  23.873   1.252
49432W        W14692  22.029  36.629   0.632
49433W        W14693  28.502  12.275  10.643
49434W        W14694  42.016  42.518   4.702
49435W        W14695  36.536  16.187  12.433
49436W        W14696  14.852  12.791   4.159
49437W        W14697  14.730  38.060  11.202
49438W        W14698  29.023  11.059   4.610
49439W        W14699   0.357  29.051  13.361
49440W        W14700  30.282  16.590   0.722
49441W        W14701  32.058  31.090  11.080
49442W        W14702   6.731  18.541  11.429
49443W        W14703  33.525  37.480   2.151
49444W        W14704   5.747  34.393   3.330
49445W        W14705  19.798  34.557   0.016
49446W        W14706  21.540  32.683  12.794
49447W        W14707  27.895  22.022  11.541
49448W        W14708  42.553  44.429  10.660
49449W        W14709   4.797  13.668  14.823
49450W        W14710  34.134  35.536   2.341
49451W        W14711  21.355  19.530   1.200
49452W        W14712   9.841  19.094   0.991
49453W        W14713   1.141  34.650  12.055
49454W        W14714  40.707  41.425  14.375
49455W        W14715  17.757   2.946  13.035
49456W        W14716  38.614   1.432   0.683
49457W        W14717   2.673   5.900   2.741
49458W        W14718  37.613   5.015   0.562
49459W        W14719  22.131  24.645   0.181
49460W        W14720  23.851  35.117   1.718
49461W        W14721  37.165  24.632  10.463
49462W        W14722  10.072  41.994  11.548
49463W        W14723  10.858  16.972  10.394
49464W        W14724  21.727  19.149  14.361
49465W        W14725   2.790  23.615  10.519
49466W        W14726  35.964  36.690  12.028
49467W        W14727  44.446  37.376  13.539
49468W        W14728  13.492  19.463  12.554
49469W        W14729   6.910  37.013   2.755
49470W        W14730  24.705   0.399   4.831
49471W        W14731  14.707  23.778  12.866
49472W        W14732  13.194  31.166  14.318
49473W        W14733  23.211   9.566  14.233
49474W        W14734  34.872   2.790  12.361
49475W        W14735  25.238  36.424   1.276
49476W        W14736  33.124   6.703   1.290
49477W        W14737  43.004   8.775  14.277
49478W        W14738  44.872  24.291  13.958
49479W        W14739  32.992  11.115   4.769
49480W        W14740   4.868  24.388  13.975
49481W        W14741  16.803   0.372  11.014
49482W        W14742   5.165   3.351  12.611
49483W        W14743  23.296  32.247  13.256
49484W        W14744  10.202  27.615   5.373
49485W        W14745  35.199   1.982   9.616
49486W        W14746  38.324  32.451  10.572
49487W        W14747  30.395  29.080  12.381
49488W        W14748  25.973  15.210   5.032
49489W        W14749  41.522  10.741  13.035
49490W        W14750  28.474  37.675  14.632
49491W        W14751  40.246  39.565   3.388
49492W        W14752  38.073  14.244  13.809
49493W        W14753   4.684  31.924   9.939
49494W        W14754  24.197  23.055   1.913
49495W        W14755   9.160   3.783  12.449
49496W        W14756  33.094  41.369   4.189
49497W        W14757  37.512  21.421   0.676
49498W        W14758  31.141  40.736  12.038
49499W        W14759  27.490  30.371  11.173
49500W        W14760  34.420  22.727  12.599
49501W        W14761  38.405   5.475   3.764
49502W        W14762  30.900  40.875  14.883
49503W        W14763  42.264  29.625   2.175
49504W        W14764  10.141  17.317   0.019
49505W        W14765  12.272  14.175  12.125
49506W        W14766  12.568  10.893   1.750
49507W        W14767  17.556  26.191   0.697
49508W        W14768  13.878  14.307   0.429
49509W        W14769  30.468  13.779   2.455
49510W        W14770   9.430  39.670  12.408
49511W        W14771   4.907   5.751  13.184
49512W        W14772  36.670   9.098   0.380
49513W        W14773   5.400  40.049  13.523
49514W        W14774  37.342  27.419  12.446
49515W        W14775  37.687  11.756   3.800
49516W        W14776  12.017  43.196   4.056
49517W        W14777  29.901  42.015   1.356
49518W        W14778   5.893  10.253   3.843
49519W        W14779  31.672  11.770   2.352
49520W        W14780  17.727  18.600   0.724
49521W        W14781  29.845  26.507  10.655
49522W        W14782  13.123   6.217  13.720
49523W        W14783  29.622  30.170  13.953
49524W        W14784  30.323  41.392  12.563
49525W        W14785  34.831  16.964  13.620
49526W        W14786   4.048  20.141  13.536
49527W        W14787   8.885   1.979   0.772
49528W        W14788  37.620  27.488   4.078
49529W        W14789   4.187   2.906  12.861
49530W        W14790   0.688   3.380   2.856
49531W        W14791  36.904  22.561   1.954
49532W        W14792  34.058  12.229   1.867
49533W        W14793   3.929   7.959  13.482
49534W        W14794  21.813  16.040  10.675
49535W        W14795  28.562  33.368  11.240
49536W        W14796  30.956  42.497  14.908
49537W        W14797  19.575   3.976  10.720
49538W        W14798  33.621  18.529  13.886
49539W        W14799   1.979  23.687  12.972
49540W        W14800  15.027   4.445   1.321
49541W        W14801  44.025  11.844   2.428
49542W        W14802  18.030  26.651   3.665
49543W        W14803  11.744  20.970  14.156
49544W        W14804  19.720  42.692   2.692
49545W        W14805   6.587   9.118  13.866
49546W        W14806  38.926  30.529   3.899
49547W        W14807  41.279  12.235   5.009
49548W        W14808   8.310  17.710   1.394
49549W        W14809  37.405  12.053  10.779
49550W        W14810   8.259  20.612  13.922
49551W        W14811  18.780  25.018   1.857
49552W        W14812  13.775  37.910  12.102
49553W        W14813  43.401  34.307  13.360
49554W        W14814  32.896   0.028  13.032
49555W        W14815  29.574  32.923  11.864
49556W        W14816  25.193  36.277  14.895
49557W        W14817   3.987  31.693  14.371
49558W        W14818  34.572  41.500   2.335
49559W        W14819  29.927  34.908   1.372
49560W        W14820  11.131  19.798  13.918
49561W        W14821  38.888  20.282   4.155
49562W        W14822  13.316  35.907   2.695
49563W        W14823  19.031  26.110   4.035
49564W        W14824  25.697  27.606   1.702
49565W        W14825  25.492  36.438  12.611
49566W        W14826  37.240  28.609   0.889
49567W        W14827  38.554  44.813  14.271
49568W        W14828  30.003  14.584  12.426
49569W        W14829   8.296  36.140   3.817
49570W        W14830  31.618  30.438   2.801
49571W        W14831  11.925   9.359  11.568
49572W        W14832   3.188  13.688   3.767
49573W        W14833  13.487  33.053  12.431
49574W        W14834   9.865  13.177  13.552
49575W        W14835  26.069   6.728   0.067
49576W        W14836  18.015  32.193   1.662
49577W        W14837  11.724  25.577  13.535
49578W        W14838  28.664   9.716   2.474
49579W        W14839   4.862  14.582   0.257
49580W        W14840   4.474  43.027   2.868
49581W        W14841   9.198   1.276  10.764
49582W        W14842   2.403  26.117   0.878
49583W        W14843  26.886  27.196   3.660
49584W        W14844  30.932  38.041   1.692
49585W        W14845   4.124  38.641   2.806
49586W        W14846  41.787  16.751   3.199
49587W        W14847  30.781  24.088  13.040
49588W        W14848  29.656  35.859  11.670
49589W        W14849  18.393  10.387  12.840
49590W        W14850  13.736  34.416  12.017
49591W        W14851  23.515  44.460   0.427
49592W        W14852  33.376  10.211   0.489
49593W        W14853  25.596  29.112   1.179
49594W        W14854  36.045  11.588  11.215
49595W        W14855   0.235  35.596   4.585
49596W        W14856  12.697   9.201   0.330
49597W        W14857   2.203  24.457   4.115
49598W        W14858   7.003  20.711  13.115
49599W        W14859  37.346  15.071  12.985
49600W        W14860  42.906  16.345  12.252
49601W        W14861  38.640   0.186   3.313
49602W        W14862  22.211   2.889   4.488
49603W        W14863  14.197   3.720   0.874
49604W        W14864  38.000  41.299  10.776
49605W        W14865   7.088  40.491  12.511
49606W        W14866  40.763  44.719   0.873
49607W        W14867   1.616  42.201  12.542
49608W        W14868   7.552   1.463   3.280
49609W        W14869  21.314   6.708   3.197
49610W        W14870  27.932  14.130   1.751
49611W        W14871   8.336  43.324  12.835
49612W        W14872  29.227  42.530   4.096
49613W        W14873   6.753   5.867   3.197
49614W        W14874   4.804  31.199  11.061
49615W        W14875  24.128  33.643   3.663
49616W        W14876   5.919  16.538   2.641
49617W        W14877   1.808  24.895   1.232
49618W        W14878  16.972   6.312   1.542
49619W        W14879   0.842  37.565   4.111
49620W        W14880  25.390  15.823   1.439
49621W        W14881  26.224   9.198   4.521
49622W        W14882  26.222  36.316   2.646
49623W        W14883  33.705   8.241  12.010
49624W        W14884  28.154  39.218  13.019
49625W        W14885  11.714  37.284  13.853
49626W        W14886  20.160  39.833   2.899
49627W        W14887  17.882  15.390   0.147
49628W        W14888  41.046  32.088  14.846
49629W        W14889  31.893  27.158   4.764
49630W        W14890  44.275  14.244  12.109
49631W        W14891  37.117  35.152   2.065
49632W        W14892  20.118   9.476  11.769
49633W        W14893  41.917  36.349   4.217
49634W        W14894   8.963  38.221   0.439
49635W        W14895  39.424  21.799   1.811
49636W        W14896  21.528  37.116   1.491
49637W        W14897  34.758  10.692  14.025
49638W        W14898  21.309  20.673   4.089
49639W        W14899  15.890  35.882   5.009
49640W        W14900   3.821  44.424   2.780
49641W        W14901  41.321  26.435  14.967
49642W        W14902  18.830  39.574  12.862
49643W        W14903   0.791  13.280   0.561
49644W        W14904  39.003   3.423  11.941
49645W        W14905  43.559  29.130   3.301
49646W        W14906  39.034  11.276  13.486
49647W        W14907  21.030   4.983  10.322
49648W        W14908  12.556  18.541  13.485
49649W        W14909   7.400  14.353  13.429
49650W        W14910  41.403  31.510   1.161
49651W        W14911  18.033  24.966   5.162
49652W        W14912  29.592  23.250  14.853
49653W        W14913  35.894  11.411  12.517
49654W        W14914   8.209   0.441   1.346
49655W        W14915  14.828  29.007  14.484
49656W        W14916  17.360  30.062  13.075
49657W        W14917   1.915   9.116   3.348
49658W        W14918  39.524  17.173   4.275
49659W        W14919  27.532  40.951  11.577
49660W        W14920   4.895  32.520  11.733
49661W        W14921  25.034   6.203  12.936
49662W        W14922  30.924  19.780   1.341
49663W        W14923  19.765   3.269  14.883
49664W        W14924  37.896   3.530   4.709
49665W        W14925  23.229  27.628   1.780
49666W        W14926   4.775   4.732  10.637
49667W        W14927  17.591  12.818   3.645
49668W        W14928   2.851  28.569   0.416
49669W        W14929   9.801  38.977   2.741
49670W        W14930   5.605  28.648   4.511
49671W        W14931  40.711  12.868  11.606
49672W        W14932   8.704   8.539  10.264
49673W        W14933  25.503  23.595   4.600
49674W        W14934  23.223  11.735  13.038
49675W        W14935  19.979   9.900   1.002
49676W        W14936   2.744  17.685  11.422
49677W        W14937  41.447  24.507  14.374
49678W        W14938  44.843  16.771  11.656
49679W        W14939  18.988  14.706   3.556
49680W        W14940  26.771  36.696  12.663
49681W        W14941   9.997   4.808   1.772
49682W        W14942  44.498  19.968   1.932
49683W        W14943  16.592  20.040   0.882
49684W        W14944  39.136  22.062   2.185
49685W        W14945   1.252   3.368   0.535
49686W        W14946  43.709  17.523   2.229
49687W        W14947  25.690   3.782   1.912
49688W        W14948  20.985  17.699  12.648
49689W        W14949  31.359  34.939  12.587
49690W        W14950  43.580  29.551   1.806
49691W        W14951   3.004   0.840  10.756
49692W        W14952  30.445   9.286  14.596
49693W        W14953  15.663  44.675   1.264
49694W        W14954  34.997  16.793   4.433
49695W        W14955   1.731  20.993  13.809
49696W        W14956   1.507  43.414   0.406
49697W        W14957  26.107   6.259   4.568
49698W        W14958  24.657   1.043  11.699
49699W        W14959  40.326  28.213  14.752
49700W        W14960  27.003  31.920   3.856
49701W        W14961  21.098  13.445   2.150
49702W        W14962  16.803  28.449   0.699
49703W        W14963  35.710  40.051  13.032
49704W        W14964  41.442   1.892   1.337
49705W        W14965  22.955  39.303  13.919
49706W        W14966   6.271   0.446  14.076
49707W        W14967  30.512   6.455  13.952
49708W        W14968  38.121  22.642   0.854
49709W        W14969  28.069  41.338  13.996
49710W        W14970  19.130  13.817   3.695
49711W        W14971  30.184  13.854   4.124
49712W        W14972  33.399  44.953   4.571
49713W        W14973   1.098  21.660  13.432
49714W        W14974  40.467  36.387  13.161
49715W        W14975  26.686  23.165   0.783
49716W        W14976  37.767  12.466   3.080
49717W        W14977  23.347  34.200   1.727
49718W        W14978  39.451  14.118  10.802
49719W        W14979  25.936  12.804  13.478
49720W        W14980  44.737  38.773   2.421
49721W        W14981  37.344   0.563   4.202
49722W        W14982  39.680   2.185   3.993
49723W        W14983  41.274   3.698  13.415
49724W        W14984  18.740   5.302  11.479
49725W        W14985  33.864   7.552   0.944
49726W        W14986  26.049  16.152  12.605
49727W        W14987  11.635  23.864   2.288
49728W        W14988   6.191   6.226  13.811
49729W        W14989  16.089  21.528  12.898
49730W        W14990  23.288  12.694   4.305
49731W        W14991  34.694   2.072  11.248
49732W        W14992  15.904  42.742   4.117
49733W        W14993   5.290  31.284  12.376
49734W        W14994  20.578  19.272   1.047
49735W        W14995  15.210  29.355   2.781
49736W        W14996  29.983  25.646  12.288
49737W        W14997  44.920  34.577  14.388
49738W        W14998  22.723  17.166   1.245
49739W        W14999   2.866  23.298   3.241
49740W        W15000  43.927   3.122  13.020
49741W        W15001  22.948  24.680  13.357
49742W        W15002  40.918  10.347  14.176
49743W        W15003  14.071  24.935   0.297
49744W        W15004  25.720  22.057  10.473
49745W        W15005   0.685  35.791  12.759
49746W        W15006  20.537  33.191   0.465
49747W        W15007  18.248  11.085   1.821
49748W        W15008  26.628   3.135  11.973
49749W        W15009   5.389  10.127  12.011
49750W        W15010  38.824  26.873   0.284
49751W        W15011  22.462  29.464  12.576
49752W        W15012  37.132  16.195   1.850
49753W        W15013  30.365  38.290   2.000
49754W        W15014   9.170  29.923  11.529
49755W        W15015  35.946  35.051   3.563
49756W        W15016  22.575  30.145   0.759
49757W        W15017  39.228   3.817   2.577
49758W        W15018   7.417  17.013   3.685
49759W        W15019  11.035  16.177   0.063
49760W        W15020  41.394   1.459   0.807
49761W        W15021   9.898   5.810   2.190
49762W        W15022  26.653   6.661   1.492
49763W        W15023  39.300  23.623   1.810
49764W        W15024  21.599   4.024   1.836
49765W        W15025  13.323   6.138   4.591
49766W        W15026  25.681  42.445   0.272
49767W        W15027  19.195  32.095   2.050
49768W        W15028  30.250  41.823  12.240
49769W        W15029  10.607  38.512  11.543
49770W        W15030   6.691  20.803   0.859
49771W        W15031  30.202  35.601  13.257
49772W        W15032   4.784  42.157   3.722
49773W        W15033  32.536  11.871  12.012
49774W        W15034  24.281   9.827  13.303
49775W        W15035  18.720   2.409   1.140
49776W        W15036   8.363  37.759  14.933
49777W        W15037  14.694  31.606  10.772
49778W        W15038  37.379  43.196   1.919
49779W        W15039  26.191  36.583   3.109
49780W        W15040  30.861   5.035  11.029
49781W        W15041  13.003  40.492  12.736
49782W        W15042   3.184  10.258  11.622
49783W        W15043   6.695   6.932  14.237
49784W        W15044  21.505  24.784   2.738
49785W        W15045  38.385  17.266  14.481
49786W        W15046  26.908  39.459   2.372
49787W        W15047  35.655  14.266  13.841
49788W        W15048  14.241  16.529   1.435
49789W        W15049  26.472  22.661  10.700
49790W        W15050  14.837  27.505   2.159
49791W        W15051  28.466  14.226  10.494
49792W        W15052  29.939   1.268  12.836
49793W        W15053   4.753   9.871  11.684
49794W        W15054  20.097  22.251  12.783
49795W        W15055  21.684   8.978   1.360
49796W        W15056   0.405   9.710  13.285
49797W        W15057  11.327   5.576   1.685
49798W        W15058  42.392  44.557   4.612
49799W        W15059  29.347  31.102   0.318
49800W        W15060   2.731  27.562   4.260
49801W        W15061  17.320   3.028   1.482
49802W        W15062   4.868   4.344   1.481
49803W        W15063  32.613  12.781   1.218
49804W        W15064  12.096  22.432  14.423
49805W        W15065  42.363  41.842   1.304
49806W        W15066  25.320  24.506   3.558
49807W        W15067  18.657  22.823   3.048
49808W        W15068   2.547  12.329  11.691
49809W        W15069  43.368   2.794  13.771
49810W        W15070  38.426  30.506  13.431
49811W        W15071  35.344  23.447   3.870
49812W        W15072  37.444  30.746  11.194
49813W        W15073  26.160  11.818   2.667
49814W        W15074  15.289  13.744  11.959
49815W        W15075  27.001  12.904   4.656
49816W        W15076  26.588  14.153  14.076
49817W        W15077   9.233  39.661  14.481
49818W        W15078  19.700  40.047  13.626
49819W        W15079  28.185   8.166   2.253
49820W        W15080  34.880   1.344   3.291
49821W        W15081  28.436   1.992   1.706
49822W        W15082  32.285  25.624   3.134
49823W        W15083  23.631  13.288   2.692
49824W        W15084  35.333  30.630  14.919
49825W        W15085  23.991  37.153   5.500
49826W        W15086  39.264  24.294  12.592
49827W        W15087  35.021   2.264  13.954
49828W        W15088  43.254   9.953   5.009
49829W        W15089  31.314  32.539  14.508
49830W        W15090  27.048  34.301  14.494
49831W        W15091  26.516  32.576  14.723
49832W        W15092  30.062  23.473  14.911
49833W        W15093   8.188  18.059  13.866
49834W        W15094   1.363  21.441   1.390
49835W        W15095  25.261  21.535  11.187
49836W        W15096   4.209  23.596   4.627
49837W        W15097  42.362  18.343   1.383
49838W        W15098  32.655  14.860  13.780
49839W        W15099   7.632  25.584  11.949
49840W        W15100  21.673   6.915   0.312
49841W        W15101  35.135  24.438  14.038
49842W        W15102  30.276  11.880  13.934
49843W        W15103   3.976  40.601   1.891
49844W        W15104  30.560  26.983  13.062
49845W        W15105   4.384  28.150  11.624
49846W        W15106  38.832   8.486   2.702
49847W        W15107  37.812  18.916   1.456
49848W        W15108  17.689  31.958   3.861
49849W        W15109  38.887   7.757  11.222
49850W        W15110  11.741  41.587  11.444
49851W        W15111  44.379  10.535   4.191
49852W        W15112  17.673  39.534  13.740
49853W        W15113  43.358  21.241   3.387
49854W        W15114   5.105  43.479  12.969
49855W        W15115   0.839  25.626  12.348
49856W        W15116  26.983  23.500  14.329
49857W        W15117  37.474  19.800  12.567
49858W        W15118  22.507   9.199  12.523
49859W        W15119  25.923  18.725   3.084
49860W        W15120  14.630  27.654   0.211
49861W        W15121   3.530   4.256   4.069
49862W        W15122   1.978  23.010   0.389
49863W        W15123  33.099  17.170  12.022
49864W        W15124   9.314  38.314  13.750
49865W        W15125  14.203  13.789  13.529
49866W        W15126  11.323   9.381   4.123
49867W        W15127  25.219   8.411   3.231
49868W        W15128  13.671  33.803   3.539
49869W        W15129  35.391  31.477   0.962
49870W        W15130  31.961  37.220  11.638
49871W        W15131  40.624  42.488   1.070
49872W        W15132  31.612  19.800  14.506
49873W        W15133  26.249  28.753  14.282
49874W        W15134  23.772  11.585   4.131
49875W        W15135  40.378  28.706   2.182
49876W        W15136  15.116  40.004  11.517
49877W        W15137  20.277   1.439  12.962
49878W        W15138   3.208  20.793  10.580
49879W        W15139  36.154  24.977   3.251
49880W        W15140  29.265  14.119   0.033
49881W        W15141   1.514  18.169   4.576
49882W        W15142  26.119   7.959   0.311
49883W        W15143  21.523   7.446  12.515
49884W        W15144  44.831  23.805   1.137
49885W        W15145   0.999  32.436  11.013
49886W        W15146   1.344  41.871  14.394
49887W        W15147  29.208  35.804  12.993
49888W        W15148  21.288   0.038  11.093
49889W        W15149  12.198  27.448   0.745
49890W        W15150   2.402  25.025   3.554
49891W        W15151   2.762  24.118  10.682
49892W        W15152  39.385  39.280  13.341
49893W        W15153  30.753  13.868  12.308
49894W        W15154  39.958  26.041  10.681
49895W        W15155   8.287  34.178   3.829
49896W        W15156  25.601   3.263  12.107
49897W        W15157  38.863  41.453   4.949
49898W        W15158  14.366  11.895   0.621
49899W        W15159  36.517  41.111   0.747
49900W        W15160  31.822  35.454   2.466
49901W        W15161   3.814  23.649   2.777
49902W        W15162   7.209  14.552  13.863
49903W        W15163  35.548  21.023   4.109
49904W        W15164  43.591  32.998  10.973
49905W        W15165  19.175  19.818   3.090
49906W        W15166  25.698   7.282  12.852
49907W        W15167  44.422  37.667  14.804
49908W        W15168  39.696  40.751   4.581
49909W        W15169  41.982   9.802  13.571
49910W        W15170  18.529  16.532   2.773
49911W        W15171  17.098   0.612  14.534
49912W        W15172  29.608   0.537   1.235
49913W        W15173  11.380   0.816   3.197
49914W        W15174  32.866  31.725   4.988
49915W        W15175  24.075  24.513   4.051
49916W        W15176  42.831  13.550   1.432
49917W        W15177   7.578   8.432  12.326
49918W        W15178  29.842  30.970  12.022
49919W        W15179   7.438  28.695   2.319
49920W        W15180  23.834   0.007  12.259
49921W        W15181  43.178   7.014  13.570
49922W        W15182  39.403   6.416   0.772
49923W        W15183  35.535  30.421   1.553
49924W        W15184   6.245  26.683   2.127
49925W        W15185  34.668  44.406   1.297
49926W        W15186  39.936  15.882   4.652
49927W        W15187   9.812  26.156  13.408
49928W        W15188  20.032  38.594   1.895
49929W        W15189  28.465  24.673  12.889
49930W        W15190  22.155  33.007  10.184
49931W        W15191  17.645  18.334   1.484
49932W        W15192  25.555  31.934   1.240
49933W        W15193  23.216  40.071  11.692
49934W        W15194   2.142  27.792  11.120
49935W        W15195   1.611  12.966   4.458
49936W        W15196  18.798  40.607  12.903
49937W        W15197  42.598  10.308  12.671
49938W        W15198  20.655  29.819  14.114
49939W        W15199  13.114  41.347   5.027
49940W        W15200  28.697  29.980   0.836
49941W        W15201   1.013  14.410  12.506
49942W        W15202   9.406  31.614   2.642
49943W        W15203  15.194  16.613   1.674
49944W        W15204  37.351  40.759   0.250
49945W        W15205   8.686   8.621  14.050
49946W        W15206  40.414  36.049   0.794
49947W        W15207  10.659  26.662   2.568
49948W        W15208   0.280  37.645  12.861
49949W        W15209  39.915  12.771  14.792
49950W        W15210  10.098  35.357   4.099
49951W        W15211  43.745  39.259   0.266
49952W        W15212  33.505  39.082  12.474
49953W        W15213   6.095   9.581  14.455
49954W        W15214  12.899  35.058  11.741
49955W        W15215  30.159   7.290  11.362
49956W        W15216  34.892  24.572  10.605
49957W        W15217  16.543  10.439  11.011
49958W        W15218  31.838   7.775   0.538
49959W        W15219   7.658  36.849  11.550
49960W        W15220  40.959  29.944   0.760
49961W        W15221  21.313  16.699   3.177
49962W        W15222  26.160  18.754  10.619
49963W        W15223  29.863  15.784  12.041
49964W        W15224  41.505   2.881  10.293
49965W        W15225   3.011  41.341  10.482
49966W        W15226  37.345  25.469   0.408
49967W        W15227   7.846  15.709  14.322
49968W        W15228  31.909  43.835   2.697
49969W        W15229  40.268  20.745  13.387
49970W        W15230   9.642   5.805   0.817
49971W        W15231   0.822  28.939   0.456
49972W        W15232  14.764  22.973   3.069
49973W        W15233  28.442  28.250  10.780
49974W        W15234   5.208  11.297   3.231
49975W        W15235   9.792   4.867  12.633
49976W        W15236  23.238  19.304   2.379
49977W        W15237  30.760   5.426  14.342
49978W        W15238  18.114  26.014  13.391
49979W        W15239  23.316  39.076   3.592
49980W        W15240  30.167   1.799   2.238
49981W        W15241  29.374  25.672   0.544
49982W        W15242  43.099  43.440  13.481
49983W        W15243  12.840  18.055  14.246
49984W        W15244  26.106   6.222  13.934
49985W        W15245   1.604  16.019  12.829
49986W        W15246   1.934  35.319   3.751
49987W        W15247  34.026   4.641   0.121
49988W        W15248  12.651  43.337  12.664
49989W        W15249  35.583  22.728   4.524
49990W        W15250   1.930  28.806  10.971
49991W        W15251  23.933  44.726   4.086
49992W        W15252   8.628  29.515  12.037
49993W        W15253  22.284  21.577   2.837
49994W        W15254  22.954  39.953  13.628
49995W        W15255  18.027  22.726  13.540
49996W        W15256   2.631  40.869   4.613
49997W        W15257  29.113   9.680  13.479
49998W        W15258  40.664   9.965  11.476
49999W        W15259  41.038  39.837   0.049
50000W        W15260   8.869  21.072   1.223
50001W        W15261  41.098  44.038   3.715
50002W        W15262  27.784   4.299   0.973
50003W        W15263   8.235  20.650   4.612
50004W        W15264  30.318  28.762  10.805
50005W        W15265  27.482  27.721   3.221
50006W        W15266  27.640  17.682  14.541
50007W        W15267  27.152  30.320  10.775
50008W        W15268   6.858  38.886   3.580
50009W        W15269  27.999  21.631   3.014
50010W        W15270  28.173  39.786  14.243
50011W        W15271  44.324  18.466  14.334
50012W        W15272  12.269   3.928  12.490
50013W        W15273  30.078  23.603   3.783
50014W        W15274  29.460  34.679   4.151
50015W        W15275  30.911   6.797  11.619
50016W        W15276  32.905  42.659  14.779
50017W        W15277  37.811  28.100  11.230
50018W        W15278  28.748  10.217  14.711
50019W        W15279  25.037  41.501   2.754
50020W        W15280  29.932  29.458   4.330
50021W        W15281  38.378  16.609   2.260
50022W        W15282  20.053  10.599   3.700
50023W        W15283  44.736  25.166   2.615
50024W        W15284   7.150  20.155   4.976
50025W        W15285   6.226  12.859   0.699
50026W        W15286   3.374  20.953   0.754
50027W        W15287  41.750  21.668   1.714
50028W        W15288  28.484  35.466  12.516
50029W        W15289   0.394   8.367   4.678
50030W        W15290  20.057  15.581   0.961
50031W        W15291  22.292  34.016   4.633
50032W        W15292  14.593  35.513  12.488
50033W        W15293  13.932   2.504   0.528
50034W        W15294  35.577  33.095   1.269
50035W        W15295  39.700  11.232  10.243
50036W        W15296  28.590  14.075  11.937
50037W        W15297  15.821  19.838  14.782
50038W        W15298  28.517  15.018   3.981
50039W        W15299  11.544  13.159  12.861
50040W        W15300   3.292   2.722   3.289
50041W        W15301   0.322   8.904   1.860
50042W        W15302  35.298  37.207   4.042
50043W        W15303  35.951  34.372   1.473
50044W        W15304  29.567   9.663  13.146
50045W        W15305  15.576  33.603   0.229
50046W        W15306   8.198  39.433   2.689
50047W        W15307  28.746   3.002   3.611
50048W        W15308  27.368  20.442   3.262
50049W        W15309  40.788  14.238  13.899
50050W        W15310  19.328  32.991   0.421
50051W        W15311  11.772   0.356   2.835
50052W        W15312   2.781  19.789   1.182
50053W        W15313  19.800  36.403  14.850
50054W        W15314  33.497  40.055  12.537
50055W        W15315  44.770  44.854  12.884
50056W        W15316  40.341  42.233   3.858
50057W        W15317  37.100  44.082  12.654
50058W        W15318  18.637  38.459  10.899
50059W        W15319  26.503  42.546  12.491
50060W        W15320  20.234  42.768   2.816
50061W        W15321  21.579  34.632   3.317
50062W        W15322  35.592  34.439   3.160
50063W        W15323  28.905  23.689  12.013
50064W        W15324  29.399   8.893   1.736
50065W        W15325  31.142  43.377  11.471
50066W        W15326  19.012  38.663  12.623
50067W        W15327   8.805  24.369  13.631
50068W        W15328  39.563  14.185   4.194
50069W        W15329   8.918   8.833  13.542
50070W        W15330   8.026  16.774  14.275
50071W        W15331  34.095  26.832  10.458
50072W        W15332   7.417  38.335  13.988
50073W        W15333  20.988  30.091   3.258
50074W        W15334  40.670  36.124  14.047
50075W        W15335   7.747  15.620   3.355
50076W        W15336  31.611  23.711  10.573
50077W        W15337   1.776  35.216  10.789
50078W        W15338  14.670  32.713   1.096
50079W        W15339  29.327   8.929   4.151
50080W        W15340  40.844  42.394   4.766
50081W        W15341   8.630  28.216  13.398
50082W        W15342  28.706  43.693  13.722
50083W        W15343  39.336  23.388   5.067
50084W        W15344  18.485  11.269  12.392
50085W        W15345  26.957  14.693   3.173
50086W        W15346  41.894  42.744   2.960
50087W        W15347  41.846  32.392   2.194
50088W        W15348   9.739  19.590   4.565
50089W        W15349   9.265  13.293  11.328
50090W        W15350  34.471  41.078   3.206
50091W        W15351  39.770  20.990   2.360
50092W        W15352  39.124  27.950   2.259
50093W        W15353  12.809  43.449  13.673
50094W        W15354  38.076   9.951   1.369
50095W        W15355  12.875  43.307  13.160
50096W        W15356  37.613  15.890   4.985
50097W        W15357   6.248  21.097   1.708
50098W        W15358  28.188  27.985   0.905
50099W        W15359  20.450  24.023   2.240
50100W        W15360  44.397  39.522  13.927
50101W        W15361   6.255  20.506   1.637
50102W        W15362  22.850  41.020   2.013
50103W        W15363  44.490  20.427  14.695
50104W        W15364  18.239  36.173  13.509
50105W        W15365  44.919  37.448   0.864
50106W        W15366  31.069  16.636  13.318
50107W        W15367  30.932  39.858  11.078
50108W        W15368  24.341  31.601  14.327
50109W        W15369  29.127  14.943   2.179
50110W        W15370  26.126   4.987   4.968
50111W        W15371  22.142  18.637  13.276
50112W        W15372  12.392  29.352   2.399
50113W        W15373  16.632  35.091  10.897
50114W        W15374  42.916  23.988  13.979
50115W        W15375  18.673   4.373   0.756
50116W        W15376  43.082  34.818  11.080
50117W        W15377   9.939  32.447   3.694
50118W        W15378  18.149  18.419   3.647
50119W        W15379  31.145   1.170   4.814
50120W        W15380  19.297  36.629  11.167
50121W        W15381  25.595   1.366   4.116
50122W        W15382  37.572   6.312  14.109
50123W        W15383  35.573  19.782  14.851
50124W        W15384  19.311  17.818  13.032
50125W        W15385   9.111  40.414  14.976
50126W        W15386   6.281  12.120   0.230
50127W        W15387   2.491  34.674  13.476
50128W        W15388  15.355  34.342  12.514
50129W        W15389  32.336  43.982  13.819
50130W        W15390  13.153   3.845   0.252
50131W        W15391  29.029  13.362  13.350
50132W        W15392   0.747   0.357   4.825
50133W        W15393  16.952  33.367  11.531
50134W        W15394  10.800  29.965  13.886
50135W        W15395  21.903  37.295   4.670
50136W        W15396  18.304  11.981   1.119
50137W        W15397  10.854  26.944   2.199
50138W        W15398   8.701  14.694  11.657
50139W        W15399  42.878  30.600  11.071
50140W        W15400   2.668   1.485   0.540
50141W        W15401  13.634  31.049  13.425
50142W        W15402  41.800   7.218  13.556
50143W        W15403  25.032  13.667  13.975
50144W        W15404   4.562  37.173   2.917
50145W        W15405  40.752  17.680  10.764
50146W        W15406  15.683  25.483  14.892
50147W        W15407   2.500   5.318   0.370
50148W        W15408  32.149  26.024   4.286
50149W        W15409  18.695  34.361  12.389
50150W        W15410  21.191  42.991  13.550
50151W        W15411   7.846  27.690  12.875
50152W        W15412  22.244   1.059  12.895
50153W        W15413  12.755   9.308  12.234
50154W        W15414  19.143  32.698  11.274
50155W        W15415  16.169  37.656   0.821
50156W        W15416  39.851  16.943   3.620
50157W        W15417  34.650  22.200   1.775
50158W        W15418   8.829   9.394  10.892
50159W        W15419  19.728  36.382   3.415
50160W        W15420  19.508  25.161  11.251
50161W        W15421  21.242  33.150   2.923
50162W        W15422  26.648  15.613   4.070
50163W        W15423  33.173   6.135   2.186
50164W        W15424  11.208   2.793   4.552
50165W        W15425  35.926  25.710  11.583
50166W        W15426  39.295  35.386   3.287
50167W        W15427  13.823  34.416  13.604
50168W        W15428  40.506  28.203   2.276
50169W        W15429   6.771   4.528   2.333
50170W        W15430  10.768   8.380  12.868
50171W        W15431  37.467  27.440   0.298
50172W        W15432  43.614   4.331  13.470
50173W        W15433  37.183  29.326   1.548
50174W        W15434  41.771   6.385  14.732
50175W        W15435  30.074   3.138   2.716
50176W        W15436  27.473  40.378  10.735
50177W        W15437  14.215  31.621  11.463
50178W        W15438  43.739  20.981   2.780
50179W        W15439  15.701   7.734  14.993
50180W        W15440   3.620  35.714  11.969
50181W        W15441  16.177  23.665  14.945
50182W        W15442  26.662  13.524   0.500
50183W        W15443   9.522  20.441   4.127
50184W        W15444  32.994  17.016  13.507
50185W        W15445  42.536  11.708   1.526
50186W        W15446   7.623  30.448   4.622
50187W        W15447   0.431   7.812   1.961
50188W        W15448   6.681   8.309  13.401
50189W        W15449  25.501  31.954  12.430
50190W        W15450  38.196  25.098  14.462
50191W        W15451  41.496  15.845  11.134
50192W        W15452  37.813  26.169   1.561
50193W        W15453  22.660   9.888   5.054
50194W        W15454  10.080  41.539   4.564
50195W        W15455  29.143  30.377  13.291
50196W        W15456  15.555   3.977  13.810
50197W        W15457   4.942  10.873   2.319
50198W        W15458  34.015   7.634  10.717
50199W        W15459  20.703  17.295  11.455
50200W        W15460  27.838  31.133   0.912
50201W        W15461   2.175  16.093   4.931
50202W        W15462   3.507  20.201  13.400
50203W        W15463  21.123  35.965   3.268
50204W        W15464  32.333  31.756   2.731
50205W        W15465  13.158  22.013   0.811
50206W        W15466  27.893  31.810  11.900
50207W        W15467   7.096  43.533  11.969
50208W        W15468  26.485   4.916  13.437
50209W        W15469   0.268  42.068   2.413
50210W        W15470   2.599  40.891  12.512
50211W        W15471  39.755  40.843  12.598
50212W        W15472  44.276   1.798  12.075
50213W        W15473   3.699  10.717  10.531
50214W        W15474  18.057   1.785  13.673
50215W        W15475  38.346  36.119   4.889
50216W        W15476   0.353  17.536   0.992
50217W        W15477   6.330   0.321   0.004
50218W        W15478   0.557  32.672  12.521
50219W        W15479  32.438  44.818  11.043
50220W        W15480  39.245  41.354   0.829
50221W        W15481  34.387  41.913  13.793
50222W        W15482  44.887  21.928   0.860
50223W        W15483  29.204  38.453   4.682
50224W        W15484  19.636   1.743  10.869
50225W        W15485  25.210  11.347   3.105
50226W        W15486  34.957  18.624   3.711
50227W        W15487  24.628  38.526  11.129
50228W        W15488  41.361  34.675  13.854
50229W        W15489  27.158  23.600   1.730
50230W        W15490  14.634   1.741  13.084
50231W        W15491  15.733  39.790  14.367
50232W        W15492  25.932  32.001  14.749
50233W        W15493  36.395  23.010   0.843
50234W        W15494  19.240   9.605   1.764
50235W        W15495  18.293  13.727   0.835
50236W        W15496   2.307  35.851  12.981
50237W        W15497  25.744  36.840   3.226
50238W        W15498  14.399  27.644  12.726
50239W        W15499  40.675   1.499  10.996
50240W        W15500   4.968  15.193   1.323
50241W        W15501  14.600  11.699   2.725
50242W        W15502  30.038  17.707  13.214
50243W        W15503  29.587  20.530  14.787
50244W        W15504   9.098  44.723  14.442
50245W        W15505  35.939  12.793   4.666
50246W        W15506  17.606  25.720   4.513
50247W        W15507   2.829  44.938  13.347
50248W        W15508  32.990  26.993   0.279
50249W        W15509  30.422   0.809   1.496
50250W        W15510  28.121  38.599   3.992
50251W        W15511  15.528  16.018  11.080
50252W        W15512  12.241  11.866  12.349
50253W        W15513  14.991  16.585  14.085
50254W        W15514   1.518   4.085  14.411
50255W        W15515  15.122   1.395   4.577
50256W        W15516  41.014  20.562   3.198
50257W        W15517   5.682   5.381  12.874
50258W        W15518  11.157  17.690   1.448
50259W        W15519  37.157  33.249  10.971
50260W        W15520  12.634  24.997  11.484
50261W        W15521   0.799  30.074  12.844
50262W        W15522  30.031  34.133  11.355
50263W        W15523  41.353  35.332  13.416
50264W        W15524  37.114  41.905   1.943
50265W        W15525   2.539  25.058  12.449
50266W        W15526   6.182   6.879  12.566
50267W        W15527  36.069  26.357   2.232
50268W        W15528  18.783  18.104   2.731
50269W        W15529  30.531  39.295   4.171
50270W        W15530  27.926  28.434   0.853
50271W        W15531  24.318  31.417  12.821
50272W        W15532   2.213  41.906  13.341
50273W        W15533   1.480  16.081  14.543
50274W        W15534  31.074  35.094  10.815
50275W        W15535  34.636  17.164   4.211
50276W        W15536  12.156   6.463   1.315
50277W        W15537  31.461  35.831  10.798
50278W        W15538  33.928   7.331  14.607
50279W        W15539  19.605  35.034   1.864
50280W        W15540  18.510   9.256   0.714
50281W        W15541  13.205  12.393   3.691
50282W        W15542  38.567  37.872  13.048
50283W        W15543  19.301  33.214   0.876
50284W        W15544  11.050  22.072   0.501
50285W        W15545  20.490  30.680  13.963
50286W        W15546   1.490  16.613   4.150
50287W        W15547   9.155  10.308   0.474
50288W        W15548   0.012  37.311   3.572
50289W        W15549  28.568   6.263   0.711
50290W        W15550   5.361  27.474   2.787
50291W        W15551  34.485  31.681  11.169
50292W        W15552  41.966  23.319  12.148
50293W        W15553  29.767  30.744  10.327
50294W        W15554  11.791  26.818  11.601
50295W        W15555  33.089  23.016  12.375
50296W        W15556   1.812  22.511  11.662
50297W        W15557  15.031  20.964   0.801
50298W        W15558   5.940  15.612  11.161
50299W        W15559   1.814  37.060   4.591
50300W        W15560  40.737  19.863  13.912
50301W        W15561  12.337   1.209  12.341
50302W        W15562  39.628  22.459   0.185
50303W        W15563   5.712   3.334   1.622
50304W        W15564  19.889  40.197   4.778
50305W        W15565  23.150  25.389  10.666
50306W        W15566   0.438  33.580   0.422
50307W        W15567  38.727  28.630   0.479
50308W        W15568  41.108  43.244  11.693
50309W        W15569   3.718  33.114  10.675
50310W        W15570  42.955  23.496  11.303
50311W        W15571  10.692  22.305  12.254
50312W        W15572  42.839  38.044   2.710
50313W        W15573  17.033  24.966  10.348
50314W        W15574  40.251   6.438   4.958
50315W        W15575  35.219   8.439   2.810
50316W        W15576  25.459  38.712  14.562
50317W        W15577  11.975  14.684   3.623
50318W        W15578  15.528  41.302  11.465
50319W        W15579  14.176  25.034  14.479
50320W        W15580  17.804  26.957  10.595
50321W        W15581   5.740   3.993  13.912
50322W        W15582  39.847  11.249  12.201
50323W        W15583   6.219   6.206   0.633
50324W        W15584  20.263  42.850  14.369
50325W        W15585  37.818  18.290  13.879
50326W        W15586  16.303   3.625   0.419
50327W        W15587   7.764   4.672  12.041
50328W        W15588  28.159  31.426   0.575
50329W        W15589  26.927  12.880   5.190
50330W        W15590   7.454   2.753  14.470
50331W        W15591   8.193   9.876  13.920
50332W        W15592   3.637  43.809   3.664
50333W        W15593  24.129  33.356   3.214
50334W        W15594  43.696   4.262   4.358
50335W        W15595  41.346  22.272   0.936
50336W        W15596  38.573  14.849  11.109
50337W        W15597  44.124  39.075  12.878
50338W        W15598  35.681  19.830  11.101
50339W        W15599  36.363  18.766   0.243
50340W        W15600  40.363   2.944  12.323
50341W        W15601  24.325   1.278  12.526
50342W        W15602  25.537  12.112   1.804
50343W        W15603  43.361  32.840   4.885
50344W        W15604  14.584  22.148   3.459
50345W        W15605  39.855   4.423  11.166
50346W        W15606   9.265  30.710  12.014
50347W        W15607  34.891  35.835  11.885
50348W        W15608   1.244  30.165  11.915
50349W        W15609  23.459  27.482   0.413
50350W        W15610  22.003  42.716  14.684
50351W        W15611  22.501  26.561  10.736
50352W        W15612  32.029  16.563  10.531
50353W        W15613  41.043  27.469   2.385
50354W        W15614  14.775  22.757   4.335
50355W        W15615  39.906  19.302  10.590
50356W        W15616  24.102  12.112  10.508
50357W        W15617  38.322  36.232   0.701
50358W        W15618  21.742  35.882   1.738
50359W        W15619  36.919  25.077  10.660
50360W        W15620  38.091  33.052  11.919
50361W        W15621   7.848   7.677   4.214
50362W        W15622  25.023   4.844   0.707
50363W        W15623   4.699  14.851   4.543
50364W        W15624  26.375  23.813  11.251
50365W        W15625  18.850  30.115  12.336
50366W        W15626  25.384  29.634   1.834
50367W        W15627  26.953  43.334  12.484
50368W        W15628  12.788  15.445  14.913
50369W        W15629  30.385   0.360   1.228
50370W        W15630  28.882  30.113   0.335
50371W        W15631  17.521  25.675  11.766
50372W        W15632   0.047  43.518  12.511
50373W        W15633   5.580   0.408  12.200
50374W        W15634   6.860  37.245  13.920
50375W        W15635   4.939  32.590  10.711
50376W        W15636  35.402  43.886   4.184
50377W        W15637  22.228  40.369  11.468
50378W        W15638  41.839  22.982  14.832
50379W        W15639  21.925  39.037   3.380
50380W        W15640  33.936  29.101  13.996
50381W        W15641   8.926  22.382   0.410
50382W        W15642  32.414  27.685   4.049
50383W        W15643  28.048   4.912  10.709
50384W        W15644  16.302   8.317  12.323
50385W        W15645   1.912  38.907  13.363
50386W        W15646  11.559  15.775   4.440
50387W        W15647   1.813  39.943   0.136
50388W        W15648  11.296   7.749   2.893
50389W        W15649   0.517  30.747   2.379
50390W        W15650  33.088  15.249   2.988
50391W        W15651  39.955  12.682  11.186
50392W        W15652  38.816   9.845  11.657
50393W        W15653   9.220  31.563  14.491
50394W        W15654  36.051  25.027  13.308
50395W        W15655  19.563   0.797   4.489
50396W        W15656   8.923  26.956  11.955
50397W        W15657  27.203   9.254  12.492
50398W        W15658   4.654  14.860  12.893
50399W        W15659  15.670  35.040  11.406
50400W        W15660  14.590  13.164  10.888
50401W        W15661   6.416  24.762  14.754
50402W        W15662  17.306  38.491  14.498
50403W        W15663  41.248  30.299   2.776
50404W        W15664  14.450   9.335  14.560
50405W        W15665  35.655  15.275   2.744
50406W        W15666   6.198  12.833  13.003
50407W        W15667  13.575  27.886   2.444
50408W        W15668  41.965  44.240  12.990
50409W        W15669  33.114   9.720  11.175
50410W        W15670   6.780  33.218  14.106
50411W        W15671  40.137   5.287  14.166
50412W        W15672   3.420  22.150   0.065
50413W        W15673   5.758  39.425   2.737
50414W        W15674  25.490  30.246   1.952
50415W        W15675  14.586  25.129   4.493
50416W        W15676  18.308  12.309   4.707
50417W        W15677  35.100  23.689   5.061
50418W        W15678  14.824  20.692   3.256
50419W        W15679  16.696  36.544  12.585
50420W        W15680  23.005  26.664   2.143
50421W        W15681  28.633  23.163   4.060
50422W        W15682  42.457  24.313   1.982
50423W        W15683  23.530   0.502  12.515
50424W        W15684  29.643   8.678  14.206
50425W        W15685  42.735  28.506   4.101
50426W        W15686  20.525  40.625  10.752
50427W        W15687  40.267  39.956  12.641
50428W        W15688  24.708  17.279  12.969
50429W        W15689  19.032  26.582  13.132
50430W        W15690  32.928  19.153   1.274
50431W        W15691   9.278  24.849   9.900
50432W        W15692  40.826  24.734  12.919
50433W        W15693  38.357  25.208   2.210
50434W        W15694  33.720  16.543   1.276
50435W        W15695   4.550  44.518   4.994
50436W        W15696  15.199  40.675  13.903
50437W        W15697  33.824  37.866  12.194
50438W        W15698   9.675  42.977  14.006
50439W        W15699  16.152  39.960  13.031
50440W        W15700   6.303  38.318   0.910
50441W        W15701   2.964  31.878  10.985
50442W        W15702  21.276   1.069  13.364
50443W        W15703  19.226  38.867  11.483
50444W        W15704   6.610  43.757  12.003
50445W        W15705  27.366  41.564  13.193
50446W        W15706   1.210  20.214  14.890
50447W        W15707  34.894   4.377   4.117
50448W        W15708  17.822  14.676  14.729
50449W        W15709  33.067  20.855  14.457
50450W        W15710  25.453   3.509  11.688
50451W        W15711  20.051  31.428  11.474
50452W        W15712   8.238  44.205   4.485
50453W        W15713   3.495  15.631   5.062
50454W        W15714  40.997  44.360  10.524
50455W        W15715   5.339   9.644   0.329
50456W        W15716  29.960   8.164   1.784
50457W        W15717  12.367  12.705   0.827
50458W        W15718  21.006  13.655   1.653
50459W        W15719  26.064  16.683  10.656
50460W        W15720  35.542  17.604  14.442
50461W        W15721  33.390  33.877   3.657
50462W        W15722  35.620  23.243  13.502
50463W        W15723  19.231  40.005   3.405
50464W        W15724  22.071  28.941  14.471
50465W        W15725  14.170  25.031   4.801
50466W        W15726   1.175  40.862   4.863
50467W        W15727  32.070  42.931   2.141
50468W        W15728  43.785   1.553   1.280
50469W        W15729  30.370  44.909  10.984
50470W        W15730  15.213  30.846   3.744
50471W        W15731  19.723  40.284  12.128
50472W        W15732   0.513   8.935   0.974
50473W        W15733  43.394  14.148  13.792
50474W        W15734  42.717   9.599   1.833
50475W        W15735  30.217  18.543  12.118
50476W        W15736  40.789  13.648   0.915
50477W        W15737  24.717  11.316   1.977
50478W        W15738  35.839  42.979  14.325
50479W        W15739  26.164   7.486  12.733
50480W        W15740  36.855  13.387   3.775
50481W        W15741  25.036  10.269   2.908
50482W        W15742  21.138   5.946   2.358
50483W        W15743   1.688  29.200   1.218
50484W        W15744   3.761   8.217  12.638
50485W        W15745   8.715   5.941  13.355
50486W        W15746  28.662  41.224   3.074
50487W        W15747  44.989  14.339  12.541
50488W        W15748   9.834  29.522  10.565
50489W        W15749  27.561  29.629  13.392
50490W        W15750  31.143   2.293   4.378
50491W        W15751  44.609  29.451   2.787
50492W        W15752  39.015   5.878  13.432
50493W        W15753  42.419  31.944  11.720
50494W        W15754  12.370  19.491  13.480
50495W        W15755  29.620  15.170  11.854
50496W        W15756  39.535   9.883   3.122
50497W        W15757  34.867  25.199   2.093
50498W        W15758   1.042  31.987   2.016
50499W        W15759  11.195  35.820  14.404
50500W        W15760  23.814   2.250   3.705
50501W        W15761  13.058  21.840   2.231
50502W        W15762  13.333  30.151   3.155
50503W        W15763  24.066  12.740   4.748
50504W        W15764  10.394   6.426   1.641
50505W        W15765   1.365  33.426  14.317
50506W        W15766  41.059  27.548   0.954
50507W        W15767  34.349   7.325  14.276
50508W        W15768  23.562  17.478   0.862
50509W        W15769   4.362  35.947   2.600
50510W        W15770   3.753  29.044   1.274
50511W        W15771  16.096  38.933  10.579
50512W        W15772  13.076   4.798   3.314
50513W        W15773  21.544  23.695  10.562
50514W        W15774   2.145  38.930  12.901
50515W        W15775   5.679  43.328  14.330
50516W        W15776   7.919  44.188   3.118
50517W        W15777  38.374   5.730   4.735
50518W        W15778   7.734  18.672  12.633
50519W        W15779   6.122  28.279  10.117
50520W        W15780   3.378  40.521  11.991
50521W        W15781  20.693   2.786   4.418
50522W        W15782  14.567   5.909  11.676
50523W        W15783  15.099  36.146  12.001
50524W        W15784  41.030   5.450   2.735
50525W        W15785   9.245  22.124   3.674
50526W        W15786  31.841   3.494   3.736
50527W        W15787   8.212  14.608   3.594
50528W        W15788  40.270  26.755   2.192
50529W        W15789  18.186  28.035  14.924
50530W        W15790  38.447  37.392   3.345
50531W        W15791   9.025  25.407  13.548
50532W        W15792  10.209   8.802   4.768
50533W        W15793  41.594  11.447   1.840
50534W        W15794   8.228   1.956  11.015
50535W        W15795  29.682  26.872  12.942
50536W        W15796  33.345  29.783  13.892
50537W        W15797  15.990  21.067  11.974
50538W        W15798  15.217   0.479   4.076
50539W        W15799  35.890   6.695  11.223
50540W        W15800  42.349  13.693   0.677
50541W        W15801  42.974  13.440   1.922
50542W        W15802  15.069  19.823   0.477
50543W        W15803   2.765  44.014  12.379
50544W        W15804  43.425   2.064   0.877
50545W        W15805  43.968  21.971   4.102
50546W        W15806  35.481  11.966  14.971
50547W        W15807   3.217  19.623  12.570
50548W        W15808  20.417  14.809  11.377
50549W        W15809  44.803  15.402   3.547
50550W        W15810  36.819  39.411   1.212
50551W        W15811  17.169  43.533  13.866
50552W        W15812  31.307  12.195  13.399
50553W        W15813  13.546  20.879   2.176
50554W        W15814  35.239   3.274   4.432
50555W        W15815  33.567  26.500  12.887
50556W        W15816  29.629  44.298  11.576
50557W        W15817  31.134  21.328  12.906
50558W        W15818  20.656   7.389   3.275
50559W        W15819  15.251   7.482  12.078
50560W        W15820  38.176  24.278   1.248
50561W        W15821   0.018  20.872  12.599
50562W        W15822  18.470  29.141  10.795
50563W        W15823  10.416  39.009  11.587
50564W        W15824   0.037  35.891   2.882
50565W        W15825   9.737  44.395   3.647
50566W        W15826  18.596  23.319   3.799
50567W        W15827   1.228  43.075  10.977
50568W        W15828   8.875  42.394  12.627
50569W        W15829  35.237  42.239   3.173
50570W        W15830   9.467   1.357  13.974
50571W        W15831   6.524   7.241  11.092
50572W        W15832  27.570  40.494  14.005
50573W        W15833  17.133  14.803  13.940
50574W        W15834  22.049  42.309  13.799
50575W        W15835  41.346  32.802  12.899
50576W        W15836  27.074  37.566   0.407
50577W        W15837  38.805  22.629   2.615
50578W        W15838  12.078  26.209   2.170
50579W        W15839  26.439  38.482  13.768
50580W        W15840  39.813  24.158   2.276
50581W        W15841  14.360   6.491  13.025
50582W        W15842  28.242  28.945  14.904
50583W        W15843  22.239  16.441  12.661
50584W        W15844  40.997  22.204   2.881
50585W        W15845  34.116  37.955  12.631
50586W        W15846  31.892  23.752   3.256
50587W        W15847  39.115  30.680  11.559
50588W        W15848  38.954  24.657   1.082
50589W        W15849  16.084  24.996  10.256
50590W        W15850  36.933   9.411   2.788
50591W        W15851  12.558  18.173   0.937
50592W        W15852  28.285  15.195  13.198
50593W        W15853   8.918   4.114   0.635
50594W        W15854  35.858  15.780   2.746
50595W        W15855  15.145  26.203   0.978
50596W        W15856  25.633  21.279  13.440
50597W        W15857  33.893   7.177   1.917
50598W        W15858  42.600  12.366   0.843
50599W        W15859  13.053  34.259   2.259
50600W        W15860  14.803  26.907  12.087
50601W        W15861  14.894  31.863  12.609
50602W        W15862  16.692   7.780  11.730
50603W        W15863  28.146  34.696   4.721
50604W        W15864  25.936  10.192   3.797
50605W        W15865  24.157   0.923  13.459
50606W        W15866  41.056   9.213   4.262
50607W        W15867   6.650  42.991  13.344
50608W        W15868  17.002  35.088   0.324
50609W        W15869  33.843  40.600  11.552
50610W        W15870   1.398   3.212   1.430
50611W        W15871  22.759  18.776  11.716
50612W        W15872  35.025  25.722   3.832
50613W        W15873  13.786  23.054   1.632
50614W        W15874  37.424  31.459  10.682
50615W        W15875  41.109   8.800  12.956
50616W        W15876   1.159  28.099  11.092
50617W        W15877   7.594  20.308   2.728
50618W        W15878  43.917  44.083  11.920
50619W        W15879   0.909  31.577   1.738
50620W        W15880  43.254   5.474   4.021
50621W        W15881   6.454  40.657  12.791
50622W        W15882  31.432   5.338   2.809
50623W        W15883  25.291  25.643  10.663
50624W        W15884  29.894  34.749   2.277
50625W        W15885  17.143  16.575  10.347
50626W        W15886  17.821  42.378  13.473
50627W        W15887  20.592  18.774   2.763
50628W        W15888  21.744   6.022  10.462
50629W        W15889  13.119  28.807   2.358
50630W        W15890  18.730  28.336  12.403
50631W        W15891  43.693   6.057   3.252
50632W        W15892  44.272  12.470  13.961
50633W        W15893  43.223   8.207  13.061
50634W        W15894  36.271   8.405   0.781
50635W        W15895  39.565  24.714  10.588
50636W        W15896  41.777   3.388  13.088
50637W        W15897   5.833   3.122  10.355
50638W        W15898   2.838  20.708   2.873
50639W        W15899  35.018  24.582   2.547
50640W        W15900  30.206  23.107  11.880
50641W        W15901  30.043  35.296   0.658
50642W        W15902  10.096  20.717  12.924
50643W        W15903  20.484  23.210  10.153
50644W        W15904  31.705   9.796  13.034
50645W        W15905  30.300  39.311  11.413
50646W        W15906   6.526   5.830   1.935
50647W        W15907  27.697  18.277  13.780
50648W        W15908  20.710  43.917   2.866
50649W        W15909  16.756  43.339   2.223
50650W        W15910  21.499  33.975  12.481
50651W        W15911  11.446  21.100  11.432
50652W        W15912  32.365   9.787  12.531
50653W        W15913   6.121   3.686   0.270
50654W        W15914  19.164  44.453  12.733
50655W        W15915  16.308  43.400  14.246
50656W        W15916  13.377  38.424   3.781
50657W        W15917  27.948   9.684   0.331
50658W        W15918  26.828   4.967   3.802
50659W        W15919  35.508  29.440   0.685
50660W        W15920  10.469  37.177  11.471
50661W        W15921  23.587  24.635   3.806
50662W        W15922  20.520   0.925   0.211
50663W        W15923  19.553  16.246  11.727
50664W        W15924  30.183   1.378  10.473
50665W        W15925  42.907  29.883  13.337
50666W        W15926  39.929  24.748  14.263
50667W        W15927   0.667  31.431   1.275
50668W        W15928  42.940   2.473  11.643
50669W        W15929   0.300   4.745  11.286
50670W        W15930  34.015  19.794   1.536
50671W        W15931  31.483  36.337  14.685
50672W        W15932  13.794   4.719  10.667
50673W        W15933  44.272  11.397   2.540
50674W        W15934  26.444  16.195   1.299
50675W        W15935  16.805  44.492   2.772
50676W        W15936   8.755   7.354  13.799
50677W        W15937  29.116   7.947  12.889
50678W        W15938   5.917  24.913   4.179
50679W        W15939  41.406  23.268   3.835
50680W        W15940  41.044  35.560   1.424
50681W        W15941   2.487   5.790  13.475
50682W        W15942  11.687  11.740   2.479
50683W        W15943   4.019  42.500  11.158
50684W        W15944  14.676  12.284  11.484
50685W        W15945  15.151  14.077   2.786
50686W        W15946  24.430  22.630  10.726
50687W        W15947  38.563  33.650   2.761
50688W        W15948   2.346  19.100   3.389
50689W        W15949  28.837  13.149  14.395
50690W        W15950   4.787   7.151   4.919
50691W        W15951  39.332   6.198   1.961
50692W        W15952   2.462  44.394   3.348
50693W        W15953  41.654  44.764   3.675
50694W        W15954  32.308  24.535   5.127
50695W        W15955  20.134  32.892   4.055
50696W        W15956  24.209   6.668   2.646
50697W        W15957  32.033  22.950  13.878
50698W        W15958  15.578   5.917  11.390
50699W        W15959  30.673  24.362  12.100
50700W        W15960  17.685   3.944   4.228
50701W        W15961  20.406   7.473  13.384
50702W        W15962  12.079  34.272  14.071
50703W        W15963  31.244   8.718   3.570
50704W        W15964  10.776  28.937   2.800
50705W        W15965  42.318  19.033   3.352
50706W        W15966  21.515  35.642   3.258
50707W        W15967  19.282  26.186  12.904
50708W        W15968   0.977  13.033  10.721
50709W        W15969   5.164  33.111   3.548
50710W        W15970  10.397  40.536   3.225
50711W        W15971  26.051  40.388   4.275
50712W        W15972  24.148  23.073  14.779
50713W        W15973  39.130  44.092  11.944
50714W        W15974  35.946   5.194   2.664
50715W        W15975   9.340  21.022  14.418
50716W        W15976   8.241   7.892  12.586
50717W        W15977  14.861  42.864  12.912
50718W        W15978  20.072  21.192   0.806
50719W        W15979   1.445  12.428   4.968
50720W        W15980  20.162  14.716  14.483
50721W        W15981  25.236  23.556   4.145
50722W        W15982  34.188  20.137   3.668
50723W        W15983  36.809  44.353   4.922
50724W        W15984  41.958  22.283  11.578
50725W        W15985  33.549  18.485   0.588
50726W        W15986  29.176  44.096   0.922
50727W        W15987   3.314  18.266   2.930
50728W        W15988  16.687  36.666  10.687
50729W        W15989  42.505  35.344   3.311
50730W        W15990  21.639   2.754   4.410
50731W        W15991  21.137  32.198  12.368
50732W        W15992   6.930  11.573  11.219
50733W        W15993   4.688  21.313  11.540
50734W        W15994  21.344  11.627   3.278
50735W        W15995  31.051  42.352   2.022
50736W        W15996   3.219  33.129  10.546
50737W        W15997  18.841  28.900   3.095
50738W        W15998  40.845  15.219   3.837
50739W        W15999  33.096   2.505  11.922
50740W        W16000  28.073  26.504  13.056
50741W        W16001  20.601  30.141   1.723
50742W        W16002  36.859  25.887  13.215
50743W        W16003   8.685   4.590   5.034
50744W        W16004  10.771  43.754  14.382
50745W        W16005  22.595  17.861   2.300
50746W        W16006   1.951  34.217   3.092
50747W        W16007   4.618   0.791   4.181
50748W        W16008  18.949   3.905   4.171
50749W        W16009  29.028  10.914   3.750
50750W        W16010  11.780  23.263   0.548
50751W        W16011  21.065  16.537  10.173
50752W        W16012  10.129  13.641  11.210
50753W        W16013  26.679  42.535  14.247
50754W        W16014  39.780  13.457  13.032
50755W        W16015  22.627  27.666  13.820
50756W        W16016  37.494  14.135  10.600
50757W        W16017  27.993  17.132   0.470
50758W        W16018  34.416   7.928   3.272
50759W        W16019  21.658  27.210  12.384
50760W        W16020  25.764  40.623  13.912
50761W        W16021  20.110  35.302   2.312
50762W        W16022  40.090   9.576   0.244
50763W        W16023  33.947  29.157   4.643
50764W        W16024  44.095  32.912  10.953
50765W        W16025  17.657  11.508  14.511
50766W        W16026  41.774  28.135   3.803
50767W        W16027   5.267  17.320   2.725
50768W        W16028  44.294  17.731   0.949
50769W        W16029  23.968  37.945   0.461
50770W        W16030  17.604  36.888   2.332
50771W        W16031   4.671  32.303  14.428
50772W        W16032  24.800  10.650   3.209
50773W        W16033  12.340  24.931  13.543
50774W        W16034   3.247  34.398  11.189
50775W        W16035  26.320   1.715  14.975
50776W        W16036  39.497   2.760  11.024
50777W        W16037  19.605  33.130   3.688
50778W        W16038  30.564  22.133   3.090
50779W        W16039  32.553   4.790  10.968
50780W        W16040  18.447  36.972   2.397
50781W        W16041   1.330  43.531  11.999
50782W        W16042  10.789  38.931   4.910
50783W        W16043  33.042  12.098   3.150
50784W        W16044  24.154  30.924   2.627
50785W        W16045   8.273  28.048   0.797
50786W        W16046  22.963  33.969   4.533
50787W        W16047  37.123   6.181   2.520
50788W        W16048   3.944  40.357   4.597
50789W        W16049  40.693  25.167   4.088
50790W        W16050  17.005  17.264  13.947
50791W        W16051   6.391  17.262  11.566
50792W        W16052  21.569  11.334   4.125
50793W        W16053  37.878  35.934   0.961
50794W        W16054  18.251  32.658   2.940
50795W        W16055   5.833  25.043   0.508
50796W        W16056  37.970  41.779  11.660
50797W        W16057  31.473  20.110  12.408
50798W        W16058  35.801  28.580  11.231
50799W        W16059   9.577   5.186   1.334
50800W        W16060  12.225   7.148  14.549
50801W        W16061  15.820  34.437   0.695
50802W        W16062  41.245   4.358   1.500
50803W        W16063  41.478  24.110   3.342
50804W        W16064  22.583  28.177   4.175
50805W        W16065  40.287  11.098  13.384
50806W        W16066  29.651   0.856   2.797
50807W        W16067  37.370  39.786  14.251
50808W        W16068  11.562  41.062   0.426
50809W        W16069  21.783  19.219  14.881
50810W        W16070  19.299  22.062   0.159
50811W        W16071  12.827  27.723  11.015
50812W        W16072  28.550   3.215  13.516
50813W        W16073  24.903   1.003  14.714
50814W        W16074  20.810  41.239   4.917
50815W        W16075   5.162  24.264  14.800
50816W        W16076  40.755  12.169  14.747
50817W        W16077  28.966  16.196   1.980
50818W        W16078  19.740  20.729   1.533
50819W        W16079  26.732  33.022   0.951
50820W        W16080  26.077  32.928   0.120
50821W        W16081  15.474  38.089   4.674
50822W        W16082  13.123  24.212   3.939
50823W        W16083  15.136   1.773   0.760
50824W        W16084  29.435  11.787  14.343
50825W        W16085  26.751  14.061   0.470
50826W        W16086  19.255   1.227  11.669
50827W        W16087  32.683   0.014  14.745
50828W        W16088  31.840  38.351   0.804
50829W        W16089  19.040  30.355  11.912
50830W        W16090  30.070  10.214   0.854
50831W        W16091  26.462   8.877   3.563
50832W        W16092  37.849  14.855  12.131
50833W        W16093  28.443  26.425   3.604
50834W        W16094  11.325  10.271  10.710
50835W        W16095  41.124  31.415  11.913
50836W        W16096  41.974  31.390   4.256
50837W        W16097   2.203  32.920   3.590
50838W        W16098  23.262  37.722  12.989
50839W        W16099  40.426  20.729  13.884
50840W        W16100  40.678  13.362  14.847
50841W        W16101  28.466   6.219   3.656
50842W        W16102  15.105  43.508  12.537
50843W        W16103   3.016   4.741  14.876
50844W        W16104   1.313  38.820   3.306
50845W        W16105  38.926  29.610  12.907
50846W        W16106  39.411  29.658  13.151
50847W        W16107  16.912  37.585  12.684
50848W        W16108  38.901  31.580  10.599
50849W        W16109  16.224   6.927  14.037
50850W        W16110  39.621  14.624   0.363
50851W        W16111  17.113  40.103  11.482
50852W        W16112  28.691  37.105   1.191
50853W        W16113  42.864  28.401   3.212
50854W        W16114   5.891  33.950   1.488
50855W        W16115  11.673  35.438  13.953
50856W        W16116  32.603  21.157   1.750
50857W        W16117  37.038  39.958   0.367
50858W        W16118   1.917  18.334  11.233
50859W        W16119  12.999  31.094  11.070
50860W        W16120  22.794  25.527   9.826
50861W        W16121  17.263  18.174   0.733
50862W        W16122  16.891  32.386  11.537
50863W        W16123   7.702   0.975   0.358
50864W        W16124  21.579  32.862   1.775
50865W        W16125   0.981  41.788   3.876
50866W        W16126  40.534  42.312  13.189
50867W        W16127  24.032  15.357  13.725
50868W        W16128  29.763  41.861  14.814
50869W        W16129  44.269  39.967   0.492
50870W        W16130  42.736  35.534  11.132
50871W        W16131  44.541  21.512   0.806
50872W        W16132  25.346   8.178  14.894
50873W        W16133  43.922  41.876   4.149
50874W        W16134  12.988  19.522  12.438
50875W        W16135  29.199   4.917   2.456
50876W        W16136  14.845  25.071  11.485
50877W        W16137  37.524  41.939   1.485
50878W        W16138  32.995  30.095   3.581
50879W        W16139  20.834   1.468   3.255
50880W        W16140  41.738  44.027  14.957
50881W        W16141  38.389  17.794  13.077
50882W        W16142  17.884  15.582  11.127
50883W        W16143   8.228  39.607  11.141
50884W        W16144  10.629  35.331  11.551
50885W        W16145  18.698  34.883   3.105
50886W        W16146   3.389  34.196  13.033
50887W        W16147   9.199  11.547   4.824
50888W        W16148  16.406  20.705  12.473
50889W        W16149   3.449  40.274  13.968
50890W        W16150  12.398  42.031  11.638
50891W        W16151  44.665  22.213   2.713
50892W        W16152  12.195  13.665   1.872
50893W        W16153  40.289  42.033   0.911
50894W        W16154  13.273  13.077  14.377
50895W        W16155  28.476  35.317  14.943
50896W        W16156  35.484  34.840  11.516
50897W        W16157   2.433  27.858  12.479
50898W        W16158   3.998  20.058   4.494
50899W        W16159  21.609  25.271  11.532
50900W        W16160  16.340  29.734   4.590
50901W        W16161  24.696   2.705   2.798
50902W        W16162  43.300  14.835  12.874
50903W        W16163  13.662  19.121  14.040
50904W        W16164   9.279  44.209  14.590
50905W        W16165  32.683   2.287  12.160
50906W        W16166  44.534  25.053   5.417
50907W        W16167  44.136  29.584   3.647
50908W        W16168  29.579  19.694   2.847
50909W        W16169  13.853  35.408   1.969
50910W        W16170  40.562  19.770   1.830
50911W        W16171  25.147   0.778   1.204
50912W        W16172  24.949  11.088   3.930
50913W        W16173   1.652  13.866   4.060
50914W        W16174  32.929  44.803   4.031
50915W        W16175  13.872  42.350  12.937
50916W        W16176  40.449  44.553   1.564
50917W        W16177   0.439  29.562  12.129
50918W        W16178  31.949   6.823   0.178
50919W        W16179  37.080  17.906   4.224
50920W        W16180  24.214  44.915  12.614
50921W        W16181   9.645  40.048   1.225
50922W        W16182  41.606   2.491  12.945
50923W        W16183   5.154  44.518   4.114
50924W        W16184  21.477  25.071   3.381
50925W        W16185  15.013  20.575  13.796
50926W        W16186  31.445   1.528  10.770
50927W        W16187  28.885   4.167  12.609
50928W        W16188  32.969   5.934   2.625
50929W        W16189  39.154   0.147   2.089
50930W        W16190  19.877  37.923  13.180
50931W        W16191  22.021  34.525  12.592
50932W        W16192   2.899  30.992   4.231
50933W        W16193  18.019  28.532  14.790
50934W        W16194  39.985   6.384  14.131
50935W        W16195  40.316   3.691  12.884
50936W        W16196  41.544  20.018  13.478
50937W        W16197   1.234   1.433  13.645
50938W        W16198  22.570  11.365   2.732
50939W        W16199   6.339  35.546  12.821
50940W        W16200  32.088  25.497   0.354
50941W        W16201  28.428  27.065  12.293
50942W        W16202   6.625  39.014   0.351
50943W        W16203  27.019  28.033  10.757
50944W        W16204   3.160  30.119   2.704
50945W        W16205  29.950  28.206  12.005
50946W        W16206  36.634  17.012  10.576
50947W        W16207  12.982   2.413   1.446
50948W        W16208  15.268  19.043  13.835
50949W        W16209  21.887  39.781   4.586
50950W        W16210  37.538  30.198   4.071
50951W        W16211  12.731  43.959   2.438
50952W        W16212   7.875   8.948   3.718
50953W        W16213  16.930   2.216   4.297
50954W        W16214   7.151  43.647  14.530
50955W        W16215  17.379  25.425  14.862
50956W        W16216  26.668  40.067  12.567
50957W        W16217  41.576  25.719  13.213
50958W        W16218  22.728  26.728  14.282
50959W        W16219   1.240  20.518  12.353
50960W        W16220  28.794  16.760   2.665
50961W        W16221   2.015   9.204  12.137
50962W        W16222  28.563   2.987  11.138
50963W        W16223  23.398  14.368  13.977
50964W        W16224  14.188  25.323  14.944
50965W        W16225  22.227  29.318   4.051
50966W        W16226   3.830   7.812  12.955
50967W        W16227  24.067  37.689   4.055
50968W        W16228  12.093  16.508  14.960
50969W        W16229  43.003  13.247  13.143
50970W        W16230  44.673  37.777  13.934
50971W        W16231  41.029  11.458   9.795
50972W        W16232  21.775  15.286  13.119
50973W        W16233  16.146  44.492   1.434
50974W        W16234  34.523  24.965  11.105
50975W        W16235   9.142  32.681   2.418
50976W        W16236   0.504  34.527   3.843
50977W        W16237   4.423  19.290   1.104
50978W        W16238  27.017   6.388   1.138
50979W        W16239  22.627   3.898   1.428
50980W        W16240   9.095  26.947  13.375
50981W        W16241  36.167  38.189  13.463
50982W        W16242   5.468   7.930  11.433
50983W        W16243  37.343  14.529   1.722
50984W        W16244   0.064  38.794  12.761
50985W        W16245   2.700  14.394   2.931
50986W        W16246  35.405   7.025  13.522
50987W        W16247  41.999   4.313  13.267
50988W        W16248   3.775  10.235  11.667
50989W        W16249  28.756  39.980  11.089
50990W        W16250   6.634  16.765  10.765
50991W        W16251   7.692  28.621  11.251
50992W        W16252  44.825   3.898   4.124
50993W        W16253  17.860   8.596   0.918
50994W        W16254  10.730  36.812  11.764
50995W        W16255  30.530  12.635  14.300
50996W        W16256  20.317  34.096   1.721
50997W        W16257  40.452   9.822   4.014
50998W        W16258  34.007   3.898  14.035
50999W        W16259  18.446  41.017   2.082
51000W        W16260  36.710  40.359  10.641
51001W        W16261  34.575  28.168   1.389
51002W        W16262  40.925  43.763   2.464
51003W        W16263   5.162  30.133  14.349
51004W        W16264  36.825  19.995  12.124
51005W        W16265  30.481  21.626   3.136
51006W        W16266  29.880  17.684   3.283
51007W        W16267  37.971   3.559   0.800
51008W        W16268  12.947  41.085  12.167
51009W        W16269  38.509  15.078  13.307
51010W        W16270  31.937  39.212  11.152
51011W        W16271   0.450  37.611   4.951
51012W        W16272  25.761  11.205   3.241
51013W        W16273   3.386  29.917  11.641
51014W        W16274  30.350  18.971   3.685
51015W        W16275  16.010   7.111  11.502
51016W        W16276  28.535  32.763   2.185
51017W        W16277  39.471  40.040   1.264
51018W        W16278   2.168  26.548  12.503
51019W        W16279   0.276  22.372  13.978
51020W        W16280   2.183   5.939   2.835
51021W        W16281  24.424  20.575  14.784
51022W        W16282  17.574  28.904  14.562
51023W        W16283  44.962  28.209   0.909
51024W        W16284  38.533  26.500  13.413
51025W        W16285  11.692  18.924  11.653
51026W        W16286  30.270  16.088  13.702
51027W        W16287  29.229  24.135   3.146
51028W        W16288  15.673  23.187   2.588
51029W        W16289   3.018  26.694  10.453
51030W        W16290  22.396  38.988   0.724
51031W        W16291   4.849  14.581   5.189
51032W        W16292  43.317  24.759   1.362
51033W        W16293  25.922   3.763   2.403
51034W        W16294  19.236  19.004  11.954
51035W        W16295  25.216  34.385  14.930
51036W        W16296  27.643  22.216  14.526
51037W        W16297  15.675  42.306   4.682
51038W        W16298  27.024  35.035   0.341
51039W        W16299  25.315   8.392   1.670
51040W        W16300   2.032  38.093   1.344
51041W        W16301  43.849  11.915   1.957
51042W        W16302   8.943   3.034   0.722
51043W        W16303  23.470  35.599   0.871
51044W        W16304  23.640  20.465  14.254
51045W        W16305  13.819  40.607   4.147
51046W        W16306  13.811  10.365  12.126
51047W        W16307  35.528  32.093   0.314
51048W        W16308  12.290  26.240  10.413
51049W        W16309  22.484  19.579  14.854
51050W        W16310  11.115  23.998   3.474
51051W        W16311  33.904  26.702   1.863
51052W        W16312  13.240  19.011  13.753
51053W        W16313  23.563  18.529  12.657
51054W        W16314  18.266   1.895  10.660
51055W        W16315  26.693  17.492  13.317
51056W        W16316  30.219  14.851   3.177
51057W        W16317  12.359   2.893   3.206
51058W        W16318  31.413   0.033  14.246
51059W        W16319  24.176  38.448  13.702
51060W        W16320  32.949  35.009  12.309
51061W        W16321  40.801  20.869  11.431
51062W        W16322  24.705  23.347   2.765
51063W        W16323  17.720  12.290   3.603
51064W        W16324  19.224  35.518  11.962
51065W        W16325  41.011  13.052   3.128
51066W        W16326   7.837  15.817   4.512
51067W        W16327  32.197  34.258  13.945
51068W        W16328   4.262  27.926  11.192
51069W        W16329   8.417  41.898  12.952
51070W        W16330   5.754  14.089   3.280
51071W        W16331  34.931  39.794  13.396
51072W        W16332   8.856  30.452   0.959
51073W        W16333  44.372  20.290   1.550
51074W        W16334  42.945  10.645   4.634
51075W        W16335  34.986  11.144  10.548
51076W        W16336  12.283  34.893  12.522
51077W        W16337   5.546  20.148  12.594
51078W        W16338  23.197  24.870  10.676
51079W        W16339  21.749  18.760   3.862
51080W        W16340  44.067  17.219   2.769
51081W        W16341  26.775  10.201  10.308
51082W        W16342   5.517  26.981   2.764
51083W        W16343  23.784  34.432   2.665
51084W        W16344  35.299  25.403  11.126
51085W        W16345  44.955  26.852  12.937
51086W        W16346  28.528  33.582  12.626
51087W        W16347  39.905  24.710   2.201
51088W        W16348  21.440  38.231   2.131
51089W        W16349   0.342  18.528  14.867
51090W        W16350   9.067  41.311   3.836
51091W        W16351  11.253  18.500  10.570
51092W        W16352  33.998  33.542   1.695
51093W        W16353  43.511  35.353   3.286
51094W        W16354  13.735  39.282   1.608
51095W        W16355   1.302   2.451  14.297
51096W        W16356  16.251  32.545   1.474
51097W        W16357  34.511   3.307   3.361
51098W        W16358  33.802  42.061   2.720
51099W        W16359  29.139  19.646   4.149
51100W        W16360  24.954  33.606   2.756
51101W        W16361  30.061  23.942   2.774
51102W        W16362  36.710  41.656  13.018
51103W        W16363  16.872  13.161  11.987
51104W        W16364  32.707  30.546   0.793
51105W        W16365  20.784  41.384   3.560
51106W        W16366  12.096  11.536  14.794
51107W        W16367   4.251   8.842  11.100
51108W        W16368   5.316  32.614  12.013
51109W        W16369  44.042  37.142  14.428
51110W        W16370  11.149  39.934   2.833
51111W        W16371  12.256  28.686  12.941
51112W        W16372   1.877  22.757  13.193
51113W        W16373  16.844  25.002   4.930
51114W        W16374   2.405  35.175   1.831
51115W        W16375  22.785  18.627  14.977
51116W        W16376  30.086  43.792  12.133
51117W        W16377  34.381  12.679   0.980
51118W        W16378   5.361   0.336  13.578
51119W        W16379   4.658   9.567   3.261
51120W        W16380  10.225  36.356  11.097
51121W        W16381  26.768   0.726  11.542
51122W        W16382  40.633   0.898   2.260
51123W        W16383   1.390  24.082   9.742
51124W        W16384  19.795  33.453  11.127
51125W        W16385   9.361  28.633  12.480
51126W        W16386  33.145   6.643  13.922
51127W        W16387  16.312  13.669  12.120
51128W        W16388  15.867  38.435  13.804
51129W        W16389   0.890   2.785  11.109
51130W        W16390  10.746  33.918   3.270
51131W        W16391  41.428  39.861  14.007
51132W        W16392  30.702  21.715  13.865
51133W        W16393  27.345   8.316   1.817
51134W        W16394  13.612  21.000  10.574
51135W        W16395  43.954   3.428  10.405
51136W        W16396  24.717  41.540  10.670
51137W        W16397  32.211  28.647   3.233
51138W        W16398   0.349  37.832  11.341
51139W        W16399   8.813   2.408  11.484
51140W        W16400  10.745   6.622  14.921
51141W        W16401   0.328  17.688  10.766
51142W        W16402  20.490  19.136  13.734
51143W        W16403  14.142   4.132  14.364
51144W        W16404  42.969  29.608   2.769
51145W        W16405   5.419  22.717   3.156
51146W        W16406  35.819  10.346   3.275
51147W        W16407  29.156  34.374  11.517
51148W        W16408  15.048  29.451   3.776
51149W        W16409  22.033  28.460  12.748
51150W        W16410  19.007   5.616  13.764
51151W        W16411  44.581  15.567  13.594
51152W        W16412  16.200  20.078   1.232
51153W        W16413  16.087  36.023  13.419
51154W        W16414  33.870  20.004  10.262
51155W        W16415  41.039  21.142  14.904
51156W        W16416  16.678  29.206  14.950
51157W        W16417  35.359  40.588  12.338
51158W        W16418  18.221  28.682   0.254
51159W        W16419  16.812  16.270   0.596
51160W        W16420  36.449  24.127  12.471
51161W        W16421  13.061  10.789   1.867
51162W        W16422  28.747   5.790  11.652
51163W        W16423  13.866  25.680   3.188
51164W        W16424  29.077  28.073  14.216
51165W        W16425  19.487   5.218  12.678
51166W        W16426   1.792  24.618  11.289
51167W        W16427  14.600  22.462  12.919
51168W        W16428  38.267  30.240  11.662
51169W        W16429  33.473  12.718  14.697
51170W        W16430  32.118  44.795  12.483
51171W        W16431  36.498  20.861   2.684
51172W        W16432   1.299  35.673   5.007
51173W        W16433   7.890  14.525   3.212
51174W        W16434   2.501  20.633  13.816
51175W        W16435  28.411  16.043  11.060
51176W        W16436   5.689  26.195  10.679
51177W        W16437  24.543   0.412   4.318
51178W        W16438  29.176  12.181   1.507
51179W        W16439  21.630  15.653   3.383
51180W        W16440  17.277  27.582  13.394
51181W        W16441   1.462  30.193   0.789
51182W        W16442  26.944  32.874  14.022
51183W        W16443   6.872   9.346   1.799
51184W        W16444  41.374   8.251   3.945
51185W        W16445  35.882  40.333  13.703
51186W        W16446   5.904   3.875  11.936
51187W        W16447   0.397  19.189   3.241
51188W        W16448   9.781  29.717  13.039
51189W        W16449  13.214   5.757  14.476
51190W        W16450  13.159  35.979   1.712
51191W        W16451  18.520  31.505   4.073
51192W        W16452  29.581  28.716   2.068
51193W        W16453  43.417  44.416  12.912
51194W        W16454   3.008  20.467   2.443
51195W        W16455   8.429  40.523  11.406
51196W        W16456  28.261   8.485  12.421
51197W        W16457  23.068   3.251   2.599
51198W        W16458   3.238  19.351   2.921
51199W        W16459  42.060   3.457  11.681
51200W        W16460   6.159  44.323  11.019
51201W        W16461  34.961  41.829  12.518
51202W        W16462  33.315  16.027   2.400
51203W        W16463  22.153  37.303   2.723
51204W        W16464  38.636  39.408   2.584
51205W        W16465  37.976  21.344  13.351
51206W        W16466  31.611  15.830  13.793
51207W        W16467   4.877  30.481  13.560
51208W        W16468  14.169  36.083   4.702
51209W        W16469  36.491   3.942   2.429
51210W        W16470  35.847  21.975   2.406
51211W        W16471  19.356  37.738   1.457
51212W        W16472  13.629   8.693  14.507
51213W        W16473  39.031  14.245  12.775
51214W        W16474  38.007  23.405   4.048
51215W        W16475   1.076  36.573  11.683
51216W        W16476  12.848  38.782   1.258
51217W        W16477   0.669  11.556  14.428
51218W        W16478  36.369   8.417  14.372
51219W        W16479   5.830  40.534  11.600
51220W        W16480   9.658  14.725   1.322
51221W        W16481  30.989  43.349   3.569
51222W        W16482  32.750   8.788   4.522
51223W        W16483  40.323  23.096  10.533
51224W        W16484   7.163  13.517  12.496
51225W        W16485  20.634  22.580   4.534
51226W        W16486  35.533  43.104   3.452
51227W        W16487  29.366  11.114  13.578
51228W        W16488  17.071  32.273  12.853
51229W        W16489  34.010   9.059   0.834
51230W        W16490   6.384  22.160  10.635
51231W        W16491  14.562  37.225   4.019
51232W        W16492  10.666   9.239  12.387
51233W        W16493  25.652  37.335  14.583
51234W        W16494  38.566  40.538   4.129
51235W        W16495  43.896  10.619   3.474
51236W        W16496  39.442  16.336  11.703
51237W        W16497  11.556  25.081  10.654
51238W        W16498  16.672   1.829   1.369
51239W        W16499  39.367  30.114  14.449
51240W        W16500  11.628  39.379  11.088
51241W        W16501  19.709   3.153   3.132
51242W        W16502  11.919   3.036   0.858
51243W        W16503  37.882  23.612  11.391
51244W        W16504  35.002  42.832   0.426
51245W        W16505   9.790  18.295   0.367
51246W        W16506  43.329  39.932   4.977
51247W        W16507  26.116  31.100  13.071
51248W        W16508   2.053  14.343   1.264
51249W        W16509  25.473  25.456  13.750
51250W        W16510  44.717  32.341   2.203
51251W        W16511  12.416  32.145   4.388
51252W        W16512   9.773   6.841  14.625
51253W        W16513  29.024  32.658   2.369
51254W        W16514  20.580  36.765  12.364
51255W        W16515  14.535  25.132   0.385
51256W        W16516  11.181  17.157  11.186
51257W        W16517  23.737  38.597   2.785
51258W        W16518  36.106  37.154   2.678
51259W        W16519  43.601  15.645  13.301
51260W        W16520  19.605  43.389  12.491
51261W        W16521   5.793  34.565   4.618
51262W        W16522  36.510  24.720  12.422
51263W        W16523  37.398  31.536   3.264
51264W        W16524  15.242  44.980  12.121
51265W        W16525  27.435  36.081  13.397
51266W        W16526   2.900  18.341  13.439
51267W        W16527  11.696  10.619   1.675
51268W        W16528   0.208  30.995   4.769
51269W        W16529  34.301  14.168   3.682
51270W        W16530  24.943  18.647  12.898
51271W        W16531  25.587  15.610  13.073
51272W        W16532   3.574   3.221   1.918
51273W        W16533  37.038  38.682  10.867
51274W        W16534  25.637  20.473   3.653
51275W        W16535  40.117   3.480   1.696
51276W        W16536  12.581  43.063  11.049
51277W        W16537  11.306  25.510   3.693
51278W        W16538   4.002  44.780  11.281
51279W        W16539  42.266   4.457   2.198
51280W        W16540  28.750  13.291   2.627
51281W        W16541  25.851  36.383  11.652
51282W        W16542  29.433  15.124  14.803
51283W        W16543  17.149  20.249  13.877
51284W        W16544  31.671  20.735   4.226
51285W        W16545   7.631  28.160   3.803
51286W        W16546   3.813  24.676   0.901
51287W        W16547  18.734  23.484   1.794
51288W        W16548   7.173  32.160  13.379
51289W        W16549  44.825  44.936   0.882
51290W        W16550   9.868  30.570  12.811
51291W        W16551  10.160  43.318   1.659
51292W        W16552   8.387  35.309   0.743
51293W        W16553  44.413   8.161  12.116
51294W        W16554  41.784  26.380  11.926
51295W        W16555  26.742  18.410  12.764
51296W        W16556   4.247  15.191   2.541
51297W        W16557   1.434  23.370  11.572
51298W        W16558  33.796  10.126   0.218
51299W        W16559  14.484  22.196  12.494
51300W        W16560  35.414  11.584  14.615
51301W        W16561  33.511   2.900  14.934
51302W        W16562  27.696  11.896   3.897
51303W        W16563  37.729  43.008   5.541
51304W        W16564  39.552  24.975  12.102
51305W        W16565  11.097  37.698   2.339
51306W        W16566  21.522  21.686   4.918
51307W        W16567  10.928  26.157   0.436
51308W        W16568  28.290  29.596   4.543
51309W        W16569  34.181   5.339  14.569
51310W        W16570  37.336  10.561   1.739
51311W        W16571  40.529  40.289  13.939
51312W        W16572  21.664  29.464  12.146
51313W        W16573  31.568  31.713   0.968
51314W        W16574  30.116  28.844  13.903
51315W        W16575  15.792   5.303   3.003
51316W        W16576  41.242  38.471   2.210
51317W        W16577  16.986  41.996   2.290
51318W        W16578  11.219  20.740   0.406
51319W        W16579   5.774  18.787   3.584
51320W        W16580  34.911  32.835   0.037
51321W        W16581   4.589  19.650   4.216
51322W        W16582  22.555  18.317   4.990
51323W        W16583  22.779  11.810   0.878
51324W        W16584  32.022   0.597  10.254
51325W        W16585  33.658  39.803   2.245
51326W        W16586  32.093   8.609   4.217
51327W        W16587  30.842  16.994  12.809
51328W        W16588  14.751  38.072   1.669
51329W        W16589   2.993  15.828   2.594
51330W        W16590   2.431  35.659  14.337
51331W        W16591  33.403  31.987  13.859
51332W        W16592  28.074  20.587  14.882
51333W        W16593  22.510   3.238  13.469
51334W        W16594   6.304  25.451  12.996
51335W        W16595   7.185  12.409   2.814
51336W        W16596  40.822   5.423   3.306
51337W        W16597   4.477  30.951  11.803
51338W        W16598  20.156  27.455  11.593
51339W        W16599   9.363   8.170  13.909
51340W        W16600  17.373  24.969  13.572
51341W        W16601  40.209  37.465  13.852
51342W        W16602  38.962  26.872   1.206
51343W        W16603  39.435  17.062   0.080
51344W        W16604  27.825  12.846   0.864
51345W        W16605   4.511  18.430  14.082
51346W        W16606  22.493   7.344   0.835
51347W        W16607  35.451  26.567  11.597
51348W        W16608   7.421  32.104   2.801
51349W        W16609  30.462  30.020   3.863
51350W        W16610  21.689  33.662  13.836
51351W        W16611  17.842  30.085   3.731
51352W        W16612  29.976  40.064   0.449
51353W        W16613  33.983  24.997   4.428
51354W        W16614  38.442  28.683  13.077
51355W        W16615  21.688   3.360   3.232
51356W        W16616  14.984  13.095  11.234
51357W        W16617  34.842  31.308   0.335
51358W        W16618  17.860  11.284   3.526
51359W        W16619  25.758  36.421   1.264
51360W        W16620   6.215  26.534   3.097
51361W        W16621  35.547  42.350   3.619
51362W        W16622   9.861  30.039  10.349
51363W        W16623  24.598  38.585  14.973
51364W        W16624  10.243  11.026  11.004
51365W        W16625  17.665  22.212  11.062
51366W        W16626  34.621  42.843  12.864
51367W        W16627  40.871  20.407  13.902
51368W        W16628   4.415   7.433   4.205
51369W        W16629  28.022  12.099   0.214
51370W        W16630  21.325  26.144   4.603
51371W        W16631   7.819  28.609  12.400
51372W        W16632   1.763  38.123  12.965
51373W        W16633   5.442  13.709   2.654
51374W        W16634   5.413   0.060   0.478
51375W        W16635  34.584   0.000   0.832
51376W        W16636  35.125  24.103  14.424
51377W        W16637   8.964  11.885   4.522
51378W        W16638  23.650  10.581   4.298
51379W        W16639  22.677  42.398  14.500
51380W        W16640   5.118   1.179   2.799
51381W        W16641  11.353  20.643  14.910
51382W        W16642  17.889  30.906   4.301
51383W        W16643  24.948  43.934  12.192
51384W        W16644   2.322  42.507   2.261
51385W        W16645   7.593  27.442   1.412
51386W        W16646  39.289  22.640   2.773
51387W        W16647   1.155   1.866   4.551
51388W        W16648  26.159  18.555  13.970
51389W        W16649  17.098  23.127   1.455
51390W        W16650  42.373  30.486  11.147
51391W        W16651  44.708   6.039  13.055
51392W        W16652  20.080  40.834   2.627
51393W        W16653  34.124  41.858  14.346
51394W        W16654  42.905  24.294  11.608
51395W        W16655  32.967  44.559  14.014
51396W        W16656   7.477  41.805   4.368
51397W        W16657   3.282   4.364   2.878
51398W        W16658   4.244  22.255  11.562
51399W        W16659  38.504  19.060  10.570
51400W        W16660   3.424  14.273  11.446
51401W        W16661  21.470  43.996  10.674
51402W        W16662  10.251  24.926   1.931
51403W        W16663  25.386  24.459  13.498
51404W        W16664  43.288  37.609  10.737
51405W        W16665  19.502   6.879  11.523
51406W        W16666  17.842  24.450  10.779
51407W        W16667  27.234  24.951   1.774
51408W        W16668  36.394  44.753  12.531
51409W        W16669   4.961  38.073  11.227
51410W        W16670  10.204  25.556   1.309
51411W        W16671  32.733   3.869  13.188
51412W        W16672  21.338  30.654   0.721
51413W        W16673  13.240  43.626  12.992
51414W        W16674  26.579   5.465   0.316
51415W        W16675   1.211  40.890  12.845
51416W        W16676  33.659   3.549   1.275
51417W        W16677  10.823  16.159   3.192
51418W        W16678  28.988  12.194  12.095
51419W        W16679  11.779  33.031   2.933
51420W        W16680   0.910  31.081   2.522
51421W        W16681   0.335  43.983  13.195
51422W        W16682  34.591  38.842  13.080
51423W        W16683  18.077  16.891   0.515
51424W        W16684  32.018  18.698   1.422
51425W        W16685  35.500   4.307   0.747
51426W        W16686   4.376  41.396  11.274
51427W        W16687   1.906  34.494   2.606
51428W        W16688  30.306   7.604   2.922
51429W        W16689  26.092  34.156  12.104
51430W        W16690  42.393  31.371  14.003
51431W        W16691  31.675  24.487  12.010
51432W        W16692   5.219  23.271   2.233
51433W        W16693  26.254  20.730   0.326
51434W        W16694   8.266   1.491  13.499
51435W        W16695   4.707  23.588   4.485
51436W        W16696  38.354   5.109   2.803
51437W        W16697  28.595  21.299  11.553
51438W        W16698  33.934   9.240  14.622
51439W        W16699  20.088  26.893   3.679
51440W        W16700   5.374   6.665   1.823
51441W        W16701  17.803  34.485  10.671
51442W        W16702   9.396  41.354  10.014
51443W        W16703  31.421   1.959  12.675
51444W        W16704  14.153  44.722  14.744
51445W        W16705  21.224  26.300   5.086
51446W        W16706  13.604   9.365  12.606
51447W        W16707  29.478  42.216  13.868
51448W        W16708  16.636  11.069   1.273
51449W        W16709  30.705  29.213   4.180
51450W        W16710   8.338  15.224  13.884
51451W        W16711  39.258   0.716  14.407
51452W        W16712   2.307  29.145  10.728
51453W        W16713  35.866  34.625   1.916
51454W        W16714  41.662  30.665  12.459
51455W        W16715  29.865  13.327   4.195
51456W        W16716  17.526  22.778   0.513
51457W        W16717  33.897  30.336  12.474
51458W        W16718  29.977  25.471   3.831
51459W        W16719  22.803  44.470  12.598
51460W        W16720  21.619  16.299  12.945
51461W        W16721  24.269  40.099  10.090
51462W        W16722  19.212  23.555  13.309
51463W        W16723   2.817   3.677   3.122
51464W        W16724  42.353  12.805   1.668
51465W        W16725  14.946  22.978   0.851
51466W        W16726  17.614  40.524   4.632
51467W        W16727   6.630  27.996   2.760
51468W        W16728  44.473  26.085   3.746
51469W        W16729  34.271  17.255  11.106
51470W        W16730  17.186  21.483  11.152
51471W        W16731  42.922   0.057   0.384
51472W        W16732  31.700  36.037   1.852
51473W        W16733  33.864  33.935   3.859
51474W        W16734   5.695   5.717   0.224
51475W        W16735  42.766  22.066  13.086
51476W        W16736  12.683  10.289  11.064
51477W        W16737  11.770  23.105  10.624
51478W        W16738  41.854  27.891  12.634
51479W        W16739  38.103   6.774  13.367
51480W        W16740   0.981  43.385  10.624
51481W        W16741   7.784  18.236   4.154
51482W        W16742  34.929  10.846   1.444
51483W        W16743  32.708  29.044  10.670
51484W        W16744  19.483  16.296   1.460
51485W        W16745  14.757  25.346  10.245
51486W        W16746   3.483  23.801  14.249
51487W        W16747  42.686  30.636   4.665
51488W        W16748  31.025  31.674   5.031
51489W        W16749  39.637  20.255   1.587
51490W        W16750  22.364   2.971   5.306
51491W        W16751  33.511  41.975   4.785
51492W        W16752  18.718  20.242  13.301
51493W        W16753  37.758  30.859  10.139
51494W        W16754  15.139  11.142   1.415
51495W        W16755  17.231  21.372   4.453
51496W        W16756  33.350  20.589  11.195
51497W        W16757  11.454  19.686  14.309
51498W        W16758  21.593  32.135  12.636
51499W        W16759   8.165  15.499  11.519
51500W        W16760  31.218  19.161   1.522
51501W        W16761  40.255  30.013  13.031
51502W        W16762  38.522   3.236   4.031
51503W        W16763   5.453  11.286   2.773
51504W        W16764  20.976  44.861   0.424
51505W        W16765  28.558  11.381  14.016
51506W        W16766  14.746   6.843  11.541
51507W        W16767  33.455  38.708   1.736
51508W        W16768  15.272  23.783  11.561
51509W        W16769   7.136  27.944  11.170
51510W        W16770  32.472  32.317   3.743
51511W        W16771  34.336  20.625  11.643
51512W        W16772  40.833  31.385   4.560
51513W        W16773  42.534  23.192  12.625
51514W        W16774  21.159  43.839  11.825
51515W        W16775  17.194  14.558  12.057
51516W        W16776  40.220   5.721   1.525
51517W        W16777  14.920  38.615  11.194
51518W        W16778  25.961  13.855  12.928
51519W        W16779  28.481  28.166   0.391
51520W        W16780   0.215  18.512  11.590
51521W        W16781  21.708  24.954  14.785
51522W        W16782  11.042  41.166   0.266
51523W        W16783  23.235  34.356  10.669
51524W        W16784  12.669  20.937  11.195
51525W        W16785  14.294   6.930  13.990
51526W        W16786  36.011  29.650   2.794
51527W        W16787  38.259   5.936  11.328
51528W        W16788  40.035   8.705   1.344
51529W        W16789  37.459  17.718  13.066
51530W        W16790  23.208  26.490   3.652
51531W        W16791   9.611  11.354  13.283
51532W        W16792  28.340  22.469   3.735
51533W        W16793  37.592  34.074  12.953
51534W        W16794  40.320  29.678   2.370
51535W        W16795   9.185  21.810  13.971
51536W        W16796  12.216  34.787  14.147
51537W        W16797   0.472  21.618   1.174
51538W        W16798  16.398  26.609  12.461
51539W        W16799  20.120  23.621  13.900
51540W        W16800  30.884  12.994  13.460
51541W        W16801  29.494  25.292   9.636
51542W        W16802  28.685   0.345   0.790
51543W        W16803   9.690  36.044   1.345
51544W        W16804  14.237   3.835  12.214
51545W        W16805   1.249  40.933  14.411
51546W        W16806  29.761  33.587   2.081
51547W        W16807  18.211  37.493   4.802
51548W        W16808  44.058   6.844   0.844
51549W        W16809  22.999  27.534   2.265
51550W        W16810  12.920  26.466   2.227
51551W        W16811  42.639   2.866  11.935
51552W        W16812  24.607  11.596  12.132
51553W        W16813  40.020  14.932  12.484
51554W        W16814   7.095   9.658  14.715
51555W        W16815  30.166   1.931  11.991
51556W        W16816  21.281  41.414  13.439
51557W        W16817  12.842  27.777   2.841
51558W        W16818   4.321  24.530   0.840
51559W        W16819  29.551  13.778  14.756
51560W        W16820  25.711   9.558  13.565
51561W        W16821  30.961  18.145   3.155
51562W        W16822  19.606  27.461  10.902
51563W        W16823  16.963  28.087  14.120
51564W        W16824  18.774  37.913  12.136
51565W        W16825  32.027  42.747   2.620
51566W        W16826  11.241  15.879   1.306
51567W        W16827   2.706  14.198  12.169
51568W        W16828  39.368  31.141  14.384
51569W        W16829   1.302  14.934  11.425
51570W        W16830  24.537   7.733   4.375
51571W        W16831  42.435  44.795   3.395
51572W        W16832  19.158  16.619  12.416
51573W        W16833  33.435  27.598   1.707
51574W        W16834   9.116  40.007   0.878
51575W        W16835  41.024  42.959   2.852
51576W        W16836  36.175  27.017   5.470
51577W        W16837  26.988  44.541   1.489
51578W        W16838  16.224  11.463  12.888
51579W        W16839   2.687  10.363  11.639
51580W        W16840  30.362  26.367   0.207
51581W        W16841   8.369   5.370  10.477
51582W        W16842   9.448  39.897  14.883
51583W        W16843   4.260  13.819  11.180
51584W        W16844   8.837   7.449   2.701
51585W        W16845  33.617  12.698  12.520
51586W        W16846  24.956  42.345  12.063
51587W        W16847  44.023  36.479   1.270
51588W        W16848  24.138   0.167  13.053
51589W        W16849  18.078  27.112   3.355
51590W        W16850   4.154  12.308   3.277
51591W        W16851   8.285  44.797  10.662
51592W        W16852  35.150  24.087   2.388
51593W        W16853   0.226   2.014   2.765
51594W        W16854  26.017   9.436  14.573
51595W        W16855  27.402  14.266  10.682
51596W        W16856  37.086  25.715  14.745
51597W        W16857  33.898  39.454  14.196
51598W        W16858  25.473  16.240  13.375
51599W        W16859  11.146   3.738  10.741
51600W        W16860   1.303  13.770   4.418
51601W        W16861   3.902   8.667  12.410
51602W        W16862  37.037  23.294   1.226
51603W        W16863  31.610   7.661  11.393
51604W        W16864  20.072  35.842   2.254
51605W        W16865  30.713  18.778   0.340
51606W        W16866  44.531  33.507  12.078
51607W        W16867  44.954  37.496   5.136
51608W        W16868   5.824   1.892  10.429
51609W        W16869  18.280  33.461   4.546
51610W        W16870  17.214  30.566   2.251
51611W        W16871  18.328  40.886  12.708
51612W        W16872  18.032  18.126   5.390
51613W        W16873   4.601  24.492   0.360
51614W        W16874  39.336  19.305   1.650
51615W        W16875  42.864  28.100  13.026
51616W        W16876  44.448   8.296   1.588
51617W        W16877  27.096  10.277   0.522
51618W        W16878  44.987  16.270   2.218
51619W        W16879  40.346  11.889  14.486
51620W        W16880  11.848  25.328  11.671
51621W        W16881  28.967  29.998   3.222
51622W        W16882   9.726   2.482   4.478
51623W        W16883  28.627   4.867  10.908
51624W        W16884   5.916   4.592   4.765
51625W        W16885  31.395   0.573  13.405
51626W        W16886  42.584  10.680   3.219
51627W        W16887  31.092  32.454   3.097
51628W        W16888  28.558  14.638  10.860
51629W        W16889  11.110  28.699  10.690
51630W        W16890  29.769   2.155   2.333
51631W        W16891  39.082  25.950   1.217
51632W        W16892  21.579  44.206  11.187
51633W        W16893  20.211  17.186  11.394
51634W        W16894  19.024   5.111   4.826
51635W        W16895  29.578  13.618   2.264
51636W        W16896  39.050   5.331  12.823
51637W        W16897  29.353  21.606   0.514
51638W        W16898  35.499   7.658  10.629
51639W        W16899  37.387   4.705  11.097
51640W        W16900  34.951   1.264  11.956
51641W        W16901  14.661  33.840   2.147
51642W        W16902  19.597   9.339  13.958
51643W        W16903  30.195   5.682   3.886
51644W        W16904  21.351   8.280   3.300
51645W        W16905  44.044  26.164   4.622
51646W        W16906  24.650  25.916  12.452
51647W        W16907  14.130  33.348   0.165
51648W        W16908   0.114  42.935   2.771
51649W        W16909   3.466  34.427  10.604
51650W        W16910  22.531  28.059  13.500
51651W        W16911  19.742  11.034  14.963
51652W        W16912  41.182  29.501   0.924
51653W        W16913   3.722   4.101   3.032
51654W        W16914  11.787  43.288  10.499
51655W        W16915  29.064  25.192   3.856
51656W        W16916  10.410  14.000  14.042
51657W        W16917  22.272   9.397  11.119
51658W        W16918  44.939  27.086   1.933
51659W        W16919  33.820  10.295  13.818
51660W        W16920   3.729  44.837   1.576
51661W        W16921  10.371   3.198  10.318
51662W        W16922  34.140   2.810   2.791
51663W        W16923  16.653  26.009   3.181
51664W        W16924   9.634  21.020   0.576
51665W        W16925   6.311  30.647   4.777
51666W        W16926  30.430  10.393  11.124
51667W        W16927  36.431   9.322  13.844
51668W        W16928  15.543  16.265   0.797
51669W        W16929  38.181   1.962  11.113
51670W        W16930  33.216  24.215  13.145
51671W        W16931  38.918  43.962   2.174
51672W        W16932  10.485   3.082  10.903
51673W        W16933  43.552  31.265  10.557
51674W        W16934  23.673   3.343  14.743
51675W        W16935  26.136  30.910  11.245
51676W        W16936  34.942  10.880  12.958
51677W        W16937  36.791  23.843  11.591
51678W        W16938  18.279  38.001  14.073
51679W        W16939  26.146  38.958  10.743
51680W        W16940  39.503  36.634   2.327
51681W        W16941   6.999  24.619  13.792
51682W        W16942  28.406  12.797   4.206
51683W        W16943  43.013  40.028  11.851
51684W        W16944  17.309  37.798   4.544
51685W        W16945  40.345  37.483  14.905
51686W        W16946  16.052  23.969  12.084
51687W        W16947  35.761  41.933   2.313
51688W        W16948  20.137  38.251  10.615
51689W        W16949  29.180  13.610   2.650
51690W        W16950  24.077  26.464  10.768
51691W        W16951   5.786  41.827   0.247
51692W        W16952  19.993  11.768  13.079
51693W        W16953   2.436  35.041   2.356
51694W        W16954   6.443   4.121  14.028
51695W        W16955  37.162  21.379   4.267
51696W        W16956  17.737   2.613  13.437
51697W        W16957  17.218  18.369   1.216
51698W        W16958  34.415  30.452  14.562
51699W        W16959  32.375  12.816  14.816
51700W        W16960   4.516  38.954  13.330
51701W        W16961   6.414  43.997  14.257
51702W        W16962  15.765  25.929   1.120
51703W        W16963  42.379   9.479   1.186
51704W        W16964  14.200  22.981  11.976
51705W        W16965  30.918  25.949  12.072
51706W        W16966   1.157  16.568   3.758
51707W        W16967  10.814   3.318   1.848
51708W        W16968  28.914  44.599  11.109
51709W        W16969  28.020  33.858   2.632
51710W        W16970  17.412  30.440  13.878
51711W        W16971  17.252   6.118  14.133
51712W        W16972  35.964   7.665   4.766
51713W        W16973  13.812  44.389  14.967
51714W        W16974  21.469  20.264   1.326
51715W        W16975   3.429  37.465   5.107
51716W        W16976  30.953  13.996   3.840
51717W        W16977  26.486  19.812  12.911
51718W        W16978  10.120  10.177  11.552
51719W        W16979  32.824   3.059   0.644
51720W        W16980  24.789  20.301   2.173
51721W        W16981  41.038  31.228   1.898
51722W        W16982  37.499  23.072   1.922
51723W        W16983   7.222  13.794  10.715
51724W        W16984  13.721  11.324   2.410
51725W        W16985   8.761  38.074  14.965
51726W        W16986  22.341  21.131  14.762
51727W        W16987  26.233  39.019  13.125
51728W        W16988  29.510  11.274   3.865
51729W        W16989   5.198  25.630  11.591
51730W        W16990  26.872  22.385  12.916
51731W        W16991   1.488  24.111   3.148
51732W        W16992  11.241  38.021   0.903
51733W        W16993  31.266  34.709   0.784
51734W        W16994  10.820  26.006   3.052
51735W        W16995  28.757  26.899  13.121
51736W        W16996  42.906   5.799  13.027
51737W        W16997  43.287  43.031  12.233
51738W        W16998  14.507  38.575  12.156
51739W        W16999  34.610  16.261  13.825
51740W        W17000   3.910  22.565  14.380
51741W        W17001  15.028  37.569   3.317
51742W        W17002  34.780  23.216   9.918
51743W        W17003  30.893  35.799   2.264
51744W        W17004  17.729  22.745   0.999
51745W        W17005  24.554  20.216  13.911
51746W        W17006  27.952  42.912   9.796
51747W        W17007  23.046   3.899   0.708
51748W        W17008  16.747  35.066  13.023
51749W        W17009  44.157  43.287  12.954
51750W        W17010   6.792  10.669   1.397
51751W        W17011  16.042  31.934   2.273
51752W        W17012  36.820  14.332   1.905
51753W        W17013  29.115   6.259  11.060
51754W        W17014  30.636   6.968   2.181
51755W        W17015  11.902  16.535   2.225
51756W        W17016  31.869  36.343   0.632
51757W        W17017  37.101  14.538  11.475
51758W        W17018  31.428  33.294  12.573
51759W        W17019  22.243   3.933   0.237
51760W        W17020  26.638  13.274   4.953
51761W        W17021   5.012  27.993   0.804
51762W        W17022  12.669   5.755  12.346
51763W        W17023  25.696  13.358   0.992
51764W        W17024  19.812  41.027  13.908
51765W        W17025  25.252  29.183   3.140
51766W        W17026   4.375  20.363  11.712
51767W        W17027  20.681  39.263  11.991
51768W        W17028  15.744  22.575   1.385
51769W        W17029  39.771  23.032  11.992
51770W        W17030  41.043  14.714  11.642
51771W        W17031  10.403   0.239  10.709
51772W        W17032  41.356  30.867  10.691
51773W        W17033  42.416  27.835   4.252
51774W        W17034  38.212  19.547   1.300
51775W        W17035  24.974  27.880  11.183
51776W        W17036  37.336  31.403  14.738
51777W        W17037   8.757  44.577   3.653
51778W        W17038  21.738  27.090   1.740
51779W        W17039  27.132  44.784  14.034
51780W        W17040  31.572   6.278  12.970
51781W        W17041   7.274  17.057  12.091
51782W        W17042   8.775  11.690  13.292
51783W        W17043  33.575  33.449  14.870
51784W        W17044  27.685  15.585  10.537
51785W        W17045   9.938  41.008   4.338
51786W        W17046  24.373   2.378   5.060
51787W        W17047   5.793  16.549   3.621
51788W        W17048  32.165  26.540   0.268
51789W        W17049  21.683  13.145   2.507
51790W        W17050   9.362  27.011   0.309
51791W        W17051  41.485  12.932   0.324
51792W        W17052  31.552  38.549  13.769
51793W        W17053  14.922   0.705  14.471
51794W        W17054   1.950   7.275   1.880
51795W        W17055   3.142  16.122   4.386
51796W        W17056   7.158   0.943  11.957
51797W        W17057  22.186  29.659   3.646
51798W        W17058  10.568   0.520  11.973
51799W        W17059  20.313  21.205  10.979
51800W        W17060  17.842  29.090   3.584
51801W        W17061  10.286  25.221   2.354
51802W        W17062  20.001  22.824   0.744
51803W        W17063  43.160  19.762  10.291
51804W        W17064  36.625   0.988  12.131
51805W        W17065  14.788  18.696  11.994
51806W        W17066   3.869  11.398  12.879
51807W        W17067  39.294  34.253   2.800
51808W        W17068  11.909  17.584   4.500
51809W        W17069  12.988  39.894   2.392
51810W        W17070   7.334   4.963  12.126
51811W        W17071   1.424  16.883   2.775
51812W        W17072   2.431  17.255  10.745
51813W        W17073  23.822  37.014   1.950
51814W        W17074  34.815   3.440  11.652
51815W        W17075  26.278  36.318  13.305
51816W        W17076  39.484  44.266   0.435
51817W        W17077  12.497  36.339   3.691
51818W        W17078  11.933   9.788  11.238
51819W        W17079   8.692   3.231   3.350
51820W        W17080  29.643  16.177  10.486
51821W        W17081  16.529  16.393  14.027
51822W        W17082  41.404  24.751  11.521
51823W        W17083  39.824  12.277  11.773
51824W        W17084  27.160   5.448   0.935
51825W        W17085  33.066  22.279  14.406
51826W        W17086  20.981   1.762  14.102
51827W        W17087  39.958   3.232   4.641
51828W        W17088  41.509  42.969  14.819
51829W        W17089  28.738  42.510  11.473
51830W        W17090  23.048  33.419  10.689
51831W        W17091  42.825   0.212  14.898
51832W        W17092  38.593  23.900  11.934
51833W        W17093   3.255   8.384   1.642
51834W        W17094  42.289   4.742   2.623
51835W        W17095  26.456  14.612  11.268
51836W        W17096  35.155  36.915   3.649
51837W        W17097   7.499  42.031   0.271
51838W        W17098  10.983   0.456   3.340
51839W        W17099   0.734  15.901  10.953
51840W        W17100  26.092  23.005  11.234
51841W        W17101   3.182  30.398  11.468
51842W        W17102   0.904  22.810   3.740
51843W        W17103  40.940  40.120   4.155
51844W        W17104  16.964  30.387  11.957
51845W        W17105  21.080  32.387   3.709
51846W        W17106  21.575   6.167  13.952
51847W        W17107  39.682  32.104   5.332
51848W        W17108  12.701  37.459   2.228
51849W        W17109  33.184   9.828   3.514
51850W        W17110   1.704  40.516   4.450
51851W        W17111  41.922  14.563   2.853
51852W        W17112  28.700  39.103   4.950
51853W        W17113  34.164  33.431   1.107
51854W        W17114  11.714  12.284  14.811
51855W        W17115  10.661  18.764  11.701
51856W        W17116  11.011  37.268   4.519
51857W        W17117  10.237   5.355  14.994
51858W        W17118   2.782  41.145   0.532
51859W        W17119  23.945  37.461  13.295
51860W        W17120  14.809  14.271   0.569
51861W        W17121  12.811   6.467   1.764
51862W        W17122  20.086  43.584  14.015
51863W        W17123  25.404  19.968   3.762
51864W        W17124  40.030  16.287   4.306
51865W        W17125  26.983  15.636   4.952
51866W        W17126  28.634  38.986  12.862
51867W        W17127  26.092   4.710   3.135
51868W        W17128  10.384  18.087  11.488
51869W        W17129   1.307  37.281  14.971
51870W        W17130  42.565  15.991  11.209
51871W        W17131  14.645   6.358   1.938
51872W        W17132  17.282  21.819   0.836
51873W        W17133  31.426  43.471  12.519
51874W        W17134  13.243   3.970   3.198
51875W        W17135  10.108  41.290   1.932
51876W        W17136  18.104   3.984   2.884
51877W        W17137   6.465  20.634  13.146
51878W        W17138  33.868   8.289   1.823
51879W        W17139  32.568  11.168  13.527
51880W        W17140  24.715  11.216   1.488
51881W        W17141  31.022  11.293   0.790
51882W        W17142  22.010  22.256  12.108
51883W        W17143  34.884  11.753  13.296
51884W        W17144  41.870  18.137   2.779
51885W        W17145  36.419  30.631  13.090
51886W        W17146  12.319  23.687   3.577
51887W        W17147  39.001   9.202  11.025
51888W        W17148  13.459   0.514  12.022
51889W        W17149  40.841  28.089  13.354
51890W        W17150  25.030  18.569   2.170
51891W        W17151  39.428   8.699   1.962
51892W        W17152  16.285  21.176   1.335
51893W        W17153  36.527  25.170  13.932
51894W        W17154  12.827  25.761   1.656
51895W        W17155  21.388  35.042  11.063
51896W        W17156  11.728  19.336   0.896
51897W        W17157  35.105  26.391  11.198
51898W        W17158  38.901  20.283  11.960
51899W        W17159  39.938  23.023   0.959
51900W        W17160  21.548  38.941   0.265
51901W        W17161   4.124  20.679   3.603
51902W        W17162  42.549  15.589  14.468
51903W        W17163  17.228  19.877   0.172
51904W        W17164  30.913  41.068  14.334
51905W        W17165  13.666  10.742  13.344
51906W        W17166  20.237  41.004   4.079
51907W        W17167  37.468   5.108  12.067
51908W        W17168  30.501  27.052   2.393
51909W        W17169  21.064   2.740  14.915
51910W        W17170   9.806   9.101   3.139
51911W        W17171   3.361  40.155   3.655
51912W        W17172   7.628  14.824   1.491
51913W        W17173   3.644  30.957  14.909
51914W        W17174  20.897  14.612  12.115
51915W        W17175  31.885  38.838   3.199
51916W        W17176  11.846   9.332  12.948
51917W        W17177  41.002   9.920  11.936
51918W        W17178  37.313  26.396   3.702
51919W        W17179  41.884  42.412  11.156
51920W        W17180  21.091   0.781  12.365
51921W        W17181  34.430  23.775  12.567
51922W        W17182  41.820  40.094  12.095
51923W        W17183   1.980  11.312  13.008
51924W        W17184  10.860  12.250   4.195
51925W        W17185  30.897   2.953   3.334
51926W        W17186  19.133  16.716  10.598
51927W        W17187  26.671  41.912  14.400
51928W        W17188  26.426   9.331  12.964
51929W        W17189   3.994  36.793   0.556
51930W        W17190  11.937  20.124  13.077
51931W        W17191  24.311  10.966   0.790
51932W        W17192   4.357  34.082   3.108
51933W        W17193   8.256  22.517   3.186
51934W        W17194  10.733  43.458  12.192
51935W        W17195  35.333  28.493  12.161
51936W        W17196  24.543  31.185  14.905
51937W        W17197  42.244  35.095   1.324
51938W        W17198  25.256   6.756   0.561
51939W        W17199   7.113   3.828   0.364
51940W        W17200  38.235  30.993  13.133
51941W        W17201  11.154  25.680   1.853
51942W        W17202  38.892  21.143   0.710
51943W        W17203  22.104  43.496  13.037
51944W        W17204   0.306  13.724   2.758
51945W        W17205   9.657  11.968   4.600
51946W        W17206   2.629  19.673   9.821
51947W        W17207  44.920  40.534  12.591
51948W        W17208  18.633  29.141  11.290
51949W        W17209   7.112  31.784  14.937
51950W        W17210  43.415  18.538  10.643
51951W        W17211   6.439  34.615   2.369
51952W        W17212   2.289  10.943  10.507
51953W        W17213  44.686  17.246  13.059
51954W        W17214  26.963  40.793   3.907
51955W        W17215  40.291  36.114  11.612
51956W        W17216  43.524  27.548  10.914
51957W        W17217   1.650  31.126  12.899
51958W        W17218  40.538  36.459  13.658
51959W        W17219  16.918  34.307  10.648
51960W        W17220  44.948   0.737  12.312
51961W        W17221  28.113  23.437  13.180
51962W        W17222   9.236  34.875  14.525
51963W        W17223  24.301  39.092   4.594
51964W        W17224  10.202  13.099   4.326
51965W        W17225  37.195  42.433  14.419
51966W        W17226   6.363  29.120   9.861
51967W        W17227  12.490   3.781  10.271
51968W        W17228   6.310  43.245  13.646
51969W        W17229  19.943  38.084   4.244
51970W        W17230  43.852  32.085  12.404
51971W        W17231   9.377  25.955  11.134
51972W        W17232   1.655  31.368  10.701
51973W        W17233  13.822  29.091   1.786
51974W        W17234  18.668  20.079  14.243
51975W        W17235  24.611   8.218  14.565
51976W        W17236   1.055  16.587  13.366
51977W        W17237  43.678  37.141   4.964
51978W        W17238  19.332  18.992  10.441
51979W        W17239  29.232  13.218  11.451
51980W        W17240  10.827   3.139   9.997
51981W        W17241   4.906  24.001   1.185
51982W        W17242   2.205  23.004  13.511
51983W        W17243  13.264  24.576   3.175
51984W        W17244   6.202  11.861   1.483
51985W        W17245  27.263   3.229  10.846
51986W        W17246  34.943  14.321  13.272
51987W        W17247  13.393  38.989   4.144
51988W        W17248  29.165  10.318  14.373
51989W        W17249  15.131  34.588   4.194
51990W        W17250   3.447  40.080  11.026
51991W        W17251  28.693  35.106  13.608
51992W        W17252  12.828  13.115   1.484
51993W        W17253  17.166  36.943   2.609
51994W        W17254  41.799  29.596   3.384
51995W        W17255  31.928   4.770   4.135
51996W        W17256  18.236  35.674  13.473
51997W        W17257   8.729  23.597   1.339
51998W        W17258   2.037  39.879   1.919
51999W        W17259  19.866  28.376   0.476
52000W        W17260   0.322  36.074   2.447
52001W        W17261   8.289   7.227  10.338
52002W        W17262  43.439  11.806   1.319
52003W        W17263  10.642  33.168  12.965
52004W        W17264  11.721  42.443   3.650
52005W        W17265  25.103   0.037  14.970
52006W        W17266  26.418  22.461   1.975
52007W        W17267  35.588  13.661  13.557
52008W        W17268  20.236  38.924   3.528
52009W        W17269  41.876  26.203  12.390
52010W        W17270  21.724   6.981  12.576
52011W        W17271   2.313  19.837  14.248
52012W        W17272   5.277  33.424  13.937
52013W        W17273  23.936   3.141   5.023
52014W        W17274  17.099  34.981  14.833
52015W        W17275   2.184   4.898  14.410
52016W        W17276  12.595   6.815  14.345
52017W        W17277  44.260  34.004  11.378
52018W        W17278  26.940  18.979   0.256
52019W        W17279  43.356  16.776   3.122
52020W        W17280   1.911  30.582   4.424
52021W        W17281  28.978   8.596   1.863
52022W        W17282  39.006   8.280  14.187
52023W        W17283  25.868  12.981  11.189
52024W        W17284  32.178  30.156  13.023
52025W        W17285  43.998  18.666  12.403
52026W        W17286   8.926  36.511  12.573
52027W        W17287  20.718  36.309   3.258
52028W        W17288  36.003  12.276   2.770
52029W        W17289  41.699  26.628   0.360
52030W        W17290  26.464   0.944   2.870
52031W        W17291  13.592  37.091   4.185
52032W        W17292  13.546   6.168   0.182
52033W        W17293  18.927   7.692  13.801
52034W        W17294  31.073  13.504  10.255
52035W        W17295  34.995  13.523  12.810
52036W        W17296  39.063  29.860   0.854
52037W        W17297  28.083  34.200   3.789
52038W        W17298   0.430  21.641   4.516
52039W        W17299  34.373   7.167  14.842
52040W        W17300  10.260  14.608  10.126
52041W        W17301  32.290   1.559  11.652
52042W        W17302  35.841  13.081  12.567
52043W        W17303  18.509  43.462   3.377
52044W        W17304   0.605  37.991   1.612
52045W        W17305  29.725   1.692  13.104
52046W        W17306  36.494   2.798   4.301
52047W        W17307  39.794  27.569   4.664
52048W        W17308  44.239  24.740   4.615
52049W        W17309  42.674   1.830   3.259
52050W        W17310  42.549  28.997   4.104
52051W        W17311  44.316   1.664   0.080
52052W        W17312  43.943  31.994   0.013
52053W        W17313  30.574  39.144  12.129
52054W        W17314  41.900   1.662  11.095
52055W        W17315   6.702  24.159   3.692
52056W        W17316  19.519  31.139  14.446
52057W        W17317  30.939   8.453  14.000
52058W        W17318  30.680  17.557  12.004
52059W        W17319  35.352  44.327  14.425
52060W        W17320   0.815   9.275   1.851
52061W        W17321  43.206  31.872   0.489
52062W        W17322  12.147  38.596  11.916
52063W        W17323  39.730   3.770   2.633
52064W        W17324   8.887  28.033  12.926
52065W        W17325  31.569  43.098   1.885
52066W        W17326   6.149  24.658   4.564
52067W        W17327  23.411   6.405   0.929
52068W        W17328  28.132  44.408  10.046
52069W        W17329  29.619  38.468   3.105
52070W        W17330  43.321  39.629  13.948
52071W        W17331  20.051   2.782  12.510
52072W        W17332  11.702   3.718  13.915
52073W        W17333   6.919  34.369  13.824
52074W        W17334   5.669  34.176   2.871
52075W        W17335  42.714  19.137  12.237
52076W        W17336  20.036  23.139  14.068
52077W        W17337  22.870  42.018  10.634
52078W        W17338  23.147  34.172   1.196
52079W        W17339   1.153  32.890   1.311
52080W        W17340  11.152  31.944  13.943
52081W        W17341  26.688  37.877   1.769
52082W        W17342   6.231   1.995   0.047
52083W        W17343  41.891  39.711   0.886
52084W        W17344   0.111  36.836   3.714
52085W        W17345  26.996  17.221   3.682
52086W        W17346  26.517  22.614  12.608
52087W        W17347  44.897  34.590  12.468
52088W        W17348  21.597   2.745  14.927
52089W        W17349  15.194  20.187  11.525
52090W        W17350   6.217   5.350   1.436
52091W        W17351  34.541  30.938   2.122
52092W        W17352   4.013   2.395   2.754
52093W        W17353   5.752  33.628  14.032
52094W        W17354  29.464  43.327  11.096
52095W        W17355   1.852   0.886  13.155
52096W        W17356  16.297  12.545  13.805
52097W        W17357  42.718  39.848  10.415
52098W        W17358  39.447  21.267   1.885
52099W        W17359  35.536  24.436   9.826
52100W        W17360   9.714  20.631   3.664
52101W        W17361  18.083  37.567  10.615
52102W        W17362  24.500  25.237   0.443
52103W        W17363  19.673  27.485   0.339
52104W        W17364  10.920   4.295   4.603
52105W        W17365  29.697  26.188  13.821
52106W        W17366  39.600  12.836   0.447
52107W        W17367  10.829  16.249   4.066
52108W        W17368   2.689  16.313  14.011
52109W        W17369   4.503  12.688   3.191
52110W        W17370  39.839  17.726   0.525
52111W        W17371  30.563  30.957  13.551
52112W        W17372   3.189  44.696   4.396
52113W        W17373   2.306  32.162   2.921
52114W        W17374  18.373   9.467   2.752
52115W        W17375  42.406  42.466  11.437
52116W        W17376   2.317   8.453  11.580
52117W        W17377   0.184  34.900  12.139
52118W        W17378  32.079   2.865   2.910
52119W        W17379  35.027  18.731   0.300
52120W        W17380   1.063  13.618   3.216
52121W        W17381   8.150  29.466   4.236
52122W        W17382  23.150  35.505  13.902
52123W        W17383  31.263  23.676   5.061
52124W        W17384   3.781  10.190  12.180
52125W        W17385  26.121   4.323   3.499
52126W        W17386  12.087   9.502  10.164
52127W        W17387   2.986  29.684   4.112
52128W        W17388  25.009  23.642  14.448
52129W        W17389  10.344  44.285   4.812
52130W        W17390   9.874  21.635  11.059
52131W        W17391  33.383  38.324  12.970
52132W        W17392   1.752   0.992   1.379
52133W        W17393  24.241   3.883   3.654
52134W        W17394  25.153  16.106  12.581
52135W        W17395  16.197   0.824  10.358
52136W        W17396  20.770  11.309  13.890
52137W        W17397  42.952  21.085  14.468
52138W        W17398  17.887  34.943   3.239
52139W        W17399  26.947  15.082   1.831
52140W        W17400  17.483  17.486   4.960
52141W        W17401  18.332  36.152   0.700
52142W        W17402  25.941  27.512   2.150
52143W        W17403  25.197  13.638   3.712
52144W        W17404  18.540  28.401  14.806
52145W        W17405  25.152   8.711  10.733
52146W        W17406   7.335  34.959   0.308
52147W        W17407  27.598  25.997   2.476
52148W        W17408  21.030  22.182  10.735
52149W        W17409  29.532  42.099   4.109
52150W        W17410  29.465  41.439  14.888
52151W        W17411  17.653  34.978   3.702
52152W        W17412  20.821  17.957  11.177
52153W        W17413   1.242  12.959  14.096
52154W        W17414   2.527  21.789  14.432
52155W        W17415  38.055  13.457  12.357
52156W        W17416  40.349  34.332  10.741
52157W        W17417  31.214  18.748   2.133
52158W        W17418  43.694   8.735   0.697
52159W        W17419  33.997  20.590  12.398
52160W        W17420  11.615   1.957  11.293
52161W        W17421  13.790   1.026  11.103
52162W        W17422   3.639  32.473   0.928
52163W        W17423  42.873   5.224  13.881
52164W        W17424  42.490  13.845   4.939
52165W        W17425   4.993   6.133   3.620
52166W        W17426   5.400  43.473  14.772
52167W        W17427   2.906  43.563  13.713
52168W        W17428  23.646  13.841   2.302
52169W        W17429  10.864  41.152  12.323
52170W        W17430  33.723  25.068   3.307
52171W        W17431  13.639   2.551  12.589
52172W        W17432  40.014  19.945   0.676
52173W        W17433  20.391  26.579   4.024
52174W        W17434  30.281   4.439  13.982
52175W        W17435  42.519   3.263  10.609
52176W        W17436  32.877  23.511  13.320
52177W        W17437  27.736  39.863  12.454
52178W        W17438  40.057  43.719   1.451
52179W        W17439  18.160  24.827   0.796
52180W        W17440  13.107  18.574   2.958
52181W        W17441  32.920  34.058  12.419
52182W        W17442  43.068  30.486   1.017
52183W        W17443  23.772   5.997   5.397
52184W        W17444  30.037   5.179   1.606
52185W        W17445  14.095  19.779  11.057
52186W        W17446   5.725  40.562  12.626
52187W        W17447  28.905  23.909   2.307
52188W        W17448   2.472  40.099  10.853
52189W        W17449  20.620   5.430   9.768
52190W        W17450  25.031   8.793   1.418
52191W        W17451   2.266  11.416  11.949
52192W        W17452  32.083   8.746   0.261
52193W        W17453  37.962   6.806  11.458
52194W        W17454  17.073  28.959  11.094
52195W        W17455  26.486  30.949   0.935
52196W        W17456   5.308  41.798  12.405
52197W        W17457  31.265  10.382   0.483
52198W        W17458   3.622  28.615  14.911
52199W        W17459  28.184   5.454   1.968
52200W        W17460  15.907  18.891  10.305
52201W        W17461  24.499  18.668   2.156
52202W        W17462   7.664  21.777   3.168
52203W        W17463  23.751  44.293  13.592
52204W        W17464  41.773  29.114   1.772
52205W        W17465   5.344   0.307   0.948
52206W        W17466   3.308  23.050   4.235
52207W        W17467  15.261  42.088  12.753
52208W        W17468  40.522  23.657   2.899
52209W        W17469  26.016  16.390   0.433
52210W        W17470  34.528  42.075  12.362
52211W        W17471  37.584  32.676  13.260
52212W        W17472  31.724  14.593  13.873
52213W        W17473  11.605   3.242  12.911
52214W        W17474  37.560   5.280  14.862
52215W        W17475  33.297  30.922  12.312
52216W        W17476  32.852  39.831   2.850
52217W        W17477  23.760  42.841   1.392
52218W        W17478   5.821   4.217  13.438
52219W        W17479  32.234  12.569   4.040
52220W        W17480  12.368  18.591   3.714
52221W        W17481   7.458  15.327  14.184
52222W        W17482   1.598  41.006   4.587
52223W        W17483  43.820  38.608   1.253
52224W        W17484  36.873   7.848   0.839
52225W        W17485   4.213   5.314  12.980
52226W        W17486  35.454  36.192  10.326
52227W        W17487  25.403  18.583  14.313
52228W        W17488  24.957  25.241  13.957
52229W        W17489  27.622  29.304  11.917
52230W        W17490  39.833  44.944  11.121
52231W        W17491  14.526  30.349   3.601
52232W        W17492   5.638   9.672  11.997
52233W        W17493   1.319  35.506  10.769
52234W        W17494  41.769  27.693   0.301
52235W        W17495  14.310  37.608   4.869
52236W        W17496  35.820  32.620  12.999
52237W        W17497   4.423  43.546   3.644
52238W        W17498  20.383  14.744   0.781
52239W        W17499  39.357  28.046   0.074
52240W        W17500  13.811  27.477   2.182
52241W        W17501   2.654  30.452   1.303
52242W        W17502  12.071  23.318  11.167
52243W        W17503  38.869  28.403   4.542
52244W        W17504  12.885  29.088  14.935
52245W        W17505  32.776  30.677  10.090
52246W        W17506   8.961   0.384   2.686
52247W        W17507   0.529  21.553  12.459
52248W        W17508  10.882  12.326  11.075
52249W        W17509  33.486  17.993   0.756
52250W        W17510  17.982  36.151   4.253
52251W        W17511  32.057  16.062  10.696
52252W        W17512  42.188  22.255   3.514
52253W        W17513  12.431  44.773   1.482
52254W        W17514   2.983  10.184  12.927
52255W        W17515  18.655  16.598   4.144
52256W        W17516   1.757  27.904   0.564
52257W        W17517  41.414   9.129   3.244
52258W        W17518  16.031   2.448  11.593
52259W        W17519  44.947   2.265  11.840
52260W        W17520  27.140  31.137  11.524
52261W        W17521  29.571  35.488   3.658
52262W        W17522   0.314  34.442   1.454
52263W        W17523  38.402   9.309  12.992
52264W        W17524   5.400  35.682   4.177
52265W        W17525  38.663  34.962   0.846
52266W        W17526  33.544  11.935   3.184
52267W        W17527  15.930  23.482  12.217
52268W        W17528  38.388  36.944   1.412
52269W        W17529  26.738  25.260  12.965
52270W        W17530  22.218  28.427   2.366
52271W        W17531  37.874  14.241  11.860
52272W        W17532  27.306  21.194   3.660
52273W        W17533   5.715   3.350  14.752
52274W        W17534  42.451  34.829  10.524
52275W        W17535   4.339  40.312   3.738
52276W        W17536  34.872  33.917   4.833
52277W        W17537  44.549  10.947  12.411
52278W        W17538   1.821   8.096  12.587
52279W        W17539  30.789  33.031   2.176
52280W        W17540   1.958  11.150   2.905
52281W        W17541  43.507   5.324   2.678
52282W        W17542  26.570   5.289   1.693
52283W        W17543  42.948  17.604  13.914
52284W        W17544  38.381  41.040  12.631
52285W        W17545  19.217  11.429  10.780
52286W        W17546   0.486  29.746  11.172
52287W        W17547   0.804  13.596   2.761
52288W        W17548   4.595  35.463  11.760
52289W        W17549   0.008  43.537  11.613
52290W        W17550  44.514  39.154   1.615
52291W        W17551  26.472   0.903  11.104
52292W        W17552  23.457   3.456  12.549
52293W        W17553  25.999  21.283   4.535
52294W        W17554   1.691  23.226   1.706
52295W        W17555  28.547  19.625  10.972
52296W        W17556  15.276  19.353   2.938
52297W        W17557  30.507   0.919  10.961
52298W        W17558  31.453  36.530   3.366
52299W        W17559  26.541  25.522   1.820
52300W        W17560  11.767  32.631  12.567
52301W        W17561  30.305  25.548   2.301
52302W        W17562  14.174  10.667   3.099
52303W        W17563  17.052   6.813  14.441
52304W        W17564  14.289  30.463   1.365
52305W        W17565   6.814   2.865   0.760
52306W        W17566  36.629  34.608  14.573
52307W        W17567  24.781  19.190  14.745
52308W        W17568   3.641  31.500   2.585
52309W        W17569  34.978  17.318   0.772
52310W        W17570  38.052  37.530  14.375
52311W        W17571   7.899  13.284  10.734
52312W        W17572  13.746   9.048   1.960
52313W        W17573  41.647  17.666  14.391
52314W        W17574   2.390  24.241   1.309
52315W        W17575  34.788   2.336  13.033
52316W        W17576   8.741   0.038  12.563
52317W        W17577   6.056  35.001   4.603
52318W        W17578   3.749  35.365   4.644
52319W        W17579  31.047  36.136   3.119
52320W        W17580  17.871   4.383  14.508
52321W        W17581  44.937  26.545   0.982
52322W        W17582  25.061   3.754   3.188
52323W        W17583  36.122   5.236   3.146
52324W        W17584  22.706  38.613  11.547
52325W        W17585  42.017   9.310  12.058
52326W        W17586  30.648  34.453  13.845
52327W        W17587  11.798  11.576  11.671
52328W        W17588  30.093  43.933  14.283
52329W        W17589  24.147  27.225  13.955
52330W        W17590  36.818  25.114  11.175
52331W        W17591  42.521  33.816   1.592
52332W        W17592   4.280  24.747   2.192
52333W        W17593  29.939  34.476   0.999
52334W        W17594  44.807  36.230   1.540
52335W        W17595  10.960   3.718  12.993
52336W        W17596  18.744  29.071   4.229
52337W        W17597  13.364  18.172  13.350
52338W        W17598  43.620   7.760   3.587
52339W        W17599  13.224   3.921   1.074
52340W        W17600  29.025  38.339  12.833
52341W        W17601  35.545   6.705   2.276
52342W        W17602  28.702   3.778   3.275
52343W        W17603  34.646  36.391  13.635
52344W        W17604  31.919   7.390  13.875
52345W        W17605  39.355   5.658   4.958
52346W        W17606  31.140   3.481   4.235
52347W        W17607   2.370  13.212   2.626
52348W        W17608   3.907  20.988   2.989
52349W        W17609  37.819   6.913  14.527
52350W        W17610  12.730  35.494   0.270
52351W        W17611  14.213   5.064   1.261
52352W        W17612  38.922   6.972   2.922
52353W        W17613  15.591  21.614  10.668
52354W        W17614   5.423  27.950   1.890
52355W        W17615  27.212   0.489  11.401
52356W        W17616   3.964   4.094  14.303
52357W        W17617  16.636  24.671   0.841
52358W        W17618  38.218   8.765   1.018
52359W        W17619  22.560  38.545  13.547
52360W        W17620   3.976  17.719   2.863
52361W        W17621   9.809   1.500   4.686
52362W        W17622  32.220   4.978   1.372
52363W        W17623  16.383  34.585  11.677
52364W        W17624   6.780   0.379  12.606
52365W        W17625  12.358   2.559  12.100
52366W        W17626   3.009   4.391   4.172
52367W        W17627  20.628  44.690  14.817
52368W        W17628  36.416  23.072  13.955
52369W        W17629  39.026  34.966  12.175
52370W        W17630  20.465  41.328  13.859
52371W        W17631  20.279  16.258  13.551
52372W        W17632   4.645  18.957  14.110
52373W        W17633  19.241   6.183   0.793
52374W        W17634  40.577   1.375   1.652
52375W        W17635  31.511  30.646  13.404
52376W        W17636   2.740  36.083  10.915
52377W        W17637  36.568   3.309   3.683
52378W        W17638  17.062  40.981  10.749
52379W        W17639  11.568   3.206   3.728
52380W        W17640  18.452  11.435   0.251
52381W        W17641  19.701  37.562   2.701
52382W        W17642  15.157  20.240   5.179
52383W        W17643  40.571   2.287  11.610
52384W        W17644  27.499  42.009  14.909
52385W        W17645  29.932  39.520   1.505
52386W        W17646  41.058  40.812  10.447
52387W        W17647  17.188  26.955   4.287
52388W        W17648   8.908  40.478  13.248
52389W        W17649  11.129  21.198   4.497
52390W        W17650  35.256  43.594  13.238
52391W        W17651  24.227  32.593   0.703
52392W        W17652  14.227  15.089  11.892
52393W        W17653  38.741   0.885   0.773
52394W        W17654  14.941  42.535  14.145
52395W        W17655  39.363  25.701  11.447
52396W        W17656  13.863  10.323   4.107
52397W        W17657  43.646  35.615  11.466
52398W        W17658  10.403  34.081   0.857
52399W        W17659  24.282  29.112   0.348
52400W        W17660  33.560  38.562  12.420
52401W        W17661  41.664  25.789  10.698
52402W        W17662   6.480  21.968  13.501
52403W        W17663  18.020  41.366  14.508
52404W        W17664  20.299  16.988   4.039
52405W        W17665  34.648   6.479   2.742
52406W        W17666   9.239  20.428   1.295
52407W        W17667  41.281   8.714   0.805
52408W        W17668  38.890  25.411  14.283
52409W        W17669  37.497   8.757   1.717
52410W        W17670   2.170  28.831  12.592
52411W        W17671  25.624   7.732  12.602
52412W        W17672   6.984  18.316   0.811
52413W        W17673   9.963  44.810  14.828
52414W        W17674   5.303  31.389  13.854
52415W        W17675  34.834  33.825   4.298
52416W        W17676  44.956  33.371  13.759
52417W        W17677  24.579   7.488  11.611
52418W        W17678  41.360  15.638   4.916
52419W        W17679   9.421  11.942  14.733
52420W        W17680  28.144  35.341  10.586
52421W        W17681  27.328  28.481   3.697
52422W        W17682  27.327   9.671  14.321
52423W        W17683   6.891  40.269  14.235
52424W        W17684   5.178  16.359  13.124
52425W        W17685  21.762  24.669  10.723
52426W        W17686  27.683   5.358   1.847
52427W        W17687  19.099  13.215   3.266
52428W        W17688  12.136  27.029   4.219
52429W        W17689  13.702   4.376   3.884
52430W        W17690  21.597   3.356  13.591
52431W        W17691  27.040  23.001  10.405
52432W        W17692   3.812  39.427   1.008
52433W        W17693   2.238   4.818   4.678
52434W        W17694   9.913  25.566   4.612
52435W        W17695  27.654  43.025  10.525
52436W        W17696  42.127  12.366   1.794
52437W        W17697  35.136  15.636  14.568
52438W        W17698  30.480  35.328  11.458
52439W        W17699  36.494  25.150   4.213
52440W        W17700  29.566  40.443  10.253
52441W        W17701  40.832   5.949   3.329
52442W        W17702  44.579  31.028  10.564
52443W        W17703  11.339  33.511  11.247
52444W        W17704  15.012  18.810  10.579
52445W        W17705   1.306  19.102  10.572
52446W        W17706  13.216  43.794  12.044
52447W        W17707  25.619  31.067   4.348
52448W        W17708  29.547  34.978  14.399
52449W        W17709  43.050  43.225  12.646
52450W        W17710  21.169   9.519   4.091
52451W        W17711  29.617  14.730  12.101
52452W        W17712  36.184   0.259   3.235
52453W        W17713  12.587  22.500  11.210
52454W        W17714  36.772  11.103   4.294
52455W        W17715   1.269  18.528  14.425
52456W        W17716  25.657  44.693  10.561
52457W        W17717  24.244   1.108   4.084
52458W        W17718  36.788  39.381  14.886
52459W        W17719  32.196   7.760  14.149
52460W        W17720   6.095  16.762  10.827
52461W        W17721   4.510   8.447   0.555
52462W        W17722  31.588  17.377  10.772
52463W        W17723  43.825   8.272   0.900
52464W        W17724  35.554  29.654   0.217
52465W        W17725  15.625  24.365   1.420
52466W        W17726   0.507  14.234  12.412
52467W        W17727  18.729  10.607   1.276
52468W        W17728  38.486  30.698  14.585
52469W        W17729  15.322  42.870   0.020
52470W        W17730  21.775   1.415   0.287
52471W        W17731  35.962  12.831  13.973
52472W        W17732  22.171  15.895   1.300
52473W        W17733  33.222  39.962   1.309
52474W        W17734  10.991  29.979  11.671
52475W        W17735  41.070  20.059  14.797
52476W        W17736  23.074  40.603   5.145
52477W        W17737  30.727  18.553  14.012
52478W        W17738  43.209  30.334  14.797
52479W        W17739  31.919  30.898  13.914
52480W        W17740   3.526   6.335   5.028
52481W        W17741  35.926  27.479   3.086
52482W        W17742   6.207   5.007   4.731
52483W        W17743  33.796  26.615  10.848
52484W        W17744  12.240  39.574  13.716
52485W        W17745   0.491   9.208   1.442
52486W        W17746  23.151  36.874  12.849
52487W        W17747  44.052  16.865  14.947
52488W        W17748   8.151  42.549   0.772
52489W        W17749  13.912  15.709  11.756
52490W        W17750   9.832  18.339  11.508
52491W        W17751  20.481  13.134   2.775
52492W        W17752  14.771   2.869  13.775
52493W        W17753  25.494  27.174   2.825
52494W        W17754  31.471  40.872   4.403
52495W        W17755  21.937  34.491   2.764
52496W        W17756  35.459  22.287   2.591
52497W        W17757  13.823  39.696   1.306
52498W        W17758  28.061  25.897   2.778
52499W        W17759  19.305   5.812  13.375
52500W        W17760   9.113  14.792   2.567
52501W        W17761  18.620  34.056   2.831
52502W        W17762  30.153  21.184   0.513
52503W        W17763  39.946  33.143   1.845
52504W        W17764  31.580  32.999  14.343
52505W        W17765   5.262  40.499   0.211
52506W        W17766  40.881   7.694   3.406
52507W        W17767  21.048  17.624   3.296
52508W        W17768  14.095   6.763   2.634
52509W        W17769  27.589  33.545   2.727
52510W        W17770  39.480  27.643  12.046
52511W        W17771  30.012   5.694   4.772
52512W        W17772   8.790  39.618  12.991
52513W        W17773  33.041   8.636   3.182
52514W        W17774  35.424  13.847  11.695
52515W        W17775   1.907  17.204  11.040
52516W        W17776  15.774  19.613   1.862
52517W        W17777  28.002  30.630   0.927
52518W        W17778   2.856  40.485   0.710
52519W        W17779  10.084  27.252   3.374
52520W        W17780  12.253  37.053   1.099
52521W        W17781  22.624  23.127  10.621
52522W        W17782  34.469   1.574  11.219
52523W        W17783   5.257   1.600  14.041
52524W        W17784  29.251  40.545   2.289
52525W        W17785  26.701  44.888  12.067
52526W        W17786  39.462  27.530   0.015
52527W        W17787   8.869   9.825  12.432
52528W        W17788  29.857   3.177  12.578
52529W        W17789   2.982  40.945   3.589
52530W        W17790   1.527  26.626  13.880
52531W        W17791   3.907   8.125  12.160
52532W        W17792  43.120  41.881  11.850
52533W        W17793  28.415  32.003   1.718
52534W        W17794  14.265  36.012  13.140
52535W        W17795  30.341  13.190  10.764
52536W        W17796  37.176  14.150  13.894
52537W        W17797  22.696   3.902  14.736
52538W        W17798  38.564  30.083  13.755
52539W        W17799   7.838  38.257   3.216
52540W        W17800  34.122  35.245   2.795
52541W        W17801  43.065  42.937   2.194
52542W        W17802  12.723  14.297   3.705
52543W        W17803   9.827  17.031   4.768
52544W        W17804  39.569   7.290   4.399
52545W        W17805  27.804  15.664  13.882
52546W        W17806  44.724  39.977   1.730
52547W        W17807  28.148  17.586  14.533
52548W        W17808  12.316  40.458   0.861
52549W        W17809   6.312  34.827   2.839
52550W        W17810  28.094  14.296   3.061
52551W        W17811  18.882  25.199   3.645
52552W        W17812  28.998   1.291  11.973
52553W        W17813  12.690  44.364   1.687
52554W        W17814   4.693  41.525  13.987
52555W        W17815  31.539  27.065  12.637
52556W        W17816  15.588  43.506   3.609
52557W        W17817  22.856  13.292   2.207
52558W        W17818  16.185  11.516  13.771
52559W        W17819  40.868  11.411   4.915
52560W        W17820  32.703  27.966  11.576
52561W        W17821  39.351   6.311  13.421
52562W        W17822  32.149  16.480  11.027
52563W        W17823  34.492  18.022  11.688
52564W        W17824  15.068  38.562   2.606
52565W        W17825   1.711  13.354   0.323
52566W        W17826  42.381   7.349  12.481
52567W        W17827  16.796   1.800   3.401
52568W        W17828  13.148  44.956   1.031
52569W        W17829  43.332   0.549   3.319
52570W        W17830  13.181   6.474   2.160
52571W        W17831   5.712  33.886   3.302
52572W        W17832   0.090  21.243  10.597
52573W        W17833  24.738  10.256  11.548
52574W        W17834  33.940  25.626  14.800
52575W        W17835  12.784  42.920   2.142
52576W        W17836  37.570  42.137  14.229
52577W        W17837   5.576  13.724  14.360
52578W        W17838   1.548  10.788  13.541
52579W        W17839   1.994  13.108   4.798
52580W        W17840  42.128  14.981  12.472
52581W        W17841  38.878  17.024   3.669
52582W        W17842  34.849  14.029   2.918
52583W        W17843  20.077  40.092  10.992
52584W        W17844  44.031  33.663   2.763
52585W        W17845  33.529   7.695   1.307
52586W        W17846  12.397   0.885   0.733
52587W        W17847  33.905   6.784   0.545
52588W        W17848  21.127   0.759   1.420
52589W        W17849  18.643  33.731  14.522
52590W        W17850  36.080  18.328  10.621
52591W        W17851   8.505  19.397  11.902
52592W        W17852  35.569  26.161  13.925
52593W        W17853   7.988   6.708   0.817
52594W        W17854  21.090  14.581   3.769
52595W        W17855  41.928   3.023   2.977
52596W        W17856  26.957   6.964   2.801
52597W        W17857  15.658  17.604  12.219
52598W        W17858  27.566  27.946  14.334
52599W        W17859  16.040  26.150   0.688
52600W        W17860  13.634  22.804  14.883
52601W        W17861   0.307  32.592   2.254
52602W        W17862  19.275  40.681   4.148
52603W        W17863  29.038   5.177   2.020
52604W        W17864  37.533  33.633   0.462
52605W        W17865  37.747  38.909   0.342
52606W        W17866   8.217  22.707  14.338
52607W        W17867  36.814  18.885   4.212
52608W        W17868  19.640  33.867   4.986
52609W        W17869   2.006  13.663  13.040
52610W        W17870  17.387  24.657   3.148
52611W        W17871  22.975  39.906   1.326
52612W        W17872  16.878  22.916   2.353
52613W        W17873  14.405  25.345  11.544
52614W        W17874  44.413  13.838  13.980
52615W        W17875  44.151  21.272  11.658
52616W        W17876  30.408  22.190  13.797
52617W        W17877  14.711  34.114   1.713
52618W        W17878  20.721  14.258   3.536
52619W        W17879  30.917  13.298   1.963
52620W        W17880   6.859   2.876   3.393
52621W        W17881   2.928  19.746   3.190
52622W        W17882   1.646  20.436  13.498
52623W        W17883  35.338  27.555   2.184
52624W        W17884  12.668  44.288   4.163
52625W        W17885  30.110  30.691   3.714
52626W        W17886  34.169  31.094  12.073
52627W        W17887  27.278  21.382   1.006
52628W        W17888  44.868   3.372   4.092
52629W        W17889  21.743  29.105   1.351
52630W        W17890  16.241   9.511   2.156
52631W        W17891   4.880  19.043  13.641
52632W        W17892  24.456  44.581   0.428
52633W        W17893  28.377  31.891  13.039
52634W        W17894  25.813  28.611   3.584
52635W        W17895   6.886  42.783  10.733
52636W        W17896  27.542  23.599   4.842
52637W        W17897  18.617  11.447   2.689
52638W        W17898  15.259   4.781  10.262
52639W        W17899  37.779  43.918   3.817
52640W        W17900  17.237   5.750   4.157
52641W        W17901  26.964  37.306   1.305
52642W        W17902  26.097  42.928  10.716
52643W        W17903  17.073  22.204   4.141
52644W        W17904  23.565  26.226  13.009
52645W        W17905  13.368  16.134   3.897
52646W        W17906  12.129   8.221  13.389
52647W        W17907  23.829  18.039   1.442
52648W        W17908  24.119  39.405  14.704
52649W        W17909   0.867   8.672   4.666
52650W        W17910  21.689  17.130   4.244
52651W        W17911  41.011  34.101  12.383
52652W        W17912  18.779  18.597   0.407
52653W        W17913  37.395  36.838  11.796
52654W        W17914  13.513  11.730   0.802
52655W        W17915  12.883   2.983  10.613
52656W        W17916  20.796  16.294  13.453
52657W        W17917  21.994  24.519   0.668
52658W        W17918  15.070  43.491  11.586
52659W        W17919  16.603   4.514  10.551
52660W        W17920  37.990  37.253   3.160
52661W        W17921  26.999  40.710   1.775
52662W        W17922  10.258  36.469   2.602
52663W        W17923  31.861  35.426   2.983
52664W        W17924   0.493  31.695  11.125
52665W        W17925  43.351   3.647   2.732
52666W        W17926   2.203  15.584   2.219
52667W        W17927  27.948   9.186   3.283
52668W        W17928  18.129  13.377  11.639
52669W        W17929  19.812  20.639   3.236
52670W        W17930  41.768  22.887   1.250
52671W        W17931  40.414  22.824   1.100
52672W        W17932  42.929  23.599  12.207
52673W        W17933   8.340  34.047  14.490
52674W        W17934  28.569  19.637  14.233
52675W        W17935  16.257  14.782  11.264
52676W        W17936  27.185  39.025   2.184
52677W        W17937   6.915  12.738   2.223
52678W        W17938  16.297  38.136   0.693
52679W        W17939   4.886  38.903  11.864
52680W        W17940  21.826  30.531  14.485
52681W        W17941  27.987  31.438  14.904
52682W        W17942  18.806  25.607   4.375
52683W        W17943  35.212  25.645   4.308
52684W        W17944  16.806  34.308  11.524
52685W        W17945  20.874   4.375  11.121
52686W        W17946   4.218  20.767   4.484
52687W        W17947  14.848  38.543   3.596
52688W        W17948  23.093  32.347  10.942
52689W        W17949  26.848   4.356  11.504
52690W        W17950  18.545   5.353  13.646
52691W        W17951  40.217  31.067  12.410
52692W        W17952  41.016   5.107  11.249
52693W        W17953  13.125  30.960  13.485
52694W        W17954  18.254  28.724   1.525
52695W        W17955  34.606  37.446  12.263
52696W        W17956  11.732  23.123  11.513
52697W        W17957   4.588  34.772  12.289
52698W        W17958   8.210  30.105   0.754
52699W        W17959  17.876  38.279  14.260
52700W        W17960  30.949   5.901  14.419
52701W        W17961  30.398  20.616  13.379
52702W        W17962   9.529   6.956  10.203
52703W        W17963  10.177   7.881   2.995
52704W        W17964   1.489  22.671   4.117
52705W        W17965  28.090   7.086  12.777
52706W        W17966   4.082  31.893  12.063
52707W        W17967  12.755   3.945   4.122
52708W        W17968  32.842  41.200  10.880
52709W        W17969  13.344  41.864  14.452
52710W        W17970  25.281  16.586   1.715
52711W        W17971  23.382   4.856  11.583
52712W        W17972  16.705  41.666  11.065
52713W        W17973  37.349  17.374   4.534
52714W        W17974  30.352  25.108   4.040
52715W        W17975  38.902  27.197   2.810
52716W        W17976  37.356  15.797  11.245
52717W        W17977  30.941  39.852  12.023
52718W        W17978  16.324  38.531  14.351
52719W        W17979  25.616  23.011   0.675
52720W        W17980  31.755   0.223   0.078
52721W        W17981  27.018   3.061  13.398
52722W        W17982  27.115  14.627   4.950
52723W        W17983  35.869  29.503  11.568
52724W        W17984  11.644  16.321   1.290
52725W        W17985  26.182  16.646  13.798
52726W        W17986  42.679  17.830  12.054
52727W        W17987   7.072  21.115   2.167
52728W        W17988  35.411  33.624  14.351
52729W        W17989  31.295   1.021  14.158
52730W        W17990  39.288  39.518  14.163
52731W        W17991  22.436  42.418  11.172
52732W        W17992  22.430  27.697   1.447
52733W        W17993  18.057  20.442   0.414
52734W        W17994  29.975  36.187   2.453
52735W        W17995  25.066  14.613  12.027
52736W        W17996  44.421  23.419  13.840
52737W        W17997  42.936   9.257  11.466
52738W        W17998   9.447   7.016   1.010
52739W        W17999  39.758  33.492  14.718
52740W        W18000  23.464  37.629  14.869
52741W        W18001  43.344  32.632  14.940
52742W        W18002  23.181  24.215  13.401
52743W        W18003  40.071  38.573  12.430
52744W        W18004   3.000   2.509  12.738
52745W        W18005  34.666   0.498  14.310
52746W        W18006   4.689   0.394   3.256
52747W        W18007   0.937  29.389   4.200
52748W        W18008  17.252   9.811  12.905
52749W        W18009   5.048  11.367  13.069
52750W        W18010  15.596  32.895  11.610
52751W        W18011  42.554  15.280   3.692
52752W        W18012  12.961  14.209   3.258
52753W        W18013  17.153  37.642  13.129
52754W        W18014  26.489  20.650   1.869
52755W        W18015   6.554   4.685  14.856
52756W        W18016  12.833  44.432   2.694
52757W        W18017  44.961   3.014   0.943
52758W        W18018  20.144  26.167   2.364
52759W        W18019  34.984  36.438   2.752
52760W        W18020  39.541  10.486  14.877
52761W        W18021   8.643  33.975   3.273
52762W        W18022  44.866  32.406   1.159
52763W        W18023  18.158  40.288  13.854
52764W        W18024  35.598   4.595  13.905
52765W        W18025   9.372   1.676  14.814
52766W        W18026  41.869   1.950  10.665
52767W        W18027  16.589   4.218  11.598
52768W        W18028  43.927  10.235   5.060
52769W        W18029  32.366  40.976   2.788
52770W        W18030  43.338  10.090  12.834
52771W        W18031   4.982  20.432  12.402
52772W        W18032  16.874   9.506  12.062
52773W        W18033  18.736  39.527  12.329
52774W        W18034  15.983  19.192   9.875
52775W        W18035  26.525  21.226  11.851
52776W        W18036  13.416  21.465  14.961
52777W        W18037  35.050   1.910  14.830
52778W        W18038  44.641  42.946   1.120
52779W        W18039  28.244  40.842   2.298
52780W        W18040  14.993  20.611   2.264
52781W        W18041   6.760   0.872  11.620
52782W        W18042  13.739  36.421   2.129
52783W        W18043  21.068  11.368   4.310
52784W        W18044  29.739  37.054   0.442
52785W        W18045  43.973  22.118   3.142
52786W        W18046  16.013  32.466  14.724
52787W        W18047   5.674   1.259  14.043
52788W        W18048  42.701  41.747   0.486
52789W        W18049  26.203  41.033  12.098
52790W        W18050  35.019  34.213   3.360
52791W        W18051   4.263   6.694   3.733
52792W        W18052   0.068  22.702  12.357
52793W        W18053  19.591  27.100   3.703
52794W        W18054   3.845  39.467   4.629
52795W        W18055  44.901   8.763   3.141
52796W        W18056   1.904   4.644   1.217
52797W        W18057  10.937  35.498   0.296
52798W        W18058  33.008  32.153  14.131
52799W        W18059  41.045   1.699   9.896
52800W        W18060  29.657  12.618  12.537
52801W        W18061  41.831  33.476  11.389
52802W        W18062  31.214  20.418  13.803
52803W        W18063  37.744  26.495  10.021
52804W        W18064  41.528  10.271  12.383
52805W        W18065  11.628   8.028  11.062
52806W        W18066  29.912  39.234  14.937
52807W        W18067  29.446  14.239  11.834
52808W        W18068  13.369   9.939  12.597
52809W        W18069  11.748  32.119   1.714
52810W        W18070  44.325   8.252   0.771
52811W        W18071  13.547  30.153   1.881
52812W        W18072  12.803  23.453   3.519
52813W        W18073   2.883  20.958  11.639
52814W        W18074  18.962  34.704  14.849
52815W        W18075  40.563  43.237   0.215
52816W        W18076  36.319  32.058   0.656
52817W        W18077  10.142  40.713  14.249
52818W        W18078   1.308  27.556  14.358
52819W        W18079  40.676  10.292  12.195
52820W        W18080  39.028   3.856  14.951
52821W        W18081  13.491  14.298   1.366
52822W        W18082  41.093  32.355   2.634
52823W        W18083  43.743   9.846  11.798
52824W        W18084   8.957  25.601   2.701
52825W        W18085  20.841  18.523  13.006
52826W        W18086  26.931  22.501  10.573
52827W        W18087  11.467  34.045  14.920
52828W        W18088   7.000  16.882  14.930
52829W        W18089  44.543  15.128  11.603
52830W        W18090  33.940  10.166   0.719
52831W        W18091  37.881  34.488  12.889
52832W        W18092  24.966   8.538  14.835
52833W        W18093  30.150  19.846  12.478
52834W        W18094  38.795  26.000   4.196
52835W        W18095  10.248  29.777  12.132
52836W        W18096  35.910   7.639   0.717
52837W        W18097  44.906  37.433   2.189
52838W        W18098   4.484  11.862  11.649
52839W        W18099  39.901   6.232  14.611
52840W        W18100  28.658  41.028  10.640
52841W        W18101  23.249  26.060   2.811
52842W        W18102  28.478  23.217  13.495
52843W        W18103  25.130  21.567   2.161
52844W        W18104  41.991   2.294   4.962
52845W        W18105  25.743  36.983  11.317
52846W        W18106  40.786  28.249   2.764
52847W        W18107  31.875  40.491   2.380
52848W        W18108   0.240  37.143   4.853
52849W        W18109   3.175  12.893  12.294
52850W        W18110  33.914  28.165  11.004
52851W        W18111   1.434  30.923   1.443
52852W        W18112  25.456  36.907  14.801
52853W        W18113  26.258  17.344  14.483
52854W        W18114  27.688  11.193  14.535
52855W        W18115  36.883  41.476   1.752
52856W        W18116  35.797   6.110  10.736
52857W        W18117  38.753  36.655  11.104
52858W        W18118  43.466  18.555  11.582
52859W        W18119  30.887   7.227   9.806
52860W        W18120   2.515  12.233   1.667
52861W        W18121  23.473  36.531   2.812
52862W        W18122  28.605  44.942  13.609
52863W        W18123  15.133   5.517  14.920
52864W        W18124  26.495  32.587   0.237
52865W        W18125   2.424  35.718  11.704
52866W        W18126  15.245  23.394   2.347
52867W        W18127  22.137  42.009  11.415
52868W        W18128  29.713   9.852  11.049
52869W        W18129  26.489  37.562  10.593
52870W        W18130   9.067   1.928  12.454
52871W        W18131  18.713  31.106  12.270
52872W        W18132  33.869  17.348   2.154
52873W        W18133  39.268  25.814   4.474
52874W        W18134  36.306   0.024   3.696
52875W        W18135  43.854  38.482  11.376
52876W        W18136  32.181   8.100   4.227
52877W        W18137  37.783   2.103  10.698
52878W        W18138  10.409  28.105   4.036
52879W        W18139  18.699  22.676  12.933
52880W        W18140  12.089  21.191  14.606
52881W        W18141  25.947  36.103   2.223
52882W        W18142  11.196   1.784  10.499
52883W        W18143  17.709   4.713  11.669
52884W        W18144  29.189  43.058   1.230
52885W        W18145  43.069  13.788   2.319
52886W        W18146  38.516   0.277   0.959
52887W        W18147  35.201  24.936   3.133
52888W        W18148  14.633  41.374  14.790
52889W        W18149  38.815  15.979   0.341
52890W        W18150  26.833  24.019   2.630
52891W        W18151   7.986  29.420  11.533
52892W        W18152  31.689   5.784   2.413
52893W        W18153  16.385  11.329  12.004
52894W        W18154  35.829  44.982  10.715
52895W        W18155  31.212  23.943  10.344
52896W        W18156  40.432  28.913  12.101
52897W        W18157  26.313  14.090  13.220
52898W        W18158  10.649  34.447   2.663
52899W        W18159  34.526  22.626  12.113
52900W        W18160  11.230  17.820  11.945
52901W        W18161   7.468  22.522   1.710
52902W        W18162  30.790  33.571   1.422
52903W        W18163  11.951  21.688  10.343
52904W        W18164  43.936  44.905  12.436
52905W        W18165  42.285  33.033   1.699
52906W        W18166  26.852  39.053   2.979
52907W        W18167  16.056  19.545   0.305
52908W        W18168  36.551   3.255   0.940
52909W        W18169  36.434  19.551   1.395
52910W        W18170  30.853   7.425  13.973
52911W        W18171  35.113  28.263   1.181
52912W        W18172  23.743   1.840   2.862
52913W        W18173  24.205  24.653  14.318
52914W        W18174   6.202   9.865  10.748
52915W        W18175  11.592   6.384  12.828
52916W        W18176  34.992  17.156  11.818
52917W        W18177  20.112  30.613  10.999
52918W        W18178  26.445  33.394  11.506
52919W        W18179   3.223  16.735  11.560
52920W        W18180  14.760  10.439   0.854
52921W        W18181  25.631  21.779   3.401
52922W        W18182  40.985  43.321   1.491
52923W        W18183  43.053  18.788  12.449
52924W        W18184  27.373  34.208  12.548
52925W        W18185  23.995  22.165  10.794
52926W        W18186  39.674  10.780  12.427
52927W        W18187  35.531   4.503   3.307
52928W        W18188  24.238  15.794  13.339
52929W        W18189  19.490  28.094  13.343
52930W        W18190  24.714  25.905  11.142
52931W        W18191   8.599   6.312   4.543
52932W        W18192  43.502  26.435  13.285
52933W        W18193  26.936  23.955   4.639
52934W        W18194   5.801  32.568  11.863
52935W        W18195   0.550   7.449   2.347
52936W        W18196  44.996  28.537   3.976
52937W        W18197  14.792  31.511   2.542
52938W        W18198   6.253  38.657  13.448
52939W        W18199  43.109  19.952  14.299
52940W        W18200  22.952  37.584  13.469
52941W        W18201   1.094  39.476  13.560
52942W        W18202  10.652  24.127  12.978
52943W        W18203  23.402   7.200   3.446
52944W        W18204  13.670   1.892   0.955
52945W        W18205  44.457   5.155  10.877
52946W        W18206  31.952  30.046   0.892
52947W        W18207  36.963  35.596  13.573
52948W        W18208  36.916   6.499   3.447
52949W        W18209   7.658  23.005   3.777
52950W        W18210   3.958  28.426  14.461
52951W        W18211  13.774  44.265   0.460
52952W        W18212  16.277  17.329  11.349
52953W        W18213  13.214  34.988  14.608
52954W        W18214  41.563  24.628   0.279
52955W        W18215  32.011  22.400  12.457
52956W        W18216  24.926  11.612  10.706
52957W        W18217  26.490   9.826  10.589
52958W        W18218  40.256  24.352   4.641
52959W        W18219  16.342   9.158  14.432
52960W        W18220   4.238  31.631   1.293
52961W        W18221  15.545   9.236   4.932
52962W        W18222  27.964  25.095  13.804
52963W        W18223   9.268  31.282  10.183
52964W        W18224  30.580  36.853   4.688
52965W        W18225  12.676  30.700  11.009
52966W        W18226  43.976   7.870  11.431
52967W        W18227  32.643  34.339  11.585
52968W        W18228  29.677  17.842  11.202
52969W        W18229   7.194  33.970  10.726
52970W        W18230  18.720  40.700  11.926
52971W        W18231  34.537  43.569   4.730
52972W        W18232   0.589   9.417   4.597
52973W        W18233  20.061  41.385  11.672
52974W        W18234  38.016   9.084  11.381
52975W        W18235  16.503  33.698   1.857
52976W        W18236  36.093  30.598  12.669
52977W        W18237  26.265  22.636   4.114
52978W        W18238  40.451  15.183  12.544
52979W        W18239  42.424  41.058   3.318
52980W        W18240  12.650  34.551   1.940
52981W        W18241  12.039  16.663   1.262
52982W        W18242  26.055  12.407  11.944
52983W        W18243  34.230   4.253  14.800
52984W        W18244  44.098  34.814  13.743
52985W        W18245   1.012  26.999  13.655
52986W        W18246  28.573  17.177  11.550
52987W        W18247  29.853  17.593  14.148
52988W        W18248  26.245  43.344   1.658
52989W        W18249  17.680  41.532   1.488
52990W        W18250  37.346   8.056   1.254
52991W        W18251  18.825  43.411  13.443
52992W        W18252   0.750  22.146  14.049
52993W        W18253  42.289  36.098   1.225
52994W        W18254  43.358  31.024   3.151
52995W        W18255   9.084   9.642  12.868
52996W        W18256  32.796  29.333  11.998
52997W        W18257  30.688   1.473  11.705
52998W        W18258   7.995  29.150  14.901
52999W        W18259  35.587  22.977  11.135
53000W        W18260  44.501  42.221   2.882
53001W        W18261  25.214  29.485  13.954
53002W        W18262  28.485  23.765  13.364
53003W        W18263  25.455  22.240  13.194
53004W        W18264   7.748  27.993   4.907
53005W        W18265  37.878   4.857   3.794
53006W        W18266  10.417  16.983   1.195
53007W        W18267   2.775  23.213  11.168
53008W        W18268  18.549  18.319  12.615
53009W        W18269   8.635  26.737   0.440
53010W        W18270  40.748  18.280  12.522
53011W        W18271  24.251  10.798  11.031
53012W        W18272  17.140   4.649   0.340
53013W        W18273   5.821  30.921   0.796
53014W        W18274  34.552  37.867  14.167
53015W        W18275  39.543  12.206  14.195
53016W        W18276   3.893   5.726  14.946
53017W        W18277  19.720  34.150   3.656
53018W        W18278   1.003  12.380   3.724
53019W        W18279  37.201  29.493  11.249
53020W        W18280   3.465   1.314  12.472
53021W        W18281  12.683  30.994   4.700
53022W        W18282  18.871   1.946   1.873
53023W        W18283  24.874  15.492  14.838
53024W        W18284  33.436   7.260  14.465
53025W        W18285  32.899   1.089   3.478
53026W        W18286  22.158  12.824  14.132
53027W        W18287  27.651  38.605   3.212
53028W        W18288  23.591  33.532  11.536
53029W        W18289  29.790  30.125  10.366
53030W        W18290   6.204  44.929  13.386
53031W        W18291  35.434   5.620  14.988
53032W        W18292  19.759  41.869  13.889
53033W        W18293   8.961  33.309  11.909
53034W        W18294  37.652  22.900   0.317
53035W        W18295  24.068  23.817   0.318
53036W        W18296  31.763  21.899  14.778
53037W        W18297  17.378   8.400  10.562
53038W        W18298  30.129  38.987   2.172
53039W        W18299  19.320  27.531  11.710
53040W        W18300  28.076  35.450   1.811
53041W        W18301   2.567  17.095   1.230
53042W        W18302  22.981  28.592  12.390
53043W        W18303  18.750  11.466  13.283
53044W        W18304  19.233  12.887  14.800
53045W        W18305   1.443  31.555  12.604
53046W        W18306  25.117   8.352   4.101
53047W        W18307  17.048  44.204  13.418
53048W        W18308  12.127  25.616  12.413
53049W        W18309  43.143  20.585   2.264
53050W        W18310  12.199  23.586   4.880
53051W        W18311  17.089  19.645   2.609
53052W        W18312  25.143  43.471  12.441
53053W        W18313  43.860  35.308  11.113
53054W        W18314  13.752  31.861  14.859
53055W        W18315  22.707   0.845  13.020
53056W        W18316  17.077  31.583   2.169
53057W        W18317  21.011  44.351   1.193
53058W        W18318   2.277   3.446  14.201
53059W        W18319  27.255  22.582   4.487
53060W        W18320   7.937  32.434  14.758
53061W        W18321   4.676  12.639   1.489
53062W        W18322  11.840  32.823   4.212
53063W        W18323  42.006  18.030  14.959
53064W        W18324  42.474  39.485   2.706
53065W        W18325  24.600  12.142  14.327
53066W        W18326   8.291  23.052   3.210
53067W        W18327  10.093  43.969  13.018
53068W        W18328  14.601  42.769  10.489
53069W        W18329  42.418  24.723   4.602
53070W        W18330  35.077  44.441   3.172
53071W        W18331  27.166  14.635  12.375
53072W        W18332  38.487  26.242   2.171
53073W        W18333   6.162  14.272   4.112
53074W        W18334  16.320  19.731  13.044
53075W        W18335  21.456  14.223   4.286
53076W        W18336  22.763  29.545  12.979
53077W        W18337  25.494  44.981   0.330
53078W        W18338  24.012   8.950  12.390
53079W        W18339   0.891  26.894   4.696
53080W        W18340  44.789  33.922   1.977
53081W        W18341   4.926  44.834   3.234
53082W        W18342  22.979  42.698  12.580
53083W        W18343  18.619   7.889   0.336
53084W        W18344  31.106  44.481   2.237
53085W        W18345   0.363  12.146   2.783
53086W        W18346  23.778  35.321   0.430
53087W        W18347   6.392  26.224   3.617
53088W        W18348  23.763  30.552   1.776
53089W        W18349   5.393   1.241  12.626
53090W        W18350  13.870  18.238   3.676
53091W        W18351  41.722  31.134   1.381
53092W        W18352  36.062  36.380   1.600
53093W        W18353  18.161   6.454   0.743
53094W        W18354   1.305   7.702   4.539
53095W        W18355  31.333  32.793  12.493
53096W        W18356  37.864  13.285  11.532
53097W        W18357   0.340  39.401  13.982
53098W        W18358  15.177  33.837  13.427
53099W        W18359  20.279  28.738   2.323
53100W        W18360  13.247  25.408  10.677
53101W        W18361  34.142  38.137  14.933
53102W        W18362  13.146  20.532   1.886
53103W        W18363  12.476   2.431   1.319
53104W        W18364   2.037  12.646   4.550
53105W        W18365  42.826  29.090  10.686
53106W        W18366  26.946  10.646  12.461
53107W        W18367  13.567  27.885  11.109
53108W        W18368  33.082  21.039  11.954
53109W        W18369  29.573  43.015  10.687
53110W        W18370  16.256  44.301  12.351
53111W        W18371  42.914  14.405   1.631
53112W        W18372  20.123   9.339   3.219
53113W        W18373  14.253  36.168   3.787
53114W        W18374   3.771  31.013   3.930
53115W        W18375  21.712  14.613  12.551
53116W        W18376  26.173  10.371   2.205
53117W        W18377  22.281  17.555   1.389
53118W        W18378  21.771  44.633   0.453
53119W        W18379   6.386  44.858   3.791
53120W        W18380  39.311  19.796  14.363
53121W        W18381  24.555  15.549   3.286
53122W        W18382   7.761  16.045   3.048
53123W        W18383  34.554  41.689   0.221
53124W        W18384  39.834  21.005  13.517
53125W        W18385  20.055   0.751  10.496
53126W        W18386   0.188  43.618  14.625
53127W        W18387  35.571  37.285   3.612
53128W        W18388  37.780  17.600  12.123
53129W        W18389  12.126  19.478   2.603
53130W        W18390  26.741   1.461  14.188
53131W        W18391  26.073  34.416  14.611
53132W        W18392   7.318  20.696   2.276
53133W        W18393  32.473  35.584  13.996
53134W        W18394  31.389  27.507   0.434
53135W        W18395  20.495   4.418   4.530
53136W        W18396  15.257  39.623  14.419
53137W        W18397  26.213  19.563  12.481
53138W        W18398  31.962  13.569   0.867
53139W        W18399   3.354  17.551   2.193
53140W        W18400  44.459  32.380   3.177
53141W        W18401   4.941  12.049  10.913
53142W        W18402   9.030   4.222  13.000
53143W        W18403  25.445  22.093   3.764
53144W        W18404  17.328  33.626   2.833
53145W        W18405  26.425   0.434  10.172
53146W        W18406  29.167  36.265   4.586
53147W        W18407  33.482  27.807   4.022
53148W        W18408  18.024   4.643   2.202
53149W        W18409   6.185  19.744  11.784
53150W        W18410   4.307  33.595   4.390
53151W        W18411  10.625  40.794  12.037
53152W        W18412  16.332  42.260   2.762
53153W        W18413  23.704  22.546   1.437
53154W        W18414  33.622  31.579   3.256
53155W        W18415  32.216  43.484   1.412
53156W        W18416  15.586  44.859   1.737
53157W        W18417   9.258   7.557  12.331
53158W        W18418  13.266  31.887  10.647
53159W        W18419  22.999  25.971   3.684
53160W        W18420  34.054  16.300  13.415
53161W        W18421  23.159   3.412   0.970
53162W        W18422  17.552   3.343  11.440
53163W        W18423  26.912  36.542  13.957
53164W        W18424  29.318  26.593  10.667
53165W        W18425  12.357  16.603   0.380
53166W        W18426  38.051  44.221  13.938
53167W        W18427  34.290  44.346   2.830
53168W        W18428  38.052   4.291  12.418
53169W        W18429  11.256  39.562   1.730
53170W        W18430  39.407  37.560  11.989
53171W        W18431   5.248  41.885   2.347
53172W        W18432  38.927  23.122  13.328
53173W        W18433  30.696  42.684  14.474
53174W        W18434  12.201  38.863  14.403
53175W        W18435  36.184  18.214   1.444
53176W        W18436   0.882  22.899  14.509
53177W        W18437  42.540  41.080  12.587
53178W        W18438   5.476  26.503   5.400
53179W        W18439  43.353  39.399  11.080
53180W        W18440  23.349  43.395   3.058
53181W        W18441  33.606   5.967   3.641
53182W        W18442  32.082  29.995   3.908
53183W        W18443  30.050  42.727  12.548
53184W        W18444  42.214  38.692   0.120
53185W        W18445  27.670  39.423   3.200
53186W        W18446   3.656  42.088   3.702
53187W        W18447   9.747  19.794  14.002
53188W        W18448  29.003  36.625  13.973
53189W        W18449  24.586  28.791   1.171
53190W        W18450  21.074   7.902   2.274
53191W        W18451  26.593  36.985   3.816
53192W        W18452  30.594  31.715  13.099
53193W        W18453   6.113  15.374  13.558
53194W        W18454  14.115   6.903   1.314
53195W        W18455   2.085  40.955  12.410
53196W        W18456  38.426  29.133  14.885
53197W        W18457  42.847  28.138  13.941
53198W        W18458  28.118  34.464   1.829
53199W        W18459  37.914   6.047  10.362
53200W        W18460  16.455  27.121  10.319
53201W        W18461  17.006  44.321  14.989
53202W        W18462  40.791  38.851   0.514
53203W        W18463   5.209  35.665   1.331
53204W        W18464  33.157  25.197   1.896
53205W        W18465   9.414  33.158   2.606
53206W        W18466  29.225  22.646  11.726
53207W        W18467  45.000   1.845  10.701
53208W        W18468  32.391  17.441  12.349
53209W        W18469  21.856  25.730  11.546
53210W        W18470   2.991  20.811   1.112
53211W        W18471  37.444   7.555   2.697
53212W        W18472  10.344  40.273   2.789
53213W        W18473  40.739  44.135  14.927
53214W        W18474  32.081   5.645  11.062
53215W        W18475   7.917   6.057  10.784
53216W        W18476  17.383  35.888   0.897
53217W        W18477  40.031  28.491   4.568
53218W        W18478  32.404  37.988   4.047
53219W        W18479   1.009  36.649   0.771
53220W        W18480  13.654  11.653   1.967
53221W        W18481  31.393  12.587   3.707
53222W        W18482  25.552  14.079  14.289
53223W        W18483  21.548  22.577   2.384
53224W        W18484  28.810  29.866   2.299
53225W        W18485  34.664  39.450  12.478
53226W        W18486  11.094  30.189   4.614
53227W        W18487  41.990  23.526   0.929
53228W        W18488  20.471   1.113  11.192
53229W        W18489   0.022  24.413   1.825
53230W        W18490  26.266  17.397   2.004
53231W        W18491   1.241  41.870   1.786
53232W        W18492  43.063   4.309   3.845
53233W        W18493   4.459  10.321  14.590
53234W        W18494  11.169  24.649   3.265
53235W        W18495   7.886  29.705   0.540
53236W        W18496   8.442  38.366   4.106
53237W        W18497  29.688  18.528  12.091
53238W        W18498  13.101   0.700  14.735
53239W        W18499  23.434  25.475  12.627
53240W        W18500  27.347  26.199  11.262
53241W        W18501  15.071  32.131  13.943
53242W        W18502  25.806  42.135   3.825
53243W        W18503  28.196   2.512  14.328
53244W        W18504  42.832  40.191   2.382
53245W        W18505  42.918  38.324   2.198
53246W        W18506  13.745  18.469  12.801
53247W        W18507   3.696  41.961   2.858
53248W        W18508  39.151   8.198  11.152
53249W        W18509  19.085  33.081   1.709
53250W        W18510  15.232  26.441   0.016
53251W        W18511  24.060   7.397   1.627
53252W        W18512  22.043  29.563   1.263
53253W        W18513  21.076  41.283   2.312
53254W        W18514  27.458  25.477  13.400
53255W        W18515  28.579  21.670   1.678
53256W        W18516  44.784  23.748  14.027
53257W        W18517  43.384  19.486  14.448
53258W        W18518   3.100  42.162  11.113
53259W        W18519  18.561  12.280  11.144
53260W        W18520  17.076   9.873  13.384
53261W        W18521   0.148   0.276  14.949
53262W        W18522  13.666   3.888   0.060
53263W        W18523  39.323   7.755   4.607
53264W        W18524   0.831  20.145  13.501
53265W        W18525  35.876  18.610   0.182
53266W        W18526  13.090  26.175   4.912
53267W        W18527   8.303  37.514  12.161
53268W        W18528   3.973  15.019   1.341
53269W        W18529  16.978  30.168   0.161
53270W        W18530   1.720  23.229  12.863
53271W        W18531  37.780   0.210   3.597
53272W        W18532  44.671   1.773   1.396
53273W        W18533  33.711  26.055   1.389
53274W        W18534  29.274  35.631   3.271
53275W        W18535  23.160  42.273   1.246
53276W        W18536  39.733   2.245  14.786
53277W        W18537  43.006  36.344   2.301
53278W        W18538  30.520  40.332   4.880
53279W        W18539  30.247   8.645  13.082
53280W        W18540  30.173  37.587   4.481
53281W        W18541   4.915  37.487   1.230
53282W        W18542   3.531  36.991   0.423
53283W        W18543  25.927  24.829   5.008
53284W        W18544  12.096  17.957  11.912
53285W        W18545  43.701   3.963  12.696
53286W        W18546  31.384  40.100   0.209
53287W        W18547   6.165  34.555  14.803
53288W        W18548  28.500  20.237  11.641
53289W        W18549   8.824  35.069   4.532
53290W        W18550   2.436   9.367   0.324
53291W        W18551  24.163  30.137   4.815
53292W        W18552   4.370  27.657   2.697
53293W        W18553  12.752  37.565  10.946
53294W        W18554   4.262  29.067  13.419
53295W        W18555   2.165  32.641   2.936
53296W        W18556  27.492  13.539   1.512
53297W        W18557  14.365  31.106   3.698
53298W        W18558   8.397  10.661   2.230
53299W        W18559   6.541  11.901  13.966
53300W        W18560  34.357   1.048  11.192
53301W        W18561  11.081  14.750   0.244
53302W        W18562  39.787  44.656  11.558
53303W        W18563  11.047  10.814   5.923
53304W        W18564  42.431  30.306   0.398
53305W        W18565  43.838  24.784  14.391
53306W        W18566  31.467  22.287   0.410
53307W        W18567  16.596  24.881   1.323
53308W        W18568  22.482  27.239   0.412
53309W        W18569  14.919  42.407  10.651
53310W        W18570   4.698   8.471   4.907
53311W        W18571  40.972  31.075  11.525
53312W        W18572  11.190   0.733  11.653
53313W        W18573  33.456  10.236   1.888
53314W        W18574  42.786  34.211   3.991
53315W        W18575  12.128  23.616   4.342
53316W        W18576  18.912  27.497  14.590
53317W        W18577  33.585  32.129   3.224
53318W        W18578  17.710   0.975  12.832
53319W        W18579  34.297   7.862  11.120
53320W        W18580  34.000  35.080   0.440
53321W        W18581  23.334  40.767   0.355
53322W        W18582  18.770  35.882  13.324
53323W        W18583  13.278  41.201   2.913
53324W        W18584  20.092  41.921   0.832
53325W        W18585   7.439   8.281  12.813
53326W        W18586  24.651  14.194   4.224
53327W        W18587  31.069  36.597  13.385
53328W        W18588   0.957  27.300  12.679
53329W        W18589  35.841  37.655   2.786
53330W        W18590  40.272  39.965  12.126
53331W        W18591  27.265  28.984  13.865
53332W        W18592  27.406  10.144   2.833
53333W        W18593   3.361  24.163   0.283
53334W        W18594   7.756   7.667  12.891
53335W        W18595  30.905   5.207  14.783
53336W        W18596  43.424  13.242  12.814
53337W        W18597   6.187  22.096   2.271
53338W        W18598   6.887  33.906  11.141
53339W        W18599  25.681  35.576   5.441
53340W        W18600   1.726  21.980   0.422
53341W        W18601  41.985  13.584   1.325
53342W        W18602   3.012  12.084  11.732
53343W        W18603  43.978  11.596  11.136
53344W        W18604   2.937  15.012  14.460
53345W        W18605  43.829  13.586  13.022
53346W        W18606  14.758  35.542  13.844
53347W        W18607  44.771  10.171   4.721
53348W        W18608  26.124   4.452  13.447
53349W        W18609  36.657  24.945  14.382
53350W        W18610  30.865  30.916   4.763
53351W        W18611  25.200  21.120   0.873
53352W        W18612  26.095   8.876   0.793
53353W        W18613  30.366  34.494   2.395
53354W        W18614  25.978  30.542  13.992
53355W        W18615  42.419  24.900  12.062
53356W        W18616   2.047  17.555   1.656
53357W        W18617  29.415  36.717   4.266
53358W        W18618  37.320   4.843   0.960
53359W        W18619   1.933  40.110   0.863
53360W        W18620   3.184  18.037   2.001
53361W        W18621  35.018  36.340  10.577
53362W        W18622  20.151  26.076   1.490
53363W        W18623   3.346   1.822   3.273
53364W        W18624  37.397  31.130   4.078
53365W        W18625  36.600  29.119   4.158
53366W        W18626  31.960  33.612  13.367
53367W        W18627  44.061  12.165  14.444
53368W        W18628  44.033  28.485   0.288
53369W        W18629  25.311   3.774  12.111
53370W        W18630  42.334  43.408   0.122
53371W        W18631  25.334  36.782   3.534
53372W        W18632   9.745  41.977  13.132
53373W        W18633  37.345  25.260  14.817
53374W        W18634  37.287  44.426  14.527
53375W        W18635  32.653  22.863  12.094
53376W        W18636  26.028  28.003   2.914
53377W        W18637  22.832  11.046  12.305
53378W        W18638  12.177  38.907   2.936
53379W        W18639   8.115  14.328  14.737
53380W        W18640  24.309  12.830  11.108
53381W        W18641  40.289  12.675   1.869
53382W        W18642   9.665  32.033   1.841
53383W        W18643   9.572  38.381  14.781
53384W        W18644  38.498  36.884  13.994
53385W        W18645  35.321  18.964   2.249
53386W        W18646  21.799   2.296   3.595
53387W        W18647  21.083  31.613  14.758
53388W        W18648  16.454  13.088  11.156
53389W        W18649  41.026  20.146   0.784
53390W        W18650  30.013  42.858   1.754
53391W        W18651  30.106  38.394  12.330
53392W        W18652   6.232  42.035   3.906
53393W        W18653   3.375  15.354  12.985
53394W        W18654   0.726  20.488  11.689
53395W        W18655  39.627  15.705  12.962
53396W        W18656   3.874  43.462   1.667
53397W        W18657  17.683  12.220   0.724
53398W        W18658   7.171   3.345   0.882
53399W        W18659  25.488   5.156  11.920
53400W        W18660   9.708   3.191  12.190
53401W        W18661   6.765  21.146   3.048
53402W        W18662  16.757  23.204   4.133
53403W        W18663  22.293  19.073  10.968
53404W        W18664  19.297  23.594  14.212
53405W        W18665  39.080  31.512  12.031
53406W        W18666  12.533   3.475  14.454
53407W        W18667  18.683  11.950   2.625
53408W        W18668   1.044  16.727  10.840
53409W        W18669  26.676  31.165  10.629
53410W        W18670  14.174  23.330   0.681
53411W        W18671   0.911  10.184   1.388
53412W        W18672  32.599  39.333  11.602
53413W        W18673  42.812  16.228  11.688
53414W        W18674   0.308  35.035   4.540
53415W        W18675  41.421  14.916   9.833
53416W        W18676  35.219  43.252   2.766
53417W        W18677   2.750   5.432  12.204
53418W        W18678  38.161  29.703  11.020
53419W        W18679  36.565  44.916   3.237
53420W        W18680  38.536   6.362  11.132
53421W        W18681   7.931  14.093  11.310
53422W        W18682  22.307   7.852   0.830
53423W        W18683  40.896  27.195   2.824
53424W        W18684   2.674   2.913   2.020
53425W        W18685  19.093  42.373   0.239
53426W        W18686   4.265  15.332  13.384
53427W        W18687   1.818  26.165  12.147
53428W        W18688  34.671  44.317   0.409
53429W        W18689  15.185  26.907  11.670
53430W        W18690   7.421  26.013   0.693
53431W        W18691  37.285  27.493  14.776
53432W        W18692  30.885  38.922  12.505
53433W        W18693   7.727  32.652   4.076
53434W        W18694  13.644  12.577   1.724
53435W        W18695  28.043  11.662  14.958
53436W        W18696  12.792  18.774   2.322
53437W        W18697  41.940   5.156  11.143
53438W        W18698  24.002  20.097  14.034
53439W        W18699  22.740  35.082   3.132
53440W        W18700  35.370  29.426  14.804
53441W        W18701  23.583  31.967   1.234
53442W        W18702  18.019   2.940  14.399
53443W        W18703  43.836  29.111   3.730
53444W        W18704  27.162   2.332   3.132
53445W        W18705  30.394  44.239  12.000
53446W        W18706  10.707  26.316  12.531
53447W        W18707  32.108   0.937  10.645
53448W        W18708  25.972  32.885   4.573
53449W        W18709  33.391   7.830  12.064
53450W        W18710  16.796  38.447   2.772
53451W        W18711  16.781  10.285   0.769
53452W        W18712  40.180  28.194   0.258
53453W        W18713  22.589  27.654  14.354
53454W        W18714  12.805   2.642  14.932
53455W        W18715   6.687   8.001  12.513
53456W        W18716  10.363  35.974   0.886
53457W        W18717  17.043  33.105  14.069
53458W        W18718  29.588  27.425   2.774
53459W        W18719  23.612  17.815  13.965
53460W        W18720  32.042   1.086   3.807
53461W        W18721  26.964  11.159  10.273
53462W        W18722   1.895  31.776   2.164
53463W        W18723   7.858  22.629  13.032
53464W        W18724  37.568  24.897   4.250
53465W        W18725  41.998   7.801   0.380
53466W        W18726  26.290  39.822   5.025
53467W        W18727   2.430  29.219  14.418
53468W        W18728  29.976  34.170   3.606
53469W        W18729   1.797  40.867   1.595
53470W        W18730  31.099  20.075   0.365
53471W        W18731  28.075  35.846   4.031
53472W        W18732  33.095   6.151   3.890
53473W        W18733   4.257  17.771   1.274
53474W        W18734  22.119  41.242   3.865
53475W        W18735  13.577  25.220  13.072
53476W        W18736   7.398  10.977  12.371
53477W        W18737  23.679   2.556  11.592
53478W        W18738   8.798   3.505  14.811
53479W        W18739  22.114  20.288   1.260
53480W        W18740  27.441  44.261  10.468
53481W        W18741  29.719  12.668  10.684
53482W        W18742  18.720  27.152   1.444
53483W        W18743  38.356  39.365   2.148
53484W        W18744  20.042   8.849  14.585
53485W        W18745  15.419  44.690   0.333
53486W        W18746  15.174  36.541  13.341
53487W        W18747  30.488   8.256  10.983
53488W        W18748  33.910  42.840  13.479
53489W        W18749  16.116  44.073   2.300
53490W        W18750  19.553  20.232   3.045
53491W        W18751   1.949   2.243  14.794
53492W        W18752  43.514  43.478  14.427
53493W        W18753   8.647   8.562   4.934
53494W        W18754  35.245  22.601  11.183
53495W        W18755  20.117  13.667   2.125
53496W        W18756  28.664   6.200  11.370
53497W        W18757  33.782  10.863   0.993
53498W        W18758  21.833  11.846  12.568
53499W        W18759  27.088  26.406   3.248
53500W        W18760  27.496  13.262   3.663
53501W        W18761   8.198   9.708  10.447
53502W        W18762   9.616  31.513  11.472
53503W        W18763   9.931  39.922  14.736
53504W        W18764  33.481  31.643  11.103
53505W        W18765   2.848   6.332  14.141
53506W        W18766  20.520   2.555  14.025
53507W        W18767  34.580   7.310   3.170
53508W        W18768  29.167  34.642   3.441
53509W        W18769  20.709   8.760   1.824
53510W        W18770  35.796   1.549   0.832
53511W        W18771  19.185  11.914  14.548
53512W        W18772  29.993  41.866   4.142
53513W        W18773  23.458  28.564  14.345
53514W        W18774  33.208   8.674  12.900
53515W        W18775  26.190  21.449  14.546
53516W        W18776  20.464  24.889  12.240
53517W        W18777  21.109   2.786  13.044
53518W        W18778  29.649   4.021   3.363
53519W        W18779  41.902  32.674   1.743
53520W        W18780  13.614  17.589  10.625
53521W        W18781   8.073  10.032   1.495
53522W        W18782   3.773   8.730  10.399
53523W        W18783  11.272  27.618   0.250
53524W        W18784  16.253   4.961  13.165
53525W        W18785  31.606  13.695   3.117
53526W        W18786  26.171   1.346  12.077
53527W        W18787  43.103  37.808  12.707
53528W        W18788  40.951  29.724  14.617
53529W        W18789  32.065  38.230   4.560
53530W        W18790  32.529   7.168   1.764
53531W        W18791  21.299  40.835  10.713
53532W        W18792  12.599  35.978  12.007
53533W        W18793   0.904  37.300  13.486
53534W        W18794   8.572  43.306   0.795
53535W        W18795  16.059  29.519   4.229
53536W        W18796  32.085  40.453  12.001
53537W        W18797   2.925  36.397   3.213
53538W        W18798  11.616  16.252  14.961
53539W        W18799  16.269   9.196  10.303
53540W        W18800  13.853  22.256  10.987
53541W        W18801  30.164  30.512  14.415
53542W        W18802  19.979  22.096   2.665
53543W        W18803  10.762  41.021   4.376
53544W        W18804   0.391  41.257   0.539
53545W        W18805  22.913   1.770   4.157
53546W        W18806   9.296  44.759   4.688
53547W        W18807  16.848  14.651  10.479
53548W        W18808  44.256  43.987  14.240
53549W        W18809   4.385  26.679   4.068
53550W        W18810  15.303   7.707   4.654
53551W        W18811  23.037  38.568  13.338
53552W        W18812  25.562  27.001   0.759
53553W        W18813  13.698  32.915   2.911
53554W        W18814  13.855  17.375  11.047
53555W        W18815  16.978  29.932   4.115
53556W        W18816   7.326   2.437   2.299
53557W        W18817   6.711  25.493  13.938
53558W        W18818  11.042  40.396  12.898
53559W        W18819  21.839  11.784   4.236
53560W        W18820  16.241  26.490   1.884
53561W        W18821  41.946  30.263  11.726
53562W        W18822  25.289  32.094  10.713
53563W        W18823  21.908  39.885   2.290
53564W        W18824  30.950  26.384   2.368
53565W        W18825  31.053  10.219   2.875
53566W        W18826   2.165  42.765  13.405
53567W        W18827  13.074   3.844  10.615
53568W        W18828   2.392  39.655  10.591
53569W        W18829  34.092  31.768  12.442
53570W        W18830   8.155  32.489   0.408
53571W        W18831  21.723  33.052  12.484
53572W        W18832  22.589  22.386  11.309
53573W        W18833   5.295  18.757  12.135
53574W        W18834  20.595  32.186   0.368
53575W        W18835  19.981  31.901   1.450
53576W        W18836  42.634  41.110   4.703
53577W        W18837  43.940  31.422   1.727
53578W        W18838   4.418  40.224  14.258
53579W        W18839  32.950   8.432  13.889
53580W        W18840  10.773  12.585  10.629
53581W        W18841  38.221  11.006  12.408
53582W        W18842  36.076  26.925  14.899
53583W        W18843  33.895  32.508   2.047
53584W        W18844  20.181   6.519   3.093
53585W        W18845  42.984   9.136   0.052
53586W        W18846  27.668  25.966   1.977
53587W        W18847  22.973  18.497   0.468
53588W        W18848   8.904  22.171   2.759
53589W        W18849   1.957  41.585   3.392
53590W        W18850  19.025   2.721  12.479
53591W        W18851  21.253   4.644   3.877
53592W        W18852  35.122  24.514   2.040
53593W        W18853  26.734   6.653  12.975
53594W        W18854  27.436  12.780   4.381
53595W        W18855  38.498  41.418   4.129
53596W        W18856  16.125  43.264   2.851
53597W        W18857  10.999  22.787   1.920
53598W        W18858   7.959   8.187   3.343
53599W        W18859  24.091  31.653  13.676
53600W        W18860  35.005   1.804  12.049
53601W        W18861   9.013  17.835   2.608
53602W        W18862  28.067   2.169  12.117
53603W        W18863  40.570  35.272   2.506
53604W        W18864  43.396   0.225   4.703
53605W        W18865  39.986  23.155  12.445
53606W        W18866  37.063  41.837   0.518
53607W        W18867   8.362   9.689  13.483
53608W        W18868  39.232   2.298  10.290
53609W        W18869  20.025   9.837  14.315
53610W        W18870  32.514  22.981   2.615
53611W        W18871  26.589  34.581  12.986
53612W        W18872  42.435  38.637  10.620
53613W        W18873  26.163   5.025  11.643
53614W        W18874  42.923  21.615  13.739
53615W        W18875  41.362  10.580  11.502
53616W        W18876  42.922   5.891  11.683
53617W        W18877  26.675  39.605   0.831
53618W        W18878  37.947   7.397   2.752
53619W        W18879  44.554  33.033  11.917
53620W        W18880   9.863  33.993   1.292
53621W        W18881  40.378  21.940  14.317
53622W        W18882   1.330  10.885  12.933
53623W        W18883   2.772   0.208  14.715
53624W        W18884  10.122  16.263  11.764
53625W        W18885   5.687   6.188   4.437
53626W        W18886  17.220  42.770   2.901
53627W        W18887  42.728  28.603  10.508
53628W        W18888  26.193  39.599   2.862
53629W        W18889  43.563  16.717   1.826
53630W        W18890  38.433  11.877  11.249
53631W        W18891  29.123  13.834  11.146
53632W        W18892  17.422  12.161   2.019
53633W        W18893  19.980  22.783  14.919
53634W        W18894  13.129  17.654   2.933
53635W        W18895  38.556  31.537  12.989
53636W        W18896  11.331  41.451   2.852
53637W        W18897  15.021  37.288   3.759
53638W        W18898  22.640   7.079  13.935
53639W        W18899   4.518  26.015   3.750
53640W        W18900  41.827   9.393  13.116
53641W        W18901   1.363  27.246   1.413
53642W        W18902   0.434  20.566   0.964
53643W        W18903  11.906  35.193  11.130
53644W        W18904  22.948  44.955   0.940
53645W        W18905  29.847  10.830  12.798
53646W        W18906  23.340  30.626  10.695
53647W        W18907  35.115  24.930   1.707
53648W        W18908  31.509  38.380   3.641
53649W        W18909  30.662  14.791   4.472
53650W        W18910   4.809  38.838  12.903
53651W        W18911  44.328  39.830  11.800
53652W        W18912  41.503  24.729  10.572
53653W        W18913  27.419  38.762  14.466
53654W        W18914  39.238  20.643   3.558
53655W        W18915  17.856   6.870   0.598
53656W        W18916  43.520   7.293   0.409
53657W        W18917   4.169  42.795   2.474
53658W        W18918  19.185  38.124  13.983
53659W        W18919  30.239  40.944  12.902
53660W        W18920  18.520  32.170  13.313
53661W        W18921   5.804  32.303  10.905
53662W        W18922  33.048  16.482   2.694
53663W        W18923  14.815  34.497   3.372
53664W        W18924  14.840  19.196  14.899
53665W        W18925  15.096   7.914   1.218
53666W        W18926  28.721  33.084  13.413
53667W        W18927  32.402  22.712   3.262
53668W        W18928  41.788  33.897   1.848
53669W        W18929  41.784  12.818  12.953
53670W        W18930  11.462  42.433   2.288
53671W        W18931  39.314   1.992   1.270
53672W        W18932   3.340   2.300   0.229
53673W        W18933  28.034  27.854  10.161
53674W        W18934  19.030  43.710  14.300
53675W        W18935  15.448  21.713   4.529
53676W        W18936  17.184   0.807   1.914
53677W        W18937   0.904  20.359  13.986
53678W        W18938  37.390  44.296  13.332
53679W        W18939   3.279  35.143   2.185
53680W        W18940   1.476   5.661  14.740
53681W        W18941  14.458  23.030   0.986
53682W        W18942  26.967  41.421   2.232
53683W        W18943  32.658  17.705  11.566
53684W        W18944  44.389  31.623   1.499
53685W        W18945  25.177  39.764  11.038
53686W        W18946  35.024  12.251  13.037
53687W        W18947  27.164  23.523   4.486
53688W        W18948  34.950  41.093  10.705
53689W        W18949  16.548   6.381   1.232
53690W        W18950  27.614  19.848  11.698
53691W        W18951   9.268   9.648   2.429
53692W        W18952  16.347  10.360   0.036
53693W        W18953   3.407  43.985  12.006
53694W        W18954  12.245  12.838   3.776
53695W        W18955  42.441   0.268   3.160
53696W        W18956   8.104  14.090   3.570
53697W        W18957  27.091   4.877   0.826
53698W        W18958  30.456  19.037  13.600
53699W        W18959  24.170  19.579   0.214
53700W        W18960  27.679  41.845   2.437
53701W        W18961  43.902  30.633   0.999
53702W        W18962  31.330  31.042  10.424
53703W        W18963   5.148  21.676  10.708
53704W        W18964  27.210   5.617  13.603
53705W        W18965   2.472  37.393   5.239
53706W        W18966  23.737   4.446  12.410
53707W        W18967   6.842   7.688  12.984
53708W        W18968  29.543   6.042  10.176
53709W        W18969   0.993  25.353   2.202
53710W        W18970  11.818  26.255  14.491
53711W        W18971  10.980  11.448  12.275
53712W        W18972  29.633  22.859  12.677
53713W        W18973   1.339  27.753   3.231
53714W        W18974   9.328  43.256   0.201
53715W        W18975  32.376  41.788   1.229
53716W        W18976   2.436  33.963   3.640
53717W        W18977  22.945  29.073  13.135
53718W        W18978  42.337  17.632   0.004
53719W        W18979  11.578   1.614  11.665
53720W        W18980  21.022  27.177   1.253
53721W        W18981  12.233  22.967  10.813
53722W        W18982  40.036  20.455   0.808
53723W        W18983  44.429  37.890   1.564
53724W        W18984  25.594  26.167  13.678
53725W        W18985  14.091  14.568  14.030
53726W        W18986  26.626  40.277  13.048
53727W        W18987  16.053  26.024  11.047
53728W        W18988  17.329  43.301  12.003
53729W        W18989  10.916  16.734  13.817
53730W        W18990   7.438  34.083  14.838
53731W        W18991  13.702  42.218   0.321
53732W        W18992   8.922  25.950   3.302
53733W        W18993  24.226  12.388  14.589
53734W        W18994  32.423  11.118   1.392
53735W        W18995  35.428   0.502  11.717
53736W        W18996  34.373  30.130  12.468
53737W        W18997   1.713  44.665   2.768
53738W        W18998   9.242   3.241   3.120
53739W        W18999  32.507  13.328  13.012
53740W        W19000  29.502  31.542  11.139
53741W        W19001  25.010  31.872  10.317
53742W        W19002  32.076  19.947   4.118
53743W        W19003  16.916  23.154  13.436
53744W        W19004  34.388  28.129  11.494
53745W        W19005  30.601  19.977  10.367
53746W        W19006   1.908  14.615  13.932
53747W        W19007  21.726   9.729   0.899
53748W        W19008  32.307  41.960   4.175
53749W        W19009  28.675  10.511   2.739
53750W        W19010   4.926   0.235   1.495
53751W        W19011  35.780  20.959   2.416
53752W        W19012  12.569  34.342   3.974
53753W        W19013  20.083  40.885  14.768
53754W        W19014   0.891  33.557   0.697
53755W        W19015  16.603  41.633  12.831
53756W        W19016  23.472  19.695  14.883
53757W        W19017  38.520  13.874   1.858
53758W        W19018  36.168  30.508   4.004
53759W        W19019  24.954  39.532   4.577
53760W        W19020   5.130   7.732   1.867
53761W        W19021  27.422  38.834   0.842
53762W        W19022  31.970   9.198  11.959
53763W        W19023  18.607   7.251   4.399
53764W        W19024  13.786  33.468  12.543
53765W        W19025  41.889   7.411  10.394
53766W        W19026  26.527  24.235   4.104
53767W        W19027  36.454  40.425  12.599
53768W        W19028   2.869  44.567   1.921
53769W        W19029  43.484   2.218   3.879
53770W        W19030  23.204  16.685   1.813
53771W        W19031  33.018  14.098   4.539
53772W        W19032  44.808  14.124  14.767
53773W        W19033   4.217  38.027  12.447
53774W        W19034  40.391  28.643  12.983
53775W        W19035  39.793  37.037   2.118
53776W        W19036  11.748   5.257  12.410
53777W        W19037   0.045  21.792  13.255
53778W        W19038  32.387   1.392  10.634
53779W        W19039  15.594  13.696  11.157
53780W        W19040   4.375  13.070  13.950
53781W        W19041  12.608   8.826   4.596
53782W        W19042  10.889  13.829   0.803
53783W        W19043  22.730  39.411   2.398
53784W        W19044  26.083  41.986  13.088
53785W        W19045  14.138  38.530   4.231
53786W        W19046  28.157  25.882  11.086
53787W        W19047  37.965   9.212  10.422
53788W        W19048  32.965  19.026  10.361
53789W        W19049   5.696   3.316   1.110
53790W        W19050   2.270   7.792   3.640
53791W        W19051  42.508   2.403  13.376
53792W        W19052  10.943  44.697  11.191
53793W        W19053  10.090  30.106   1.769
53794W        W19054  12.254  37.036  12.467
53795W        W19055  39.552  37.881  13.359
53796W        W19056  29.587   4.743  11.493
53797W        W19057  14.622  19.054   4.755
53798W        W19058  42.369  16.094  10.749
53799W        W19059  21.947   0.686  11.088
53800W        W19060  21.117  41.864  14.022
53801W        W19061  13.262  21.128  11.791
53802W        W19062  13.292  14.463   4.569
53803W        W19063  31.402  17.881  11.645
53804W        W19064  22.075   5.162   1.460
53805W        W19065  35.822   8.274  13.160
53806W        W19066  25.782  40.509   3.235
53807W        W19067  30.877  14.351  12.468
53808W        W19068  40.650  17.772   4.510
53809W        W19069  24.078  13.691  14.185
53810W        W19070   6.122  37.072  11.649
53811W        W19071  19.606  24.338  14.820
53812W        W19072  18.167  17.702   1.396
53813W        W19073  21.994  25.677  12.461
53814W        W19074  25.605  13.876   1.184
53815W        W19075   0.928  18.086   2.896
53816W        W19076  13.785  43.236   1.323
53817W        W19077  28.373  40.769   1.358
53818W        W19078  19.578   4.060  11.588
53819W        W19079  26.003  35.137   2.115
53820W        W19080  25.500   9.315   0.469
53821W        W19081   9.745  13.719   1.739
53822W        W19082   6.680   6.897   2.460
53823W        W19083   4.387  12.343  14.457
53824W        W19084  10.214  41.797   3.269
53825W        W19085   8.324   6.014   3.931
53826W        W19086  18.616  17.662  10.582
53827W        W19087  34.344   4.352   4.996
53828W        W19088  43.539  34.386  12.271
53829W        W19089   0.264  17.709   3.131
53830W        W19090  43.489   0.307  11.046
53831W        W19091  33.508  10.711  14.311
53832W        W19092  22.532  17.656  13.613
53833W        W19093  43.747  37.352   3.384
53834W        W19094  34.320  44.777  13.171
53835W        W19095  18.273  35.366  11.436
53836W        W19096  17.952  14.894   0.377
53837W        W19097   1.608   5.546  12.983
53838W        W19098   9.177  39.975  12.079
53839W        W19099   9.093  38.310   1.222
53840W        W19100  13.306  33.149   2.623
53841W        W19101  18.859  37.274   2.582
53842W        W19102  36.387  35.133   0.905
53843W        W19103  34.313  39.543  12.844
53844W        W19104  15.339   8.473  12.501
53845W        W19105  27.755  30.582   1.391
53846W        W19106  17.960   7.917   3.662
53847W        W19107  42.748  41.001  11.659
53848W        W19108  44.319   3.789  11.413
53849W        W19109  38.142  15.122  14.271
53850W        W19110  39.416  38.066   0.392
53851W        W19111  15.268  18.786   0.405
53852W        W19112  28.077   4.955   1.898
53853W        W19113  17.813  13.254   2.784
53854W        W19114  22.775   9.325  13.983
53855W        W19115  35.852  25.900   2.352
53856W        W19116  29.240  29.329  11.143
53857W        W19117   0.789   8.222  11.680
53858W        W19118  21.599  10.206   0.181
53859W        W19119  37.112  23.547  12.826
53860W        W19120  22.700  26.003  13.481
53861W        W19121  43.334  35.277  11.159
53862W        W19122  24.915  11.762  14.475
53863W        W19123  16.207  31.467  14.753
53864W        W19124  23.364  24.154   3.235
53865W        W19125   9.666  20.002  14.810
53866W        W19126  30.941  30.257   4.157
53867W        W19127   9.692  25.372  12.359
53868W        W19128  26.184  16.514   2.664
53869W        W19129  13.216  42.514   0.420
53870W        W19130  31.367  33.043   1.343
53871W        W19131  25.449   0.919   4.711
53872W        W19132   8.881  24.455   4.065
53873W        W19133  26.709  36.802  12.129
53874W        W19134  37.386   7.410   4.584
53875W        W19135   3.126  11.583  12.946
53876W        W19136   6.340  40.336   2.400
53877W        W19137  35.003  22.318  11.571
53878W        W19138  15.735  40.501   2.630
53879W        W19139  10.351  36.456  11.978
53880W        W19140  42.926   2.786   0.013
53881W        W19141  40.412  37.407   1.938
53882W        W19142  40.198   4.942   0.358
53883W        W19143  12.259   7.915  10.268
53884W        W19144  37.835   6.330  12.096
53885W        W19145   5.956  41.869  12.944
53886W        W19146  40.896  15.827   0.330
53887W        W19147   6.311  29.467   1.816
53888W        W19148  33.084   7.653  14.403
53889W        W19149   8.247  24.445  11.974
53890W        W19150  20.732  33.296   0.946
53891W        W19151  15.337  21.393   2.529
53892W        W19152  11.631  39.084   3.803
53893W        W19153  39.603  17.661   2.731
53894W        W19154   5.826  19.549  12.609
53895W        W19155  18.180  42.198  13.806
53896W        W19156  38.717  28.039   1.961
53897W        W19157  44.863  35.588  10.356
53898W        W19158   3.988  25.126   0.734
53899W        W19159   4.905  38.383   1.741
53900W        W19160  23.652  36.880   4.703
53901W        W19161  44.181  38.393  14.568
53902W        W19162  37.399  14.252   1.267
53903W        W19163   0.651  41.994  10.701
53904W        W19164   6.167  23.291  14.937
53905W        W19165  28.402  14.160  10.994
53906W        W19166  14.789  32.497  13.511
53907W        W19167   5.815   3.745   1.913
53908W        W19168   5.183   7.634   3.373
53909W        W19169  35.629  19.342   4.263
53910W        W19170  38.668  22.519   4.801
53911W        W19171  31.022  13.240  13.985
53912W        W19172  18.758   9.624  12.094
53913W        W19173  24.548  14.997  13.821
53914W        W19174  35.611   8.764  11.219
53915W        W19175  43.360  42.286   0.763
53916W        W19176  36.878  26.009   1.061
53917W        W19177  28.683  32.138   3.195
53918W        W19178  22.242   9.103  13.140
53919W        W19179  33.537  29.100  11.041
53920W        W19180  13.137   4.200   4.547
53921W        W19181   0.420  20.085  10.773
53922W        W19182  17.605  25.744   1.788
53923W        W19183  23.491  21.058  14.961
53924W        W19184  42.535   6.250   0.260
53925W        W19185  23.969  29.197  13.437
53926W        W19186  35.663  14.295  11.968
53927W        W19187  13.670  30.065   0.082
53928W        W19188   5.182  11.621   4.052
53929W        W19189  34.476  27.981  13.878
53930W        W19190   9.805  13.258  14.596
53931W        W19191  32.469  13.329   0.796
53932W        W19192   0.769  17.416   4.563
53933W        W19193  27.913  12.290  13.213
53934W        W19194  35.031   0.932  11.535
53935W        W19195   2.889  30.581   0.844
53936W        W19196  31.500   6.783  11.125
53937W        W19197  41.543  27.996   1.433
53938W        W19198  26.108  21.539   5.416
53939W        W19199  36.055  36.129  12.945
53940W        W19200   0.883  38.820  14.462
53941W        W19201  37.960  37.544  12.092
53942W        W19202   9.005  22.303  14.011
53943W        W19203  13.314  28.301  12.883
53944W        W19204  43.170  19.694   1.852
53945W        W19205  34.981  42.857  12.507
53946W        W19206   7.318  14.725   4.031
53947W        W19207  26.175  39.618   4.163
53948W        W19208  42.931  13.918   1.763
53949W        W19209  16.714   8.681   0.094
53950W        W19210  12.810  30.959  10.588
53951W        W19211  17.771  18.711   2.373
53952W        W19212  31.920  16.829  14.017
53953W        W19213   0.869  33.453  11.536
53954W        W19214  19.528  18.972  14.610
53955W        W19215  18.175   4.484  12.427
53956W        W19216   7.660  32.495   0.239
53957W        W19217  24.742  21.667  11.656
53958W        W19218  13.222  39.050  13.407
53959W        W19219  36.146  19.790  10.763
53960W        W19220  32.008  18.989  11.165
53961W        W19221  15.258  38.739  11.587
53962W        W19222   8.590  32.685   4.077
53963W        W19223   0.811  20.447  10.768
53964W        W19224  35.506  41.844  14.902
53965W        W19225   3.878   2.223   0.159
53966W        W19226   8.849  23.815   0.876
53967W        W19227  34.146  29.989   4.119
53968W        W19228  35.675  16.052   0.577
53969W        W19229  23.215  26.840  10.626
53970W        W19230  27.097  30.051   4.489
53971W        W19231  39.889  42.151  13.781
53972W        W19232   3.199  31.762  12.366
53973W        W19233  28.054  26.638  13.911
53974W        W19234  11.648  29.700   3.551
53975W        W19235   8.172  26.211   1.382
53976W        W19236   4.384  37.033  13.412
53977W        W19237  41.793   4.352   4.239
53978W        W19238  29.303  13.321  14.251
53979W        W19239  37.676  13.351  12.023
53980W        W19240  32.618  41.864  12.447
53981W        W19241  24.569  32.317   2.367
53982W        W19242   9.576   5.490   3.152
53983W        W19243   5.827   8.152  14.330
53984W        W19244  32.890  11.498  12.943
53985W        W19245  25.831  17.729  13.312
53986W        W19246  33.818  25.916   2.290
53987W        W19247  27.116  42.963  14.991
53988W        W19248   9.389   1.194  14.946
53989W        W19249  31.906   3.560   2.478
53990W        W19250  31.442  17.124   1.798
53991W        W19251  27.805   1.974   1.088
53992W        W19252  39.276  32.485  11.896
53993W        W19253   9.249  10.338   2.822
53994W        W19254  11.683   5.755  11.643
53995W        W19255  32.169  21.480  14.833
53996W        W19256  38.531  43.277  14.307
53997W        W19257  44.935  19.602  12.406
53998W        W19258  35.491  42.895   0.820
53999W        W19259   7.931  29.932  13.836
54000W        W19260  27.691  37.326   4.625
54001W        W19261  13.569  12.120   4.735
54002W        W19262  38.649  14.106   2.308
54003W        W19263  31.049  37.072  14.956
54004W        W19264  34.480  23.051  12.995
54005W        W19265  27.155   5.723  12.102
54006W        W19266  26.197   5.478   5.052
54007W        W19267  32.357  42.483  13.962
54008W        W19268  44.487   8.982   1.312
54009W        W19269  24.276   3.823  12.371
54010W        W19270  23.525  15.587  10.841
54011W        W19271  23.634  15.541   1.491
54012W        W19272  11.098   3.868   1.728
54013W        W19273  17.133  31.942  10.756
54014W        W19274  28.952  34.367   0.760
54015W        W19275  30.715  10.786   3.119
54016W        W19276  31.023  18.245  11.602
54017W        W19277  13.397  19.237   0.779
54018W        W19278   2.538  12.369   0.209
54019W        W19279  11.900   6.772   0.534
54020W        W19280  29.062  12.082  13.760
54021W        W19281   3.431  22.675  14.830
54022W        W19282   2.384  40.869   2.837
54023W        W19283  16.398  34.152   2.161
54024W        W19284  32.939  23.145  11.204
54025W        W19285  42.528  30.945   2.515
54026W        W19286  25.743  28.219  11.042
54027W        W19287  26.485  17.768   1.351
54028W        W19288  13.938  39.348   4.270
54029W        W19289  37.022  42.087  14.024
54030W        W19290   5.255   5.898   0.012
54031W        W19291  36.202  35.503  14.104
54032W        W19292  37.216  44.066   1.431
54033W        W19293  34.350  23.146  14.929
54034W        W19294  15.783  39.021   2.873
54035W        W19295  41.660  12.564  12.518
54036W        W19296  10.575  16.096   4.484
54037W        W19297  44.747  39.320  11.133
54038W        W19298  15.266  37.090  13.607
54039W        W19299   9.103  25.515  11.207
54040W        W19300  15.283  23.348   0.959
54041W        W19301   8.841  12.771   2.778
54042W        W19302  43.827  38.299   2.315
54043W        W19303   9.708  40.140   4.066
54044W        W19304  22.448  13.146   4.102
54045W        W19305   7.094  24.018  11.215
54046W        W19306  27.997   0.004  12.435
54047W        W19307  16.654  36.847  13.627
54048W        W19308  42.832  27.195   0.772
54049W        W19309   0.903  16.927   4.746
54050W        W19310  35.959   2.190  14.309
54051W        W19311  41.806   0.836  10.720
54052W        W19312  33.018   5.253   3.183
54053W        W19313  43.079  37.584   2.782
54054W        W19314  40.470  35.937  12.927
54055W        W19315  14.133   7.378  10.336
54056W        W19316  22.493   6.620  13.755
54057W        W19317   2.287   7.884  11.505
54058W        W19318  19.133  42.469   1.243
54059W        W19319  24.623  19.052  13.012
54060W        W19320  36.471   0.058  13.996
54061W        W19321   8.301   4.142   4.467
54062W        W19322   4.716   8.963  14.377
54063W        W19323   4.466  41.362  13.550
54064W        W19324  26.102  26.833  10.704
54065W        W19325  19.520  41.597   2.869
54066W        W19326  15.370  43.538  12.014
54067W        W19327  22.965  42.758   1.327
54068W        W19328  19.441   3.480  10.691
54069W        W19329  19.395  27.461   4.086
54070W        W19330   3.884  21.194   4.534
54071W        W19331  40.616  40.433  11.252
54072W        W19332  36.329   8.720  12.558
54073W        W19333  25.189  44.917   0.892
54074W        W19334  37.040  32.044  11.738
54075W        W19335  35.060   3.805   1.917
54076W        W19336   5.734  18.920  13.363
54077W        W19337  40.858  20.144  11.938
54078W        W19338  13.715  41.582  13.384
54079W        W19339   8.194  10.438   3.962
54080W        W19340  18.693  43.858  13.647
54081W        W19341  19.090  17.454  13.387
54082W        W19342   5.668   9.687  13.143
54083W        W19343  43.837  13.182  10.733
54084W        W19344  10.694  42.909   2.229
54085W        W19345  32.222  11.029   0.319
54086W        W19346  31.852   5.362  14.520
54087W        W19347  18.423  41.214   3.850
54088W        W19348  12.302   5.119   0.842
54089W        W19349  34.225  18.131   1.752
54090W        W19350  19.236  28.958  12.426
54091W        W19351   4.251  15.116  13.877
54092W        W19352  28.857  31.765   2.371
54093W        W19353  12.836  44.513  11.078
54094W        W19354  36.832  35.976  13.887
54095W        W19355  41.291  25.556   4.069
54096W        W19356   5.142   9.456   2.358
54097W        W19357  25.315  19.472   3.725
54098W        W19358  23.304   6.325   2.753
54099W        W19359  30.668  17.221  12.392
54100W        W19360  15.226   5.967  11.022
54101W        W19361   5.605   8.196   4.580
54102W        W19362  29.929  25.275  11.019
54103W        W19363  24.234  17.262  10.516
54104W        W19364   9.251  23.044  14.742
54105W        W19365  24.146   0.510  10.601
54106W        W19366   5.422  43.477   1.561
54107W        W19367  17.756   3.456  13.091
54108W        W19368  41.494  39.641   4.552
54109W        W19369  43.959  15.668   1.962
54110W        W19370  18.445  22.767  13.840
54111W        W19371  37.159   7.707  12.000
54112W        W19372   9.208  35.841  12.204
54113W        W19373   9.317   7.128  11.579
54114W        W19374  29.665  38.421   0.497
54115W        W19375  42.395  26.146   3.793
54116W        W19376  22.949  21.026   3.766
54117W        W19377  34.770   5.751   0.401
54118W        W19378  42.051   6.160   2.769
54119W        W19379  17.655   7.411   4.342
54120W        W19380  16.545  29.926   3.189
54121W        W19381   1.982   3.517  13.517
54122W        W19382   8.743  18.354   1.683
54123W        W19383  39.860  42.430   3.830
54124W        W19384   7.830  30.187  11.905
54125W        W19385  23.345   9.799   4.491
54126W        W19386  26.609  38.882   1.580
54127W        W19387  36.121   4.169  14.550
54128W        W19388  14.559  35.064   0.284
54129W        W19389  17.711  11.036  12.434
54130W        W19390   5.998  35.238   1.761
54131W        W19391   0.727   2.853  13.000
54132W        W19392  15.760  13.632   4.210
54133W        W19393  10.178  39.223  11.194
54134W        W19394  22.737   5.289  14.860
54135W        W19395  33.991  20.135  12.656
54136W        W19396  23.509  34.853  11.828
54137W        W19397  24.107  26.726  11.224
54138W        W19398   7.622  31.169   0.891
54139W        W19399   2.915  14.807   1.132
54140W        W19400  40.501  21.260   0.376
54141W        W19401  40.481  25.641   1.325
54142W        W19402   1.568  20.095   3.243
54143W        W19403   2.748   3.517  14.385
54144W        W19404  39.372  20.769  13.528
54145W        W19405  11.998  44.537   3.657
54146W        W19406  37.418  23.736   0.020
54147W        W19407  35.433  13.374  13.122
54148W        W19408  41.024  41.909   2.697
54149W        W19409  28.464   1.920  14.906
54150W        W19410  31.926  36.457   3.193
54151W        W19411  34.639  22.734   0.098
54152W        W19412  43.590   4.794   2.220
54153W        W19413  37.169  35.616  12.537
54154W        W19414   6.004   2.773   4.902
54155W        W19415  22.792  40.115   3.220
54156W        W19416  27.074   7.761   1.294
54157W        W19417   4.422  30.432  13.330
54158W        W19418  10.168   6.679   0.441
54159W        W19419   6.813   2.761   4.466
54160W        W19420  12.369  21.041  11.999
54161W        W19421   2.807  16.042  12.142
54162W        W19422  11.419  29.028  11.010
54163W        W19423  20.080  43.915   3.251
54164W        W19424   5.310  16.089   1.498
54165W        W19425  44.299   6.367   1.774
54166W        W19426  17.803  28.353  12.369
54167W        W19427   6.891  39.106   2.841
54168W        W19428  35.099   1.432  14.622
54169W        W19429  23.393  20.047   4.804
54170W        W19430  44.072  27.915  11.034
54171W        W19431  30.610  18.107  11.242
54172W        W19432  24.803  28.991   4.428
54173W        W19433  14.062   0.333  11.181
54174W        W19434  24.529  26.125  12.903
54175W        W19435  21.095  13.340  13.877
54176W        W19436  42.133  30.994  14.917
54177W        W19437  13.755  43.619   4.395
54178W        W19438  18.032  19.575   0.364
54179W        W19439  33.944   1.220  12.026
54180W        W19440  41.005   1.920   2.094
54181W        W19441  21.190  11.734  14.443
54182W        W19442   3.049  36.368  12.498
54183W        W19443   2.960  34.947  12.030
54184W        W19444  15.145  11.428  11.209
54185W        W19445  38.863  19.760  12.619
54186W        W19446  25.225  15.549   1.876
54187W        W19447  29.110  37.880  12.638
54188W        W19448  39.690  24.624  12.869
54189W        W19449  29.164  23.575  14.946
54190W        W19450  42.779  13.385   4.903
54191W        W19451   0.998  40.225   1.574
54192W        W19452  43.770  20.168  12.195
54193W        W19453  13.250  16.246   3.406
54194W        W19454  39.766  42.063   0.858
54195W        W19455   0.398   6.128   2.803
54196W        W19456  27.048  10.184   4.174
54197W        W19457   9.789  24.956   9.728
54198W        W19458  36.046  21.475  14.361
54199W        W19459  38.852  18.532  12.783
54200W        W19460  37.468  42.233   3.646
54201W        W19461  24.130  17.213  11.020
54202W        W19462  24.122   2.904  14.566
54203W        W19463  43.204  29.122  11.959
54204W        W19464  11.901  23.020  11.986
54205W        W19465  42.931  10.821   1.313
54206W        W19466   0.244  22.847  11.117
54207W        W19467  39.449  19.641  11.797
54208W        W19468  12.724   1.970   1.409
54209W        W19469  39.627  17.546  14.685
54210W        W19470  27.483  27.561   2.446
54211W        W19471  11.801   2.155   5.082
54212W        W19472  30.466   8.805   0.329
54213W        W19473  17.753   7.450  11.069
54214W        W19474  11.614  30.667  14.775
54215W        W19475  17.405  17.753  14.706
54216W        W19476  26.513   4.644   4.058
54217W        W19477  16.609  36.850  11.152
54218W        W19478  30.771  14.632  14.753
54219W        W19479  25.155  43.153   2.385
54220W        W19480  29.367  26.574   3.691
54221W        W19481  24.768  17.627  13.358
54222W        W19482  11.279  35.159  10.333
54223W        W19483  21.229  27.985  13.798
54224W        W19484  17.271  33.516   1.344
54225W        W19485   0.769   5.227   1.785
54226W        W19486  32.453  24.140   4.844
54227W        W19487  13.077  32.809   4.608
54228W        W19488  42.077   9.779  12.285
54229W        W19489  32.093  44.266  12.552
54230W        W19490   5.829  16.750  13.558
54231W        W19491  34.583   0.374  10.490
54232W        W19492  33.380  29.993   4.554
54233W        W19493   3.863  15.219   3.873
54234W        W19494  31.513  35.299   1.855
54235W        W19495  29.445  21.642   4.568
54236W        W19496  24.652   3.406  14.469
54237W        W19497  20.231   5.435  13.480
54238W        W19498   2.664  43.001   1.381
54239W        W19499  24.774  23.666  14.938
54240W        W19500  13.909  37.708  12.547
54241W        W19501  28.716  42.899   4.771
54242W        W19502  24.024  11.281  11.075
54243W        W19503  21.200   4.740   2.859
54244W        W19504  19.248  31.033   0.832
54245W        W19505  31.982  10.474   3.536
54246W        W19506  31.693   7.021   3.642
54247W        W19507  12.522  21.267   2.367
54248W        W19508  22.610  13.613  13.080
54249W        W19509  16.775   3.232  10.795
54250W        W19510  33.372  19.200  13.193
54251W        W19511  41.793  19.209  14.498
54252W        W19512  19.685  32.619   3.985
54253W        W19513  30.595  15.368  11.513
54254W        W19514  21.700  22.666  12.004
54255W        W19515  23.471  30.970  13.521
54256W        W19516  18.674  17.920   4.615
54257W        W19517   1.736  16.412   1.194
54258W        W19518  20.752  22.579  13.910
54259W        W19519   3.347  31.847   0.644
54260W        W19520  42.092  12.311   0.884
54261W        W19521  36.978   0.223   2.759
54262W        W19522  37.091  19.897  14.038
54263W        W19523  24.991  24.224   4.313
54264W        W19524  44.115  20.647  11.026
54265W        W19525  18.212  30.780   4.730
54266W        W19526   0.396  16.318  12.630
54267W        W19527  17.520  42.005   2.360
54268W        W19528  33.160  10.753   2.897
54269W        W19529  10.796  13.541   2.791
54270W        W19530  44.690  37.601   3.283
54271W        W19531   4.879   3.291   3.517
54272W        W19532  41.247  17.653  12.095
54273W        W19533  24.563  34.188  12.801
54274W        W19534  26.266  13.613   3.632
54275W        W19535  20.144   8.779   4.360
54276W        W19536  14.795   5.150  12.861
54277W        W19537   3.557  34.662  14.495
54278W        W19538  23.746  15.122  10.950
54279W        W19539  15.175  12.564   2.259
54280W        W19540  13.235  28.070  11.685
54281W        W19541   3.522  32.126   0.221
54282W        W19542  41.978  32.885   4.235
54283W        W19543  33.980  43.738  10.369
54284W        W19544  38.957   7.330   4.519
54285W        W19545  17.469  43.972   2.363
54286W        W19546  14.625  14.193   4.695
54287W        W19547  13.285  43.048   0.341
54288W        W19548  28.753  37.472  11.442
54289W        W19549  20.270  14.112   3.302
54290W        W19550  11.158  28.509   4.120
54291W        W19551   1.399  33.487   0.957
54292W        W19552  19.873  26.653   4.058
54293W        W19553  22.494  32.948   5.118
54294W        W19554  38.296   3.354   3.094
54295W        W19555  32.907  29.918  14.133
54296W        W19556   0.975  44.432  11.103
54297W        W19557  38.066   3.225   1.199
54298W        W19558   8.081  19.127   3.391
54299W        W19559  26.159  24.890   1.837
54300W        W19560  12.300  32.982  13.094
54301W        W19561  16.364  25.538  12.948
54302W        W19562  27.628  41.343   1.659
54303W        W19563  38.538   4.430   2.262
54304W        W19564  19.855  35.395   5.575
54305W        W19565  27.442  28.230   3.252
54306W        W19566  36.683  42.467   0.833
54307W        W19567  32.538  40.618  10.745
54308W        W19568  19.512  21.761   4.326
54309W        W19569   3.319  42.041   4.586
54310W        W19570  35.291  43.938  13.631
54311W        W19571   2.004   1.797  13.456
54312W        W19572  35.975   4.463   0.998
54313W        W19573  28.946  40.134   2.254
54314W        W19574  32.198  33.342  11.667
54315W        W19575  44.838  19.252  12.773
54316W        W19576  42.103  28.901   0.251
54317W        W19577  21.266  44.872  12.732
54318W        W19578   9.833   0.680   0.290
54319W        W19579  32.184   4.692  13.850
54320W        W19580  25.666  20.382  13.199
54321W        W19581  12.159   9.867  10.791
54322W        W19582  21.711  23.309  11.626
54323W        W19583  30.728  23.872  11.857
54324W        W19584   3.962  13.008   4.021
54325W        W19585  12.340  34.144   3.120
54326W        W19586  23.492  22.783  12.475
54327W        W19587  34.791  34.357  11.475
54328W        W19588  34.057  35.295  13.926
54329W        W19589   1.559   4.726   5.063
54330W        W19590  39.063  38.510   0.826
54331W        W19591   8.168   4.114  11.536
54332W        W19592  22.568   6.390  11.074
54333W        W19593  17.032   4.489  11.577
54334W        W19594  19.770  16.670  14.746
54335W        W19595   7.899  37.094   0.821
54336W        W19596   9.350  31.997  12.049
54337W        W19597  11.371  43.208  14.195
54338W        W19598  36.061  33.324   1.378
54339W        W19599  18.279  40.413  10.682
54340W        W19600   6.966  42.460   2.920
54341W        W19601  41.253  37.493  12.915
54342W        W19602  36.116  24.078  11.092
54343W        W19603  38.372  20.120  10.721
54344W        W19604   4.968  41.469  13.527
54345W        W19605  26.208  15.038  11.881
54346W        W19606   1.094  14.992   9.959
54347W        W19607   8.420   9.579   0.077
54348W        W19608   5.910  22.757   1.807
54349W        W19609  27.248  13.631   1.060
54350W        W19610  23.093  15.980  14.294
54351W        W19611  18.145   0.898  12.526
54352W        W19612  16.838  24.113   0.377
54353W        W19613   0.467  24.267   1.002
54354W        W19614  21.996  34.882  11.120
54355W        W19615  19.626  33.887   2.264
54356W        W19616  13.251  35.139   3.226
54357W        W19617  39.352  20.208   3.817
54358W        W19618  21.311  28.630  11.342
54359W        W19619  39.484  12.698   1.395
54360W        W19620  33.317  43.681   3.193
54361W        W19621  34.223  24.110   2.401
54362W        W19622  44.486  22.005   3.155
54363W        W19623  24.506  43.812   3.639
54364W        W19624  27.621  13.244  13.451
54365W        W19625  28.529  33.099  12.489
54366W        W19626  17.248  42.886   5.060
54367W        W19627  23.996  33.955   1.230
54368W        W19628  41.403  10.962  13.981
54369W        W19629  13.652   4.139   4.340
54370W        W19630   1.483  11.332   1.768
54371W        W19631  10.378   9.347  11.230
54372W        W19632   0.795  15.351   0.372
54373W        W19633  39.529  14.626   1.782
54374W        W19634  19.293  15.072   1.955
54375W        W19635  32.022  11.205   3.595
54376W        W19636   0.924   9.702  12.359
54377W        W19637  44.725  43.284   2.744
54378W        W19638  35.506  40.449  13.342
54379W        W19639  25.708  42.783  12.082
54380W        W19640  13.823  14.072   3.575
54381W        W19641  22.022  16.181   3.772
54382W        W19642  29.200   6.742  11.203
54383W        W19643  38.172  44.440   4.525
54384W        W19644  29.046  43.415   4.109
54385W        W19645   1.672  18.997   1.904
54386W        W19646  16.087  20.760   0.375
54387W        W19647  20.759  21.686   1.841
54388W        W19648   4.813  24.705   3.853
54389W        W19649  34.045   7.858   2.750
54390W        W19650  37.024   3.005  14.804
54391W        W19651   3.544  36.588   0.740
54392W        W19652  31.246  38.049  11.746
54393W        W19653  15.615  14.678   1.875
54394W        W19654   8.874   5.666  12.950
54395W        W19655  41.114   4.815  12.944
54396W        W19656  43.032  40.024   1.193
54397W        W19657  41.062  16.035   4.988
54398W        W19658  26.078  28.199   3.397
54399W        W19659   8.632   9.523  14.019
54400W        W19660  39.864  19.549   1.006
54401W        W19661  43.945   8.215   1.767
54402W        W19662  17.952   3.399  10.573
54403W        W19663   2.964  35.035  13.012
54404W        W19664  22.924  11.987  13.448
54405W        W19665  12.007  29.841   4.263
54406W        W19666  16.201   7.835   0.730
54407W        W19667  21.008   1.040   3.650
54408W        W19668  31.164   0.693   0.947
54409W        W19669  29.435  12.384  10.994
54410W        W19670  44.467   2.411   0.361
54411W        W19671  16.245   9.896   0.216
54412W        W19672  19.581  32.988  12.900
54413W        W19673   8.120   4.493  10.692
54414W        W19674  38.846   4.938  13.098
54415W        W19675  15.666  33.895   2.228
54416W        W19676  32.129  21.086   5.039
54417W        W19677  34.114  28.729  12.830
54418W        W19678  31.126  40.363  10.410
54419W        W19679  15.520  24.238  12.879
54420W        W19680  20.767  41.356  13.438
54421W        W19681  29.441   3.853   0.559
54422W        W19682  10.658  16.534   0.078
54423W        W19683  11.896   9.830  13.974
54424W        W19684  18.735  19.059   1.211
54425W        W19685  36.113  41.102   1.817
54426W        W19686  28.480  34.403  14.854
54427W        W19687  27.060  43.207  13.563
54428W        W19688  35.938   7.625  11.594
54429W        W19689  19.408  44.388   4.097
54430W        W19690  19.235  31.115   2.249
54431W        W19691   3.757  18.085  10.763
54432W        W19692  37.907   7.154   4.518
54433W        W19693  24.317  14.434   2.342
54434W        W19694  11.226  39.074   2.690
54435W        W19695   6.655  15.911   4.461
54436W        W19696  23.328   1.363   0.408
54437W        W19697  19.220  25.922  10.642
54438W        W19698  39.544  24.528  13.431
54439W        W19699   3.612   7.537   2.624
54440W        W19700  27.495   2.936   0.884
54441W        W19701   8.702  37.607   1.871
54442W        W19702  37.469  35.725  13.571
54443W        W19703  18.028  44.078   4.053
54444W        W19704  21.878  31.107   0.239
54445W        W19705   1.337  20.024  13.270
54446W        W19706   7.300  42.533  12.000
54447W        W19707  40.073  11.832  14.919
54448W        W19708  25.610  28.213   3.151
54449W        W19709   7.647  35.497  12.353
54450W        W19710   6.922  23.575  11.938
54451W        W19711  36.042  14.333  10.663
54452W        W19712  18.689  32.156  11.045
54453W        W19713  20.181  33.861  10.457
54454W        W19714  13.686  41.816  12.932
54455W        W19715  38.447   1.713   1.731
54456W        W19716  18.799   3.101   5.025
54457W        W19717  35.106  16.667   1.454
54458W        W19718  22.448  23.487  14.399
54459W        W19719  37.456  28.873  14.659
54460W        W19720  16.621  22.172   4.384
54461W        W19721   2.773  16.787   2.205
54462W        W19722  33.852  37.562  12.972
54463W        W19723  38.352  34.653   4.556
54464W        W19724  43.621  24.747  11.975
54465W        W19725   6.849  35.954  12.127
54466W        W19726   1.254  39.854   2.319
54467W        W19727  30.530  27.630   4.479
54468W        W19728  35.557  19.234   2.663
54469W        W19729   0.578   1.385   3.349
54470W        W19730  40.534  39.237  14.921
54471W        W19731   8.566  28.912   1.173
54472W        W19732  40.579  37.671  14.298
54473W        W19733  15.238   8.776   2.825
54474W        W19734  37.833  13.070   3.693
54475W        W19735  19.039  23.192  10.526
54476W        W19736   5.450  44.786  12.584
54477W        W19737  15.193  39.900  10.659
54478W        W19738  26.193  11.695   0.449
54479W        W19739  29.020   2.882   0.776
54480W        W19740  36.039  28.509   3.238
54481W        W19741  43.402   5.864  10.551
54482W        W19742  38.805  29.140  10.434
54483W        W19743  21.078  25.108  12.556
54484W        W19744   7.472  21.057   0.432
54485W        W19745   8.267  27.466   0.011
54486W        W19746  32.320  43.814   3.959
54487W        W19747  15.716  11.920  10.565
54488W        W19748  22.642  24.192   0.833
54489W        W19749  33.470  18.660   5.064
54490W        W19750  10.584  39.222   1.610
54491W        W19751  12.179   4.160   2.684
54492W        W19752  33.892   2.505   3.621
54493W        W19753  30.637  12.140  11.518
54494W        W19754   2.490  36.867  13.287
54495W        W19755  32.185  13.806   4.946
54496W        W19756  32.774  29.469   0.367
54497W        W19757  19.039  39.095   2.513
54498W        W19758  31.346  20.456   0.038
54499W        W19759  38.917  24.604  12.278
54500W        W19760  44.378  29.675  10.781
54501W        W19761  38.450  43.851  11.207
54502W        W19762  19.676  10.139   1.399
54503W        W19763   0.226  20.813   5.226
54504W        W19764  14.335  38.239  14.189
54505W        W19765   0.235  19.152  13.981
54506W        W19766  33.504  32.153  12.934
54507W        W19767   5.881  16.339  11.518
54508W        W19768   4.736  38.464   4.108
54509W        W19769   4.469  28.472  14.489
54510W        W19770  12.683   4.742  10.838
54511W        W19771  29.195  41.780  12.092
54512W        W19772  33.950  17.532   4.012
54513W        W19773  41.486  34.871  14.708
54514W        W19774   9.670  20.328  10.651
54515W        W19775  15.538  12.248  13.437
54516W        W19776   9.117  37.630   2.338
54517W        W19777  22.497  20.185   2.210
54518W        W19778  28.039  37.589   4.184
54519W        W19779  39.572   3.960   3.556
54520W        W19780  16.336  34.451  13.536
54521W        W19781  36.067  29.507   3.306
54522W        W19782   3.470  35.318   0.823
54523W        W19783  32.491  33.118   3.174
54524W        W19784  27.780   0.153  11.988
54525W        W19785  21.955  27.204   0.377
54526W        W19786  24.660  34.438   0.028
54527W        W19787   8.961  24.226  14.361
54528W        W19788   5.993   9.817  13.997
54529W        W19789  42.593  20.624  10.963
54530W        W19790  11.220  12.340   0.268
54531W        W19791  33.588  18.649  12.478
54532W        W19792  38.467  27.022   4.664
54533W        W19793   4.338  30.113  11.592
54534W        W19794  37.707  10.092  11.092
54535W        W19795  42.479  34.535  14.541
54536W        W19796  33.469   0.833  14.888
54537W        W19797  30.148  41.439  13.050
54538W        W19798   3.715  19.027  13.028
54539W        W19799  29.997  19.246  13.823
54540W        W19800  41.470  17.766  13.073
54541W        W19801  31.057  15.768  13.437
54542W        W19802   8.015   4.439   0.768
54543W        W19803  13.661  41.892   0.746
54544W        W19804  22.765   5.484   1.903
54545W        W19805  30.912  16.622  11.460
54546W        W19806  18.178  13.807  13.466
54547W        W19807   5.829  39.230   4.579
54548W        W19808   5.603  25.026   2.955
54549W        W19809  26.277  10.892   2.955
54550W        W19810   5.295  11.988  14.900
54551W        W19811  11.706   2.836   1.283
54552W        W19812  27.388   8.352  13.453
54553W        W19813  30.052  13.643   2.832
54554W        W19814  35.337  44.032   3.681
54555W        W19815  29.397  23.110   4.716
54556W        W19816  26.998  22.467  10.053
54557W        W19817  29.587   7.896  12.398
54558W        W19818  39.495  36.544   0.443
54559W        W19819  33.865  16.180   0.563
54560W        W19820   7.426  33.572   3.779
54561W        W19821  39.475   5.467   1.224
54562W        W19822  11.934  19.283   4.190
54563W        W19823   1.119   4.031  11.583
54564W        W19824  28.212  34.991  13.408
54565W        W19825  19.205  37.113   3.802
54566W        W19826  40.506   8.534   3.674
54567W        W19827  39.330   7.691  11.523
54568W        W19828  25.981  32.430  13.490
54569W        W19829   0.727   0.383  10.745
54570W        W19830  36.158  35.632   0.609
54571W        W19831  16.562  17.020  11.021
54572W        W19832   9.856  32.398  13.101
54573W        W19833  22.489  32.916  10.572
54574W        W19834  44.423   9.432  10.628
54575W        W19835  36.440  24.135  14.965
54576W        W19836  40.504  32.572   4.812
54577W        W19837  15.180  42.606  12.153
54578W        W19838  30.837  32.377  14.554
54579W        W19839  19.935  38.924  12.313
54580W        W19840  44.732  21.459   4.188
54581W        W19841   2.891  15.539  12.093
54582W        W19842   0.809  13.338  13.546
54583W        W19843  29.325   2.417   1.647
54584W        W19844  44.849  30.640   0.640
54585W        W19845  26.198   3.867  11.642
54586W        W19846  27.521  21.276  13.037
54587W        W19847  24.994  37.233   2.461
54588W        W19848  17.851  14.309   1.941
54589W        W19849  44.573  19.222   4.936
54590W        W19850  12.415  31.361  13.882
54591W        W19851  21.355  15.482  11.833
54592W        W19852  28.906  39.256  13.208
54593W        W19853   7.137   4.492   3.469
54594W        W19854  11.564  42.843  13.348
54595W        W19855  42.835  16.128   2.646
54596W        W19856  22.348  30.647  14.454
54597W        W19857  31.800  23.506   3.923
54598W        W19858  20.164  11.274   2.261
54599W        W19859  23.136   2.767   0.750
54600W        W19860  10.217  17.461   4.199
54601W        W19861  30.068  21.914   1.304
54602W        W19862   2.894   1.959  12.834
54603W        W19863  27.544  16.202   2.226
54604W        W19864  41.628  43.733  11.095
54605W        W19865   0.447  32.566  11.621
54606W        W19866   5.911  18.720   4.853
54607W        W19867  36.371  42.322  10.663
54608W        W19868   1.896  25.473   2.353
54609W        W19869   6.771  14.813   2.393
54610W        W19870   2.891   7.666   1.398
54611W        W19871  15.117  32.825   3.656
54612W        W19872  22.032  17.669  13.553
54613W        W19873  21.066  39.603  13.974
54614W        W19874  30.791  22.063  10.469
54615W        W19875  36.829  42.292   0.361
54616W        W19876  22.771  22.558   1.861
54617W        W19877   2.692  36.500  14.026
54618W        W19878  31.045  35.581  10.628
54619W        W19879  28.477  33.989  12.313
54620W        W19880  39.010  43.370  12.532
54621W        W19881  37.571   1.930   3.133
54622W        W19882  44.998  33.377  14.296
54623W        W19883  38.743  27.995  13.801
54624W        W19884  33.008  34.813   2.267
54625W        W19885  18.197  16.886  13.460
54626W        W19886   3.253   0.735  13.487
54627W        W19887  39.509  44.891   4.817
54628W        W19888  36.834  40.339   4.451
54629W        W19889  19.228   9.322  11.392
54630W        W19890   8.404   5.141  12.459
54631W        W19891  25.170  23.237  10.451
54632W        W19892  10.380  21.608  11.005
54633W        W19893  40.929  40.848  11.363
54634W        W19894  20.428  11.163  11.573
54635W        W19895  10.305  19.359   0.945
54636W        W19896  37.504  40.931   2.919
54637W        W19897  34.597  13.128  14.454
54638W        W19898   1.867  20.121   2.809
54639W        W19899  44.258   7.713  13.795
54640W        W19900  44.524   7.509  11.744
54641W        W19901  43.738   3.370  13.481
54642W        W19902  39.105   9.766   0.267
54643W        W19903   8.364   1.623  12.951
54644W        W19904  15.167  43.047   2.467
54645W        W19905  29.969  11.281   1.900
54646W        W19906   7.485  20.801  11.514
54647W        W19907  25.194  20.541  10.348
54648W        W19908   9.376  29.476  10.767
54649W        W19909   4.604   9.817   2.018
54650W        W19910  16.191  35.807   4.160
54651W        W19911  12.281  23.707  14.972
54652W        W19912  24.406  25.889   3.353
54653W        W19913  23.542  30.949  12.592
54654W        W19914  18.736  10.699  10.618
54655W        W19915   8.829  24.138  10.841
54656W        W19916   8.930  42.835   1.914
54657W        W19917  38.530  22.924  13.091
54658W        W19918  14.334   1.503   3.440
54659W        W19919  16.714  18.569   1.212
54660W        W19920   6.999  41.005  12.047
54661W        W19921   2.605  34.449   3.794
54662W        W19922  33.082  44.777  13.527
54663W        W19923   8.261  29.818   3.243
54664W        W19924  25.069  19.300  10.742
54665W        W19925  41.480  35.164   4.366
54666W        W19926  34.991   7.865   1.473
54667W        W19927  36.078   5.828   1.780
54668W        W19928  37.301  27.110  11.604
54669W        W19929  39.866   2.837  12.480
54670W        W19930   8.285  33.043   2.007
54671W        W19931  29.088  25.671   2.837
54672W        W19932   1.527   9.062   4.632
54673W        W19933  25.869  36.905   5.234
54674W        W19934  34.425  13.070  11.358
54675W        W19935  30.427  15.687   0.456
54676W        W19936   9.786  12.309  14.703
54677W        W19937  43.101  37.824   2.295
54678W        W19938  33.654  37.059   3.797
54679W        W19939   7.840  43.482  10.647
54680W        W19940  34.978  40.084  11.747
54681W        W19941  23.597  34.587   9.947
54682W        W19942  41.819  44.067  13.533
54683W        W19943   1.625  27.568  14.787
54684W        W19944  27.269   0.204   2.196
54685W        W19945  35.663   9.729  12.072
54686W        W19946  38.429  43.158   4.286
54687W        W19947  24.288  14.074  10.639
54688W        W19948   7.874   7.705   2.465
54689W        W19949  43.982   5.279  10.970
54690W        W19950  11.283  12.851   4.829
54691W        W19951  14.652  18.167  13.875
54692W        W19952  30.929   1.049  13.259
54693W        W19953  17.192   4.943   3.080
54694W        W19954  10.379   8.896   1.438
54695W        W19955  37.263  34.230  12.087
54696W        W19956  11.878  19.612   5.053
54697W        W19957  23.567  15.467  14.911
54698W        W19958  32.249  43.962   1.166
54699W        W19959   2.230  26.456   3.134
54700W        W19960   7.594  39.292   4.597
54701W        W19961  14.112  38.614  13.666
54702W        W19962   0.267   0.205   1.811
54703W        W19963  43.452  41.521   0.306
54704W        W19964  42.250  26.705   1.870
54705W        W19965   2.245  40.267  14.934
54706W        W19966  32.110  10.704  14.053
54707W        W19967  13.177  22.610  10.541
54708W        W19968  35.849  40.300   3.276
54709W        W19969  41.408   9.662   2.368
54710W        W19970   5.626  24.539   1.217
54711W        W19971   6.750  13.599   3.398
54712W        W19972   1.123   6.311   3.662
54713W        W19973  21.793  32.866   0.846
54714W        W19974  41.515  36.465   1.739
54715W        W19975  14.183  17.263  13.984
54716W        W19976   1.338  20.481   1.020
54717W        W19977   5.435  23.444   3.792
54718W        W19978  40.859  35.684  14.957
54719W        W19979  24.954   7.700  14.242
54720W        W19980   1.738  40.086   2.293
54721W        W19981  14.293  33.122   1.151
54722W        W19982  21.017  29.460  12.441
54723W        W19983   1.000  35.104   4.172
54724W        W19984  37.078  20.251  12.499
54725W        W19985   0.966  35.615   3.170
54726W        W19986   7.088  15.643   2.779
54727W        W19987   8.796  40.354   5.021
54728W        W19988   1.203  36.971  12.808
54729W        W19989  10.707  40.747   4.849
54730W        W19990   5.452  22.707   3.749
54731W        W19991  38.358  15.220  13.800
54732W        W19992  33.499  21.825   3.707
54733W        W19993  31.108  36.280   2.173
54734W        W19994  12.629  25.974   3.571
54735W        W19995  40.872  15.353  10.838
54736W        W19996   1.908   2.331  11.615
54737W        W19997  42.835   4.189  13.883
54738W        W19998  37.584  12.637  14.363
54739W        W19999  25.745  40.712  11.972
54740W        W20000  43.826  32.020   3.310
54741W        W20001  25.483   9.322   2.879
54742W        W20002  43.432  20.935  14.916
54743W        W20003   8.904  18.768   0.198
54744W        W20004  37.841  36.015  14.295
54745W        W20005  21.967  36.871   1.243
54746W        W20006  30.125  44.974  11.442
54747W        W20007   4.772   4.979  11.504
54748W        W20008   9.525  13.871   1.264
54749W        W20009  13.668  36.126  11.458
54750W        W20010  43.408  16.767   4.192
54751W        W20011  35.163  27.585   4.364
54752W        W20012  29.667  23.967  14.320
54753W        W20013   4.810   1.751  10.741
54754W        W20014  42.718  27.922  12.314
54755W        W20015  34.542   6.580  13.671
54756W        W20016  18.343   2.902  14.870
54757W        W20017  28.460  32.603  12.362
54758W        W20018   6.703  41.205   1.948
54759W        W20019   3.228   8.119   2.071
54760W        W20020  31.968  42.818   1.657
54761W        W20021   3.395  17.356  14.436
54762W        W20022  26.801   1.713   3.637
54763W        W20023  26.718  31.994  11.628
54764W        W20024  22.204   9.930  13.546
54765W        W20025  27.073  19.167  14.801
54766W        W20026  40.725  15.943  12.329
54767W        W20027  38.357  39.448  13.388
54768W        W20028  34.015  43.249  12.189
54769W        W20029  14.100  18.090   2.272
54770W        W20030  16.828   9.621  10.868
54771W        W20031  40.789  20.396   1.270
54772W        W20032  18.700  38.867  14.859
54773W        W20033   7.228   1.258   0.779
54774W        W20034  40.350  27.077   3.083
54775W        W20035   7.703  25.411  13.952
54776W        W20036  31.963   7.343  10.222
54777W        W20037  23.722  34.516  13.344
54778W        W20038  14.780  30.453  14.060
54779W        W20039  33.306  32.521  12.158
54780W        W20040   7.702  19.299   3.029
54781W        W20041  16.583  28.121   2.349
54782W        W20042  26.213   6.272  14.814
54783W        W20043  33.575   1.672   2.101
54784W        W20044  34.409  44.416  10.490
54785W        W20045  44.839  42.824   2.358
54786W        W20046  42.954  11.145  12.408
54787W        W20047  40.141   2.653  14.829
54788W        W20048  18.772  22.044  12.527
54789W        W20049  17.378  27.005   1.393
54790W        W20050  18.111  14.776   1.798
54791W        W20051  22.604  17.086  14.212
54792W        W20052   1.469   6.211   2.207
54793W        W20053   0.943  25.097   0.923
54794W        W20054   6.114  15.608   0.481
54795W        W20055   9.218  12.743   1.849
54796W        W20056  31.627  37.357   4.773
54797W        W20057  27.019  37.516   4.042
54798W        W20058  40.533  41.430  12.493
54799W        W20059  25.164  14.567  11.539
54800W        W20060  40.767  38.312   4.581
54801W        W20061  23.713  10.390   1.330
54802W        W20062  19.822   4.217   0.762
54803W        W20063  25.931  34.433  13.361
54804W        W20064  35.480  28.933  10.941
54805W        W20065   6.359   2.670   4.120
54806W        W20066  15.778  37.755   4.148
54807W        W20067   3.993  26.695   1.242
54808W        W20068  17.052  14.259  12.445
54809W        W20069  21.642  13.341  11.185
54810W        W20070  30.347  12.874  11.221
54811W        W20071  26.969   1.269   1.389
54812W        W20072  41.896  32.594   3.221
54813W        W20073  24.218  31.242   4.324
54814W        W20074  43.315   4.748   1.783
54815W        W20075  34.169  12.654  11.691
54816W        W20076   9.423  38.481   0.817
54817W        W20077   8.024  33.668   3.233
54818W        W20078  13.285  32.583  14.488
54819W        W20079  26.823  25.574  14.327
54820W        W20080  37.350   8.551   2.832
54821W        W20081  18.201   2.681   4.265
54822W        W20082  24.764  39.297  10.472
54823W        W20083  25.943  44.015   3.697
54824W        W20084  18.016  17.806  11.420
54825W        W20085  31.862  12.317  12.557
54826W        W20086  44.276  36.950   1.340
54827W        W20087  13.323  35.436  11.256
54828W        W20088  37.603  20.995  13.478
54829W        W20089   1.567   6.395   0.309
54830W        W20090  33.581  15.629   2.209
54831W        W20091  23.103  27.127   1.928
54832W        W20092  10.603  44.321  11.142
54833W        W20093  38.479  39.440  14.391
54834W        W20094  20.709  23.798  12.455
54835W        W20095   8.568  25.442   2.301
54836W        W20096   6.845  35.427  12.928
54837W        W20097  41.887  21.756  11.591
54838W        W20098  16.324  33.551   2.860
54839W        W20099  26.911  32.171   0.917
54840W        W20100  33.124  23.752   3.741
54841W        W20101  35.623   6.151   1.002
54842W        W20102  11.687  23.706   0.303
54843W        W20103   1.885  26.601  10.138
54844W        W20104  16.154  42.312  11.099
54845W        W20105  36.518  37.023  10.939
54846W        W20106  21.742  29.500   3.468
54847W        W20107   7.235  42.349   4.757
54848W        W20108  38.926  25.497   1.454
54849W        W20109   1.727  10.032   3.675
54850W        W20110  25.294  33.981  12.987
54851W        W20111  40.245  21.736   3.314
54852W        W20112  20.195  39.071   2.025
54853W        W20113  27.413  43.018  12.364
54854W        W20114  12.278  37.854  12.114
54855W        W20115   1.973   9.327  13.670
54856W        W20116  33.558  35.166   4.511
54857W        W20117  21.007   1.778   1.740
54858W        W20118  35.026  35.409  11.631
54859W        W20119   3.819  21.666   1.525
54860W        W20120   6.856  38.161  12.049
54861W        W20121   3.903  37.338  10.512
54862W        W20122  30.970   6.267   4.388
54863W        W20123   6.875  24.116  10.661
54864W        W20124  17.245  15.907  14.895
54865W        W20125  17.439  44.947   0.000
54866W        W20126  12.259  20.353   4.123
54867W        W20127   3.192  43.866   2.895
54868W        W20128  13.336  18.109   2.769
54869W        W20129  15.814   3.488   2.276
54870W        W20130  18.846  42.404  14.302
54871W        W20131   3.703  26.455   3.313
54872W        W20132  23.653   0.622   4.140
54873W        W20133   8.680  43.196   3.989
54874W        W20134   3.070  17.315   0.392
54875W        W20135  29.899   2.144  12.915
54876W        W20136  37.828  33.914   4.683
54877W        W20137   9.816  29.579   2.329
54878W        W20138  39.436  17.061   1.100
54879W        W20139   4.957  12.080   2.785
54880W        W20140  39.480  24.355   4.038
54881W        W20141   9.382  36.651   3.823
54882W        W20142  15.273  41.091  14.727
54883W        W20143  28.495  36.443   3.373
54884W        W20144   1.415  21.142  10.719
54885W        W20145  35.080  42.952   4.940
54886W        W20146  21.073   5.111   3.684
54887W        W20147  28.102  14.332  10.100
54888W        W20148  15.548   3.387  14.822
54889W        W20149  40.993  14.498   2.705
54890W        W20150  36.999  25.322  14.391
54891W        W20151  16.165  41.800  11.856
54892W        W20152   5.266  24.233  10.667
54893W        W20153  18.883  17.543   3.985
54894W        W20154  27.754   9.628  13.816
54895W        W20155  39.913  28.397   2.249
54896W        W20156  12.044  37.220  12.915
54897W        W20157  24.282  22.193  12.567
54898W        W20158  31.108  38.352  13.000
54899W        W20159  40.453  39.778  13.853
54900W        W20160  35.107  33.044  12.057
54901W        W20161  37.053  35.540   1.242
54902W        W20162  18.071  35.377   3.703
54903W        W20163   6.414  23.008  12.426
54904W        W20164  32.067   9.772  12.112
54905W        W20165   5.108  33.098  11.993
54906W        W20166  36.090  16.608   0.464
54907W        W20167   1.529  31.133   0.329
54908W        W20168  42.601  19.281  10.847
54909W        W20169  23.113  35.338  14.886
54910W        W20170   5.690  27.908  14.438
54911W        W20171  14.145  32.541   3.009
54912W        W20172  11.112  40.088   4.346
54913W        W20173  19.018  31.583   2.210
54914W        W20174   1.905  30.577  14.399
54915W        W20175  33.532  41.572   1.861
54916W        W20176   9.662  23.141   0.272
54917W        W20177  25.127  42.312   0.392
54918W        W20178  16.776  30.484  11.478
54919W        W20179  20.530  38.302  13.885
54920W        W20180  32.113  19.497   1.860
54921W        W20181  44.217  32.704   2.853
54922W        W20182  42.266  35.382   0.627
54923W        W20183  44.923  24.051  11.913
54924W        W20184   6.920  25.808  13.519
54925W        W20185  35.413  39.825  11.608
54926W        W20186  43.371  13.321   2.237
54927W        W20187   6.233  30.534   2.734
54928W        W20188  31.605  13.697  13.872
54929W        W20189   7.772  35.728   1.209
54930W        W20190   4.003  35.616  12.420
54931W        W20191   8.757  34.104   4.230
54932W        W20192  30.905  10.224  14.224
54933W        W20193  33.916  10.636   4.751
54934W        W20194  12.217  11.861  10.839
54935W        W20195  21.692   8.404  12.416
54936W        W20196   7.650  27.271   0.930
54937W        W20197   1.390  10.205   0.755
54938W        W20198  10.672  13.733   4.151
54939W        W20199  19.688  22.501  12.527
54940W        W20200  23.040  27.588  14.132
54941W        W20201  19.718  28.815  12.904
54942W        W20202   5.345  16.587   3.331
54943W        W20203  30.902  29.478   3.183
54944W        W20204  24.276   7.508   4.786
54945W        W20205  44.820   9.647  11.475
54946W        W20206  20.796   6.644  13.390
54947W        W20207  17.669  16.628   0.701
54948W        W20208  23.056  20.192  12.880
54949W        W20209  39.704  37.387   2.482
54950W        W20210  26.687  38.832  14.069
54951W        W20211  31.176  24.259  14.264
54952W        W20212  32.500  10.378   3.849
54953W        W20213  12.196  25.180  11.343
54954W        W20214  17.474  19.248  12.469
54955W        W20215  42.545  18.767  14.058
54956W        W20216  17.913   5.118  13.598
54957W        W20217  27.331   8.703  11.593
54958W        W20218  15.525  32.457  13.825
54959W        W20219   9.392  35.581  10.337
54960W        W20220  21.202  25.247   4.485
54961W        W20221  24.158   8.647  12.811
54962W        W20222  42.319   2.699   4.889
54963W        W20223  32.066   3.185  13.012
54964W        W20224  34.152  39.477   3.772
54965W        W20225  35.529  20.513   3.181
54966W        W20226   8.464  29.155  11.686
54967W        W20227  24.016  22.149  13.014
54968W        W20228  16.295  44.622  12.762
54969W        W20229   4.466  33.148  14.388
54970W        W20230  20.557  35.892   4.012
54971W        W20231  17.578  19.653   1.348
54972W        W20232   0.550   8.346  12.121
54973W        W20233  11.705   3.601  11.904
54974W        W20234  37.737   5.369  14.381
54975W        W20235  22.061  12.780   2.739
54976W        W20236   8.011  38.505  14.591
54977W        W20237  38.457  19.039  13.542
54978W        W20238  27.536  39.589   1.371
54979W        W20239  10.049  42.737   3.272
54980W        W20240  25.772   4.397   9.805
54981W        W20241  40.903   4.932   3.429
54982W        W20242  24.429  17.574   1.951
54983W        W20243  27.763  33.439   2.209
54984W        W20244  12.163   2.792  13.782
54985W        W20245  23.051  15.836  12.938
54986W        W20246  41.139  15.935  12.939
54987W        W20247  11.152  20.618  11.742
54988W        W20248  27.567  18.357  13.034
54989W        W20249  11.235  23.567  12.359
54990W        W20250  32.909  21.686   1.397
54991W        W20251  20.845  19.591   2.445
54992W        W20252  28.205   3.713   3.366
54993W        W20253  44.707  31.037   4.582
54994W        W20254  28.013  32.643  10.780
54995W        W20255  34.032  15.719  10.625
54996W        W20256  22.774   6.246   2.774
54997W        W20257   9.421  40.769  10.775
54998W        W20258  29.146   2.002  13.368
54999W        W20259   2.468  36.663  12.048
55000W        W20260  13.580  41.387  14.817
55001W        W20261   8.681  44.010  10.407
55002W        W20262  33.189   6.953  11.114
55003W        W20263  14.826  18.806  14.461
55004W        W20264  39.804  21.595   3.586
55005W        W20265   3.254   2.199   4.560
55006W        W20266  18.905  24.570   1.435
55007W        W20267  27.746  39.080  11.286
55008W        W20268  24.233   1.743   0.160
55009W        W20269   4.468   2.285  14.876
55010W        W20270  36.831  33.811  14.400
55011W        W20271  34.757  38.428   0.356
55012W        W20272  42.722  10.833  14.205
55013W        W20273  33.472  44.970  12.358
55014W        W20274  22.636  22.235  10.820
55015W        W20275  27.087   7.092   2.297
55016W        W20276  17.587  18.087   1.947
55017W        W20277  36.294  19.971  12.048
55018W        W20278  25.541  21.496   2.511
55019W        W20279  33.081  18.092  14.453
55020W        W20280  33.938   5.147   0.019
55021W        W20281  39.924  34.598  14.377
55022W        W20282  18.479  16.517   1.233
55023W        W20283  13.034  30.356   1.667
55024W        W20284  25.020  26.565   0.875
55025W        W20285   6.853   6.399   2.466
55026W        W20286  20.135   0.193  11.613
55027W        W20287  32.038  35.008   2.633
55028W        W20288  21.743  30.209  12.442
55029W        W20289  39.981   7.941   3.253
55030W        W20290  25.743  41.499   1.822
55031W        W20291  27.124   6.794  14.221
55032W        W20292   4.311   5.887  11.534
55033W        W20293   5.276  33.936  13.990
55034W        W20294  40.707  36.777  12.904
55035W        W20295  42.664  15.790   3.674
55036W        W20296  33.561  26.792   3.094
55037W        W20297   7.591  41.113   0.743
55038W        W20298  18.798  14.757  13.531
55039W        W20299  21.759  19.838   1.364
55040W        W20300   5.295  37.384  14.871
55041W        W20301  19.320   6.005  11.356
55042W        W20302  15.159   4.204  11.567
55043W        W20303  41.394  27.437   0.051
55044W        W20304  32.891   4.329  12.953
55045W        W20305  18.739  10.267   2.284
55046W        W20306   4.666  37.009   2.434
55047W        W20307  24.605  33.746  11.556
55048W        W20308  15.710   6.978   2.689
55049W        W20309   6.451  12.905   2.347
55050W        W20310  26.505   8.166   1.867
55051W        W20311  30.194  20.256   2.212
55052W        W20312  33.880  39.930   3.650
55053W        W20313  20.422  17.139  13.077
55054W        W20314  31.850   0.801  13.394
55055W        W20315  32.758  12.740  13.453
55056W        W20316  31.453  31.490  11.490
55057W        W20317  14.751   8.006  10.290
55058W        W20318   7.360   9.274  14.928
55059W        W20319  23.840   6.541   4.936
55060W        W20320   7.996  22.609   1.815
55061W        W20321  33.128  25.088   0.961
55062W        W20322  19.986  25.955   2.799
55063W        W20323  16.328  30.079  13.102
55064W        W20324  28.517  36.438  13.908
55065W        W20325  41.224  44.546   1.556
55066W        W20326  20.337  25.101   3.650
55067W        W20327  12.198  28.060   3.962
55068W        W20328  20.672  18.043  11.973
55069W        W20329   6.608  32.438   4.561
55070W        W20330  42.244  10.922  14.021
55071W        W20331  20.569  37.041   1.019
55072W        W20332  35.401  32.719   1.924
55073W        W20333  11.030   0.320  11.999
55074W        W20334   8.871   1.683   2.813
55075W        W20335  40.294  14.870  12.936
55076W        W20336  41.276  39.569  14.485
55077W        W20337  25.303  30.059   2.393
55078W        W20338  40.026  24.692   1.303
55079W        W20339  26.236  15.633  12.616
55080W        W20340  35.604  44.288  14.867
55081W        W20341  37.900  21.421  14.726
55082W        W20342   6.294  23.129  10.934
55083W        W20343  40.619  41.534   0.924
55084W        W20344   9.914  32.064   5.287
55085W        W20345  25.942  35.515   1.744
55086W        W20346  23.178  33.904  14.752
55087W        W20347   2.015   9.231   4.878
55088W        W20348   7.345  25.682  11.013
55089W        W20349   9.260  24.075   0.660
55090W        W20350  25.942  29.602   2.826
55091W        W20351  19.497  10.391  12.637
55092W        W20352   7.663  41.777  14.124
55093W        W20353  35.005  39.895  11.257
55094W        W20354  33.448   8.892   3.338
55095W        W20355  12.099  31.979   4.015
55096W        W20356  15.745   1.753  14.584
55097W        W20357  37.429  24.723   1.212
55098W        W20358  13.160  43.432   0.858
55099W        W20359  12.330  44.397  13.934
55100W        W20360  43.224  34.910   4.185
55101W        W20361  43.682  10.509  12.926
55102W        W20362  30.119  44.007   3.207
55103W        W20363  10.756  35.227  12.909
55104W        W20364  38.616  41.263  14.740
55105W        W20365  34.189  40.939   3.626
55106W        W20366  22.965  34.612   3.766
55107W        W20367  19.713  27.083  13.446
55108W        W20368  27.490   2.773   3.145
55109W        W20369   4.138   3.871  13.880
55110W        W20370   2.013  27.192   9.848
55111W        W20371  35.152  26.521  12.062
55112W        W20372  26.735  37.188  12.824
55113W        W20373  15.551  12.030   3.019
55114W        W20374  32.903  39.696   3.350
55115W        W20375  26.017  26.599   3.383
55116W        W20376  26.870  32.129  10.773
55117W        W20377  25.618  13.777  12.513
55118W        W20378  12.769   0.182   4.726
55119W        W20379  31.780  27.505  14.833
55120W        W20380   6.734  33.779   1.427
55121W        W20381  30.611  28.256  14.533
55122W        W20382  41.746  18.142  11.041
55123W        W20383   5.866   5.347  12.392
55124W        W20384   8.264  14.893   3.129
55125W        W20385  31.838  32.887  11.609
55126W        W20386  25.921  31.362   2.581
55127W        W20387  17.695  20.056  12.144
55128W        W20388   6.216  35.479  10.644
55129W        W20389   9.199  11.770   1.189
55130W        W20390  10.282  14.906  11.653
55131W        W20391  16.360  31.489  13.727
55132W        W20392  14.561  40.131   3.616
55133W        W20393  42.696  13.229   1.012
55134W        W20394  21.284  30.555  10.722
55135W        W20395  37.470  27.617  11.594
55136W        W20396  25.580  32.213  11.115
55137W        W20397  37.839  39.480   4.634
55138W        W20398  12.495  37.207  14.786
55139W        W20399  19.304  29.326  11.150
55140W        W20400   1.907   8.665  12.787
55141W        W20401  37.187  38.780  14.124
55142W        W20402  31.102  22.829  14.580
55143W        W20403  23.484  25.489   1.670
55144W        W20404  19.049   4.251  13.357
55145W        W20405   5.481  38.867   3.568
55146W        W20406   6.745  21.503  11.649
55147W        W20407   7.740  15.853   3.822
55148W        W20408  26.916  13.951  11.542
55149W        W20409  36.548  28.526   2.535
55150W        W20410  43.459  33.553   1.922
55151W        W20411  22.991  24.405  11.642
55152W        W20412  27.220  22.155  13.230
55153W        W20413   9.594  41.322  14.840
55154W        W20414  35.364  15.184  14.455
55155W        W20415  21.597  31.219   3.147
55156W        W20416  43.308  10.359   2.650
55157W        W20417   8.587  32.022   1.794
55158W        W20418  37.748  25.231   0.168
55159W        W20419  13.191   6.408   0.483
55160W        W20420  35.512   9.592  13.006
55161W        W20421  13.054  37.500   4.110
55162W        W20422   9.833  16.976  12.910
55163W        W20423  32.948  15.526  11.946
55164W        W20424  20.455  17.491   4.978
55165W        W20425  36.804  17.818  14.886
55166W        W20426   5.756  28.463   2.200
55167W        W20427   5.888  18.340   4.476
55168W        W20428  14.333  18.657   0.412
55169W        W20429  13.684  15.089   0.047
55170W        W20430  14.693  26.536  14.823
55171W        W20431  30.724   5.758   2.132
55172W        W20432  44.878  27.473   0.225
55173W        W20433  32.243  13.619   0.408
55174W        W20434  31.143  13.110  11.019
55175W        W20435   8.689  22.563   4.077
55176W        W20436  40.395  33.960   3.390
55177W        W20437   5.255  24.209  12.440
55178W        W20438  40.398  27.665   1.323
55179W        W20439  35.721  10.931   2.628
55180W        W20440   3.235  20.250  10.652
55181W        W20441  25.211  43.338  11.572
55182W        W20442  25.667   2.693   2.793
55183W        W20443  19.532  44.380   5.047
55184W        W20444  14.197  39.104   0.075
55185W        W20445  10.630  13.721   1.237
55186W        W20446   3.240  18.193   0.956
55187W        W20447   2.899   7.861  10.640
55188W        W20448  21.938  22.170  11.160
55189W        W20449   1.034  21.958   0.128
55190W        W20450  25.157  18.266  10.865
55191W        W20451  39.852   7.638   4.711
55192W        W20452  15.812  16.954   4.088
55193W        W20453  44.723  26.101   1.096
55194W        W20454  18.665  12.961   2.849
55195W        W20455  34.336   1.316   0.326
55196W        W20456  36.424   5.734  13.556
55197W        W20457  12.375  28.976  14.907
55198W        W20458  33.532   6.396  14.716
55199W        W20459  11.740  37.868  11.682
55200W        W20460  19.560  14.272   2.232
55201W        W20461  37.844  31.424   0.894
55202W        W20462  42.304  31.863   0.348
55203W        W20463  12.883  21.176  12.147
55204W        W20464   3.620  19.007   0.889
55205W        W20465  27.661  26.857   4.121
55206W        W20466   5.762  37.596  11.109
55207W        W20467  41.746   5.851   3.123
55208W        W20468  16.862  23.516   2.333
55209W        W20469  18.656   1.355   4.409
55210W        W20470   5.227  28.187   1.284
55211W        W20471  35.247  32.814  14.116
55212W        W20472  38.753   1.369   2.737
55213W        W20473  15.779   0.267  13.873
55214W        W20474  29.486   9.413  14.012
55215W        W20475  34.922   0.286   1.742
55216W        W20476   6.471  11.465   1.703
55217W        W20477   1.283  44.919   3.137
55218W        W20478  25.445  15.404  14.001
55219W        W20479   2.255  39.907  13.622
55220W        W20480  40.639  15.813  13.000
55221W        W20481  19.924  30.933   2.708
55222W        W20482  30.717  29.189   1.292
55223W        W20483   1.189  18.320  12.103
55224W        W20484  18.882   4.882  14.994
55225W        W20485   6.304  16.244   1.397
55226W        W20486  34.583  24.664  14.884
55227W        W20487  43.509   5.815  14.769
55228W        W20488   1.547  44.330   0.821
55229W        W20489  10.485  27.212   1.911
55230W        W20490  31.110   0.839   2.713
55231W        W20491  43.456   3.658  11.592
55232W        W20492  29.456   8.311  11.103
55233W        W20493  34.696  29.198   1.323
55234W        W20494  39.546  36.594   3.854
55235W        W20495  32.008  33.569   0.961
55236W        W20496  22.262   6.090  10.303
55237W        W20497   7.904  18.245   2.021
55238W        W20498  37.625   0.121  12.083
55239W        W20499  37.480  19.202  13.604
55240W        W20500  10.224  37.006   2.806
55241W        W20501  14.446  14.155  12.118
55242W        W20502  33.611  34.384  12.633
55243W        W20503  22.175  23.459   0.769
55244W        W20504  17.169  41.285   4.110
55245W        W20505  20.498   1.876  14.958
55246W        W20506  25.777  22.668   3.209
55247W        W20507  10.403  20.226  14.374
55248W        W20508   4.840  32.214   4.438
55249W        W20509   1.975  31.761  10.780
55250W        W20510  16.762   1.938  14.758
55251W        W20511  25.009   3.724  14.809
55252W        W20512   8.469   2.119  11.771
55253W        W20513   5.406  26.212   0.365
55254W        W20514  13.052  43.384  11.094
55255W        W20515  42.935  36.823  10.690
55256W        W20516   9.315   4.729   1.250
55257W        W20517  41.500   0.303   2.694
55258W        W20518  10.357  39.582   0.426
55259W        W20519   2.698  41.288  12.817
55260W        W20520  39.439   6.121   4.757
55261W        W20521  29.017  12.809  10.969
55262W        W20522  20.319  18.119  11.219
55263W        W20523   3.881  25.719  13.284
55264W        W20524  25.260  41.337   1.742
55265W        W20525  22.983  31.822   2.828
55266W        W20526  37.559  30.436  14.739
55267W        W20527   7.212  44.698   0.361
55268W        W20528  14.698  11.599   1.561
55269W        W20529  24.466  44.346   2.254
55270W        W20530  29.439  15.516   4.191
55271W        W20531  18.524  22.815   3.776
55272W        W20532  24.014  27.651   3.284
55273W        W20533  27.060  42.880   2.847
55274W        W20534   4.440  43.508   2.694
55275W        W20535  43.671  15.346   1.657
55276W        W20536  27.643   2.953  12.226
55277W        W20537   3.832   1.674  14.389
55278W        W20538  22.123  13.153  10.931
55279W        W20539  33.033  44.902   1.541
55280W        W20540   2.727  10.258   4.512
55281W        W20541  16.788  16.310  13.587
55282W        W20542  29.673  38.880  14.071
55283W        W20543  39.707   8.832  12.535
55284W        W20544  41.175  10.089  11.456
55285W        W20545  24.165   1.090   0.232
55286W        W20546  14.220  13.958   1.734
55287W        W20547   3.988  19.537  10.038
55288W        W20548  19.890   7.229  11.572
55289W        W20549  35.304  41.399   1.668
55290W        W20550  35.134  16.258  14.747
55291W        W20551  19.929   4.226   3.788
55292W        W20552  32.244  37.004   0.449
55293W        W20553  27.233  29.690   1.009
55294W        W20554  23.178  14.040   3.112
55295W        W20555   2.881  35.407  14.226
55296W        W20556  31.527  17.635   4.215
55297W        W20557   7.244   3.487  14.104
55298W        W20558  33.978  37.381   5.421
55299W        W20559  15.745  38.291  14.287
55300W        W20560   0.832  33.791  11.156
55301W        W20561  17.741   3.215  10.986
55302W        W20562  38.435  11.053  13.330
55303W        W20563  15.105  19.215  11.847
55304W        W20564   6.010  30.198  13.016
55305W        W20565  17.186  24.102  14.991
55306W        W20566  12.846  21.649   0.582
55307W        W20567  12.733  22.791  10.792
55308W        W20568   1.881  23.227   2.862
55309W        W20569   7.204  33.645  14.936
55310W        W20570  18.823   8.912   2.155
55311W        W20571  40.852  42.908   0.879
55312W        W20572  35.452  23.574   0.260
55313W        W20573   1.866  44.253   1.887
55314W        W20574   4.811  32.804   5.089
55315W        W20575  18.728  25.505  12.640
55316W        W20576   0.999  16.254  10.662
55317W        W20577  28.706   0.381  10.773
55318W        W20578  28.941  23.024  13.263
55319W        W20579  23.563  35.074  11.349
55320W        W20580  30.496  28.595   0.635
55321W        W20581  19.848  18.690  14.289
55322W        W20582  12.740  10.120   2.316
55323W        W20583  16.696  13.448  12.372
55324W        W20584   2.429  17.690  14.537
55325W        W20585  32.788  40.878   1.418
55326W        W20586  23.704  34.083  14.919
55327W        W20587  44.937  15.840   3.788
55328W        W20588  33.973   1.547  11.065
55329W        W20589  22.041  13.064  11.414
55330W        W20590  29.934   4.977  14.872
55331W        W20591  19.679  29.682   3.799
55332W        W20592  36.497  29.425  11.595
55333W        W20593   7.484  19.242   0.863
55334W        W20594  12.380  31.342  12.416
55335W        W20595  32.948  36.870  11.162
55336W        W20596  27.546   5.708   2.705
55337W        W20597  23.390   0.274   2.298
55338W        W20598  36.486  24.429  10.998
55339W        W20599  23.027  38.058  12.666
55340W        W20600  21.476   6.436   0.356
55341W        W20601   7.860  16.914  11.975
55342W        W20602  13.856   7.501  14.532
55343W        W20603  31.378  39.685   4.228
55344W        W20604  34.376  22.289   3.346
55345W        W20605  22.681  34.840  10.515
55346W        W20606  15.177  36.420   3.752
55347W        W20607  41.854   9.713  14.903
55348W        W20608  27.018   0.978   0.131
55349W        W20609  19.834  20.942   2.024
55350W        W20610  17.532  36.955  11.187
55351W        W20611  22.228  12.838  13.609
55352W        W20612  19.709  31.840   0.654
55353W        W20613   5.329  32.628  14.302
55354W        W20614  18.576  14.357   5.107
55355W        W20615  19.785  31.634  12.949
55356W        W20616  43.431  43.620  10.677
55357W        W20617  30.694  42.269  11.143
55358W        W20618  35.349   0.768  13.580
55359W        W20619  44.562  32.162  11.160
55360W        W20620  40.511  22.624  11.227
55361W        W20621  17.292  25.113   1.929
55362W        W20622  25.918  37.497   0.019
55363W        W20623  13.416   1.984  12.052
55364W        W20624  43.479  25.117   4.101
55365W        W20625   6.419   0.239  10.019
55366W        W20626  40.872  17.095   3.868
55367W        W20627  11.596   2.201   2.875
55368W        W20628  11.843  35.861   0.603
55369W        W20629   4.115  24.155  14.827
55370W        W20630  43.992   6.270  11.115
55371W        W20631  36.445  32.806  10.783
55372W        W20632   9.696   4.512   4.847
55373W        W20633   9.666  20.463  12.847
55374W        W20634  29.873  34.573  11.131
55375W        W20635   8.616  16.675   2.553
55376W        W20636  31.900   4.054   2.655
55377W        W20637  13.370  32.198  11.459
55378W        W20638  14.826  26.711   0.285
55379W        W20639  21.780  20.408   2.045
55380W        W20640  33.618  39.375   2.885
55381W        W20641  26.973  17.190  12.803
55382W        W20642  34.132  36.772   4.664
55383W        W20643   8.404  38.004   3.175
55384W        W20644  19.400  25.019   2.254
55385W        W20645  27.678  26.562  14.292
55386W        W20646   9.403  12.426  10.797
55387W        W20647  23.594  12.659   1.697
55388W        W20648   1.309   7.662  11.145
55389W        W20649  43.569  39.325  13.544
55390W        W20650  17.743  20.898   1.710
55391W        W20651   6.235  35.209  11.072
55392W        W20652  38.842  42.234   1.375
55393W        W20653   4.418  27.016   3.675
55394W        W20654  31.892  29.884  13.377
55395W        W20655  44.967  21.857  12.643
55396W        W20656  19.307  11.730   4.204
55397W        W20657  25.967   8.924  13.919
55398W        W20658  38.617   8.490  14.975
55399W        W20659  23.699  19.085   1.182
55400W        W20660   9.596   9.581  12.999
55401W        W20661   7.321  10.512   4.838
55402W        W20662  24.974   0.419   3.997
55403W        W20663   1.866   9.113   1.380
55404W        W20664  31.889  31.176   4.029
55405W        W20665  29.447  27.593  14.085
55406W        W20666  41.535  25.592   2.829
55407W        W20667   6.327   8.082   4.030
55408W        W20668  23.214  22.971  14.807
55409W        W20669  24.981  15.291  13.416
55410W        W20670   1.303   0.512  11.651
55411W        W20671  20.770  18.856  11.392
55412W        W20672   4.993  38.938   2.657
55413W        W20673  33.678  37.514  11.391
55414W        W20674  30.956  11.944   4.193
55415W        W20675  22.795  12.821   3.556
55416W        W20676  19.146  30.621   3.815
55417W        W20677  35.134  21.031   1.007
55418W        W20678  26.503  44.776  13.812
55419W        W20679  37.644  42.580   0.491
55420W        W20680  41.981   5.284  12.813
55421W        W20681  14.622  29.372  11.044
55422W        W20682  35.732  31.126   2.838
55423W        W20683  40.295   2.826  13.551
55424W        W20684  14.701  34.455  13.987
55425W        W20685  15.776  28.847   1.790
55426W        W20686  10.803  17.810  11.591
55427W        W20687  10.509   8.378  10.568
55428W        W20688  29.786  33.838   4.247
55429W        W20689  43.369   2.710   3.751
55430W        W20690   9.771  30.396  14.961
55431W        W20691   9.339  16.829  12.959
55432W        W20692  27.925  34.105   2.184
55433W        W20693  36.176  33.737  13.897
55434W        W20694  25.819  19.153   1.860
55435W        W20695  13.741  23.254   3.674
55436W        W20696  38.953  10.662  12.013
55437W        W20697   9.883  30.979   9.902
55438W        W20698  29.865  38.023   2.881
55439W        W20699  40.238  22.019   4.754
55440W        W20700  19.391  10.171  11.761
55441W        W20701  40.788  28.361  14.269
55442W        W20702  34.456   3.347   3.859
55443W        W20703  37.014  17.187   2.675
55444W        W20704  13.405  18.579   0.422
55445W        W20705   0.845  12.310   2.356
55446W        W20706   3.492   2.737   2.072
55447W        W20707  30.140  26.480  12.126
55448W        W20708  25.614  16.888   2.362
55449W        W20709  26.914  19.411   1.478
55450W        W20710  20.663  28.939  14.579
55451W        W20711  10.841  30.943  11.918
55452W        W20712  35.076  29.432   2.643
55453W        W20713  38.111  27.411   4.218
55454W        W20714  20.606  16.170  14.530
55455W        W20715  40.004   1.864  10.695
55456W        W20716  40.337  27.590  12.392
55457W        W20717   1.873  17.312   2.093
55458W        W20718  14.899   6.422  14.997
55459W        W20719  11.856  38.900   1.394
55460W        W20720  30.171  14.553   2.762
55461W        W20721  42.903  31.870  13.403
55462W        W20722  43.562   7.925  10.792
55463W        W20723  11.823  17.218  13.392
55464W        W20724  17.719  30.155   1.256
55465W        W20725  18.303  14.242   2.883
55466W        W20726   1.339   3.347  12.012
55467W        W20727  25.481  28.414  13.895
55468W        W20728   8.150  34.564   2.739
55469W        W20729  31.808  29.239  14.395
55470W        W20730   6.377  20.492   1.136
55471W        W20731  35.901  24.890   9.784
55472W        W20732  26.493  22.198  13.961
55473W        W20733   3.223  20.526  12.446
55474W        W20734  11.593   1.925   4.653
55475W        W20735  22.649  42.052   3.551
55476W        W20736  35.418   4.004   3.207
55477W        W20737  33.882   8.770  14.863
55478W        W20738  36.516   0.768  12.891
55479W        W20739  41.972  37.149   2.133
55480W        W20740   6.805  14.645   1.909
55481W        W20741  32.380   7.908  12.294
55482W        W20742  16.510   9.692  10.447
55483W        W20743  31.660  22.573   2.772
55484W        W20744  22.628  13.589  14.977
55485W        W20745  15.389  21.982  14.327
55486W        W20746  42.287  26.411  12.069
55487W        W20747  38.496  32.628  12.323
55488W        W20748  25.204  42.067  13.833
55489W        W20749  17.181   9.960   0.032
55490W        W20750  39.978  17.178   4.948
55491W        W20751  19.161  12.171   2.601
55492W        W20752  37.065  30.436   4.025
55493W        W20753  31.769  18.788  11.585
55494W        W20754   9.824  13.303   0.612
55495W        W20755  37.474  30.534  13.227
55496W        W20756   0.053  34.075  12.546
55497W        W20757  15.600   6.476  12.166
55498W        W20758  33.294  21.714  13.442
55499W        W20759  23.202  42.639   4.794
55500W        W20760  18.054  39.383  11.235
55501W        W20761  44.362   1.491  10.874
55502W        W20762  44.187  22.131   4.551
55503W        W20763   5.338  18.481   3.530
55504W        W20764  11.417  16.296   2.344
55505W        W20765  27.022  23.437  12.186
55506W        W20766  11.367  15.288  11.057
55507W        W20767  26.759  19.624   3.388
55508W        W20768  24.060  39.399   0.213
55509W        W20769  29.024  35.606   1.914
55510W        W20770  30.077  25.617  11.791
55511W        W20771  14.732   3.276  10.647
55512W        W20772  24.736  20.605   4.579
55513W        W20773  23.205   4.256  13.816
55514W        W20774   3.504  25.701   1.727
55515W        W20775  33.661  39.850   3.163
55516W        W20776  21.339  10.832  12.362
55517W        W20777  20.781   9.923  12.685
55518W        W20778   0.926  21.720  11.173
55519W        W20779  32.858  43.402   0.690
55520W        W20780  41.803  42.021   4.725
55521W        W20781  16.291  22.034  14.625
55522W        W20782  44.966   7.130  12.482
55523W        W20783  11.915  15.291   0.248
55524W        W20784   7.330  18.534  14.192
55525W        W20785  40.314  16.162  10.629
55526W        W20786  20.221  26.682  12.239
55527W        W20787  18.568   9.631  13.895
55528W        W20788  33.794   4.488  10.961
55529W        W20789  44.683   1.872  13.858
55530W        W20790  40.648  26.490  12.375
55531W        W20791   2.855   1.371  12.795
55532W        W20792  32.045  29.068   1.347
55533W        W20793   4.956  18.722   3.192
55534W        W20794  10.537  29.028   0.444
55535W        W20795  39.937   4.412   2.802
55536W        W20796  36.108  44.161   4.517
55537W        W20797  32.436   6.885  13.397
55538W        W20798  12.970   7.182  12.078
55539W        W20799  26.969   6.168   4.495
55540W        W20800  16.431  42.986  12.073
55541W        W20801  12.107  11.633   1.720
55542W        W20802  12.590  21.040   3.070
55543W        W20803  25.999  26.331  10.744
55544W        W20804  16.821  25.889   0.311
55545W        W20805   9.736   1.298   1.762
55546W        W20806  16.458   2.491   4.176
55547W        W20807   0.978  34.812  13.575
55548W        W20808  23.321  23.242   0.256
55549W        W20809   6.349  43.312  11.103
55550W        W20810  33.547  44.370   2.266
55551W        W20811  38.820   2.036   0.064
55552W        W20812  28.040  16.187   2.091
55553W        W20813  36.693  14.784  13.451
55554W        W20814  30.243  25.367   0.454
55555W        W20815  19.174   3.756  11.632
55556W        W20816  10.654   7.484   0.396
55557W        W20817   2.949   5.212   3.903
55558W        W20818  32.251  20.344   2.330
55559W        W20819   6.895   1.390  10.400
55560W        W20820  37.309  27.051  13.577
55561W        W20821  38.297  33.039   3.624
55562W        W20822  16.564  44.290   4.063
55563W        W20823  43.779  22.891   3.682
55564W        W20824  35.130   2.738  14.839
55565W        W20825  40.836  15.015  12.834
55566W        W20826   7.825  41.329   1.211
55567W        W20827  25.046  10.218   4.476
55568W        W20828  32.978  13.655   1.172
55569W        W20829  23.559  16.596  12.303
55570W        W20830   5.682   4.680  11.616
55571W        W20831   5.809  13.699   4.655
55572W        W20832  25.263   2.256  12.228
55573W        W20833   0.625  41.818   2.156
55574W        W20834  34.656  39.915   0.681
55575W        W20835  27.215   2.264   4.419
55576W        W20836  40.329   3.986  12.457
55577W        W20837  18.450   5.427  11.061
55578W        W20838  34.293  37.013  12.439
55579W        W20839  30.800  27.902   1.405
55580W        W20840  17.319  23.620   3.649
55581W        W20841  17.962   8.247  12.886
55582W        W20842   7.738   4.014   2.812
55583W        W20843   2.646  20.786  14.373
55584W        W20844  40.303   4.449  14.757
55585W        W20845  13.359  30.435   0.339
55586W        W20846  23.871   2.468   1.865
55587W        W20847   8.948  38.578   1.654
55588W        W20848  36.034  24.958  12.445
55589W        W20849  23.332  22.740   4.202
55590W        W20850  40.475  23.148   2.748
55591W        W20851  30.728   1.165   1.177
55592W        W20852  17.867  31.537   0.080
55593W        W20853   8.153  27.471   2.798
55594W        W20854  27.969  25.677   2.290
55595W        W20855  29.711  17.680   4.221
55596W        W20856  13.429  32.621   3.271
55597W        W20857  28.991  19.304  10.743
55598W        W20858   4.258  36.862   4.181
55599W        W20859  27.699  39.692  10.655
55600W        W20860  30.167  18.666   4.620
55601W        W20861  34.872  15.083  11.580
55602W        W20862  15.657  33.633   1.753
55603W        W20863  11.767  15.948  11.930
55604W        W20864  12.099  44.925  12.261
55605W        W20865  26.944   6.289  14.296
55606W        W20866  18.293  38.489   0.935
55607W        W20867  40.841  21.156   1.746
55608W        W20868  32.531   7.695   1.008
55609W        W20869  40.271  37.921   5.074
55610W        W20870  13.539  11.729  11.137
55611W        W20871  34.022  17.653   2.581
55612W        W20872  24.724  12.269  13.839
55613W        W20873  10.445  37.362  12.836
55614W        W20874  30.059  44.841   0.524
55615W        W20875   6.418  17.190   2.324
55616W        W20876   9.349  31.618   4.560
55617W        W20877   1.430  27.484   2.782
55618W        W20878  25.134  35.112   3.380
55619W        W20879   5.642  19.940   0.244
55620W        W20880  22.227  21.985  11.537
55621W        W20881  44.307  30.678  11.570
55622W        W20882  34.122  43.942   3.155
55623W        W20883  32.483  11.297   3.374
55624W        W20884  33.138   4.369  13.952
55625W        W20885  40.067  22.224   3.392
55626W        W20886  43.219  10.341   0.346
55627W        W20887  36.089   8.100   2.586
55628W        W20888  11.878  31.196   0.993
55629W        W20889   0.980  22.157   2.162
55630W        W20890  33.969  37.202  11.668
55631W        W20891  23.454  24.686  13.391
55632W        W20892  38.025  38.430   0.816
55633W        W20893   9.273  37.184   0.204
55634W        W20894  24.286  25.988  13.363
55635W        W20895  29.104   6.905   0.334
55636W        W20896  34.300  31.585  12.922
55637W        W20897  40.734  19.134  14.337
55638W        W20898  12.837  22.107  10.738
55639W        W20899  21.543  18.589   0.434
55640W        W20900  20.770  27.059   4.218
55641W        W20901  37.465   1.944   2.276
55642W        W20902   1.174  26.545  13.476
55643W        W20903   3.989   4.387   3.682
55644W        W20904   9.446  35.825   0.309
55645W        W20905   8.139  38.552   4.481
55646W        W20906  38.434   8.374   0.548
55647W        W20907  21.584  44.881  13.621
55648W        W20908  43.353  18.221   0.423
55649W        W20909  23.715   9.669   3.948
55650W        W20910  25.023  12.708  13.572
55651W        W20911  38.881  39.781  12.879
55652W        W20912  16.797   1.139   0.187
55653W        W20913  26.201   1.180   0.035
55654W        W20914  11.281  37.787  13.387
55655W        W20915  39.754  15.022   0.657
55656W        W20916   4.175   6.144   1.169
55657W        W20917  43.834  43.484   3.131
55658W        W20918  15.691   6.921   3.864
55659W        W20919   6.496  29.650  11.044
55660W        W20920  16.354  31.030   1.836
55661W        W20921   9.358  40.572   4.097
55662W        W20922  28.559  37.908   4.472
55663W        W20923  39.769  25.112  11.644
55664W        W20924  12.074  13.678  10.290
55665W        W20925  18.569  24.988   0.343
55666W        W20926  27.978  25.352  13.330
55667W        W20927  10.447  19.223   0.428
55668W        W20928  12.665  23.560   4.021
55669W        W20929  10.982  18.195   1.182
55670W        W20930  38.470  16.920   1.296
55671W        W20931   1.475   1.746   3.553
55672W        W20932   6.405  33.200  14.514
55673W        W20933  40.013   1.970   0.143
55674W        W20934  24.705  17.793   2.948
55675W        W20935   3.536  30.471   2.586
55676W        W20936   9.727  31.003  11.527
55677W        W20937  26.393  17.110  13.635
55678W        W20938  18.880  13.304  14.292
55679W        W20939   5.886  26.222  13.062
55680W        W20940  19.148  28.031  12.450
55681W        W20941  41.183   3.823   3.761
55682W        W20942  32.446  16.709  14.750
55683W        W20943  23.079  20.115  11.132
55684W        W20944  39.881  23.965   0.342
55685W        W20945  42.986  13.698  13.396
55686W        W20946  23.022  37.598  11.655
55687W        W20947  42.024  44.975   4.668
55688W        W20948  34.842  28.170  12.941
55689W        W20949  34.892  39.413   0.354
55690W        W20950  33.665  11.930   2.290
55691W        W20951  21.703  25.683   2.336
55692W        W20952  27.749  24.061   4.110
55693W        W20953  33.933  38.799  10.765
55694W        W20954  29.989  20.394   0.447
55695W        W20955   2.780  43.000   0.846
55696W        W20956  35.582  24.226   4.267
55697W        W20957  19.664  28.189   1.734
55698W        W20958   3.474  41.765   4.995
55699W        W20959  20.824  41.847   0.585
55700W        W20960  44.639  16.758   4.956
55701W        W20961  42.465  14.769   2.909
55702W        W20962   0.331  11.546   1.347
55703W        W20963   2.917  39.386   3.097
55704W        W20964   6.422  33.713  14.507
55705W        W20965  10.460   7.134  12.977
55706W        W20966  10.716  35.568  13.479
55707W        W20967  21.186  33.638   4.125
55708W        W20968   8.773  31.842  13.983
55709W        W20969  23.658   5.024   4.033
55710W        W20970  36.542  43.892   0.442
55711W        W20971  40.955  14.219   0.509
55712W        W20972  18.583  33.987   2.314
55713W        W20973  40.942  11.742   0.036
55714W        W20974   9.952  41.580  11.943
55715W        W20975  41.764  43.558   3.108
55716W        W20976  29.623  23.758  12.515
55717W        W20977  33.126  20.757   2.495
55718W        W20978  41.787  29.599   2.308
55719W        W20979  13.319  29.843  14.776
55720W        W20980  23.403  30.887   4.135
55721W        W20981   6.218  43.684  12.308
55722W        W20982  27.008   9.168  11.181
55723W        W20983  37.989  11.505   0.381
55724W        W20984  23.080  21.331  14.746
55725W        W20985   5.667  30.414   4.035
55726W        W20986   4.358  28.013   4.028
55727W        W20987  40.295  34.984   1.899
55728W        W20988  37.989  25.589  13.466
55729W        W20989  37.893  36.376   1.831
55730W        W20990   5.892   9.979  13.500
55731W        W20991  39.376   6.654  14.718
55732W        W20992  14.149  19.607  10.583
55733W        W20993   5.940   6.359  11.165
55734W        W20994  24.744  41.934  13.253
55735W        W20995  13.731  27.906   3.306
55736W        W20996  40.364  11.819   4.831
55737W        W20997  20.675   5.005  12.612
55738W        W20998  17.589  39.024  13.721
55739W        W20999  42.310  19.771   0.756
55740W        W21000   7.740  23.531   1.523
55741W        W21001   4.868  29.891   2.184
55742W        W21002  14.936  14.208  11.959
55743W        W21003  27.449  24.021   4.521
55744W        W21004  27.262  37.740  11.138
55745W        W21005  36.497  39.953  14.450
55746W        W21006  10.591  18.134  11.961
55747W        W21007  17.789   9.932   3.873
55748W        W21008  19.442  23.163   4.949
55749W        W21009  17.522  35.092   0.422
55750W        W21010  36.784  36.464   4.227
55751W        W21011  33.454  35.889   0.542
55752W        W21012  23.215  36.468   2.336
55753W        W21013  19.842  17.512   1.842
55754W        W21014  10.793  12.295  14.901
55755W        W21015   6.429  23.220   0.389
55756W        W21016   6.859  37.253  12.979
55757W        W21017  13.250  33.366  10.702
55758W        W21018  30.842   4.303   0.038
55759W        W21019  14.500  41.922  14.127
55760W        W21020   5.346   5.770  12.852
55761W        W21021  21.234  17.752  14.742
55762W        W21022  44.380  24.675   0.464
55763W        W21023  17.987  39.519  14.951
55764W        W21024  44.609  12.848  14.821
55765W        W21025  24.788  20.049   3.165
55766W        W21026   3.077  36.070   0.268
55767W        W21027  33.119  10.271  11.182
55768W        W21028  31.747  36.825   0.473
55769W        W21029  34.407   4.163  12.129
55770W        W21030   5.177  38.580  14.447
55771W        W21031   0.602  36.462  11.504
55772W        W21032  39.032  31.202  11.588
55773W        W21033   6.542  40.800   5.059
55774W        W21034   4.960   6.427  13.381
55775W        W21035  40.925  17.027   2.635
55776W        W21036  37.170   3.672   4.055
55777W        W21037  43.538  16.980   1.214
55778W        W21038   8.276  11.961   0.765
55779W        W21039  13.704   3.933  11.109
55780W        W21040   5.848  11.355   0.458
55781W        W21041  33.587  36.479   1.202
55782W        W21042   1.731  22.792  13.705
55783W        W21043  22.485  11.434  12.283
55784W        W21044  27.966  36.029  13.340
55785W        W21045   7.718   5.233   3.692
55786W        W21046   5.706  14.625   0.368
55787W        W21047   7.664  18.977  13.069
55788W        W21048  15.098  32.750   2.780
55789W        W21049   5.168  33.644   1.201
55790W        W21050  44.023   5.786   4.237
55791W        W21051  12.487  44.292  10.745
55792W        W21052  40.088  12.179   3.641
55793W        W21053  37.786  13.832  13.136
55794W        W21054  21.233  11.006  12.846
55795W        W21055   4.369  36.782  12.957
55796W        W21056  23.072  21.119  10.994
55797W        W21057  13.399  37.881  12.951
55798W        W21058  33.859  37.983   1.288
55799W        W21059  26.189  11.910   0.926
55800W        W21060  14.672  16.156  10.743
55801W        W21061   1.246  28.728  11.473
55802W        W21062   8.175  12.555  10.272
55803W        W21063  30.509  12.325  13.024
55804W        W21064  19.631  24.187  11.558
55805W        W21065  37.057  41.847   2.818
55806W        W21066   4.756  23.888  13.896
55807W        W21067  36.383  14.075   0.252
55808W        W21068  36.490   7.180  11.032
55809W        W21069  22.637   9.634  10.832
55810W        W21070  17.468  35.915  14.873
55811W        W21071  29.000  27.554   1.270
55812W        W21072  38.560  22.881  12.582
55813W        W21073   1.299  19.811  11.211
55814W        W21074  40.492  23.142  12.443
55815W        W21075  17.596  19.634  13.616
55816W        W21076   3.088  14.188  11.827
55817W        W21077  33.196  26.528  13.464
55818W        W21078  16.694  32.242   0.722
55819W        W21079  12.099   1.902   3.505
55820W        W21080   1.012  11.821   3.490
55821W        W21081  30.533  10.017  11.479
55822W        W21082   3.594  10.826   2.693
55823W        W21083  23.270   5.483   2.793
55824W        W21084  42.256  44.389   0.377
55825W        W21085  32.630  14.116  12.533
55826W        W21086   5.285  28.205   4.108
55827W        W21087  25.020  31.619  11.941
55828W        W21088  15.414  19.078  14.974
55829W        W21089  30.834  36.989   1.750
55830W        W21090  30.106   4.929  13.032
55831W        W21091  39.385   9.418  14.972
55832W        W21092  31.779  35.553   4.028
55833W        W21093  25.519   8.134   2.361
55834W        W21094  31.492  18.150   0.843
55835W        W21095   6.961  11.907   0.279
55836W        W21096   6.695  23.678   4.441
55837W        W21097   4.060   4.233   4.189
55838W        W21098   5.407   1.634   2.768
55839W        W21099   2.993  21.742   4.180
55840W        W21100  10.205  40.403   3.682
55841W        W21101  38.616  36.625   3.659
55842W        W21102  37.272   1.295  12.467
55843W        W21103  40.842   3.659   1.390
55844W        W21104  14.852  28.524   0.400
55845W        W21105  43.238  40.816   1.625
55846W        W21106  34.939  13.784   2.275
55847W        W21107  15.903  44.513   0.471
55848W        W21108  25.519   0.815  12.042
55849W        W21109  33.398  16.161   1.504
55850W        W21110  14.926   4.654   4.263
55851W        W21111   5.168  15.266  12.530
55852W        W21112  22.169  22.070   4.580
55853W        W21113  40.318  31.556  13.998
55854W        W21114  30.380  36.790   4.204
55855W        W21115  35.522  27.903   3.588
55856W        W21116  29.270  10.918   4.178
55857W        W21117   7.077  27.785   0.265
55858W        W21118  44.758   4.745   4.722
55859W        W21119  39.671  39.340   1.654
55860W        W21120  40.810   5.442  14.760
55861W        W21121  38.110   7.129   4.997
55862W        W21122  42.431  16.742   0.205
55863W        W21123  31.272  25.424   3.237
55864W        W21124  10.259  30.968  11.466
55865W        W21125  13.241  15.418  13.877
55866W        W21126  34.540   9.254   4.548
55867W        W21127  19.767   4.920   1.184
55868W        W21128  24.165   1.520  14.715
55869W        W21129  26.730  32.718   4.099
55870W        W21130  43.785  41.895  12.605
55871W        W21131  35.493  40.277   2.134
55872W        W21132  14.051  34.743  12.459
55873W        W21133   6.157   2.090  12.942
55874W        W21134  27.118   4.403  13.271
55875W        W21135  13.837  27.235  14.501
55876W        W21136  27.244   2.816   1.346
55877W        W21137  25.182  36.629   0.755
55878W        W21138  11.713  16.164   4.926
55879W        W21139  10.687  33.959  13.353
55880W        W21140  28.202  39.445   3.222
55881W        W21141  18.144  16.770   1.522
55882W        W21142  11.961  23.566  11.634
55883W        W21143  16.638   8.432  13.102
55884W        W21144   4.485   5.859   2.727
55885W        W21145  44.168  12.497  14.854
55886W        W21146  20.701  37.755   3.152
55887W        W21147   1.241   5.430  12.555
55888W        W21148   7.229   6.398  11.951
55889W        W21149  30.897  34.434   2.375
55890W        W21150   3.694  31.572   3.094
55891W        W21151   6.865  22.615  11.638
55892W        W21152  35.331  13.857   3.057
55893W        W21153  32.818  37.875  12.373
55894W        W21154  15.834  10.730   1.282
55895W        W21155  11.034  16.694  11.022
55896W        W21156  33.645  16.843  11.103
55897W        W21157  22.213  30.146   2.817
55898W        W21158  32.125  33.530  14.928
55899W        W21159   4.257  41.429  11.784
55900W        W21160  21.369  42.006  14.927
55901W        W21161   1.350  24.535  10.561
55902W        W21162  28.588  18.003   2.349
55903W        W21163  18.860  31.792  13.275
55904W        W21164  36.413  38.334   0.883
55905W        W21165   4.938  38.278   3.172
55906W        W21166  10.803  10.215  10.729
55907W        W21167  23.213   7.575   4.134
55908W        W21168   0.318  28.544  11.684
55909W        W21169  44.345  18.637  14.871
55910W        W21170  40.037  40.890   1.957
55911W        W21171   5.652  24.284  14.598
55912W        W21172  27.952  35.869   0.992
55913W        W21173  18.224  40.060  11.581
55914W        W21174  33.855  24.123  12.640
55915W        W21175  43.529  43.131   2.901
55916W        W21176  36.893  11.255   0.993
55917W        W21177  24.150  15.233   3.309
55918W        W21178   2.800  33.109  10.828
55919W        W21179   3.956  19.149   1.317
55920W        W21180   4.277  29.960  13.124
55921W        W21181  15.279   6.399   4.524
55922W        W21182  23.012  22.271  12.076
55923W        W21183  39.846   6.270  13.262
55924W        W21184  31.625  32.766  14.825
55925W        W21185   2.177  30.016  10.690
55926W        W21186  35.963   3.679  14.736
55927W        W21187  10.774  29.677  14.318
55928W        W21188   9.305  27.931   2.683
55929W        W21189  17.639  28.840   1.753
55930W        W21190  14.011  38.576  13.065
55931W        W21191   7.432   6.959   0.011
55932W        W21192  37.537  41.411   4.149
55933W        W21193   0.446   5.589   4.292
55934W        W21194  34.862   6.008  14.411
55935W        W21195  44.981  21.075  14.505
55936W        W21196   9.157  40.945   0.766
55937W        W21197  20.681  18.533  14.431
55938W        W21198  23.235  34.604  13.572
55939W        W21199  28.653   4.165   0.426
55940W        W21200  30.651  33.564  13.793
55941W        W21201  27.929  12.881   4.516
55942W        W21202   4.044  25.914   0.532
55943W        W21203  30.680  24.087  10.945
55944W        W21204  35.525   4.266   0.234
55945W        W21205  14.090   5.150  14.382
55946W        W21206  14.239  27.245   2.703
55947W        W21207  18.603   9.372   4.166
55948W        W21208  32.584  10.809   4.165
55949W        W21209  33.430  26.203  11.963
55950W        W21210  33.492  15.124   3.293
55951W        W21211  16.757  26.483  12.031
55952W        W21212  27.941  11.618   0.468
55953W        W21213   9.163  40.785  11.684
55954W        W21214  42.102  33.511   1.616
55955W        W21215   2.337  21.653  13.946
55956W        W21216  27.974  29.559  11.287
55957W        W21217   0.581   9.702   2.240
55958W        W21218  43.147  28.283   2.270
55959W        W21219  23.531   0.772   2.357
55960W        W21220  14.049  11.106   0.604
55961W        W21221  31.378  37.851  12.625
55962W        W21222  14.144  34.937   0.581
55963W        W21223  27.235  20.723  11.393
55964W        W21224  42.197  36.585  11.968
55965W        W21225  34.718  32.068   1.376
55966W        W21226  19.002  20.577   2.280
55967W        W21227  30.462  28.683   1.147
55968W        W21228   2.267  22.743   3.791
55969W        W21229  44.047  30.134  14.325
55970W        W21230  34.769  33.861   3.755
55971W        W21231   1.957  15.719  13.068
55972W        W21232  11.562   4.897  11.302
55973W        W21233  29.451  13.381   3.437
55974W        W21234   5.168  23.579   0.294
55975W        W21235  41.555   5.942   1.770
55976W        W21236  35.477  41.441  12.033
55977W        W21237  13.728  30.890   2.620
55978W        W21238   3.073  23.006  13.197
55979W        W21239   4.677  44.269  10.572
55980W        W21240  32.724  13.356  14.447
55981W        W21241  37.961   2.689  13.228
55982W        W21242   8.676  20.797   1.924
55983W        W21243  27.683  33.873   0.813
55984W        W21244   1.735  44.795   4.077
55985W        W21245  34.861   9.697  11.518
55986W        W21246  38.875  21.570   1.027
55987W        W21247  35.986  18.188   4.579
55988W        W21248  25.516  14.011   3.015
55989W        W21249   4.062  26.160  12.654
55990W        W21250   5.652  41.926  11.530
55991W        W21251  18.113  24.134  10.461
55992W        W21252  30.701  13.799   4.262
55993W        W21253  41.006  27.694  11.943
55994W        W21254  17.729   5.453   1.898
55995W        W21255  15.638   5.623  10.980
55996W        W21256  40.770  15.053   0.853
55997W        W21257  12.471  34.874   0.922
55998W        W21258  24.890  17.925   0.635
55999W        W21259  35.078  26.833   1.371
56000W        W21260   0.912  11.761   2.242
56001W        W21261  37.598  21.500   1.676
56002W        W21262  35.447   0.047   0.439
56003W        W21263  17.320  24.113   2.834
56004W        W21264  36.015   4.889   1.796
56005W        W21265  20.217  32.726   4.579
56006W        W21266  16.955   8.491  13.926
56007W        W21267  12.086  16.005  14.937
56008W        W21268  28.947  31.421  12.462
56009W        W21269  14.426  39.511   0.324
56010W        W21270  40.098  27.536   3.298
56011W        W21271  12.573  44.005  14.480
56012W        W21272  11.163   2.829  14.168
56013W        W21273   0.384   0.241  12.434
56014W        W21274  25.158  38.347  14.814
56015W        W21275  34.820  41.308   2.874
56016W        W21276   8.143  37.362   4.606
56017W        W21277  14.132  31.111  11.200
56018W        W21278   9.859  24.695   4.098
56019W        W21279   4.233   6.396  14.275
56020W        W21280  12.746  14.841   1.578
56021W        W21281  32.833  21.371  14.293
56022W        W21282  34.154   0.483  14.217
56023W        W21283  42.309  15.986  11.651
56024W        W21284  38.747   0.783  14.466
56025W        W21285  40.456  19.090   4.163
56026W        W21286  14.699  41.936  14.624
56027W        W21287   9.454  34.291  12.488
56028W        W21288  31.591  21.242   4.331
56029W        W21289  20.714  15.496   4.625
56030W        W21290   4.958  27.988   0.099
56031W        W21291  17.139  16.433   3.280
56032W        W21292   6.395  23.425   4.108
56033W        W21293  42.799  34.603   3.312
56034W        W21294  18.301  19.174   0.116
56035W        W21295  23.107   0.928   1.174
56036W        W21296  37.468  20.246  13.862
56037W        W21297  25.195  19.518  10.291
56038W        W21298   8.484  13.135   2.748
56039W        W21299  20.812  25.928  13.131
56040W        W21300  37.997   4.919   4.292
56041W        W21301  21.360  25.554   3.256
56042W        W21302  24.052  29.941  13.007
56043W        W21303  20.563  27.452   4.509
56044W        W21304  33.128  31.007  13.270
56045W        W21305  40.999  11.442   4.388
56046W        W21306   6.708  31.703  12.547
56047W        W21307  40.267  12.554  11.581
56048W        W21308  42.607  41.414  11.103
56049W        W21309  35.021   7.260  13.113
56050W        W21310  26.335   7.852   2.734
56051W        W21311  24.064  28.470   2.882
56052W        W21312   6.902  15.245  13.447
56053W        W21313   6.617   2.272  13.051
56054W        W21314  38.467  13.562  11.490
56055W        W21315  21.886  18.013   1.240
56056W        W21316  23.449  16.540   0.258
56057W        W21317   3.850  21.509  11.208
56058W        W21318   0.882  32.598   0.241
56059W        W21319  37.856   2.957   3.813
56060W        W21320  27.731  42.425   0.202
56061W        W21321  41.398  32.465   3.348
56062W        W21322  19.973  14.026   0.632
56063W        W21323  18.304  13.339   2.884
56064W        W21324  43.145   0.737  14.059
56065W        W21325  33.984  27.826  11.376
56066W        W21326  43.921  17.304  11.069
56067W        W21327  18.239  28.380  11.480
56068W        W21328  35.006  30.647   0.741
56069W        W21329  26.586  36.419   4.679
56070W        W21330  18.360  18.170  13.760
56071W        W21331   8.851   6.221   1.774
56072W        W21332  16.132  24.785  10.736
56073W        W21333   4.486  38.988   2.697
56074W        W21334  37.572   0.069   3.111
56075W        W21335  21.519  20.331  13.159
56076W        W21336  34.410  43.299  12.885
56077W        W21337  25.542  38.825  11.866
56078W        W21338  15.903  35.892   3.191
56079W        W21339  23.499   3.122   0.683
56080W        W21340   7.414  43.795   3.977
56081W        W21341  10.408  30.419   5.544
56082W        W21342  41.811  21.167   1.449
56083W        W21343  16.881   4.155  14.232
56084W        W21344   7.718  31.545  12.670
56085W        W21345   1.892   1.635  14.293
56086W        W21346  32.402   1.502   2.687
56087W        W21347  26.792  24.135   0.828
56088W        W21348  14.139  25.189   2.573
56089W        W21349   2.730   3.000  13.512
56090W        W21350  28.654   4.383  11.064
56091W        W21351  40.755  33.932   4.762
56092W        W21352  34.090  38.269   4.394
56093W        W21353   5.338  20.782   2.838
56094W        W21354  26.465  18.279  12.328
56095W        W21355  29.113  38.864  12.031
56096W        W21356   4.472  23.145   4.734
56097W        W21357  32.761  16.848  11.609
56098W        W21358  38.405  25.189  10.919
56099W        W21359   2.345   6.205  10.650
56100W        W21360  30.767  22.321  12.161
56101W        W21361  41.796  23.632  14.474
56102W        W21362   9.747  38.929  11.102
56103W        W21363  10.576   0.253   0.390
56104W        W21364   9.485  29.078  12.049
56105W        W21365   4.694   6.430  10.683
56106W        W21366  22.933  36.829  13.303
56107W        W21367  31.715   0.745   0.176
56108W        W21368   1.998   8.646  10.476
56109W        W21369  18.762  31.498   3.247
56110W        W21370  14.144  43.486   3.093
56111W        W21371  10.652   7.617   1.304
56112W        W21372  38.607  19.860  12.139
56113W        W21373  36.063  25.423  14.047
56114W        W21374  35.651  12.849  14.400
56115W        W21375  20.833  24.968  10.334
56116W        W21376  35.962  34.887  10.740
56117W        W21377   3.030  20.955   2.219
56118W        W21378  36.811  39.118  10.716
56119W        W21379  31.491   3.755   2.789
56120W        W21380  38.325   3.627  11.429
56121W        W21381   3.048  12.787  13.463
56122W        W21382  31.023   9.791   1.320
56123W        W21383  28.150  38.835  13.822
56124W        W21384  38.349  31.784   3.173
56125W        W21385  37.642  19.231  14.098
56126W        W21386   5.397   9.149   0.449
56127W        W21387   2.658  19.125   4.206
56128W        W21388  37.447  16.110  10.379
56129W        W21389  31.471   2.053  13.495
56130W        W21390  41.827   5.317   0.707
56131W        W21391  29.817   8.397   2.719
56132W        W21392  38.754  36.520   0.747
56133W        W21393  19.216  22.524   3.899
56134W        W21394  14.033  21.011  13.050
56135W        W21395   8.907  16.081  13.500
56136W        W21396  13.310  23.753   4.986
56137W        W21397  39.486  43.807  13.366
56138W        W21398  12.862  28.393  13.787
56139W        W21399  16.599  32.791  13.131
56140W        W21400  15.596   3.290   1.826
56141W        W21401  17.147   3.478  11.724
56142W        W21402  26.175  33.908  14.743
56143W        W21403  32.341  25.191  11.244
56144W        W21404  29.512   0.764  14.950
56145W        W21405   5.280  29.354  12.531
56146W        W21406  23.076  12.598  14.311
56147W        W21407  10.746  29.142  13.460
56148W        W21408  33.405   6.804   4.142
56149W        W21409   1.247  23.652   3.207
56150W        W21410   2.398  37.792   0.431
56151W        W21411  31.810   7.672  14.502
56152W        W21412  39.326  10.352   3.255
56153W        W21413  15.081  13.597   2.936
56154W        W21414  26.344  34.363  11.499
56155W        W21415  25.722  12.236   0.444
56156W        W21416  26.505   1.296   3.737
56157W        W21417  44.511  33.421  14.039
56158W        W21418  17.598  35.869   4.087
56159W        W21419  33.561  43.123   1.743
56160W        W21420  38.476  34.922   3.362
56161W        W21421  13.120  38.791  12.928
56162W        W21422  14.355  38.584  12.657
56163W        W21423  23.989  24.348   0.280
56164W        W21424  18.581  26.657   3.609
56165W        W21425  22.045  18.198  10.848
56166W        W21426   0.579  44.418   0.824
56167W        W21427  15.223  16.966  14.904
56168W        W21428  13.345   9.816   1.861
56169W        W21429  40.558  44.259   0.739
56170W        W21430   7.549  30.700  11.686
56171W        W21431  20.997  41.643  13.055
56172W        W21432  39.986  42.893  13.784
56173W        W21433  39.553   5.720  10.681
56174W        W21434  22.196   4.410   0.416
56175W        W21435  29.998   0.008   1.873
56176W        W21436  30.146  36.263   3.315
56177W        W21437  26.954  26.935   4.503
56178W        W21438  39.150  25.931   2.298
56179W        W21439   6.281   9.914   1.424
56180W        W21440  34.008   3.918   1.387
56181W        W21441  43.930   0.901   2.666
56182W        W21442   9.636   2.157   1.409
56183W        W21443  14.189  33.487  11.241
56184W        W21444  27.434  35.965   3.147
56185W        W21445   7.977   5.862  14.359
56186W        W21446   4.203  17.278  12.101
56187W        W21447  33.924   1.515   0.860
56188W        W21448  15.081  11.855   1.891
56189W        W21449  11.302  29.939  11.194
56190W        W21450  21.007  35.451   3.269
56191W        W21451   2.603  44.591  13.026
56192W        W21452  18.234  36.866  14.236
56193W        W21453  20.298   9.357   0.269
56194W        W21454  27.911  30.363  14.783
56195W        W21455   8.450  43.503   2.312
56196W        W21456  30.412   4.287  11.570
56197W        W21457  21.652  21.807  14.523
56198W        W21458  13.299   7.187  13.851
56199W        W21459  43.787  35.473   0.884
56200W        W21460  42.609  37.893  12.735
56201W        W21461  17.130  29.120  14.318
56202W        W21462   9.366   8.772   2.112
56203W        W21463  15.125  31.074   1.318
56204W        W21464   4.536   5.425  11.611
56205W        W21465  34.204  39.790   1.428
56206W        W21466  28.125  17.599   4.594
56207W        W21467  44.791  31.956  11.562
56208W        W21468  15.209  13.820  10.521
56209W        W21469   8.676  24.645  10.731
56210W        W21470  35.084  28.970   4.212
56211W        W21471  35.251  14.374  14.127
56212W        W21472   2.276  44.970  11.172
56213W        W21473   2.534   5.620   3.175
56214W        W21474  36.962  36.550  11.549
56215W        W21475   5.682  28.872  13.417
56216W        W21476   0.215  38.944  13.223
56217W        W21477  12.095  20.196  13.772
56218W        W21478  40.788  20.360  11.484
56219W        W21479   8.615  12.361  14.936
56220W        W21480  40.916  18.689   0.323
56221W        W21481   4.861  25.689   0.770
56222W        W21482  37.566  38.339  12.493
56223W        W21483  17.481  26.068  11.215
56224W        W21484  29.607  14.310   0.990
56225W        W21485  20.500  28.082  11.105
56226W        W21486  37.474  16.475  13.547
56227W        W21487  14.537   6.408  13.989
56228W        W21488  25.133  23.327  14.036
56229W        W21489  39.412  26.649  12.938
56230W        W21490  15.466  19.524  10.972
56231W        W21491  25.763  32.622  13.033
56232W        W21492  22.565  34.010   4.178
56233W        W21493  28.936  26.015   0.524
56234W        W21494  25.278  24.987  13.622
56235W        W21495  19.154   9.133   4.826
56236W        W21496  18.074  13.315   1.782
56237W        W21497  44.518  18.031   1.887
56238W        W21498  40.287   4.228   0.884
56239W        W21499   5.288   9.262  13.799
56240W        W21500  12.906  28.945  14.444
56241W        W21501  40.574  42.227   4.346
56242W        W21502  17.424  20.508   3.282
56243W        W21503  40.034  35.316   4.882
56244W        W21504  10.722   6.712  13.541
56245W        W21505   0.466  22.171   2.044
56246W        W21506  14.757  29.222  14.955
56247W        W21507  13.590  34.383   0.066
56248W        W21508  27.971  13.020   2.724
56249W        W21509  15.789  20.422  14.025
56250W        W21510  26.572  27.092  10.669
56251W        W21511  13.328   2.660  14.806
56252W        W21512  16.220  11.138  10.714
56253W        W21513  18.419  11.860   2.135
56254W        W21514   6.481  34.536  11.580
56255W        W21515   4.221  39.423  14.695
56256W        W21516   9.702  23.031  12.995
56257W        W21517  31.011  39.888  10.566
56258W        W21518  39.223  23.671   3.449
56259W        W21519  34.873  38.175  14.827
56260W        W21520  39.146  21.425   1.448
56261W        W21521  21.863  37.778  11.143
56262W        W21522  23.973  22.496  13.398
56263W        W21523  17.765   0.520   4.907
56264W        W21524  36.757  34.960   2.372
56265W        W21525   2.894  10.901  11.088
56266W        W21526  28.087  24.261   2.323
56267W        W21527  27.710  11.389   3.288
56268W        W21528  35.596  40.368  10.838
56269W        W21529  39.508   2.554   3.636
56270W        W21530  21.251  12.466   2.069
56271W        W21531  24.171  39.999   1.415
56272W        W21532   1.816  11.616   9.952
56273W        W21533  19.179  44.936  13.750
56274W        W21534  42.050   9.813   0.897
56275W        W21535  21.720   4.233   0.312
56276W        W21536  15.431   6.466  14.835
56277W        W21537  14.212  17.449   4.948
56278W        W21538  35.765  39.876   0.337
56279W        W21539  13.781   2.657   2.283
56280W        W21540  44.490  44.394  12.970
56281W        W21541  25.581  21.857   0.201
56282W        W21542   9.878  33.550  12.955
56283W        W21543  20.484  30.862  12.624
56284W        W21544  18.146   8.349   1.469
56285W        W21545  24.746  14.531   0.937
56286W        W21546  10.015  14.541  11.985
56287W        W21547  35.637  25.281  11.536
56288W        W21548   6.716  43.971   3.771
56289W        W21549  35.793  24.581   1.357
56290W        W21550  22.119  44.001  12.849
56291W        W21551   9.817   6.969  11.652
56292W        W21552  26.265  27.513  13.284
56293W        W21553  36.179  35.870   3.277
56294W        W21554  44.785  36.556   0.752
56295W        W21555  15.818  32.026   2.743
56296W        W21556  39.877  13.937  12.913
56297W        W21557  12.108  25.724   1.900
56298W        W21558  28.850  43.832  11.478
56299W        W21559   8.295  18.053   4.063
56300W        W21560  33.402  23.596  14.210
56301W        W21561   7.662  13.784   2.728
56302W        W21562  36.261  40.506   5.028
56303W        W21563  36.676  43.805  12.839
56304W        W21564  21.544  25.495   1.377
56305W        W21565  13.298  29.409   1.549
56306W        W21566  29.728  24.988   2.656
56307W        W21567   2.265  29.004   1.708
56308W        W21568  29.185  28.574  11.655
56309W        W21569  27.118  27.936   1.723
56310W        W21570  15.182   4.220  10.684
56311W        W21571  35.916  17.165   3.778
56312W        W21572  21.702   1.194   2.385
56313W        W21573  34.289  12.361   2.780
56314W        W21574  31.385  19.701   2.565
56315W        W21575  29.078  37.595   1.918
56316W        W21576  14.183  39.473  13.098
56317W        W21577  18.652  17.175   0.470
56318W        W21578  19.631  41.840   2.396
56319W        W21579  39.268  11.778  11.406
56320W        W21580   9.606  31.610  10.961
56321W        W21581  39.363  23.730  11.783
56322W        W21582  40.322  33.556   3.021
56323W        W21583  21.561  16.579  13.371
56324W        W21584  19.198  31.410   2.685
56325W        W21585  29.717  23.499   4.861
56326W        W21586  37.140   1.949  11.170
56327W        W21587  15.621  28.530   3.173
56328W        W21588  39.851  39.549   1.203
56329W        W21589  23.714  24.163   3.617
56330W        W21590  44.389   8.085   4.691
56331W        W21591  44.466  16.385  11.743
56332W        W21592  24.954  27.020  14.373
56333W        W21593  25.666  27.246   1.301
56334W        W21594  20.657  10.318  12.376
56335W        W21595  31.053  31.146  11.607
56336W        W21596  12.422  33.124   2.252
56337W        W21597   5.369   9.233   1.951
56338W        W21598  30.055  12.896  12.416
56339W        W21599   0.732  38.038   3.889
56340W        W21600  41.758  41.328   4.668
56341W        W21601   1.298  39.784   1.425
56342W        W21602  16.608  41.524   3.386
56343W        W21603  21.535  16.206  14.829
56344W        W21604  10.279  24.715  14.060
56345W        W21605  19.833  43.399  14.440
56346W        W21606  26.544   3.490   2.795
56347W        W21607  41.376  28.715   2.412
56348W        W21608  11.310  34.431  13.360
56349W        W21609  35.844  36.952  14.830
56350W        W21610  23.037  33.037  11.977
56351W        W21611  19.824  13.357   3.675
56352W        W21612  44.020  13.872   3.169
56353W        W21613  43.842  26.002   0.092
56354W        W21614  20.735  32.472   3.025
56355W        W21615  42.787   1.528  11.977
56356W        W21616  18.263  21.956   2.333
56357W        W21617   4.641  39.074  11.032
56358W        W21618  41.584  33.813  14.049
56359W        W21619  21.282  24.408   0.432
56360W        W21620  15.343  41.682   3.106
56361W        W21621  23.732  29.446  14.946
56362W        W21622  37.998   8.491  11.926
56363W        W21623  20.637  24.948   2.188
56364W        W21624   2.006   9.792  11.373
56365W        W21625  20.310  41.950  14.086
56366W        W21626  11.898  18.837   3.814
56367W        W21627  40.104  25.987   2.783
56368W        W21628  23.956  18.224   2.613
56369W        W21629  43.792  44.818   1.091
56370W        W21630   8.306  30.367  12.034
56371W        W21631  15.510  11.765  12.573
56372W        W21632  30.081  13.400   2.383
56373W        W21633  44.516   5.797  12.647
56374W        W21634  43.386  28.395   1.060
56375W        W21635   5.652  18.336  10.666
56376W        W21636  40.960  17.202  13.385
56377W        W21637   3.842  24.506   3.313
56378W        W21638  16.607   2.021  12.994
56379W        W21639  12.668  26.705   1.682
56380W        W21640  19.649  12.038  14.843
56381W        W21641   8.276  13.899  14.412
56382W        W21642   0.357  24.576  11.605
56383W        W21643  27.384  42.295   3.939
56384W        W21644  35.910  19.556  12.073
56385W        W21645  10.728  10.997   4.570
56386W        W21646  17.737  20.146   1.250
56387W        W21647  22.004   9.356   3.704
56388W        W21648   2.856  18.366   2.242
56389W        W21649   6.686  23.107   4.541
56390W        W21650  29.037   7.628   0.883
56391W        W21651  24.176   0.474   3.414
56392W        W21652  13.651   3.668   4.576
56393W        W21653  31.899   7.777   0.029
56394W        W21654  44.707  28.800  10.277
56395W        W21655   9.780   1.407   0.914
56396W        W21656  13.195  26.472  10.137
56397W        W21657   1.729  17.808   3.697
56398W        W21658  24.098  27.970  11.735
56399W        W21659  40.269   5.170  10.726
56400W        W21660  30.320   0.787  14.392
56401W        W21661  34.327  10.802  14.964
56402W        W21662  34.973  38.475   1.285
56403W        W21663  37.065  37.436  12.533
56404W        W21664   4.811   6.648   0.472
56405W        W21665  20.541  21.463   0.299
56406W        W21666  30.346   7.501  13.954
56407W        W21667  40.234  31.883   0.242
56408W        W21668   1.053  44.885  10.552
56409W        W21669  12.640  28.826  11.273
56410W        W21670   9.647  21.188  11.175
56411W        W21671  24.147  38.951  14.476
56412W        W21672  36.661  10.254   1.272
56413W        W21673  35.330  17.858   2.891
56414W        W21674  25.493   5.188  14.390
56415W        W21675  14.432  13.605   3.839
56416W        W21676  29.601  30.419   0.377
56417W        W21677   6.478  29.970  11.456
56418W        W21678   0.775  31.889   4.038
56419W        W21679  26.549  21.488  13.231
56420W        W21680  22.981   7.836  14.320
56421W        W21681  39.108  31.931   0.873
56422W        W21682  40.418  36.966   2.260
56423W        W21683  28.307  11.496  10.783
56424W        W21684  23.374  38.683   4.270
56425W        W21685  34.851  31.756   2.273
56426W        W21686  29.993  41.795   2.848
56427W        W21687   1.723  29.703   4.491
56428W        W21688  31.486   0.976  13.056
56429W        W21689  25.250   6.012   3.797
56430W        W21690   1.204  21.937   1.697
56431W        W21691  31.548  43.603   1.751
56432W        W21692  26.135  41.768   4.006
56433W        W21693  35.671  34.736  12.198
56434W        W21694   8.872  34.082  12.536
56435W        W21695   1.944  29.938   0.779
56436W        W21696  40.958  36.618  12.463
56437W        W21697  22.110  13.836   3.281
56438W        W21698  29.043  24.985   3.396
56439W        W21699  26.546  42.192   2.767
56440W        W21700   1.313  30.211  12.883
56441W        W21701  24.493  22.140   4.114
56442W        W21702  10.343  39.735  12.524
56443W        W21703   2.320   9.594  12.281
56444W        W21704  12.349  35.700  14.431
56445W        W21705   4.838  27.625   3.541
56446W        W21706  42.093   5.664  12.002
56447W        W21707  27.529  20.324  14.092
56448W        W21708  14.662  37.549  13.808
56449W        W21709  16.170  13.393  14.398
56450W        W21710   4.395  15.778   0.328
56451W        W21711  18.881  32.894   2.158
56452W        W21712   1.763  29.108   1.720
56453W        W21713  26.971  31.922   3.345
56454W        W21714   2.206  23.176  12.998
56455W        W21715  39.734   1.662  14.820
56456W        W21716  29.874  27.017  10.547
56457W        W21717  14.097  34.073   1.385
56458W        W21718  25.380  11.756  10.503
56459W        W21719  24.664  23.908  13.286
56460W        W21720  28.914  19.825   0.842
56461W        W21721  26.861  27.188   2.694
56462W        W21722  10.195  21.203  12.989
56463W        W21723  25.739  28.614   1.313
56464W        W21724  44.293  17.998  13.033
56465W        W21725   8.751  35.183   1.163
56466W        W21726  41.318   8.501  14.497
56467W        W21727  29.903  25.188   4.300
56468W        W21728  27.936  19.263   9.744
56469W        W21729  34.427  17.563   2.907
56470W        W21730  24.051  41.042  13.797
56471W        W21731  37.856  34.660  12.393
56472W        W21732  16.666  37.164   4.268
56473W        W21733  35.452  27.056  14.383
56474W        W21734  31.409  15.899  12.772
56475W        W21735   1.021  44.512  13.277
56476W        W21736  27.737  15.092  11.264
56477W        W21737  37.377   5.422  12.481
56478W        W21738  26.455  43.361   1.190
56479W        W21739  39.060  19.369  11.574
56480W        W21740  20.661  20.305   4.126
56481W        W21741  15.280   4.141   1.663
56482W        W21742  32.085  36.554  14.280
56483W        W21743  41.416   2.325   4.186
56484W        W21744  39.006  39.914   4.074
56485W        W21745  10.197   7.334   1.253
56486W        W21746  11.097  21.709  11.450
56487W        W21747  33.306  39.994   0.429
56488W        W21748  39.851  24.487   0.825
56489W        W21749  25.577  18.793  12.115
56490W        W21750  35.805   7.857  14.881
56491W        W21751  35.904   5.837  13.809
56492W        W21752   0.017  24.785   4.096
56493W        W21753  32.362  36.974  14.449
56494W        W21754   3.324   6.728  14.875
56495W        W21755  24.589  10.736   1.298
56496W        W21756  35.328  21.003  14.522
56497W        W21757  37.787  42.725   3.086
56498W        W21758   9.830  16.806   0.305
56499W        W21759  38.322   8.246  11.606
56500W        W21760   4.990   9.677  13.682
56501W        W21761  22.093   5.507  14.120
56502W        W21762  39.092  24.144  11.922
56503W        W21763   7.272   1.933   4.130
56504W        W21764  38.335  27.163   2.238
56505W        W21765   5.955  34.384   2.220
56506W        W21766  20.510  35.972   4.530
56507W        W21767   6.816   8.140   0.455
56508W        W21768  37.466   5.779   2.438
56509W        W21769  21.205  34.524  13.675
56510W        W21770  19.786  27.683  11.867
56511W        W21771  22.238  39.395   0.095
56512W        W21772  36.185  10.339   5.006
56513W        W21773   5.888   8.099  12.014
56514W        W21774  28.747  38.967   0.298
56515W        W21775   8.866  40.411   3.293
56516W        W21776  13.694  27.955   5.136
56517W        W21777  10.780  29.463   0.232
56518W        W21778  30.077  37.298   0.749
56519W        W21779  18.191   2.158  14.918
56520W        W21780  24.126  20.413  12.480
56521W        W21781  44.450   6.074  11.328
56522W        W21782  34.649  34.490   3.114
56523W        W21783  36.231  41.968   3.239
56524W        W21784   3.768  36.080  14.331
56525W        W21785  39.634  25.070  14.898
56526W        W21786  27.608  34.697  10.852
56527W        W21787  31.428  33.143   4.897
56528W        W21788  20.252  39.009  12.799
56529W        W21789  36.566  32.412  10.393
56530W        W21790  41.482  41.297   1.378
56531W        W21791  32.508  21.242  13.014
56532W        W21792   8.537   2.270   0.495
56533W        W21793  33.055   7.220   1.338
56534W        W21794   6.204  31.194   1.173
56535W        W21795  25.778  12.788   4.194
56536W        W21796   6.726  26.571   4.739
56537W        W21797  37.630  20.742  13.928
56538W        W21798  11.365  12.380  12.017
56539W        W21799   6.875  33.987   1.871
56540W        W21800  10.112  30.190  11.854
56541W        W21801  44.860  35.348  13.874
56542W        W21802  32.629  28.842  12.087
56543W        W21803  42.332  24.646  10.799
56544W        W21804   4.868   7.635   4.139
56545W        W21805  39.821  16.785   4.634
56546W        W21806  26.011  29.402   1.013
56547W        W21807  24.106   4.304  13.678
56548W        W21808  10.473  11.116  11.474
56549W        W21809  41.241  14.635  13.720
56550W        W21810  44.334  14.901  12.029
56551W        W21811   6.401  43.598  11.532
56552W        W21812  28.570   3.000   1.629
56553W        W21813  27.163   1.248  12.406
56554W        W21814  17.763  15.077  11.242
56555W        W21815  12.235  28.754   0.415
56556W        W21816  36.822  21.997   2.671
56557W        W21817  23.444  34.059  13.317
56558W        W21818  10.793   1.806   1.869
56559W        W21819  40.751  12.749  10.783
56560W        W21820  11.183  38.010   1.917
56561W        W21821   8.717  38.150   0.912
56562W        W21822  33.351  39.428   3.331
56563W        W21823  41.406  10.137  14.321
56564W        W21824  19.688  24.477   4.633
56565W        W21825   6.355  39.773  11.164
56566W        W21826   7.270  26.445  10.271
56567W        W21827  31.951   6.921   1.913
56568W        W21828  38.423  22.658   4.365
56569W        W21829  14.753   1.245   3.317
56570W        W21830  29.124  17.800   3.689
56571W        W21831   9.219  43.732   1.507
56572W        W21832  36.165  30.030   1.398
56573W        W21833  22.515  13.301   1.257
56574W        W21834  12.423   9.482  10.576
56575W        W21835  30.599  11.509  12.539
56576W        W21836  16.136  35.468   3.758
56577W        W21837  25.390  18.457   4.008
56578W        W21838  20.322  11.749   4.099
56579W        W21839  31.541  34.335   1.671
56580W        W21840  35.549  39.502   1.773
56581W        W21841  38.070  23.618  12.772
56582W        W21842  32.510   1.236  13.455
56583W        W21843   7.850   9.731  13.348
56584W        W21844  36.859  37.382  13.941
56585W        W21845   6.958  21.726  13.448
56586W        W21846   5.797  14.498   1.679
56587W        W21847   0.216   2.269   3.220
56588W        W21848   3.845  12.318  11.363
56589W        W21849  37.127   5.344   4.562
56590W        W21850   5.840  44.391  11.484
56591W        W21851  40.718  21.739  11.140
56592W        W21852  36.141  37.609  14.463
56593W        W21853  31.738  18.632   4.607
56594W        W21854  13.742  21.219  12.183
56595W        W21855  40.943  35.448   2.830
56596W        W21856   1.786  40.447  10.712
56597W        W21857  37.582  42.936  13.803
56598W        W21858  37.090  10.272   4.578
56599W        W21859  42.880  20.044  11.040
56600W        W21860  31.820   9.801   2.704
56601W        W21861  10.266  41.147  14.487
56602W        W21862   5.202  21.648  13.651
56603W        W21863  11.848  43.707   3.325
56604W        W21864  23.481   7.703  12.654
56605W        W21865  25.125  15.300   1.430
56606W        W21866  16.242  19.069  12.494
56607W        W21867  44.936  19.721   4.949
56608W        W21868   3.581  23.069  13.049
56609W        W21869   9.344  43.435  12.033
56610W        W21870  25.611  29.063   0.148
56611W        W21871  35.918   0.306   2.785
56612W        W21872   2.743   3.960  12.106
56613W        W21873  34.354  28.204  12.741
56614W        W21874  41.892   3.486   4.229
56615W        W21875  10.670  29.823   2.413
56616W        W21876  12.719  22.663  12.516
56617W        W21877   4.671  31.887   4.063
56618W        W21878   0.991  24.179   1.004
56619W        W21879  37.485   1.173  14.838
56620W        W21880  28.455  24.538  13.955
56621W        W21881  13.697   0.299   4.647
56622W        W21882   8.182  36.540   1.320
56623W        W21883  30.534  39.918   3.362
56624W        W21884  13.908  17.699  13.852
56625W        W21885   1.499  31.710   2.694
56626W        W21886  14.700  17.537  12.441
56627W        W21887  16.315  37.559  10.606
56628W        W21888  17.456  13.314  11.158
56629W        W21889   5.233  37.554   4.397
56630W        W21890  31.993   1.201  11.912
56631W        W21891  24.042   2.481  14.295
56632W        W21892  39.925  42.816   3.059
56633W        W21893   7.704  38.233   4.608
56634W        W21894   8.609  10.261  11.573
56635W        W21895  44.845  36.576   1.920
56636W        W21896  29.092  38.807  13.040
56637W        W21897  27.214  17.346  11.348
56638W        W21898  44.734  34.674  10.819
56639W        W21899  14.891  28.472  13.547
56640W        W21900  38.054  28.482  10.971
56641W        W21901  33.960  33.501   4.490
56642W        W21902  30.252  26.107  12.480
56643W        W21903  11.168  43.457  12.963
56644W        W21904   1.835  42.492   0.896
56645W        W21905  44.214  36.041  10.890
56646W        W21906  36.848  41.876  12.395
56647W        W21907  22.518  10.826  11.950
56648W        W21908   6.738  29.135  11.092
56649W        W21909  38.104  28.873   2.778
56650W        W21910  22.007   9.193  11.498
56651W        W21911  43.434  30.541  11.006
56652W        W21912   0.416  39.077   2.625
56653W        W21913  37.079   6.281  11.630
56654W        W21914  34.548  24.395   3.430
56655W        W21915  15.365  26.252   3.810
56656W        W21916  37.052  21.073   1.839
56657W        W21917  43.416  18.609   0.060
56658W        W21918   8.140   6.481   3.772
56659W        W21919  14.227   5.853  11.274
56660W        W21920  41.441  25.604  11.132
56661W        W21921   5.406  38.111  14.478
56662W        W21922  24.030  26.271   3.341
56663W        W21923  13.266  25.629  12.864
56664W        W21924  19.023  43.958   1.285
56665W        W21925  29.714  22.548   0.409
56666W        W21926   2.672  40.112   3.345
56667W        W21927   4.075  42.114  12.150
56668W        W21928  28.428  22.484  14.914
56669W        W21929  36.339  40.270   4.599
56670W        W21930   0.281  18.816   0.351
56671W        W21931  42.331   1.584   4.640
56672W        W21932   0.277  30.963   1.947
56673W        W21933  10.659  10.449   4.509
56674W        W21934  11.127  15.198   2.469
56675W        W21935  34.106  41.282  10.640
56676W        W21936  14.287  39.062   2.926
56677W        W21937  37.842   2.366   3.095
56678W        W21938   1.459  15.377   2.778
56679W        W21939   6.317   0.919   0.321
56680W        W21940   4.850  16.710  12.682
56681W        W21941  39.331  24.142   0.911
56682W        W21942  24.315  30.006  12.470
56683W        W21943  39.925   6.985   2.903
56684W        W21944   6.738   6.296  13.009
56685W        W21945  41.803   6.141   3.581
56686W        W21946  22.238  40.361  10.791
56687W        W21947  20.584  18.643  14.951
56688W        W21948   1.478   7.749  13.378
56689W        W21949  17.104  27.211  11.553
56690W        W21950  22.960  33.395  14.926
56691W        W21951  24.574   2.752   0.807
56692W        W21952   5.859  32.810   4.111
56693W        W21953  34.846  17.703   4.370
56694W        W21954  43.205  30.920   0.719
56695W        W21955  20.471  35.015   0.642
56696W        W21956   0.972  16.821  12.898
56697W        W21957  24.532  31.481   4.694
56698W        W21958  43.470   3.941  13.841
56699W        W21959  27.131  28.593  14.550
56700W        W21960  40.600  11.839   2.379
56701W        W21961   6.395  13.998   1.202
56702W        W21962   4.262  16.163   4.184
56703W        W21963  18.076  43.117   0.887
56704W        W21964   2.561  40.404  11.251
56705W        W21965  14.556  33.034  11.566
56706W        W21966  31.221  33.552   4.621
56707W        W21967  10.738  20.140   0.953
56708W        W21968   1.510  44.476  13.030
56709W        W21969  32.580  24.656   1.321
56710W        W21970  18.732  15.609  14.460
56711W        W21971  33.945  10.778  10.740
56712W        W21972  13.698  44.008   3.617
56713W        W21973  40.765   2.781  12.613
56714W        W21974   4.758   0.315  11.123
56715W        W21975  18.860   3.564  13.620
56716W        W21976  35.881  23.278  14.824
56717W        W21977  13.163  11.292  10.686
56718W        W21978  12.276  21.190  10.984
56719W        W21979  32.658   9.738   2.259
56720W        W21980  26.141  37.755  13.248
56721W        W21981  37.829  35.592  11.973
56722W        W21982  35.472  40.496   2.663
56723W        W21983  30.719  22.724   0.433
56724W        W21984  19.863  31.965  11.091
56725W        W21985   5.137  22.027   3.079
56726W        W21986   5.745  23.545   4.334
56727W        W21987  30.002  21.530   4.742
56728W        W21988  15.314  29.055  14.300
56729W        W21989  21.473   3.715   3.545
56730W        W21990  29.777  11.856   4.074
56731W        W21991  42.994  29.613   0.416
56732W        W21992   9.343  19.195  11.547
56733W        W21993  17.710  27.979   2.276
56734W        W21994   5.969   5.072  13.169
56735W        W21995  10.205  34.015   0.010
56736W        W21996   5.280  24.458  14.282
56737W        W21997  11.582  42.868   1.757
56738W        W21998  31.146  19.931   4.102
56739W        W21999  43.614  32.964   0.282
56740W        W22000   9.240  15.650   2.683
56741W        W22001  38.834  41.694   1.411
56742W        W22002  11.904  32.561  11.028
56743W        W22003  13.047  11.872  14.953
56744W        W22004  10.662  44.291  14.349
56745W        W22005  14.273  20.053   4.871
56746W        W22006  13.562  11.920  14.866
56747W        W22007   5.219  29.509  13.936
56748W        W22008  29.355   0.434   0.303
56749W        W22009  42.963  33.242   4.551
56750W        W22010   9.687   4.376   4.333
56751W        W22011  36.550  18.329   4.274
56752W        W22012  10.892  23.960  13.919
56753W        W22013  18.851  15.057   1.155
56754W        W22014  40.312   6.207  10.673
56755W        W22015  14.306  28.437   0.257
56756W        W22016  35.623  26.915   4.717
56757W        W22017  13.581  31.920  11.059
56758W        W22018   9.737   5.696  11.204
56759W        W22019  32.078  23.862   4.656
56760W        W22020  42.784  28.144  10.988
56761W        W22021  40.139  17.630   0.922
56762W        W22022  34.641   1.365   1.872
56763W        W22023  15.638  43.854   4.143
56764W        W22024  34.095  20.413   4.089
56765W        W22025  31.640   5.536   1.439
56766W        W22026  35.259  40.677  11.496
56767W        W22027  10.215  24.186  13.917
56768W        W22028   5.368   5.966   0.549
56769W        W22029  25.004   1.762  12.939
56770W        W22030   7.051  25.965   4.868
56771W        W22031  21.241  24.248   4.506
56772W        W22032  11.190  12.944  13.202
56773W        W22033   3.173   1.241  13.308
56774W        W22034   6.784  17.206  14.496
56775W        W22035  42.372  14.004   4.431
56776W        W22036  19.608  40.919  12.062
56777W        W22037  30.177  31.212  12.330
56778W        W22038  20.187  33.430  10.748
56779W        W22039   2.381  40.992  13.429
56780W        W22040  11.441  23.945  14.524
56781W        W22041  38.089  21.615   1.551
56782W        W22042  27.564  23.047   2.274
56783W        W22043  11.243  36.545  11.645
56784W        W22044  18.606  43.813  14.564
56785W        W22045  43.715  29.046   2.815
56786W        W22046  26.733  27.758   4.331
56787W        W22047  39.741   4.920  14.341
56788W        W22048  19.694   1.529  11.576
56789W        W22049  21.285  30.557   2.583
56790W        W22050  43.005  29.601  11.071
56791W        W22051   6.156  44.914   1.809
56792W        W22052  34.437  15.797  10.956
56793W        W22053  23.674  25.086  11.597
56794W        W22054   1.819  25.005  13.594
56795W        W22055   4.440  33.675  14.448
56796W        W22056  14.801   4.922   0.729
56797W        W22057  18.528  26.518   4.962
56798W        W22058  14.120   6.538   2.167
56799W        W22059  37.490  33.347   1.361
56800W        W22060   8.303  13.836   4.045
56801W        W22061   0.419   3.011  11.086
56802W        W22062  44.853   8.960  12.789
56803W        W22063  29.773  21.210   2.636
56804W        W22064  21.294  13.090  12.374
56805W        W22065  23.388  30.684   2.365
56806W        W22066  19.797  33.449  10.421
56807W        W22067   5.776  21.046  13.313
56808W        W22068  10.607  23.331  12.109
56809W        W22069  42.869  32.406   2.364
56810W        W22070   5.840  27.713   1.722
56811W        W22071  14.452  34.451   1.257
56812W        W22072  10.811  37.834  11.997
56813W        W22073  21.626  23.488   3.205
56814W        W22074   6.299   3.282  10.186
56815W        W22075  11.716   4.459   0.753
56816W        W22076   5.410  36.618   1.327
56817W        W22077  22.057  41.237  14.697
56818W        W22078  26.163   3.665  11.147
56819W        W22079  32.909  36.323   2.911
56820W        W22080  31.773  26.515   2.670
56821W        W22081  35.889  41.877   0.805
56822W        W22082  31.050   3.765  14.376
56823W        W22083  12.287  15.697   2.301
56824W        W22084  38.686  17.897   3.534
56825W        W22085   6.144   4.949  12.668
56826W        W22086  16.995  22.071   3.631
56827W        W22087  14.240  17.474  12.077
56828W        W22088  28.192  36.089  11.465
56829W        W22089   3.212   9.634  10.593
56830W        W22090  34.416  23.437   0.855
56831W        W22091  23.743  23.562   3.258
56832W        W22092  35.794  28.730  12.191
56833W        W22093  19.002  36.577   1.805
56834W        W22094   7.570  32.224   1.850
56835W        W22095  44.050  20.300  14.936
56836W        W22096  44.795  40.480   1.316
56837W        W22097  16.998   6.328  10.316
56838W        W22098  16.873   0.554   4.339
56839W        W22099  40.438  12.878  14.789
56840W        W22100  21.752   7.343  11.574
56841W        W22101  27.676  40.299  14.478
56842W        W22102  31.629  35.999   3.611
56843W        W22103  24.650  38.602  13.935
56844W        W22104  16.755  41.157  11.133
56845W        W22105  43.492  14.042   3.854
56846W        W22106  12.373   2.299  11.669
56847W        W22107  44.250  38.969  11.962
56848W        W22108  25.919   3.009  12.440
56849W        W22109  26.517   4.758   1.715
56850W        W22110   4.351   8.666   3.244
56851W        W22111  12.262   9.336  13.314
56852W        W22112  20.175  19.135   4.537
56853W        W22113  20.739  21.266   2.169
56854W        W22114  21.225  17.293   4.561
56855W        W22115  40.495  37.943  14.717
56856W        W22116  10.692  30.615  10.934
56857W        W22117  32.489  37.367  11.744
56858W        W22118  10.463   0.623  11.079
56859W        W22119  39.528   8.146   3.350
56860W        W22120  32.317  44.765   3.202
56861W        W22121  37.925  28.837  13.013
56862W        W22122  15.855  33.448   2.428
56863W        W22123  20.476  34.420   1.311
56864W        W22124  22.891  13.553  11.667
56865W        W22125   7.306  31.791  10.607
56866W        W22126  17.243  15.138   1.916
56867W        W22127  42.950  36.056   1.855
56868W        W22128  21.148  43.553   3.665
56869W        W22129   4.884  41.859   5.042
56870W        W22130  19.040   0.907  10.711
56871W        W22131  23.938  41.378   1.296
56872W        W22132  30.085  23.611   1.278
56873W        W22133  25.966  43.129   1.234
56874W        W22134   8.466  21.719   2.769
56875W        W22135  23.189  33.733   2.012
56876W        W22136   0.772  25.293   0.458
56877W        W22137  32.448   7.971  11.322
56878W        W22138  14.284  28.520   3.757
56879W        W22139  17.002  38.325   1.920
56880W        W22140  34.011  44.843   2.613
56881W        W22141  31.433  33.098   4.391
56882W        W22142  35.886  40.133   2.768
56883W        W22143  14.726  32.542  11.614
56884W        W22144  16.543   8.261  11.436
56885W        W22145  15.911   3.654  11.145
56886W        W22146  17.506  42.359  12.422
56887W        W22147  35.550   5.343   3.702
56888W        W22148   9.632   6.094   0.362
56889W        W22149  19.267  18.220  14.846
56890W        W22150   0.509  14.704   0.448
56891W        W22151   3.072   9.841   4.533
56892W        W22152  38.596  11.323  12.125
56893W        W22153   4.695  21.758  13.768
56894W        W22154  42.840   0.336   0.822
56895W        W22155  14.086  28.994   1.326
56896W        W22156  29.640  10.649  10.744
56897W        W22157  21.950  27.440  11.610
56898W        W22158   7.980  27.462   0.496
56899W        W22159  20.485  13.144   0.090
56900W        W22160  11.773   5.720  11.135
56901W        W22161   3.751  43.518   1.161
56902W        W22162  18.372  18.226   0.237
56903W        W22163  24.269  33.942  11.922
56904W        W22164  22.847  17.136  10.629
56905W        W22165  12.524  38.379   4.281
56906W        W22166  21.564  42.903  11.965
56907W        W22167  15.027  38.858  10.749
56908W        W22168   0.499  20.111   1.897
56909W        W22169  19.899  24.953   4.610
56910W        W22170  40.581  22.938   3.723
56911W        W22171   4.580  26.122   1.613
56912W        W22172   0.219  16.244   0.859
56913W        W22173  16.805  36.964   1.731
56914W        W22174  26.538   5.743   4.214
56915W        W22175  11.678   3.864   1.902
56916W        W22176  31.075  30.405  13.795
56917W        W22177  27.937  12.106  14.186
56918W        W22178   3.797   1.374   2.743
56919W        W22179  44.575   8.501   1.144
56920W        W22180  32.410  30.995  11.969
56921W        W22181  23.268   5.346  13.460
56922W        W22182   5.424  25.180  13.879
56923W        W22183   7.663  41.460   4.730
56924W        W22184   5.717  33.082   3.679
56925W        W22185   3.117   8.141   2.572
56926W        W22186  38.415  32.347   4.018
56927W        W22187  28.911  24.435  13.035
56928W        W22188   5.466  24.032   4.552
56929W        W22189  38.765  38.846  12.844
56930W        W22190   6.742  10.551  11.143
56931W        W22191  38.544  18.147  11.043
56932W        W22192  12.777  25.221  10.576
56933W        W22193   2.621   0.037  13.846
56934W        W22194  18.315  44.152   0.857
56935W        W22195  28.753  33.354   3.676
56936W        W22196  34.861  40.068   1.875
56937W        W22197  32.310  35.396   2.337
56938W        W22198   9.614  23.139  11.230
56939W        W22199   2.442  34.132   1.840
56940W        W22200   0.390  22.054  12.418
56941W        W22201  23.387  21.965   3.852
56942W        W22202  18.440  21.150  11.696
56943W        W22203  34.215   5.415   2.246
56944W        W22204  41.906  15.708   0.308
56945W        W22205  43.939  10.892   1.082
56946W        W22206  38.016   5.685   1.693
56947W        W22207  18.161  12.823  14.266
56948W        W22208  17.159   0.530   0.881
56949W        W22209   0.886   8.491  11.180
56950W        W22210  19.209   1.439   4.214
56951W        W22211  44.358  36.900  12.424
56952W        W22212  27.585  19.946   2.409
56953W        W22213  44.787  24.962  13.006
56954W        W22214  12.065  29.533  10.448
56955W        W22215  29.517  41.560   2.846
56956W        W22216  16.868  31.665   0.421
56957W        W22217  23.245  32.718   2.342
56958W        W22218   2.900  17.529  14.412
56959W        W22219  16.434   8.693   4.288
56960W        W22220   7.791   4.937  12.465
56961W        W22221  35.927  15.124   3.157
56962W        W22222  25.007   9.331   3.102
56963W        W22223  12.335  16.587  10.618
56964W        W22224  24.502  26.140  10.727
56965W        W22225   8.633  21.924   0.204
56966W        W22226  12.566  27.201   4.003
56967W        W22227  14.113   6.979  13.083
56968W        W22228   8.345  19.873   1.392
56969W        W22229  18.428  36.808   0.861
56970W        W22230  28.205  40.796  13.955
56971W        W22231   4.376   5.359   1.484
56972W        W22232  36.336  14.216   2.024
56973W        W22233  44.434  12.276   0.837
56974W        W22234  38.764  39.859   0.793
56975W        W22235  41.723  34.355  14.052
56976W        W22236  10.723  12.765  12.939
56977W        W22237  29.744  26.160  11.489
56978W        W22238  38.421  17.587   0.397
56979W        W22239  30.171  19.699  13.240
56980W        W22240  43.732  18.764   0.949
56981W        W22241  10.340  39.632   4.719
56982W        W22242   9.707  27.553  10.929
56983W        W22243  44.187  37.131   4.957
56984W        W22244  14.857   7.968   4.547
56985W        W22245   0.384   0.064   3.444
56986W        W22246  35.568  40.122   0.744
56987W        W22247  17.561  16.299   2.146
56988W        W22248   3.739  30.364   1.887
56989W        W22249  37.096  25.600   3.028
56990W        W22250  18.260  11.755   4.164
56991W        W22251  28.021   1.801   4.074
56992W        W22252   7.423   6.563   0.378
56993W        W22253  17.223   5.610  13.924
56994W        W22254  27.833  17.301   1.276
56995W        W22255  10.099  39.939  13.222
56996W        W22256   9.114  41.654  12.339
56997W        W22257  12.662   9.268   1.187
56998W        W22258  16.748  15.885   2.127
56999W        W22259  16.516  40.030   2.613
57000W        W22260  18.081  34.995  12.617
57001W        W22261  39.494  43.254   4.402
57002W        W22262   8.117  40.464   3.767
57003W        W22263  24.499  24.181   1.675
57004W        W22264   9.175  21.148   2.728
57005W        W22265  31.904  37.836  14.881
57006W        W22266  21.767  43.166   4.718
57007W        W22267  22.210  10.259  13.949
57008W        W22268  31.351   9.248  10.556
57009W        W22269  13.655  31.979   0.820
57010W        W22270  39.936  30.875  13.475
57011W        W22271  30.498  40.279   0.377
57012W        W22272  22.958  22.310   1.402
57013W        W22273  28.285   2.922   0.215
57014W        W22274  32.610   5.417  10.331
57015W        W22275   1.221  13.372  14.490
57016W        W22276  38.226  21.936  12.220
57017W        W22277  37.878  35.514  10.747
57018W        W22278  21.094  42.839   1.277
57019W        W22279  44.300  42.328  13.853
57020W        W22280  20.126   1.780   1.305
57021W        W22281  35.931  39.468  10.492
57022W        W22282  40.774  36.640   2.427
57023W        W22283   7.351  26.855   2.848
57024W        W22284  15.047  42.535   3.184
57025W        W22285   6.206  26.665   9.647
57026W        W22286  41.658  30.785   3.729
57027W        W22287  36.760   4.482  11.065
57028W        W22288  44.803  10.737  10.689
57029W        W22289  35.475   7.998   2.393
57030W        W22290   2.494  44.496  11.155
57031W        W22291   3.408   9.859   2.758
57032W        W22292   7.412  20.115   3.192
57033W        W22293  10.326  22.028   1.862
57034W        W22294  28.374   4.508  10.635
57035W        W22295  13.057  12.704  14.686
57036W        W22296   2.774  11.922  14.954
57037W        W22297  39.717  42.820   3.530
57038W        W22298  31.107  43.073  14.231
57039W        W22299  20.638  31.398  14.984
57040W        W22300  24.247  42.446  14.301
57041W        W22301  25.416  25.022   3.732
57042W        W22302  37.683  34.502  13.388
57043W        W22303  16.422  34.822   4.097
57044W        W22304   1.786  30.071  11.457
57045W        W22305  41.563  21.252  14.742
57046W        W22306  41.263   8.696   1.762
57047W        W22307  34.665  10.467  11.918
57048W        W22308  11.357   2.815  13.062
57049W        W22309  33.625  43.876   2.336
57050W        W22310  30.019  20.250  13.382
57051W        W22311  31.386   6.189   4.064
57052W        W22312  28.067  11.403   4.709
57053W        W22313  27.355   4.401   4.412
57054W        W22314  37.621  36.549   4.549
57055W        W22315   7.390  44.391  12.102
57056W        W22316  44.809  36.268  13.771
57057W        W22317  44.229   2.354  11.495
57058W        W22318  21.978  14.238   4.158
57059W        W22319   6.289  28.309   0.464
57060W        W22320  20.315  19.593   2.388
57061W        W22321  37.088  41.819  11.588
57062W        W22322  22.518  40.736  14.760
57063W        W22323   4.721  23.734  13.347
57064W        W22324  26.982  27.876   3.254
57065W        W22325  36.681   6.135   2.268
57066W        W22326  28.815  27.206   2.710
57067W        W22327  41.676   1.194  11.067
57068W        W22328  44.423  18.124  14.763
57069W        W22329  38.313  36.941   2.439
57070W        W22330  23.058   4.126   4.717
57071W        W22331  32.872  13.128  12.380
57072W        W22332  27.461  39.513  11.221
57073W        W22333   5.650  26.614  14.883
57074W        W22334  38.095  42.622   2.123
57075W        W22335  18.176   3.929   4.366
57076W        W22336  17.876   9.192  12.108
57077W        W22337  18.162  35.921   2.698
57078W        W22338  31.106  11.996   2.281
57079W        W22339  24.647  28.468  10.577
57080W        W22340   1.363  43.727  13.533
57081W        W22341   0.187  22.741   1.218
57082W        W22342  24.600  22.291   0.842
57083W        W22343  43.246  14.819   4.276
57084W        W22344  42.347   2.950  12.405
57085W        W22345   6.653  37.111   0.090
57086W        W22346  23.978   4.786  14.819
57087W        W22347  21.234  39.494   0.374
57088W        W22348  27.505  32.511  10.667
57089W        W22349  10.401  12.352  10.918
57090W        W22350  28.420   0.796   2.446
57091W        W22351   5.453  39.356  10.822
57092W        W22352  24.488   9.615  12.863
57093W        W22353  44.461   5.241  13.897
57094W        W22354  30.530  26.701  11.170
57095W        W22355  30.961  23.091   1.390
57096W        W22356  29.475  24.966   4.130
57097W        W22357   3.869  33.435   3.582
57098W        W22358  42.249  37.512   3.229
57099W        W22359   0.759  43.073  13.947
57100W        W22360  17.077  26.268  14.931
57101W        W22361  11.408  34.861   3.809
57102W        W22362  11.315  20.855  13.908
57103W        W22363  30.639  38.852  11.163
57104W        W22364  34.329  22.940   0.811
57105W        W22365  42.675  22.082   0.719
57106W        W22366  12.666  21.480   3.341
57107W        W22367  10.612  19.650   2.308
57108W        W22368  12.262   5.134  12.263
57109W        W22369   4.662   5.151  10.301
57110W        W22370  31.879  21.482  13.595
57111W        W22371  41.445  25.893   2.425
57112W        W22372  35.960  37.887   2.335
57113W        W22373  15.057   0.368   3.194
57114W        W22374   6.001  31.663  13.860
57115W        W22375  25.925   0.412   2.813
57116W        W22376  12.870   1.621   3.306
57117W        W22377   4.238  23.595  13.434
57118W        W22378  12.149  12.541  14.967
57119W        W22379  43.216  40.771  11.454
57120W        W22380  38.772  35.067  14.059
57121W        W22381  17.347  22.785   3.162
57122W        W22382  10.679  30.025   5.825
57123W        W22383  38.894  43.162   4.026
57124W        W22384  17.787  12.114   1.220
57125W        W22385  21.262   7.265   0.222
57126W        W22386   3.456  42.897  12.111
57127W        W22387  40.056  16.212   0.925
57128W        W22388  44.480   8.144   0.289
57129W        W22389  16.165  28.509   1.766
57130W        W22390  21.996  32.831  11.054
57131W        W22391  19.546   5.676  12.447
57132W        W22392  12.750   7.610  13.330
57133W        W22393   3.382  22.015   3.561
57134W        W22394   8.416  22.948  13.406
57135W        W22395  35.483  28.659   1.216
57136W        W22396  15.318  20.052   0.866
57137W        W22397  40.591   9.123   4.547
57138W        W22398  44.453  18.837   0.357
57139W        W22399   3.921  24.013  13.463
57140W        W22400  10.510  28.491   2.686
57141W        W22401  32.132  28.734  11.951
57142W        W22402  23.139   4.389  11.689
57143W        W22403  17.483  24.485  13.765
57144W        W22404   2.937  10.442   3.357
57145W        W22405  19.648  24.383   2.774
57146W        W22406  36.910  44.906  13.771
57147W        W22407  11.618  15.288   4.677
57148W        W22408  17.187  23.625   2.804
57149W        W22409  18.954  37.503   1.678
57150W        W22410  33.123  36.983   0.618
57151W        W22411  27.031  41.338  11.381
57152W        W22412  21.893   5.823   1.346
57153W        W22413  24.527  31.673   3.787
57154W        W22414  19.608  34.235  12.561
57155W        W22415  26.216  27.059  12.020
57156W        W22416  33.006   8.868   3.651
57157W        W22417  36.982  14.560  11.981
57158W        W22418  24.939  22.192   3.859
57159W        W22419  44.259   4.396  12.603
57160W        W22420  28.956  32.876   2.825
57161W        W22421  20.469  13.210  12.266
57162W        W22422  28.997  33.151   3.258
57163W        W22423  15.732  26.480  14.349
57164W        W22424   5.255  17.331   4.584
57165W        W22425  34.879  25.296   4.578
57166W        W22426  18.097  29.606   3.646
57167W        W22427  18.290  34.473   4.073
57168W        W22428  19.571  24.480  11.971
57169W        W22429  26.201  17.027  11.041
57170W        W22430  43.367  24.595   2.815
57171W        W22431  12.797   4.438  12.127
57172W        W22432  13.310   7.944   0.331
57173W        W22433  40.148  22.663  12.520
57174W        W22434  39.914  13.098   2.807
57175W        W22435  10.399  23.721   3.262
57176W        W22436  17.720  32.634  13.478
57177W        W22437   4.325   9.328  14.385
57178W        W22438  38.470  35.894  13.920
57179W        W22439  31.035  12.396   3.252
57180W        W22440  20.476   6.358   0.241
57181W        W22441  10.713  43.914  11.464
57182W        W22442  13.296  33.565  12.408
57183W        W22443  27.263  28.343  12.955
57184W        W22444  10.344  43.768   4.537
57185W        W22445  37.514  40.391  11.205
57186W        W22446  26.073  40.371   3.728
57187W        W22447  15.841  43.278  14.006
57188W        W22448  29.625  31.528   3.675
57189W        W22449  12.181   7.929   2.710
57190W        W22450   0.728  24.224   2.759
57191W        W22451  43.354  32.855   0.704
57192W        W22452  18.875  14.203  14.603
57193W        W22453  12.752   4.955  12.150
57194W        W22454  13.186  24.505  11.149
57195W        W22455  43.829  17.145   1.651
57196W        W22456  13.102   0.483   3.988
57197W        W22457  27.449  30.942   2.677
57198W        W22458  23.038   3.791   1.751
57199W        W22459  14.746  14.043  11.079
57200W        W22460  25.576  34.580  14.530
57201W        W22461  19.752  21.350   4.582
57202W        W22462   1.959  30.975   1.422
57203W        W22463   4.735   1.870  13.829
57204W        W22464  31.321   2.705   4.125
57205W        W22465  41.757   7.877  12.345
57206W        W22466  24.574   9.050   3.883
57207W        W22467  18.358  28.743   2.229
57208W        W22468  36.001  32.710  13.468
57209W        W22469   7.107  12.079  14.796
57210W        W22470  36.063  12.611  12.658
57211W        W22471  14.168  35.404  11.710
57212W        W22472  23.952  33.089   3.634
57213W        W22473  15.185   3.667   1.859
57214W        W22474   3.316  34.261   1.958
57215W        W22475   2.364  43.232   2.849
57216W        W22476   8.307  18.123   0.535
57217W        W22477   7.782   5.173  12.917
57218W        W22478  19.877   0.399   2.412
57219W        W22479  38.412  25.197  12.759
57220W        W22480  30.013  27.512   4.497
57221W        W22481  27.461   8.911   1.152
57222W        W22482  24.448  24.416   4.460
57223W        W22483  17.526  31.514   1.931
57224W        W22484   7.464  43.472   3.011
57225W        W22485  41.958  19.601  14.801
57226W        W22486  26.169   8.342   0.688
57227W        W22487  28.302  26.895  11.219
57228W        W22488  29.582  10.292   4.659
57229W        W22489   5.998   2.864  14.572
57230W        W22490   5.499  26.484   3.658
57231W        W22491   8.617   1.334   0.396
57232W        W22492   3.656   8.419   1.987
57233W        W22493  32.200  14.773   4.565
57234W        W22494  24.482  31.462  11.127
57235W        W22495  12.703   8.374   2.129
57236W        W22496  22.912  42.376  10.250
57237W        W22497  34.541  16.080  13.346
57238W        W22498  21.332   5.554   3.898
57239W        W22499  43.786   8.233   2.282
57240W        W22500   7.469   4.825   4.670
57241W        W22501  24.128   2.790   1.059
57242W        W22502  34.132  26.248   3.523
57243W        W22503   5.171  23.625   4.753
57244W        W22504  23.010   5.906  14.061
57245W        W22505  29.646   3.832  11.517
57246W        W22506  19.596  26.043   3.595
57247W        W22507  36.662   3.619   4.137
57248W        W22508  23.611  22.260   2.824
57249W        W22509  30.920  41.303  13.510
57250W        W22510  16.733  13.975  14.057
57251W        W22511  40.362  39.124   3.639
57252W        W22512  34.632  22.030  13.409
57253W        W22513  13.888  17.699   3.621
57254W        W22514   5.809  15.257   2.110
57255W        W22515  40.010  41.946  12.005
57256W        W22516  20.685   0.458  12.519
57257W        W22517  38.922  21.013   1.223
57258W        W22518   3.670  17.490  13.841
57259W        W22519  27.907  16.649   3.503
57260W        W22520  44.683  34.505  10.338
57261W        W22521  21.098  27.157   3.845
57262W        W22522  33.579   1.810   3.133
57263W        W22523   9.344  38.451  11.947
57264W        W22524  44.625  19.004   4.452
57265W        W22525  32.549  13.884   2.782
57266W        W22526   5.824  33.105   2.718
57267W        W22527  29.470  34.984   3.200
57268W        W22528   9.581  19.405   3.250
57269W        W22529  40.019  20.548  11.105
57270W        W22530  38.945  19.316  10.702
57271W        W22531  33.537  40.914   0.818
57272W        W22532   5.161  26.631   3.217
57273W        W22533  27.014  18.684   3.601
57274W        W22534  28.252  11.680  11.239
57275W        W22535  12.759  13.018   2.754
57276W        W22536  31.900  21.702  13.110
57277W        W22537  19.494   3.192   2.200
57278W        W22538  11.748  18.534  10.783
57279W        W22539  24.276  41.053   4.351
57280W        W22540  33.223  22.491   0.269
57281W        W22541  18.122  10.338   3.945
57282W        W22542  14.044  28.063  11.174
57283W        W22543   4.657  23.110   5.316
57284W        W22544  30.232  41.574  13.961
57285W        W22545  20.557  42.000   1.005
57286W        W22546  10.787   0.261   1.607
57287W        W22547  16.237  26.036  13.090
57288W        W22548  33.421  12.389   0.983
57289W        W22549  35.579  15.612   3.805
57290W        W22550  14.550  42.914  14.293
57291W        W22551  27.031  44.789   3.294
57292W        W22552  43.924  31.644  10.575
57293W        W22553   8.286  30.860   3.904
57294W        W22554  21.345  30.603   4.973
57295W        W22555  43.839  26.719   0.792
57296W        W22556  24.195   9.450  13.816
57297W        W22557  33.918  30.959  11.538
57298W        W22558  32.317  31.997   1.338
57299W        W22559  24.525  32.543  13.647
57300W        W22560  17.230  10.198   0.514
57301W        W22561  31.988  24.637  14.766
57302W        W22562  15.036  16.173   3.857
57303W        W22563  13.040   4.792   0.586
57304W        W22564  15.052  30.382   0.770
57305W        W22565  40.580  26.590  13.231
57306W        W22566  17.366  40.690   1.439
57307W        W22567  26.033  15.826  10.331
57308W        W22568  21.128  32.654   4.179
57309W        W22569  32.468   5.139   1.802
57310W        W22570   6.685   3.238  12.339
57311W        W22571  16.193   3.476  11.536
57312W        W22572   7.867   7.626   1.934
57313W        W22573  39.020   3.722   1.005
57314W        W22574  16.781  33.522   0.035
57315W        W22575  16.984  33.551   1.782
57316W        W22576  28.685  23.461  11.551
57317W        W22577  42.787   5.731  11.211
57318W        W22578  31.063  28.172  13.338
57319W        W22579   6.714  29.598   4.296
57320W        W22580  42.846   4.682  14.076
57321W        W22581  31.945  17.078   1.947
57322W        W22582  14.248  31.675  10.453
57323W        W22583   8.502  12.776   4.826
57324W        W22584  34.887  23.541  12.527
57325W        W22585   4.205  10.389  11.961
57326W        W22586  31.943  15.002   3.618
57327W        W22587   9.313  20.095   1.703
57328W        W22588  42.250  41.131  11.698
57329W        W22589  33.637  31.938   4.147
57330W        W22590  40.682  39.195   2.711
57331W        W22591  36.558  12.936  11.368
57332W        W22592  16.613  32.809   3.637
57333W        W22593  41.309   0.761   0.390
57334W        W22594  20.437  35.046  11.195
57335W        W22595   8.589  38.103  10.771
57336W        W22596  35.887  20.719   0.263
57337W        W22597  42.544  35.960  13.046
57338W        W22598  40.982  26.117   2.277
57339W        W22599   3.947  19.146  14.562
57340W        W22600  44.486  43.318   4.797
57341W        W22601  39.478  11.451  11.852
57342W        W22602   9.353   5.882  14.595
57343W        W22603  22.725  41.866  12.079
57344W        W22604  40.263  38.893  13.517
57345W        W22605  32.866  15.978   4.238
57346W        W22606  33.443  16.734   0.166
57347W        W22607   9.180  43.634   2.005
57348W        W22608  20.080  39.049  11.054
57349W        W22609  31.917  14.634   1.873
57350W        W22610  11.892  41.024  14.932
57351W        W22611  28.536  41.758   1.859
57352W        W22612  28.636  38.947   4.424
57353W        W22613  16.063  27.875  14.611
57354W        W22614  10.897  14.215   4.118
57355W        W22615  10.225   9.410  14.031
57356W        W22616  44.553  33.893  13.774
57357W        W22617  19.928  39.232  14.901
57358W        W22618  42.866  33.178  11.634
57359W        W22619   8.631  17.535  11.109
57360W        W22620  29.494  23.452  11.205
57361W        W22621  13.781  25.199   3.439
57362W        W22622  12.380  42.865  12.029
57363W        W22623  11.278  29.577  11.805
57364W        W22624   3.453  24.574   3.695
57365W        W22625  25.100  37.923  10.616
57366W        W22626  20.283  16.746   1.520
57367W        W22627   5.523  28.888   0.951
57368W        W22628  44.779  19.243  13.314
57369W        W22629  35.884   9.720   0.918
57370W        W22630  12.870  30.606  11.466
57371W        W22631  11.522  12.159   2.718
57372W        W22632  11.275  14.757  10.711
57373W        W22633  10.431  13.145  14.407
57374W        W22634  36.000  27.426   0.017
57375W        W22635  14.447  14.372   1.313
57376W        W22636  15.732  36.404  11.982
57377W        W22637  15.385  16.162   1.929
57378W        W22638   9.702  41.498   2.193
57379W        W22639  20.681  14.130   1.206
57380W        W22640  39.988  25.469  14.960
57381W        W22641  28.633  13.813  14.764
57382W        W22642  39.763  34.850  14.842
57383W        W22643   6.810   1.337   4.233
57384W        W22644   7.338  40.269  10.693
57385W        W22645  21.714  15.143   4.211
57386W        W22646  25.564  39.841   0.052
57387W        W22647  26.955  29.006   4.522
57388W        W22648  24.584  39.271   2.403
57389W        W22649  31.568  24.850   2.452
57390W        W22650  33.214  16.597   1.319
57391W        W22651   9.222  24.701  11.662
57392W        W22652   3.941  41.045   2.792
57393W        W22653   7.715  39.427   1.447
57394W        W22654  44.338  34.564  14.964
57395W        W22655  22.052  21.993   1.663
57396W        W22656  27.975   5.373  11.987
57397W        W22657  21.151  17.323  14.440
57398W        W22658  36.563  35.095  12.966
57399W        W22659  26.590  12.588   2.902
57400W        W22660  35.082  23.957   0.286
57401W        W22661  26.562   4.923  12.502
57402W        W22662  18.839  38.986   4.185
57403W        W22663  20.263   5.228   4.196
57404W        W22664  10.268  10.768   4.647
57405W        W22665   1.371   0.388   3.364
57406W        W22666  12.772  37.085  10.722
57407W        W22667  43.614  41.076  11.469
57408W        W22668   7.019  44.734  14.874
57409W        W22669  29.162  42.458   0.807
57410W        W22670  38.913  35.861  14.470
57411W        W22671   0.955  23.159  14.035
57412W        W22672  20.531  35.199  12.034
57413W        W22673  43.455  22.502  13.441
57414W        W22674  15.037  14.054  10.086
57415W        W22675   7.935  16.530  11.131
57416W        W22676  27.205  37.816   0.816
57417W        W22677  18.174  21.669   1.127
57418W        W22678  41.396  35.567  13.937
57419W        W22679  39.409   0.825   4.434
57420W        W22680   4.278  25.643  14.003
57421W        W22681   6.317  18.073   4.349
57422W        W22682  40.975   4.793  13.463
57423W        W22683  14.785  12.763   0.392
57424W        W22684  10.281  38.604   4.567
57425W        W22685  28.244  15.458  13.636
57426W        W22686  21.225  20.071  13.952
57427W        W22687   8.332   6.233  13.528
57428W        W22688  41.930  28.855   2.308
57429W        W22689   2.868  33.639  14.357
57430W        W22690  14.005  12.868   2.672
57431W        W22691   1.873  16.611   4.500
57432W        W22692   4.191  22.627   1.709
57433W        W22693  15.795  20.237  13.548
57434W        W22694  33.973  29.679  11.091
57435W        W22695  31.004  41.602  14.376
57436W        W22696  10.652  29.059  11.471
57437W        W22697  15.074   1.258   0.265
57438W        W22698  22.268  22.051   2.623
57439W        W22699  37.096  18.243   1.948
57440W        W22700  24.052   4.741   3.104
57441W        W22701  34.106  24.422  13.070
57442W        W22702   2.051  22.884  14.495
57443W        W22703   4.836  20.258  14.768
57444W        W22704  33.872  42.307  10.771
57445W        W22705  16.229  18.326  14.534
57446W        W22706   0.509  20.541   2.859
57447W        W22707  29.052  23.497   4.521
57448W        W22708  13.704  30.006   4.098
57449W        W22709   7.162  32.503   0.436
57450W        W22710   3.167  17.121   2.385
57451W        W22711  37.549  37.770  14.334
57452W        W22712  28.292  17.192   0.888
57453W        W22713  13.524  14.836  13.380
57454W        W22714  23.122  28.621  11.414
57455W        W22715  21.230  14.238   0.664
57456W        W22716  26.070   9.115  11.075
57457W        W22717  19.181  17.589  12.106
57458W        W22718   2.735  29.588   0.376
57459W        W22719  43.414  26.305   1.404
57460W        W22720  10.626  29.505   5.107
57461W        W22721  21.235  29.911  12.249
57462W        W22722  32.118   6.368  14.914
57463W        W22723  30.198  17.537   0.523
57464W        W22724  33.508  38.882  11.554
57465W        W22725   5.974   7.880  13.419
57466W        W22726   5.931  19.778   3.349
57467W        W22727  25.005  11.227  11.034
57468W        W22728  31.889  20.724   2.349
57469W        W22729  36.977  33.253   3.301
57470W        W22730  25.063   7.767   2.231
57471W        W22731  35.442  19.770  12.091
57472W        W22732  41.872  12.318  12.940
57473W        W22733  42.305  32.464   3.615
57474W        W22734  25.684   7.141  13.918
57475W        W22735  10.776  31.964   1.459
57476W        W22736  40.866  21.314   3.959
57477W        W22737  25.751   3.166  13.565
57478W        W22738  26.515  25.292   0.917
57479W        W22739  36.780  42.547  13.901
57480W        W22740  25.942  22.686  12.423
57481W        W22741  32.533  34.128   4.341
57482W        W22742  19.411   0.342   3.319
57483W        W22743  22.564  41.566   1.061
57484W        W22744  23.668  11.324   4.564
57485W        W22745  19.355   0.228  12.333
57486W        W22746  21.798   0.152   3.145
57487W        W22747  17.044  37.437   5.081
57488W        W22748  10.144   6.402  14.979
57489W        W22749  10.441   8.830  13.338
57490W        W22750  40.581  17.825  14.083
57491W        W22751  22.193  30.585  11.638
57492W        W22752  32.995  19.721  13.771
57493W        W22753  14.249  10.326   1.642
57494W        W22754   9.396  23.026  13.407
57495W        W22755  42.050   0.947   0.501
57496W        W22756  35.005  10.230  14.804
57497W        W22757  30.082   1.872  10.679
57498W        W22758  38.377  15.178   3.865
57499W        W22759  12.060  27.577  10.567
57500W        W22760  33.104   9.069   0.677
57501W        W22761  11.206   9.633   2.806
57502W        W22762  38.800  16.900   2.141
57503W        W22763  20.851  30.460   3.952
57504W        W22764  43.100  33.551   1.199
57505W        W22765   7.962  34.505  13.832
57506W        W22766  12.107   0.125   1.244
57507W        W22767  42.858  15.725  13.385
57508W        W22768  43.398  10.710   5.398
57509W        W22769   6.664  34.721   4.086
57510W        W22770  27.202  19.241  14.314
57511W        W22771  13.707  43.451   1.790
57512W        W22772  42.359  37.061   4.931
57513W        W22773  39.410   9.797   4.033
57514W        W22774   3.981   6.245   0.666
57515W        W22775  33.305  31.085  13.977
57516W        W22776  31.691   8.085   2.209
57517W        W22777  22.617  15.769   2.172
57518W        W22778  40.993  35.287   4.528
57519W        W22779  25.760  33.138   3.702
57520W        W22780  28.186   8.692  14.064
57521W        W22781  29.850  25.552   0.711
57522W        W22782  23.364   0.158   3.239
57523W        W22783  33.974  41.106  11.548
57524W        W22784  19.631  28.254  11.539
57525W        W22785  33.828  24.135  13.980
57526W        W22786  23.241  29.436  10.842
57527W        W22787   2.203  38.650   4.933
57528W        W22788  20.655  39.792  12.052
57529W        W22789   7.818  44.209  13.007
57530W        W22790  36.876   8.420  14.496
57531W        W22791   0.982  44.494   4.018
57532W        W22792   4.619  42.796  13.643
57533W        W22793  22.668  38.440   3.323
57534W        W22794  21.674   7.385   3.828
57535W        W22795  15.842  15.760   1.350
57536W        W22796  44.004  18.298   0.937
57537W        W22797  11.061  23.448   2.675
57538W        W22798  39.831  14.160  11.140
57539W        W22799  10.499   8.631   3.637
57540W        W22800  20.246   2.503  11.170
57541W        W22801  36.859  16.459   2.195
57542W        W22802  28.741  13.106   1.218
57543W        W22803   1.965   8.893   0.922
57544W        W22804  33.860  22.311  13.880
57545W        W22805  28.203   4.372   0.276
57546W        W22806  12.706  21.065  10.702
57547W        W22807   2.678  28.464   3.635
57548W        W22808  40.425  10.279   1.900
57549W        W22809  25.823  19.793  13.804
57550W        W22810  13.854   1.442   4.039
57551W        W22811   5.193  41.543   1.910
57552W        W22812   6.671  35.694  10.455
57553W        W22813   9.213  40.051   4.131
57554W        W22814  42.405  44.585  11.607
57555W        W22815  36.133   0.934   3.106
57556W        W22816  36.864  18.110   4.645
57557W        W22817   9.000  17.088  13.302
57558W        W22818  12.291  22.680   2.173
57559W        W22819  43.980  26.104  13.048
57560W        W22820  32.402   0.471   1.453
57561W        W22821  36.871   3.379  10.276
57562W        W22822  34.772  30.463  12.600
57563W        W22823  14.043   6.923   4.643
57564W        W22824  35.651  23.748  14.818
57565W        W22825  20.043  31.911  12.344
57566W        W22826  22.011  12.936   4.521
57567W        W22827  29.459   7.294  13.050
57568W        W22828  30.112  16.223  14.184
57569W        W22829  26.674   3.829   3.164
57570W        W22830   2.558   0.326   3.692
57571W        W22831  31.388  35.849  11.653
57572W        W22832  28.301  11.972   1.187
57573W        W22833  17.212   6.322  14.606
57574W        W22834   8.618   7.912  11.580
57575W        W22835   1.443  11.370  12.786
57576W        W22836  38.052  30.253   4.039
57577W        W22837  11.831  20.711   4.294
57578W        W22838  16.046  41.329   0.819
57579W        W22839  39.870   5.784  14.855
57580W        W22840  29.206  40.482   3.232
57581W        W22841  38.098  16.094  14.044
57582W        W22842  30.556   9.635   2.224
57583W        W22843  36.111  11.831   4.059
57584W        W22844  33.322  10.979   0.790
57585W        W22845  31.454  40.515   2.692
57586W        W22846  29.067   8.313  13.918
57587W        W22847  32.421  11.992  14.721
57588W        W22848  12.579   8.647  14.491
57589W        W22849   1.318  35.324  11.650
57590W        W22850   0.430  34.442  14.360
57591W        W22851  29.329  34.558   2.917
57592W        W22852   9.191  39.779   1.343
57593W        W22853  12.849   1.861  13.272
57594W        W22854  17.474  19.088   2.598
57595W        W22855  21.646  33.426   4.841
57596W        W22856  18.896   0.282   3.320
57597W        W22857  19.497  13.503   2.817
57598W        W22858   8.849  43.279  12.956
57599W        W22859  41.509  14.291   3.692
57600W        W22860  18.364  44.258  14.429
57601W        W22861   9.231  36.603  13.034
57602W        W22862  34.963  24.664  11.583
57603W        W22863  12.086   1.284   1.809
57604W        W22864  21.762  35.887   0.941
57605W        W22865   2.359   6.893   5.068
57606W        W22866   2.006   9.594   3.606
57607W        W22867   6.083  16.747   4.019
57608W        W22868  12.595  12.241   2.860
57609W        W22869  18.241   3.284  12.406
57610W        W22870   8.837  20.566  11.249
57611W        W22871  13.898  41.774  11.206
57612W        W22872  18.372  14.257   1.931
57613W        W22873  29.541  10.896   0.259
57614W        W22874  16.730  27.028   4.062
57615W        W22875  33.128  20.085  14.128
57616W        W22876  31.421  13.200   3.108
57617W        W22877  38.092  15.181  12.445
57618W        W22878  35.006  23.300   4.242
57619W        W22879   7.869   5.714   0.152
57620W        W22880   3.210   0.519  14.849
57621W        W22881   9.348  38.519   4.177
57622W        W22882   9.710   2.519  11.587
57623W        W22883  12.056   8.632  14.598
57624W        W22884   6.455  11.399  13.855
57625W        W22885  17.796  18.536  14.477
57626W        W22886   9.136  24.032  13.874
57627W        W22887   6.208  41.109   1.818
57628W        W22888  30.854  16.608  10.865
57629W        W22889  43.048  35.573   0.387
57630W        W22890  16.908  40.047   4.028
57631W        W22891  44.938  39.556  11.553
57632W        W22892   1.324  39.232   1.523
57633W        W22893  38.955   5.175   2.297
57634W        W22894  23.240  36.964  14.045
57635W        W22895  44.493   6.807  10.542
57636W        W22896  21.820  26.146   2.468
57637W        W22897   1.523  25.583  14.840
57638W        W22898  35.905  20.264  10.757
57639W        W22899  21.786  28.704  11.568
57640W        W22900  44.842  20.280   2.182
57641W        W22901  10.696  21.959  13.611
57642W        W22902  32.892  21.204   1.176
57643W        W22903  10.420   9.260   4.229
57644W        W22904   7.309  40.319   3.320
57645W        W22905  31.264  39.843   4.742
57646W        W22906  26.506   8.835  11.031
57647W        W22907  24.429  11.717  10.376
57648W        W22908  37.456  18.689  12.877
57649W        W22909  38.046  25.277   4.219
57650W        W22910  20.768  23.841   3.852
57651W        W22911  40.264  18.005   0.387
57652W        W22912  40.457  12.096  10.725
57653W        W22913  26.573  39.806   1.353
57654W        W22914  22.746  31.929   1.279
57655W        W22915   5.875  43.772   4.152
57656W        W22916  36.065  19.477   0.707
57657W        W22917  17.097   3.435   1.797
57658W        W22918  26.456  22.825   4.551
57659W        W22919  27.990  30.410  11.567
57660W        W22920  39.589  20.620   2.002
57661W        W22921  43.872  30.995   3.080
57662W        W22922  23.382   4.151  10.718
57663W        W22923  26.114  12.989  14.688
57664W        W22924   9.904  30.410  10.704
57665W        W22925   1.716  39.804   3.143
57666W        W22926  30.186   8.167  14.896
57667W        W22927  27.426   8.253  14.354
57668W        W22928   5.584  23.974   0.856
57669W        W22929   1.486  22.146   4.047
57670W        W22930  37.593   8.504   1.251
57671W        W22931   7.103  33.496   1.930
57672W        W22932  36.500   9.244   3.886
57673W        W22933   4.661  37.798   3.303
57674W        W22934  32.481   0.776  12.891
57675W        W22935  24.993  31.274  13.423
57676W        W22936  24.274  31.748  11.515
57677W        W22937  13.833  28.403   3.995
57678W        W22938   0.783  30.655   2.811
57679W        W22939   8.646  35.319  13.077
57680W        W22940  10.318  33.678   4.630
57681W        W22941  16.272  13.871  13.010
57682W        W22942  30.506  36.360  11.664
57683W        W22943  30.668  14.329   4.215
57684W        W22944  24.925  23.710  10.309
57685W        W22945  41.825  34.955   2.741
57686W        W22946  13.347  42.692  12.769
57687W        W22947   2.168  16.398   3.422
57688W        W22948   5.458   5.843   4.763
57689W        W22949  33.981  23.052  13.158
57690W        W22950   6.837  13.548  12.092
57691W        W22951  13.811  19.895   0.545
57692W        W22952   4.674   0.930  13.625
57693W        W22953  22.555  16.200  11.114
57694W        W22954  31.998   2.340  14.357
57695W        W22955  11.735   9.330   0.337
57696W        W22956  38.568  31.494  12.054
57697W        W22957  24.256  21.585  14.746
57698W        W22958   5.262  43.995   2.354
57699W        W22959   2.430  27.176   2.826
57700W        W22960  12.727  33.374   4.306
57701W        W22961  43.945  44.800   0.136
57702W        W22962  24.663   7.435  12.448
57703W        W22963  16.951  11.774   4.708
57704W        W22964  30.481  10.309  14.912
57705W        W22965  10.248  34.639   0.357
57706W        W22966  44.015  37.951  11.020
57707W        W22967  32.498  19.673   4.101
57708W        W22968  44.266  30.874  14.015
57709W        W22969  39.055  24.949   5.037
57710W        W22970   9.909  28.167  14.842
57711W        W22971  32.948  16.083  11.874
57712W        W22972  24.467  15.532   2.342
57713W        W22973   5.943   3.745  14.426
57714W        W22974  36.051   1.206  14.809
57715W        W22975   8.670  41.778  14.806
57716W        W22976  35.891  14.693   1.796
57717W        W22977   2.350  16.405  11.107
57718W        W22978  33.978  37.668  14.930
57719W        W22979   8.247  16.232   2.903
57720W        W22980  44.458  40.640  14.371
57721W        W22981  38.358  37.879   4.098
57722W        W22982  11.265  19.486  10.710
57723W        W22983  20.118  39.816  10.564
57724W        W22984  41.536   7.598   4.464
57725W        W22985  13.723  24.803   3.810
57726W        W22986  18.300  42.231   1.243
57727W        W22987  23.682  34.556  14.724
57728W        W22988  41.437  23.723  13.990
57729W        W22989  32.145  27.483   1.148
57730W        W22990  39.926  29.484   0.458
57731W        W22991   7.744   8.306   1.318
57732W        W22992   7.359  29.393  12.173
57733W        W22993  42.954  15.269   1.476
57734W        W22994  38.538   6.074  12.515
57735W        W22995   7.810  28.566  13.367
57736W        W22996  17.115  25.894   2.969
57737W        W22997  25.922  33.957   3.328
57738W        W22998  20.013   9.718   0.524
57739W        W22999  12.608  24.119   0.625
57740W        W23000  34.197  21.905   1.904
57741W        W23001  10.909   1.905  12.908
57742W        W23002  23.468   0.438   2.778
57743W        W23003  28.350  41.717  11.158
57744W        W23004  27.936   1.872   1.585
57745W        W23005  21.914  23.193  12.092
57746W        W23006  35.417   7.671  12.403
57747W        W23007  29.139  15.772   0.817
57748W        W23008  31.853  33.893  13.823
57749W        W23009  44.293  41.425  13.850
57750W        W23010  17.337  26.727  10.689
57751W        W23011   2.876  13.412  12.819
57752W        W23012  34.516  35.401  11.514
57753W        W23013  38.937   4.495  14.532
57754W        W23014  11.849  42.256   3.150
57755W        W23015   6.232  13.961   4.723
57756W        W23016  21.879   7.831   1.187
57757W        W23017  30.411   8.799   2.299
57758W        W23018   6.352  13.892   2.244
57759W        W23019  16.418  22.146   0.397
57760W        W23020  42.323   3.384  14.933
57761W        W23021   0.528  27.100  14.540
57762W        W23022  19.330   2.868  11.557
57763W        W23023  31.975  18.401  14.232
57764W        W23024  28.521  38.564   0.094
57765W        W23025  39.344  43.008   2.367
57766W        W23026  40.968  21.861  12.409
57767W        W23027  21.109   7.997  10.206
57768W        W23028   2.495   1.900  14.946
57769W        W23029   6.128  20.166  14.391
57770W        W23030  41.798  14.701  10.704
57771W        W23031  28.501   8.723   1.719
57772W        W23032  40.905  30.481   4.346
57773W        W23033  26.427  36.798  13.045
57774W        W23034  11.303  13.085  14.706
57775W        W23035   3.744  13.734   1.502
57776W        W23036  26.918   3.225  11.566
57777W        W23037  26.731   4.358   5.053
57778W        W23038   9.717  22.073   0.828
57779W        W23039  14.597   3.865   0.452
57780W        W23040  12.630  40.086  12.771
57781W        W23041  24.440   0.260   1.013
57782W        W23042   3.327  14.204   2.216
57783W        W23043   3.179  32.329   0.760
57784W        W23044  20.140   9.413  12.524
57785W        W23045  19.648  33.425   4.648
57786W        W23046  43.061  34.604   3.783
57787W        W23047  35.088  42.378  14.745
57788W        W23048  11.614  27.057  12.945
57789W        W23049  12.684  39.501  13.462
57790W        W23050  42.458   3.518  11.080
57791W        W23051  28.468  35.129   2.330
57792W        W23052   2.754  26.789  14.878
57793W        W23053   9.684  10.720   1.469
57794W        W23054  29.880   2.810   4.448
57795W        W23055  38.332   8.193   4.221
57796W        W23056  22.662   9.324   4.695
57797W        W23057  44.263  42.969  12.582
57798W        W23058  30.949  30.509   1.196
57799W        W23059  18.465  41.728   1.417
57800W        W23060  15.123   0.749   1.671
57801W        W23061   6.822  35.351   1.249
57802W        W23062  26.676   9.867  12.009
57803W        W23063   4.357   2.895   0.479
57804W        W23064  33.592  17.825  11.883
57805W        W23065  37.613  41.162  14.943
57806W        W23066  42.742  23.633   3.271
57807W        W23067   3.529  10.734   0.495
57808W        W23068  39.502  41.479  13.247
57809W        W23069  16.345   8.858   4.784
57810W        W23070  18.581   2.328  11.525
57811W        W23071  24.217  38.482  14.225
57812W        W23072  27.973  35.396  12.438
57813W        W23073  34.565  41.300   3.682
57814W        W23074   8.172  15.604   3.708
57815W        W23075   1.387  22.939   1.377
57816W        W23076  40.727   6.271  10.339
57817W        W23077  39.297  27.144   0.415
57818W        W23078  10.189  11.389   1.605
57819W        W23079   9.794  20.119   1.470
57820W        W23080  13.690   9.101   3.807
57821W        W23081   4.811  37.376   9.972
57822W        W23082  24.224  17.530  13.405
57823W        W23083  16.445  44.770  12.136
57824W        W23084   6.092  30.936  12.833
57825W        W23085  41.462  38.721  13.838
57826W        W23086  25.239  10.983  14.833
57827W        W23087  25.554  21.822  12.769
57828W        W23088  25.525  23.811   2.836
57829W        W23089  11.104  24.072  12.506
57830W        W23090  38.955  28.711  10.685
57831W        W23091  13.745  25.642   0.745
57832W        W23092  33.570  17.757   3.730
57833W        W23093   2.787  22.243   4.248
57834W        W23094  27.330   3.065  11.330
57835W        W23095  31.713  17.588  11.989
57836W        W23096  26.232  33.416  11.975
57837W        W23097  38.995  35.552  13.968
57838W        W23098  11.836  10.178   3.151
57839W        W23099  38.014  33.432   0.440
57840W        W23100  26.489  29.792  10.666
57841W        W23101   5.218  13.362  14.942
57842W        W23102   1.400   4.386   4.687
57843W        W23103  31.552   7.106   0.001
57844W        W23104  26.741  14.215   4.634
57845W        W23105  10.363  10.123  12.866
57846W        W23106  22.605  36.016  12.571
57847W        W23107  15.135  26.831  12.808
57848W        W23108  40.848  15.505   4.874
57849W        W23109   0.041   8.312   2.377
57850W        W23110   1.848  20.676   0.315
57851W        W23111  29.198  21.178  11.094
57852W        W23112  18.201   8.536   3.701
57853W        W23113  35.039  22.982   0.400
57854W        W23114  32.344  34.791   3.819
57855W        W23115  35.194  32.306   4.155
57856W        W23116   1.718  17.012  10.596
57857W        W23117   7.132  32.602   3.647
57858W        W23118  16.107  36.153  14.839
57859W        W23119  39.806   8.753   3.596
57860W        W23120  37.227   8.335  13.532
57861W        W23121  30.956   4.404  14.042
57862W        W23122  16.292  28.356  10.407
57863W        W23123   6.136  22.202  11.083
57864W        W23124   3.556  13.192  11.037
57865W        W23125  29.847  39.921   1.822
57866W        W23126  40.100  22.696  14.287
57867W        W23127  13.751  37.966   1.716
57868W        W23128   1.655   9.596   4.884
57869W        W23129  12.174  39.383  11.186
57870W        W23130  29.999  26.746   0.868
57871W        W23131  32.507  27.663  12.432
57872W        W23132  27.648   3.026  11.725
57873W        W23133  25.648   8.538   4.520
57874W        W23134  18.836   6.304   3.259
57875W        W23135  40.596  13.236   3.378
57876W        W23136  38.509   8.400  12.050
57877W        W23137  41.477  41.580   0.933
57878W        W23138  10.358  36.161  11.556
57879W        W23139   5.489   3.766  12.648
57880W        W23140  12.487   3.543  13.001
57881W        W23141   4.648  28.543  10.747
57882W        W23142  30.899   3.659  11.004
57883W        W23143  27.149  10.678  14.713
57884W        W23144  20.519  37.643   4.632
57885W        W23145  24.009  42.815  10.396
57886W        W23146   4.861  41.581   1.423
57887W        W23147  22.226  16.392  11.469
57888W        W23148   5.752  11.831  14.330
57889W        W23149  42.813  30.103  12.818
57890W        W23150   6.648  25.866   2.297
57891W        W23151  25.644  14.597  14.351
57892W        W23152  39.947  22.166   0.467
57893W        W23153  23.647  14.139   1.875
57894W        W23154   6.377   8.560   0.304
57895W        W23155  18.075   4.444  11.913
57896W        W23156  30.617  10.708  13.497
57897W        W23157  44.473  23.638   1.924
57898W        W23158  24.069  24.488   1.683
57899W        W23159   4.771  23.689  14.946
57900W        W23160  22.103   1.476  13.574
57901W        W23161  36.692  18.824  12.615
57902W        W23162  29.542  31.023  13.501
57903W        W23163  41.178  28.927  11.693
57904W        W23164  32.325  20.533  14.004
57905W        W23165   4.344  26.529   5.031
57906W        W23166  12.891   9.661   0.883
57907W        W23167  10.436  42.843  14.149
57908W        W23168   3.206  10.127   2.319
57909W        W23169   7.751  21.477   4.080
57910W        W23170  44.977  36.597  11.872
57911W        W23171  42.539  21.990   0.241
57912W        W23172   5.288  29.629   4.144
57913W        W23173  25.903  34.307   4.631
57914W        W23174   9.023  25.678   9.853
57915W        W23175  35.295  10.431   3.477
57916W        W23176  10.657  33.160   1.910
57917W        W23177  23.521  44.938   0.220
57918W        W23178   4.184  22.115  14.337
57919W        W23179   1.877  15.220  14.507
57920W        W23180  15.003  16.729   3.261
57921W        W23181  32.236   4.887   4.544
57922W        W23182  31.673   4.735  10.702
57923W        W23183  18.743  35.505  11.774
57924W        W23184  34.370  14.354  13.882
57925W        W23185  38.023  44.155  14.862
57926W        W23186   6.231  29.520  11.480
57927W        W23187  17.845   4.809  10.706
57928W        W23188  28.515  17.281   4.742
57929W        W23189  40.266  33.620  12.388
57930W        W23190   8.173  35.448   0.304
57931W        W23191  16.340  16.523  10.834
57932W        W23192  20.486  21.707  13.287
57933W        W23193  30.357  14.215  12.223
57934W        W23194  13.352  30.987   3.600
57935W        W23195  38.748  30.964   2.737
57936W        W23196  23.987  20.826  14.530
57937W        W23197  43.893  24.615  14.864
57938W        W23198  36.124  17.058  14.989
57939W        W23199  11.594  24.821   0.441
57940W        W23200  22.701  18.986  14.382
57941W        W23201  36.444  34.912  10.107
57942W        W23202  11.750  23.631  12.451
57943W        W23203  22.568  36.387   3.110
57944W        W23204  29.853   2.665   0.372
57945W        W23205  23.000   8.401   4.711
57946W        W23206   1.518   6.155   2.721
57947W        W23207   8.338  17.523   4.106
57948W        W23208   1.853  29.025  10.508
57949W        W23209  31.188  10.797  12.479
57950W        W23210  39.382  37.838  13.879
57951W        W23211  39.182  42.023   1.749
57952W        W23212   6.191   5.424  12.862
57953W        W23213  13.204   5.406   1.346
57954W        W23214  39.295  14.804   3.584
57955W        W23215  26.630  35.086   9.565
57956W        W23216   8.356  30.528  10.648
57957W        W23217  17.027  44.718   1.815
57958W        W23218  17.200  38.129  13.278
57959W        W23219   5.306  19.882  14.285
57960W        W23220  43.695  44.864  12.879
57961W        W23221  41.730  24.341   4.561
57962W        W23222  35.464  11.812  14.101
57963W        W23223  44.984  26.682   4.174
57964W        W23224   5.179  36.940   3.551
57965W        W23225  40.513  27.401  13.643
57966W        W23226  41.482  27.167  14.591
57967W        W23227  40.525  36.872   3.727
57968W        W23228   4.326  44.982  12.248
57969W        W23229  42.122   5.912  12.456
57970W        W23230  24.999  21.525   4.511
57971W        W23231   8.801  38.900  14.333
57972W        W23232   7.024  41.571   2.835
57973W        W23233   5.861  24.167  13.121
57974W        W23234  34.669  30.804   0.256
57975W        W23235  29.414  26.802   4.721
57976W        W23236  42.100  34.626   2.378
57977W        W23237  33.499  33.391   3.882
57978W        W23238  34.985   3.304  11.188
57979W        W23239  39.071  17.288   4.062
57980W        W23240  41.040   2.430   0.725
57981W        W23241   7.496  39.057   4.148
57982W        W23242  16.280  10.456  13.184
57983W        W23243   9.799  12.741  12.867
57984W        W23244  41.512  27.458  12.075
57985W        W23245  42.487  10.141   2.909
57986W        W23246  35.043  41.612   2.070
57987W        W23247  11.427  39.558   2.617
57988W        W23248  23.038  31.727   2.260
57989W        W23249  11.281  14.935   1.219
57990W        W23250  16.102   4.427  14.478
57991W        W23251   0.029  37.859  14.910
57992W        W23252  39.426  44.465  12.162
57993W        W23253  28.278  35.434  13.684
57994W        W23254  23.071  29.590   1.159
57995W        W23255  20.234  37.629   3.321
57996W        W23256   3.909  19.772   3.311
57997W        W23257  13.234  27.060   4.792
57998W        W23258  22.112  31.895  13.899
57999W        W23259  28.291  19.563  10.540
58000W        W23260  24.978   1.771   2.161
58001W        W23261   7.537  11.635  12.608
58002W        W23262  20.208  42.588  14.873
58003W        W23263  16.395  36.006   1.999
58004W        W23264  28.747  44.327  13.070
58005W        W23265  40.220  30.101  12.070
58006W        W23266  27.170  30.370   2.302
58007W        W23267   8.898  39.403   3.453
58008W        W23268  31.942  29.427   3.111
58009W        W23269  22.123  38.835   0.273
58010W        W23270  33.091  17.821  14.944
58011W        W23271   5.776  40.623   1.701
58012W        W23272  39.100   7.695   0.584
58013W        W23273  33.764  24.150   2.695
58014W        W23274   1.811  21.967  12.519
58015W        W23275  19.684  28.711  12.403
58016W        W23276  22.975  17.967   4.938
58017W        W23277  16.365  14.686  13.253
58018W        W23278  43.922   1.370  11.626
58019W        W23279  38.497  13.837   3.951
58020W        W23280   7.984   2.277   4.989
58021W        W23281  38.772  18.831   5.093
58022W        W23282  41.070  22.962   1.739
58023W        W23283  30.860  37.217   0.894
58024W        W23284  37.067  28.486   3.749
58025W        W23285  30.059  37.451  12.051
58026W        W23286  38.320  28.071   3.176
58027W        W23287  13.330  38.248  11.135
58028W        W23288  25.419  28.153   4.842
58029W        W23289   1.857  24.399   1.275
58030W        W23290  37.398  27.304   3.157
58031W        W23291  24.825   2.370  11.605
58032W        W23292  27.038  35.841  14.456
58033W        W23293  30.133  16.404  12.839
58034W        W23294  29.410  23.277  13.507
58035W        W23295  11.085  21.683   2.252
58036W        W23296  35.181  16.856   4.924
58037W        W23297  24.950  10.746   2.728
58038W        W23298  28.943  42.180  13.885
58039W        W23299  19.631  44.508  13.334
58040W        W23300  25.008  24.684   2.696
58041W        W23301  12.768  25.186  14.231
58042W        W23302  31.075  34.986  13.582
58043W        W23303   2.033   2.362  12.954
58044W        W23304   3.948  26.394   2.341
58045W        W23305  44.439  14.798  10.042
58046W        W23306  41.386  10.261  11.902
58047W        W23307   4.180  33.417  11.962
58048W        W23308  20.126  42.209  11.445
58049W        W23309  18.078  24.779   3.793
58050W        W23310   2.848  43.079  13.808
58051W        W23311  23.457   0.348  13.504
58052W        W23312   6.766  15.808   1.694
58053W        W23313  29.000  39.415   1.259
58054W        W23314  21.994   6.140   4.887
58055W        W23315  18.912  41.537  10.708
58056W        W23316  16.849  27.480  11.156
58057W        W23317   2.894  11.932  10.862
58058W        W23318  20.446  20.577   0.879
58059W        W23319  38.025   5.450   3.038
58060W        W23320  17.206   4.773  13.502
58061W        W23321   0.975  39.931  13.225
58062W        W23322  13.172  24.273  13.125
58063W        W23323  25.207  25.286   1.789
58064W        W23324  44.656   0.444   2.770
58065W        W23325   0.345  40.356   0.807
58066W        W23326  25.588  37.819   3.243
58067W        W23327  35.440  17.983  10.825
58068W        W23328   1.921  36.393  12.108
58069W        W23329  25.597   4.546   0.338
58070W        W23330  42.201  43.058   1.922
58071W        W23331  15.935  37.870  13.347
58072W        W23332  21.356   5.200   0.713
58073W        W23333  11.863   5.314  11.433
58074W        W23334  32.757   3.842  12.667
58075W        W23335  10.188  18.979   4.089
58076W        W23336   1.753  26.062  11.256
58077W        W23337  16.690  36.964  14.124
58078W        W23338   7.180  30.563   3.822
58079W        W23339   4.070  16.576  13.952
58080W        W23340  41.907   2.072  13.862
58081W        W23341   4.938  29.435   1.976
58082W        W23342  35.066  37.982  12.886
58083W        W23343  34.488  42.557   2.343
58084W        W23344   5.939  44.111   2.004
58085W        W23345   0.070  25.223   1.264
58086W        W23346  33.943   4.323  11.908
58087W        W23347  39.918  36.429   3.508
58088W        W23348  29.137  40.249  13.447
58089W        W23349  27.435   4.544  13.979
58090W        W23350  32.948   4.701   9.845
58091W        W23351   8.113  25.637  12.128
58092W        W23352  11.992  29.897  10.061
58093W        W23353  10.396   2.866   2.872
58094W        W23354  10.812  38.349   0.264
58095W        W23355   0.934   2.790  13.458
58096W        W23356  35.097  24.988  12.530
58097W        W23357  32.131  17.118  14.850
58098W        W23358  22.364  33.486  10.090
58099W        W23359  35.195  15.333   0.009
58100W        W23360  33.603   9.675   3.827
58101W        W23361  26.589  30.490   0.610
58102W        W23362   1.016   1.940   3.643
58103W        W23363  22.653   6.417   4.287
58104W        W23364  24.171  14.805   1.586
58105W        W23365  15.863  21.778   2.331
58106W        W23366   4.271  29.209  14.856
58107W        W23367   4.296  35.895   3.692
58108W        W23368  29.038   3.958   2.217
58109W        W23369   9.260   7.920   4.929
58110W        W23370  15.342   8.329   3.577
58111W        W23371  35.567  33.007  13.292
58112W        W23372  43.479   9.563   1.107
58113W        W23373  26.210  16.387   1.724
58114W        W23374  38.075  42.879   1.679
58115W        W23375  29.502   2.854   4.815
58116W        W23376  11.827  29.208  11.307
58117W        W23377  21.996  44.503   3.091
58118W        W23378  37.564  25.700  14.978
58119W        W23379  14.096  12.010   0.162
58120W        W23380   1.839  10.419   0.961
58121W        W23381   1.007  16.708   4.272
58122W        W23382  35.819  11.484   0.851
58123W        W23383  40.555  20.452  13.074
58124W        W23384  27.263  23.788  12.854
58125W        W23385  35.566  31.350  12.597
58126W        W23386  40.033  35.561  10.699
58127W        W23387  38.852  19.587   0.793
58128W        W23388  41.308  12.767   0.862
58129W        W23389  25.041  27.909   4.188
58130W        W23390  27.449  17.242  14.829
58131W        W23391  41.645   2.785   4.338
58132W        W23392  14.324  30.949   0.680
58133W        W23393  34.058  32.086  12.043
58134W        W23394  24.980  22.085  14.908
58135W        W23395   5.498  11.610   0.177
58136W        W23396   9.912  37.362  13.996
58137W        W23397  15.634  37.113  10.541
58138W        W23398  24.032   5.674   2.917
58139W        W23399  37.129   7.732   3.667
58140W        W23400  13.722   3.200  10.699
58141W        W23401  33.464  23.238   1.723
58142W        W23402  35.786   8.151   0.852
58143W        W23403  20.053  27.918   1.960
58144W        W23404  15.668  19.777   3.299
58145W        W23405  28.599  38.095  10.992
58146W        W23406   9.720   3.404   1.803
58147W        W23407  33.598  30.866   5.048
58148W        W23408  12.786  25.257   1.746
58149W        W23409  38.090   6.013   1.303
58150W        W23410  25.014  40.229  13.468
58151W        W23411  24.094  38.715  11.132
58152W        W23412  33.611  22.150  13.414
58153W        W23413  14.373  39.069  13.834
58154W        W23414  21.605   5.785   2.084
58155W        W23415   1.561  14.081   1.357
58156W        W23416  15.561  40.287  10.505
58157W        W23417  10.897  37.066   3.604
58158W        W23418  34.804  13.133  12.530
58159W        W23419  19.846  33.404   2.312
58160W        W23420  36.011  16.642   4.390
58161W        W23421  41.492  22.662  13.062
58162W        W23422  38.173  23.205  12.480
58163W        W23423  32.261  25.427   4.442
58164W        W23424   9.283  28.162   3.140
58165W        W23425  32.439   0.143   2.363
58166W        W23426  19.098  21.619  12.015
58167W        W23427  16.674  24.493  13.501
58168W        W23428  29.757  27.345  12.747
58169W        W23429  42.430  32.324  12.685
58170W        W23430  27.620   1.505  14.089
58171W        W23431  30.667   2.957  12.031
58172W        W23432  21.738  12.130   1.556
58173W        W23433  11.679  17.281  14.925
58174W        W23434   5.393  22.551   1.182
58175W        W23435  32.790  20.349   2.732
58176W        W23436   8.151  15.446  13.436
58177W        W23437  18.962   3.764   1.110
58178W        W23438  11.791  24.887   2.226
58179W        W23439   4.715   3.380   0.978
58180W        W23440   8.417  43.288  13.793
58181W        W23441  38.261  39.961  10.167
58182W        W23442  20.521  31.061  13.090
58183W        W23443   7.133  38.191  11.595
58184W        W23444  22.583  13.828   4.539
58185W        W23445  33.492  42.854   3.701
58186W        W23446  35.470   8.173  10.537
58187W        W23447   4.319  37.680  13.944
58188W        W23448  32.330  32.366  12.952
58189W        W23449  20.619  18.591   4.662
58190W        W23450  41.185  19.707  12.802
58191W        W23451  43.914  15.785   3.434
58192W        W23452  14.349  22.662   4.693
58193W        W23453  15.474   2.283   1.805
58194W        W23454  22.837   0.451  14.214
58195W        W23455  25.925  35.959  13.835
58196W        W23456  37.589  28.166  10.370
58197W        W23457  40.461   8.592  14.350
58198W        W23458  42.289  16.050   0.350
58199W        W23459  36.256  26.092  11.623
58200W        W23460  40.883   5.966   4.624
58201W        W23461  32.838  18.315  14.002
58202W        W23462   7.879  19.646   1.852
58203W        W23463   0.326  41.843  14.285
58204W        W23464   3.100  10.638   1.432
58205W        W23465   4.401   0.246   1.550
58206W        W23466  38.813  16.035  11.880
58207W        W23467  25.101  38.222  13.251
58208W        W23468  16.759  40.044  13.786
58209W        W23469  33.511  31.017   3.155
58210W        W23470  26.425  25.594  13.364
58211W        W23471  41.533  23.709   2.176
58212W        W23472   3.184   2.292  14.551
58213W        W23473   8.816  26.906   3.269
58214W        W23474  30.648  41.372   3.138
58215W        W23475   4.286  40.243  14.978
58216W        W23476  39.007   1.916  14.105
58217W        W23477  19.583  27.770  12.925
58218W        W23478  10.382   6.045   4.014
58219W        W23479  40.759   8.589   3.235
58220W        W23480   4.336  22.003  12.021
58221W        W23481  12.213  13.190  14.268
58222W        W23482  33.632   2.749   2.930
58223W        W23483  34.862  24.677  13.450
58224W        W23484   2.221  30.019  11.226
58225W        W23485  26.129  10.099   0.355
58226W        W23486  28.579  32.788  13.855
58227W        W23487  11.540  32.900  11.214
58228W        W23488  22.907   2.937   3.348
58229W        W23489  10.626  41.528  13.988
58230W        W23490  16.871   0.623   4.878
58231W        W23491  23.325  24.985  14.010
58232W        W23492  32.705  32.065   1.662
58233W        W23493  17.874  33.654  14.291
58234W        W23494  37.378  44.561   1.324
58235W        W23495  18.691  32.679   3.746
58236W        W23496  43.432  22.207   0.346
58237W        W23497   5.862  26.942   1.291
58238W        W23498  43.215  41.864   2.751
58239W        W23499  28.741  24.211   3.255
58240W        W23500  14.825  16.685  12.834
58241W        W23501   1.582  23.167  12.013
58242W        W23502  19.495  25.337   1.415
58243W        W23503  24.598  43.408   3.980
58244W        W23504  18.786   1.723  12.371
58245W        W23505  32.746  15.167   0.380
58246W        W23506  15.314  10.487  12.639
58247W        W23507  17.346  31.883   2.566
58248W        W23508   5.269  41.030   1.909
58249W        W23509  27.960  38.577  10.339
58250W        W23510  21.295  24.494  11.997
58251W        W23511   7.629  44.568   4.050
58252W        W23512   1.240  17.749  13.814
58253W        W23513   4.752  25.026   2.334
58254W        W23514  26.545  21.156   4.109
58255W        W23515  10.364  24.131   1.265
58256W        W23516   0.871  41.556  14.990
58257W        W23517  14.351  30.897   3.158
58258W        W23518  37.071  13.753  13.494
58259W        W23519  38.692  22.842  11.396
58260W        W23520  40.749  33.085  12.529
58261W        W23521  26.392  22.723  14.118
58262W        W23522   0.653  22.506   1.254
58263W        W23523  27.979  19.471  14.802
58264W        W23524  36.590  18.717   0.728
58265W        W23525  18.510   2.713  11.136
58266W        W23526   9.679  20.999  13.005
58267W        W23527  36.066  36.443  12.503
58268W        W23528  29.402   9.101   3.256
58269W        W23529  26.660  25.240  10.699
58270W        W23530  40.266  25.902   4.122
58271W        W23531  34.467   1.539   3.609
58272W        W23532   4.333  25.033  14.491
58273W        W23533  21.671  30.947  11.070
58274W        W23534  12.254  11.071   0.984
58275W        W23535  20.511  12.224   3.158
58276W        W23536  39.591  42.656  12.521
58277W        W23537  19.023  31.982  12.404
58278W        W23538  21.502  38.902  13.253
58279W        W23539  43.135  39.869  12.764
58280W        W23540  12.567  13.827  14.395
58281W        W23541  41.051   9.434   0.163
58282W        W23542   7.498  16.987  13.982
58283W        W23543  15.486   6.744   0.293
58284W        W23544  27.487  17.216  14.310
58285W        W23545   3.785  22.122   4.478
58286W        W23546  19.472  32.279  11.221
58287W        W23547  43.427   8.185   4.617
58288W        W23548  20.268  21.691  14.094
58289W        W23549  16.777   6.842   1.258
58290W        W23550  22.242   1.977  13.490
58291W        W23551   9.770  30.575  11.966
58292W        W23552  44.265  35.833   3.291
58293W        W23553  38.053  37.103   3.670
58294W        W23554   1.415  10.899   1.497
58295W        W23555  25.507  43.777   1.939
58296W        W23556  39.078  20.860  13.986
58297W        W23557  23.301  40.700   1.153
58298W        W23558   3.191   1.311  10.986
58299W        W23559  35.065   5.768  13.427
58300W        W23560   2.681   3.559  12.460
58301W        W23561  20.993  39.762   1.464
58302W        W23562  40.322  32.033   1.207
58303W        W23563  29.647   8.413   3.225
58304W        W23564  10.259  29.583   2.595
58305W        W23565   0.065   3.292  11.944
58306W        W23566   8.092  11.801   2.161
58307W        W23567  39.116  43.483   2.274
58308W        W23568  44.893  12.769   3.234
58309W        W23569  18.098   1.292   0.509
58310W        W23570   7.317   2.277  10.560
58311W        W23571  25.936  16.962   3.729
58312W        W23572  33.823  16.169   3.796
58313W        W23573  31.117  36.723   4.132
58314W        W23574  20.119  32.369   0.464
58315W        W23575  20.310  23.204  13.628
58316W        W23576  15.496   8.745  10.664
58317W        W23577  16.082  14.416   1.133
58318W        W23578  36.791  31.347   4.660
58319W        W23579   7.189   7.871  12.557
58320W        W23580   4.932  28.631  12.049
58321W        W23581  17.349  14.283   1.755
58322W        W23582  30.678  20.234  14.500
58323W        W23583   0.058  40.925   1.283
58324W        W23584   1.453   4.740  13.796
58325W        W23585  10.348  25.316  13.068
58326W        W23586  13.150  34.923   4.448
58327W        W23587  38.418  26.548   3.874
58328W        W23588  40.714  35.078  14.207
58329W        W23589  42.052  10.674   3.250
58330W        W23590   9.189   2.371  11.065
58331W        W23591  36.187   3.050  11.668
58332W        W23592  13.359   6.217  14.706
58333W        W23593  10.861  44.312   4.877
58334W        W23594  30.239  28.227  14.894
58335W        W23595  31.624  42.307   1.230
58336W        W23596  21.212  44.587   3.499
58337W        W23597  43.715  44.082   4.616
58338W        W23598  13.522  43.920  14.995
58339W        W23599  33.081  29.458   2.047
58340W        W23600   8.768   2.370  12.425
58341W        W23601   2.508   0.800  11.008
58342W        W23602  11.770   4.656  14.351
58343W        W23603  43.191  30.494   0.299
58344W        W23604  44.253  30.607  14.447
58345W        W23605  44.445  31.490   4.692
58346W        W23606  38.951  29.741  11.510
58347W        W23607  16.337  31.514   0.327
58348W        W23608   6.787  11.765   0.756
58349W        W23609  12.880   2.149   3.221
58350W        W23610  17.813  38.515  14.720
58351W        W23611  41.807  19.056  10.977
58352W        W23612  31.384  31.253   3.314
58353W        W23613  14.799  15.563  11.200
58354W        W23614  17.502  41.814   1.878
58355W        W23615  20.676  35.471  14.833
58356W        W23616  32.572  22.204   3.228
58357W        W23617  34.861  27.610  12.044
58358W        W23618  41.801  21.701  14.796
58359W        W23619   0.590   0.220  11.976
58360W        W23620  41.244  13.649   1.878
58361W        W23621   7.611  44.486  14.315
58362W        W23622  31.441   3.438   1.662
58363W        W23623   0.987  24.699  11.896
58364W        W23624  38.353  29.337   2.834
58365W        W23625   5.313  14.363   3.132
58366W        W23626  28.527  29.693   0.399
58367W        W23627   8.447   3.191   1.383
58368W        W23628  35.297  38.831   4.686
58369W        W23629  10.623  16.135   0.422
58370W        W23630  20.655  26.844  11.141
58371W        W23631  24.752  28.490  14.949
58372W        W23632   7.672  16.699   2.385
58373W        W23633  21.935  12.970   2.092
58374W        W23634  13.628  21.683  13.892
58375W        W23635  25.962  19.142  10.885
58376W        W23636  23.028  29.471   3.057
58377W        W23637  43.685  39.589   3.563
58378W        W23638  23.442  29.599   1.508
58379W        W23639  28.393  29.181  14.446
58380W        W23640  43.015   2.235  12.598
58381W        W23641   1.279  20.293  10.948
58382W        W23642  29.222  28.645  12.991
58383W        W23643   0.468  13.334  13.966
58384W        W23644  36.239  21.181   2.351
58385W        W23645   3.970  10.853   0.185
58386W        W23646  17.545  19.276   2.091
58387W        W23647  31.034  42.708   1.663
58388W        W23648  16.339  15.549   0.421
58389W        W23649  16.575  10.109  13.950
58390W        W23650  20.038  13.360  12.031
58391W        W23651   4.526  23.576  10.933
58392W        W23652  19.025  28.996   2.616
58393W        W23653  34.217  16.530   1.391
58394W        W23654  21.674  12.838  13.401
58395W        W23655  27.113   8.359   2.653
58396W        W23656   7.326  14.075  14.760
58397W        W23657   3.749   2.694  14.375
58398W        W23658  29.622  41.887  13.474
58399W        W23659   0.210  19.786  11.143
58400W        W23660  24.012   3.240  11.090
58401W        W23661  14.260  36.743   0.702
58402W        W23662  39.719  15.075   0.100
58403W        W23663   7.722  12.435   0.147
58404W        W23664  42.867  21.064  12.088
58405W        W23665  14.666  27.057   2.905
58406W        W23666  18.582  13.191   3.307
58407W        W23667  30.631   9.239   2.554
58408W        W23668  38.497  10.700  12.970
58409W        W23669  20.242  35.829  10.535
58410W        W23670  35.997  27.716  11.193
58411W        W23671  41.732  21.986   3.460
58412W        W23672  36.965  33.897  13.470
58413W        W23673   9.019  10.716  12.046
58414W        W23674  27.937  44.327  11.630
58415W        W23675  15.109  37.714   4.622
58416W        W23676  30.081   9.834   2.179
58417W        W23677  19.238  11.587   1.780
58418W        W23678  29.088  19.657  14.084
58419W        W23679  31.083   9.421   2.367
58420W        W23680   3.749  12.810  11.483
58421W        W23681  17.579   6.654  14.448
58422W        W23682   7.347   5.382   1.926
58423W        W23683  12.748   1.923  12.772
58424W        W23684  37.067  27.676   4.073
58425W        W23685  32.663   6.952   2.689
58426W        W23686   4.749  34.471   0.510
58427W        W23687  43.244   9.619  14.280
58428W        W23688  15.632   0.301   4.849
58429W        W23689  11.977  30.081  11.644
58430W        W23690  31.300  34.930   3.658
58431W        W23691  17.645   5.481   0.227
58432W        W23692   9.941  35.187   1.890
58433W        W23693  40.571  35.368  13.798
58434W        W23694  20.234  35.628  11.022
58435W        W23695  15.820  32.082  12.466
58436W        W23696   6.684  10.196   4.956
58437W        W23697   0.970   3.857   2.974
58438W        W23698   5.319  35.378   3.769
58439W        W23699  36.085  36.422  13.382
58440W        W23700  41.720  17.301  12.943
58441W        W23701  34.068  13.454   3.056
58442W        W23702  16.105   4.505  10.324
58443W        W23703  33.180   0.403  11.187
58444W        W23704  38.055  43.198   1.262
58445W        W23705   2.610  29.009  11.120
58446W        W23706   2.213   2.365  11.018
58447W        W23707  22.953   8.436  10.667
58448W        W23708   3.618  29.106   3.701
58449W        W23709  31.481  29.562  11.542
58450W        W23710  34.148   9.947  13.001
58451W        W23711   6.632  43.290   1.134
58452W        W23712  20.826  25.739   0.802
58453W        W23713   7.160  17.536  11.201
58454W        W23714  42.048   2.285  13.117
58455W        W23715  16.040  13.934  11.288
58456W        W23716   2.280  36.571   1.973
58457W        W23717  22.280  24.120  11.094
58458W        W23718  30.853  23.214   4.077
58459W        W23719   2.635  20.537   4.789
58460W        W23720  15.815  24.240   0.934
58461W        W23721  32.489  44.492  13.841
58462W        W23722  40.875  24.874  11.616
58463W        W23723  32.384  38.296   1.767
58464W        W23724  15.810  25.956  14.308
58465W        W23725   3.212  37.761   4.731
58466W        W23726  14.210  41.116  11.676
58467W        W23727  31.647  16.222   3.752
58468W        W23728   4.409  30.177  13.803
58469W        W23729  30.861   7.922  10.921
58470W        W23730  20.918   0.903   0.555
58471W        W23731  27.570  37.387   0.695
58472W        W23732  17.297   3.732  11.224
58473W        W23733  30.577   5.788   2.649
58474W        W23734  22.770  42.561   3.639
58475W        W23735  23.461  42.273  12.038
58476W        W23736  38.506  17.733   1.763
58477W        W23737  38.820  29.795   5.060
58478W        W23738  17.852  19.543   0.866
58479W        W23739   4.708   7.678  13.874
58480W        W23740   4.003  19.720   2.400
58481W        W23741  12.197   4.611   0.960
58482W        W23742  11.696   3.403   1.666
58483W        W23743   8.342  36.842   0.899
58484W        W23744  44.177  43.884   2.131
58485W        W23745   7.484  25.349   3.688
58486W        W23746  39.523  16.609   0.330
58487W        W23747  40.956  36.977  10.643
58488W        W23748   1.063  19.750  14.659
58489W        W23749  14.951  15.301   3.348
58490W        W23750   8.113  12.776   0.846
58491W        W23751  23.249  12.173   1.651
58492W        W23752  17.986   0.661   3.619
58493W        W23753  26.559  38.994   5.030
58494W        W23754  26.258   1.379   4.185
58495W        W23755   5.965  18.213   0.846
58496W        W23756   5.003  37.929   1.493
58497W        W23757  20.635  11.492   4.617
58498W        W23758  34.939  19.175   0.026
58499W        W23759  33.966  38.579  11.406
58500W        W23760  16.570   3.354   3.113
58501W        W23761  43.824  14.512   0.462
58502W        W23762  19.572  15.831   0.913
58503W        W23763  11.578   6.855   2.893
58504W        W23764  14.302  23.125   0.014
58505W        W23765  25.399  23.625   0.905
58506W        W23766  30.972  21.111  10.911
58507W        W23767  28.658  10.227   2.302
58508W        W23768  29.242  12.293  11.671
58509W        W23769   3.008   8.242   1.200
58510W        W23770  30.395  24.424  13.017
58511W        W23771  16.437  26.606   4.659
58512W        W23772  29.958  40.883   2.934
58513W        W23773  10.770  19.959  11.030
58514W        W23774  20.296   3.335  14.876
58515W        W23775  34.758  26.270   4.135
58516W        W23776  27.461  42.916  13.360
58517W        W23777   8.386  42.884  14.498
58518W        W23778  25.828  27.991  13.694
58519W        W23779  17.848  18.344  10.676
58520W        W23780  41.439  18.125  10.607
58521W        W23781   9.960  37.926  11.013
58522W        W23782  44.759  22.669  12.760
58523W        W23783  18.306  40.567  11.567
58524W        W23784  14.099  19.928   3.607
58525W        W23785  17.731  27.143  14.747
58526W        W23786  22.257  32.369  12.891
58527W        W23787  40.545   5.391  13.873
58528W        W23788  42.056  21.985  12.558
58529W        W23789   0.884  39.373   4.733
58530W        W23790  37.848  26.259   2.781
58531W        W23791  23.168  23.484   0.717
58532W        W23792   4.501  19.763   2.415
58533W        W23793  13.652   9.819   3.201
58534W        W23794  35.027  43.086  13.989
58535W        W23795  22.207  16.113  11.902
58536W        W23796  10.428   5.092   1.773
58537W        W23797  29.899  30.924   0.339
58538W        W23798   8.906   6.383  13.569
58539W        W23799  27.012  17.751   3.154
58540W        W23800   0.432  41.775  12.957
58541W        W23801   2.665  39.368  14.833
58542W        W23802  44.909  32.903   0.035
58543W        W23803  33.054  30.106  11.274
58544W        W23804  16.366  21.612   2.297
58545W        W23805  25.505  29.998  11.652
58546W        W23806  14.734  24.765   3.168
58547W        W23807  30.426  41.498   2.691
58548W        W23808   4.267  24.924   4.532
58549W        W23809   7.732  19.650  11.948
58550W        W23810   1.065  10.858   1.131
58551W        W23811  39.372  20.551  11.513
58552W        W23812  21.583  19.077   9.753
58553W        W23813  16.763  38.206  11.026
58554W        W23814  14.762  19.513   4.579
58555W        W23815  10.152  44.092   1.982
58556W        W23816  21.699   2.730   0.896
58557W        W23817  41.010  31.126  14.033
58558W        W23818  24.164   5.274  11.215
58559W        W23819  32.481  35.412  10.417
58560W        W23820  38.961   1.989  10.612
58561W        W23821  30.619  39.437   3.646
58562W        W23822   3.023  21.223   4.171
58563W        W23823  19.694  37.960   1.165
58564W        W23824  42.826  37.079   4.736
58565W        W23825  35.535   3.756   0.060
58566W        W23826   4.749  10.693   0.827
58567W        W23827  42.290   2.693   3.207
58568W        W23828   5.364  11.174   4.596
58569W        W23829   0.060  34.496   3.614
58570W        W23830  25.583  30.593  10.069
58571W        W23831  26.039  18.873   0.415
58572W        W23832  40.286  29.905   2.824
58573W        W23833  18.390   4.384  14.459
58574W        W23834   2.757   6.446   1.047
58575W        W23835   5.686  36.213   1.961
58576W        W23836  23.979  18.691   2.321
58577W        W23837  26.403  39.633   2.390
58578W        W23838  11.404  18.649  11.967
58579W        W23839  16.545  38.759  12.093
58580W        W23840  27.619  17.537   9.774
58581W        W23841  15.267  16.658   2.809
58582W        W23842  36.919  15.551  12.171
58583W        W23843  24.422  28.576  12.159
58584W        W23844  34.462  40.551  12.325
58585W        W23845  18.651  15.759  13.238
58586W        W23846   3.697  36.521   3.733
58587W        W23847  17.676  33.814   1.345
58588W        W23848  20.138   6.506  14.847
58589W        W23849  28.085   6.047   0.767
58590W        W23850  15.134  44.727   0.773
58591W        W23851  11.672   3.264   4.972
58592W        W23852  19.863  35.089   3.642
58593W        W23853   1.275  43.753   2.896
58594W        W23854   2.765  29.115   1.752
58595W        W23855  25.926  28.095   4.943
58596W        W23856  16.584   8.618   0.594
58597W        W23857  25.048  24.009  12.194
58598W        W23858  37.444  14.219  13.161
58599W        W23859  21.717  27.540  14.897
58600W        W23860  18.985  35.072  11.057
58601W        W23861  29.109  38.142   1.071
58602W        W23862  40.582   0.406   2.430
58603W        W23863  39.842  28.023   3.205
58604W        W23864  34.008  42.365   2.316
58605W        W23865  43.794  21.189  11.277
58606W        W23866  19.494  15.788  13.884
58607W        W23867  36.427  39.548   3.632
58608W        W23868  22.761  21.222   0.633
58609W        W23869  40.403  26.871  11.953
58610W        W23870   8.897  30.015   4.131
58611W        W23871  40.722   6.100  11.174
58612W        W23872  21.427  19.668   0.692
58613W        W23873   9.397   5.698   0.084
58614W        W23874   9.293   6.228  10.626
58615W        W23875  20.961   0.303  14.090
58616W        W23876  37.450  22.563  14.412
58617W        W23877  34.630  33.637  14.292
58618W        W23878   4.190  12.766   4.685
58619W        W23879  37.323  24.994  11.149
58620W        W23880  30.448  11.096   4.247
58621W        W23881  23.373  39.449  11.176
58622W        W23882  17.176  34.428   0.902
58623W        W23883  19.517   0.768   5.388
58624W        W23884   1.347  32.076   3.336
58625W        W23885   8.443  10.617  10.704
58626W        W23886  19.669  21.482  12.592
58627W        W23887  13.782  38.919   4.494
58628W        W23888  42.097   3.460   3.737
58629W        W23889  43.768  34.575  10.628
58630W        W23890  42.507  14.101  14.549
58631W        W23891   7.162  17.390   2.771
58632W        W23892  32.026  39.914   3.082
58633W        W23893  22.553  21.601  14.870
58634W        W23894  17.175  23.107  10.748
58635W        W23895  16.220   2.948   3.110
58636W        W23896  37.101   6.841  13.245
58637W        W23897  14.110  24.172   2.973
58638W        W23898  29.687  24.729   0.958
58639W        W23899   6.430  31.651   1.397
58640W        W23900   5.614  16.844  10.626
58641W        W23901   6.835  36.373  14.905
58642W        W23902   7.611  26.963   3.264
58643W        W23903   5.273   1.264  13.647
58644W        W23904  22.510   9.555  12.154
58645W        W23905  39.676  16.651   0.875
58646W        W23906  31.737  33.546   4.719
58647W        W23907  35.071   5.351  12.585
58648W        W23908  14.693  18.701   3.981
58649W        W23909  42.938   8.141   1.867
58650W        W23910  19.005   5.016   4.291
58651W        W23911  21.280  36.403  14.576
58652W        W23912   0.680  31.742  10.533
58653W        W23913  37.460  15.573  12.889
58654W        W23914  42.380  30.087   3.681
58655W        W23915  38.078   5.913   3.806
58656W        W23916  38.366  19.364   0.832
58657W        W23917  25.663  26.741   0.216
58658W        W23918   5.257  32.979  10.618
58659W        W23919  19.733  31.212   3.804
58660W        W23920  17.652  18.490   5.376
58661W        W23921  41.933  37.286   2.625
58662W        W23922  27.075  33.113  10.699
58663W        W23923  23.159  23.521  13.899
58664W        W23924  16.141  27.193  12.125
58665W        W23925   0.847  36.605  12.141
58666W        W23926  34.681  16.424   1.624
58667W        W23927  27.685  38.957   2.268
58668W        W23928  34.671   7.044   1.862
58669W        W23929   8.758   8.383  10.749
58670W        W23930  15.771  44.369  10.827
58671W        W23931  30.624  19.619  13.493
58672W        W23932  16.759  21.988   1.801
58673W        W23933  15.724   7.092   1.602
58674W        W23934  24.476   7.018   1.668
58675W        W23935  12.091  44.284   0.817
58676W        W23936  10.281  11.337   3.078
58677W        W23937   3.372  33.657  13.052
58678W        W23938   8.155  42.907  14.054
58679W        W23939   8.815   5.718  11.197
58680W        W23940  13.675  13.182   4.826
58681W        W23941   0.982  24.083   3.253
58682W        W23942   7.388  39.101   2.240
58683W        W23943   1.828  35.324  13.769
58684W        W23944  39.719  43.336  13.928
58685W        W23945   1.437  26.147  13.300
58686W        W23946   3.423  22.131   1.748
58687W        W23947  24.567  29.584   2.444
58688W        W23948  22.483  24.297  11.567
58689W        W23949   1.993  39.090   4.738
58690W        W23950  15.590  11.339   1.045
58691W        W23951  37.410   8.078   3.932
58692W        W23952  37.329  10.188   4.125
58693W        W23953  21.486  23.210  12.944
58694W        W23954   3.383  25.845  12.131
58695W        W23955  26.569  15.642   4.598
58696W        W23956  10.671  16.330  14.071
58697W        W23957  25.030  39.612  10.128
58698W        W23958  34.648  26.075   4.929
58699W        W23959  31.953   0.116   4.061
58700W        W23960   6.288  23.064   4.882
58701W        W23961  30.033  34.672  12.129
58702W        W23962  39.491  39.803   3.203
58703W        W23963  32.020  26.616   3.135
58704W        W23964  11.058   4.587  12.680
58705W        W23965  30.481  10.178   2.145
58706W        W23966  28.212  22.604   2.829
58707W        W23967  15.052  21.744  11.207
58708W        W23968   0.459  44.662   1.742
58709W        W23969  43.293   8.916  13.397
58710W        W23970  30.867  39.367  13.110
58711W        W23971   0.568  31.272  10.701
58712W        W23972  19.414  36.107   3.724
58713W        W23973  24.574  43.338  14.828
58714W        W23974  25.497  22.562   0.397
58715W        W23975  24.576   5.394  13.074
58716W        W23976   8.774   2.374   2.351
58717W        W23977   5.023  11.206  10.699
58718W        W23978  22.096  43.828  12.363
58719W        W23979  17.121  29.956   0.603
58720W        W23980   2.966   6.729  11.052
58721W        W23981  25.625  38.003  11.469
58722W        W23982  41.805  35.453   0.859
58723W        W23983  12.712  34.546  11.010
58724W        W23984   5.885  25.201  14.122
58725W        W23985  40.006   8.708   2.194
58726W        W23986  12.235   3.107  12.901
58727W        W23987  43.645  40.141   4.588
58728W        W23988  16.053  33.416   3.295
58729W        W23989  16.614  39.603  11.088
58730W        W23990  44.479   7.002  11.666
58731W        W23991  32.538   5.894   1.362
58732W        W23992   3.804  27.881   0.316
58733W        W23993   6.712  42.334   3.357
58734W        W23994  44.728  42.945   0.566
58735W        W23995  17.257  37.676   3.734
58736W        W23996  16.696   0.475  13.789
58737W        W23997  26.848  18.099   2.614
58738W        W23998  27.042  40.318   3.730
58739W        W23999  18.028  38.100  14.970
58740W        W24000  24.541  37.821   4.218
58741W        W24001  21.008  22.944  14.997
58742W        W24002   0.979   9.709  11.363
58743W        W24003  44.406  16.359  11.042
58744W        W24004   8.705  42.418   4.556
58745W        W24005  29.783  33.415  11.937
58746W        W24006   9.656   9.260   1.203
58747W        W24007  19.621   9.118   1.325
58748W        W24008  13.076  11.900  13.301
58749W        W24009  13.347  11.205  12.097
58750W        W24010  19.283  13.786   4.627
58751W        W24011  21.490  18.789  12.061
58752W        W24012   7.077  37.333  11.092
58753W        W24013  11.469  27.515   4.945
58754W        W24014  13.895  42.539   1.764
58755W        W24015  23.640  27.378  14.919
58756W        W24016   8.556  28.140  12.533
58757W        W24017   9.911  11.914  12.457
58758W        W24018   1.765  43.450  11.718
58759W        W24019  15.249   1.872  13.170
58760W        W24020  39.403  27.071   2.686
58761W        W24021  38.658  28.999  11.867
58762W        W24022  31.929   0.579   3.722
58763W        W24023   0.208   4.354  12.437
58764W        W24024  30.227  15.533  12.404
58765W        W24025  43.187  29.137   2.908
58766W        W24026  26.754  42.394   0.442
58767W        W24027  20.694  41.792   0.076
58768W        W24028  36.962  15.284  11.722
58769W        W24029  35.565  24.763  12.276
58770W        W24030  10.140   9.165  14.944
58771W        W24031  12.209   6.789   2.866
58772W        W24032  12.264   7.949   0.499
58773W        W24033  38.321  24.502   3.931
58774W        W24034  32.981  14.519  10.841
58775W        W24035  20.206  18.472   0.811
58776W        W24036   9.771  42.047   2.356
58777W        W24037  33.896  32.058   3.702
58778W        W24038  35.472  40.257   4.074
58779W        W24039   6.710   9.596  12.905
58780W        W24040  19.677  23.039   1.854
58781W        W24041  28.185  23.463   3.641
58782W        W24042  17.437  27.955  14.329
58783W        W24043   7.831  33.929  14.552
58784W        W24044   2.682  42.331   3.584
58785W        W24045  38.631  26.475  12.461
58786W        W24046  38.329  38.609   4.580
58787W        W24047  42.660  14.667  14.062
58788W        W24048  42.289  35.284  10.758
58789W        W24049  10.229   1.793  11.646
58790W        W24050  25.531  36.244   0.835
58791W        W24051  29.514  44.830  10.446
58792W        W24052  43.361  35.142   3.745
58793W        W24053   3.219  33.358  12.023
58794W        W24054  31.171  32.920   0.844
58795W        W24055  31.581  36.086  12.120
58796W        W24056  32.374  43.894   3.461
58797W        W24057  34.431  25.145  12.191
58798W        W24058  38.783  28.852   2.211
58799W        W24059  31.087  44.644   0.011
58800W        W24060   6.483  33.606   0.796
58801W        W24061  36.009   6.840  13.980
58802W        W24062  10.079  25.570   5.549
58803W        W24063   9.658  22.483   1.247
58804W        W24064  21.436  12.861   0.758
58805W        W24065   7.381   5.908   1.419
58806W        W24066  38.337  28.615  14.888
58807W        W24067   9.482  15.874   5.153
58808W        W24068   4.391   2.797  11.836
58809W        W24069  35.324  18.571  14.344
58810W        W24070  23.543  21.177   3.796
58811W        W24071  35.769   3.889   1.710
58812W        W24072  12.306  18.145   1.835
58813W        W24073  18.507  14.601   3.746
58814W        W24074  30.640  32.627  12.125
58815W        W24075  28.548  34.857   2.772
58816W        W24076  42.808  16.256   1.736
58817W        W24077  24.483  40.308  11.425
58818W        W24078  28.162  26.641   3.024
58819W        W24079   3.702   7.889  10.959
58820W        W24080   0.924   3.707  13.894
58821W        W24081   0.714  34.472  14.820
58822W        W24082   3.514   7.188  10.367
58823W        W24083  31.364  35.459   3.715
58824W        W24084  25.504  38.906  13.502
58825W        W24085   1.689  39.866   4.136
58826W        W24086   5.860   0.283   0.257
58827W        W24087   9.855   0.845  12.434
58828W        W24088  32.051  23.492  11.666
58829W        W24089   0.021   9.829   0.991
58830W        W24090  23.371  13.735  11.636
58831W        W24091  43.404  43.398  11.894
58832W        W24092  27.107   2.777   4.430
58833W        W24093  18.225  13.738   3.599
58834W        W24094  24.630  13.232  11.076
58835W        W24095  24.563  28.558   4.752
58836W        W24096   9.576  18.435  14.838
58837W        W24097  31.318   7.674   1.433
58838W        W24098   6.229  27.102   9.934
58839W        W24099   2.215   9.763  12.773
58840W        W24100  40.274  13.661   0.913
58841W        W24101  15.661  29.913   4.885
58842W        W24102  41.910  25.418   3.751
58843W        W24103  13.159  37.030  13.514
58844W        W24104  33.731  24.687  12.044
58845W        W24105  19.998  35.998   1.277
58846W        W24106   6.828  34.495   1.720
58847W        W24107  42.791  11.278   3.212
58848W        W24108  42.335  17.555   3.202
58849W        W24109   1.851  31.452   4.947
58850W        W24110  17.547  10.421   3.368
58851W        W24111  15.825   0.352  14.386
58852W        W24112  21.710  22.304   1.912
58853W        W24113  21.694   6.886   2.283
58854W        W24114   6.125  23.553  13.964
58855W        W24115  12.609  41.585   2.357
58856W        W24116  33.498  14.807  11.508
58857W        W24117   4.216  42.015   2.850
58858W        W24118  36.955   3.738  13.048
58859W        W24119  28.669  24.743  13.393
58860W        W24120  19.710   6.252  14.062
58861W        W24121  41.920  32.699   2.637
58862W        W24122  12.630  41.798  10.944
58863W        W24123  17.038  40.076   2.485
58864W        W24124  16.833   6.459  12.002
58865W        W24125  41.052  13.210   1.671
58866W        W24126  18.826  42.867  12.595
58867W        W24127  31.416  11.649  10.681
58868W        W24128  30.481  33.139  14.957
58869W        W24129  33.366   7.261   2.733
58870W        W24130   2.519  34.657   4.254
58871W        W24131  14.598  10.867  12.592
58872W        W24132  26.865   9.681  10.267
58873W        W24133  14.385  18.372  12.540
58874W        W24134  17.731  40.832  11.517
58875W        W24135  18.898   6.862  14.334
58876W        W24136  41.541  43.378   0.780
58877W        W24137  10.906  25.284  11.621
58878W        W24138   7.460  35.446   1.646
58879W        W24139  31.141  38.474  12.477
58880W        W24140  43.345  11.822   2.169
58881W        W24141   1.018  20.072  11.556
58882W        W24142   4.874  21.207   3.344
58883W        W24143  18.661  36.072   2.743
58884W        W24144  23.269   7.902   2.458
58885W        W24145  33.322  15.324   1.363
58886W        W24146  13.762   0.043   4.152
58887W        W24147  25.586  26.077  13.128
58888W        W24148  34.532   2.309   0.648
58889W        W24149   4.516  34.377  10.692
58890W        W24150  22.535   1.695  14.737
58891W        W24151  31.714   4.301  14.583
58892W        W24152  44.911  35.615  12.489
58893W        W24153   3.776  30.633  14.376
58894W        W24154  33.666   6.876  12.198
58895W        W24155   9.122   7.721  10.281
58896W        W24156  24.798   7.178   2.165
58897W        W24157   8.837   9.178   3.108
58898W        W24158  28.429   5.604   3.338
58899W        W24159  32.695  17.740   3.821
58900W        W24160  23.535  29.037  14.677
58901W        W24161   1.041  15.745   2.820
58902W        W24162   7.753  10.172   4.705
58903W        W24163  30.535  18.557   2.771
58904W        W24164  36.120  18.592   2.219
58905W        W24165  16.312  24.908   1.794
58906W        W24166  11.665  27.263   9.754
58907W        W24167  23.045  13.016  12.513
58908W        W24168  43.468  30.787  12.567
58909W        W24169   0.480  35.612   3.325
58910W        W24170  40.654   5.478   0.645
58911W        W24171  27.739  42.122   3.348
58912W        W24172  23.588  23.844   0.938
58913W        W24173  12.729  11.669   0.325
58914W        W24174  22.222   4.396  12.617
58915W        W24175  40.299  32.048  11.105
58916W        W24176   7.193   5.264   4.698
58917W        W24177  24.115  41.619  10.665
58918W        W24178  19.651  39.011   3.312
58919W        W24179  33.613  43.994  10.614
58920W        W24180  12.193  40.531   3.208
58921W        W24181  27.868   3.870   0.473
58922W        W24182  31.227   4.816  13.867
58923W        W24183  18.122  31.066  13.921
58924W        W24184  18.554   3.914  13.863
58925W        W24185  38.103   6.184   4.450
58926W        W24186  31.543  17.679  11.206
58927W        W24187  43.964   0.857  11.423
58928W        W24188  28.579  19.157   1.212
58929W        W24189  14.406  43.881  10.685
58930W        W24190   2.711  17.607  11.902
58931W        W24191  26.504  16.483   3.341
58932W        W24192  12.239  41.755   2.706
58933W        W24193  44.133  36.074  11.388
58934W        W24194  33.831  44.743   3.639
58935W        W24195  43.793  25.960   1.403
58936W        W24196  14.257  31.353   1.878
58937W        W24197  24.621  43.855   2.196
58938W        W24198   8.338  24.463   3.240
58939W        W24199  25.173  32.923  14.996
58940W        W24200  19.796  36.920  11.886
58941W        W24201   2.514  22.087   2.263
58942W        W24202  25.728   2.687  13.383
58943W        W24203  39.067  23.110   2.703
58944W        W24204  15.547  25.099  11.085
58945W        W24205   2.298  41.410  12.446
58946W        W24206  40.422  29.496   3.155
58947W        W24207  44.805  41.122  10.732
58948W        W24208  22.188  13.267  14.407
58949W        W24209  42.495  11.124  10.184
58950W        W24210  44.203  35.517   4.615
58951W        W24211  40.846  38.555   3.291
58952W        W24212  25.269  39.610   4.171
58953W        W24213  18.878  22.626   3.483
58954W        W24214   5.624  17.649  13.912
58955W        W24215  41.480  40.722   2.355
58956W        W24216  38.767  14.689   2.262
58957W        W24217  41.863  33.498   4.590
58958W        W24218  40.923  23.190  12.180
58959W        W24219  21.797  26.473   4.046
58960W        W24220  29.518  38.745   4.355
58961W        W24221  14.622  15.192   4.738
58962W        W24222  19.494  18.648  13.325
58963W        W24223  33.963  42.438   1.699
58964W        W24224  38.327  36.350  11.087
58965W        W24225  41.153  34.548  12.148
58966W        W24226  17.085  37.856   2.172
58967W        W24227  43.796   2.125  11.247
58968W        W24228  23.696  34.369  12.482
58969W        W24229   3.981   9.596  14.989
58970W        W24230  18.212  35.864   4.621
58971W        W24231   6.965  21.154   0.579
58972W        W24232  29.192   7.736   4.480
58973W        W24233  24.184   5.341  12.069
58974W        W24234  38.496  33.576   3.728
58975W        W24235   8.878  22.005  12.061
58976W        W24236  36.777  27.212   0.415
58977W        W24237  32.370  21.189   1.213
58978W        W24238  26.044  11.424   4.611
58979W        W24239  16.408  37.070   3.735
58980W        W24240   0.980  31.549   2.765
58981W        W24241  21.108  33.344  13.072
58982W        W24242   0.236  23.094  12.026
58983W        W24243  34.413  31.616  11.671
58984W        W24244  14.487  35.757  11.458
58985W        W24245  25.242   9.869   3.199
58986W        W24246   8.610  25.407   5.467
58987W        W24247  34.280  16.128   1.946
58988W        W24248   7.704  14.327   2.763
58989W        W24249   6.796   2.350  12.559
58990W        W24250  43.643  41.998  11.824
58991W        W24251   1.656  40.619  14.382
58992W        W24252  33.163  24.245   3.725
58993W        W24253   8.182  26.219  14.044
58994W        W24254  13.371  38.088  14.321
58995W        W24255  35.050  20.937   4.269
58996W        W24256   8.803   7.106   1.181
58997W        W24257  27.095  12.389   1.058
58998W        W24258  33.829  35.899  14.987
58999W        W24259   6.582  11.039  11.140
59000W        W24260   3.963  22.800  12.817
59001W        W24261  38.622  33.382  11.613
59002W        W24262  25.541  39.631  13.980
59003W        W24263  36.543  35.183  11.518
59004W        W24264  16.990  31.474  13.483
59005W        W24265  24.182  31.787   0.562
59006W        W24266  34.493  37.825  14.698
59007W        W24267  29.097  41.468   0.681
59008W        W24268  38.864  38.455   2.841
59009W        W24269  42.005  38.921   3.355
59010W        W24270  19.042  43.293  14.955
59011W        W24271  21.461   9.299  12.567
59012W        W24272  22.821  19.022   1.286
59013W        W24273   1.138  24.305   1.483
59014W        W24274  26.710  23.498   2.887
59015W        W24275   6.221  41.734  12.016
59016W        W24276   5.437  26.522  14.415
59017W        W24277  38.555  13.683   3.451
59018W        W24278  25.219  20.910   5.041
59019W        W24279  20.450   5.154  11.171
59020W        W24280  32.157   6.741  12.977
59021W        W24281  16.785  13.901   2.054
59022W        W24282  36.220  10.606  13.955
59023W        W24283   9.565  13.422   1.029
59024W        W24284   0.983  11.304  13.051
59025W        W24285  39.320  38.388  11.227
59026W        W24286  21.010  41.979   2.778
59027W        W24287  30.680  28.713  14.268
59028W        W24288  28.884  17.020  11.940
59029W        W24289  28.407  40.964  13.021
59030W        W24290  43.777   7.347   3.297
59031W        W24291  44.008  43.488  12.499
59032W        W24292   4.873  10.121   4.261
59033W        W24293  17.234  28.436   4.219
59034W        W24294  32.406  22.562  13.829
59035W        W24295   0.249  44.480  11.590
59036W        W24296  18.514  33.039  13.879
59037W        W24297   9.766  24.596  12.853
59038W        W24298  43.809  16.497   2.257
59039W        W24299  24.676  30.333  12.664
59040W        W24300   9.606  10.415  14.271
59041W        W24301  20.694  31.443   2.929
59042W        W24302   7.399  32.759  11.233
59043W        W24303  40.299  21.193  12.620
59044W        W24304   3.164  35.012   3.539
59045W        W24305  23.119  41.557  10.569
59046W        W24306  29.636  18.267   1.405
59047W        W24307  29.356  20.703   1.327
59048W        W24308  42.055  24.908   1.014
59049W        W24309  13.669  38.955  14.307
59050W        W24310   0.272   3.704   0.766
59051W        W24311   7.646  37.441  13.487
59052W        W24312   2.646  22.462  11.591
59053W        W24313  23.515  22.313  12.174
59054W        W24314  23.281  14.701   0.314
59055W        W24315  11.482  43.340   2.437
59056W        W24316   7.378  44.329  10.239
59057W        W24317  41.361   9.192  10.753
59058W        W24318  12.423  21.438   1.232
59059W        W24319  26.640  42.751  12.044
59060W        W24320  24.167  21.022   2.871
59061W        W24321  10.671  16.621   1.472
59062W        W24322  12.062  41.320  11.058
59063W        W24323  40.554  10.661   4.192
59064W        W24324  27.451  28.809  11.860
59065W        W24325   6.936  27.606  13.687
59066W        W24326  40.409  43.442   4.622
59067W        W24327  27.159  38.911  10.715
59068W        W24328  28.764  28.855  14.944
59069W        W24329  40.041  11.627  11.117
59070W        W24330   9.506  39.202  12.624
59071W        W24331   3.208   3.992  11.854
59072W        W24332  33.612  36.019  14.103
59073W        W24333   6.417  41.596  14.467
59074W        W24334  11.372  19.245  14.019
59075W        W24335  40.413  33.396   2.561
59076W        W24336   9.281   4.393  11.121
59077W        W24337  31.977  28.254  11.852
59078W        W24338  33.822  41.485   0.293
59079W        W24339  23.073  40.896   1.584
59080W        W24340  16.074  34.034  14.388
59081W        W24341  44.838  18.791  10.478
59082W        W24342  32.649   4.816   0.686
59083W        W24343  24.757  40.815   3.175
59084W        W24344  29.267  25.228  14.089
59085W        W24345  35.474  15.881  14.889
59086W        W24346   9.605   1.103   1.298
59087W        W24347  11.794  37.849  14.792
59088W        W24348  22.214  20.496  11.382
59089W        W24349  19.274   7.761  12.088
59090W        W24350  16.989   2.272   3.283
59091W        W24351  15.258  38.926  12.067
59092W        W24352  10.524   6.220  11.661
59093W        W24353  34.503  31.981  10.324
59094W        W24354  19.684  23.886   2.950
59095W        W24355  17.150  13.438  12.863
59096W        W24356  32.454  17.593   4.864
59097W        W24357  26.942  43.328   0.324
59098W        W24358   7.235  32.844   4.099
59099W        W24359  30.405  40.072  11.959
59100W        W24360  14.174  14.843  13.517
59101W        W24361  35.560   9.773   1.352
59102W        W24362  25.620   0.733   3.682
59103W        W24363  32.317   4.019  10.822
59104W        W24364  13.686  22.545  11.392
59105W        W24365  11.984  37.168  14.688
59106W        W24366  41.739  10.216  11.531
59107W        W24367  17.081   1.735   2.082
59108W        W24368  14.477  35.133  12.077
59109W        W24369  42.633  20.620   2.288
59110W        W24370  18.220  28.539  13.813
59111W        W24371  28.513  21.592  13.384
59112W        W24372  15.622  22.768  13.824
59113W        W24373  20.475  13.139  12.771
59114W        W24374  14.377  35.473  13.169
59115W        W24375   8.078  33.036  13.043
59116W        W24376  33.504   0.540  10.439
59117W        W24377  33.055  16.247   3.345
59118W        W24378   9.158   6.262   0.532
59119W        W24379  15.291  19.673   2.037
59120W        W24380  16.722  13.698   2.537
59121W        W24381  34.530  14.102   4.270
59122W        W24382  18.165  43.956  14.840
59123W        W24383  30.945  36.711   0.799
59124W        W24384  37.191  30.994  10.834
59125W        W24385  43.715  12.070  14.826
59126W        W24386  26.362  18.192   3.500
59127W        W24387  25.144   0.756   2.253
59128W        W24388   9.243  44.150   1.856
59129W        W24389  26.693  10.622  13.812
59130W        W24390  32.530   1.792   1.720
59131W        W24391  39.816  23.962   0.889
59132W        W24392  22.049  16.054  14.986
59133W        W24393  32.680  10.766   3.099
59134W        W24394  26.511   1.478   1.273
59135W        W24395  41.625   2.251  13.442
59136W        W24396  22.782  44.550   4.664
59137W        W24397  20.695   7.499   3.990
59138W        W24398   7.247  43.377  13.554
59139W        W24399  28.546  22.714   1.682
59140W        W24400  14.739  26.529  10.766
59141W        W24401   5.652   8.877   2.788
59142W        W24402  11.860  24.188  14.756
59143W        W24403  44.362   3.650   1.743
59144W        W24404  18.703  30.539   4.644
59145W        W24405  26.673   6.978   4.584
59146W        W24406  44.299  10.654  14.763
59147W        W24407  39.867   2.305  12.544
59148W        W24408  24.784  21.711   1.760
59149W        W24409  37.053  21.024   0.981
59150W        W24410  43.758   1.651  14.390
59151W        W24411  14.336   2.117  12.915
59152W        W24412   5.392   9.620   3.646
59153W        W24413  20.020  17.975  13.152
59154W        W24414  32.071   3.932  14.455
59155W        W24415  33.678  16.558   3.173
59156W        W24416  15.687  10.215  10.259
59157W        W24417  30.391   4.746  13.483
59158W        W24418  26.145  29.003   1.925
59159W        W24419  33.508  34.078  13.746
59160W        W24420  16.747   3.371   3.641
59161W        W24421   1.277  29.723  12.163
59162W        W24422  39.690  31.432   1.673
59163W        W24423  20.330  13.372   3.709
59164W        W24424  17.096  29.135   0.255
59165W        W24425  33.500  41.926  12.398
59166W        W24426  18.514  32.096  12.277
59167W        W24427  30.295   9.463   1.747
59168W        W24428  13.783  39.770   3.063
59169W        W24429   4.501   1.007  10.627
59170W        W24430  38.950  18.815  10.704
59171W        W24431  12.036   3.977  12.002
59172W        W24432  16.871  35.926   2.901
59173W        W24433  40.852  42.578  12.893
59174W        W24434  14.979  20.652  11.455
59175W        W24435  11.961  40.435  10.294
59176W        W24436   4.240  37.062   1.152
59177W        W24437  42.681   1.231  11.534
59178W        W24438  10.709   4.002   3.726
59179W        W24439  30.137   9.649   0.010
59180W        W24440   6.733  27.233  10.104
59181W        W24441   1.696  15.787   0.342
59182W        W24442  44.644  22.010  10.169
59183W        W24443  28.064  27.667  13.826
59184W        W24444  43.270  14.975   0.803
59185W        W24445   6.781  18.210   4.168
59186W        W24446  25.318  21.691  10.600
59187W        W24447  14.712  13.628  10.714
59188W        W24448  27.516  15.546  11.048
59189W        W24449  20.263   7.960  14.316
59190W        W24450  41.293   7.887   4.857
59191W        W24451   4.179  11.665   2.807
59192W        W24452  30.416  11.208   2.412
59193W        W24453  37.800  38.557   4.625
59194W        W24454  28.886  42.462  13.454
59195W        W24455  26.467   4.407  12.465
59196W        W24456  37.345  44.643   4.939
59197W        W24457  25.988  35.088  11.836
59198W        W24458   3.851  15.047  14.483
59199W        W24459  11.927  18.333   3.684
59200W        W24460   4.228   4.789  12.174
59201W        W24461   7.738  14.722  11.662
59202W        W24462  31.653  15.640   3.074
59203W        W24463  13.269  17.217  10.797
59204W        W24464  43.301  24.230  13.137
59205W        W24465   7.401  25.896   4.493
59206W        W24466  24.601  35.137  13.561
59207W        W24467  39.485  19.048  14.068
59208W        W24468   8.838   3.841   2.000
59209W        W24469   5.882  32.132  14.765
59210W        W24470  27.094   6.700   4.582
59211W        W24471  35.322  37.655   1.733
59212W        W24472  18.542  43.678   1.384
59213W        W24473  24.611   8.194   2.399
59214W        W24474   4.887  32.823   4.215
59215W        W24475   1.637  30.338  13.959
59216W        W24476  41.819  15.207   2.357
59217W        W24477  16.739  10.116  12.157
59218W        W24478  30.236  42.748   4.311
59219W        W24479  26.106   7.331  10.669
59220W        W24480  40.885  13.091  11.165
59221W        W24481  22.058   8.940  10.637
59222W        W24482   7.248  39.569   1.272
59223W        W24483  14.770  26.418   0.701
59224W        W24484  35.306  27.119  10.725
59225W        W24485  39.381  35.124  11.832
59226W        W24486   7.115   4.729   0.523
59227W        W24487  39.306  11.388  13.059
59228W        W24488  36.016  44.712   1.941
59229W        W24489  14.641   8.527  10.331
59230W        W24490  40.488  30.491   3.100
59231W        W24491  11.202  12.754   3.330
59232W        W24492  32.952   4.275  13.463
59233W        W24493  35.939  24.288  11.540
59234W        W24494   2.150  18.162  13.017
59235W        W24495  29.561  44.239   3.422
59236W        W24496  24.169  41.530   4.137
59237W        W24497  44.038  16.025  11.638
59238W        W24498   1.595  40.856  12.485
59239W        W24499  18.324  35.104  14.307
59240W        W24500   8.169  16.826   2.329
59241W        W24501  11.722  32.260  12.931
59242W        W24502   5.196  42.344   3.448
59243W        W24503  34.449  17.137   0.771
59244W        W24504  30.115  41.357   3.084
59245W        W24505   6.066   1.303   3.413
59246W        W24506  15.585  26.627  12.973
59247W        W24507  22.721  24.709  12.891
59248W        W24508   4.268  36.347   3.410
59249W        W24509   4.778  44.963   4.790
59250W        W24510   3.976   3.820  11.089
59251W        W24511  30.383  22.618   2.991
59252W        W24512   7.519  25.048   1.189
59253W        W24513  34.561  30.456   1.940
59254W        W24514  19.675  11.855  11.517
59255W        W24515   6.827  23.127  11.630
59256W        W24516  13.545  41.918  10.859
59257W        W24517  42.331  43.378   2.397
59258W        W24518   6.123  40.449  13.582
59259W        W24519  27.294   9.988   3.773
59260W        W24520  20.790  31.700   1.972
59261W        W24521  16.051  36.572   4.668
59262W        W24522  10.327  43.215  11.943
59263W        W24523  17.624  29.493  13.282
59264W        W24524  26.185   7.819   0.804
59265W        W24525  38.575  13.705  14.451
59266W        W24526  40.618  23.818   0.493
59267W        W24527  42.545  28.519   0.550
59268W        W24528   1.804  36.211   0.674
59269W        W24529  44.487  27.940   2.068
59270W        W24530  37.551  20.408  12.875
59271W        W24531  36.613   9.703   1.390
59272W        W24532   4.319  10.728  12.879
59273W        W24533  27.438  32.520   2.610
59274W        W24534  43.003   7.318   2.861
59275W        W24535  44.970  37.410   4.082
59276W        W24536   9.975  24.045   3.462
59277W        W24537   6.251  19.108  12.070
59278W        W24538  23.974  34.062  13.525
59279W        W24539  26.543  37.162  13.404
59280W        W24540  40.344  38.571   3.361
59281W        W24541  42.500  11.702  11.700
59282W        W24542  13.503  38.393   1.941
59283W        W24543  36.444   9.307   2.883
59284W        W24544   1.792  15.716   4.349
59285W        W24545  44.398  10.870   2.682
59286W        W24546  30.709  39.063   9.961
59287W        W24547  36.077  37.603   3.730
59288W        W24548  42.289   0.835   4.224
59289W        W24549  27.714   8.618   1.567
59290W        W24550  29.929   3.987  14.904
59291W        W24551  12.638   3.921   2.731
59292W        W24552  32.486  21.281   0.213
59293W        W24553  10.339   2.545  12.170
59294W        W24554   5.083   8.958   1.624
59295W        W24555   8.414  12.849  14.929
59296W        W24556   2.280   6.541  11.077
59297W        W24557  31.073  14.714   0.174
59298W        W24558  13.779  20.630  13.411
59299W        W24559  35.324  19.490   2.252
59300W        W24560  14.713  19.978  11.521
59301W        W24561  24.249   8.132   4.983
59302W        W24562   8.048  23.623  11.124
59303W        W24563   1.840   1.602   1.648
59304W        W24564  11.288  14.705   0.738
59305W        W24565  35.070  13.339  11.078
59306W        W24566  23.976  34.439  11.899
59307W        W24567  37.038   7.774  13.574
59308W        W24568  41.579   5.655   1.295
59309W        W24569  44.014  39.027  12.387
59310W        W24570  36.570  19.369  11.399
59311W        W24571  43.711  36.084  11.700
59312W        W24572   4.911  12.113   1.901
59313W        W24573  29.448  39.466   0.082
59314W        W24574  17.050  35.567   3.777
59315W        W24575  37.961  28.393   4.125
59316W        W24576  24.280  23.544  14.938
59317W        W24577  10.474   6.150   3.003
59318W        W24578   9.429  19.267   1.801
59319W        W24579  17.167  31.486  11.982
59320W        W24580  36.597   9.695   3.209
59321W        W24581   9.604  25.493  11.117
59322W        W24582  10.039   6.254  11.958
59323W        W24583  37.395   0.311  13.374
59324W        W24584  37.547  23.254  14.940
59325W        W24585  17.849  41.529   3.008
59326W        W24586  29.169  40.320  11.077
59327W        W24587  30.092  35.952  12.843
59328W        W24588  14.090  28.940   0.429
59329W        W24589   4.131  18.449   0.713
59330W        W24590  29.041  11.450   3.707
59331W        W24591  28.414   4.415  12.513
59332W        W24592   0.949  29.885  13.607
59333W        W24593  44.554  17.966   4.628
59334W        W24594  18.412  10.821   0.907
59335W        W24595   1.721  29.643   0.398
59336W        W24596  31.007  24.608   0.329
59337W        W24597  43.290   7.446   3.261
59338W        W24598  22.226  41.277  13.769
59339W        W24599  29.903  19.074   1.867
59340W        W24600  24.622  26.462   4.694
59341W        W24601  16.184  26.653  14.605
59342W        W24602  10.409  34.043   2.845
59343W        W24603   9.356  26.463  14.817
59344W        W24604  11.688  34.154   3.842
59345W        W24605  43.736   4.974  14.235
59346W        W24606   8.613  19.612  13.986
59347W        W24607  30.556   7.871   4.506
59348W        W24608  36.732  40.844  11.502
59349W        W24609  12.282  26.681   2.343
59350W        W24610  23.922  34.267   1.892
59351W        W24611  25.770  15.822  13.509
59352W        W24612   4.136   5.027  10.321
59353W        W24613  25.620  10.514  12.017
59354W        W24614  13.489  10.624  10.772
59355W        W24615  17.931  44.489  11.478
59356W        W24616  14.105  31.410  11.908
59357W        W24617   4.957  36.925  13.991
59358W        W24618  11.629  12.697  12.522
59359W        W24619  32.429  38.310  14.538
59360W        W24620  15.082  33.674   0.355
59361W        W24621  30.529  18.644   5.063
59362W        W24622  13.724  10.463  11.235
59363W        W24623  41.276  35.486   0.826
59364W        W24624  36.375  40.814  13.482
59365W        W24625   0.860  37.894  11.272
59366W        W24626  42.747  28.608  13.007
59367W        W24627  39.024  27.197  14.486
59368W        W24628  43.274   1.207   2.762
59369W        W24629  22.580  34.399   2.046
59370W        W24630   3.055  22.598   1.009
59371W        W24631  10.398  24.302   4.537
59372W        W24632  13.183  29.891  11.884
59373W        W24633  10.126   7.319  13.358
59374W        W24634  26.880   3.131  12.512
59375W        W24635  25.796  25.104   0.026
59376W        W24636  31.631   1.265   0.303
59377W        W24637  25.132  35.425   4.075
59378W        W24638  30.859  25.504   2.298
59379W        W24639  17.323  30.076   3.663
59380W        W24640  26.472  33.513  14.508
59381W        W24641  29.468  22.950  11.395
59382W        W24642  34.208  21.015  12.614
59383W        W24643  17.901   1.514  10.732
59384W        W24644   1.977  43.784  14.601
59385W        W24645   9.154  16.183  13.926
59386W        W24646  36.962   4.442   3.146
59387W        W24647  26.304  19.873   3.534
59388W        W24648  16.152  31.850   3.122
59389W        W24649  34.526  18.174  11.184
59390W        W24650  40.391  30.483   3.610
59391W        W24651   9.414   1.557   2.105
59392W        W24652  14.320  22.606   4.163
59393W        W24653   2.652  20.061   4.172
59394W        W24654  40.389  40.451  10.627
59395W        W24655   3.229  12.701  14.770
59396W        W24656  20.095  31.594   4.882
59397W        W24657  22.194  18.891   4.577
59398W        W24658  30.390  23.122   0.342
59399W        W24659  39.305   6.905  14.273
59400W        W24660  21.016  17.120  11.950
59401W        W24661   8.370  42.409   4.951
59402W        W24662  37.830  30.550  11.515
59403W        W24663  11.851   6.402   2.855
59404W        W24664  17.861  17.258   2.192
59405W        W24665  26.579  28.125   3.582
59406W        W24666  31.663  15.816  12.329
59407W        W24667   7.584  30.191  12.483
59408W        W24668  32.764  41.681   0.242
59409W        W24669  33.916  28.570  11.941
59410W        W24670  37.112   8.763  10.774
59411W        W24671  23.712  22.817   1.913
59412W        W24672  14.988  21.702   2.746
59413W        W24673  37.928  34.976  13.487
59414W        W24674   2.761   2.212   2.617
59415W        W24675  41.685  29.523   5.003
59416W        W24676  24.254  27.201   4.555
59417W        W24677  16.296  18.446   4.127
59418W        W24678  38.821  43.282   1.856
59419W        W24679   2.052  24.236   3.690
59420W        W24680  26.451  41.070  13.398
59421W        W24681  41.079  33.763   0.344
59422W        W24682   0.029   0.365   3.157
59423W        W24683  22.539  34.899   4.623
59424W        W24684  22.616  25.211   0.777
59425W        W24685  39.612   2.675   4.126
59426W        W24686  26.733  28.225  13.033
59427W        W24687  31.139  31.053   1.409
59428W        W24688  38.558  30.867   4.109
59429W        W24689  39.859  12.091   4.095
59430W        W24690  25.212  14.698   0.791
59431W        W24691  20.559  25.921   2.161
59432W        W24692  26.551  21.168   1.327
59433W        W24693  36.515  30.963   2.343
59434W        W24694   0.712  24.533   3.174
59435W        W24695  39.496   8.404   3.824
59436W        W24696  18.748  16.940  12.387
59437W        W24697  26.202  17.667  12.021
59438W        W24698  22.001  35.395  13.458
59439W        W24699  12.295  26.049   5.650
59440W        W24700  15.791   4.765  14.262
59441W        W24701  25.067  41.341   3.679
59442W        W24702  18.554   4.722   2.131
59443W        W24703   4.967  40.853  12.988
59444W        W24704  38.071  31.215  13.591
59445W        W24705  40.609  37.367   3.787
59446W        W24706   9.135  14.916  12.473
59447W        W24707  35.335  33.668   4.129
59448W        W24708  30.057   7.089   3.683
59449W        W24709   3.384  14.307   3.566
59450W        W24710  41.518  35.932   0.795
59451W        W24711   3.265  18.545   3.367
59452W        W24712  32.791   3.253   1.418
59453W        W24713  44.934   2.231  12.842
59454W        W24714  17.627   6.943  14.018
59455W        W24715  21.711  17.828  13.980
59456W        W24716  19.895  34.823   2.240
59457W        W24717  18.726  13.353   4.748
59458W        W24718  12.173   2.292  12.529
59459W        W24719   1.407  38.755  13.370
59460W        W24720   3.133  39.476   4.199
59461W        W24721  13.108  15.258  13.386
59462W        W24722  18.009  31.525   4.012
59463W        W24723   5.007  38.916  11.373
59464W        W24724  18.940  14.428  11.926
59465W        W24725  33.379  36.995  10.150
59466W        W24726   2.767  33.151  12.191
59467W        W24727  40.462  10.614  13.859
59468W        W24728  34.413   8.446   4.079
59469W        W24729  26.036  14.182   2.326
59470W        W24730  32.726  36.883   0.281
59471W        W24731  30.625  43.891   3.218
59472W        W24732   3.466  31.544  11.932
59473W        W24733   8.670  39.317   1.244
59474W        W24734  21.701  18.660  11.571
59475W        W24735   6.052   0.510  13.079
59476W        W24736   2.635  24.278   2.814
59477W        W24737   5.863   0.752  11.214
59478W        W24738  15.301  13.672   2.467
59479W        W24739   1.430  15.790   3.211
59480W        W24740  21.476  32.350  14.426
59481W        W24741  20.212  36.032   1.771
59482W        W24742  20.705   1.890  13.599
59483W        W24743  42.112   9.033  12.847
59484W        W24744  42.310  38.947   1.827
59485W        W24745  44.375  27.872  11.805
59486W        W24746   1.142  39.579   1.891
59487W        W24747  10.919  21.589   1.357
59488W        W24748   3.785   5.583  11.155
59489W        W24749  37.314  33.566  14.518
59490W        W24750  36.588  14.151  12.059
59491W        W24751  33.992  36.702  11.537
59492W        W24752   8.157  28.748  12.021
59493W        W24753  10.193  41.325  12.945
59494W        W24754  19.839  15.330  11.246
59495W        W24755   0.136  39.375  13.506
59496W        W24756   1.477  16.927  11.602
59497W        W24757   9.907  23.243   0.719
59498W        W24758  11.421   3.742  14.456
59499W        W24759  29.237  39.606  12.369
59500W        W24760  41.919  17.957   1.280
59501W        W24761  28.163  17.630  10.238
59502W        W24762  13.300  44.270   3.324
59503W        W24763  32.053  42.718  11.658
59504W        W24764   8.281  12.345   4.193
59505W        W24765  27.986  22.118   2.834
59506W        W24766  10.258  10.405   3.259
59507W        W24767  17.770  29.635   1.253
59508W        W24768  41.278  31.504  13.827
59509W        W24769  40.928   9.267   1.607
59510W        W24770  25.110   4.953   1.609
59511W        W24771  21.499  36.083   1.345
59512W        W24772  32.133   5.898   1.028
59513W        W24773  39.194  14.807  11.582
59514W        W24774  12.690  39.065   1.667
59515W        W24775  24.747  24.466   2.315
59516W        W24776  42.664  32.832  11.295
59517W        W24777  12.565  37.685   0.752
59518W        W24778   4.106  19.482   4.255
59519W        W24779  14.097  38.749  10.284
59520W        W24780  25.915  36.511  13.010
59521W        W24781  22.625  24.785  11.561
59522W        W24782  36.158  12.632   1.222
59523W        W24783  26.701  35.443  14.361
59524W        W24784  19.911  33.465  14.040
59525W        W24785   6.211  37.959   0.517
59526W        W24786  32.584  41.969  13.933
59527W        W24787  30.436  19.637   1.285
59528W        W24788  23.137   4.470   4.313
59529W        W24789  14.278  40.610  11.630
59530W        W24790  40.398  32.181  13.446
59531W        W24791   8.690  22.142  11.492
59532W        W24792  21.757  31.743   1.420
59533W        W24793  19.266  14.775  10.465
59534W        W24794  32.909  22.312   1.476
59535W        W24795   8.408  18.678   3.351
59536W        W24796  30.846   7.757   3.199
59537W        W24797  39.884  36.186   0.510
59538W        W24798  22.710   3.423   3.467
59539W        W24799  21.781  39.156  12.900
59540W        W24800   9.051  11.021   2.736
59541W        W24801   5.827  26.204   2.856
59542W        W24802  13.095  16.348   0.940
59543W        W24803  34.077   5.338  13.981
59544W        W24804  12.925  34.165   0.187
59545W        W24805  29.435   4.731   0.063
59546W        W24806   8.947   3.497   4.119
59547W        W24807  39.053  36.348   3.573
59548W        W24808  27.726  23.711   3.721
59549W        W24809  44.585  19.859  11.886
59550W        W24810  28.939  12.908   0.778
59551W        W24811  19.776  15.731   2.244
59552W        W24812  35.848  25.011   4.629
59553W        W24813  33.664  32.131  10.360
59554W        W24814  21.071  25.730   1.434
59555W        W24815  34.309   8.472  12.869
59556W        W24816  39.763   5.136   0.821
59557W        W24817  25.007  36.754  10.769
59558W        W24818  44.397  19.333   2.753
59559W        W24819  30.006  24.832   3.066
59560W        W24820  38.886  22.724   4.110
59561W        W24821  19.203  38.594   2.620
59562W        W24822  38.343  29.123   2.307
59563W        W24823  39.535  10.784   3.063
59564W        W24824  17.327  34.932  14.394
59565W        W24825   8.410  39.881   1.789
59566W        W24826  43.877  33.694  11.601
59567W        W24827   1.283  27.262  10.854
59568W        W24828   4.531   1.953  13.365
59569W        W24829  44.236  34.949   4.349
59570W        W24830  34.162  24.525   2.090
59571W        W24831   8.659  34.735   1.458
59572W        W24832  33.364   8.453  10.716
59573W        W24833  32.648  24.939   3.669
59574W        W24834   6.604  21.588   2.796
59575W        W24835   3.306  10.766   4.134
59576W        W24836  18.245  15.505   3.226
59577W        W24837   8.481  21.224  12.385
59578W        W24838   5.594  33.631  11.974
59579W        W24839  32.526  31.155   1.624
59580W        W24840  37.066  27.975  14.053
59581W        W24841   4.243   1.177   4.236
59582W        W24842  36.493  12.279  10.620
59583W        W24843  11.175   0.904  12.996
59584W        W24844  22.951  39.820  11.293
59585W        W24845   1.254  33.409  12.437
59586W        W24846   8.850  24.323   0.861
59587W        W24847  18.818  37.107  12.941
59588W        W24848  31.445  42.577  12.411
59589W        W24849  29.803  43.093  14.371
59590W        W24850  35.385   9.011   0.751
59591W        W24851   4.703  41.231  12.027
59592W        W24852   6.843  13.237   2.141
59593W        W24853  13.432  24.589  10.707
59594W        W24854  10.314   5.820  11.913
59595W        W24855   1.788  31.469   3.411
59596W        W24856  36.075   8.832  14.500
59597W        W24857   1.698  29.872  14.911
59598W        W24858  41.853   9.880  14.424
59599W        W24859  30.005  27.588  10.605
59600W        W24860  22.178   3.528   3.183
59601W        W24861  32.868  31.529  13.023
59602W        W24862  16.566  44.565  11.636
59603W        W24863  15.921  13.391   1.894
59604W        W24864  13.011  33.713   2.265
59605W        W24865  21.815  35.413   2.894
59606W        W24866   6.492  13.649  14.409
59607W        W24867  30.189  40.928  11.986
59608W        W24868  17.537  18.686  14.882
59609W        W24869  17.034   7.649  12.082
59610W        W24870  32.623   6.855   2.169
59611W        W24871  36.961  29.548   4.588
59612W        W24872   4.806  38.830  12.356
59613W        W24873  28.051  40.912  12.255
59614W        W24874  30.444  18.661   1.335
59615W        W24875  30.955  28.289   3.595
59616W        W24876  42.611  38.530   4.176
59617W        W24877   5.784  33.052  10.635
59618W        W24878  29.613  34.928  10.323
59619W        W24879  19.678  14.702  12.441
59620W        W24880  31.088  33.876  14.492
59621W        W24881  22.517  28.181  14.531
59622W        W24882   1.900   1.935  12.114
59623W        W24883  29.243  32.854  11.421
59624W        W24884  41.705  41.030   3.683
59625W        W24885  20.581  24.064   1.734
59626W        W24886  31.404  14.785  14.759
59627W        W24887  36.741  20.299   1.582
59628W        W24888   2.909  39.382   1.196
59629W        W24889  20.728  29.319  13.223
59630W        W24890  19.611  27.857  11.247
59631W        W24891  13.394   1.176  14.712
59632W        W24892  23.606  36.808   2.380
59633W        W24893  26.150  12.363  13.108
59634W        W24894  25.974   0.346  13.406
59635W        W24895  22.302   9.873   2.248
59636W        W24896  18.209   3.726   2.422
59637W        W24897  24.159   7.224  12.929
59638W        W24898  19.890  37.377   2.256
59639W        W24899  38.987   7.697  12.157
59640W        W24900  18.605  28.454  10.534
59641W        W24901  16.551   7.444  12.130
59642W        W24902  40.979   5.371  12.639
59643W        W24903  38.089   2.396  11.992
59644W        W24904  23.121   5.400   0.196
59645W        W24905   6.724   3.182   4.802
59646W        W24906  23.549  25.589   4.474
59647W        W24907  22.137  19.850  13.895
59648W        W24908  34.897  36.847  13.795
59649W        W24909  27.206  41.936   2.233
59650W        W24910  43.079  21.372   1.769
59651W        W24911  29.009  11.964   3.678
59652W        W24912  37.929  34.639   1.274
59653W        W24913  14.105  23.587   4.540
59654W        W24914   0.806  18.069   3.798
59655W        W24915  21.093  17.580   1.123
59656W        W24916  20.837   9.288  13.352
59657W        W24917  39.854   2.754   1.244
59658W        W24918   7.350  18.316  13.476
59659W        W24919  35.370   3.346   3.402
59660W        W24920  36.288  36.414   4.122
59661W        W24921  16.376   7.393  14.829
59662W        W24922  19.264  37.996   3.195
59663W        W24923  28.104  30.941  13.060
59664W        W24924   5.878  22.730  10.315
59665W        W24925  34.557   6.706   0.291
59666W        W24926  12.142  29.096  12.022
59667W        W24927  21.691  22.529  13.876
59668W        W24928  35.637   3.307  14.269
59669W        W24929   4.840  22.232   4.551
59670W        W24930   6.972  29.683  12.899
59671W        W24931   4.266   3.656   0.967
59672W        W24932  11.585  41.284   2.007
59673W        W24933   8.953  41.622   0.226
59674W        W24934   9.306  35.203  13.533
59675W        W24935   0.932  15.110   1.711
59676W        W24936  10.306   1.975   3.191
59677W        W24937  43.326  43.504   1.427
59678W        W24938  18.782   1.379   1.517
59679W        W24939  25.078  19.230   0.234
59680W        W24940  28.840  15.275  12.431
59681W        W24941  30.728  12.262   0.243
59682W        W24942  13.157  39.763   1.926
59683W        W24943  40.849   5.868  11.606
59684W        W24944   9.062  23.640   2.774
59685W        W24945  27.158  22.975   0.827
59686W        W24946  37.318   6.089   4.174
59687W        W24947  25.740  21.605   1.421
59688W        W24948   1.533  37.037   1.688
59689W        W24949  14.183  11.378  11.572
59690W        W24950   7.735  38.087  14.325
59691W        W24951   1.563  31.092   3.158
59692W        W24952   7.322   6.166  14.266
59693W        W24953  40.081  12.861   0.262
59694W        W24954  38.574  38.584   0.019
59695W        W24955  24.334  30.430  10.621
59696W        W24956  18.478   2.788   4.697
59697W        W24957  33.552   6.318   4.069
59698W        W24958  33.439  22.023   2.305
59699W        W24959  33.901  24.576  10.669
59700W        W24960  42.294  32.585  13.685
59701W        W24961  21.092   8.297   1.293
59702W        W24962  24.115  19.986   3.768
59703W        W24963  17.869   9.478  14.390
59704W        W24964  22.099  44.431   2.583
59705W        W24965   3.349  27.993  13.431
59706W        W24966  16.247  32.159   4.781
59707W        W24967  13.916  24.496   4.175
59708W        W24968   1.873  39.478  10.563
59709W        W24969  15.224  19.552   0.922
59710W        W24970  37.862  17.033  13.071
59711W        W24971   9.600   4.805  11.763
59712W        W24972  35.613  38.428  10.460
59713W        W24973  24.534  39.022   1.775
59714W        W24974  22.162  31.391   1.439
59715W        W24975  35.783  43.856  12.483
59716W        W24976  21.709  44.638   2.283
59717W        W24977  29.082  22.555   2.362
59718W        W24978  43.293  10.803  14.824
59719W        W24979  42.880   7.932   1.234
59720W        W24980  10.469  24.312  11.123
59721W        W24981  21.622  24.796  14.277
59722W        W24982   0.773  30.588  12.905
59723W        W24983  39.430  32.505  12.483
59724W        W24984  43.285  18.199  10.251
59725W        W24985  25.241  29.406   1.382
59726W        W24986  42.819  20.607   3.806
59727W        W24987   0.064  19.473  14.950
59728W        W24988  38.404  11.729  14.523
59729W        W24989  32.604  13.359   3.696
59730W        W24990  41.972   6.774  12.974
59731W        W24991  40.399  36.535  11.277
59732W        W24992  41.352  13.290  11.202
59733W        W24993  30.665  38.832   4.944
59734W        W24994  22.723   5.455  13.455
59735W        W24995  14.482  25.081  14.041
59736W        W24996  10.653  22.941  13.904
59737W        W24997  32.947  15.153  12.329
59738W        W24998  37.000  17.691   2.845
59739W        W24999  39.669  34.484   3.167
59740W        W25000  27.423  33.158   3.202
59741W        W25001  21.538  20.983   2.754
59742W        W25002   1.201  15.224   0.759
59743W        W25003  15.267  11.070  11.571
59744W        W25004  12.815   7.545  12.406
59745W        W25005  29.527   9.326  11.076
59746W        W25006   0.024  25.675   2.404
59747W        W25007   9.200   6.910   4.048
59748W        W25008  14.699  24.269   3.240
59749W        W25009  38.517  14.748   1.763
59750W        W25010  19.417  42.938  14.797
59751W        W25011  29.573  18.654  10.757
59752W        W25012  40.275  38.548  14.368
59753W        W25013  21.977   8.249   0.722
59754W        W25014  43.548  11.743   3.177
59755W        W25015  36.052  31.134  12.656
59756W        W25016  38.208  35.162   3.785
59757W        W25017   1.944  20.508  11.621
59758W        W25018  44.049   1.289   0.892
59759W        W25019   6.724   0.046   1.215
59760W        W25020  16.148  42.444   4.512
59761W        W25021  27.397  42.986  13.879
59762W        W25022  12.660  39.572   4.225
59763W        W25023  30.634  21.120  12.522
59764W        W25024  35.082   4.341  14.094
59765W        W25025   4.778  13.205   0.244
59766W        W25026  17.559  22.182  13.020
59767W        W25027  43.932  25.106  10.278
59768W        W25028  12.801  38.916  11.401
59769W        W25029  13.923   7.214   3.920
59770W        W25030  35.794  14.218  11.109
59771W        W25031  16.296  32.866  12.436
59772W        W25032  40.686  21.720   3.012
59773W        W25033   0.422  21.353  14.764
59774W        W25034  25.122  23.985  11.653
59775W        W25035  20.874   7.564   0.408
59776W        W25036  23.638  18.602  13.456
59777W        W25037  43.908  33.674   3.656
59778W        W25038  13.356  43.128  13.064
59779W        W25039  42.829  39.363  14.007
59780W        W25040   4.790  40.892   0.688
59781W        W25041  15.829  22.935  14.275
59782W        W25042  43.718  22.786   4.533
59783W        W25043   3.266  10.356   1.844
59784W        W25044  33.518  24.615   2.716
59785W        W25045  22.838  26.799  11.692
59786W        W25046  32.464  28.907   1.908
59787W        W25047   2.889  44.730   3.206
59788W        W25048  25.543  40.890   1.838
59789W        W25049  40.384   4.493   2.287
59790W        W25050  34.005   5.217   4.615
59791W        W25051   0.237   7.598   4.303
59792W        W25052  18.135  35.830   0.346
59793W        W25053   1.023  30.173  12.404
59794W        W25054  12.330  27.185   5.226
59795W        W25055  16.540  22.771   0.930
59796W        W25056  28.967  37.922  13.183
59797W        W25057   0.180  35.643  13.539
59798W        W25058  21.969  39.401   2.083
59799W        W25059   8.472  22.983  11.916
59800W        W25060  21.350  35.567  12.347
59801W        W25061  43.953  19.629   2.601
59802W        W25062   4.519  27.160   2.723
59803W        W25063   6.394  25.506   4.240
59804W        W25064   0.021  28.096  14.290
59805W        W25065  17.123  37.168  12.936
59806W        W25066  34.902  25.436  14.356
59807W        W25067  24.971  24.038   5.054
59808W        W25068  15.895  39.482  12.979
59809W        W25069  40.452  10.945  14.845
59810W        W25070  31.085  25.577   1.746
59811W        W25071  20.740   5.393  10.776
59812W        W25072  22.823  22.640  14.742
59813W        W25073   0.172  30.706  11.935
59814W        W25074  11.814  22.254   1.735
59815W        W25075  43.475  18.309   0.949
59816W        W25076  41.989  24.056   3.194
59817W        W25077  10.752  20.939   3.537
59818W        W25078  21.752  11.308  12.025
59819W        W25079  17.534  14.362  14.411
59820W        W25080  37.935   2.724   1.122
59821W        W25081  19.657   6.637  14.987
59822W        W25082   7.914  39.427  10.724
59823W        W25083  35.780  14.525   2.651
59824W        W25084   3.707  32.014   4.099
59825W        W25085  27.271   2.252  12.283
59826W        W25086   3.520  14.323   4.046
59827W        W25087  12.893   2.715  12.621
59828W        W25088  17.045  40.054  10.761
59829W        W25089  27.311  35.923   3.625
59830W        W25090  39.869  34.985  11.926
59831W        W25091  38.427  42.243   2.201
59832W        W25092   0.516  30.559  13.382
59833W        W25093  40.371   7.046   1.704
59834W        W25094  41.285  21.312  13.878
59835W        W25095   7.257  19.591  11.079
59836W        W25096  39.578  38.717  14.084
59837W        W25097  37.703  38.047  14.775
59838W        W25098  27.621   1.686   0.094
59839W        W25099  38.433  13.150  14.978
59840W        W25100  10.069  13.656   3.345
59841W        W25101   3.861  27.742  13.057
59842W        W25102   6.340   7.356  14.355
59843W        W25103  33.974  10.722   3.315
59844W        W25104  35.607  16.784   1.589
59845W        W25105  21.136  31.628   2.716
59846W        W25106  40.925   1.738   4.542
59847W        W25107   2.007  16.856  14.817
59848W        W25108  28.940  21.744  13.645
59849W        W25109  26.987  18.473   0.329
59850W        W25110   3.316  37.297  11.122
59851W        W25111   8.193  26.126   2.732
59852W        W25112   7.822   2.471   1.656
59853W        W25113  34.334  37.045  14.248
59854W        W25114  22.990  29.422   1.685
59855W        W25115  36.950  43.018   3.556
59856W        W25116  41.242  32.709  11.160
59857W        W25117  25.717  14.700   1.408
59858W        W25118  35.587  34.044   1.218
59859W        W25119  40.491   4.683  10.781
59860W        W25120   4.896  43.283  14.858
59861W        W25121  31.950  22.378  14.772
59862W        W25122  10.111  31.587  13.874
59863W        W25123  28.119  41.253  12.645
59864W        W25124   4.208  22.052  10.732
59865W        W25125  10.822  25.135  13.359
59866W        W25126  22.299  37.134  12.460
59867W        W25127   9.346   1.689  11.564
59868W        W25128   0.274  25.190   0.313
59869W        W25129  22.407  18.058   1.316
59870W        W25130  26.648  21.029  13.436
59871W        W25131   8.207  15.674   0.503
59872W        W25132  44.262  11.226  12.867
59873W        W25133  13.210   3.411  11.592
59874W        W25134  13.048  14.024  14.475
59875W        W25135  10.257  12.299   3.891
59876W        W25136  32.494   7.365  14.961
59877W        W25137  23.794  38.697  12.395
59878W        W25138  38.449  30.006  13.251
59879W        W25139   7.404  12.836   2.187
59880W        W25140  15.112  25.566  14.309
59881W        W25141   6.308   1.798  10.667
59882W        W25142  26.589  15.092   0.359
59883W        W25143  12.637  29.059  11.757
59884W        W25144  17.575   1.238  11.871
59885W        W25145  17.121   7.639   2.815
59886W        W25146   1.669   9.555   3.184
59887W        W25147  32.563  21.760  13.707
59888W        W25148   5.076  23.281   9.818
59889W        W25149  34.082  25.659   0.313
59890W        W25150  12.132  30.505  12.963
59891W        W25151   7.249   4.620  14.288
59892W        W25152  40.050   0.404   0.961
59893W        W25153  14.805   2.328  11.558
59894W        W25154  36.839  12.812   0.703
59895W        W25155  40.266  13.209  13.884
59896W        W25156  39.047  11.734   2.270
59897W        W25157  11.621  35.438  14.899
59898W        W25158  35.523  31.918   3.258
59899W        W25159   2.790  16.011   1.896
59900W        W25160  33.074  40.396  13.848
59901W        W25161  19.739  31.052  11.390
59902W        W25162  15.688   6.161   3.166
59903W        W25163  41.479  41.692  14.213
59904W        W25164   6.913   8.195  12.929
59905W        W25165   3.833  21.093   3.494
59906W        W25166  18.613  16.633   1.749
59907W        W25167  22.456  24.760   2.622
59908W        W25168   2.256   2.866  10.973
59909W        W25169   1.209   2.303  13.337
59910W        W25170  26.131  37.523  14.545
59911W        W25171  16.555  22.110   0.889
59912W        W25172  33.924   2.746   0.271
59913W        W25173   2.212  10.165   4.541
59914W        W25174   8.714   1.534  12.584
59915W        W25175  25.475  29.976  10.767
59916W        W25176  28.397  13.426  14.488
59917W        W25177  13.118  17.975  12.946
59918W        W25178  44.458  32.857  14.752
59919W        W25179   1.919  36.405  13.330
59920W        W25180  30.004  12.288  13.690
59921W        W25181  16.617   4.494  14.520
59922W        W25182  16.665  28.450  11.554
59923W        W25183  24.708  32.821   0.721
59924W        W25184  30.093  13.153  14.915
59925W        W25185  12.070  37.872  14.064
59926W        W25186  15.039   6.007   4.046
59927W        W25187  40.703  30.885   4.571
59928W        W25188  26.064  43.830  14.941
59929W        W25189   0.727  39.282   1.740
59930W        W25190  23.642  34.574  10.466
59931W        W25191  37.215   0.725  12.561
59932W        W25192  42.672   9.066   1.417
59933W        W25193  15.212  35.379   3.796
59934W        W25194   3.252   5.482  12.061
59935W        W25195   3.339   2.334   5.089
59936W        W25196  10.852   4.578   5.036
59937W        W25197   9.413  11.562   2.462
59938W        W25198  19.116  30.798  12.159
59939W        W25199  15.575  22.714   2.760
59940W        W25200   9.446  43.119  12.435
59941W        W25201  41.420  40.288  11.807
59942W        W25202   4.438   0.946   0.352
59943W        W25203  27.586  20.804   1.890
59944W        W25204  34.001  11.891   3.857
59945W        W25205  18.192  21.103  14.829
59946W        W25206  25.531  14.597   4.385
59947W        W25207   1.030  10.952   3.071
59948W        W25208  38.471  38.437   2.446
59949W        W25209  10.547   1.214  11.167
59950W        W25210  25.638  10.706  13.014
59951W        W25211  23.818   1.465   3.233
59952W        W25212  27.011  37.846  13.328
59953W        W25213  22.589  35.932  14.453
59954W        W25214  13.901   0.430  10.702
59955W        W25215  15.626  40.313   3.628
59956W        W25216  40.959  31.604   1.538
59957W        W25217   4.026  34.364   3.700
59958W        W25218  40.787  37.073   4.159
59959W        W25219  25.227  33.578  13.304
59960W        W25220  39.930  18.671   0.424
59961W        W25221  37.378  12.817   4.593
59962W        W25222  39.994   8.688   0.059
59963W        W25223   4.322  44.998  11.736
59964W        W25224  26.893  33.113   3.202
59965W        W25225  19.773  44.925  12.462
59966W        W25226  41.651  37.167  12.865
59967W        W25227  11.170  29.188   1.213
59968W        W25228  41.559  39.834   1.277
59969W        W25229  12.804  44.289  14.838
59970W        W25230  13.029  19.561   0.971
59971W        W25231   2.340  42.234   1.831
59972W        W25232  31.507  27.095  14.149
59973W        W25233   8.890  15.899  11.700
59974W        W25234  40.507  14.101   0.764
59975W        W25235  25.642  19.236   2.856
59976W        W25236  33.101  29.122  14.893
59977W        W25237   4.155  29.898  14.445
59978W        W25238   2.321  36.024   3.544
59979W        W25239   6.739  15.760   3.183
59980W        W25240  21.812  27.075   4.537
59981W        W25241  36.561  14.063   3.273
59982W        W25242  13.233  22.480  14.875
59983W        W25243  33.044  37.292   2.856
59984W        W25244  41.309   5.672   4.607
59985W        W25245   5.840  26.690   1.793
59986W        W25246  16.777  24.938  14.263
59987W        W25247  10.804  22.138  14.547
59988W        W25248   6.029  42.428   2.319
59989W        W25249  22.148   6.431   4.051
59990W        W25250   6.768  23.093   2.679
59991W        W25251  28.460   8.888  12.669
59992W        W25252   8.827  23.169   2.859
59993W        W25253   1.364   0.829   3.103
59994W        W25254  31.654  27.999  12.449
59995W        W25255  15.193  37.622  14.454
59996W        W25256  17.596  43.906  13.915
59997W        W25257  19.611   5.976   1.283
59998W        W25258   1.731  23.678  13.672
59999W        W25259  24.200  14.772   3.064
60000W        W25260  21.250  44.496  13.091
60001W        W25261  14.623   1.685   0.293
60002W        W25262  12.133  33.766  14.170
60003W        W25263  41.115  44.505  14.903
60004W        W25264  35.401  39.324   2.251
60005W        W25265  16.157  44.066  10.982
60006W        W25266  10.734  40.103  12.583
60007W        W25267  43.286  38.920  13.441
60008W        W25268  26.495  28.656  12.815
60009W        W25269  27.551  37.972   2.477
60010W        W25270  20.756   0.165   2.399
60011W        W25271  26.160  30.901   2.589
60012W        W25272   8.816  41.245   0.528
60013W        W25273   1.516  25.613   2.737
60014W        W25274  11.749  42.757  10.534
60015W        W25275  43.343  41.957  13.964
60016W        W25276  10.704  15.064   4.655
60017W        W25277   6.743  30.330   4.769
60018W        W25278  16.207   2.470   1.431
60019W        W25279  12.719   9.464  11.014
60020W        W25280  27.173  42.434   1.986
60021W        W25281  14.388  35.520  14.887
60022W        W25282  10.718  21.592   0.439
60023W        W25283  14.847  13.579   4.565
60024W        W25284  24.752   4.154  11.817
60025W        W25285   9.290  17.755   2.183
60026W        W25286  19.902  17.611   3.993
60027W        W25287   5.307   7.685  12.855
60028W        W25288  28.045  18.495   4.349
60029W        W25289  44.959  36.794   4.578
60030W        W25290  13.227  14.858   2.884
60031W        W25291  35.120  27.564   3.834
60032W        W25292  44.787  12.328   2.249
60033W        W25293   4.731  12.201  12.840
60034W        W25294  11.768   6.924   3.346
60035W        W25295   5.808   3.846  11.427
60036W        W25296  17.698  20.457   0.819
60037W        W25297  27.572  27.936   2.774
60038W        W25298   1.393  32.356   4.272
60039W        W25299   0.492  22.971   4.133
60040W        W25300   8.408  24.670   4.101
60041W        W25301  32.513  15.089   2.142
60042W        W25302   5.151  39.760  10.732
60043W        W25303  23.608  34.765  10.939
60044W        W25304  36.559  13.170  14.878
60045W        W25305   4.496  35.788  12.154
60046W        W25306  30.623  27.136   0.394
60047W        W25307  20.215  12.885  11.046
60048W        W25308  39.043  16.235  13.468
60049W        W25309  14.357  19.037   0.839
60050W        W25310  38.459  36.572   2.786
60051W        W25311   8.201  10.164   5.007
60052W        W25312   0.360  25.010  12.401
60053W        W25313  15.657  34.291  12.928
60054W        W25314   2.248  34.095   2.684
60055W        W25315   3.273   3.427  14.068
60056W        W25316   6.037  11.059   0.889
60057W        W25317  33.487  23.339  10.809
60058W        W25318   1.969  12.216   3.991
60059W        W25319  33.475   8.739  11.139
60060W        W25320  39.374  26.148  13.101
60061W        W25321  18.120  22.267   4.493
60062W        W25322  33.007  14.535  14.009
60063W        W25323  20.022  22.153  14.068
60064W        W25324   9.004  22.626   3.668
60065W        W25325   4.941  35.504  12.590
60066W        W25326   3.978  18.288   5.156
60067W        W25327  16.567  26.513   3.748
60068W        W25328  33.350  14.254   3.276
60069W        W25329  18.606  13.873   2.167
60070W        W25330  10.014  11.093   4.965
60071W        W25331  25.127  15.394  12.901
60072W        W25332  14.697  18.197  14.881
60073W        W25333   9.193   5.193   4.501
60074W        W25334   3.511  34.855   3.163
60075W        W25335  42.229  43.920  14.300
60076W        W25336  37.558  24.204  14.128
60077W        W25337  13.599  26.473  10.625
60078W        W25338  24.337  20.298   0.888
60079W        W25339  36.081  44.746   5.245
60080W        W25340  19.593  24.334  13.143
60081W        W25341  39.459  34.255   4.415
60082W        W25342   3.501  37.510  14.421
60083W        W25343  18.054  25.212   4.179
60084W        W25344  13.341   0.885   1.644
60085W        W25345   1.867  17.042  12.138
60086W        W25346  14.677   4.132  10.775
60087W        W25347  41.424   0.946   0.890
60088W        W25348  24.062  35.343  14.939
60089W        W25349   2.002  43.802   1.396
60090W        W25350  23.866   3.865  11.526
60091W        W25351  40.517  40.435  12.677
60092W        W25352  12.921   1.647  10.758
60093W        W25353  18.833  24.319   2.644
60094W        W25354  22.160  37.792   3.712
60095W        W25355  18.657   5.461  13.123
60096W        W25356   9.596  33.686  10.716
60097W        W25357  15.633  24.275  11.995
60098W        W25358  29.859  25.727   2.055
60099W        W25359  15.069   6.449  14.003
60100W        W25360   7.342  28.736  14.155
60101W        W25361  21.266  18.196  12.760
60102W        W25362   8.514  25.573   9.959
60103W        W25363  25.723  43.391   4.897
60104W        W25364   5.880  25.531  13.719
60105W        W25365  18.649  41.526   2.637
60106W        W25366  23.812  30.514  10.473
60107W        W25367  35.996  18.736   3.154
60108W        W25368  37.357  37.832   4.272
60109W        W25369   7.356  33.171  14.708
60110W        W25370  20.628  38.376   0.939
60111W        W25371  17.065  15.440   2.309
60112W        W25372   2.262  12.322  13.411
60113W        W25373  25.184  16.087   1.840
60114W        W25374  43.260  15.281  13.450
60115W        W25375  19.626   8.809   1.755
60116W        W25376  22.005  25.755  13.343
60117W        W25377  34.574   1.239  11.609
60118W        W25378  33.365  29.893  11.619
60119W        W25379  15.069  36.156  13.000
60120W        W25380  18.341  13.787   3.116
60121W        W25381  23.821  24.929  14.132
60122W        W25382  20.792  35.119  12.924
60123W        W25383  34.626  13.328   3.655
60124W        W25384  18.637   3.900  13.335
60125W        W25385   5.793   2.712  13.506
60126W        W25386  33.400  42.449   5.014
60127W        W25387  27.538  12.772   3.340
60128W        W25388  18.728  25.977  14.931
60129W        W25389  43.894  14.910   3.201
60130W        W25390  12.294  12.352   3.657
60131W        W25391  29.036  32.974  12.428
60132W        W25392  22.064   6.682  12.353
60133W        W25393  30.991  12.258   4.592
60134W        W25394  26.198  17.050   4.192
60135W        W25395   8.652  13.315  11.991
60136W        W25396   1.018  20.215   3.337
60137W        W25397  20.658  40.624   4.261
60138W        W25398   1.291  33.053  13.934
60139W        W25399  32.612  40.500  12.030
60140W        W25400   2.827  41.643   1.410
60141W        W25401  37.245  32.557   4.749
60142W        W25402  30.950  14.548   2.223
60143W        W25403   0.718  18.067  13.006
60144W        W25404  38.321  40.160   0.765
60145W        W25405   4.986  22.764  10.728
60146W        W25406   1.157  23.084  13.392
60147W        W25407   9.231  11.103   3.861
60148W        W25408   4.789  34.501   0.004
60149W        W25409  38.810  40.743  11.863
60150W        W25410  36.840   0.151  10.734
60151W        W25411  28.250   6.063  13.022
60152W        W25412  21.170  30.519   2.092
60153W        W25413  24.175  29.843  11.995
60154W        W25414  32.346  15.311   4.294
60155W        W25415  12.409  23.892  12.103
60156W        W25416  10.782  16.404  14.591
60157W        W25417   8.522   4.582   0.855
60158W        W25418  30.945   0.253   3.184
60159W        W25419  13.745  35.398  14.042
60160W        W25420  36.271   3.260   4.111
60161W        W25421   2.641  29.786  14.591
60162W        W25422  44.066   3.038  12.075
60163W        W25423  18.899  29.921  13.789
60164W        W25424  24.219  34.360   1.454
60165W        W25425  12.610  31.020  13.506
60166W        W25426  12.655  24.526   0.313
60167W        W25427   7.570   8.019   0.888
60168W        W25428  44.038  37.591  11.747
60169W        W25429  16.855  21.030   0.844
60170W        W25430   4.067   0.917   2.752
60171W        W25431  18.892  31.854   2.904
60172W        W25432  23.219  37.996   4.905
60173W        W25433   2.723  24.630   1.185
60174W        W25434   9.876  29.839   4.002
60175W        W25435  16.763  37.530  14.933
60176W        W25436  33.412  10.448   0.951
60177W        W25437   8.778   3.917  13.734
60178W        W25438  23.689  35.996  11.406
60179W        W25439   7.876  20.174  14.018
60180W        W25440  10.151   3.719   1.377
60181W        W25441  14.167   0.280  13.438
60182W        W25442   4.464   4.866  13.127
60183W        W25443  14.220  36.597  13.093
60184W        W25444   7.893  26.629   3.551
60185W        W25445  39.368  16.651  12.784
60186W        W25446  29.761   6.384   3.811
60187W        W25447  32.119   8.351  14.928
60188W        W25448  40.342  20.303  12.051
60189W        W25449  37.993  20.100  12.093
60190W        W25450   8.447  25.657   2.756
60191W        W25451  25.831   1.385  13.863
60192W        W25452  37.696   0.185  14.715
60193W        W25453  44.629   1.883   0.451
60194W        W25454  21.931  43.456   4.088
60195W        W25455  28.849  18.380  11.251
60196W        W25456  24.144  12.390   3.784
60197W        W25457  29.455  28.452  13.417
60198W        W25458  16.709  42.867  11.609
60199W        W25459  40.272  23.693   0.930
60200W        W25460  20.031  12.792   1.953
60201W        W25461  25.420  12.189  10.779
60202W        W25462  16.389  16.309   2.256
60203W        W25463  34.980  34.850   2.630
60204W        W25464   1.884  29.555  11.408
60205W        W25465  30.118  20.718  14.092
60206W        W25466  31.804  30.438  12.524
60207W        W25467   6.379  14.991   4.597
60208W        W25468  14.689  30.020   4.816
60209W        W25469  16.764   5.873   1.381
60210W        W25470  15.577  30.378  11.936
60211W        W25471  13.158  12.730   1.818
60212W        W25472   5.255  40.038   0.433
60213W        W25473  15.730  41.348   3.353
60214W        W25474  19.492  17.155  12.078
60215W        W25475   9.312   5.196  10.075
60216W        W25476  33.032  38.331   2.900
60217W        W25477  25.401  23.243  11.722
60218W        W25478   1.463  33.026   2.442
60219W        W25479  23.779  31.029  11.271
60220W        W25480  18.683   7.737  12.834
60221W        W25481  38.283  20.721   3.635
60222W        W25482   5.931  37.330   3.688
60223W        W25483  44.912   2.304  14.565
60224W        W25484  12.162  42.797  11.159
60225W        W25485  21.154   2.813  13.585
60226W        W25486  27.402  25.133  12.106
60227W        W25487  37.997  33.450   3.673
60228W        W25488  33.988   2.002  13.420
60229W        W25489  44.611  16.791  11.203
60230W        W25490  44.853   5.397  11.137
60231W        W25491  36.456   4.473   4.069
60232W        W25492  33.764   4.711   4.668
60233W        W25493  27.423   4.830   0.308
60234W        W25494   2.841  33.032  13.177
60235W        W25495  36.092   4.856   4.086
60236W        W25496  40.640  22.657  13.441
60237W        W25497   9.683  26.888   3.596
60238W        W25498  34.662  37.772   0.640
60239W        W25499  36.774  29.888  11.661
60240W        W25500  39.472  10.310   3.784
60241W        W25501  13.324  21.662   3.181
60242W        W25502  19.187  18.324   4.262
60243W        W25503   6.182   6.175  10.689
60244W        W25504  13.728  25.308   1.182
60245W        W25505  39.304  14.335   3.778
60246W        W25506   7.068  34.802   0.725
60247W        W25507  11.929   1.057   4.136
60248W        W25508  38.013  42.086  12.578
60249W        W25509   3.620   7.360   0.491
60250W        W25510   7.277  15.809   3.217
60251W        W25511  44.648   6.815   1.795
60252W        W25512  30.828  28.857  10.794
60253W        W25513  21.485  29.463  11.087
60254W        W25514  36.002  28.111   2.255
60255W        W25515  15.084  22.832   0.313
60256W        W25516  23.365   7.007   9.923
60257W        W25517   9.747  32.880   3.856
60258W        W25518  11.079   5.341  10.614
60259W        W25519  37.721  17.093  12.207
60260W        W25520  39.216  39.650  14.895
60261W        W25521  39.876   8.290  14.711
60262W        W25522  11.303  31.339   1.837
60263W        W25523   5.378  12.589   0.753
60264W        W25524   1.986  30.583   3.928
60265W        W25525  35.341  23.827   0.748
60266W        W25526  10.980  24.145  14.407
60267W        W25527  23.118  23.013  13.828
60268W        W25528  28.656   5.147  12.887
60269W        W25529  30.557  43.026  14.936
60270W        W25530  37.549   2.156   1.696
60271W        W25531   3.695  11.959   3.721
60272W        W25532  27.435  43.933  14.031
60273W        W25533   0.998  24.019   4.993
60274W        W25534  23.686  39.141  14.628
60275W        W25535  36.083  16.850   3.415
60276W        W25536  40.890  35.388  13.184
60277W        W25537  30.500  31.161   1.908
60278W        W25538  32.675  36.048   4.491
60279W        W25539  18.214  43.028  13.428
60280W        W25540   9.655  30.647  11.103
60281W        W25541  29.455  20.523  10.798
60282W        W25542  40.899   1.975   1.061
60283W        W25543  44.510  42.525  12.457
60284W        W25544  41.881  22.129  10.745
60285W        W25545  16.145  44.411  13.830
60286W        W25546   7.902  31.526   3.179
60287W        W25547   3.448  30.868   0.379
60288W        W25548  38.712  33.320   4.160
60289W        W25549   8.417  28.152  11.651
60290W        W25550   1.869  19.724  12.105
60291W        W25551  35.315  14.143   0.443
60292W        W25552  22.530  11.791  10.336
60293W        W25553  25.409   3.742   2.362
60294W        W25554  21.899  38.949  12.406
60295W        W25555  27.656   3.969  10.489
60296W        W25556   5.896  18.409   3.967
60297W        W25557   3.784  40.348  14.919
60298W        W25558  28.679  13.050  13.568
60299W        W25559  24.638  40.778   0.462
60300W        W25560  23.494  21.003  14.431
60301W        W25561  27.365  42.595  11.541
60302W        W25562  18.676  21.687   5.457
60303W        W25563  29.567  10.225   2.220
60304W        W25564  17.225  18.780  14.475
60305W        W25565  31.397  32.957   0.256
60306W        W25566   4.875   8.575   3.222
60307W        W25567  22.615   0.336  13.765
60308W        W25568  41.979  32.517  10.610
60309W        W25569  12.707  31.068   2.772
60310W        W25570  18.758  33.337   3.367
60311W        W25571  33.167  21.629   2.144
60312W        W25572   4.816  34.369   4.204
60313W        W25573   6.212  16.386   0.898
60314W        W25574  38.103  28.150  12.095
60315W        W25575  21.720  20.790   4.391
60316W        W25576  31.905  34.046   0.758
60317W        W25577  11.895  31.124  14.690
60318W        W25578  12.116   5.298  10.575
60319W        W25579  42.569  22.662  10.610
60320W        W25580  20.299  34.422  13.119
60321W        W25581   6.874  32.957  14.546
60322W        W25582   4.395  19.182  13.457
60323W        W25583  14.713  22.689  13.361
60324W        W25584  32.277  25.156  12.532
60325W        W25585  11.152  12.789   2.300
60326W        W25586  36.336  22.031   0.794
60327W        W25587  43.567  22.197   2.257
60328W        W25588  36.620  15.817   4.552
60329W        W25589  42.769  36.826  13.960
60330W        W25590  31.464  44.447   3.229
60331W        W25591  21.691  15.285   1.662
60332W        W25592  37.777  34.975  10.300
60333W        W25593  35.110  25.068   0.296
60334W        W25594  33.455  20.744   1.659
60335W        W25595  37.548  13.039   4.149
60336W        W25596  30.701  17.514  14.950
60337W        W25597  44.773  14.355  11.220
60338W        W25598  13.316  41.557   1.356
60339W        W25599  21.505   9.177  11.932
60340W        W25600  31.833  24.929  12.711
60341W        W25601  20.686  40.841   0.329
60342W        W25602  44.777   7.663   0.743
60343W        W25603   8.665  36.872  11.646
60344W        W25604   5.885  39.362   2.252
60345W        W25605  21.725  14.296  14.301
60346W        W25606  20.132  33.022  10.446
60347W        W25607  19.730  27.236  14.527
60348W        W25608  28.629  26.070   2.286
60349W        W25609  11.628  39.879   0.873
60350W        W25610  11.871  41.757   4.382
60351W        W25611  19.088  41.423  14.518
60352W        W25612  43.445  16.037   4.613
60353W        W25613  38.905  12.847  11.600
60354W        W25614  41.988  21.748   2.716
60355W        W25615  15.271  10.703  10.653
60356W        W25616  26.128  23.568  13.946
60357W        W25617  32.187   4.884   0.394
60358W        W25618  19.247   3.715   4.530
60359W        W25619  23.611  36.467  11.174
60360W        W25620   3.948  32.309   2.342
60361W        W25621  18.151  19.925  11.973
60362W        W25622   6.027  28.745   1.506
60363W        W25623  33.931  28.562   2.986
60364W        W25624  41.389   5.117  12.440
60365W        W25625  28.555   2.781  10.666
60366W        W25626  11.240  38.585   4.364
60367W        W25627  21.067   3.464  12.208
60368W        W25628   6.400  28.730  10.911
60369W        W25629   3.395  17.110   0.854
60370W        W25630   2.479  37.470  12.511
60371W        W25631   4.171  43.805   1.936
60372W        W25632  23.602   9.950  11.051
60373W        W25633   1.478  35.058  12.095
60374W        W25634  15.146  39.324  14.819
60375W        W25635  17.123  36.971  13.819
60376W        W25636  31.521   7.183   2.207
60377W        W25637  20.574   8.740   5.071
60378W        W25638  43.889  22.546  12.317
60379W        W25639  28.964   8.102  11.184
60380W        W25640  26.530  18.008   3.055
60381W        W25641  27.281  26.957  12.112
60382W        W25642  22.930  26.080   0.350
60383W        W25643  15.763  41.409   4.943
60384W        W25644   1.591  24.136   1.648
60385W        W25645  33.175  43.276   2.774
60386W        W25646  12.029  40.452  13.043
60387W        W25647  27.282   0.281   0.511
60388W        W25648  40.571   1.236   2.781
60389W        W25649  32.967  42.374  10.693
60390W        W25650  32.484  43.922   4.434
60391W        W25651  20.141  34.753  11.468
60392W        W25652  26.665  40.179   4.932
60393W        W25653  36.492  17.577  12.591
60394W        W25654   3.244   3.781  13.676
60395W        W25655  43.550   6.821   4.167
60396W        W25656  38.559  24.748   4.340
60397W        W25657  26.979   5.822  14.874
60398W        W25658  24.752  11.185   2.925
60399W        W25659   3.770  10.836  11.028
60400W        W25660   4.420  16.818   3.806
60401W        W25661  33.362  31.694   2.830
60402W        W25662  21.422  39.220  11.119
60403W        W25663   4.092  31.375   0.843
60404W        W25664   1.826  27.923  10.668
60405W        W25665  33.161  36.614   0.225
60406W        W25666  40.631  18.281   3.223
60407W        W25667   1.364  41.746  11.541
60408W        W25668  30.002   9.850  12.458
60409W        W25669  40.973  38.028   2.359
60410W        W25670  12.240  14.878  12.915
60411W        W25671  15.999  13.908   1.063
60412W        W25672  13.114  41.767   0.949
60413W        W25673   4.865  29.878   1.658
60414W        W25674   7.554  31.127  12.949
60415W        W25675   5.911  28.516  12.168
60416W        W25676  29.848  29.961   0.290
60417W        W25677   8.569  42.282   3.753
60418W        W25678  35.014  25.123   3.622
60419W        W25679   0.806  43.296   1.440
60420W        W25680  34.480   7.964  13.038
60421W        W25681  40.409  22.435   4.527
60422W        W25682  24.994  20.549   2.672
60423W        W25683  28.108  36.459  12.209
60424W        W25684  43.097   1.971   4.116
60425W        W25685   4.830  29.965   0.266
60426W        W25686  32.565  39.179   1.553
60427W        W25687   3.878  11.449   3.656
60428W        W25688  24.427   7.059   4.582
60429W        W25689  42.682  26.050  14.439
60430W        W25690  36.027   2.873   0.311
60431W        W25691  18.779  44.556  14.240
60432W        W25692  12.302  38.595   3.309
60433W        W25693  22.951  26.600  14.746
60434W        W25694  32.561   3.247   4.568
60435W        W25695  15.412  18.181  14.390
60436W        W25696  36.372  18.490  13.587
60437W        W25697  18.408   8.307  10.513
60438W        W25698   7.832  19.905  12.865
60439W        W25699   5.758  40.278   3.805
60440W        W25700  28.430   4.394   3.632
60441W        W25701  26.463  22.033   1.673
60442W        W25702  23.395  38.247  13.002
60443W        W25703   4.955  14.123   0.051
60444W        W25704  27.453  27.015   3.682
60445W        W25705  21.031  39.548  11.084
60446W        W25706  31.204   5.303   4.277
60447W        W25707  18.772  29.115   4.745
60448W        W25708  29.947  20.721  13.597
60449W        W25709  37.405  18.724   2.651
60450W        W25710  40.984   2.134  10.175
60451W        W25711  43.043  12.521   1.765
60452W        W25712   0.303  29.676   2.256
60453W        W25713  40.396  41.748   3.678
60454W        W25714  13.442  18.040  14.258
60455W        W25715  34.298  42.915   1.110
60456W        W25716  34.466  15.972  11.547
60457W        W25717   8.677  37.558   3.846
60458W        W25718  26.165  25.657   3.624
60459W        W25719   8.915  44.424   4.522
60460W        W25720   3.069   8.677   4.157
60461W        W25721  44.432  20.240  14.159
60462W        W25722  21.580  28.680  12.867
60463W        W25723   1.893  32.666  12.895
60464W        W25724  42.253  26.702  11.089
60465W        W25725  31.615   6.795   1.370
60466W        W25726  43.444  14.546   3.878
60467W        W25727  27.479  31.487   2.651
60468W        W25728  30.152   1.525   4.698
60469W        W25729  44.922   7.173   0.861
60470W        W25730  13.039  43.372   4.871
60471W        W25731  10.586   8.509  11.861
60472W        W25732  17.622  21.202  12.702
60473W        W25733   0.830   1.397  11.636
60474W        W25734  23.287  23.304  13.436
60475W        W25735  43.454  18.097   2.706
60476W        W25736  31.448   6.793   1.870
60477W        W25737   5.207   0.300   1.924
60478W        W25738  15.613  20.176  14.453
60479W        W25739   4.938  11.993  10.405
60480W        W25740  12.767  26.202  11.969
60481W        W25741  39.415  33.484   1.301
60482W        W25742  12.684  30.938  12.337
60483W        W25743   0.070  29.528  11.419
60484W        W25744  29.141  19.573  12.109
60485W        W25745   4.999  10.293   2.726
60486W        W25746  28.011   5.951   2.790
60487W        W25747  17.836  44.901  12.841
60488W        W25748  38.778  42.689   4.224
60489W        W25749   9.712  35.170   0.791
60490W        W25750  37.719  43.673  13.085
60491W        W25751  34.614   2.805  12.907
60492W        W25752  13.701  21.095   3.775
60493W        W25753  17.479  17.118  11.032
60494W        W25754  31.674  30.134  12.955
60495W        W25755  11.684  36.675   0.319
60496W        W25756  34.047   1.906   4.286
60497W        W25757  13.365   3.913  11.509
60498W        W25758   7.999   2.248   0.665
60499W        W25759   1.797  36.008  14.803
60500W        W25760  35.571   1.033  13.991
60501W        W25761  35.190  37.474   1.264
60502W        W25762  26.129   8.927   2.293
60503W        W25763  18.077  25.760  10.501
60504W        W25764  43.749   4.358   1.001
60505W        W25765  33.585  36.592   4.529
60506W        W25766  23.434   3.674  12.074
60507W        W25767  31.636  17.611  13.486
60508W        W25768  42.583  21.577   1.401
60509W        W25769  44.412   8.467   3.825
60510W        W25770  27.607   6.251   0.660
60511W        W25771  13.057  33.151   0.919
60512W        W25772  24.136  35.497  13.996
60513W        W25773  27.452  10.319  11.975
60514W        W25774  40.935  37.146  12.505
60515W        W25775   8.196  30.572   2.025
60516W        W25776   6.930  44.880   0.756
60517W        W25777  34.695  39.004  14.868
60518W        W25778  12.225  28.988  11.047
60519W        W25779  20.195  40.010   1.893
60520W        W25780  14.660   9.413   2.630
60521W        W25781  11.575  10.203  14.779
60522W        W25782   2.756  11.866  12.582
60523W        W25783   9.142  31.122   4.580
60524W        W25784  19.371  41.888  12.571
60525W        W25785  31.517  37.697   0.281
60526W        W25786   6.042  26.088  12.507
60527W        W25787  26.506  40.603   0.953
60528W        W25788  44.171   1.891   1.308
60529W        W25789  13.860  19.766   4.042
60530W        W25790  22.178  26.295   4.686
60531W        W25791  37.611   0.612  12.990
60532W        W25792  13.202   2.021  11.595
60533W        W25793  38.082  26.422  13.116
60534W        W25794   6.029  26.062  11.572
60535W        W25795  36.589  34.105  14.760
60536W        W25796  25.231  12.358  13.904
60537W        W25797  43.644  37.181   1.484
60538W        W25798  33.402   3.910  13.952
60539W        W25799  21.530  29.507   4.499
60540W        W25800  42.241  43.899  13.290
60541W        W25801  33.959  23.248  12.143
60542W        W25802  14.246  23.172   1.444
60543W        W25803  18.109  23.170  13.841
60544W        W25804  32.624  38.856  11.462
60545W        W25805   4.356  18.568  11.612
60546W        W25806  24.994  12.193  13.407
60547W        W25807  10.969   3.344  12.152
60548W        W25808  35.877   1.355  12.393
60549W        W25809  28.138   7.581   4.740
60550W        W25810  34.378  34.746   0.584
60551W        W25811  37.941  25.014  12.578
60552W        W25812   3.386   9.348   2.772
60553W        W25813  22.012  42.058   1.837
60554W        W25814  22.577  15.533   2.633
60555W        W25815  32.379  42.374  13.009
60556W        W25816  40.967  27.045   0.856
60557W        W25817  33.509   7.206  12.654
60558W        W25818   9.313  30.484  13.738
60559W        W25819  36.380  37.805  12.618
60560W        W25820  18.573  42.288   4.939
60561W        W25821   1.693   7.235  12.869
60562W        W25822   1.369  35.508   3.454
60563W        W25823  42.181  44.465   1.763
60564W        W25824  26.200  25.561   2.812
60565W        W25825  44.069  30.214  12.514
60566W        W25826  15.467  21.058  10.770
60567W        W25827  33.448  22.696   4.076
60568W        W25828  23.603   8.719   2.792
60569W        W25829  23.027   4.524  14.205
60570W        W25830  11.009  33.163  12.481
60571W        W25831  30.967  23.659   3.857
60572W        W25832  18.076  13.091   3.309
60573W        W25833  10.250  29.760   2.100
60574W        W25834  12.259   1.850  14.013
60575W        W25835  17.166  43.911  14.521
60576W        W25836   2.759   6.451  14.642
60577W        W25837  13.848  26.566   2.209
60578W        W25838   0.151   0.022  10.660
60579W        W25839  18.551   7.248  12.685
60580W        W25840   5.403  25.922   2.795
60581W        W25841  23.245  17.295  12.912
60582W        W25842  19.466  41.794   1.683
60583W        W25843   5.658   0.053   1.886
60584W        W25844   8.337  12.594   1.285
60585W        W25845  29.602  24.678   2.252
60586W        W25846  37.488  33.215  10.549
60587W        W25847  44.218   5.399   0.055
60588W        W25848   2.243  38.022  11.387
60589W        W25849  23.902  38.853   0.482
60590W        W25850   8.820   2.235   4.632
60591W        W25851  23.789  32.153  10.687
60592W        W25852   6.342  13.399  12.169
60593W        W25853  11.286  26.015   2.752
60594W        W25854  33.751  29.700   0.265
60595W        W25855  32.483  16.094  12.579
60596W        W25856  11.148  29.085  11.660
60597W        W25857   9.886  32.452  10.993
60598W        W25858   1.334   1.872  12.831
60599W        W25859  28.475   0.874   4.211
60600W        W25860  20.119  21.947  11.466
60601W        W25861  38.061  15.365   3.011
60602W        W25862  41.402  31.621   3.912
60603W        W25863  30.165  34.311   0.560
60604W        W25864  11.312  40.075   1.831
60605W        W25865   7.432  36.538  13.610
60606W        W25866  31.984  41.066  10.928
60607W        W25867  18.752  25.906  14.144
60608W        W25868   7.292  20.185   2.296
60609W        W25869  19.528   4.815  11.929
60610W        W25870   0.973   1.019  13.836
60611W        W25871  37.466  44.138  10.943
60612W        W25872   2.162  20.155   2.370
60613W        W25873  23.643  39.489   3.763
60614W        W25874   9.788  11.890  13.392
60615W        W25875  42.741  13.378  14.030
60616W        W25876  19.554  30.529   3.514
60617W        W25877  17.203  43.001   3.356
60618W        W25878  28.668  32.481   1.743
60619W        W25879  31.674  23.860   5.355
60620W        W25880   5.457  15.576  13.825
60621W        W25881  42.019   2.625   0.515
60622W        W25882  21.600   6.477  12.521
60623W        W25883  29.019  23.595   0.451
60624W        W25884  39.751   5.867   1.392
60625W        W25885  17.530  28.707   4.536
60626W        W25886   6.466  36.378   3.559
60627W        W25887  15.105  35.352   2.891
60628W        W25888  43.933   9.493   1.986
60629W        W25889  30.846   6.318  11.390
60630W        W25890   9.792  23.047  14.781
60631W        W25891  42.290  25.520  13.825
60632W        W25892   9.224   1.247   1.710
60633W        W25893  21.535  16.736  10.274
60634W        W25894  39.402  19.547  10.519
60635W        W25895  20.126  31.423  12.502
60636W        W25896   4.194   3.452   2.686
60637W        W25897  44.959  18.582  13.530
60638W        W25898  39.904  16.521  14.527
60639W        W25899  41.049   0.794   1.305
60640W        W25900  31.612  26.162  12.619
60641W        W25901   6.227  35.652   3.257
60642W        W25902  12.645  44.911   1.928
60643W        W25903  40.000  41.850   1.333
60644W        W25904   8.872  38.112   1.885
60645W        W25905   5.520  30.003  11.687
60646W        W25906  13.008   8.258  13.856
60647W        W25907  44.832  25.108   9.866
60648W        W25908  15.828  43.401   4.591
60649W        W25909   6.171  25.190   3.803
60650W        W25910  26.754   6.294   2.247
60651W        W25911  33.926   9.958  12.059
60652W        W25912   5.488  39.856   2.684
60653W        W25913  31.173  13.748  10.718
60654W        W25914  19.179  31.371   0.464
60655W        W25915  42.532  26.652   3.686
60656W        W25916  23.396  30.445   3.274
60657W        W25917  29.073  31.078  13.763
60658W        W25918  16.223  28.102   1.378
60659W        W25919  16.075   2.748   2.226
60660W        W25920  34.847  10.600   4.546
60661W        W25921  16.252   8.740  12.013
60662W        W25922  19.070  37.102  11.214
60663W        W25923   8.489   8.827   0.327
60664W        W25924  11.314  15.745   0.804
60665W        W25925  21.460  40.457  11.998
60666W        W25926   4.732  28.063  11.031
60667W        W25927   0.349  42.904   2.140
60668W        W25928  38.888  16.650  14.131
60669W        W25929  34.325  11.116   4.081
60670W        W25930  20.634  37.289  12.267
60671W        W25931   1.435   0.328   1.364
60672W        W25932  12.631  37.717  14.829
60673W        W25933   0.203  16.590  13.265
60674W        W25934  21.606  31.410   2.674
60675W        W25935  43.843  37.993   4.649
60676W        W25936   2.905  19.939   3.671
60677W        W25937   8.465  35.036  12.383
60678W        W25938  37.021  15.492   2.428
60679W        W25939  17.958  19.191   2.400
60680W        W25940  39.858  37.180   5.106
60681W        W25941  14.613  17.934  11.484
60682W        W25942  28.913  21.504   2.802
60683W        W25943   8.086  35.910  13.438
60684W        W25944  30.139  40.014   4.656
60685W        W25945  29.626  30.460  14.411
60686W        W25946  39.779  44.948   3.438
60687W        W25947  28.544  42.485   0.066
60688W        W25948  26.215  27.777   3.649
60689W        W25949  22.174  17.811  10.093
60690W        W25950  10.642  30.474   9.896
60691W        W25951  20.608  11.068   1.296
60692W        W25952  22.207  10.420   1.200
60693W        W25953   0.731   7.428  12.066
60694W        W25954  33.899  30.622  14.743
60695W        W25955   6.792  29.433   9.900
60696W        W25956   3.861  13.116   2.798
60697W        W25957  34.502  22.760  10.690
60698W        W25958  33.132  37.474   4.170
60699W        W25959  39.454  35.803   3.037
60700W        W25960   2.008  22.063   2.219
60701W        W25961  19.839  40.089   4.077
60702W        W25962   8.926  12.879  13.789
60703W        W25963  43.317  28.022  13.684
60704W        W25964  35.344  36.680   4.069
60705W        W25965  11.413  37.555   1.915
60706W        W25966   8.067  27.252  10.579
60707W        W25967   5.328  14.357  13.155
60708W        W25968  18.637  11.760  12.410
60709W        W25969   7.087  14.154  11.052
60710W        W25970  36.389  18.594   1.771
60711W        W25971   6.994   8.334  14.752
60712W        W25972  25.608   0.851   4.183
60713W        W25973  21.254  43.749  11.058
60714W        W25974   7.592  11.081  13.332
60715W        W25975  30.464  23.498  12.070
60716W        W25976  34.159   4.910   1.002
60717W        W25977  33.014  37.083  13.807
60718W        W25978  43.445  29.474  12.757
60719W        W25979   2.754  17.837   2.219
60720W        W25980  30.259  10.809  10.363
60721W        W25981  36.301  16.286  13.869
60722W        W25982  14.569   3.524   0.038
60723W        W25983  11.825  20.750  11.458
60724W        W25984  29.362   4.980   4.179
60725W        W25985  39.758  38.434  13.034
60726W        W25986  27.608  14.636  10.979
60727W        W25987   8.451  15.591  11.102
60728W        W25988  42.899   3.903   3.258
60729W        W25989  26.045   5.738   4.591
60730W        W25990   5.287  14.363   4.050
60731W        W25991   2.269  39.763   1.061
60732W        W25992  16.729   2.521   0.766
60733W        W25993  13.518   1.169  11.497
60734W        W25994  43.809  18.959   2.251
60735W        W25995  11.320  38.771   3.115
60736W        W25996  11.169  23.477   0.398
60737W        W25997  29.416  18.744   1.364
60738W        W25998   5.301  32.494   0.215
60739W        W25999   9.821  44.266   4.139
60740W        W26000  38.039  43.570   2.271
60741W        W26001  24.114  33.839  11.009
60742W        W26002  27.272  12.853  13.376
60743W        W26003  44.177  23.105  13.480
60744W        W26004  33.544  24.681  14.823
60745W        W26005  38.491  16.129  11.453
60746W        W26006  42.387  36.555   4.196
60747W        W26007  40.797  41.092   3.862
60748W        W26008  30.420   9.630   4.040
60749W        W26009  15.755   9.404   1.287
60750W        W26010  36.507  15.138   1.566
60751W        W26011   6.285   5.350  10.382
60752W        W26012  32.835  24.685  14.227
60753W        W26013  15.235  21.774   0.243
60754W        W26014  16.825  35.588   3.314
60755W        W26015   5.380  35.828   1.795
60756W        W26016   6.187  21.651   3.128
60757W        W26017  38.847   6.251  12.074
60758W        W26018  40.855  39.311  13.050
60759W        W26019  38.179  26.510   1.847
60760W        W26020  39.849  31.022  11.992
60761W        W26021  30.422  21.926   1.745
60762W        W26022  37.585  39.548  11.840
60763W        W26023  44.478  19.626  12.712
60764W        W26024  19.480   0.830   0.774
60765W        W26025  33.119  30.068   4.085
60766W        W26026  25.054   9.236  14.284
60767W        W26027   8.944  12.181  10.598
60768W        W26028   0.657  21.853   2.430
60769W        W26029  37.751  13.796  14.968
60770W        W26030  33.406  33.981  10.492
60771W        W26031  11.206  34.513   2.239
60772W        W26032  32.392  19.746  11.227
60773W        W26033  40.085  10.848   1.736
60774W        W26034  42.509  12.785  14.693
60775W        W26035   5.793  22.536   2.297
60776W        W26036  23.231  19.515  11.851
60777W        W26037  43.977  43.352   2.242
60778W        W26038  20.938  39.312   2.733
60779W        W26039  12.103  43.132   5.034
60780W        W26040  19.972  40.094   0.368
60781W        W26041  32.540   8.435   0.241
60782W        W26042  36.751  26.665  13.894
60783W        W26043  16.572  31.957  10.698
60784W        W26044  27.059  28.055   3.726
60785W        W26045  14.792  30.173  12.890
60786W        W26046  25.313  44.926  11.934
60787W        W26047  35.833  33.720  12.083
60788W        W26048  39.445  26.287   4.641
60789W        W26049  41.385  35.824  14.923
60790W        W26050  10.739  19.078   0.885
60791W        W26051  21.803  26.602  11.704
60792W        W26052   0.287   3.211  10.588
60793W        W26053  31.526  29.940   2.785
60794W        W26054  12.752  13.303   2.320
60795W        W26055   1.727  19.628   3.133
60796W        W26056  26.043  44.802  13.578
60797W        W26057   2.617  40.020   0.771
60798W        W26058  18.807  34.328  11.571
60799W        W26059  26.295  18.662  12.633
60800W        W26060   2.802   9.871   3.251
60801W        W26061   9.323  20.877   3.874
60802W        W26062   0.223   6.145  10.579
60803W        W26063  34.591  44.050   0.846
60804W        W26064  23.165   6.611  12.974
60805W        W26065  15.113  33.138  14.031
60806W        W26066  36.884   4.558   0.818
60807W        W26067  18.784  15.013  11.989
60808W        W26068  35.630   8.536   3.089
60809W        W26069  34.417  36.997  11.537
60810W        W26070  35.555   1.943  12.922
60811W        W26071  21.978  26.212  12.468
60812W        W26072   1.740  32.175  12.010
60813W        W26073  39.379  43.020   0.753
60814W        W26074   8.917  36.962  13.912
60815W        W26075  13.344   9.303   1.733
60816W        W26076   2.971   1.330  10.498
60817W        W26077  18.288  30.249  10.785
60818W        W26078  15.567  29.535  14.342
60819W        W26079  12.654  13.630   0.514
60820W        W26080  25.582  14.534  10.424
60821W        W26081  25.144   2.313   0.724
60822W        W26082  12.322  36.812  11.142
60823W        W26083   2.297   0.777   4.439
60824W        W26084  16.143  41.344  14.989
60825W        W26085  39.935  13.926  12.384
60826W        W26086  12.653   6.196   1.339
60827W        W26087  10.886  42.177   0.313
60828W        W26088  28.719  30.926   4.875
60829W        W26089  31.527  29.071   3.074
60830W        W26090  30.515   5.930   1.628
60831W        W26091  21.749  20.223  13.597
60832W        W26092  27.001   5.564  11.091
60833W        W26093  40.024   7.324   2.559
60834W        W26094  21.480   7.942  12.398
60835W        W26095  35.583   2.895  13.933
60836W        W26096  26.180  29.423  13.190
60837W        W26097  38.451  23.045   0.343
60838W        W26098  19.582  10.880   3.789
60839W        W26099  13.633  39.444   0.630
60840W        W26100  33.473  25.217  13.550
60841W        W26101  13.789  35.601   1.282
60842W        W26102  30.993  27.968  14.338
60843W        W26103  18.569  11.540  11.949
60844W        W26104  25.616  11.272   0.861
60845W        W26105  42.300  33.207  14.161
60846W        W26106  21.242  19.335  14.428
60847W        W26107  21.510  15.170   1.189
60848W        W26108  15.674  29.241  10.682
60849W        W26109  44.965   3.548  14.908
60850W        W26110  30.090  34.799   0.488
60851W        W26111   9.132  29.098  12.422
60852W        W26112   3.186  39.812  13.985
60853W        W26113  11.616  17.644  10.593
60854W        W26114  32.714   2.038   2.649
60855W        W26115  39.939  32.382  12.572
60856W        W26116   2.833  41.901   3.288
60857W        W26117  25.999  33.608  14.317
60858W        W26118  31.476  27.202   3.114
60859W        W26119   8.294  18.520   1.838
60860W        W26120  40.067  32.213   3.732
60861W        W26121   9.912  40.916  13.828
60862W        W26122  14.322   3.298   1.595
60863W        W26123  28.167  25.541   3.667
60864W        W26124  39.497  28.504  11.149
60865W        W26125  25.783  16.627  12.983
60866W        W26126   6.504  23.470  12.219
60867W        W26127  11.584   4.967  14.765
60868W        W26128  34.887  11.698  11.814
60869W        W26129  43.929  10.637   3.970
60870W        W26130  26.916  41.038  13.185
60871W        W26131   9.745   8.201  14.703
60872W        W26132  14.597   9.620   4.119
60873W        W26133  32.150   4.976  11.620
60874W        W26134  37.285   9.824   0.261
60875W        W26135   8.488  28.115   4.404
60876W        W26136  39.909  41.377  14.743
60877W        W26137   2.864  19.223   1.820
60878W        W26138  43.450  29.137   2.398
60879W        W26139  34.095  32.018   0.278
60880W        W26140  26.226  15.309  11.051
60881W        W26141  35.060  19.180   1.860
60882W        W26142  11.039   3.166   4.174
60883W        W26143  37.692  36.378  13.932
60884W        W26144  27.612   6.800   1.385
60885W        W26145  20.107  18.659  10.533
60886W        W26146  22.182  39.045  14.340
60887W        W26147   8.400  38.562  11.046
60888W        W26148  22.471  15.652   5.068
60889W        W26149  25.472  39.581   4.647
60890W        W26150  34.603  23.735   1.917
60891W        W26151  28.565  20.589  13.431
60892W        W26152  25.849  22.289  12.763
60893W        W26153  20.666  25.447   2.301
60894W        W26154  31.128  17.151   2.238
60895W        W26155  40.256   7.109  14.412
60896W        W26156  21.582  39.295  10.515
60897W        W26157   8.776   6.123   3.685
60898W        W26158  36.375   3.368  13.608
60899W        W26159  31.382  22.387   5.256
60900W        W26160  27.258   7.749  14.364
60901W        W26161  30.426   8.531  10.548
60902W        W26162  26.044  16.218   4.482
60903W        W26163  25.727  39.889   4.124
60904W        W26164   2.340  28.612  11.264
60905W        W26165  43.372  21.097   1.406
60906W        W26166  25.777  37.868   2.767
60907W        W26167   2.239  38.109   2.367
60908W        W26168  11.791  10.106  12.049
60909W        W26169  24.669   1.324  10.831
60910W        W26170  18.094  25.660  13.778
60911W        W26171   5.472  10.365  10.700
60912W        W26172  11.726  28.902  13.752
60913W        W26173  28.014  39.361  14.521
60914W        W26174   4.414  21.270  12.410
60915W        W26175  28.542  22.695  13.424
60916W        W26176  43.758  10.594   2.592
60917W        W26177  38.646  20.542  10.873
60918W        W26178   2.869  10.364  13.814
60919W        W26179  13.872  26.908  13.285
60920W        W26180  29.577  20.120  10.510
60921W        W26181  36.939   5.025  14.966
60922W        W26182   9.800   6.840   3.111
60923W        W26183  24.273  15.317   4.140
60924W        W26184  15.648  34.598  10.456
60925W        W26185  14.767   6.461   4.620
60926W        W26186  43.202  33.350  10.179
60927W        W26187  31.092  39.278  11.705
60928W        W26188  41.136  29.674  12.124
60929W        W26189  37.333  20.538  11.541
60930W        W26190  43.563   1.688  10.108
60931W        W26191   7.238  14.627   4.527
60932W        W26192  40.994   5.841   0.028
60933W        W26193  35.773  10.571  10.889
60934W        W26194  34.553  35.902  13.494
60935W        W26195  29.466  27.787   0.518
60936W        W26196   2.979  41.719  11.371
60937W        W26197  12.229  23.156   3.541
60938W        W26198   7.161  22.547   2.138
60939W        W26199  13.127  37.461  10.620
60940W        W26200  38.350  40.981   4.352
60941W        W26201   5.480  43.773   4.521
60942W        W26202  13.141  42.291   4.265
60943W        W26203   7.669  17.539  13.350
60944W        W26204  14.495   1.191  12.643
60945W        W26205  37.440  39.857  11.106
60946W        W26206  12.710  27.549   1.243
60947W        W26207  25.290  25.559   0.357
60948W        W26208  44.426  15.720   3.724
60949W        W26209   2.448  30.822  11.649
60950W        W26210  18.510   3.701  12.873
60951W        W26211  43.242  11.564  14.222
60952W        W26212  26.625  33.516   0.525
60953W        W26213  42.441  17.050  14.252
60954W        W26214  17.271   5.676  12.159
60955W        W26215  12.600  38.504  10.657
60956W        W26216  41.898  15.107   3.730
60957W        W26217   6.190   6.786   3.183
60958W        W26218  13.740  12.221  14.460
60959W        W26219  15.240  28.827   2.768
60960W        W26220  44.225  39.996   1.921
60961W        W26221  39.095  33.115   0.757
60962W        W26222  13.758  23.708  11.128
60963W        W26223  40.936   4.071   9.493
60964W        W26224  31.277   7.664   2.311
60965W        W26225   5.251  20.543  10.874
60966W        W26226  12.081  10.827   1.404
60967W        W26227  17.076   4.757  14.449
60968W        W26228   9.976  10.833   2.415
60969W        W26229  42.951   2.665  14.051
60970W        W26230   2.313  26.620  14.227
60971W        W26231  33.564  32.716   3.331
60972W        W26232   9.146  13.835  12.553
60973W        W26233   0.757  36.034  14.918
60974W        W26234   0.263   3.982   3.708
60975W        W26235  35.946  32.420   2.936
60976W        W26236  11.221   1.767   0.254
60977W        W26237  17.247  26.239  11.655
60978W        W26238  27.700  27.052  14.105
60979W        W26239  41.641  14.774   1.434
60980W        W26240  22.791   5.978  10.401
60981W        W26241  22.489  17.762  11.506
60982W        W26242   1.777  33.222   1.232
60983W        W26243   1.840  42.399  11.240
60984W        W26244  39.857  37.852  11.949
60985W        W26245  29.897  24.968   3.824
60986W        W26246  15.622   3.684   2.764
60987W        W26247  16.021   6.147  11.461
60988W        W26248  39.168  33.391  11.525
60989W        W26249  37.879  16.194  10.662
60990W        W26250  35.521  28.909   2.375
60991W        W26251  23.924  31.642   0.981
60992W        W26252  31.708  33.152  13.375
60993W        W26253   5.541  33.401   3.315
60994W        W26254  15.587   5.159   3.511
60995W        W26255   4.124  10.113   0.869
60996W        W26256  26.173  35.672   0.464
60997W        W26257  17.539  28.581  11.953
60998W        W26258  22.668  22.124   0.153
60999W        W26259   7.917  10.846  12.986
61000W        W26260  25.593  17.805   1.210
61001W        W26261  28.431  34.451  13.379
61002W        W26262   2.335  27.393   0.457
61003W        W26263  36.172  32.082  11.111
61004W        W26264   7.793  32.913   2.325
61005W        W26265  19.742  12.585   4.565
61006W        W26266   2.719  21.562  10.726
61007W        W26267   8.754  12.303   0.435
61008W        W26268   9.272   2.018  12.917
61009W        W26269  18.214  23.178   0.975
61010W        W26270  26.395   5.771   1.927
61011W        W26271  24.718  28.129  12.927
61012W        W26272  25.241   1.150  11.578
61013W        W26273   1.351  33.356  11.369
61014W        W26274  21.967  34.381  11.080
61015W        W26275  30.098  19.366  12.304
61016W        W26276  10.869   8.385   3.389
61017W        W26277   3.771  16.728   0.453
61018W        W26278  36.137  24.210   1.299
61019W        W26279  38.038   5.297  12.098
61020W        W26280   1.299   8.190  14.849
61021W        W26281   3.245  13.316  14.369
61022W        W26282  42.866  30.004   1.239
61023W        W26283  39.274  17.530   0.689
61024W        W26284  29.103  17.250  12.349
61025W        W26285  25.542  14.885  11.692
61026W        W26286   6.477  38.547   3.636
61027W        W26287  41.287  28.958   3.443
61028W        W26288  16.970  28.102  13.607
61029W        W26289  10.642  28.171  14.355
61030W        W26290  28.478  40.391   0.942
61031W        W26291  18.863   9.468  12.594
61032W        W26292  15.079  36.573   4.242
61033W        W26293  25.947  21.879   2.430
61034W        W26294  35.471  30.477   0.499
61035W        W26295  38.995   5.429  14.413
61036W        W26296   9.830  25.686   0.772
61037W        W26297  21.339  40.387   1.811
61038W        W26298   5.910   7.346   3.505
61039W        W26299  31.651   9.512  12.230
61040W        W26300  38.418  10.649   0.466
61041W        W26301  26.494  44.500  13.366
61042W        W26302   5.175  14.407  12.083
61043W        W26303  36.782  28.509  11.946
61044W        W26304  39.493  18.968   4.120
61045W        W26305   7.633  34.156   3.253
61046W        W26306  38.024   8.293   0.867
61047W        W26307   4.517  30.301   3.490
61048W        W26308  44.835  18.544   4.642
61049W        W26309  42.913  41.886   4.558
61050W        W26310  44.393  23.569   5.160
61051W        W26311  43.829  26.088  10.149
61052W        W26312   8.240  18.297  14.301
61053W        W26313  23.119  10.252   2.809
61054W        W26314  20.583   5.881   4.988
61055W        W26315  10.400   2.758  11.710
61056W        W26316  43.328  43.813  11.166
61057W        W26317  33.411  12.165   0.481
61058W        W26318  16.850  37.947   0.752
61059W        W26319  20.625  37.998   1.633
61060W        W26320  12.653  39.587   3.308
61061W        W26321  41.401  31.067  11.174
61062W        W26322  30.717  35.858  13.976
61063W        W26323  32.095   1.504   0.467
61064W        W26324  20.143  12.744   1.454
61065W        W26325  31.695  21.355  11.140
61066W        W26326  41.095  39.942  11.621
61067W        W26327  42.971   0.202   4.358
61068W        W26328  27.845   1.207   1.666
61069W        W26329  35.454  36.002   2.313
61070W        W26330  39.936  28.540   3.218
61071W        W26331  42.899   6.503   1.266
61072W        W26332   0.781  20.271  12.558
61073W        W26333  30.460  10.075  14.442
61074W        W26334  42.906  35.289  14.912
61075W        W26335  42.336  44.617  12.123
61076W        W26336   9.293  38.999  11.306
61077W        W26337  32.413  38.309  12.175
61078W        W26338  10.401  16.759  13.852
61079W        W26339  32.480  32.121  14.755
61080W        W26340  35.381  30.565   3.626
61081W        W26341  27.550  12.585   1.875
61082W        W26342   2.284  15.731   3.593
61083W        W26343  27.994  33.546  13.508
61084W        W26344  28.641   1.742   2.113
61085W        W26345  10.655  23.729  11.647
61086W        W26346  11.183  39.747   0.195
61087W        W26347  39.793  12.775  11.662
61088W        W26348  37.773   1.444   3.087
61089W        W26349  19.126  24.939  11.542
61090W        W26350   2.789  21.940  13.905
61091W        W26351  34.548   5.169  10.589
61092W        W26352  30.491  29.653   2.328
61093W        W26353  40.340  34.067  14.954
61094W        W26354  11.022  31.205  13.453
61095W        W26355  31.254   3.049   4.491
61096W        W26356  28.354  21.067  14.962
61097W        W26357  27.221  26.892   3.228
61098W        W26358   6.324   8.631  14.397
61099W        W26359   1.515  33.028   2.959
61100W        W26360   5.688  21.644   0.461
61101W        W26361  13.725   0.771   2.929
61102W        W26362   7.701  27.501   3.190
61103W        W26363  11.223  16.604  14.845
61104W        W26364  43.487   7.524   4.054
61105W        W26365  36.829  13.633   3.204
61106W        W26366  26.993  26.548  13.888
61107W        W26367   8.211   1.448  11.016
61108W        W26368  29.657  14.363  13.352
61109W        W26369  36.516  15.328   0.599
61110W        W26370  11.677  33.933  13.944
61111W        W26371  40.571  40.765   1.826
61112W        W26372  20.762  28.927   3.236
61113W        W26373  23.722  25.093   1.910
61114W        W26374   9.180  30.877   1.129
61115W        W26375  33.677  29.487  12.610
61116W        W26376  11.034  43.204  12.525
61117W        W26377   5.889  20.202  14.873
61118W        W26378   6.406  41.933   3.437
61119W        W26379  15.781  30.658  12.313
61120W        W26380   2.530  37.610   4.177
61121W        W26381   4.394  22.212   3.670
61122W        W26382  40.845   3.799  12.536
61123W        W26383  29.116  15.501  14.972
61124W        W26384  26.531  19.669  10.835
61125W        W26385  19.855  23.968  13.596
61126W        W26386  18.619   7.140   3.899
61127W        W26387  34.127  13.027   4.393
61128W        W26388  39.180   5.674  10.316
61129W        W26389  41.052  18.763  12.502
61130W        W26390  44.208  35.106  11.408
61131W        W26391  25.570   7.413   4.308
61132W        W26392   7.432  32.568  14.758
61133W        W26393  28.740  44.410   0.832
61134W        W26394  35.499   4.745   0.482
61135W        W26395  37.474  25.426  11.398
61136W        W26396  13.986  25.765  12.327
61137W        W26397  40.778  18.255  14.286
61138W        W26398   8.317  40.373   4.232
61139W        W26399   1.367   5.754   0.266
61140W        W26400  20.633  23.804  11.051
61141W        W26401  14.599   3.660  11.876
61142W        W26402   9.276  24.667   4.942
61143W        W26403  13.344  23.218   4.668
61144W        W26404  19.026   4.408   4.282
61145W        W26405   1.423  15.199  14.216
61146W        W26406  40.849  40.266  14.787
61147W        W26407  31.365   0.796  12.044
61148W        W26408  17.328   1.978   4.603
61149W        W26409  15.609  41.565  13.442
61150W        W26410  14.683  17.750  14.509
61151W        W26411  44.518  43.466  12.560
61152W        W26412  34.871   2.504   4.385
61153W        W26413   3.307  30.700   1.638
61154W        W26414   7.984  30.882  11.884
61155W        W26415  15.673  16.151  14.242
61156W        W26416   5.579  42.722  14.337
61157W        W26417   8.789  25.297   1.005
61158W        W26418  38.394  14.306  11.976
61159W        W26419  40.868  10.379  11.731
61160W        W26420  44.782   3.045  14.957
61161W        W26421  36.416  41.783  10.665
61162W        W26422  39.305  21.684  10.712
61163W        W26423  11.921  30.358   4.804
61164W        W26424   0.073  41.321   3.913
61165W        W26425  14.372  20.980   3.769
61166W        W26426  21.330  40.817   1.487
61167W        W26427  16.176   5.982   3.295
61168W        W26428  27.877   4.418  10.592
61169W        W26429   1.720  30.129   4.174
61170W        W26430  36.681  31.624  14.013
61171W        W26431   9.880   6.346  14.507
61172W        W26432  37.126   9.757   3.218
61173W        W26433  30.148  11.650   2.263
61174W        W26434   2.340  21.043  14.843
61175W        W26435  28.876   3.283   4.542
61176W        W26436  32.921  32.270   2.072
61177W        W26437  17.837  43.753   3.687
61178W        W26438  32.443   6.356   4.819
61179W        W26439  28.230   0.336  13.084
61180W        W26440  35.536  44.214   2.285
61181W        W26441  11.444   6.437  10.646
61182W        W26442  19.830  18.603  11.550
61183W        W26443  12.513  31.238   4.131
61184W        W26444  31.009   1.867   4.659
61185W        W26445  28.074  26.252   0.851
61186W        W26446  22.268  42.498   0.968
61187W        W26447   3.959   7.915  14.364
61188W        W26448  23.166   4.851   3.942
61189W        W26449  33.793  13.906   3.059
61190W        W26450  31.668  39.873  14.824
61191W        W26451  14.364  23.098  10.684
61192W        W26452  36.069  37.402  12.604
61193W        W26453  23.736  27.649   3.726
61194W        W26454  36.733  16.570  13.707
61195W        W26455  35.099  38.119   2.642
61196W        W26456  33.340  10.381   4.037
61197W        W26457  27.553  20.746   0.492
61198W        W26458  17.080  34.034   2.643
61199W        W26459  40.809   7.350   0.403
61200W        W26460   8.666  44.026   4.227
61201W        W26461  10.185   6.264   2.592
61202W        W26462   5.402   3.856   2.260
61203W        W26463  26.883  33.680  11.538
61204W        W26464  37.317  12.786  12.867
61205W        W26465  38.533  15.710  11.051
61206W        W26466  23.636  43.702  14.486
61207W        W26467  29.411   1.307  12.827
61208W        W26468   1.903  21.060  11.698
61209W        W26469  32.139   7.819  13.648
61210W        W26470  26.044   3.400   3.807
61211W        W26471  43.905  13.881  12.135
61212W        W26472  13.125   8.320  10.791
61213W        W26473  11.700  11.190  13.886
61214W        W26474   6.875  26.023  13.991
61215W        W26475  30.136  22.506  12.547
61216W        W26476  39.388  42.766   1.887
61217W        W26477  33.102  18.944   1.708
61218W        W26478  16.250  23.543   1.348
61219W        W26479  21.306  22.126   2.214
61220W        W26480  19.821  26.730  11.905
61221W        W26481  31.966  23.948   9.831
61222W        W26482  19.996  10.263  12.582
61223W        W26483  35.563  21.715   4.674
61224W        W26484  13.214  44.955   0.514
61225W        W26485  29.626  23.322   3.877
61226W        W26486  43.474   1.507  12.395
61227W        W26487   1.121   8.203   4.443
61228W        W26488  37.840  42.465  13.883
61229W        W26489   3.774  24.455   0.435
61230W        W26490   2.318  13.852  12.198
61231W        W26491  21.407   3.993   4.924
61232W        W26492   2.842  32.707  14.012
61233W        W26493  40.005  19.155   0.223
61234W        W26494  31.532   9.241  11.068
61235W        W26495  21.299  12.530  11.565
61236W        W26496  38.492  14.337  11.104
61237W        W26497  33.523  31.384   1.788
61238W        W26498  24.228  42.488   3.660
61239W        W26499  12.103  44.774   4.673
61240W        W26500   2.635  23.129  14.477
61241W        W26501  26.007  12.418   0.944
61242W        W26502   8.161  35.962   2.641
61243W        W26503   6.644  12.130  11.186
61244W        W26504  35.308  22.593   0.222
61245W        W26505  10.076   6.295   1.268
61246W        W26506  15.269  15.007   0.705
61247W        W26507  14.951  33.995  10.931
61248W        W26508  31.178  10.664   0.029
61249W        W26509   7.001  35.449   0.737
61250W        W26510  23.189   0.938   4.882
61251W        W26511  37.568  30.008   0.895
61252W        W26512   3.992  38.190   0.041
61253W        W26513  28.117  21.047  11.583
61254W        W26514  25.794  35.924  11.400
61255W        W26515  27.216   4.241  10.649
61256W        W26516   2.858  15.882   4.015
61257W        W26517   3.515   2.830   1.469
61258W        W26518  32.970  12.518  13.031
61259W        W26519  18.228  10.633  10.769
61260W        W26520  30.859  40.065  14.396
61261W        W26521  10.660  12.118  13.897
61262W        W26522   3.695  33.962  13.378
61263W        W26523  34.808  36.158   4.595
61264W        W26524   5.375  14.729  14.117
61265W        W26525  27.793  44.440   3.566
61266W        W26526  27.519  20.451   2.317
61267W        W26527   4.857  33.866   0.825
61268W        W26528  35.080  43.475   4.073
61269W        W26529  27.423   1.690  11.135
61270W        W26530  24.243   8.826  10.985
61271W        W26531  37.463   1.415   2.323
61272W        W26532  32.624  41.562  10.538
61273W        W26533   4.425   6.545   0.870
61274W        W26534  44.375  25.398  10.371
61275W        W26535   9.673  22.022   3.408
61276W        W26536  21.687  12.572   2.373
61277W        W26537  17.718  22.557  14.529
61278W        W26538  36.641   6.055  12.547
61279W        W26539  14.063  41.173  14.203
61280W        W26540  36.630   6.744   0.368
61281W        W26541  19.432  20.328   1.350
61282W        W26542  36.065  14.776  10.377
61283W        W26543  21.776  41.894   2.252
61284W        W26544  37.976  15.271   4.576
61285W        W26545   0.037  41.567  11.620
61286W        W26546  10.394  38.132  14.544
61287W        W26547  33.105  13.530  14.148
61288W        W26548  23.753   7.222   3.811
61289W        W26549  24.703  19.196   2.759
61290W        W26550  18.335  44.826  11.572
61291W        W26551  25.484  24.507   1.720
61292W        W26552   4.796  11.862   1.420
61293W        W26553  20.625  18.617   0.467
61294W        W26554   0.435  26.789   4.430
61295W        W26555  19.787  10.207   0.582
61296W        W26556  34.678  31.980   4.081
61297W        W26557   5.035  28.061  11.438
61298W        W26558  42.537  31.382  12.934
61299W        W26559  19.999   0.813  13.786
61300W        W26560  21.843  41.894  14.752
61301W        W26561   1.770  34.642   1.244
61302W        W26562  25.815  41.137   2.220
61303W        W26563  27.438  29.733   0.506
61304W        W26564   2.451   4.630   0.766
61305W        W26565  15.710  41.087  14.352
61306W        W26566  16.323  11.033  11.582
61307W        W26567   2.808   9.604  12.106
61308W        W26568  17.158  44.879   4.628
61309W        W26569  28.651  38.948  13.918
61310W        W26570  23.818   7.462   3.326
61311W        W26571  18.602   3.613   0.347
61312W        W26572  33.467  19.158   0.030
61313W        W26573  41.567  18.586   1.721
61314W        W26574  11.753  26.543  14.945
61315W        W26575  22.169  21.629  10.141
61316W        W26576  27.115  28.535   0.425
61317W        W26577  31.955   5.329   4.603
61318W        W26578  40.938  44.741   2.372
61319W        W26579  43.323  31.070   4.153
61320W        W26580  29.052  31.940  14.990
61321W        W26581  39.839  42.773  13.305
61322W        W26582  12.489  27.061   2.690
61323W        W26583  23.088  11.167  10.663
61324W        W26584  20.745  13.692  11.109
61325W        W26585  24.111  42.913   1.833
61326W        W26586  44.969  16.500   2.687
61327W        W26587   3.691  42.425  12.006
61328W        W26588   6.203  42.738   4.568
61329W        W26589  38.843   1.847   1.423
61330W        W26590  35.425  35.363   2.390
61331W        W26591   4.243   5.259   0.981
61332W        W26592  44.499   7.965   3.664
61333W        W26593  35.774  22.472   2.205
61334W        W26594  22.946  15.947   0.187
61335W        W26595  37.916   3.953  11.536
61336W        W26596  39.980  36.784   2.536
61337W        W26597  20.525  18.597   1.818
61338W        W26598  40.761  36.392   2.885
61339W        W26599  26.042   1.997  10.642
61340W        W26600  21.474  25.013  11.967
61341W        W26601  22.933  15.548   4.808
61342W        W26602  17.835  24.198  13.501
61343W        W26603  22.147   1.485   3.113
61344W        W26604  39.737  32.341  12.082
61345W        W26605   6.329  34.210  14.441
61346W        W26606  16.266  25.085  14.266
61347W        W26607  44.185   1.259   3.317
61348W        W26608  31.087  24.955   2.620
61349W        W26609  21.875   0.726  14.012
61350W        W26610  22.495   8.368   0.858
61351W        W26611  22.752   5.365  11.896
61352W        W26612  20.148  23.346   0.706
61353W        W26613  35.360  29.911   2.411
61354W        W26614   5.918   3.619   4.890
61355W        W26615  13.582  37.586  13.978
61356W        W26616  34.500  36.385  10.731
61357W        W26617   1.480  17.450   4.019
61358W        W26618  15.553  39.512  12.019
61359W        W26619  36.213  32.912  13.919
61360W        W26620  11.523  43.079   4.045
61361W        W26621  35.313  19.357   1.436
61362W        W26622  28.776   1.686  13.527
61363W        W26623  10.887   4.404  12.201
61364W        W26624   3.976   6.073   4.194
61365W        W26625  27.528  11.887   4.393
61366W        W26626  16.331   5.718  13.822
61367W        W26627   4.306  18.755   4.704
61368W        W26628  10.083  44.354   2.420
61369W        W26629  17.608  27.534   2.005
61370W        W26630   7.238  43.021  13.948
61371W        W26631  13.838  29.037   3.205
61372W        W26632  30.422  14.334  13.572
61373W        W26633   4.690  33.301  13.090
61374W        W26634  39.977  31.483   0.497
61375W        W26635  27.621  16.274   1.670
61376W        W26636  44.983  29.029   4.301
61377W        W26637  26.051  37.331  13.567
61378W        W26638  22.054  29.105   3.613
61379W        W26639  10.822  40.981  14.829
61380W        W26640  43.989  12.524   0.744
61381W        W26641  37.151   1.906  11.686
61382W        W26642  21.719  10.474  11.500
61383W        W26643   5.159  15.147  13.896
61384W        W26644   2.568  42.004   4.576
61385W        W26645  40.491  28.596   0.117
61386W        W26646  24.675  44.782   3.031
61387W        W26647  25.060   4.484   2.551
61388W        W26648  40.828  23.966  13.358
61389W        W26649   3.395   1.654   2.076
61390W        W26650  20.283  35.864  14.443
61391W        W26651   6.700  30.956  10.715
61392W        W26652   9.412  33.601   0.255
61393W        W26653  21.516  11.329  14.414
61394W        W26654  25.481   0.347   4.056
61395W        W26655  31.955  22.886  14.904
61396W        W26656  34.830  21.283   1.371
61397W        W26657  39.404  33.239   2.683
61398W        W26658  39.454  40.635   0.284
61399W        W26659  41.549  42.461  10.700
61400W        W26660  28.898  31.582   3.376
61401W        W26661  42.476  11.078  13.063
61402W        W26662  29.660  36.232  13.535
61403W        W26663  42.113  11.638   1.225
61404W        W26664  31.189  43.300   0.485
61405W        W26665   0.829  21.463  13.013
61406W        W26666  18.563   3.301   4.590
61407W        W26667  11.291   2.313   4.337
61408W        W26668  11.115  14.334   2.767
61409W        W26669   6.673  16.098  11.947
61410W        W26670   7.791  28.587  13.867
61411W        W26671  40.903  14.028   2.515
61412W        W26672  22.749  29.093  11.536
61413W        W26673  31.644  44.466  11.821
61414W        W26674  41.362  32.903   0.216
61415W        W26675  27.432  12.908  12.203
61416W        W26676  12.387  29.121   1.679
61417W        W26677  33.313  38.812  12.028
61418W        W26678   4.286  39.896  12.101
61419W        W26679  39.831   7.881  10.707
61420W        W26680  27.605  22.976   3.161
61421W        W26681  28.977  21.147   2.413
61422W        W26682  39.443  33.089  10.714
61423W        W26683   5.965   5.692  11.582
61424W        W26684   7.811  11.741   3.675
61425W        W26685  32.396   5.269   3.225
61426W        W26686  37.432  24.733  12.844
61427W        W26687  18.253   3.418   0.669
61428W        W26688  37.031  25.230   4.165
61429W        W26689  17.677  28.814   0.805
61430W        W26690  39.901  17.158   0.836
61431W        W26691   6.343  17.665  13.471
61432W        W26692   0.346  34.529  11.004
61433W        W26693  17.220  27.915  11.186
61434W        W26694  10.046   0.191   0.370
61435W        W26695  34.545  29.165   3.303
61436W        W26696   0.916  25.212  14.457
61437W        W26697  39.513  41.389   2.346
61438W        W26698  29.143  19.332   2.220
61439W        W26699  39.010  12.707  14.642
61440W        W26700  24.167   9.399  14.785
61441W        W26701   5.745  34.866   4.199
61442W        W26702  28.897   0.743  13.574
61443W        W26703  17.147  17.060   4.718
61444W        W26704  10.300  25.502   5.070
61445W        W26705  12.401  24.982   0.410
61446W        W26706  24.892   2.324   1.673
61447W        W26707  36.072   3.123   1.812
61448W        W26708  44.526   3.891   4.544
61449W        W26709  14.321  22.735  11.539
61450W        W26710  10.820  25.477   4.991
61451W        W26711  27.912  18.300  12.205
61452W        W26712  40.621   8.599  11.622
61453W        W26713  33.101  43.650  11.669
61454W        W26714   9.097  34.425   2.398
61455W        W26715  24.563  42.619   0.259
61456W        W26716   7.176  41.165  12.923
61457W        W26717  25.692   7.818   0.034
61458W        W26718  16.168  40.398  12.716
61459W        W26719  19.107   8.786   3.984
61460W        W26720  30.985   1.721   0.927
61461W        W26721  11.605  12.152  12.945
61462W        W26722  23.853   0.064   2.797
61463W        W26723  24.128  41.750   0.876
61464W        W26724   6.083   7.815   0.914
61465W        W26725   5.135  39.616   2.289
61466W        W26726   3.761  18.586  10.629
61467W        W26727  42.902  35.146  11.424
61468W        W26728  42.825  13.867  12.917
61469W        W26729  31.455   8.279  10.731
61470W        W26730  40.916  27.454  10.614
61471W        W26731  27.909   3.809   2.338
61472W        W26732  22.792  25.954   1.350
61473W        W26733  29.003   4.409  13.513
61474W        W26734   4.375  30.296   4.690
61475W        W26735   5.288  10.138   4.596
61476W        W26736   7.334  40.988  11.613
61477W        W26737  30.827  24.658   3.470
61478W        W26738  43.340  26.100  14.980
61479W        W26739   4.943  24.045   4.545
61480W        W26740  22.525  17.277   1.751
61481W        W26741  26.975  13.746   3.252
61482W        W26742  28.666  26.011  11.152
61483W        W26743  10.122  35.145   0.460
61484W        W26744  40.714  23.611  12.502
61485W        W26745   9.448  36.789  13.884
61486W        W26746   1.088   0.360   3.805
61487W        W26747   0.942  22.242  11.149
61488W        W26748  24.583  30.988   1.220
61489W        W26749  44.202  28.399  11.157
61490W        W26750  15.556  28.068   2.388
61491W        W26751  41.144  40.550  13.250
61492W        W26752  27.457   5.226  10.582
61493W        W26753  23.231  37.906   1.624
61494W        W26754  24.699  40.887   1.462
61495W        W26755  11.415  27.916  11.895
61496W        W26756  38.667  19.055  11.409
61497W        W26757   5.317  28.710   4.042
61498W        W26758  20.193  24.308   4.799
61499W        W26759  44.902  41.313   1.974
61500W        W26760  18.513   6.273   4.019
61501W        W26761  17.340  17.317   0.002
61502W        W26762  11.241  36.826   4.935
61503W        W26763  18.017  27.973  14.416
61504W        W26764  11.678  24.763   1.324
61505W        W26765  38.098  20.991   4.927
61506W        W26766   5.371  25.427   3.609
61507W        W26767  40.091  17.845   1.382
61508W        W26768  15.779  21.058   1.306
61509W        W26769  28.155  16.171   3.418
61510W        W26770  42.517  23.866  10.948
61511W        W26771  30.873  24.589  12.944
61512W        W26772  23.156  25.935  11.535
61513W        W26773  32.585  36.090   0.703
61514W        W26774  18.516  33.234  13.370
61515W        W26775  18.307  26.108  11.571
61516W        W26776  33.539  34.376  14.485
61517W        W26777  44.333  27.261   3.180
61518W        W26778  20.480  43.323  11.002
61519W        W26779  34.959  16.662  10.636
61520W        W26780   6.313  35.801  12.170
61521W        W26781  44.384   8.334   3.059
61522W        W26782  29.955  15.228  14.707
61523W        W26783   9.750   8.812   3.861
61524W        W26784  21.546  33.230  13.557
61525W        W26785   6.786  21.276   4.228
61526W        W26786  42.199   8.927   5.015
61527W        W26787  39.423   2.940   0.236
61528W        W26788  39.957  22.890   2.090
61529W        W26789  17.237  15.877  14.281
61530W        W26790  37.760  10.814   3.697
61531W        W26791  40.220  40.795  12.944
61532W        W26792  39.590  41.154   1.892
61533W        W26793  27.532   0.963  12.010
61534W        W26794  42.177   7.814   3.802
61535W        W26795  18.762   2.510  11.969
61536W        W26796  26.806   8.261  14.859
61537W        W26797   8.517  39.257   2.257
61538W        W26798  30.369  44.513  10.320
61539W        W26799  20.987  38.357  10.241
61540W        W26800  32.224  27.075   2.313
61541W        W26801  22.115  32.328  10.972
61542W        W26802  41.491   2.995  12.896
61543W        W26803  19.383  36.373   4.174
61544W        W26804  19.908   8.313  13.100
61545W        W26805  30.174  33.020  14.353
61546W        W26806  43.312  23.807  14.787
61547W        W26807  42.824   1.728   3.743
61548W        W26808  36.940  25.741   4.226
61549W        W26809   2.007  24.186   0.707
61550W        W26810   6.236  30.238   2.270
61551W        W26811  28.048  26.118  10.063
61552W        W26812  20.544  15.767   0.942
61553W        W26813   0.592   4.142   4.162
61554W        W26814   8.070  41.023   4.059
61555W        W26815  40.995  37.500   0.851
61556W        W26816  19.082  28.045   2.432
61557W        W26817  14.543  13.204  13.046
61558W        W26818  30.165  31.399  11.839
61559W        W26819  34.493  14.615  14.314
61560W        W26820  21.968  39.434   1.052
61561W        W26821  34.453  35.416  13.348
61562W        W26822   4.788  25.720  12.442
61563W        W26823   5.633  34.881   1.681
61564W        W26824   2.716  26.721   3.060
61565W        W26825  16.749  31.021  13.348
61566W        W26826   7.836  30.276  12.918
61567W        W26827  37.584   1.167  12.056
61568W        W26828   8.187  35.594  12.967
61569W        W26829   5.512   7.337  11.192
61570W        W26830  16.374   4.433  13.396
61571W        W26831  25.008  20.005  11.183
61572W        W26832  35.039   9.151   4.548
61573W        W26833  14.999  35.836  12.422
61574W        W26834  43.806  15.001  12.789
61575W        W26835  18.202  42.043  13.311
61576W        W26836  13.363  43.995   0.668
61577W        W26837  27.146  14.687  11.883
61578W        W26838  33.981   6.630  10.543
61579W        W26839   4.840  31.454  14.538
61580W        W26840  34.049  25.049  11.873
61581W        W26841   9.409  44.230   4.460
61582W        W26842  25.210  44.469  14.918
61583W        W26843   8.938  16.788   9.851
61584W        W26844   0.011  13.854   2.327
61585W        W26845  13.208  25.498   0.900
61586W        W26846   0.079   0.987   2.461
61587W        W26847  38.384  41.989   1.362
61588W        W26848  16.360  44.250   1.887
61589W        W26849   6.980   4.412  12.606
61590W        W26850   0.269  20.646   3.774
61591W        W26851  10.325  28.091   4.547
61592W        W26852  10.758  32.788  13.819
61593W        W26853  20.209  37.059  14.716
61594W        W26854  28.583  26.572  12.297
61595W        W26855   1.026  44.986  14.480
61596W        W26856  14.625   9.701   0.445
61597W        W26857  40.915  17.332   2.218
61598W        W26858  36.771  30.859   0.376
61599W        W26859  20.475   3.068   4.788
61600W        W26860   5.960  32.621   2.223
61601W        W26861  13.358  31.937   3.490
61602W        W26862  14.804  11.950  10.314
61603W        W26863   9.256   1.779   1.652
61604W        W26864  44.342   5.773  14.350
61605W        W26865  42.871  24.819   0.589
61606W        W26866  21.478  14.880  14.427
61607W        W26867  40.356  17.232  14.978
61608W        W26868  39.462  42.264   0.451
61609W        W26869  17.297  17.363   1.419
61610W        W26870   9.463  33.172   4.744
61611W        W26871  24.386  13.096  11.523
61612W        W26872  42.388   3.300  12.027
61613W        W26873  17.182  30.775  13.511
61614W        W26874  37.745  18.039   0.989
61615W        W26875  35.475  12.196  10.906
61616W        W26876  16.833  34.369   4.519
61617W        W26877  21.458  10.295   2.169
61618W        W26878  14.771  16.159   2.103
61619W        W26879  11.942  24.687  14.849
61620W        W26880  36.652  24.630  10.516
61621W        W26881   1.671  38.678  11.641
61622W        W26882  30.950  11.678  11.461
61623W        W26883   4.400  31.528   1.821
61624W        W26884  20.281  25.317   4.523
61625W        W26885  10.772   5.672   4.501
61626W        W26886  11.530   2.949  14.580
61627W        W26887  29.166   7.988  12.000
61628W        W26888  37.852  30.194   0.457
61629W        W26889  29.817  33.601   1.312
61630W        W26890  14.322  22.081   0.828
61631W        W26891  28.659  22.000  14.877
61632W        W26892   2.755  29.997   0.055
61633W        W26893  13.387  32.061   4.502
61634W        W26894  15.954  42.245  11.567
61635W        W26895  39.868  40.781  13.564
61636W        W26896  28.712  26.551  14.421
61637W        W26897  21.489   6.012   4.802
61638W        W26898  24.170  27.174  12.075
61639W        W26899  30.947  19.180   1.972
61640W        W26900  35.629  35.839   1.844
61641W        W26901  24.739  39.762  10.676
61642W        W26902  29.069  36.847   4.623
61643W        W26903  15.592  39.923   4.923
61644W        W26904   5.867  37.997  14.835
61645W        W26905  35.110  11.381  12.950
61646W        W26906  19.964  32.648  12.015
61647W        W26907  27.411   7.366  11.504
61648W        W26908  43.033  36.987  11.926
61649W        W26909  26.058  10.571   1.252
61650W        W26910  14.495  22.219   4.957
61651W        W26911  19.824  26.063  13.907
61652W        W26912  14.828  24.144  12.484
61653W        W26913   8.869  27.741  13.335
61654W        W26914  23.116  16.838   1.297
61655W        W26915  15.370  11.753  10.897
61656W        W26916   2.434  13.157   1.478
61657W        W26917  35.118  31.045  11.755
61658W        W26918  25.309  33.876  14.865
61659W        W26919  35.955  38.977   3.620
61660W        W26920  10.298  38.503  13.831
61661W        W26921  28.859  16.029   2.937
61662W        W26922  33.983  38.477  10.371
61663W        W26923   4.237  21.814   2.383
61664W        W26924  31.320  21.470   2.802
61665W        W26925  29.082  17.691   1.869
61666W        W26926  27.766  42.304  11.519
61667W        W26927   7.683  23.035   1.784
61668W        W26928  42.793  27.587  13.064
61669W        W26929   3.228  39.623  12.655
61670W        W26930  39.029   2.239   0.908
61671W        W26931  28.408  26.392  10.387
61672W        W26932  23.922  40.594   4.538
61673W        W26933   7.285   2.314   2.830
61674W        W26934  44.395   2.157   0.837
61675W        W26935   9.031  11.139   3.301
61676W        W26936  35.851  13.791   0.773
61677W        W26937  18.216   3.990  10.999
61678W        W26938  31.716   6.687  14.732
61679W        W26939  19.630  32.779  11.180
61680W        W26940   6.722  34.014  14.157
61681W        W26941  40.591  19.845   3.047
61682W        W26942   1.432  25.177  13.293
61683W        W26943   7.930  17.193  10.577
61684W        W26944  25.697  11.162   4.307
61685W        W26945   2.226  23.142  11.214
61686W        W26946  43.157  18.352   2.266
61687W        W26947  39.070  26.919   3.213
61688W        W26948   3.946  20.742  11.630
61689W        W26949   6.121  10.319  11.539
61690W        W26950   2.417  42.774   3.131
61691W        W26951   7.109   2.844   2.912
61692W        W26952   6.191  17.593  11.180
61693W        W26953  24.271   6.247   4.533
61694W        W26954   7.335   9.311  11.868
61695W        W26955   4.501  35.050  14.970
61696W        W26956  38.022  24.882  10.590
61697W        W26957   0.776  43.969   0.711
61698W        W26958  27.740   7.847  14.624
61699W        W26959  28.129  11.663  13.936
61700W        W26960  17.615   2.629  10.776
61701W        W26961   9.385  31.374   3.189
61702W        W26962  19.753  14.058  13.059
61703W        W26963  20.025  21.418  11.359
61704W        W26964  25.018  23.443   0.331
61705W        W26965  17.242  34.450   1.956
61706W        W26966   4.964  30.027   4.148
61707W        W26967  12.130  32.383  13.896
61708W        W26968  36.385   0.915  14.432
61709W        W26969   5.419  15.725   3.680
61710W        W26970  29.972  21.918   2.645
61711W        W26971  12.924   7.785  10.076
61712W        W26972  35.052  21.442   2.037
61713W        W26973  12.107   2.921   0.372
61714W        W26974   1.400  13.783  14.923
61715W        W26975  36.870  43.965  11.831
61716W        W26976  19.117  35.542   4.700
61717W        W26977  44.754  25.491  13.000
61718W        W26978  30.322  18.936  11.611
61719W        W26979  17.145  15.373  13.937
61720W        W26980  11.648  23.970  11.652
61721W        W26981  32.931  38.931  14.242
61722W        W26982  12.193  13.663   4.146
61723W        W26983  41.258  19.480   1.326
61724W        W26984   1.844  11.172   1.396
61725W        W26985  37.540  34.093   4.153
61726W        W26986  34.272  26.972  12.010
61727W        W26987  38.046  23.135  12.969
61728W        W26988  43.255  34.473  13.833
61729W        W26989  13.599  22.290   0.716
61730W        W26990  14.731  24.482   1.074
61731W        W26991  34.847  26.752   0.918
61732W        W26992  22.516  24.973   0.323
61733W        W26993  32.264  35.682  14.871
61734W        W26994  41.895  19.409   0.769
61735W        W26995  28.834   1.887   3.877
61736W        W26996  38.060  38.299   4.235
61737W        W26997   9.638  14.531  13.968
61738W        W26998  20.663  30.092   3.665
61739W        W26999  16.833  35.342   2.447
61740W        W27000  17.556  19.073   4.281
61741W        W27001  41.128  32.116  12.505
61742W        W27002  41.550  13.879  13.073
61743W        W27003  31.486  35.825  13.391
61744W        W27004  27.757  30.258   3.984
61745W        W27005  12.692  28.894  13.956
61746W        W27006  37.059   3.929   3.218
61747W        W27007  36.451  39.927   4.995
61748W        W27008  13.864  34.554  14.125
61749W        W27009   9.719   6.935   4.022
61750W        W27010   1.537  30.952  14.288
61751W        W27011  10.935  27.699   3.105
61752W        W27012  34.882  11.785   3.109
61753W        W27013  38.139  13.368   3.129
61754W        W27014  35.473  23.612   2.858
61755W        W27015  42.821  17.007   2.235
61756W        W27016   2.141  30.525   1.205
61757W        W27017   0.721   2.866   3.987
61758W        W27018  25.860  25.056  13.845
61759W        W27019  25.025  33.021  14.033
61760W        W27020   1.057  30.154   5.176
61761W        W27021  40.905  18.266   0.682
61762W        W27022  26.467  39.424   4.705
61763W        W27023  21.291  18.578   5.066
61764W        W27024   4.411  35.411   2.710
61765W        W27025  40.435  29.391  11.909
61766W        W27026  19.119   9.716   0.010
61767W        W27027  25.635  44.666   1.685
61768W        W27028  16.549  31.944  13.503
61769W        W27029  43.258   1.914   1.719
61770W        W27030  22.641   4.372  14.498
61771W        W27031   4.560  21.503   2.671
61772W        W27032  10.648   8.338   0.379
61773W        W27033  10.260  37.970   2.934
61774W        W27034  37.132  14.869   1.349
61775W        W27035  20.371  11.370   0.478
61776W        W27036  32.902  27.245   4.885
61777W        W27037  35.620  22.821  14.821
61778W        W27038  17.690  12.135   3.097
61779W        W27039  23.239  32.008  14.847
61780W        W27040  34.053  10.450   1.157
61781W        W27041  38.519   0.393  11.188
61782W        W27042   4.854   9.286  12.983
61783W        W27043   8.787  41.645   4.744
61784W        W27044  28.001  12.290   3.721
61785W        W27045   8.365  40.402  10.636
61786W        W27046  32.299   9.650  13.402
61787W        W27047  26.354  18.857  11.130
61788W        W27048  41.380  11.908   1.868
61789W        W27049  26.576  40.163   3.597
61790W        W27050  10.774  36.522   2.742
61791W        W27051  17.584   4.811  14.512
61792W        W27052  11.244  32.822  10.790
61793W        W27053  41.160   4.747   0.794
61794W        W27054   2.511  42.595  10.492
61795W        W27055  42.794  38.228  13.701
61796W        W27056  31.470  29.766  12.103
61797W        W27057  22.769  40.761   1.167
61798W        W27058  44.634  29.096   3.949
61799W        W27059  34.600  20.495  14.474
61800W        W27060  16.048  31.411   1.630
61801W        W27061  13.035  27.049  10.673
61802W        W27062  17.526   2.619   1.735
61803W        W27063  32.006  11.294   4.163
61804W        W27064  11.726   9.795   0.538
61805W        W27065  31.204   1.248   3.901
61806W        W27066   5.369   7.979   2.269
61807W        W27067   8.561   5.076   1.028
61808W        W27068  16.151  40.477  13.225
61809W        W27069   4.907  23.586   2.718
61810W        W27070  41.632   5.875  12.098
61811W        W27071   7.265  26.361   2.799
61812W        W27072  36.365  21.599   1.254
61813W        W27073  40.749  12.347  11.627
61814W        W27074  32.470  28.253  11.146
61815W        W27075  25.837   3.417  10.621
61816W        W27076  12.908  25.887  12.541
61817W        W27077  42.863  35.860   2.348
61818W        W27078  11.663   3.802   0.395
61819W        W27079  27.910  17.838  13.565
61820W        W27080  34.082   1.434   2.791
61821W        W27081  26.455  38.505   4.712
61822W        W27082   8.633   4.439  10.704
61823W        W27083   2.789  43.539   1.610
61824W        W27084  19.069  22.892   5.192
61825W        W27085   3.484  38.805   3.776
61826W        W27086  21.067   2.056   4.432
61827W        W27087   0.419   8.803  10.637
61828W        W27088  18.561  25.536   3.370
61829W        W27089  21.175  37.101  10.263
61830W        W27090   3.525   5.868  13.485
61831W        W27091  43.479  12.545  14.963
61832W        W27092   1.756  11.517  11.968
61833W        W27093  29.371   5.207  10.097
61834W        W27094  42.468  25.160   0.466
61835W        W27095  14.490   3.726   1.361
61836W        W27096  30.500   4.646   0.331
61837W        W27097  28.226   9.169  13.440
61838W        W27098   0.401   1.815  14.949
61839W        W27099  14.772  36.331   2.140
61840W        W27100  40.141   7.849   0.981
61841W        W27101  40.853  11.786  10.571
61842W        W27102  33.415  14.841   1.552
61843W        W27103  17.867  17.204  13.037
61844W        W27104  28.519  24.425   2.819
61845W        W27105  27.558  16.515  11.339
61846W        W27106  30.193  32.720  14.786
61847W        W27107  15.566  19.721   9.972
61848W        W27108  32.692   7.951   4.770
61849W        W27109  32.640   8.686   2.287
61850W        W27110   7.173  27.358  11.876
61851W        W27111  24.241   6.507   1.866
61852W        W27112  30.101   9.374  12.356
61853W        W27113   8.801  34.041   2.248
61854W        W27114  32.846  37.013   4.140
61855W        W27115  26.142  15.741   4.301
61856W        W27116  36.007  38.176   1.909
61857W        W27117  37.929  20.692   4.007
61858W        W27118   7.641   6.626  12.883
61859W        W27119  10.173  43.196  13.859
61860W        W27120  43.524  29.026   1.852
61861W        W27121  38.348  19.356  14.430
61862W        W27122  43.495   4.164  11.552
61863W        W27123  38.433  43.169  12.921
61864W        W27124   0.190  24.228   2.777
61865W        W27125   4.232  10.618   1.807
61866W        W27126   3.767  37.117  13.536
61867W        W27127  36.028  15.658   4.045
61868W        W27128  29.521  38.582  14.493
61869W        W27129  21.946  13.291   4.147
61870W        W27130   8.953   7.141   0.299
61871W        W27131  22.527  39.692  10.999
61872W        W27132   4.481  18.776  12.101
61873W        W27133   8.730  25.480   3.179
61874W        W27134  13.211   3.362  12.168
61875W        W27135  42.723  12.875  13.915
61876W        W27136  25.717  24.611  11.190
61877W        W27137  15.050   9.864  12.072
61878W        W27138   9.626  34.272  11.514
61879W        W27139  25.601  21.292   4.171
61880W        W27140   4.405  38.423   3.215
61881W        W27141   0.468  40.355  12.910
61882W        W27142  32.040  44.309  14.097
61883W        W27143  26.979  38.494  10.465
61884W        W27144  24.022  42.880  13.968
61885W        W27145  34.553  34.552  11.042
61886W        W27146  37.047  16.702   1.730
61887W        W27147  34.492  44.558   4.986
61888W        W27148  32.955  40.828  11.834
61889W        W27149  37.531  37.850  12.127
61890W        W27150  41.004   8.204  11.424
61891W        W27151  14.268  13.119  11.832
61892W        W27152  42.289  40.376   2.638
61893W        W27153  36.513   5.755  11.234
61894W        W27154  24.900  29.715   1.564
61895W        W27155  14.874  32.198  12.212
61896W        W27156  30.927  31.881   1.965
61897W        W27157   2.319  14.085   2.132
61898W        W27158   6.714  28.234   1.859
61899W        W27159   0.339  32.609   3.565
61900W        W27160  15.227  21.504  14.199
61901W        W27161  43.745  36.856   3.179
61902W        W27162  42.357  21.062   2.260
61903W        W27163  33.834   8.585   0.959
61904W        W27164  31.877  11.881  11.432
61905W        W27165  43.962  44.493  11.197
61906W        W27166  11.235  29.417  14.283
61907W        W27167  40.792  10.353   3.346
61908W        W27168  14.552   4.312   4.159
61909W        W27169  24.630  35.599   1.231
61910W        W27170   1.375  34.439  12.449
61911W        W27171  10.255  11.609  12.219
61912W        W27172   7.185   0.335   0.320
61913W        W27173  25.045  26.509  12.127
61914W        W27174  43.749  27.315  14.054
61915W        W27175  38.641  20.598  10.333
61916W        W27176   4.295  31.585  13.975
61917W        W27177   5.726  39.023  12.366
61918W        W27178  40.278  29.495   1.725
61919W        W27179  16.992  37.394  11.202
61920W        W27180  21.093  38.671   4.464
61921W        W27181   0.892  28.658   0.912
61922W        W27182  17.202  21.616   2.721
61923W        W27183  19.152  34.383   3.685
61924W        W27184   2.226  29.467   0.368
61925W        W27185  43.393  41.924  11.385
61926W        W27186  43.390  12.351  12.630
61927W        W27187  23.961   5.784  12.937
61928W        W27188  31.934   7.888  12.540
61929W        W27189  24.395  10.989   3.689
61930W        W27190   2.023  15.696  13.954
61931W        W27191  18.578   5.878  13.649
61932W        W27192  29.204  34.599   0.371
61933W        W27193   8.373   7.000  12.604
61934W        W27194  27.163  25.094  13.189
61935W        W27195  15.446  26.114  11.874
61936W        W27196   3.090  44.739  11.646
61937W        W27197  30.466  12.120  10.712
61938W        W27198   9.763  20.744  10.937
61939W        W27199  13.795  37.112  11.667
61940W        W27200   7.812   7.138   4.206
61941W        W27201  25.473  24.663  11.630
61942W        W27202  20.550  26.963   4.671
61943W        W27203   1.472   8.341   2.652
61944W        W27204  33.091  17.276   4.400
61945W        W27205  31.947   7.245  12.983
61946W        W27206  42.766   4.878  11.731
61947W        W27207  12.443  13.227  11.056
61948W        W27208  22.739  18.049  12.875
61949W        W27209  12.989  24.125   0.270
61950W        W27210   1.897  13.483   1.619
61951W        W27211  39.428  24.238  10.403
61952W        W27212  34.305   4.791   4.705
61953W        W27213  39.539   3.699   0.856
61954W        W27214  31.967  38.623   3.676
61955W        W27215  42.038  22.116  13.415
61956W        W27216  34.581  30.008  14.788
61957W        W27217  29.892   5.888   1.914
61958W        W27218  13.846  18.544   1.226
61959W        W27219  10.328  25.101   1.007
61960W        W27220  34.662  35.101  11.887
61961W        W27221  36.527  18.053  10.509
61962W        W27222  24.474  18.760  13.821
61963W        W27223   4.353   1.549  13.660
61964W        W27224  42.498  20.957   3.132
61965W        W27225  26.242  17.518   2.499
61966W        W27226  36.978  40.941   2.863
61967W        W27227  26.695  12.820  14.933
61968W        W27228  23.627  34.839   1.297
61969W        W27229  36.960   4.977  13.281
61970W        W27230  23.515   3.815  13.801
61971W        W27231  38.005  26.134   3.379
61972W        W27232  39.437  15.145   1.876
61973W        W27233  30.690   8.317  14.902
61974W        W27234  10.805  17.231  13.248
61975W        W27235  26.946  37.956  14.350
61976W        W27236   3.711   0.476   2.632
61977W        W27237  16.102   3.372  13.739
61978W        W27238  18.815  43.433   0.496
61979W        W27239  10.744  18.190   4.116
61980W        W27240  35.648  33.570   3.695
61981W        W27241   0.360  10.255  14.340
61982W        W27242  10.372  26.733   2.115
61983W        W27243  18.864  15.893  11.453
61984W        W27244   7.455  21.119   1.807
61985W        W27245  44.190  37.054  12.908
61986W        W27246  37.756  23.692   1.777
61987W        W27247  36.438   4.532   0.493
61988W        W27248   5.799  37.260   2.772
61989W        W27249  13.721  34.060  11.619
61990W        W27250  23.500  19.740   4.417
61991W        W27251  27.973  21.044   0.298
61992W        W27252   7.382  39.398  13.314
61993W        W27253  36.833  39.372  13.524
61994W        W27254  13.747  11.353   3.091
61995W        W27255  15.332   1.966   2.182
61996W        W27256  15.269  20.231  14.080
61997W        W27257  20.260  13.235   1.850
61998W        W27258  35.057  35.381  11.125
61999W        W27259   9.138  39.151  13.117
62000W        W27260   4.759   6.788   2.973
62001W        W27261   1.235  27.664   4.083
62002W        W27262  30.696   5.968  14.871
62003W        W27263   6.325  38.006   4.699
62004W        W27264  10.221  43.444   4.149
62005W        W27265  42.822  10.219   4.900
62006W        W27266  13.588   2.487  13.910
62007W        W27267  30.440  15.594   3.659
62008W        W27268  18.655  16.535  10.661
62009W        W27269  15.561  37.573  10.281
62010W        W27270  11.791  27.654  11.033
62011W        W27271  34.908  39.401   4.291
62012W        W27272   5.253   3.521   1.880
62013W        W27273   5.350  43.094   1.887
62014W        W27274   3.158  44.816   4.911
62015W        W27275  11.094  30.119   2.333
62016W        W27276  17.082  44.384   4.788
62017W        W27277  19.296   7.911  10.729
62018W        W27278  43.971  38.958  11.540
62019W        W27279   8.757  20.022   4.106
62020W        W27280  28.493  19.179  11.644
62021W        W27281  42.839  44.975   2.884
62022W        W27282  32.793   0.752  14.329
62023W        W27283  11.100  28.205   2.296
62024W        W27284  23.754   2.630   0.323
62025W        W27285   9.391  35.314  11.363
62026W        W27286  38.820  21.315   3.222
62027W        W27287  23.717   9.654  14.922
62028W        W27288  17.796  19.566  14.530
62029W        W27289   6.359  22.614  11.710
62030W        W27290   8.100  17.661  10.714
62031W        W27291  42.352  24.696   0.646
62032W        W27292  29.350  44.386  11.977
62033W        W27293   6.268   1.538  14.793
62034W        W27294  28.086  40.026   2.684
62035W        W27295   3.720  37.041  11.287
62036W        W27296   9.802  40.374  11.553
62037W        W27297  44.312  16.933  12.921
62038W        W27298  23.672   0.302  10.652
62039W        W27299   0.464  29.956   0.902
62040W        W27300  34.880   7.501   2.786
62041W        W27301   5.861  15.566   4.909
62042W        W27302  35.527  36.128   4.097
62043W        W27303  39.354  34.185   3.902
62044W        W27304  36.126  18.445  14.765
62045W        W27305  21.521  15.409  14.469
62046W        W27306  12.897  24.657   0.932
62047W        W27307   9.569   0.874  12.000
62048W        W27308  28.167   6.205  11.137
62049W        W27309   9.951  13.835  10.724
62050W        W27310  30.759  44.030  13.986
62051W        W27311  30.038  44.019   1.825
62052W        W27312  29.989  40.023   1.330
62053W        W27313  21.454   6.681  11.137
62054W        W27314  30.715   2.185  11.191
62055W        W27315  29.710  20.098  11.010
62056W        W27316  44.842  15.822  10.496
62057W        W27317  23.039  19.808   1.553
62058W        W27318  27.623  15.511  11.547
62059W        W27319  35.013   4.900   0.332
62060W        W27320   3.396   3.400   1.463
62061W        W27321  10.946  11.157   4.141
62062W        W27322  44.844  21.446  12.913
62063W        W27323  15.757  10.918  10.652
62064W        W27324   2.610  30.876  14.957
62065W        W27325  23.439  37.049   2.822
62066W        W27326  35.525   7.429   4.560
62067W        W27327  29.332   4.870  11.995
62068W        W27328  11.167  39.478  10.911
62069W        W27329  12.472  22.979  14.846
62070W        W27330  34.744  12.688   5.054
62071W        W27331   8.914   2.510   0.766
62072W        W27332   5.644  43.343   0.308
62073W        W27333  36.518  21.158  13.183
62074W        W27334  20.932  43.453   2.740
62075W        W27335  21.577  40.205  10.222
62076W        W27336  38.401  20.686  11.827
62077W        W27337  18.203  37.029   3.325
62078W        W27338  23.463   1.393   2.800
62079W        W27339  44.332  41.007  12.586
62080W        W27340   9.422  12.501  11.996
62081W        W27341  12.281  27.934   3.013
62082W        W27342  40.420  21.570   3.777
62083W        W27343  38.379  14.968  10.624
62084W        W27344  26.655   6.174   1.707
62085W        W27345   3.359   9.557   0.326
62086W        W27346  43.579  10.358  12.444
62087W        W27347  36.073  24.131   2.930
62088W        W27348  20.825   2.871  10.680
62089W        W27349  12.684   0.226  13.881
62090W        W27350  14.400  14.117   2.223
62091W        W27351  24.064  27.477  11.598
62092W        W27352  18.919  36.904   2.216
62093W        W27353  22.548  20.196   3.150
62094W        W27354  42.471  44.292  11.157
62095W        W27355  20.714   3.814  12.955
62096W        W27356  39.295  38.336  13.907
62097W        W27357  15.058  19.664  14.985
62098W        W27358  29.984  18.561  11.665
62099W        W27359  34.572  27.294   3.210
62100W        W27360  32.085  33.394  14.371
62101W        W27361  44.992  22.986  14.405
62102W        W27362  40.258  41.600   3.169
62103W        W27363  20.785  18.323   2.615
62104W        W27364  42.799   6.504  14.865
62105W        W27365  11.404   4.669  13.941
62106W        W27366  21.100  39.507  12.473
62107W        W27367  28.613   8.821  13.156
62108W        W27368  31.685  36.622  12.127
62109W        W27369   3.186  11.898   3.658
62110W        W27370  21.221  14.588  11.667
62111W        W27371   5.372  15.717   1.856
62112W        W27372  20.552  21.311  12.899
62113W        W27373  44.680  11.168   0.995
62114W        W27374  10.712   1.601   4.891
62115W        W27375   2.459  17.231  12.534
62116W        W27376  41.431  20.731   3.978
62117W        W27377  14.349   9.891  13.268
62118W        W27378  24.159  32.522  10.621
62119W        W27379  21.432  28.225   0.960
62120W        W27380   0.454  29.958  14.807
62121W        W27381  10.746   8.391   1.748
62122W        W27382  38.998  27.396  12.688
62123W        W27383  43.591   4.323   1.671
62124W        W27384  39.212  19.928  10.202
62125W        W27385   3.079  13.210   4.019
62126W        W27386   9.091  13.264   0.922
62127W        W27387   8.058  41.515  14.368
62128W        W27388  11.446  26.179   9.895
62129W        W27389  21.918  33.564   5.464
62130W        W27390  28.224  19.703   0.244
62131W        W27391  27.474  42.463  13.606
62132W        W27392  27.006  31.385   3.281
62133W        W27393  42.854  12.995   1.594
62134W        W27394  34.629  10.807   1.898
62135W        W27395  44.843  27.859   1.277
62136W        W27396  29.230  29.162  13.054
62137W        W27397  15.846   8.104   4.871
62138W        W27398  40.377  32.954   1.618
62139W        W27399  42.499   5.111  10.431
62140W        W27400  33.652  35.487   0.300
62141W        W27401  12.381  35.211   0.544
62142W        W27402  11.166  42.086   1.992
62143W        W27403  35.431  15.132   4.670
62144W        W27404  17.111  34.884  11.124
62145W        W27405   6.665  20.205  10.552
62146W        W27406  25.664  40.330   2.715
62147W        W27407   3.435  24.059   2.876
62148W        W27408   5.330  35.446   2.745
62149W        W27409  10.733  40.561   1.628
62150W        W27410  15.891   4.340   4.073
62151W        W27411  15.159  14.149  11.435
62152W        W27412  24.484  41.965  10.825
62153W        W27413   4.537   5.008  14.793
62154W        W27414  17.733   7.809  12.754
62155W        W27415  25.572  22.135  14.076
62156W        W27416  27.420  26.596   1.270
62157W        W27417  36.388  36.368  12.106
62158W        W27418  19.601  36.904   1.009
62159W        W27419   0.942   9.603  14.415
62160W        W27420   9.690  30.475   3.699
62161W        W27421  32.575  22.941   2.115
62162W        W27422  24.051  28.897  10.846
62163W        W27423  20.837  40.901   1.325
62164W        W27424  25.532  13.440   1.481
62165W        W27425   0.799  18.263   0.919
62166W        W27426  21.626   0.692   1.325
62167W        W27427   7.644  17.937   2.898
62168W        W27428   5.188  34.499  13.014
62169W        W27429  20.836  29.743   2.879
62170W        W27430  15.122  15.771   2.137
62171W        W27431  29.931  19.826  14.227
62172W        W27432  29.920  33.891  12.884
62173W        W27433  37.030   8.235   3.586
62174W        W27434  12.337  42.837   4.658
62175W        W27435  35.646  36.518   2.297
62176W        W27436  37.517  39.919   1.666
62177W        W27437  24.055  39.011  10.713
62178W        W27438  25.880  17.173   2.836
62179W        W27439  31.212  10.502   3.773
62180W        W27440   3.211  41.244  11.445
62181W        W27441  23.575  42.448  13.548
62182W        W27442  26.482  15.825   0.781
62183W        W27443  21.750   6.134   3.938
62184W        W27444  21.880   3.277   4.564
62185W        W27445   2.417  18.134   1.343
62186W        W27446  40.251  14.359   4.991
62187W        W27447   2.440  16.842  13.377
62188W        W27448  21.584  31.021   3.617
62189W        W27449  42.927  18.049   2.679
62190W        W27450  40.114   3.468  14.290
62191W        W27451   3.750   0.488  13.433
62192W        W27452  20.689  15.636  11.084
62193W        W27453  41.347  14.259  11.920
62194W        W27454  32.215   5.215   4.128
62195W        W27455  38.955  17.938  11.963
62196W        W27456  33.018  40.427   1.309
62197W        W27457  21.508  20.963   5.404
62198W        W27458  12.254  26.940   0.833
62199W        W27459   7.099  38.835  10.782
62200W        W27460  19.741  23.339   3.171
62201W        W27461  43.446   4.463   3.102
62202W        W27462   4.239   6.645  10.800
62203W        W27463  13.283  43.096   1.240
62204W        W27464   5.265  27.484  10.761
62205W        W27465  29.182   3.855  11.811
62206W        W27466  41.052  22.804  10.485
62207W        W27467  38.643   0.414  10.295
62208W        W27468  22.220  31.861   1.217
62209W        W27469  16.493  10.829  12.083
62210W        W27470   2.826   0.434   1.355
62211W        W27471   9.239  38.647  13.335
62212W        W27472  32.842  38.522  14.816
62213W        W27473  14.367  27.693   4.183
62214W        W27474  22.818  13.523  13.925
62215W        W27475  12.490  14.128  10.780
62216W        W27476   8.625   3.340  12.629
62217W        W27477  12.047  10.237   0.734
62218W        W27478  24.201  13.231  13.566
62219W        W27479   7.841   1.033  14.218
62220W        W27480  18.719  15.860   4.582
62221W        W27481  34.594  42.230  11.457
62222W        W27482   1.448  31.927  14.185
62223W        W27483  43.356   2.982  14.780
62224W        W27484   0.887  32.141  12.224
62225W        W27485  42.924  21.980   3.571
62226W        W27486  16.159  39.789   2.944
62227W        W27487  21.302  18.708   3.256
62228W        W27488  10.290   4.865   2.226
62229W        W27489  17.363  37.425   4.158
62230W        W27490  21.570  42.077  13.894
62231W        W27491  32.813  32.825  10.596
62232W        W27492  12.594  33.059  12.682
62233W        W27493  21.607  22.561   1.421
62234W        W27494  24.745  16.875   0.915
62235W        W27495  35.449   5.497  10.367
62236W        W27496  38.444  30.890   1.261
62237W        W27497   1.319   7.942  12.422
62238W        W27498  41.848  26.266  10.689
62239W        W27499  29.698  29.177   1.379
62240W        W27500  27.453  35.936  11.997
62241W        W27501   0.173   6.722   1.854
62242W        W27502   8.584   7.156  12.137
62243W        W27503  38.785  33.565  14.904
62244W        W27504  30.864   1.494   2.895
62245W        W27505  23.524  40.606  11.101
62246W        W27506  16.407  33.084  14.550
62247W        W27507  30.602  25.989   2.349
62248W        W27508  22.593  38.917  13.204
62249W        W27509  15.995  13.443   2.760
62250W        W27510  38.001  40.868   3.099
62251W        W27511  43.400  42.709  10.752
62252W        W27512   4.735  10.501  12.661
62253W        W27513  43.109  23.462   2.909
62254W        W27514  40.360  12.767  12.982
62255W        W27515   5.318  19.739  11.344
62256W        W27516  42.038  20.902  12.937
62257W        W27517  12.024  21.702   2.168
62258W        W27518  29.588  27.904  14.467
62259W        W27519  10.922   6.228  13.717
62260W        W27520  20.096  30.078   4.491
62261W        W27521   8.975  42.853  10.371
62262W        W27522  23.960   4.266   0.374
62263W        W27523  19.316  26.497   0.980
62264W        W27524  25.124  44.313   3.699
62265W        W27525  37.107   2.377   3.678
62266W        W27526   0.220  38.295  12.634
62267W        W27527  10.172  15.350   3.256
62268W        W27528  21.499  39.428  11.620
62269W        W27529  26.126   7.670  13.309
62270W        W27530   4.854  34.232  13.956
62271W        W27531   6.328  22.199   4.938
62272W        W27532  10.602  26.953   1.260
62273W        W27533  20.654  43.881   3.379
62274W        W27534  18.497  21.574   1.527
62275W        W27535  19.242  35.645   3.372
62276W        W27536  21.593  29.673   0.505
62277W        W27537  44.518  38.855  12.399
62278W        W27538   5.949  19.433  14.123
62279W        W27539  23.015   9.216  12.608
62280W        W27540  41.857  21.636  13.109
62281W        W27541  43.776   4.381  12.444
62282W        W27542  40.810  29.692  11.192
62283W        W27543   1.826  31.454  11.186
62284W        W27544  29.647  19.550   1.790
62285W        W27545   0.257  38.665   4.547
62286W        W27546  26.129  40.579   1.736
62287W        W27547  10.489  11.409   4.095
62288W        W27548  23.551   9.294   2.750
62289W        W27549  26.626   3.445  13.344
62290W        W27550  41.940  17.645  13.262
62291W        W27551  24.668   6.964   1.161
62292W        W27552  30.553  44.070  10.555
62293W        W27553  38.961  22.218  12.496
62294W        W27554  42.958  10.195   0.780
62295W        W27555  17.280  35.079   2.333
62296W        W27556  35.569  44.854   1.717
62297W        W27557  41.915  28.547   0.569
62298W        W27558  14.547  37.572   1.372
62299W        W27559  22.296  40.795  13.913
62300W        W27560   4.443  40.574   3.273
62301W        W27561  14.452   0.962  14.468
62302W        W27562  30.250  15.153  13.234
62303W        W27563  39.960  39.890   0.395
62304W        W27564  16.723  17.119   5.474
62305W        W27565  35.828  18.634   2.671
62306W        W27566  44.322  15.801  10.406
62307W        W27567  44.977  23.231  12.511
62308W        W27568  43.848  35.370  14.797
62309W        W27569  23.343   3.442   1.472
62310W        W27570   2.766   1.004   4.788
62311W        W27571  40.479  37.989  13.340
62312W        W27572  27.104  38.571   3.131
62313W        W27573  34.230  28.045   1.757
62314W        W27574   3.724  23.388   2.291
62315W        W27575  15.359  12.847   4.107
62316W        W27576  25.734  26.244  10.163
62317W        W27577   5.466   1.459  10.628
62318W        W27578  43.756  29.849  12.995
62319W        W27579  36.784  14.477  11.075
62320W        W27580   6.558  36.981  10.768
62321W        W27581  22.257  28.688   1.704
62322W        W27582  18.492  38.819   1.287
62323W        W27583  10.387  33.648  12.998
62324W        W27584  12.715  20.744  12.389
62325W        W27585  41.787  43.468   4.084
62326W        W27586  35.313  24.731   1.262
62327W        W27587  15.688  24.020   4.056
62328W        W27588   4.463   7.065   0.892
62329W        W27589  25.247  16.630   3.060
62330W        W27590  12.965  15.748  13.519
62331W        W27591   1.127  18.978   2.331
62332W        W27592  26.537  30.566  12.808
62333W        W27593  37.486  14.600   4.584
62334W        W27594   8.107   6.456  11.761
62335W        W27595  25.522  33.931   2.978
62336W        W27596   6.909  30.865   0.315
62337W        W27597   0.969  13.612  12.777
62338W        W27598  32.181   8.851  10.388
62339W        W27599  26.443  22.248   1.202
62340W        W27600  24.307  32.054   1.882
62341W        W27601  38.394  18.686   3.501
62342W        W27602  10.394  21.797  14.528
62343W        W27603  39.371  34.470  11.045
62344W        W27604  31.872  11.166  14.011
62345W        W27605  20.742  24.538   0.464
62346W        W27606  19.872  44.383   2.352
62347W        W27607  28.104   1.220   3.594
62348W        W27608  34.355  24.695  13.491
62349W        W27609   1.705  42.943  14.415
62350W        W27610  11.337  35.887   4.427
62351W        W27611  24.893  20.948  14.375
62352W        W27612  10.128  39.402   1.421
62353W        W27613   9.891  43.096   0.267
62354W        W27614  13.243  40.065   3.723
62355W        W27615  12.000   2.864  11.162
62356W        W27616  31.820  22.660  11.625
62357W        W27617  17.421  17.865  10.616
62358W        W27618  23.418  17.543   1.857
62359W        W27619  15.319   5.972   1.390
62360W        W27620   3.199  23.101  14.542
62361W        W27621  21.177  13.062  13.453
62362W        W27622  31.635   6.961  13.862
62363W        W27623  44.184  37.569  13.935
62364W        W27624  34.317   9.950  10.663
62365W        W27625  42.330  26.583   1.382
62366W        W27626  22.007  23.272   1.637
62367W        W27627   0.804  34.252  10.136
62368W        W27628   4.445  22.705   3.930
62369W        W27629   7.493  43.883  11.908
62370W        W27630   6.057  14.313   0.929
62371W        W27631   4.412  33.541   2.402
62372W        W27632   3.624  31.730   3.690
62373W        W27633   4.714   2.313  11.214
62374W        W27634  28.967   7.005  13.766
62375W        W27635   7.358  41.547   3.932
62376W        W27636  35.829  22.000  12.062
62377W        W27637  27.956  24.714  10.602
62378W        W27638  23.431   3.211   4.807
62379W        W27639  13.071  13.694  11.191
62380W        W27640  34.631  21.486   3.780
62381W        W27641  41.843   4.876  14.953
62382W        W27642  26.986  21.264   3.257
62383W        W27643   5.435  33.390  12.428
62384W        W27644  35.359  44.149  12.529
62385W        W27645  24.273  37.509   0.460
62386W        W27646  17.854  12.160  10.620
62387W        W27647  34.472  38.890  13.609
62388W        W27648  33.287  30.062   3.120
62389W        W27649  35.467  18.120  13.473
62390W        W27650  11.724   2.937  13.408
62391W        W27651   3.158  19.245   0.848
62392W        W27652  23.246  26.508   4.195
62393W        W27653  11.838  43.021  11.496
62394W        W27654  18.615   8.346   1.669
62395W        W27655  29.483   0.274  10.710
62396W        W27656  16.269  18.565   2.374
62397W        W27657  19.090  28.936   0.793
62398W        W27658  17.770  20.723   4.152
62399W        W27659  14.361  18.840  13.372
62400W        W27660  21.536  33.583  11.186
62401W        W27661  33.004  39.478  14.023
62402W        W27662   2.757  41.960   1.798
62403W        W27663   0.204  44.815  11.130
62404W        W27664  36.749   6.971  12.345
62405W        W27665  32.877  16.107  13.342
62406W        W27666  30.043  36.678  12.552
62407W        W27667   2.578  31.405  14.033
62408W        W27668   7.787  33.602   0.523
62409W        W27669   5.561  37.060   3.225
62410W        W27670  13.557  32.468  13.123
62411W        W27671  17.862  19.194   1.247
62412W        W27672   3.870   1.508   2.236
62413W        W27673  18.819  19.981   2.740
62414W        W27674  10.617  21.170   4.509
62415W        W27675  22.048  24.269   1.903
62416W        W27676  35.602  19.292  11.222
62417W        W27677  42.081  41.953  12.082
62418W        W27678   7.488   3.659  14.525
62419W        W27679  21.980  15.331   2.121
62420W        W27680  12.817  40.474  14.403
62421W        W27681  28.708  21.554   2.215
62422W        W27682   4.582  39.306  12.095
62423W        W27683   1.463   5.339   4.505
62424W        W27684  28.557  15.864   3.326
62425W        W27685  18.109   0.765   3.125
62426W        W27686  42.574  23.695   4.488
62427W        W27687  15.236  28.128  13.398
62428W        W27688  17.263  13.832  14.083
62429W        W27689   0.380  30.301   2.833
62430W        W27690  26.983  21.685  12.510
62431W        W27691   7.721   0.612   3.944
62432W        W27692  28.419  19.648   1.093
62433W        W27693   6.451  15.022  13.398
62434W        W27694  41.792  32.641   0.363
62435W        W27695  36.480  19.489   3.095
62436W        W27696  23.476   1.019  12.388
62437W        W27697  19.829   3.862  12.394
62438W        W27698  13.055   8.007  12.443
62439W        W27699  19.635  44.455  11.560
62440W        W27700  37.222   2.221  13.550
62441W        W27701   8.267  19.769  13.598
62442W        W27702  17.651  43.021  11.114
62443W        W27703  41.305  22.147   3.759
62444W        W27704   1.526  33.956  14.016
62445W        W27705  33.326  43.458  12.441
62446W        W27706  44.741   4.806  14.144
62447W        W27707  44.870   8.754   2.084
62448W        W27708  26.356  35.042  14.377
62449W        W27709   4.460  17.190  10.657
62450W        W27710  12.413   9.665  12.350
62451W        W27711  11.401  30.073   1.412
62452W        W27712  42.397  11.005   1.941
62453W        W27713   5.718  24.669  11.573
62454W        W27714   6.630  39.000  13.455
62455W        W27715  10.191  29.235  10.323
62456W        W27716  23.397   1.936  10.930
62457W        W27717  42.412   8.271  10.670
62458W        W27718   3.720   7.923  11.502
62459W        W27719   8.189  12.734  12.096
62460W        W27720   7.965  43.855  14.362
62461W        W27721   8.928  43.267   3.008
62462W        W27722   1.841  21.269   0.029
62463W        W27723  22.998   3.266  10.253
62464W        W27724  30.185  27.371  12.348
62465W        W27725   0.651  38.775   1.820
62466W        W27726   6.436   2.243  13.869
62467W        W27727  38.753  17.563   4.691
62468W        W27728  36.341  32.520   4.060
62469W        W27729  26.342   7.448  14.372
62470W        W27730  39.819   5.216   2.271
62471W        W27731  26.099  30.632   0.753
62472W        W27732  43.476  11.076   1.904
62473W        W27733  29.499  40.836  12.651
62474W        W27734  10.228  19.273   4.514
62475W        W27735  21.539  40.727  13.460
62476W        W27736   2.667   7.870   4.415
62477W        W27737   7.315  35.985   1.256
62478W        W27738  36.534  30.419   0.321
62479W        W27739  24.953  19.425   1.834
62480W        W27740  17.794  27.539  13.483
62481W        W27741  32.023   6.436  12.528
62482W        W27742   1.833  14.701  13.077
62483W        W27743  29.389   2.993  11.706
62484W        W27744  13.769  33.037   4.404
62485W        W27745  23.607  28.593   3.145
62486W        W27746  25.739   7.649  10.938
62487W        W27747  40.282   1.956  13.362
62488W        W27748  15.726   8.307   3.909
62489W        W27749  38.499  35.251   4.731
62490W        W27750   9.235  24.040  10.502
62491W        W27751  19.402   7.755   4.456
62492W        W27752   9.862  13.435   4.566
62493W        W27753  26.212  32.613  13.920
62494W        W27754  10.491   5.310  14.254
62495W        W27755   4.483   8.531  14.574
62496W        W27756  42.961   4.296   2.904
62497W        W27757  10.281   9.179   3.323
62498W        W27758  33.278  12.746   4.223
62499W        W27759  43.500   6.948   5.005
62500W        W27760   8.344  23.228   2.720
62501W        W27761  13.310  10.158   3.382
62502W        W27762  41.222   9.840   2.819
62503W        W27763  42.998  20.185   3.540
62504W        W27764  26.627  29.609  13.940
62505W        W27765  33.947  36.397   0.807
62506W        W27766  33.486  19.683   1.735
62507W        W27767   0.257  43.270  13.863
62508W        W27768  39.930  14.092  13.972
62509W        W27769  21.025  17.381   1.823
62510W        W27770  40.644  27.175  11.459
62511W        W27771  15.191   2.453  14.361
62512W        W27772   4.669   1.833   4.251
62513W        W27773  32.104  40.950   2.248
62514W        W27774  13.024  43.554   2.287
62515W        W27775  25.265  30.595   3.651
62516W        W27776   3.314  44.415  10.767
62517W        W27777  20.531   1.272   4.489
62518W        W27778  31.846  15.990   1.482
62519W        W27779   0.339  38.340  12.103
62520W        W27780  10.389  30.558  12.748
62521W        W27781  24.176  12.841   0.826
62522W        W27782  32.379  26.186  11.602
62523W        W27783  16.812  13.364   4.394
62524W        W27784  30.546   0.284   3.958
62525W        W27785  34.148  15.621  11.339
62526W        W27786  32.144   2.751  11.113
62527W        W27787   6.437  44.158   0.258
62528W        W27788  27.401  40.525  12.462
62529W        W27789  42.874  43.231   3.154
62530W        W27790  24.580  25.095  10.785
62531W        W27791   0.217  35.581  10.753
62532W        W27792  38.480   5.943  13.448
62533W        W27793  14.384  32.524  12.568
62534W        W27794   8.667  44.417  14.325
62535W        W27795  19.250  39.709   3.848
62536W        W27796  38.661  43.507  14.761
62537W        W27797  17.367  38.839  10.992
62538W        W27798  31.059  33.910   0.279
62539W        W27799  37.160  11.426  12.030
62540W        W27800  10.872   3.755   2.819
62541W        W27801  20.708  13.194  10.827
62542W        W27802  30.387  42.265  14.471
62543W        W27803  17.282  25.989  12.976
62544W        W27804   6.736  13.051  11.966
62545W        W27805  27.018  19.129  12.620
62546W        W27806  13.894  29.977  11.123
62547W        W27807  18.717  42.230  13.440
62548W        W27808  28.483  19.126  10.782
62549W        W27809  31.905  31.554  11.241
62550W        W27810  29.948  13.060  10.454
62551W        W27811  16.944  12.534   4.720
62552W        W27812  33.581  40.777   5.023
62553W        W27813   0.231  35.026   1.248
62554W        W27814  21.293  29.582  10.560
62555W        W27815  32.108  21.024  11.097
62556W        W27816  13.311   4.248  11.932
62557W        W27817  13.534  30.928   2.141
62558W        W27818  23.490   3.783  14.976
62559W        W27819  39.065  10.214   1.209
62560W        W27820  38.165  42.993  12.521
62561W        W27821   3.739   4.284  11.138
62562W        W27822  31.295  30.009  11.708
62563W        W27823   2.756  37.177   4.310
62564W        W27824  37.311  34.509  13.033
62565W        W27825  37.264  11.803   1.765
62566W        W27826  13.386  17.190  10.288
62567W        W27827   3.342  17.750   1.186
62568W        W27828  30.916  21.204  11.429
62569W        W27829   1.982  43.267  14.711
62570W        W27830  17.740   0.504  10.648
62571W        W27831  30.484  29.792   3.163
62572W        W27832  10.725  15.449   0.713
62573W        W27833  39.391  33.134  14.782
62574W        W27834  21.782  22.100   2.397
62575W        W27835  38.477   0.743  14.906
62576W        W27836  35.716  26.147  11.744
62577W        W27837  44.251   7.754   0.866
62578W        W27838  12.740  33.190  10.807
62579W        W27839  39.776  12.360  10.795
62580W        W27840  17.881  28.051   3.243
62581W        W27841   5.685  27.000  12.485
62582W        W27842   3.340  36.819  13.620
62583W        W27843  33.751  15.482  11.007
62584W        W27844   2.500  23.799   2.563
62585W        W27845  36.131   0.766   2.629
62586W        W27846   5.382  32.298   3.800
62587W        W27847  16.415  24.420   4.371
62588W        W27848  19.178  27.430  13.657
62589W        W27849  23.223   2.438  13.862
62590W        W27850  27.093  19.201   3.823
62591W        W27851  21.254   9.802   2.240
62592W        W27852  16.497   3.699  13.849
62593W        W27853  38.934   4.963   1.400
62594W        W27854  18.207  17.570   2.393
62595W        W27855  10.161   7.222   2.239
62596W        W27856  28.062  26.638   4.489
62597W        W27857  30.139   0.158   2.411
62598W        W27858  34.348   2.308   2.771
62599W        W27859  22.372  43.107  12.069
62600W        W27860  28.175  36.483  14.564
62601W        W27861  41.394  29.280  12.323
62602W        W27862  29.385  18.137  11.987
62603W        W27863  32.112   2.206  12.890
62604W        W27864  30.270   4.378   1.358
62605W        W27865  15.652   7.203   4.721
62606W        W27866  14.146  22.462  13.977
62607W        W27867   3.763  38.928   4.631
62608W        W27868  15.270  10.217   0.024
62609W        W27869  25.567  35.559  14.455
62610W        W27870  21.020  20.374   3.768
62611W        W27871  34.117  32.698   3.211
62612W        W27872   4.419  16.062  11.591
62613W        W27873  15.088  35.101   0.640
62614W        W27874   9.444  26.664  11.205
62615W        W27875  16.323  41.530   1.643
62616W        W27876  25.077  43.203   1.450
62617W        W27877  28.667  42.287   1.832
62618W        W27878  13.822   0.471   0.920
62619W        W27879  40.598   3.301  14.317
62620W        W27880  15.403   6.654   1.773
62621W        W27881  32.087   8.712   5.176
62622W        W27882  36.594  26.646   4.436
62623W        W27883  18.724  42.221  12.072
62624W        W27884  41.213  22.747  12.132
62625W        W27885  33.058  18.297   0.702
62626W        W27886  37.476  15.138   1.082
62627W        W27887  29.561  12.851  13.865
62628W        W27888  15.836   3.222  14.417
62629W        W27889  15.318  25.833  10.535
62630W        W27890  28.990  11.584   4.527
62631W        W27891  13.536  27.626   1.149
62632W        W27892  19.915   0.311  14.389
62633W        W27893  20.486  32.397   4.925
62634W        W27894   5.991  18.624   0.254
62635W        W27895  31.913  13.719   2.285
62636W        W27896  18.324  25.171   2.848
62637W        W27897  31.341  14.376  11.226
62638W        W27898  37.823  33.553   3.208
62639W        W27899   8.112  23.298  10.724
62640W        W27900  19.208  32.703   4.908
62641W        W27901  44.301  16.118   1.608
62642W        W27902  24.167  44.076   4.607
62643W        W27903  33.308   2.421  14.810
62644W        W27904  12.865  11.297   1.643
62645W        W27905   7.839  21.145  13.324
62646W        W27906  38.952  29.003   0.750
62647W        W27907  17.813  34.492   3.823
62648W        W27908  16.144  24.779  11.660
62649W        W27909  32.215  13.393  14.358
62650W        W27910  10.811  17.743   0.319
62651W        W27911  30.064  18.801  12.998
62652W        W27912  42.782   2.393   2.335
62653W        W27913  37.707  20.844   3.551
62654W        W27914  38.223  19.496  12.061
62655W        W27915  16.131  15.823  13.164
62656W        W27916  31.809  12.096  13.040
62657W        W27917  25.603  17.607  13.749
62658W        W27918  23.099  23.317   2.284
62659W        W27919  43.776  15.122   4.600
62660W        W27920  30.937  44.620  11.179
62661W        W27921   7.578  25.634  14.404
62662W        W27922   8.163  33.495   4.577
62663W        W27923  20.022  18.518   1.883
62664W        W27924  30.745  18.510   3.688
62665W        W27925  17.814  17.511   2.748
62666W        W27926  19.276  34.598   4.855
62667W        W27927   1.277  19.049   4.939
62668W        W27928  11.365  19.116   0.008
62669W        W27929  40.878  13.268  10.686
62670W        W27930   9.816  32.917   2.345
62671W        W27931  38.533  10.588  11.067
62672W        W27932  29.954  24.547   3.511
62673W        W27933  43.609  13.222   3.656
62674W        W27934  13.781  26.108   1.487
62675W        W27935  38.981   9.657  14.774
62676W        W27936  17.384  22.956  13.404
62677W        W27937  41.907  41.569   1.219
62678W        W27938  10.643  44.723   4.063
62679W        W27939  28.129  18.733  12.454
62680W        W27940  41.054  16.631  14.998
62681W        W27941   1.333   8.706  14.826
62682W        W27942  12.690  15.788  11.079
62683W        W27943  36.829   3.775   2.791
62684W        W27944   9.623  39.931   0.729
62685W        W27945  19.113   7.906  11.611
62686W        W27946   8.594  18.523  12.978
62687W        W27947   8.265  20.542   1.615
62688W        W27948  11.650  28.002   3.807
62689W        W27949  32.700  35.460   3.595
62690W        W27950  26.418   0.408   1.152
62691W        W27951  17.076  18.455   9.869
62692W        W27952  36.451   7.321   4.547
62693W        W27953  14.617  23.993   1.039
62694W        W27954  41.891  16.684  13.982
62695W        W27955  14.164  42.337   3.502
62696W        W27956  20.865  38.422  13.451
62697W        W27957  24.300   0.560  13.839
62698W        W27958  40.366  15.977  13.432
62699W        W27959   4.858  33.102   4.652
62700W        W27960   9.646  41.598  10.979
62701W        W27961  21.907  14.891   1.309
62702W        W27962  22.995  29.629  11.758
62703W        W27963   9.285   4.811   4.957
62704W        W27964  19.198  37.607   2.835
62705W        W27965   7.418  20.013   1.322
62706W        W27966   7.160  22.941   1.746
62707W        W27967   4.808  33.635   2.055
62708W        W27968   7.155  25.166   0.860
62709W        W27969  42.003  13.030   2.749
62710W        W27970  31.641  35.897   0.472
62711W        W27971  22.593  28.946  11.078
62712W        W27972   9.440  13.682  12.126
62713W        W27973  38.926  37.543   2.327
62714W        W27974  39.280  20.046  12.818
62715W        W27975  18.537  31.960   3.279
62716W        W27976  15.753  25.466   2.717
62717W        W27977   2.416  19.294  13.370
62718W        W27978  12.644  18.577  12.498
62719W        W27979  14.832  13.833   2.337
62720W        W27980  25.666  12.684   4.685
62721W        W27981  30.527   7.826  14.553
62722W        W27982  41.976  29.111  11.153
62723W        W27983  29.389   8.826  11.165
62724W        W27984  16.696   7.619  12.615
62725W        W27985   3.893  27.081  11.985
62726W        W27986   6.655  21.774   0.917
62727W        W27987  22.979  40.711  11.057
62728W        W27988  13.941  29.574   2.620
62729W        W27989   9.917   9.155  13.002
62730W        W27990   2.494  40.764   0.345
62731W        W27991  20.138  14.969  10.978
62732W        W27992  11.067  14.291  10.589
62733W        W27993  19.710   9.366   2.684
62734W        W27994  39.595  20.842  11.120
62735W        W27995  12.790  27.704   4.199
62736W        W27996  11.613  15.839  13.216
62737W        W27997  33.994  40.253   1.299
62738W        W27998  26.034  19.469  12.002
62739W        W27999   9.097  20.718  14.846
62740W        W28000  11.266   3.396  11.719
62741W        W28001  12.134  18.516   0.707
62742W        W28002  10.880  10.259   1.584
62743W        W28003  30.226  18.632   2.352
62744W        W28004  19.010  13.574   0.291
62745W        W28005  29.399  28.953  13.501
62746W        W28006  33.181   8.902   1.442
62747W        W28007  31.589   3.648   3.303
62748W        W28008  18.645  37.239   0.696
62749W        W28009  11.837  28.723  13.284
62750W        W28010   8.186  34.584  12.185
62751W        W28011  33.427  30.508  12.622
62752W        W28012  24.112  23.577  13.497
62753W        W28013  44.034   1.781   4.222
62754W        W28014   2.915  39.515  11.709
62755W        W28015  27.612  31.589  10.566
62756W        W28016  29.472  22.778  13.363
62757W        W28017  12.387   4.483  14.556
62758W        W28018  11.365  21.758  14.208
62759W        W28019  42.544  23.342  11.001
62760W        W28020  14.683  40.415  11.928
62761W        W28021  15.112  22.600  14.854
62762W        W28022   8.100   0.405  12.554
62763W        W28023  24.313  43.397   0.281
62764W        W28024  36.932  13.376   1.222
62765W        W28025   2.087   8.276  13.052
62766W        W28026   2.624   0.413  14.258
62767W        W28027  33.259  40.662   4.607
62768W        W28028   2.838  28.036   5.036
62769W        W28029   1.729  34.421  11.149
62770W        W28030   4.899  25.132  14.430
62771W        W28031  14.308  33.441  12.524
62772W        W28032  25.911  15.287  12.813
62773W        W28033  33.075  22.974   0.466
62774W        W28034  23.603  19.555   2.755
62775W        W28035   7.758   5.456   2.688
62776W        W28036  41.863  26.422   0.817
62777W        W28037  41.744  12.112  11.796
62778W        W28038  41.117  41.977   1.807
62779W        W28039  24.612  37.533   0.849
62780W        W28040  10.104  22.702  13.017
62781W        W28041  11.194   5.729   0.219
62782W        W28042  42.143  21.983  11.187
62783W        W28043  16.751  10.776  11.435
62784W        W28044  43.878   5.367  12.163
62785W        W28045  11.247   0.721   3.699
62786W        W28046  21.142  44.996  11.846
62787W        W28047  27.776  12.118  10.500
62788W        W28048  26.806  38.136   0.836
62789W        W28049  14.219  35.627   1.701
62790W        W28050   1.382   3.199   5.048
62791W        W28051  41.540  28.719  11.410
62792W        W28052  17.654   0.605   1.947
62793W        W28053  40.018  28.172  13.759
62794W        W28054  26.432  23.724   2.462
62795W        W28055  27.132  38.088   0.379
62796W        W28056   3.433  44.281   3.114
62797W        W28057  43.554  11.561   1.750
62798W        W28058  21.706  12.096   1.035
62799W        W28059  19.910  24.847   2.240
62800W        W28060  43.462  26.670  13.924
62801W        W28061  17.571  34.813  11.827
62802W        W28062  15.704  35.869  11.204
62803W        W28063   9.813  12.723  12.358
62804W        W28064  40.200  26.377   4.339
62805W        W28065  11.870  37.958   1.353
62806W        W28066  12.999  22.337  12.917
62807W        W28067   0.760  38.344   4.619
62808W        W28068  10.423  19.982   9.860
62809W        W28069  35.812  42.258  14.010
62810W        W28070   6.445  14.338  14.963
62811W        W28071  39.103  19.062  11.150
62812W        W28072   2.868   9.198  11.797
62813W        W28073  20.153   3.282   3.365
62814W        W28074  19.921   5.875   3.570
62815W        W28075  29.667  16.158  12.804
62816W        W28076  35.042   8.727  12.049
62817W        W28077  37.876  23.965   0.068
62818W        W28078  39.246  21.155   4.242
62819W        W28079  37.934   3.020   4.700
62820W        W28080  43.767   6.418  13.106
62821W        W28081  21.955  20.620  13.317
62822W        W28082   8.344  27.657  12.623
62823W        W28083  25.269   5.208   1.144
62824W        W28084  30.907   8.165  14.427
62825W        W28085  42.991  24.852  14.275
62826W        W28086  41.855  13.765   0.874
62827W        W28087  38.478  42.880   3.847
62828W        W28088  41.626   8.868  11.560
62829W        W28089   9.817  10.840  13.593
62830W        W28090  32.105  20.469   4.277
62831W        W28091   0.701  10.907   0.739
62832W        W28092  44.463  34.049   0.164
62833W        W28093   9.963  19.057  13.517
62834W        W28094  15.031  11.378   2.814
62835W        W28095  33.818  18.073   0.266
62836W        W28096  15.664   0.304   4.309
62837W        W28097  18.106  43.649  10.492
62838W        W28098  10.329  35.471   3.106
62839W        W28099  20.951  32.432   0.648
62840W        W28100  25.663  44.807   4.154
62841W        W28101  42.507  18.172   0.894
62842W        W28102   1.281  29.750  10.674
62843W        W28103  38.327  33.324  14.929
62844W        W28104  26.780  36.612   5.083
62845W        W28105  42.890  12.941  12.164
62846W        W28106  30.030   1.640  12.456
62847W        W28107  43.359  36.370  14.381
62848W        W28108  38.912   9.849  14.310
62849W        W28109  42.274  43.385  13.159
62850W        W28110  22.728  29.530   2.142
62851W        W28111   4.041   3.040  14.095
62852W        W28112  16.792  11.188   3.616
62853W        W28113  15.020  34.174   0.461
62854W        W28114  33.901  20.600  13.943
62855W        W28115   1.503  10.148  10.217
62856W        W28116   6.424  30.338  14.051
62857W        W28117  23.891  16.600  11.702
62858W        W28118  32.887  21.168   4.423
62859W        W28119  26.061  15.831   0.421
62860W        W28120  14.896  39.434   1.730
62861W        W28121  24.000  36.833   5.086
62862W        W28122   7.868   7.858  13.374
62863W        W28123  22.946  31.328   3.031
62864W        W28124  35.825   6.810  14.859
62865W        W28125  22.254  20.146   1.759
62866W        W28126  20.615  26.194   1.704
62867W        W28127  13.234  35.021   0.128
62868W        W28128  26.477   2.674  14.462
62869W        W28129  22.582  17.476   3.639
62870W        W28130  44.808   4.014  13.462
62871W        W28131  44.891  39.029  14.963
62872W        W28132  38.518  30.035   2.729
62873W        W28133  38.519  35.821   0.403
62874W        W28134  18.980   0.060  10.991
62875W        W28135  26.714  40.965   2.194
62876W        W28136  16.212   5.464  12.763
62877W        W28137  26.161   5.310   0.061
62878W        W28138  13.935  24.059   0.462
62879W        W28139  19.165  14.399  13.498
62880W        W28140   9.697  31.894  13.931
62881W        W28141  23.396  41.421   0.412
62882W        W28142  16.398   8.865  13.563
62883W        W28143   4.434  29.602  11.517
62884W        W28144  26.094  42.901  14.889
62885W        W28145  28.517  13.267  14.004
62886W        W28146  26.703  28.649   4.797
62887W        W28147  15.596   5.423   9.608
62888W        W28148  29.105  14.916   0.245
62889W        W28149  18.492  41.512  13.986
62890W        W28150   6.895  34.522  12.863
62891W        W28151  33.352  20.357  14.514
62892W        W28152  13.294  32.711  11.464
62893W        W28153  40.992   3.648  10.307
62894W        W28154   9.141  22.474   1.320
62895W        W28155  30.079  27.013  13.297
62896W        W28156  44.455  16.476  13.140
62897W        W28157  21.179  44.534   1.657
62898W        W28158  41.870  38.516   2.410
62899W        W28159  30.155  24.423   4.756
62900W        W28160  37.747  40.463   2.804
62901W        W28161  25.898  20.057   3.839
62902W        W28162  17.257  43.662   2.961
62903W        W28163  29.092  31.604   3.876
62904W        W28164  36.533  15.247  14.579
62905W        W28165   1.286  39.867  14.064
62906W        W28166   7.547  14.083   1.952
62907W        W28167   8.615  14.229  11.940
62908W        W28168  29.958  41.345  14.729
62909W        W28169  11.742  20.690   0.343
62910W        W28170  11.102  40.634  13.975
62911W        W28171  18.789  23.873  10.010
62912W        W28172  36.627   7.962  14.455
62913W        W28173  38.003  22.681  10.834
62914W        W28174  37.579  37.885  11.234
62915W        W28175  27.440  39.252   0.529
62916W        W28176   4.614  18.070   2.272
62917W        W28177  16.353  22.286  11.490
62918W        W28178  31.997   3.193  10.910
62919W        W28179  38.664  10.863   2.715
62920W        W28180  29.147  26.227  11.278
62921W        W28181  32.626  20.532  13.569
62922W        W28182  34.729  26.752  10.289
62923W        W28183  36.688   7.418  13.823
62924W        W28184  35.911  21.498  12.072
62925W        W28185  34.367  16.793  11.263
62926W        W28186  38.204  14.496  10.704
62927W        W28187  27.985  18.279   2.769
62928W        W28188   1.899  13.365  12.619
62929W        W28189  32.115  19.648  13.460
62930W        W28190  40.365  21.147   4.069
62931W        W28191  33.631  24.004   1.308
62932W        W28192  11.038  30.311   9.567
62933W        W28193   7.384  38.328  12.025
62934W        W28194  16.346  32.605  14.302
62935W        W28195  31.215  15.539   4.557
62936W        W28196  39.054   9.262  11.914
62937W        W28197   0.264  38.172   3.690
62938W        W28198  41.155  31.651   3.058
62939W        W28199  28.975  14.145  14.056
62940W        W28200  19.154  43.251   0.871
62941W        W28201  14.710  17.196  12.934
62942W        W28202  15.215   2.004   3.129
62943W        W28203   5.821   6.217   3.926
62944W        W28204  24.120  14.893  13.424
62945W        W28205  19.429  26.966   4.582
62946W        W28206  39.314  43.737   1.873
62947W        W28207   7.601  25.856   0.250
62948W        W28208   4.875  34.072  13.056
62949W        W28209  38.389  10.669   4.527
62950W        W28210  26.522   6.342   9.730
62951W        W28211   5.882   3.095   0.671
62952W        W28212   4.189  14.143   2.474
62953W        W28213  40.970   5.177  12.115
62954W        W28214  19.842  21.426  10.877
62955W        W28215  30.618  33.488   2.329
62956W        W28216  16.980  40.375  14.517
62957W        W28217  43.062  20.683  11.147
62958W        W28218  42.466  36.973   3.906
62959W        W28219  44.569  41.994   4.994
62960W        W28220  23.604   5.874   2.719
62961W        W28221  19.625  23.243  12.425
62962W        W28222  10.656  20.138  14.825
62963W        W28223  28.981   1.881   4.365
62964W        W28224  43.810  19.814  11.067
62965W        W28225   9.549  26.992  13.136
62966W        W28226   2.745  27.807  11.961
62967W        W28227  34.504   8.510   0.445
62968W        W28228   1.530  33.835   4.342
62969W        W28229   9.450  15.056  14.942
62970W        W28230  36.900   9.640   2.305
62971W        W28231  24.662  44.724  12.469
62972W        W28232  26.180  38.591   2.888
62973W        W28233  40.055  44.958  12.947
62974W        W28234  27.898  32.695  14.522
62975W        W28235  28.715  36.486   4.765
62976W        W28236  15.719  12.763   1.214
62977W        W28237  32.853  38.778   4.585
62978W        W28238  44.419  29.324  12.056
62979W        W28239  41.990  20.761   0.691
62980W        W28240  10.752  12.544  12.456
62981W        W28241  41.249  19.777  11.915
62982W        W28242  27.143  27.967   4.596
62983W        W28243   4.444  23.020  12.850
62984W        W28244  22.546  18.518  14.515
62985W        W28245  15.649   5.894   9.836
62986W        W28246  36.675   2.388   4.590
62987W        W28247  28.117  17.754  11.176
62988W        W28248  36.972   0.292   4.464
62989W        W28249  41.302  36.439  10.765
62990W        W28250   4.640   0.964   1.242
62991W        W28251   3.501   0.051   4.193
62992W        W28252   1.753  31.533   4.438
62993W        W28253  12.123  34.823   2.714
62994W        W28254  28.140  19.798   1.512
62995W        W28255  37.907  24.678   1.400
62996W        W28256  24.238  42.030  13.974
62997W        W28257   2.711  10.411  12.478
62998W        W28258  39.615   5.886  14.319
62999W        W28259  36.626   4.711  13.596
63000W        W28260  36.627  26.834   3.242
63001W        W28261  21.514  16.691  14.660
63002W        W28262   9.904  30.877   5.111
63003W        W28263  28.006   7.214  13.266
63004W        W28264   3.673   7.475   1.927
63005W        W28265  21.716   4.043  10.268
63006W        W28266   4.030  25.247  12.510
63007W        W28267  29.920  42.071   0.271
63008W        W28268   8.853   5.419  12.498
63009W        W28269   7.480  43.632   3.509
63010W        W28270  22.214   3.274  10.704
63011W        W28271  20.632  14.548  14.328
63012W        W28272  16.729  16.423   1.832
63013W        W28273  26.143  20.273  12.963
63014W        W28274  27.868  32.053   2.122
63015W        W28275  38.784  14.600  10.720
63016W        W28276  42.473  31.543  14.915
63017W        W28277   8.332  35.150   4.463
63018W        W28278   0.969  21.140  14.437
63019W        W28279  34.008  39.058   5.031
63020W        W28280   9.090  13.850   4.293
63021W        W28281  27.983   6.406   1.590
63022W        W28282   2.251  34.005   0.828
63023W        W28283  33.005  15.836  14.436
63024W        W28284  38.094  14.335   4.173
63025W        W28285  29.089   1.706   1.717
63026W        W28286  27.342  39.911  10.955
63027W        W28287  43.055   5.367  10.554
63028W        W28288   4.477  34.177  14.323
63029W        W28289  35.270  12.061  14.518
63030W        W28290  26.547  24.481   1.749
63031W        W28291  10.790  15.620   1.196
63032W        W28292  21.569  15.096   0.683
63033W        W28293  43.119   8.550   3.240
63034W        W28294  32.975  18.343  14.916
63035W        W28295  13.628  18.276   4.177
63036W        W28296  26.525  18.178  14.328
63037W        W28297   6.342   7.508   1.274
63038W        W28298  37.426  15.056  14.765
63039W        W28299  21.070   2.337   0.857
63040W        W28300  26.125  43.452  10.616
63041W        W28301   0.129  29.415   2.671
63042W        W28302  35.926  38.125  10.743
63043W        W28303   7.904  18.155  12.529
63044W        W28304  11.562  21.454   2.191
63045W        W28305  27.061   6.392   4.990
63046W        W28306  43.417  35.922   1.172
63047W        W28307  33.473  39.936  14.715
63048W        W28308   5.448  18.185   0.797
63049W        W28309   3.839  36.577   1.575
63050W        W28310   2.711  12.384  10.746
63051W        W28311  25.027  30.982  14.859
63052W        W28312  18.011  40.580   0.781
63053W        W28313   3.340  10.331   3.701
63054W        W28314   0.733  38.416   0.421
63055W        W28315  23.617  18.465  14.761
63056W        W28316  31.162  10.558   4.821
63057W        W28317  38.233  15.588  11.450
63058W        W28318   3.195  43.093  11.174
63059W        W28319  43.564   9.593  10.113
63060W        W28320   1.601  42.772   2.709
63061W        W28321  34.864  34.476  13.335
63062W        W28322  40.793  44.973   3.776
63063W        W28323  33.588   9.025   1.136
63064W        W28324  31.891  25.787   2.300
63065W        W28325  38.004  36.796   2.869
63066W        W28326   3.656  25.739   3.700
63067W        W28327  14.353  36.382   0.346
63068W        W28328  33.432  44.396   3.644
63069W        W28329  25.272  25.156   0.912
63070W        W28330   6.914  29.308   4.706
63071W        W28331  30.072  28.702  12.123
63072W        W28332  13.936  34.180   2.163
63073W        W28333  22.006  35.537   3.391
63074W        W28334  40.754  26.299  12.850
63075W        W28335  23.307  21.865  11.968
63076W        W28336   0.977  37.167   3.691
63077W        W28337  27.960  24.302   0.267
63078W        W28338  11.998  17.155   4.198
63079W        W28339   8.343  31.536   1.263
63080W        W28340   3.687  27.369  10.800
63081W        W28341   3.750  41.623  12.997
63082W        W28342  35.500  10.516  11.680
63083W        W28343  19.935  29.421   1.826
63084W        W28344  31.847  24.798  13.208
63085W        W28345  12.331  22.984   0.348
63086W        W28346  17.545  13.983   4.184
63087W        W28347   5.193  30.485   4.254
63088W        W28348  28.411   4.012   1.428
63089W        W28349   9.378   8.738  14.846
63090W        W28350  27.993  34.147   3.264
63091W        W28351  31.084  19.073  14.540
63092W        W28352   2.855  28.836  13.033
63093W        W28353  18.029  29.055  14.882
63094W        W28354  19.512  44.099  14.895
63095W        W28355  26.083  17.661   2.962
63096W        W28356  34.509  44.347  12.009
63097W        W28357  34.660  31.488  14.310
63098W        W28358  20.272  15.081   2.391
63099W        W28359  27.156   8.330  10.995
63100W        W28360  21.225  15.427   2.286
63101W        W28361  33.903   3.888  14.561
63102W        W28362  15.694  41.948  14.247
63103W        W28363  42.825  25.036   0.094
63104W        W28364  23.264  35.466   0.412
63105W        W28365   4.617  32.641   4.629
63106W        W28366  33.778  33.583   3.444
63107W        W28367   5.406  17.216   2.232
63108W        W28368  26.663  41.093   0.878
63109W        W28369   1.017  34.731   5.079
63110W        W28370  15.719  11.816   4.139
63111W        W28371  18.473  22.756   0.233
63112W        W28372  34.576  15.719   4.381
63113W        W28373   4.115   7.803   3.122
63114W        W28374  33.404  40.006  10.781
63115W        W28375  34.668  18.090  14.563
63116W        W28376  37.818  19.985   2.800
63117W        W28377  23.744   2.996   1.697
63118W        W28378  15.651  36.044   4.038
63119W        W28379  37.511   9.695  11.927
63120W        W28380   3.260  11.848  14.736
63121W        W28381  18.595  43.091  13.765
63122W        W28382  12.391  42.855   4.156
63123W        W28383  43.198  20.978   2.634
63124W        W28384  18.676  21.396  14.027
63125W        W28385  24.611   6.799   2.945
63126W        W28386  36.590  43.358   4.064
63127W        W28387  35.840   7.468  12.150
63128W        W28388  13.410   2.507   0.520
63129W        W28389  15.231  40.910  11.626
63130W        W28390   0.950   5.392  12.105
63131W        W28391  42.336  38.564   2.880
63132W        W28392  13.978   8.750  12.056
63133W        W28393   9.314  38.807  14.033
63134W        W28394  20.843  41.185  12.539
63135W        W28395  44.865  12.021   2.672
63136W        W28396  39.238  26.984  11.316
63137W        W28397  31.168  33.953   1.229
63138W        W28398  26.392  24.699   3.898
63139W        W28399  43.052  14.811   3.192
63140W        W28400  15.614  22.058   3.174
63141W        W28401  39.458   4.437  13.142
63142W        W28402   9.734  11.599  10.577
63143W        W28403  20.984   9.030   5.042
63144W        W28404  38.267   3.087   0.333
63145W        W28405  40.114  33.148   3.813
63146W        W28406  23.600   7.360  14.061
63147W        W28407   9.887  39.334  10.782
63148W        W28408   4.732  28.633   3.290
63149W        W28409  20.260  31.476  10.538
63150W        W28410   8.789  22.383   5.003
63151W        W28411  14.027  28.430  14.828
63152W        W28412  14.671  15.767   1.352
63153W        W28413   4.291  37.500   4.449
63154W        W28414  26.021   2.191  12.908
63155W        W28415   7.974  16.021   2.051
63156W        W28416   7.998  22.225  14.143
63157W        W28417  32.001  34.843  10.495
63158W        W28418   6.052  42.917  14.487
63159W        W28419  22.623  41.119   0.803
63160W        W28420  37.764  25.726   1.815
63161W        W28421  26.791   6.726  13.822
63162W        W28422  25.341  27.575  13.258
63163W        W28423  11.928   7.590  14.532
63164W        W28424  22.240   1.019   1.128
63165W        W28425  25.970  26.960   3.745
63166W        W28426  22.865  43.356   3.219
63167W        W28427  28.961  38.000   4.780
63168W        W28428  39.293  41.064   1.274
63169W        W28429  40.314  19.599   2.263
63170W        W28430  37.497  16.549  10.715
63171W        W28431  38.015   0.386  11.854
63172W        W28432   0.013  12.272  13.042
63173W        W28433  42.428  20.258   3.887
63174W        W28434   4.209  39.295  11.264
63175W        W28435  22.428   3.771  11.852
63176W        W28436  13.144   1.205   4.627
63177W        W28437  39.240  15.738   4.134
63178W        W28438   8.351  10.762   1.270
63179W        W28439  43.913  10.700   0.574
63180W        W28440  28.483  44.784   2.772
63181W        W28441  35.118  12.176   4.396
63182W        W28442   9.149   6.995  11.084
63183W        W28443  26.964   8.752  12.420
63184W        W28444  40.278   3.153  12.789
63185W        W28445  33.813  12.701   1.921
63186W        W28446  41.794  35.491  14.796
63187W        W28447  29.524  15.722  13.036
63188W        W28448  29.049  39.951  14.306
63189W        W28449  14.572  25.140  12.108
63190W        W28450  34.393   1.399  12.976
63191W        W28451  11.646  28.142   0.432
63192W        W28452  22.661   8.898  12.934
63193W        W28453  15.577   9.631  12.041
63194W        W28454  34.444  24.656  11.545
63195W        W28455   9.272  34.858   2.634
63196W        W28456  43.680   1.207  13.631
63197W        W28457  30.683   1.130   4.207
63198W        W28458  33.377  29.027  11.499
63199W        W28459  13.198  17.043  13.037
63200W        W28460  29.422  21.937   4.153
63201W        W28461  33.502  34.996   0.243
63202W        W28462   1.224  42.026  11.140
63203W        W28463   5.723  13.657   1.690
63204W        W28464  25.276  39.103   4.268
63205W        W28465  10.752  21.808  12.401
63206W        W28466   3.292  31.891  13.823
63207W        W28467  31.698  18.854  14.043
63208W        W28468  35.964  19.133   0.295
63209W        W28469  28.256  24.571   3.671
63210W        W28470   2.721  34.090  10.344
63211W        W28471  42.878  30.040  10.593
63212W        W28472  26.776  16.042   3.324
63213W        W28473   6.856  24.654   1.659
63214W        W28474  37.402   3.181   1.878
63215W        W28475  24.249  39.628   4.054
63216W        W28476  24.030  35.508   3.058
63217W        W28477   5.123  39.391  11.207
63218W        W28478  44.811  35.423  14.841
63219W        W28479   2.000  13.799   0.366
63220W        W28480  30.122  29.353  13.924
63221W        W28481  36.123   8.365   3.043
63222W        W28482  22.215   8.665  11.577
63223W        W28483  36.473  32.671   4.548
63224W        W28484   3.944  25.438   0.338
63225W        W28485   8.423   1.415   2.158
63226W        W28486  35.049   7.419  12.150
63227W        W28487  29.040  28.433  12.546
63228W        W28488   8.090   9.482  12.955
63229W        W28489   6.789  11.933  13.505
63230W        W28490  33.783  14.664  12.341
63231W        W28491   2.767  43.703  11.953
63232W        W28492  24.051  38.573   2.350
63233W        W28493  12.314  15.682   1.371
63234W        W28494  19.635  41.115  10.547
63235W        W28495   5.096   0.726   3.557
63236W        W28496   8.204  30.193  14.295
63237W        W28497  26.575   2.514  10.027
63238W        W28498  42.567  25.409   4.188
63239W        W28499   5.863  25.222  12.100
63240W        W28500  28.453  16.874   3.043
63241W        W28501  15.782  29.174   0.034
63242W        W28502  36.627  10.354  11.112
63243W        W28503  39.110  29.611   2.408
63244W        W28504  24.726  36.985  13.473
63245W        W28505  21.041  37.889   3.759
63246W        W28506  36.683  38.410  13.483
63247W        W28507  33.042   7.782   1.124
63248W        W28508  35.836   4.803   2.306
63249W        W28509   0.094  33.087   3.248
63250W        W28510  29.647  38.060  14.442
63251W        W28511  43.487  38.847   0.869
63252W        W28512  29.703  17.335  12.867
63253W        W28513  19.259  14.533   4.546
63254W        W28514  15.249  23.573   3.636
63255W        W28515  15.739  18.241   3.186
63256W        W28516   0.914  29.201   0.892
63257W        W28517  39.589   8.252   2.837
63258W        W28518  30.920  40.771  13.488
63259W        W28519  43.617   6.934   1.686
63260W        W28520  16.150  33.970   3.573
63261W        W28521  35.763   6.648   0.894
63262W        W28522  32.885   7.608   3.325
63263W        W28523  44.413  16.035  13.394
63264W        W28524  33.213   3.513  11.997
63265W        W28525  30.760  26.208  12.510
63266W        W28526  16.969  44.005  10.441
63267W        W28527   1.264  41.484  11.097
63268W        W28528  26.248  21.548   0.046
63269W        W28529   4.712  27.681  13.466
63270W        W28530  29.653  40.439   4.025
63271W        W28531  34.919  20.161  10.623
63272W        W28532  43.568  25.568  13.444
63273W        W28533  12.142   8.438   3.856
63274W        W28534  36.106  17.075  11.100
63275W        W28535  32.633  32.290  10.611
63276W        W28536  33.525  21.327  12.878
63277W        W28537  15.679  20.479   0.471
63278W        W28538   7.872  10.845  12.478
63279W        W28539  32.706  27.741  13.920
63280W        W28540  43.899   9.141   2.829
63281W        W28541  16.879  20.352  12.609
63282W        W28542  25.801  25.915   2.876
63283W        W28543  23.563  31.089  10.792
63284W        W28544  44.051  40.818  14.977
63285W        W28545  31.858  31.712   4.057
63286W        W28546  44.529  30.076  14.816
63287W        W28547  24.905  41.172  13.843
63288W        W28548  29.923  17.813  10.737
63289W        W28549  32.609  33.620   4.473
63290W        W28550  27.968  36.964  13.401
63291W        W28551  31.404  35.098  13.963
63292W        W28552   9.611  10.304  12.459
63293W        W28553  37.806   2.452   5.573
63294W        W28554  32.227  32.958   1.817
63295W        W28555   0.557  16.994   4.356
63296W        W28556  12.488   3.098  11.270
63297W        W28557  16.065  28.199   4.596
63298W        W28558  19.667   5.804   3.125
63299W        W28559  30.631  14.855   1.406
63300W        W28560  18.219  25.549  12.784
63301W        W28561   0.784  34.305  11.148
63302W        W28562  14.059  12.824   4.737
63303W        W28563  11.626  44.802  12.430
63304W        W28564  13.838  38.856   1.311
63305W        W28565  34.502  11.353  13.481
63306W        W28566  18.847  29.386  14.881
63307W        W28567   4.168  33.850  12.469
63308W        W28568  15.982  29.550  13.786
63309W        W28569   3.203  38.957   3.377
63310W        W28570   2.929  34.120   3.553
63311W        W28571  25.758  24.583   2.181
63312W        W28572  19.057   8.145   2.000
63313W        W28573  14.786   6.651   3.249
63314W        W28574  17.268  14.038   0.837
63315W        W28575  41.506   9.382   4.052
63316W        W28576  15.868  33.068  11.165
63317W        W28577  37.354   4.157   4.106
63318W        W28578  15.347  15.193  12.162
63319W        W28579  21.547  30.603   4.493
63320W        W28580  13.602  40.522  13.492
63321W        W28581  40.405  42.085   3.269
63322W        W28582   6.451  32.612  13.597
63323W        W28583  16.282   6.789   0.996
63324W        W28584   8.221  16.198  12.087
63325W        W28585  23.499   1.322  10.737
63326W        W28586  23.932   9.750  11.454
63327W        W28587  39.846  31.522  12.555
63328W        W28588  16.973  28.621   1.178
63329W        W28589  19.591  25.533  10.616
63330W        W28590  40.951  26.525   1.002
63331W        W28591  25.081  14.312   2.923
63332W        W28592  30.672  43.834   4.676
63333W        W28593  17.556  31.521  10.930
63334W        W28594  34.907  31.042  14.871
63335W        W28595  32.515  14.903  12.178
63336W        W28596   2.202  33.365  13.977
63337W        W28597  15.819  37.547  10.737
63338W        W28598  17.567  40.977  10.652
63339W        W28599  26.178  29.652  13.661
63340W        W28600  18.344  13.366   0.445
63341W        W28601  23.635  24.659  10.493
63342W        W28602  12.247  23.152  11.631
63343W        W28603  43.211  44.761  11.707
63344W        W28604  11.380  38.101  11.197
63345W        W28605  44.525  35.089   2.506
63346W        W28606  42.301  33.108  13.667
63347W        W28607  32.318  37.586   1.271
63348W        W28608  36.392   8.769   4.693
63349W        W28609  12.707  32.399   1.791
63350W        W28610  25.646  43.640   2.809
63351W        W28611   9.494  43.864   3.352
63352W        W28612  32.490  14.847   3.638
63353W        W28613   2.884  33.197   0.836
63354W        W28614  31.020  27.676  11.531
63355W        W28615  43.546  33.113  14.802
63356W        W28616  19.581  33.074  14.174
63357W        W28617  35.264   2.003   3.675
63358W        W28618  26.844  14.107   1.826
63359W        W28619  29.428  41.410   2.345
63360W        W28620  33.666  35.949   3.450
63361W        W28621  38.470  37.654   0.351
63362W        W28622   4.156  10.710   2.644
63363W        W28623  30.596  25.169   2.634
63364W        W28624  19.084   0.991   4.467
63365W        W28625   4.445  14.041  13.735
63366W        W28626   8.254   9.891   3.703
63367W        W28627  19.711  36.872  13.940
63368W        W28628   7.699   2.761  11.809
63369W        W28629  28.663  18.801   0.829
63370W        W28630  17.270   7.172   3.750
63371W        W28631   6.331   3.705   2.099
63372W        W28632  12.794  23.840   3.153
63373W        W28633  41.813  29.978  10.612
63374W        W28634  39.478  41.918   4.398
63375W        W28635  21.417   8.247  14.005
63376W        W28636  23.165  40.556  12.458
63377W        W28637  12.582  32.498  13.447
63378W        W28638   6.275  14.943   2.307
63379W        W28639  15.786  12.335  11.971
63380W        W28640   1.873  21.710   2.850
63381W        W28641  42.944  44.982   3.397
63382W        W28642  20.769  13.578   2.790
63383W        W28643  35.288  26.250   9.815
63384W        W28644  34.839  44.325  14.315
63385W        W28645   3.946  14.004   4.250
63386W        W28646  43.007  27.785   2.232
63387W        W28647  28.273  42.962  14.395
63388W        W28648   0.737  16.258  14.031
63389W        W28649  35.188  30.568   4.091
63390W        W28650   5.722  41.012   0.813
63391W        W28651  18.315  15.700  12.066
63392W        W28652  14.044  33.540   3.253
63393W        W28653  35.367   0.541   3.658
63394W        W28654   7.012  38.913   4.061
63395W        W28655  12.331  34.859  13.647
63396W        W28656  32.035  13.593  13.057
63397W        W28657  19.114  10.823   0.310
63398W        W28658  11.711  38.850   2.723
63399W        W28659  33.634  44.119   3.268
63400W        W28660   9.747  11.447  11.061
63401W        W28661  14.047   9.314  12.921
63402W        W28662   3.989  27.491  14.439
63403W        W28663  26.101  22.887  13.400
63404W        W28664  43.299  26.007  13.518
63405W        W28665  43.984  21.597   1.265
63406W        W28666  26.205  14.377  10.772
63407W        W28667  29.184  44.396  14.734
63408W        W28668  26.557  37.808   3.303
63409W        W28669  28.298  42.955  12.444
63410W        W28670  24.135  38.236   1.734
63411W        W28671   6.710   5.451   2.334
63412W        W28672  34.915  43.846  14.554
63413W        W28673  10.091  39.827   2.865
63414W        W28674   0.570   1.194   4.197
63415W        W28675  12.479  19.330   0.340
63416W        W28676  25.950  29.827  10.617
63417W        W28677   6.312  27.686   2.360
63418W        W28678   0.830  22.276   1.675
63419W        W28679  28.928   7.164   2.783
63420W        W28680   4.102   1.341   4.731
63421W        W28681  12.403  21.748  12.539
63422W        W28682   7.776  35.762  11.122
63423W        W28683  28.828  14.033   3.222
63424W        W28684  21.366  14.482   2.148
63425W        W28685  18.085  25.131   0.248
63426W        W28686  33.239  40.852  13.693
63427W        W28687  12.534  38.521  11.571
63428W        W28688   1.786  43.987  11.699
63429W        W28689  37.073  37.787   0.325
63430W        W28690  14.663  21.452  13.924
63431W        W28691  40.551   4.022   4.960
63432W        W28692   0.732  40.797  13.050
63433W        W28693  43.539   9.493  10.617
63434W        W28694  29.724   1.265  11.521
63435W        W28695  30.680  36.826   2.747
63436W        W28696   7.271  12.192   3.253
63437W        W28697  14.596  36.338  12.860
63438W        W28698   6.597  28.139  13.595
63439W        W28699  34.846   4.962  11.963
63440W        W28700   7.209  26.532  11.374
63441W        W28701  37.937  18.557  14.769
63442W        W28702  14.068   8.655   4.612
63443W        W28703  29.151  31.186   2.211
63444W        W28704  16.680  27.843   1.519
63445W        W28705  24.639  39.511   3.714
63446W        W28706   4.064  22.554   4.286
63447W        W28707  40.410  32.625   3.159
63448W        W28708  20.079  12.871  11.920
63449W        W28709  26.478  43.830   1.439
63450W        W28710  18.252  21.982   5.465
63451W        W28711  24.593  15.813   3.763
63452W        W28712  41.942   6.183  11.120
63453W        W28713   4.494  26.075   3.223
63454W        W28714  31.665   8.577   1.468
63455W        W28715  19.975  28.920   3.934
63456W        W28716  12.173  24.203  12.528
63457W        W28717  29.821  21.526   4.225
63458W        W28718  10.480  43.113  13.400
63459W        W28719  13.848  44.348  13.417
63460W        W28720  40.861  39.065   9.956
63461W        W28721  32.586  31.077  11.074
63462W        W28722   5.869   1.411   2.129
63463W        W28723   0.834  16.143   1.691
63464W        W28724   4.717   2.372  12.501
63465W        W28725  10.412   2.656  11.187
63466W        W28726  35.946  17.616   3.486
63467W        W28727  11.481  28.147  14.801
63468W        W28728  14.239  31.588  12.862
63469W        W28729  43.726  40.332   2.884
63470W        W28730  40.734  31.419  10.773
63471W        W28731   5.809  27.421   3.944
63472W        W28732  34.183   9.464  12.889
63473W        W28733  30.565  15.742  10.606
63474W        W28734  37.600  43.339   1.015
63475W        W28735  19.325  41.860  11.627
63476W        W28736  14.772  38.273  12.489
63477W        W28737  10.137  17.827  10.742
63478W        W28738   9.891  24.039   1.382
63479W        W28739   9.236   7.389   1.345
63480W        W28740  16.053  37.691   3.653
63481W        W28741  22.623  10.362   2.831
63482W        W28742  34.074  44.776  10.732
63483W        W28743   1.084   0.808   2.667
63484W        W28744  12.009  41.365  12.931
63485W        W28745   2.768  16.706  11.268
63486W        W28746  11.611   1.580   2.604
63487W        W28747  11.768  21.234   2.730
63488W        W28748  15.970  14.898  11.666
63489W        W28749  19.763   7.792   1.097
63490W        W28750  39.431  26.516  14.968
63491W        W28751  25.083  27.962   1.442
63492W        W28752  25.471  11.383  12.108
63493W        W28753  25.927  37.667   2.312
63494W        W28754   3.777   0.347   4.527
63495W        W28755  28.653  30.472  14.472
63496W        W28756  40.761  24.197  11.928
63497W        W28757  17.640  15.274  13.962
63498W        W28758   6.764  30.091   1.775
63499W        W28759  40.546  42.906  13.802
63500W        W28760   3.800  26.898   1.673
63501W        W28761   7.714  39.967  12.906
63502W        W28762  35.822  25.733   2.832
63503W        W28763  27.860   2.514  12.998
63504W        W28764  30.083  13.953  13.471
63505W        W28765  16.086  29.299  11.564
63506W        W28766  38.894   6.445   1.778
63507W        W28767  39.545  32.179  11.585
63508W        W28768  13.081  27.458  12.925
63509W        W28769  28.515   2.845   2.112
63510W        W28770  23.263  34.440  11.576
63511W        W28771  25.756   7.390  14.532
63512W        W28772  41.245  41.847  13.245
63513W        W28773  30.047  17.073   1.982
63514W        W28774  12.560   3.607  11.173
63515W        W28775   0.798   2.516   1.849
63516W        W28776  44.607   2.941   3.250
63517W        W28777  34.510   5.236   4.513
63518W        W28778  34.457   6.220   4.585
63519W        W28779  29.511  33.436  14.805
63520W        W28780  40.192  36.946   1.780
63521W        W28781  25.951  39.271  13.464
63522W        W28782  32.575  32.636  14.832
63523W        W28783  22.174   0.399   2.214
63524W        W28784  42.914   0.417   4.827
63525W        W28785  35.136  31.057  12.624
63526W        W28786  20.304  42.401   0.777
63527W        W28787  29.660  37.962   0.220
63528W        W28788  26.675   8.862  12.991
63529W        W28789  35.566   8.444   4.517
63530W        W28790  18.713   4.842  13.706
63531W        W28791  24.585  22.640  14.916
63532W        W28792   5.821  18.744   1.424
63533W        W28793  39.326  34.968  10.812
63534W        W28794   4.686  40.489   0.204
63535W        W28795  20.752  43.717  13.082
63536W        W28796  33.260   9.182   2.054
63537W        W28797  21.618  18.591  14.484
63538W        W28798  24.022  13.183  14.959
63539W        W28799  13.859  42.265  11.099
63540W        W28800   5.718  41.524  14.014
63541W        W28801  27.765   0.413   0.330
63542W        W28802  16.303  14.518   4.471
63543W        W28803  19.634  42.944  11.931
63544W        W28804  12.632   4.378   1.866
63545W        W28805  40.008  28.613  14.942
63546W        W28806   9.312  37.969  13.215
63547W        W28807   7.175  26.449   1.941
63548W        W28808  32.781  20.721   3.398
63549W        W28809  32.020  24.249  14.428
63550W        W28810  21.320  35.361   2.857
63551W        W28811   3.930  10.623   4.362
63552W        W28812  16.181  23.120   4.223
63553W        W28813  35.519   1.052  12.912
63554W        W28814  21.636  12.312   0.580
63555W        W28815  33.044   2.073  14.520
63556W        W28816  43.223   4.457   0.364
63557W        W28817  21.799  21.757  10.787
63558W        W28818  39.893  21.460   0.956
63559W        W28819  37.014   2.207   2.293
63560W        W28820  43.338  10.917  13.035
63561W        W28821   5.034   0.480  14.201
63562W        W28822  41.372  29.165  13.755
63563W        W28823  21.100   9.300   4.636
63564W        W28824  13.336  20.160   4.628
63565W        W28825  25.254  37.189  10.583
63566W        W28826   3.271  36.076  11.747
63567W        W28827  20.229   5.926   0.377
63568W        W28828  37.313  16.763  13.917
63569W        W28829  30.631  35.621   1.593
63570W        W28830  15.243  39.431  12.944
63571W        W28831  38.587  30.155  12.066
63572W        W28832   7.973   2.353  13.297
63573W        W28833  15.427  27.835   3.673
63574W        W28834  43.438  14.835  14.702
63575W        W28835  11.606  39.088   0.995
63576W        W28836  10.479  34.462   4.054
63577W        W28837  30.157   2.362   0.992
63578W        W28838  14.752  12.645  11.066
63579W        W28839   3.091  24.411   5.441
63580W        W28840  19.076  26.679  14.573
63581W        W28841   9.195   2.362   1.701
63582W        W28842  40.401  30.460  14.918
63583W        W28843   5.173   0.098  12.105
63584W        W28844  26.588  33.020  10.843
63585W        W28845   2.496  35.693  11.189
63586W        W28846   0.986  33.620   4.034
63587W        W28847  15.680  14.990  12.961
63588W        W28848  20.715  18.057  10.685
63589W        W28849  37.504  13.067   2.425
63590W        W28850   4.829  25.214   3.726
63591W        W28851   0.738  37.085  14.875
63592W        W28852   6.845  37.460   2.105
63593W        W28853  41.216  29.478  10.930
63594W        W28854   9.596  32.584   4.679
63595W        W28855  40.280  36.697   3.262
63596W        W28856  34.552   3.165   2.872
63597W        W28857   0.266  43.396   3.851
63598W        W28858  16.032  43.286  12.416
63599W        W28859   0.680  35.159   3.197
63600W        W28860  33.421  24.736   1.774
63601W        W28861  18.117  23.033   1.472
63602W        W28862  20.100  19.569   1.913
63603W        W28863   0.442  22.738   2.847
63604W        W28864  19.391  16.908   0.009
63605W        W28865  16.074  31.712  13.364
63606W        W28866   2.525  12.556  14.297
63607W        W28867   1.939  30.888  12.534
63608W        W28868  17.762  26.426  12.363
63609W        W28869  30.778   8.039  11.405
63610W        W28870  31.883   1.827  10.131
63611W        W28871  21.667   4.261  14.374
63612W        W28872   7.661   8.860  14.868
63613W        W28873   3.869  13.270   1.180
63614W        W28874   7.000   6.750   2.089
63615W        W28875  42.022  23.817   4.617
63616W        W28876   7.252  23.922   4.488
63617W        W28877  14.243  42.934  10.800
63618W        W28878  41.035  13.698   1.386
63619W        W28879  32.302  23.165   4.507
63620W        W28880  40.755  27.195   4.551
63621W        W28881  17.244   8.922  13.971
63622W        W28882   7.844  13.066   3.153
63623W        W28883  34.329   1.693  10.722
63624W        W28884   3.232  29.252   1.903
63625W        W28885  32.475  26.398   4.461
63626W        W28886   4.180   6.122  11.995
63627W        W28887  26.198  37.394   0.868
63628W        W28888  38.480  14.591  11.552
63629W        W28889  14.599  26.864   0.906
63630W        W28890  25.067   2.282   3.449
63631W        W28891  44.522  38.888   2.992
63632W        W28892   0.381  39.827  10.715
63633W        W28893   1.454  27.976  10.252
63634W        W28894   3.846  29.851   2.014
63635W        W28895   0.393  14.537   3.653
63636W        W28896  35.895  44.997   2.376
63637W        W28897  36.031  44.549   4.188
63638W        W28898  31.510  11.399   1.384
63639W        W28899  36.435  39.217   1.886
63640W        W28900  41.371  15.713  12.527
63641W        W28901  40.679  13.648  13.044
63642W        W28902  11.213  43.362   1.243
63643W        W28903  28.122  29.940   4.176
63644W        W28904  14.581  18.465  11.507
63645W        W28905  15.756   8.634   0.855
63646W        W28906  32.900  12.671  13.942
63647W        W28907  12.881  30.160   0.838
63648W        W28908  30.697  21.718  14.964
63649W        W28909   9.756  32.108   1.325
63650W        W28910  10.280  10.937  10.478
63651W        W28911  42.444  29.160   1.193
63652W        W28912  27.162  37.437  13.023
63653W        W28913   6.442  37.304  12.360
63654W        W28914  10.643   6.571   2.706
63655W        W28915  27.851  21.050   4.504
63656W        W28916  40.808   5.573  11.188
63657W        W28917  20.048  36.369   2.241
63658W        W28918  31.679  15.171  10.705
63659W        W28919  31.340  15.590   2.660
63660W        W28920  24.557  15.256   3.720
63661W        W28921  17.127  23.647  10.679
63662W        W28922  21.486  36.568   0.585
63663W        W28923  11.205  34.370  10.971
63664W        W28924  32.779  15.204   3.404
63665W        W28925  33.384  32.093   4.558
63666W        W28926  28.965  40.521   1.854
63667W        W28927  24.154  18.167   0.413
63668W        W28928  41.854  42.028  10.803
63669W        W28929  16.963  38.534   0.823
63670W        W28930   3.347  21.749   1.331
63671W        W28931  31.304  44.405   2.709
63672W        W28932   6.813  36.468   0.825
63673W        W28933  29.212   1.307  10.701
63674W        W28934   9.362  28.887  14.862
63675W        W28935   3.321  27.821  10.747
63676W        W28936  23.720  17.480  14.990
63677W        W28937  25.749  24.979   3.339
63678W        W28938   0.775   8.651   3.660
63679W        W28939   6.429   0.728   4.545
63680W        W28940  13.545  26.181   2.470
63681W        W28941  13.754   9.100  13.626
63682W        W28942  19.096  18.011   3.865
63683W        W28943  43.736   0.422   2.642
63684W        W28944  28.313  16.735   4.877
63685W        W28945   6.351  15.328  12.984
63686W        W28946   6.898   8.645  11.227
63687W        W28947  36.816   6.292  12.072
63688W        W28948  17.983  32.729   1.500
63689W        W28949  23.225  27.853  13.280
63690W        W28950  37.041  30.378  10.786
63691W        W28951  37.524  30.945   1.353
63692W        W28952  38.614  32.167   4.472
63693W        W28953  27.589   7.470  13.799
63694W        W28954  26.652  36.570  11.389
63695W        W28955   0.277   3.989  13.707
63696W        W28956  24.143   4.674   2.602
63697W        W28957  29.206  37.518  12.987
63698W        W28958  35.189  22.714   5.064
63699W        W28959  19.871  13.876   2.889
63700W        W28960  39.955  28.148   0.711
63701W        W28961  25.530  38.435   0.409
63702W        W28962  14.580  24.192  11.137
63703W        W28963  30.511  33.443   3.804
63704W        W28964   4.251   7.477  14.737
63705W        W28965  21.085  39.825  14.451
63706W        W28966  25.485  24.070  12.877
63707W        W28967  36.892   7.234   0.449
63708W        W28968  13.563  38.684  10.370
63709W        W28969   8.048  28.181  12.622
63710W        W28970  24.569  44.989  13.526
63711W        W28971  32.154  37.401  14.720
63712W        W28972  17.782  39.921   1.863
63713W        W28973   2.786  42.201   4.099
63714W        W28974  13.710  37.867  11.188
63715W        W28975  14.313  26.702  13.105
63716W        W28976  11.743  19.026   1.826
63717W        W28977  40.260  42.993   1.948
63718W        W28978  18.826  38.913  10.681
63719W        W28979   2.715  19.749  13.416
63720W        W28980  33.442  15.662  12.902
63721W        W28981  24.584  28.026   1.244
63722W        W28982  12.721  30.893  14.414
63723W        W28983  21.703   7.480  13.365
63724W        W28984  35.152  11.025   0.957
63725W        W28985  36.071  19.992  14.904
63726W        W28986  11.188   1.271   2.620
63727W        W28987  20.991  12.185  12.485
63728W        W28988  22.218  30.548   0.831
63729W        W28989  12.103  10.907  14.226
63730W        W28990  29.153   4.224  14.343
63731W        W28991  37.429  33.677  10.820
63732W        W28992  23.574  29.946  13.945
63733W        W28993   8.750  29.367   0.983
63734W        W28994   3.227  31.961   1.640
63735W        W28995  15.963   1.975  10.454
63736W        W28996  11.886   4.469  10.401
63737W        W28997  44.218  26.601   1.836
63738W        W28998  19.431   1.052   4.965
63739W        W28999  26.435  30.599  13.790
63740W        W29000  40.899   7.763  12.649
63741W        W29001   7.283   4.393  13.051
63742W        W29002  43.886  35.027   1.132
63743W        W29003  34.692  21.652  14.038
63744W        W29004  14.060   7.939  13.690
63745W        W29005  31.679  11.197  10.548
63746W        W29006   1.527  42.012   2.195
63747W        W29007  33.515  27.613   0.754
63748W        W29008  21.638  19.514  13.364
63749W        W29009  44.434  33.379   4.616
63750W        W29010  18.295  44.989   2.703
63751W        W29011   2.775  14.857   3.950
63752W        W29012  36.750  42.024   4.231
63753W        W29013  44.803  37.039   3.166
63754W        W29014  21.121  36.360   2.921
63755W        W29015   9.142  32.269   3.398
63756W        W29016  44.804  23.704   3.487
63757W        W29017  40.252  40.786  12.424
63758W        W29018  20.148  32.021   5.173
63759W        W29019   5.228  12.386  13.906
63760W        W29020  12.548  14.359  14.316
63761W        W29021  33.475  11.431   2.289
63762W        W29022  11.207  29.082   3.725
63763W        W29023  39.553  41.941  11.101
63764W        W29024   4.321  16.132   2.587
63765W        W29025   8.411  18.942   0.037
63766W        W29026  35.544  42.128  11.849
63767W        W29027  32.155   1.286  12.472
63768W        W29028  34.369  10.556  14.356
63769W        W29029  21.391  11.315   0.311
63770W        W29030  30.862  44.033  12.161
63771W        W29031  37.369  40.369   1.880
63772W        W29032  25.497  24.592   2.640
63773W        W29033   4.212   0.261  11.062
63774W        W29034  11.350   7.459  14.527
63775W        W29035  19.814   4.852  14.725
63776W        W29036  43.201   7.630  11.901
63777W        W29037   8.836  24.108   2.814
63778W        W29038  14.360   0.514  12.110
63779W        W29039  22.238  27.113  14.958
63780W        W29040   7.854  10.647  13.462
63781W        W29041  43.798  36.989  14.919
63782W        W29042  27.069  32.434   3.849
63783W        W29043  21.425  29.125  12.433
63784W        W29044  24.082   3.138   4.074
63785W        W29045   7.599  26.150  12.648
63786W        W29046  42.795  17.118   1.716
63787W        W29047  44.543  32.942   2.447
63788W        W29048   8.898  38.498  14.025
63789W        W29049  13.780  41.743   1.225
63790W        W29050  14.818  23.254   4.169
63791W        W29051  16.348  32.866  13.862
63792W        W29052  25.577  21.016   3.703
63793W        W29053  41.569  10.511   4.143
63794W        W29054   6.218  32.878   3.625
63795W        W29055  22.660  39.620   3.273
63796W        W29056  21.763  24.689   3.730
63797W        W29057  38.854   1.429  13.954
63798W        W29058  37.359  36.942   4.321
63799W        W29059  28.140   0.459   0.933
63800W        W29060  36.940  16.847  11.397
63801W        W29061  30.928  23.778  11.281
63802W        W29062  20.884  32.936   1.311
63803W        W29063  17.745  12.728   0.798
63804W        W29064  10.674  28.146  12.387
63805W        W29065  21.526   7.068   4.213
63806W        W29066  11.337  19.920  10.999
63807W        W29067  39.578  44.433   0.933
63808W        W29068  40.063  28.898   1.287
63809W        W29069  21.763   5.115  12.767
63810W        W29070   1.705  10.903   0.477
63811W        W29071  28.672  31.430   1.438
63812W        W29072   3.288   5.509   3.573
63813W        W29073  36.949   7.736   4.649
63814W        W29074  27.636  42.052   0.915
63815W        W29075  31.080  17.583   4.513
63816W        W29076   7.194  36.558   4.228
63817W        W29077   7.668  13.130   4.050
63818W        W29078  39.641  14.386   2.232
63819W        W29079  16.170  23.594   2.133
63820W        W29080  33.366  44.029  13.348
63821W        W29081  17.218  13.630   2.380
63822W        W29082  27.649  39.535  13.006
63823W        W29083  34.998   0.906  12.556
63824W        W29084   0.617  22.533  12.480
63825W        W29085  11.166   7.209   1.263
63826W        W29086  41.271   7.866  11.094
63827W        W29087  43.434  21.527  11.448
63828W        W29088  36.601   0.880   3.320
63829W        W29089   1.699  27.122  13.066
63830W        W29090  44.007  20.493  13.946
63831W        W29091  12.405  38.579  14.934
63832W        W29092   7.570  17.701   2.022
63833W        W29093   5.810  35.174   3.793
63834W        W29094  34.586  41.006  12.072
63835W        W29095  20.052   0.788   0.409
63836W        W29096  41.736   8.055  11.194
63837W        W29097  42.793  30.331   4.257
63838W        W29098  31.180  17.949   0.291
63839W        W29099   1.253  21.317  13.883
63840W        W29100  21.486  22.263  13.013
63841W        W29101  11.631  42.371  14.950
63842W        W29102   6.223  43.850   3.735
63843W        W29103  25.366  17.903   4.075
63844W        W29104  39.099  37.184   4.635
63845W        W29105  26.746  35.559  10.757
63846W        W29106   6.372  40.557   4.626
63847W        W29107   8.263  37.513   2.247
63848W        W29108  33.610  41.415   3.562
63849W        W29109  11.348  41.909  14.907
63850W        W29110   4.429   3.417   4.579
63851W        W29111  39.787  39.580  10.752
63852W        W29112   6.116   3.227   1.927
63853W        W29113  37.054  15.351   4.165
63854W        W29114   8.072  30.660   1.511
63855W        W29115   3.910  22.109   0.234
63856W        W29116  35.967  32.847   3.277
63857W        W29117  33.711  33.584   0.366
63858W        W29118  22.932  30.893   1.752
63859W        W29119  20.883  21.004  11.642
63860W        W29120  25.171   8.273  12.546
63861W        W29121  42.481  21.060  13.459
63862W        W29122  27.484  10.184  13.061
63863W        W29123  23.173   4.131  14.726
63864W        W29124  26.451   0.323  11.477
63865W        W29125  36.030  31.989   3.185
63866W        W29126  15.334  35.564  12.033
63867W        W29127  15.602  24.768  12.889
63868W        W29128   9.093  24.393   4.530
63869W        W29129  10.699  33.984  11.625
63870W        W29130   0.800   7.654   0.467
63871W        W29131  43.143  11.092  14.002
63872W        W29132  20.823  18.269  13.508
63873W        W29133   7.690  25.902   4.056
63874W        W29134   1.939  16.739  13.100
63875W        W29135  14.791  22.989  11.486
63876W        W29136  14.792  23.997  11.569
63877W        W29137  35.611   7.181   0.830
63878W        W29138   8.255   2.343  14.168
63879W        W29139  22.672  18.050  12.375
63880W        W29140  33.850   5.076   2.306
63881W        W29141  35.534  23.218   1.567
63882W        W29142  27.012  37.567  12.510
63883W        W29143  31.008  19.153   0.052
63884W        W29144   3.712  15.623   3.570
63885W        W29145  41.491   9.341  14.866
63886W        W29146  15.257  39.155  12.520
63887W        W29147  18.152  13.825   4.641
63888W        W29148   9.877  36.493  12.681
63889W        W29149   0.021  38.006   3.269
63890W        W29150   9.110  19.658  11.645
63891W        W29151  26.035  33.359   2.256
63892W        W29152  22.198   1.772   0.766
63893W        W29153  22.987   6.866   0.262
63894W        W29154  27.219  13.895   3.698
63895W        W29155  14.371  20.109   4.032
63896W        W29156  21.995  43.298  11.040
63897W        W29157  33.514  19.532   3.268
63898W        W29158   6.242   7.158   1.673
63899W        W29159  30.386  15.592  11.063
63900W        W29160  29.863  11.150  14.912
63901W        W29161  30.918   8.376  12.369
63902W        W29162  11.171  14.085  14.536
63903W        W29163  14.186  42.349   1.138
63904W        W29164  29.132  36.463   1.460
63905W        W29165  38.098  10.338   2.172
63906W        W29166  21.814  21.679   9.783
63907W        W29167  33.846  13.020  12.847
63908W        W29168   2.350  23.250   3.171
63909W        W29169  37.000  32.230   5.103
63910W        W29170   0.139  18.729   2.281
63911W        W29171   9.433  33.600   4.364
63912W        W29172  21.034  17.387   0.107
63913W        W29173  17.047  11.070  13.938
63914W        W29174  27.087  36.928  14.784
63915W        W29175   7.267  27.850  12.051
63916W        W29176  15.604  35.415   2.889
63917W        W29177  19.651  12.099  13.317
63918W        W29178  18.816  31.803  11.932
63919W        W29179  29.573  21.758   1.376
63920W        W29180  15.709   7.374   0.874
63921W        W29181   6.835   7.523   4.754
63922W        W29182   1.772  18.094  10.796
63923W        W29183  43.053   1.772  13.403
63924W        W29184  11.761  42.033  10.157
63925W        W29185  42.669  42.538   3.516
63926W        W29186  42.208  12.858  13.839
63927W        W29187  34.996  36.437   1.093
63928W        W29188  13.223   1.893   2.355
63929W        W29189   5.889  25.498  10.648
63930W        W29190   8.170  11.150  11.442
63931W        W29191  16.939   0.461  10.379
63932W        W29192   0.115  36.783   2.804
63933W        W29193  23.702   3.998  14.530
63934W        W29194  36.274   3.809  13.865
63935W        W29195  10.578  30.939   4.326
63936W        W29196  35.424  10.781  12.190
63937W        W29197  36.849  27.437   3.109
63938W        W29198   6.646  42.819   3.754
63939W        W29199  42.288  18.659   0.983
63940W        W29200   4.686  10.726   2.759
63941W        W29201  41.473  26.913  14.122
63942W        W29202   6.219  44.973  14.275
63943W        W29203   1.347  40.699  11.592
63944W        W29204  41.834  10.929  14.327
63945W        W29205  39.005  41.820   4.111
63946W        W29206  26.480   3.784  13.901
63947W        W29207  26.456  36.409   1.836
63948W        W29208  43.421  38.958  12.387
63949W        W29209  22.995   2.891   2.216
63950W        W29210   5.568  14.479   0.855
63951W        W29211  24.582  14.130   0.628
63952W        W29212  19.797  40.121  14.139
63953W        W29213  40.781  35.526   3.657
63954W        W29214  23.265   7.976   1.253
63955W        W29215  43.349  42.807  11.250
63956W        W29216  15.059   0.841  12.362
63957W        W29217   1.249   3.530  11.480
63958W        W29218  21.123  18.093  10.368
63959W        W29219  12.769  18.966   3.695
63960W        W29220   3.475  44.294  12.946
63961W        W29221  11.944   6.312  14.872
63962W        W29222  37.452  35.650  10.417
63963W        W29223  28.002  33.469   1.731
63964W        W29224  38.900   8.226   0.758
63965W        W29225  14.327  38.210   2.402
63966W        W29226  23.563  23.320  12.500
63967W        W29227  11.219  34.182   1.314
63968W        W29228  16.891   6.266  12.927
63969W        W29229  10.697  32.336  11.447
63970W        W29230  37.638  24.242   1.301
63971W        W29231  28.505   2.487   1.729
63972W        W29232  26.329  33.683   2.549
63973W        W29233  16.488  22.441   1.702
63974W        W29234  24.543  28.962  10.653
63975W        W29235   9.335  26.068   3.630
63976W        W29236   3.791  22.181  14.719
63977W        W29237  30.616   8.598  11.928
63978W        W29238  26.788  17.739   1.780
63979W        W29239   6.781  29.531  11.440
63980W        W29240  40.760  32.523  11.255
63981W        W29241  11.935  10.306   4.031
63982W        W29242  42.429   7.920   2.797
63983W        W29243  20.971  35.463  14.396
63984W        W29244  15.801  38.362  12.429
63985W        W29245  10.185  30.654  11.061
63986W        W29246   5.705  14.313   3.771
63987W        W29247   4.886  22.288  10.394
63988W        W29248   1.354  37.473  11.119
63989W        W29249   6.056  11.796   4.839
63990W        W29250  10.409  35.471  14.300
63991W        W29251  41.526   1.028   3.202
63992W        W29252  16.227  29.693   0.725
63993W        W29253  20.712  30.943   3.091
63994W        W29254  17.180  34.496  12.083
63995W        W29255  32.700  44.990  13.820
63996W        W29256  32.398  18.446   1.152
63997W        W29257  27.000  12.906   3.634
63998W        W29258  28.676  15.864  10.646
63999W        W29259  36.937  29.014  12.837
64000W        W29260  33.643  18.206   2.416
64001W        W29261  33.851  39.109  12.126
64002W        W29262  33.974   2.359  11.519
64003W        W29263  34.593   3.884   1.681
64004W        W29264   0.667  15.323  13.963
64005W        W29265  23.220  35.963   0.265
64006W        W29266  19.300  29.035   2.150
64007W        W29267  37.100  13.216   3.345
64008W        W29268  36.559  18.217  14.584
64009W        W29269  25.542  32.014   4.893
64010W        W29270   7.787  44.196  13.925
64011W        W29271   1.810  35.721  10.769
64012W        W29272  44.429   4.362   3.941
64013W        W29273  43.266   8.108   2.322
64014W        W29274  18.044  41.097   0.775
64015W        W29275  14.077   9.176  12.428
64016W        W29276   6.289   2.083   4.937
64017W        W29277  12.192   4.994  10.148
64018W        W29278   5.236  38.977   3.116
64019W        W29279  15.224  41.999  14.480
64020W        W29280  13.301  18.501  14.013
64021W        W29281  42.669  23.030  11.403
64022W        W29282   2.808  26.930  14.030
64023W        W29283  20.689  24.725  12.679
64024W        W29284  34.909  28.408  13.408
64025W        W29285  20.836  41.048  10.774
64026W        W29286  44.062   9.392   0.402
64027W        W29287  40.092   7.272   1.298
64028W        W29288  12.139  17.590  10.647
64029W        W29289  34.897  41.452  14.848
64030W        W29290  26.578  11.844   1.263
64031W        W29291  27.537  13.823   2.345
64032W        W29292  27.366  15.217   0.848
64033W        W29293  34.047  18.768   4.632
64034W        W29294  36.985   7.734  14.086
64035W        W29295   1.168  15.032   3.063
64036W        W29296   8.094   9.831  14.766
64037W        W29297  15.604  12.703   0.191
64038W        W29298  19.194  20.182  14.789
64039W        W29299  22.662  11.949  10.813
64040W        W29300  27.415   9.143   3.339
64041W        W29301  27.716  19.622   1.210
64042W        W29302  16.031   9.304  11.131
64043W        W29303  18.032  37.834   2.667
64044W        W29304   9.003  21.241   3.678
64045W        W29305  23.803  12.765   1.211
64046W        W29306   9.699   4.355  14.452
64047W        W29307  34.078   2.431  12.479
64048W        W29308  23.008  18.728  12.883
64049W        W29309  23.587  36.039  12.468
64050W        W29310   7.659  30.835  13.926
64051W        W29311  18.634  20.896  14.313
64052W        W29312  39.857  29.130  13.914
64053W        W29313  43.840  16.482  13.422
64054W        W29314   7.517  24.496  13.870
64055W        W29315   0.708  13.293  14.635
64056W        W29316  38.893  42.853  10.396
64057W        W29317  22.597  40.984   4.721
64058W        W29318  19.967  35.343   3.195
64059W        W29319  33.702  20.160  14.849
64060W        W29320  20.518  38.036   2.730
64061W        W29321  38.647  15.624   0.945
64062W        W29322  28.009  40.381  13.698
64063W        W29323  26.762  23.494  11.648
64064W        W29324   5.325  12.059  13.496
64065W        W29325  10.062   1.262   3.714
64066W        W29326  14.138  30.439  13.035
64067W        W29327  37.347  16.199   1.380
64068W        W29328  16.752  18.568   3.259
64069W        W29329   4.233  16.616   2.839
64070W        W29330  21.199  34.002   2.135
64071W        W29331  36.689  25.486  12.137
64072W        W29332  17.069  31.924  14.273
64073W        W29333  23.712   1.159  11.954
64074W        W29334  26.001  43.230   2.091
64075W        W29335  12.825  44.701   3.919
64076W        W29336   8.548  38.370  12.349
64077W        W29337  10.169   3.189  12.369
64078W        W29338  43.356  10.121  12.010
64079W        W29339  31.553  13.807   1.312
64080W        W29340  34.163  23.140   4.559
64081W        W29341  13.342  15.981  11.243
64082W        W29342  10.117  37.268   0.748
64083W        W29343   3.395  31.751  10.679
64084W        W29344  34.887   4.677  11.104
64085W        W29345  25.193  34.051   2.150
64086W        W29346  29.021  44.700  13.780
64087W        W29347   7.925  36.979   3.887
64088W        W29348  18.420  34.501   1.256
64089W        W29349  22.618  41.954  11.093
64090W        W29350  41.290  19.130  14.397
64091W        W29351  15.256   6.441  12.975
64092W        W29352  23.071   8.032   4.345
64093W        W29353  36.415   9.423   2.348
64094W        W29354   8.714  29.170   0.207
64095W        W29355  35.363   2.354   4.445
64096W        W29356  23.489  30.350   0.240
64097W        W29357   2.849  28.562   5.102
64098W        W29358  38.513  28.189  12.977
64099W        W29359  14.064  42.202   4.055
64100W        W29360  25.118  25.122  10.726
64101W        W29361  17.620  20.837   3.682
64102W        W29362   6.127  17.520  13.965
64103W        W29363  20.692  40.113   1.754
64104W        W29364  27.406   8.656   3.146
64105W        W29365   7.002  15.537  14.009
64106W        W29366  26.410   2.820  12.623
64107W        W29367  38.020  23.107   0.638
64108W        W29368  24.150  11.350  12.492
64109W        W29369   3.387  41.583  11.775
64110W        W29370  27.099  37.231   0.805
64111W        W29371   5.169   3.763   0.525
64112W        W29372  38.161   7.830   3.860
64113W        W29373  21.740  32.081   3.623
64114W        W29374  19.759  21.870  11.124
64115W        W29375  19.698   8.896   4.630
64116W        W29376   6.481  19.988  10.974
64117W        W29377  17.295   4.712  11.977
64118W        W29378  20.157  24.579   4.391
64119W        W29379  25.684  21.118  13.931
64120W        W29380  33.679  37.561   0.351
64121W        W29381  43.127  22.279   3.169
64122W        W29382  35.056  22.825  11.626
64123W        W29383   8.685  30.253   0.418
64124W        W29384  40.778  12.678   0.933
64125W        W29385  13.320  34.577   4.051
64126W        W29386  14.243  32.606  13.743
64127W        W29387   4.274  37.202  14.797
64128W        W29388   7.226  41.450   3.315
64129W        W29389  18.422  44.766  13.367
64130W        W29390  12.334   9.331  11.948
64131W        W29391  12.156  25.461   3.350
64132W        W29392  20.979   2.797  14.068
64133W        W29393  21.748  41.102  10.744
64134W        W29394  42.881  23.183  13.635
64135W        W29395  33.177  18.753  11.601
64136W        W29396  34.142  18.178   2.495
64137W        W29397  20.010   0.759  11.057
64138W        W29398  44.897  39.228   1.267
64139W        W29399  12.666  36.019   4.065
64140W        W29400  38.556   6.216  14.065
64141W        W29401  43.215   9.942  10.693
64142W        W29402  30.961  39.990   4.232
64143W        W29403  23.613  10.504   0.473
64144W        W29404  18.320  33.072   4.203
64145W        W29405  14.193  43.449   1.090
64146W        W29406  34.010  36.454  11.088
64147W        W29407  33.943   1.564   3.846
64148W        W29408  39.916  33.013   4.804
64149W        W29409   8.198   8.421   0.438
64150W        W29410  30.124   2.465   1.532
64151W        W29411  19.777  40.201  13.070
64152W        W29412  10.838  28.173   4.367
64153W        W29413  39.501  30.136  12.081
64154W        W29414   4.691   4.030  12.778
64155W        W29415  12.778  41.472   4.215
64156W        W29416   2.291  31.629  13.578
64157W        W29417  23.662  35.343   1.275
64158W        W29418  41.400  30.935   3.295
64159W        W29419   5.801   5.714  14.682
64160W        W29420  12.443  30.481  12.314
64161W        W29421  19.548   8.804  13.865
64162W        W29422  36.072  26.549  11.768
64163W        W29423   3.825  40.036   0.347
64164W        W29424   8.720   1.237   1.287
64165W        W29425   7.030  17.089  13.113
64166W        W29426  15.195  20.001   5.638
64167W        W29427  14.959  35.328   4.273
64168W        W29428   3.235  19.606   0.225
64169W        W29429  22.097  31.382  12.092
64170W        W29430  30.149  12.272   3.196
64171W        W29431  28.546   7.664   1.521
64172W        W29432  27.215  19.952  13.962
64173W        W29433  10.741  43.722   2.751
64174W        W29434  11.666  32.855  11.755
64175W        W29435  41.279   2.383  10.997
64176W        W29436  40.014  34.818  10.909
64177W        W29437  21.185  20.655  11.442
64178W        W29438  24.354  13.134   0.417
64179W        W29439   7.799   5.923   2.960
64180W        W29440  37.976  11.282  11.596
64181W        W29441   1.412  15.581  13.046
64182W        W29442  43.673   7.805   3.076
64183W        W29443  32.487  44.501   5.130
64184W        W29444  40.080  36.633  12.276
64185W        W29445   3.247  38.336  12.930
64186W        W29446  31.099  18.938   4.178
64187W        W29447  42.381  30.089   0.939
64188W        W29448  22.544  10.084  12.426
64189W        W29449   9.126  44.942   0.276
64190W        W29450  44.895  38.896   0.864
64191W        W29451   7.861  44.331  10.028
64192W        W29452  27.030  17.020  14.180
64193W        W29453  26.978   3.802   1.052
64194W        W29454   2.852  33.265   4.616
64195W        W29455  32.210  25.807  11.261
64196W        W29456  12.022   1.629   3.953
64197W        W29457  21.684   6.672  12.989
64198W        W29458  14.793   2.766   2.688
64199W        W29459  37.978  40.556   0.772
64200W        W29460   9.373  32.477  11.032
64201W        W29461  36.540  11.767   1.337
64202W        W29462  20.200  44.586   1.041
64203W        W29463  16.284  31.169  11.993
64204W        W29464  26.874  44.270   2.337
64205W        W29465  31.737  40.275   4.840
64206W        W29466   9.112  18.633  12.801
64207W        W29467  35.354  42.000  14.047
64208W        W29468  16.058  34.020  13.379
64209W        W29469  28.652  26.475   4.549
64210W        W29470   5.650  34.323  13.294
64211W        W29471  23.267  36.388  12.931
64212W        W29472   1.062  34.801  12.982
64213W        W29473  10.915  35.061   0.014
64214W        W29474  36.476  34.040  11.114
64215W        W29475  12.325  39.517  12.193
64216W        W29476   2.940  21.218  12.557
64217W        W29477  26.996   0.937  11.128
64218W        W29478  29.605  16.988   4.133
64219W        W29479  44.526   8.035  11.644
64220W        W29480  32.830  32.415  13.067
64221W        W29481  42.645  26.278  13.963
64222W        W29482  17.643  32.210   2.839
64223W        W29483  42.989  36.366   1.351
64224W        W29484  19.472  16.294  13.914
64225W        W29485  25.339  15.429   4.363
64226W        W29486  34.842  34.548   0.447
64227W        W29487  12.568  29.559  10.556
64228W        W29488  11.735  42.911   2.256
64229W        W29489  29.702  44.007   4.346
64230W        W29490  14.302  28.683  11.886
64231W        W29491  39.455   5.367  14.180
64232W        W29492  14.242  40.613   1.917
64233W        W29493   3.515  20.952  13.388
64234W        W29494  36.610  15.680  11.767
64235W        W29495   5.170  15.393  13.424
64236W        W29496  42.600  43.059  10.038
64237W        W29497  43.881  35.853  13.064
64238W        W29498  27.305  28.621   2.227
64239W        W29499  13.540  43.599  12.423
64240W        W29500  44.598   4.500  13.449
64241W        W29501  17.888  36.415  10.642
64242W        W29502  38.422   0.435   2.411
64243W        W29503  24.177   8.915  13.750
64244W        W29504   2.808  39.134  13.457
64245W        W29505   6.145  36.445  12.182
64246W        W29506  14.338  38.114  11.532
64247W        W29507  37.451  20.145   4.290
64248W        W29508  28.242   7.281   1.685
64249W        W29509  34.812  38.637   2.754
64250W        W29510  24.512   1.966  12.925
64251W        W29511  37.464   5.730  11.503
64252W        W29512  31.148   8.703  13.588
64253W        W29513   6.814  39.591   1.882
64254W        W29514   1.447  16.548  10.546
64255W        W29515  27.561  11.945  12.432
64256W        W29516  31.980  29.462  11.555
64257W        W29517  30.065  18.129   3.067
64258W        W29518  10.757  22.451  13.759
64259W        W29519   5.227  26.039   4.897
64260W        W29520   7.369  34.118   3.744
64261W        W29521  43.050  21.033  12.585
64262W        W29522  18.519  43.883   2.207
64263W        W29523   9.656   9.865  11.857
64264W        W29524  32.580  44.704  13.372
64265W        W29525  17.503  10.350   3.864
64266W        W29526   2.837  14.871  11.205
64267W        W29527   1.013   0.947  11.444
64268W        W29528  19.285  17.941   0.572
64269W        W29529  39.521  32.214   0.719
64270W        W29530  15.689  20.188  12.576
64271W        W29531   1.392  31.666   3.685
64272W        W29532  27.207  19.205  11.183
64273W        W29533  29.888  42.549  13.868
64274W        W29534  34.529   2.114  13.908
64275W        W29535  28.933  10.893   2.323
64276W        W29536  31.553  25.374   1.796
64277W        W29537  41.026  42.267  10.732
64278W        W29538  34.811  39.922   0.165
64279W        W29539   9.333  23.775  13.025
64280W        W29540  42.340  19.551   3.333
64281W        W29541  13.140  15.315   0.755
64282W        W29542  13.476  17.691  14.792
64283W        W29543  35.917  27.999   3.183
64284W        W29544  30.784  37.017   0.404
64285W        W29545   4.433  19.442  11.488
64286W        W29546  37.018  34.483  10.670
64287W        W29547  42.323  26.098  14.984
64288W        W29548  32.879  22.632  13.634
64289W        W29549  14.161  15.332   0.749
64290W        W29550   8.239  16.834   0.050
64291W        W29551   2.414  30.636  14.437
64292W        W29552  23.191  44.869   4.492
64293W        W29553  12.317  23.378  13.016
64294W        W29554  30.765  23.276  11.073
64295W        W29555  15.720  10.159   3.834
64296W        W29556  37.014  36.100  14.368
64297W        W29557  41.789  19.487  11.951
64298W        W29558  19.078   6.781  13.398
64299W        W29559  24.275  25.658   1.293
64300W        W29560   9.345   3.879  11.077
64301W        W29561   1.916   5.868  14.943
64302W        W29562  41.815  15.569   4.672
64303W        W29563  42.347   9.989   0.474
64304W        W29564  22.271   2.706   9.981
64305W        W29565  12.672  16.647  14.386
64306W        W29566   7.918  41.760  12.833
64307W        W29567  27.209   1.303  14.348
64308W        W29568  32.410  23.635   3.228
64309W        W29569   0.464  26.010   1.663
64310W        W29570  18.911   3.377   4.135
64311W        W29571  16.656  23.427  11.633
64312W        W29572  18.995  23.715  14.619
64313W        W29573   8.121  30.968   1.014
64314W        W29574  29.372   0.906  12.449
64315W        W29575  24.740  17.107   0.390
64316W        W29576  38.361  42.560  11.467
64317W        W29577   9.889  20.127  14.355
64318W        W29578  20.564   8.167   2.705
64319W        W29579   5.235  43.619   4.071
64320W        W29580  40.024  35.611   4.429
64321W        W29581  30.597  31.412   3.871
64322W        W29582  34.103  44.407   2.340
64323W        W29583  28.549  32.452   1.219
64324W        W29584  32.045  23.285   1.470
64325W        W29585  11.047  23.096  12.261
64326W        W29586   4.743  27.635  10.728
64327W        W29587  31.564  37.498   1.948
64328W        W29588   7.876  30.482   3.227
64329W        W29589  40.518   8.845   2.260
64330W        W29590  33.388  39.102   0.312
64331W        W29591  14.716  37.381   4.493
64332W        W29592   1.548   9.409   0.314
64333W        W29593  20.629  13.635  13.423
64334W        W29594   3.503   4.565   1.681
64335W        W29595  21.658  20.495   2.559
64336W        W29596  31.185  24.141   0.179
64337W        W29597   5.651  24.491   4.345
64338W        W29598  39.115  44.167  13.686
64339W        W29599  30.594  42.908   5.116
64340W        W29600  31.566  11.637  12.559
64341W        W29601  17.995  12.214  13.316
64342W        W29602   2.812  23.431   2.184
64343W        W29603  10.165  29.281   5.131
64344W        W29604   0.352   6.175  13.445
64345W        W29605  29.713  13.785   3.395
64346W        W29606  15.283  35.987  14.463
64347W        W29607   5.791  26.829   5.141
64348W        W29608  16.365  11.663  11.142
64349W        W29609  13.592  39.378  12.002
64350W        W29610  28.208  35.187  12.032
64351W        W29611  30.997  12.097  11.108
64352W        W29612  32.937  44.432   1.831
64353W        W29613  42.395  19.079  12.651
64354W        W29614  12.673   9.425  12.754
64355W        W29615   9.683  38.893  13.450
64356W        W29616  19.638  31.905  11.547
64357W        W29617  18.832  29.538   4.441
64358W        W29618   0.865  21.553   2.782
64359W        W29619   9.911  17.138  11.937
64360W        W29620  19.420  39.521   3.346
64361W        W29621  22.698  16.762  12.026
64362W        W29622   4.838  26.688  13.616
64363W        W29623  31.469   9.355   0.504
64364W        W29624  15.575  27.610   3.185
64365W        W29625  25.514  39.078   1.430
64366W        W29626  13.106  36.013  12.035
64367W        W29627  21.733  26.262  10.615
64368W        W29628  26.027  18.697  13.098
64369W        W29629  24.699  29.039  13.000
64370W        W29630  33.197   3.837  12.394
64371W        W29631  34.889   2.794   0.747
64372W        W29632  39.415  40.369  10.679
64373W        W29633  21.990  33.001   4.949
64374W        W29634  42.758  20.599  12.632
64375W        W29635  19.806  31.547  10.780
64376W        W29636  12.210   2.606   1.768
64377W        W29637   2.001  42.876  12.055
64378W        W29638   1.378  10.424   1.239
64379W        W29639   7.343   7.379  10.582
64380W        W29640   2.495  11.449   1.691
64381W        W29641  39.163  39.432   1.716
64382W        W29642   8.253  27.694  10.797
64383W        W29643  41.817  25.375   2.240
64384W        W29644   6.209  31.323  11.611
64385W        W29645  13.586  13.544   0.644
64386W        W29646  41.983  31.042  12.384
64387W        W29647   6.803   7.733   0.117
64388W        W29648  24.689  10.928   2.331
64389W        W29649   7.314  35.479   1.153
64390W        W29650  38.808  13.224  14.376
64391W        W29651  12.706   3.342  13.416
64392W        W29652  40.881  43.399  12.551
64393W        W29653  13.870  17.287   1.870
64394W        W29654  13.312  34.936  13.511
64395W        W29655  19.935  33.870  14.369
64396W        W29656  14.863  20.440   5.561
64397W        W29657   9.474  41.795  12.717
64398W        W29658   6.167  26.303  10.964
64399W        W29659   2.336  26.923   4.301
64400W        W29660  32.680  23.281   0.254
64401W        W29661   0.395   7.457  12.470
64402W        W29662  41.548  26.703  12.834
64403W        W29663  32.038  42.830   0.737
64404W        W29664  10.857  29.467   1.519
64405W        W29665  43.041  40.830  12.675
64406W        W29666  34.835  43.950  13.410
64407W        W29667  29.857  26.713   4.947
64408W        W29668  37.322  39.006   0.640
64409W        W29669  39.401   3.357   2.752
64410W        W29670  42.563   8.321  14.458
64411W        W29671  18.580   8.077   1.230
64412W        W29672  13.090  37.212  11.142
64413W        W29673   0.358  39.853   0.231
64414W        W29674  36.288  39.451  13.554
64415W        W29675  15.116  10.911  11.110
64416W        W29676  36.497  19.122  12.244
64417W        W29677  12.033   7.209   0.800
64418W        W29678   6.031  36.150   4.212
64419W        W29679  38.281  10.883  11.407
64420W        W29680   0.012  17.026  12.063
64421W        W29681  16.461   0.292   1.221
64422W        W29682  25.714  27.271   3.296
64423W        W29683  42.080   9.711   3.334
64424W        W29684  18.804  31.410   1.754
64425W        W29685  36.060  21.983   4.909
64426W        W29686   3.847  26.167  13.573
64427W        W29687  19.589  15.587  12.419
64428W        W29688  21.489  22.442  10.091
64429W        W29689  21.553  18.072   1.647
64430W        W29690  22.213  20.353  14.083
64431W        W29691  14.900   4.946   4.702
64432W        W29692   8.872  24.090   1.416
64433W        W29693   3.917  36.417   2.583
64434W        W29694   9.196  21.132   4.663
64435W        W29695  23.711   1.860  12.269
64436W        W29696   6.217  33.889  10.726
64437W        W29697  14.215  15.119  13.979
64438W        W29698  19.486   2.697  10.548
64439W        W29699  40.252   4.204   4.538
64440W        W29700   8.297  17.333   2.309
64441W        W29701  23.167  31.668  11.524
64442W        W29702  31.758   0.869  14.370
64443W        W29703   9.493  18.017  11.700
64444W        W29704  10.336  23.227  14.756
64445W        W29705  15.772   6.878   1.143
64446W        W29706   0.443  33.446   1.470
64447W        W29707  21.583  37.467  14.217
64448W        W29708  37.887  32.411   1.735
64449W        W29709  23.553   2.431   4.121
64450W        W29710   1.390  20.557   3.395
64451W        W29711  22.173  26.715   4.378
64452W        W29712  42.410  36.145  14.384
64453W        W29713  18.553  20.404   0.686
64454W        W29714  11.211  36.788  14.381
64455W        W29715   6.287  17.775   0.703
64456W        W29716   5.284  28.226   2.306
64457W        W29717  19.554  36.450  10.743
64458W        W29718  33.983  21.426  12.414
64459W        W29719  42.258  16.770  10.748
64460W        W29720  27.239  33.771  14.390
64461W        W29721   8.166  34.073  12.084
64462W        W29722  20.183  39.076  11.881
64463W        W29723   1.185   7.910  12.942
64464W        W29724  22.295  19.084  10.371
64465W        W29725   9.985   8.056   9.810
64466W        W29726  29.527  39.604  13.411
64467W        W29727  22.158  24.739  14.657
64468W        W29728  10.852  12.825  14.774
64469W        W29729   2.267  26.630  14.744
64470W        W29730  18.825  39.069  13.005
64471W        W29731  31.550  16.695   0.338
64472W        W29732  12.959  24.689   9.814
64473W        W29733  41.276  23.199   4.853
64474W        W29734   2.451  27.505   2.188
64475W        W29735  35.959  22.247   1.278
64476W        W29736  14.187   4.528   3.780
64477W        W29737  24.119   4.529   1.683
64478W        W29738  28.376  10.169  11.536
64479W        W29739  27.565  31.633   4.685
64480W        W29740   8.667   7.305   2.139
64481W        W29741  28.016  19.683  11.001
64482W        W29742  38.815   5.793  13.917
64483W        W29743  16.250  18.398   3.215
64484W        W29744  35.467  18.831  13.922
64485W        W29745  24.596  19.331   0.441
64486W        W29746   4.449   9.169   1.857
64487W        W29747   4.441   2.602   2.002
64488W        W29748  26.678  25.036   0.041
64489W        W29749  30.497  18.227   3.353
64490W        W29750  10.922  11.679   4.152
64491W        W29751  32.450   1.306  12.932
64492W        W29752  21.665  38.008  13.050
64493W        W29753   0.447  10.496  11.505
64494W        W29754  31.067  43.394  12.958
64495W        W29755  35.748  22.781   1.336
64496W        W29756  36.484  27.997  13.262
64497W        W29757  39.098  35.909   2.211
64498W        W29758  14.581  19.373   5.460
64499W        W29759  11.018   8.714  12.087
64500W        W29760   9.981  14.719  12.482
64501W        W29761  40.372  36.880  13.278
64502W        W29762   8.931   2.755   4.845
64503W        W29763  25.182   1.357  11.095
64504W        W29764  40.916   8.243  10.818
64505W        W29765  14.905  43.011   4.616
64506W        W29766  36.519  17.003   2.749
64507W        W29767   5.287  30.351  11.979
64508W        W29768  30.071  10.394  14.545
64509W        W29769   4.820  23.973  10.723
64510W        W29770  26.294   4.908   2.183
64511W        W29771  23.744  39.250  12.851
64512W        W29772  10.841  21.245   1.798
64513W        W29773  24.177   4.778   2.115
64514W        W29774  43.845  25.563  13.897
64515W        W29775  28.989  19.157   5.010
64516W        W29776   4.008  37.478   1.726
64517W        W29777  37.579   9.738   1.283
64518W        W29778   7.822  13.582  13.421
64519W        W29779  27.460  21.757   2.786
64520W        W29780   1.349  27.992   3.710
64521W        W29781  17.046  26.732   0.163
64522W        W29782  18.783   1.802  14.423
64523W        W29783  41.487  29.529   1.362
64524W        W29784  42.479  14.282  13.577
64525W        W29785   1.881  21.002  10.581
64526W        W29786  28.194  18.269  13.484
64527W        W29787   0.209   0.535  13.711
64528W        W29788  36.672  31.219   4.159
64529W        W29789   6.295  10.765   4.733
64530W        W29790  24.954  43.707  14.845
64531W        W29791  17.651  18.943   0.314
64532W        W29792  28.282  39.025   5.264
64533W        W29793   0.985  44.989  13.531
64534W        W29794   5.700  40.506  14.838
64535W        W29795  38.757  41.742   0.906
64536W        W29796   8.794  11.650   1.541
64537W        W29797  28.093  14.839  10.983
64538W        W29798   1.967  40.979   1.100
64539W        W29799   6.809  38.923  11.644
64540W        W29800  40.536   6.769  14.068
64541W        W29801   8.325  40.590   4.715
64542W        W29802  36.686  37.632   1.414
64543W        W29803  23.797  44.756   1.327
64544W        W29804   2.814  12.802  11.041
64545W        W29805  14.293  37.365   2.691
64546W        W29806   4.807   4.469   2.457
64547W        W29807  35.968  42.046  11.536
64548W        W29808  31.105  39.599  14.380
64549W        W29809  10.159  26.203  13.919
64550W        W29810  17.647  30.765  14.778
64551W        W29811  26.892  28.253   1.346
64552W        W29812  24.049  23.241  13.877
64553W        W29813  25.557  11.977  13.751
64554W        W29814  36.414  40.714   1.679
64555W        W29815  16.199  36.618   2.339
64556W        W29816  21.272  16.098   1.329
64557W        W29817  31.169   5.865   0.734
64558W        W29818   3.931   5.507  10.234
64559W        W29819  39.278   2.327  11.198
64560W        W29820  38.983  34.061  13.457
64561W        W29821  17.360  11.247  13.526
64562W        W29822  30.531  40.262   4.360
64563W        W29823   5.764   1.253  13.467
64564W        W29824  22.438  34.392  10.273
64565W        W29825  18.599   2.964  10.674
64566W        W29826   5.213  25.234   2.230
64567W        W29827  44.087  22.500  11.386
64568W        W29828  44.833  16.317  13.492
64569W        W29829   0.927  18.800   0.782
64570W        W29830  40.285   8.218   0.455
64571W        W29831  25.472  20.654  13.989
64572W        W29832  38.779  19.821   0.312
64573W        W29833  32.235  11.792   3.299
64574W        W29834  11.136  22.082   4.638
64575W        W29835   3.946  31.883   4.541
64576W        W29836  15.223  38.885   0.092
64577W        W29837  42.477   6.831  10.677
64578W        W29838  12.815  14.807  14.277
64579W        W29839  16.015  37.424  12.058
64580W        W29840   0.261   9.232  13.994
64581W        W29841   3.470  39.944  14.432
64582W        W29842  23.215   3.702  11.148
64583W        W29843  25.233  12.849   4.183
64584W        W29844  17.209  30.058  10.775
64585W        W29845  18.054   8.175  14.785
64586W        W29846  11.391  25.179   1.428
64587W        W29847   1.992  11.402   1.849
64588W        W29848  10.669  33.566  12.363
64589W        W29849  17.405  23.606   2.333
64590W        W29850  37.680   9.820   4.088
64591W        W29851  23.516   5.095   0.370
64592W        W29852  16.628  36.497   1.506
64593W        W29853  10.880  35.902   4.173
64594W        W29854   1.396  21.630  10.903
64595W        W29855   4.498  44.818   4.378
64596W        W29856  40.023  23.469   2.846
64597W        W29857  26.023  13.049  12.042
64598W        W29858  21.284   3.326   0.749
64599W        W29859   3.492  29.147  12.512
64600W        W29860  14.787  22.469  11.535
64601W        W29861  24.685  44.008   1.325
64602W        W29862  11.719  37.488   0.202
64603W        W29863   2.969  40.066   2.920
64604W        W29864  26.750  29.370  10.382
64605W        W29865  36.204  40.991  12.221
64606W        W29866  17.858  34.495  11.547
64607W        W29867  33.144  17.682   4.054
64608W        W29868  19.620  26.051   0.960
64609W        W29869  43.864  32.959   4.161
64610W        W29870  19.846   1.766   4.749
64611W        W29871  16.061  24.109  12.913
64612W        W29872  19.085  23.383  13.812
64613W        W29873  17.617  18.701   3.610
64614W        W29874  22.021   3.793   1.130
64615W        W29875  33.138  42.339  13.492
64616W        W29876  31.161  15.714   1.469
64617W        W29877  19.817  20.964   4.248
64618W        W29878  10.264  13.136  11.222
64619W        W29879   5.869  19.944   4.576
64620W        W29880  37.904   9.702   3.653
64621W        W29881  40.731  12.847   3.908
64622W        W29882  22.945  33.811  13.286
64623W        W29883  11.688   0.522   3.847
64624W        W29884   9.192  25.251   3.200
64625W        W29885   9.893  34.999  12.223
64626W        W29886  18.566   2.196  13.662
64627W        W29887  37.987  10.601   3.257
64628W        W29888   9.731  44.077  13.964
64629W        W29889   6.403  40.286   3.289
64630W        W29890  14.876   4.424  11.162
64631W        W29891   7.401  32.379  12.090
64632W        W29892  33.605   0.429   1.977
64633W        W29893  35.048   7.205   4.518
64634W        W29894   3.344  26.934   0.907
64635W        W29895  24.995  38.833  14.770
64636W        W29896  32.960  44.215  12.573
64637W        W29897  30.482   6.159   1.151
64638W        W29898  18.802   9.196   2.626
64639W        W29899   3.373   4.151   0.868
64640W        W29900  34.426   8.872   2.846
64641W        W29901  11.306  10.601  11.146
64642W        W29902  42.715  44.543  13.399
64643W        W29903  33.998  14.193   2.618
64644W        W29904  19.687  25.072   1.831
64645W        W29905  41.910   0.821   4.628
64646W        W29906  37.409  44.334  10.457
64647W        W29907   1.548  32.170  13.743
64648W        W29908  17.460  26.705  13.966
64649W        W29909   9.218  19.253   2.271
64650W        W29910  26.908  31.488  12.943
64651W        W29911   5.132  36.174   4.063
64652W        W29912  27.580   3.161   0.204
64653W        W29913  44.231  28.970  14.582
64654W        W29914  32.105   2.691  13.365
64655W        W29915  18.698  37.058   3.737
64656W        W29916  44.512   4.481  14.573
64657W        W29917  24.502  15.841   4.592
64658W        W29918  16.340  20.664  11.948
64659W        W29919   3.358  43.853   2.336
64660W        W29920  22.372  15.767   0.818
64661W        W29921  30.000  22.529  14.033
64662W        W29922  28.919  21.349   0.741
64663W        W29923  38.826   3.349  10.956
64664W        W29924  26.565  43.079  13.387
64665W        W29925   3.683  44.440   1.230
64666W        W29926  41.236  10.766  12.587
64667W        W29927  42.362  16.245   4.919
64668W        W29928   2.897  17.875   1.482
64669W        W29929  34.022  41.876  12.461
64670W        W29930  13.258  32.813  12.830
64671W        W29931  22.568  29.398   0.273
64672W        W29932  30.587  29.303   9.900
64673W        W29933  16.038  13.899   1.850
64674W        W29934  20.605  24.000  13.258
64675W        W29935  38.518  21.983  12.650
64676W        W29936  18.379  23.129   3.365
64677W        W29937  20.029  22.335  11.120
64678W        W29938  33.034   1.781   4.871
64679W        W29939  29.476   9.195  12.944
64680W        W29940  40.168  36.518   0.818
64681W        W29941  25.286  25.022   0.057
64682W        W29942   5.687  18.606  12.928
64683W        W29943  40.463  25.350  12.019
64684W        W29944   3.920   0.319   3.992
64685W        W29945  43.299  44.787   3.063
64686W        W29946  22.186  37.799  13.545
64687W        W29947  39.927  19.609   4.787
64688W        W29948  21.096  19.403   0.391
64689W        W29949  38.256  28.861   0.343
64690W        W29950  20.159  17.177   1.272
64691W        W29951   9.892  23.259  13.416
64692W        W29952   8.894  42.937   0.050
64693W        W29953   4.941  29.851  10.659
64694W        W29954   3.469  38.288   3.884
64695W        W29955  19.831  16.570   3.250
64696W        W29956   0.377  39.955   3.384
64697W        W29957  12.972   3.643   1.451
64698W        W29958   7.847  25.756  14.812
64699W        W29959   7.653  16.181   1.097
64700W        W29960   0.728  40.645  11.095
64701W        W29961  21.124  24.279  10.628
64702W        W29962   4.807   1.364  13.866
64703W        W29963  34.783  40.937   1.415
64704W        W29964  33.911  10.862   1.494
64705W        W29965   0.892  27.873   0.406
64706W        W29966  13.183   6.043  12.409
64707W        W29967  14.422  38.321   0.910
64708W        W29968  32.297  43.326   3.706
64709W        W29969  36.482   9.051   1.985
64710W        W29970  41.081  36.105   3.181
64711W        W29971  19.592  23.939   2.450
64712W        W29972  33.348  28.720   3.596
64713W        W29973   0.452  25.550   1.401
64714W        W29974  40.108   9.087   0.398
64715W        W29975  18.470   4.125   0.334
64716W        W29976  23.043  23.998   4.573
64717W        W29977  21.248  14.365   4.759
64718W        W29978   2.605  13.430   5.473
64719W        W29979  12.239  37.340   2.037
64720W        W29980  41.975  31.558   1.566
64721W        W29981   2.023  26.145  10.796
64722W        W29982  42.526   5.430   2.724
64723W        W29983  35.918  38.539   3.936
64724W        W29984  12.396  15.673  11.515
64725W        W29985  34.468  44.205  11.518
64726W        W29986  35.765  43.906  11.531
64727W        W29987  15.609  21.739   2.775
64728W        W29988   4.353  25.118   3.565
64729W        W29989  39.761  23.169   4.152
64730W        W29990   1.807  33.871  12.717
64731W        W29991   2.037  11.261  10.217
64732W        W29992  32.226  27.144  10.393
64733W        W29993  23.946  33.945  12.325
64734W        W29994  40.023  23.275   4.636
64735W        W29995  21.762   8.389  14.418
64736W        W29996  35.302  40.202   4.777
64737W        W29997  31.170  30.084  12.981
64738W        W29998  21.407  36.569  13.360
64739W        W29999  25.718  32.633   3.646
64740W        W30000  27.062   6.842   3.663
64741W        W30001  16.217  39.446   1.371
64742W        W30002  17.699  43.502   2.422
64743W        W30003  33.466   1.380  10.365
64744W        W30004  22.556  12.862   4.541
64745W        W30005  44.266   3.841   5.006
64746W        W30006  15.328  44.013  12.694
64747W        W30007   4.468  13.781   0.393
64748W        W30008  17.280  41.959   3.613
64749W        W30009  26.604  40.356   1.874
64750W        W30010  18.476  32.916   3.338
64751W        W30011  30.996  19.701   0.764
64752W        W30012  19.718  14.052   4.807
64753W        W30013  31.987  17.465  11.135
64754W        W30014  16.630  44.377  10.260
64755W        W30015  21.978  24.920   2.551
64756W        W30016  36.660  23.105  13.483
64757W        W30017  28.762  13.890  12.522
64758W        W30018  43.091  41.386   2.317
64759W        W30019  13.193  12.191  14.574
64760W        W30020   3.592  31.047  10.852
64761W        W30021  27.928  10.135   2.888
64762W        W30022   4.724  20.140   2.108
64763W        W30023   1.423   3.829   0.307
64764W        W30024  37.931  16.586  13.324
64765W        W30025  21.009  23.549  12.137
64766W        W30026   4.918  28.921   3.704
64767W        W30027  44.023  33.968  13.779
64768W        W30028   9.912  12.688   4.159
64769W        W30029  30.234   1.721  12.920
64770W        W30030   6.610  32.051   1.672
64771W        W30031   8.327   1.021   2.473
64772W        W30032  22.089   9.535  11.883
64773W        W30033  18.817  29.192   2.201
64774W        W30034  13.396  17.664  13.876
64775W        W30035  15.865  38.776  14.403
64776W        W30036  43.395   1.584   3.098
64777W        W30037   7.306   7.432  12.795
64778W        W30038  12.635  17.677  13.435
64779W        W30039   3.088  35.536  12.902
64780W        W30040  43.972  29.099  11.226
64781W        W30041  11.277  36.943   1.857
64782W        W30042  13.211  27.204  11.648
64783W        W30043   6.966  11.544  13.829
64784W        W30044  26.168  30.855  14.355
64785W        W30045  31.044  13.596  11.181
64786W        W30046  35.844  22.247  12.536
64787W        W30047  38.450  21.178  13.250
64788W        W30048  11.913  25.297   1.284
64789W        W30049  17.521  16.206  11.397
64790W        W30050   7.656  37.931   0.234
64791W        W30051  16.062  31.416   0.783
64792W        W30052  22.602   2.558   4.513
64793W        W30053  32.108  44.433  12.061
64794W        W30054  24.113  21.117   1.465
64795W        W30055  35.629  44.019  12.954
64796W        W30056  30.816   0.233  12.495
64797W        W30057   3.641  44.433  10.364
64798W        W30058  12.612  23.539  13.482
64799W        W30059  27.658   3.987   0.020
64800W        W30060  23.697  43.797  13.445
64801W        W30061   2.171  12.337  12.017
64802W        W30062  43.889  10.266  12.051
64803W        W30063   6.098  19.031  14.884
64804W        W30064  39.398  20.154  11.839
64805W        W30065   7.588  32.807  12.967
64806W        W30066  12.250  26.097  13.831
64807W        W30067  35.598  25.644  13.881
64808W        W30068  31.946   0.445   0.517
64809W        W30069  28.136  15.319  14.513
64810W        W30070   7.382   0.474   3.161
64811W        W30071  43.232  34.895   3.313
64812W        W30072   4.148  32.029  13.727
64813W        W30073  38.969  39.828  13.906
64814W        W30074  11.730  23.505   4.669
64815W        W30075  38.495  13.795   0.467
64816W        W30076  32.841  19.947  11.108
64817W        W30077   3.679  38.410   2.712
64818W        W30078  44.233  24.658  10.479
64819W        W30079  30.367  33.992  13.807
64820W        W30080  40.588  18.041   4.092
64821W        W30081  11.731  14.286   2.696
64822W        W30082  11.827  11.081   3.698
64823W        W30083  25.959  10.110   2.600
64824W        W30084  25.387  36.940   5.022
64825W        W30085  18.242  24.984  13.828
64826W        W30086  23.978  28.340  14.450
64827W        W30087  19.312  22.260   4.345
64828W        W30088  26.911   8.649  11.308
64829W        W30089   8.801  36.266  13.014
64830W        W30090  12.848  41.591   3.316
64831W        W30091   5.668   8.234  11.088
64832W        W30092  23.248  27.624   0.910
64833W        W30093  38.948   9.142  12.399
64834W        W30094   6.642  17.228   3.334
64835W        W30095   8.936  29.210  10.970
64836W        W30096  32.525   5.285   0.387
64837W        W30097  11.804  22.983  14.214
64838W        W30098  32.048  33.930  14.334
64839W        W30099  22.051  27.309  10.781
64840W        W30100  11.783  14.235   4.636
64841W        W30101   8.195  43.240   1.770
64842W        W30102   2.834   4.068   0.926
64843W        W30103  43.675  19.768   1.759
64844W        W30104  23.610  19.327  12.122
64845W        W30105  40.341  28.589   4.152
64846W        W30106  24.770  25.846  13.282
64847W        W30107  27.030  15.332  12.977
64848W        W30108   7.175  21.668   3.355
64849W        W30109  36.378  11.183   3.642
64850W        W30110  18.972   1.851  13.930
64851W        W30111  13.203  25.185  13.625
64852W        W30112  15.926  27.720  12.399
64853W        W30113  28.430  23.015   0.400
64854W        W30114   2.459  37.012   1.753
64855W        W30115   6.782   7.488  12.530
64856W        W30116   8.046  25.420  14.425
64857W        W30117  32.886  42.521   1.806
64858W        W30118   1.706  21.744   3.787
64859W        W30119  12.635  22.307  13.776
64860W        W30120  28.579   4.325  14.919
64861W        W30121  17.141  33.533  12.077
64862W        W30122  33.574   7.856   2.483
64863W        W30123  33.638  13.654  10.776
64864W        W30124  36.134  12.766   2.104
64865W        W30125  27.510  40.853   1.754
64866W        W30126  29.839   9.194   1.786
64867W        W30127  25.720  33.957   1.477
64868W        W30128  13.433   6.900   3.272
64869W        W30129  41.615  40.447  11.381
64870W        W30130  34.524  35.381  14.910
64871W        W30131  25.852  10.927  14.069
64872W        W30132  16.230   8.636  14.425
64873W        W30133  41.231  38.152   2.783
64874W        W30134  15.336   4.979   0.014
64875W        W30135  38.684  15.305  14.195
64876W        W30136  33.376  44.768  12.830
64877W        W30137  32.432  43.765  12.835
64878W        W30138  40.312  11.136   0.510
64879W        W30139  17.155  34.362  11.103
64880W        W30140  40.080  20.057  14.905
64881W        W30141  35.559  32.424  13.949
64882W        W30142  40.670  37.582   2.368
64883W        W30143   2.806  19.301   0.309
64884W        W30144  24.210  43.216  10.723
64885W        W30145  44.166  26.874  12.076
64886W        W30146  24.298  15.241   2.805
64887W        W30147  36.572   7.428   0.877
64888W        W30148  28.700  16.636  14.350
64889W        W30149  17.808  32.705  10.834
64890W        W30150   4.029  21.692   0.506
64891W        W30151   8.283  41.225  13.522
64892W        W30152   2.775  14.204  10.252
64893W        W30153  38.452   7.970  12.351
64894W        W30154  32.931  11.460   2.491
64895W        W30155  41.078  13.725   0.500
64896W        W30156  24.772  29.431  14.827
64897W        W30157  41.909  40.849  11.471
64898W        W30158  41.999  13.009  11.933
64899W        W30159  21.742  11.259   1.366
64900W        W30160  22.071   0.724   2.606
64901W        W30161  27.008  44.260   3.154
64902W        W30162   2.290  13.526  14.037
64903W        W30163  25.160  40.309   3.847
64904W        W30164  41.792  25.645  13.715
64905W        W30165  19.844  16.573   4.106
64906W        W30166   6.476   8.790  13.460
64907W        W30167   4.362  16.163   3.097
64908W        W30168   0.034  27.166  14.455
64909W        W30169  28.748   7.583  11.660
64910W        W30170  27.635  14.740   0.135
64911W        W30171  15.480  30.427  13.294
64912W        W30172  15.846  23.596   1.710
64913W        W30173  40.534  25.897   2.460
64914W        W30174  19.078   7.144   2.231
64915W        W30175  22.951  27.169  14.517
64916W        W30176  19.239  43.301   2.269
64917W        W30177  41.690   7.821   4.005
64918W        W30178   9.785  12.416   3.552
64919W        W30179   1.506   4.353  10.400
64920W        W30180  44.659   7.264  11.246
64921W        W30181  32.542  32.420  12.482
64922W        W30182  11.273  11.839   0.284
64923W        W30183  19.677  29.310   4.159
64924W        W30184  20.074  33.359   3.784
64925W        W30185   7.247   5.412   1.409
64926W        W30186   6.435  20.575   4.201
64927W        W30187   4.108  31.585   2.794
64928W        W30188   6.688  31.101  14.146
64929W        W30189  17.810  18.259  12.270
64930W        W30190  38.947  37.120  11.034
64931W        W30191  20.229   7.734   2.874
64932W        W30192  26.600  40.785  11.438
64933W        W30193   9.805  17.552   2.189
64934W        W30194  25.225  34.983   4.887
64935W        W30195  18.129  21.157  12.554
64936W        W30196  14.173  35.363   2.741
64937W        W30197  18.099  36.470  12.561
64938W        W30198  31.869  30.190   4.907
64939W        W30199   9.289   1.872   2.541
64940W        W30200  41.448  19.847  11.124
64941W        W30201  31.006  21.190   3.748
64942W        W30202  22.011  33.538   2.514
64943W        W30203  15.087  42.908  10.676
64944W        W30204  25.180  20.708   3.678
64945W        W30205   9.146  30.570   2.638
64946W        W30206  32.535  20.200   4.169
64947W        W30207   7.168  26.690   2.383
64948W        W30208   3.058   2.659   4.771
64949W        W30209  14.355  39.016   4.224
64950W        W30210  20.964   8.513  14.042
64951W        W30211  21.048  42.365  12.326
64952W        W30212   9.078  16.052   1.327
64953W        W30213  17.657  34.318  11.959
64954W        W30214   9.202  25.018  11.089
64955W        W30215  41.267  21.788  14.052
64956W        W30216  18.542  25.265   1.410
64957W        W30217  17.684  24.983  14.954
64958W        W30218  36.845  29.518   1.174
64959W        W30219  41.027  26.565   3.262
64960W        W30220  38.429   9.020   0.626
64961W        W30221  10.702   9.177  13.925
64962W        W30222   2.014  42.124   4.670
64963W        W30223   3.715   2.393  12.140
64964W        W30224  19.868  19.089  10.363
64965W        W30225  25.440  13.892  11.099
64966W        W30226  24.572  28.467   1.591
64967W        W30227  33.133  12.183  13.990
64968W        W30228  38.993   6.561  11.683
64969W        W30229  29.681   0.634  11.016
64970W        W30230  15.694   0.661  10.326
64971W        W30231  21.475  16.532  13.882
64972W        W30232  44.678   2.863  13.831
64973W        W30233  40.712   4.956   0.481
64974W        W30234  14.149  30.709  12.597
64975W        W30235  33.359  33.649   3.125
64976W        W30236  21.526  18.953   1.570
64977W        W30237   1.553  42.507  11.635
64978W        W30238  11.271  41.773  11.298
64979W        W30239   7.635  30.289   5.141
64980W        W30240  17.785  11.936   1.715
64981W        W30241  36.814  34.080  11.488
64982W        W30242  18.555  41.423  14.508
64983W        W30243   2.263  34.978  10.710
64984W        W30244  43.933  10.122   2.826
64985W        W30245   2.487  25.019   0.637
64986W        W30246  29.408  17.553  10.865
64987W        W30247  15.825   8.352   1.319
64988W        W30248  15.952  44.980   2.513
64989W        W30249   1.058   6.420  12.960
64990W        W30250  40.272   9.615  12.421
64991W        W30251   1.856  14.472  12.637
64992W        W30252  26.975   4.117   4.619
64993W        W30253  19.583   3.807   0.548
64994W        W30254  17.834  25.937   1.380
64995W        W30255  35.442   1.504  12.117
64996W        W30256  26.624   9.197  14.761
64997W        W30257  33.970  18.696   3.725
64998W        W30258  42.171   4.779  13.411
64999W        W30259   2.842   2.313   1.411
65000W        W30260   7.105  40.994  11.155
65001W        W30261  41.364  26.322   0.761
65002W        W30262  38.008  13.318  13.357
65003W        W30263  17.175  29.733  13.436
65004W        W30264   8.445  32.473  13.211
65005W        W30265   3.198   0.007  11.224
65006W        W30266  38.077  30.117  10.709
65007W        W30267  14.262  16.051   2.148
65008W        W30268  29.640   6.495  13.979
65009W        W30269  32.847  15.458   4.335
65010W        W30270   5.341  30.032   4.499
65011W        W30271  23.125  39.584  12.151
65012W        W30272  29.137  37.979  13.661
65013W        W30273  34.085   1.416  11.551
65014W        W30274  29.976   8.434  10.778
65015W        W30275   0.899   2.330  11.354
65016W        W30276  27.031   2.294   1.338
65017W        W30277  36.888  17.854  12.378
65018W        W30278  31.000  36.841  12.927
65019W        W30279  32.512   6.261  10.606
65020W        W30280  39.776   6.215  10.660
65021W        W30281  12.587  39.094  11.960
65022W        W30282   4.789  23.071   0.716
65023W        W30283  19.219  19.233  14.935
65024W        W30284  29.295   0.884   1.432
65025W        W30285   6.083   7.651   1.792
65026W        W30286  31.351  10.923   1.244
65027W        W30287  26.757   8.375   3.351
65028W        W30288  23.460  18.819   2.289
65029W        W30289   8.707  43.904  12.537
65030W        W30290   9.911   8.676   1.456
65031W        W30291  42.316  26.975  13.515
65032W        W30292  13.299   7.414   0.265
65033W        W30293  21.296   8.748  12.482
65034W        W30294  12.449  19.485   4.204
65035W        W30295  12.203  20.996  13.114
65036W        W30296  28.501  25.672  11.548
65037W        W30297  33.718  24.068  13.133
65038W        W30298   9.468  27.507   0.959
65039W        W30299  28.521   2.754   4.724
65040W        W30300  33.839  29.509   1.294
65041W        W30301  14.015  35.817  11.190
65042W        W30302  40.518  16.946  13.319
65043W        W30303  31.887  26.717  11.106
65044W        W30304   1.884  42.788   2.247
65045W        W30305  22.576  23.787   2.725
65046W        W30306   8.149  33.646  14.239
65047W        W30307  36.354  28.720   2.018
65048W        W30308  10.399  10.293  14.004
65049W        W30309  11.390  29.557   1.535
65050W        W30310   1.236  35.879   1.219
65051W        W30311  14.786  37.997   1.158
65052W        W30312  36.115  16.165   4.146
65053W        W30313   0.774  28.723   2.636
65054W        W30314  14.481  39.897  12.894
65055W        W30315  37.345  32.524   0.239
65056W        W30316  31.200  14.624  13.854
65057W        W30317   4.091  32.648  13.395
65058W        W30318  27.983   6.432   3.653
65059W        W30319   5.172  31.961   4.107
65060W        W30320  24.124  39.063   5.084
65061W        W30321  38.073  38.988   1.304
65062W        W30322  40.651  19.234   0.370
65063W        W30323  19.716   7.832   1.609
65064W        W30324   2.841  42.971   2.890
65065W        W30325  29.177  17.082  10.618
65066W        W30326  33.056  11.522  11.211
65067W        W30327   6.474   5.736  10.705
65068W        W30328  29.307   9.299   0.333
65069W        W30329   0.646   1.728   4.560
65070W        W30330  41.517  40.000   0.207
65071W        W30331  25.137   6.941   0.088
65072W        W30332  39.995  18.838   2.846
65073W        W30333  10.695   1.546  11.544
65074W        W30334   7.220  31.501   0.413
65075W        W30335   1.929  24.477   1.852
65076W        W30336   9.466  29.680  10.257
65077W        W30337   4.542   0.728  12.850
65078W        W30338  14.047  27.494   3.184
65079W        W30339  33.901  35.582   3.148
65080W        W30340   2.691   2.667  11.124
65081W        W30341  33.347  42.036   9.984
65082W        W30342  26.770  13.203  11.107
65083W        W30343  44.367  38.451   4.654
65084W        W30344  18.705  19.088  11.944
65085W        W30345  16.307  18.655   0.496
65086W        W30346  40.940  30.639   1.379
65087W        W30347  29.119  35.271   4.932
65088W        W30348  27.433   3.875   0.774
65089W        W30349  20.580  27.487   1.286
65090W        W30350  31.165  20.223   3.686
65091W        W30351  14.193  40.595   0.966
65092W        W30352  34.725   3.952  11.793
65093W        W30353  29.564  43.018  13.899
65094W        W30354  12.578  24.466   1.429
65095W        W30355  14.856   9.284   4.440
65096W        W30356  29.606   7.721   0.976
65097W        W30357  43.695   5.166  12.613
65098W        W30358  27.879  38.040  14.506
65099W        W30359   6.487  24.629  13.848
65100W        W30360  18.309  27.553  13.409
65101W        W30361  35.716  32.373   1.376
65102W        W30362  32.657  35.990  12.145
65103W        W30363   4.676  39.490  11.432
65104W        W30364  35.857  24.819  11.564
65105W        W30365  38.838  43.051   2.327
65106W        W30366  41.254  43.524  13.926
65107W        W30367  44.898  31.172  13.497
65108W        W30368  20.791  40.903  13.877
65109W        W30369   8.683  32.359  10.262
65110W        W30370   5.586  24.644   0.251
65111W        W30371  12.033  16.503  11.890
65112W        W30372   0.773  11.051   5.235
65113W        W30373  38.526  15.602   3.619
65114W        W30374  30.442  20.282   4.506
65115W        W30375  25.193   9.383  11.569
65116W        W30376  34.173   9.612   3.183
65117W        W30377   4.266   4.360   1.366
65118W        W30378  39.504  41.945  11.950
65119W        W30379  17.246  35.017  12.146
65120W        W30380  36.265  38.784  10.362
65121W        W30381  44.022   6.633   1.323
65122W        W30382  15.090  19.782  13.757
65123W        W30383  21.083  40.931  14.425
65124W        W30384  11.345   8.607  12.910
65125W        W30385  34.430  23.113  11.943
65126W        W30386  12.121  35.537   0.880
65127W        W30387  28.037  43.807  11.672
65128W        W30388  11.470   4.755  11.789
65129W        W30389  40.234  44.900  11.412
65130W        W30390  14.612  37.577   3.632
65131W        W30391   6.726   1.180   2.017
65132W        W30392  25.185   7.404   1.884
65133W        W30393  23.740  22.521   0.288
65134W        W30394  14.822  42.932   5.162
65135W        W30395  36.955  12.412   2.670
65136W        W30396  31.425   7.463   3.555
65137W        W30397   7.843  16.517   1.922
65138W        W30398  38.114   7.925  14.579
65139W        W30399  28.451  35.294   0.829
65140W        W30400  43.842   4.420   2.726
65141W        W30401   4.304  39.968   1.237
65142W        W30402   3.524  25.177   1.676
65143W        W30403  20.068  41.143  12.127
65144W        W30404  25.258  13.616   2.798
65145W        W30405   5.201   6.316   4.584
65146W        W30406   2.311  19.658   4.080
65147W        W30407  18.743  19.208  13.429
65148W        W30408  11.086  44.805   1.338
65149W        W30409  22.999  31.238  14.291
65150W        W30410  38.294  20.250  13.059
65151W        W30411  36.690  42.800  12.521
65152W        W30412   4.680   2.367   1.189
65153W        W30413  38.914  27.899  12.782
65154W        W30414  10.498   3.484   3.171
65155W        W30415  24.445  20.592  12.044
65156W        W30416   7.892  12.254  12.854
65157W        W30417  29.903  22.060  13.831
65158W        W30418  40.324  13.860  14.253
65159W        W30419   1.304  34.468  13.309
65160W        W30420  32.549  14.409   2.700
65161W        W30421   0.472  27.019   2.397
65162W        W30422   1.460   2.341   1.369
65163W        W30423  32.603  32.645   3.359
65164W        W30424  16.794  37.427  11.684
65165W        W30425  25.163  14.232   4.356
65166W        W30426  30.582  12.284  13.924
65167W        W30427  29.611  35.904   4.613
65168W        W30428  21.840  25.260  13.044
65169W        W30429   3.237  28.515   3.586
65170W        W30430  31.449  41.790   3.231
65171W        W30431   1.814  41.486   0.948
65172W        W30432  44.790  25.223   4.252
65173W        W30433   7.455  43.973   3.148
65174W        W30434   5.958   8.964   4.072
65175W        W30435  36.542  33.338  12.617
65176W        W30436  43.442  25.937   1.011
65177W        W30437  13.653   8.633   4.152
65178W        W30438   3.218  42.481  11.825
65179W        W30439  27.449  31.568   0.034
65180W        W30440  23.613  15.223  14.017
65181W        W30441  39.589  33.213   0.880
65182W        W30442  15.317  31.566   1.220
65183W        W30443  41.720  35.648   3.289
65184W        W30444   2.406  33.348   0.133
65185W        W30445   9.321  26.752   3.175
65186W        W30446  14.798   8.035   2.926
65187W        W30447  31.644  10.614   4.606
65188W        W30448  33.448   8.800   2.823
65189W        W30449  34.526  37.662  10.842
65190W        W30450  39.657  21.037  12.064
65191W        W30451   3.209  44.976  14.994
65192W        W30452  17.767   0.333  12.054
65193W        W30453   1.505   4.427   3.290
65194W        W30454  26.457  31.582  13.867
65195W        W30455  37.678  13.818   2.404
65196W        W30456  21.658  16.004   2.707
65197W        W30457  42.914  33.859  12.646
65198W        W30458   0.503  17.390   1.952
65199W        W30459   3.180  24.436  13.591
65200W        W30460  20.079  33.634   4.823
65201W        W30461  36.074  11.404   3.258
65202W        W30462  37.124   1.916   0.821
65203W        W30463   2.446  44.722   0.725
65204W        W30464  23.438  27.023  13.539
65205W        W30465  28.337  31.168  11.946
65206W        W30466   1.951   2.326   1.550
65207W        W30467  12.598  17.723  11.179
65208W        W30468  24.553  14.659  12.143
65209W        W30469  11.543  10.733  10.677
65210W        W30470   1.835  27.434   0.800
65211W        W30471  25.145  15.886  13.108
65212W        W30472  40.810  38.692  14.385
65213W        W30473  23.593   4.510   4.094
65214W        W30474  36.451  19.285   0.426
65215W        W30475  38.882   6.207   2.258
65216W        W30476  16.819  25.214  12.406
65217W        W30477  10.329  44.935  12.451
65218W        W30478  20.763  38.816  10.126
65219W        W30479  33.070   1.196  14.238
65220W        W30480  37.188  14.672  13.314
65221W        W30481  20.533  16.121  11.264
65222W        W30482  24.475  22.001   1.432
65223W        W30483  28.464   9.707  12.329
65224W        W30484  27.611  43.491   3.536
65225W        W30485   3.971  22.008  11.190
65226W        W30486  29.867  39.537   4.051
65227W        W30487  22.156  27.906  14.246
65228W        W30488  32.523  26.042   2.721
65229W        W30489  25.763   6.681   0.485
65230W        W30490  40.170  20.688  12.332
65231W        W30491  37.490   2.158  11.979
65232W        W30492  22.271  20.061   0.811
65233W        W30493  39.449  16.667   1.454
65234W        W30494  44.011  41.281  12.892
65235W        W30495  25.087  35.827   1.250
65236W        W30496  40.504  36.800   0.407
65237W        W30497   1.793   7.343  13.370
65238W        W30498  35.730  38.361  11.147
65239W        W30499  11.082  44.796  12.041
65240W        W30500   4.772  10.428   4.660
65241W        W30501  37.612  23.316  13.619
65242W        W30502  14.253   7.659  11.554
65243W        W30503  43.042  19.059   0.276
65244W        W30504  17.040  43.992   3.280
65245W        W30505  19.416  32.901   2.271
65246W        W30506   0.015  10.709  12.412
65247W        W30507  18.030  22.267  13.287
65248W        W30508  43.879   0.847   3.190
65249W        W30509  16.009  25.601   3.805
65250W        W30510  40.256  38.361  13.897
65251W        W30511   7.958  24.326   0.747
65252W        W30512  21.060  18.396   0.246
65253W        W30513  10.376  23.063   2.614
65254W        W30514  19.318  25.167  14.865
65255W        W30515  28.453  23.016   2.592
65256W        W30516  21.190  23.980   0.745
65257W        W30517   5.001  14.560   3.668
65258W        W30518  18.546  21.904   0.820
65259W        W30519  24.303  44.883   2.209
65260W        W30520   0.895  12.081  12.110
65261W        W30521  20.541  31.286   4.957
65262W        W30522  25.381  21.729  12.184
65263W        W30523  42.963  26.378  10.693
65264W        W30524  11.135  23.078  14.810
65265W        W30525   1.749  11.752  12.940
65266W        W30526  33.577  19.969   1.285
65267W        W30527  20.670  27.925   2.193
65268W        W30528  12.716  42.257  14.025
65269W        W30529  35.382  24.193  14.902
65270W        W30530  38.107   8.868   3.169
65271W        W30531  18.305  32.089   2.131
65272W        W30532  38.911  34.862   1.295
65273W        W30533  26.020   4.916  13.251
65274W        W30534  17.031   8.747   2.255
65275W        W30535   5.212  29.513  13.039
65276W        W30536  38.996  40.071  10.123
65277W        W30537  11.589  33.794   2.177
65278W        W30538  33.141   1.724  14.153
65279W        W30539  33.423  44.134  11.964
65280W        W30540  42.549   5.798  13.785
65281W        W30541   6.646   1.357  14.014
65282W        W30542  20.968  29.663  11.490
65283W        W30543  22.770   7.667   4.538
65284W        W30544   7.734  22.765  14.940
65285W        W30545  28.254  15.989   2.937
65286W        W30546  44.530  42.904   0.038
65287W        W30547   4.872   2.849  13.299
65288W        W30548  20.083  28.724  12.077
65289W        W30549  33.135  16.298   0.042
65290W        W30550   4.174   8.271   0.927
65291W        W30551  16.194  28.019   0.155
65292W        W30552  31.117   7.301   3.194
65293W        W30553  22.660  12.190   0.003
65294W        W30554  38.336  23.029   1.950
65295W        W30555  42.342  18.217  12.993
65296W        W30556   1.576   8.842   2.606
65297W        W30557  26.103  19.249  14.483
65298W        W30558  40.068  21.517  14.270
65299W        W30559  12.692  12.727  13.091
65300W        W30560  32.820  39.823   1.902
65301W        W30561  33.662  14.903  12.788
65302W        W30562  30.124  24.986  12.579
65303W        W30563  21.709   0.185   1.432
65304W        W30564  41.699  41.972   3.441
65305W        W30565  41.493  19.215   4.676
65306W        W30566   5.425  27.426   1.867
65307W        W30567  32.376   6.417   0.396
65308W        W30568  28.875  23.940  14.735
65309W        W30569  35.831  39.155  10.891
65310W        W30570  32.905   3.297  12.400
65311W        W30571  18.344  10.252  14.848
65312W        W30572  26.663  26.517   2.055
65313W        W30573  36.516  31.688   4.305
65314W        W30574   9.646  10.244  10.582
65315W        W30575  20.580   2.257  11.991
65316W        W30576  43.989  30.079   4.676
65317W        W30577  21.630  33.122  13.062
65318W        W30578  20.765  14.105  12.067
65319W        W30579  43.979  30.577  13.072
65320W        W30580   3.721  27.606   4.171
65321W        W30581  39.367  35.883  14.196
65322W        W30582  34.002  11.768  12.290
65323W        W30583  13.312   7.306  14.725
65324W        W30584   2.842  28.686  11.445
65325W        W30585  38.386   2.303   3.151
65326W        W30586  31.115  22.883  10.999
65327W        W30587   7.396  36.550   3.748
65328W        W30588  37.600  36.062   0.536
65329W        W30589  31.678  27.251   1.258
65330W        W30590  35.555  26.710  13.365
65331W        W30591  11.636  17.965   2.328
65332W        W30592  33.352   9.196  12.070
65333W        W30593  44.934   4.208   1.281
65334W        W30594  24.482   4.839   0.733
65335W        W30595  37.373  24.221  13.573
65336W        W30596  35.878  12.793   1.636
65337W        W30597  13.919  29.366  12.377
65338W        W30598  11.724   4.376   1.791
65339W        W30599  20.753   3.672  14.922
65340W        W30600   5.263   6.393   0.207
65341W        W30601  11.692  20.276  14.892
65342W        W30602  14.783  21.817  10.749
65343W        W30603  16.856  42.325   3.804
65344W        W30604   4.233  24.994  12.937
65345W        W30605   9.230  38.377  12.879
65346W        W30606  13.122   3.257   1.121
65347W        W30607  22.241  38.834   2.771
65348W        W30608  32.790  38.069   2.512
65349W        W30609  40.773   7.861  11.113
65350W        W30610   8.776  30.545  11.967
65351W        W30611  23.468   5.301   0.864
65352W        W30612  24.057  28.617  12.510
65353W        W30613  39.706   1.212   1.845
65354W        W30614  10.064  15.856  10.392
65355W        W30615  38.132  21.761  11.274
65356W        W30616   5.148  20.698   4.929
65357W        W30617  30.129  15.636   0.906
65358W        W30618  35.174  20.748  11.992
65359W        W30619  27.464  22.796  14.963
65360W        W30620  41.853  40.503   1.302
65361W        W30621   5.122  16.955   1.856
65362W        W30622  11.302  16.281   0.900
65363W        W30623  17.166   5.927   3.315
65364W        W30624  31.004  14.694  12.863
65365W        W30625  42.403  37.764  11.888
65366W        W30626  15.149   9.423  12.289
65367W        W30627  19.023  23.016   3.798
65368W        W30628  27.303  40.589   1.330
65369W        W30629  36.931  36.469  12.992
65370W        W30630  21.501   1.931   1.918
65371W        W30631  43.836  36.567   1.778
65372W        W30632  35.524  18.509  11.651
65373W        W30633  28.672   0.873   0.913
65374W        W30634  43.110  25.113   1.000
65375W        W30635  22.658  44.334  10.301
65376W        W30636   3.257  21.711   2.695
65377W        W30637  23.064  40.829   2.448
65378W        W30638   2.929  22.004   1.908
65379W        W30639  19.237  44.855  13.246
65380W        W30640  26.904  16.528   4.158
65381W        W30641  35.885  35.669   2.304
65382W        W30642  43.415  24.328  11.666
65383W        W30643  12.508  41.928  13.396
65384W        W30644  41.274  11.229  10.795
65385W        W30645  37.991  12.750   4.083
65386W        W30646  10.378   6.665  11.886
65387W        W30647  26.805  17.539  10.635
65388W        W30648  43.284  34.414   0.162
65389W        W30649   1.455   9.601   3.712
65390W        W30650  19.264  21.610   0.891
65391W        W30651   5.307  15.221   0.918
65392W        W30652   6.422  27.878  14.024
65393W        W30653  29.935  33.493   3.195
65394W        W30654  18.788  39.811  11.125
65395W        W30655   1.401  44.243   2.792
65396W        W30656  28.853  39.002   1.625
65397W        W30657  26.825  37.011  14.326
65398W        W30658  30.423  18.058  12.101
65399W        W30659  19.765  28.642   1.442
65400W        W30660  26.533   9.917   1.357
65401W        W30661   0.329   6.876  11.639
65402W        W30662   3.293  19.221  11.388
65403W        W30663  26.225  35.604   2.196
65404W        W30664  38.497  26.683  12.920
65405W        W30665  21.625  12.342  13.186
65406W        W30666  24.171  26.187  12.501
65407W        W30667  38.952  31.195   0.267
65408W        W30668   8.827  22.932   0.506
65409W        W30669  17.182  14.840  11.639
65410W        W30670  21.763   9.765  14.933
65411W        W30671  18.726  13.286  13.408
65412W        W30672   0.179  39.377   3.018
65413W        W30673  39.881  16.427   1.338
65414W        W30674  12.659  20.311  12.073
65415W        W30675  34.935   6.126  13.793
65416W        W30676   4.951  12.291   0.725
65417W        W30677   8.369   3.139  11.620
65418W        W30678  15.046  28.002  10.982
65419W        W30679  25.485  26.669  13.785
65420W        W30680   8.394  44.019   2.331
65421W        W30681  16.690  26.167  10.756
65422W        W30682   0.378   9.668   0.185
65423W        W30683  34.845  15.162  14.457
65424W        W30684  26.421  37.545  14.989
65425W        W30685  19.510  25.031  13.425
65426W        W30686  19.057  26.624  14.073
65427W        W30687  19.031   8.476  12.577
65428W        W30688   2.010  40.937  14.600
65429W        W30689  32.860  25.584  14.755
65430W        W30690  35.648  11.864   1.370
65431W        W30691  27.262  42.305   3.433
65432W        W30692  21.237   0.848  10.597
65433W        W30693  41.046  40.285   3.640
65434W        W30694   8.584  12.946   0.972
65435W        W30695   3.166   8.811   3.642
65436W        W30696  27.413  22.756   2.718
65437W        W30697  22.708   0.896   0.860
65438W        W30698   6.207  21.618  12.257
65439W        W30699  30.852  23.678   0.798
65440W        W30700   1.007   9.770   1.950
65441W        W30701  37.815  22.596   5.080
65442W        W30702  23.494   4.374  13.053
65443W        W30703  37.409  28.407  14.427
65444W        W30704  21.035  12.246   4.140
65445W        W30705  31.528   8.116   1.200
65446W        W30706  32.083  29.697   1.813
65447W        W30707  40.836  44.802   3.222
65448W        W30708  10.176  23.607   1.317
65449W        W30709   3.210  35.422  12.093
65450W        W30710  36.148  21.237  10.362
65451W        W30711  38.240  17.805   0.889
65452W        W30712   3.701  38.640  14.943
65453W        W30713  39.767  30.957   3.791
65454W        W30714  16.465  29.968  14.109
65455W        W30715  30.062  29.606   0.948
65456W        W30716  11.798   4.953   0.947
65457W        W30717   4.953  17.704   2.133
65458W        W30718  29.166  42.900  13.497
65459W        W30719  29.282  33.690   1.303
65460W        W30720  29.567   1.840   0.519
65461W        W30721  20.978   2.998   1.321
65462W        W30722  28.005  25.777  11.580
65463W        W30723   1.928  39.355   1.281
65464W        W30724  32.908  33.078   1.014
65465W        W30725   0.797   1.575  10.249
65466W        W30726  37.785  15.527  11.227
65467W        W30727  27.547  22.220  10.633
65468W        W30728  40.297   5.372  14.666
65469W        W30729  12.181  33.682   3.261
65470W        W30730  37.262  39.244   5.046
65471W        W30731  13.776  31.398   2.861
65472W        W30732  30.417  19.336   4.498
65473W        W30733  17.852  44.997  11.499
65474W        W30734  38.777  41.446   3.326
65475W        W30735  42.340  23.836   1.874
65476W        W30736  24.698  39.024   2.862
65477W        W30737  27.592  33.052  10.675
65478W        W30738  42.047  15.078   2.802
65479W        W30739   9.943  32.396  14.827
65480W        W30740  32.434  16.064  11.175
65481W        W30741  28.891  12.718   2.623
65482W        W30742  25.753  41.550   3.160
65483W        W30743  22.263   8.263  14.351
65484W        W30744  11.614  26.179   1.228
65485W        W30745  37.312  42.450  10.658
65486W        W30746   8.642  12.498  12.198
65487W        W30747  28.053  24.751   3.193
65488W        W30748  20.015  10.987   0.391
65489W        W30749  42.265  28.693  14.567
65490W        W30750  19.766  26.999  14.037
65491W        W30751  41.545  44.751  11.018
65492W        W30752   3.949  17.139   0.727
65493W        W30753  34.936  41.824   3.565
65494W        W30754  44.443  31.491   1.980
65495W        W30755  11.160   3.648   0.283
65496W        W30756  29.634  16.098  11.006
65497W        W30757  22.609  21.661   0.386
65498W        W30758  20.564  38.831   1.203
65499W        W30759  28.120  42.564  12.789
65500W        W30760  28.457  37.384  10.544
65501W        W30761   8.745  19.860  11.983
65502W        W30762  11.166   5.805   3.636
65503W        W30763  29.644  24.009   1.283
65504W        W30764  14.052  40.364   2.343
65505W        W30765  32.984  18.178   2.740
65506W        W30766  20.728  33.634  13.355
65507W        W30767  14.217   1.980   2.680
65508W        W30768  27.145  42.725  12.014
65509W        W30769  31.998  30.968  11.610
65510W        W30770  20.747  29.450   3.305
65511W        W30771  11.439   0.293  10.737
65512W        W30772  25.507  19.031  13.380
65513W        W30773  27.214  16.860  11.425
65514W        W30774  15.090   7.853  11.055
65515W        W30775  17.581   9.778   4.737
65516W        W30776  32.112   7.780   5.204
65517W        W30777  29.208  27.027  11.641
65518W        W30778  27.678  38.795   4.159
65519W        W30779  15.329  41.443  11.977
65520W        W30780  38.090  17.033  13.539
65521W        W30781   4.290  15.563  12.499
65522W        W30782   2.999  21.514  12.151
65523W        W30783  38.974  11.313   0.766
65524W        W30784  37.878  41.341   0.373
65525W        W30785  10.201  11.654  14.073
65526W        W30786  43.496  13.898  11.058
65527W        W30787   1.806   5.280  14.883
65528W        W30788   8.870  28.971  11.442
65529W        W30789  18.695  14.743  11.547
65530W        W30790  14.385  26.904  10.637
65531W        W30791   0.233  11.693  14.655
65532W        W30792  24.675  39.668  14.024
65533W        W30793  21.236  20.111   0.869
65534W        W30794  29.083   4.248  12.120
65535W        W30795   5.366  37.891  14.955
65536W        W30796   8.726  34.434  11.549
65537W        W30797  28.954  28.726  12.101
65538W        W30798  21.173  30.522   3.536
65539W        W30799  39.156  26.154   1.703
65540W        W30800  33.617  33.140   2.390
65541W        W30801  20.327  24.546   2.221
65542W        W30802  16.100  22.552  12.064
65543W        W30803  32.801  41.459  11.367
65544W        W30804  26.884  25.442   3.267
65545W        W30805  39.805  36.086  14.375
65546W        W30806  34.527  36.129   2.791
65547W        W30807  15.820  29.696   0.327
65548W        W30808   5.860   3.820   3.374
65549W        W30809  36.671  44.510  13.966
65550W        W30810  24.707  37.867  13.427
65551W        W30811  17.593  12.597  10.524
65552W        W30812  23.296  19.587   3.668
65553W        W30813  16.422  37.155   3.201
65554W        W30814  26.143  37.134   0.356
65555W        W30815  36.055  34.541   4.048
65556W        W30816  38.331  29.023   3.672
65557W        W30817   8.449  36.952  11.164
65558W        W30818  23.509  26.245   3.304
65559W        W30819  24.198  27.232  11.173
65560W        W30820  14.773  24.948   0.860
65561W        W30821  10.693  24.566  14.576
65562W        W30822  26.586  42.808   0.027
65563W        W30823  30.545  31.921   3.812
65564W        W30824   0.760  44.937  13.064
65565W        W30825   7.406   7.849   4.419
65566W        W30826  13.071  30.638   0.798
65567W        W30827  35.026  27.715   1.199
65568W        W30828   9.839   8.750   0.118
65569W        W30829  10.379  36.726  14.169
65570W        W30830  41.416  41.705  10.987
65571W        W30831  33.270   3.812  10.747
65572W        W30832   0.319   6.625  11.211
65573W        W30833  10.158  29.522   3.107
65574W        W30834  27.578   1.439  10.697
65575W        W30835  21.863  21.684  11.303
65576W        W30836  36.757  25.489  13.521
65577W        W30837  16.984   9.694  11.352
65578W        W30838   6.207  15.491  12.492
65579W        W30839  32.366  27.545  12.958
65580W        W30840   7.177  44.047   3.566
65581W        W30841   8.553  37.062   4.667
65582W        W30842  28.937  22.091   0.416
65583W        W30843  30.940   9.579  12.832
65584W        W30844  33.560   8.369   2.226
65585W        W30845  18.290  23.646  13.974
65586W        W30846  36.431  40.432   3.653
65587W        W30847   7.874  28.032  10.776
65588W        W30848  28.146  16.909   1.360
65589W        W30849  44.477   3.374   2.171
65590W        W30850   0.959  43.022  14.872
65591W        W30851  40.102  39.507  14.786
65592W        W30852  18.470   8.994   0.255
65593W        W30853  11.935   9.096   1.711
65594W        W30854  21.705  39.364   4.280
65595W        W30855  28.564  17.990  11.094
65596W        W30856  36.613   9.139  12.373
65597W        W30857  38.207  33.573   1.949
65598W        W30858  42.751  40.998   1.459
65599W        W30859  16.560  17.726  11.493
65600W        W30860  29.425  26.115   1.911
65601W        W30861  25.523   5.984  13.024
65602W        W30862  33.588  28.266   3.331
65603W        W30863  15.049  37.672   1.507
65604W        W30864  23.568   7.643  13.573
65605W        W30865  22.203   7.285   4.016
65606W        W30866  29.572  30.978  14.452
65607W        W30867  22.775   7.353  12.697
65608W        W30868  31.947  11.465   0.725
65609W        W30869   1.809  22.145  12.036
65610W        W30870   3.986  30.346  11.176
65611W        W30871  10.854  26.035  13.565
65612W        W30872   9.278  33.294  12.341
65613W        W30873  10.356  37.035   3.714
65614W        W30874  43.950  41.014  10.593
65615W        W30875  39.241  27.995  11.273
65616W        W30876  35.690  37.423   1.407
65617W        W30877   0.049   4.797   4.285
65618W        W30878  12.657  20.652  10.384
65619W        W30879  13.543  23.158  12.497
65620W        W30880  15.246  34.670   0.213
65621W        W30881  44.481  19.610  14.990
65622W        W30882   5.190  27.938  13.335
65623W        W30883  18.542  34.925   0.077
65624W        W30884  29.855  30.544  11.470
65625W        W30885   1.381   5.732   1.346
65626W        W30886  10.744  12.953  13.869
65627W        W30887   6.366  17.015  12.017
65628W        W30888  16.693  25.787   2.687
65629W        W30889  10.819  35.432  10.530
65630W        W30890  12.155  34.325  13.560
65631W        W30891  39.425   0.301  12.139
65632W        W30892  21.092   1.307   0.805
65633W        W30893   0.585   4.309   1.742
65634W        W30894  42.927  27.216   4.955
65635W        W30895  43.855  40.241   2.388
65636W        W30896  33.626  44.791  14.770
65637W        W30897   3.564  28.886   1.747
65638W        W30898  13.253   7.462  13.415
65639W        W30899  31.682  30.372   9.466
65640W        W30900  30.474  16.257  10.730
65641W        W30901   4.891   2.906  14.297
65642W        W30902  40.251  28.238   3.798
65643W        W30903  10.583  20.235   3.675
65644W        W30904  23.673  17.341  11.700
65645W        W30905   1.353   4.593   1.425
65646W        W30906  21.800  19.380   2.766
65647W        W30907  30.939  29.921   2.240
65648W        W30908  28.467  18.469  10.910
65649W        W30909  17.990  36.629   3.077
65650W        W30910  37.625  28.494  12.232
65651W        W30911  13.703  22.315   3.658
65652W        W30912   6.804  25.617  13.036
65653W        W30913  31.211   6.730   2.368
65654W        W30914  38.003  14.275  13.316
65655W        W30915  38.590  38.619  13.266
65656W        W30916  10.669  44.225   3.883
65657W        W30917  14.767  18.998   0.355
65658W        W30918  32.621   0.377   1.908
65659W        W30919   0.987  17.329   1.678
65660W        W30920  17.165   8.432  14.852
65661W        W30921  26.031  14.820  10.540
65662W        W30922  38.934  34.640   1.745
65663W        W30923  39.511  14.686   1.278
65664W        W30924  22.153  44.892   2.342
65665W        W30925  40.306  32.884  13.026
65666W        W30926  21.638  24.224   4.849
65667W        W30927  15.356   8.291  11.928
65668W        W30928  38.517  26.725   1.490
65669W        W30929  27.194  18.473  13.983
65670W        W30930  24.146  13.256  13.044
65671W        W30931   1.308  15.514  10.604
65672W        W30932  20.262   3.040  12.100
65673W        W30933   0.126  16.745  12.471
65674W        W30934   1.021  26.613   0.780
65675W        W30935  12.024  16.634   4.744
65676W        W30936  13.131  40.501   1.335
65677W        W30937  19.566  27.685  12.355
65678W        W30938  39.375  44.642   3.188
65679W        W30939  22.276  13.295   0.788
65680W        W30940  10.358  13.254   1.289
65681W        W30941   3.174  37.301  12.974
65682W        W30942   5.988  27.033  14.973
65683W        W30943   5.224  39.922  13.998
65684W        W30944  27.556  15.654   2.139
65685W        W30945   3.712   6.021   1.402
65686W        W30946  24.695   3.513  13.040
65687W        W30947  31.092  11.221   2.575
65688W        W30948  39.321  28.478   3.915
65689W        W30949  41.969   6.790  11.998
65690W        W30950   8.810  19.989   5.129
65691W        W30951  13.825  28.730  10.608
65692W        W30952  36.969  14.619  13.875
65693W        W30953  44.796  36.402   3.750
65694W        W30954   1.285  44.230  11.511
65695W        W30955  41.533  36.107  14.486
65696W        W30956  26.761  40.630  13.469
65697W        W30957  16.123  34.529   3.359
65698W        W30958  37.330  26.937   1.238
65699W        W30959  17.247   1.299   2.308
65700W        W30960  11.436  22.954   2.197
65701W        W30961  23.002  30.396  13.884
65702W        W30962  37.893  37.945  12.532
65703W        W30963  30.219  35.791  14.278
65704W        W30964  11.096  36.259   2.417
65705W        W30965   1.521  37.066  11.952
65706W        W30966  42.789  25.404  12.690
65707W        W30967  20.290  11.101  13.852
65708W        W30968  25.791  14.536   4.836
65709W        W30969  13.680  41.449   2.070
65710W        W30970  33.563   2.767   3.902
65711W        W30971  11.827  44.718   2.171
65712W        W30972  30.013  38.906   2.713
65713W        W30973  22.424  15.022   1.287
65714W        W30974  31.422   6.854   4.060
65715W        W30975  10.357   2.122  13.406
65716W        W30976  44.926  28.866  14.764
65717W        W30977  36.040   0.057   4.168
65718W        W30978  32.757   5.198  11.394
65719W        W30979   1.559   1.523  14.655
65720W        W30980  38.275  29.604  13.527
65721W        W30981  36.655  35.639   2.747
65722W        W30982  19.542   9.661  10.655
65723W        W30983  14.166  20.505   2.706
65724W        W30984  43.642  39.698  14.388
65725W        W30985  29.909  28.707   1.147
65726W        W30986  24.800  29.639  11.203
65727W        W30987   4.815  30.857   1.450
65728W        W30988  42.737  37.344  10.078
65729W        W30989  29.597  35.910  12.640
65730W        W30990  16.936   2.400  13.984
65731W        W30991  14.523  32.038   2.364
65732W        W30992  42.498  38.795   3.694
65733W        W30993   8.947  27.074   1.294
65734W        W30994   7.781  22.204  12.410
65735W        W30995  35.622   4.612   1.509
65736W        W30996  36.328  21.872  12.068
65737W        W30997  17.042   2.199   2.313
65738W        W30998  13.764  14.513  12.989
65739W        W30999  16.675   8.070  10.963
65740W        W31000   1.776   0.208   2.714
65741W        W31001  16.857  14.354   0.815
65742W        W31002  11.218  18.017  14.383
65743W        W31003  22.178  41.241   4.933
65744W        W31004  32.768   3.795  10.765
65745W        W31005  36.470  21.078   5.265
65746W        W31006  41.971  13.132   0.460
65747W        W31007  37.059  13.801   4.100
65748W        W31008  13.644  19.747   4.524
65749W        W31009  21.807  21.076  12.593
65750W        W31010  36.818  33.379   4.229
65751W        W31011  39.258   9.640  10.895
65752W        W31012  30.139  19.021   4.177
65753W        W31013  24.723  36.591   1.217
65754W        W31014  13.226  24.684   4.642
65755W        W31015   2.155   6.587   3.195
65756W        W31016   2.615  28.271  12.192
65757W        W31017  19.759  19.017  13.566
65758W        W31018  25.047  19.681   1.009
65759W        W31019  24.037  43.942  11.638
65760W        W31020  27.663  11.032  14.028
65761W        W31021  37.482   3.813  11.257
65762W        W31022  30.454   7.668  12.404
65763W        W31023  24.733   9.738   3.305
65764W        W31024  31.627  12.861  12.910
65765W        W31025   8.188   5.425   1.271
65766W        W31026   7.426  21.946  13.359
65767W        W31027   4.985  14.584  14.755
65768W        W31028   6.736  24.643  10.638
65769W        W31029  39.157  43.484  14.910
65770W        W31030  30.884  28.972   3.169
65771W        W31031   0.001  40.462   3.840
65772W        W31032  12.594  36.325  14.805
65773W        W31033  34.638  19.550   0.782
65774W        W31034  25.378  12.651  12.622
65775W        W31035   3.995  35.663   2.829
65776W        W31036  21.951   9.437   1.417
65777W        W31037   5.936  33.051   3.215
65778W        W31038  32.191  37.341   4.674
65779W        W31039  24.332  36.069  13.511
65780W        W31040  20.178   6.199   5.030
65781W        W31041  44.344  22.806   1.923
65782W        W31042  16.649   3.822   2.828
65783W        W31043  37.111  36.465   2.418
65784W        W31044  25.525   7.261  12.369
65785W        W31045  26.642  23.795  12.083
65786W        W31046  16.659   2.777  12.838
65787W        W31047  13.368  44.593   1.334
65788W        W31048  31.761  21.783  11.466
65789W        W31049   8.311  24.381   4.981
65790W        W31050  41.791  42.881  12.048
65791W        W31051  33.032  28.575   4.545
65792W        W31052  25.556   2.550   4.623
65793W        W31053  24.103  29.505   4.598
65794W        W31054   2.495   2.530   3.970
65795W        W31055  24.042   2.819  11.992
65796W        W31056  42.529  37.363  10.954
65797W        W31057  12.752  15.050  12.993
65798W        W31058  11.766   0.313  12.396
65799W        W31059   2.206  28.996  14.851
65800W        W31060   3.913  18.644   1.167
65801W        W31061   5.374  39.145   2.327
65802W        W31062  28.557  34.015   0.444
65803W        W31063  11.319  12.287   2.226
65804W        W31064  18.247  28.860  11.706
65805W        W31065  34.525   7.644   1.450
65806W        W31066  35.930  18.589  13.822
65807W        W31067   4.300  35.007  11.922
65808W        W31068  43.493  23.392   0.763
65809W        W31069   5.471  18.704   3.982
65810W        W31070  16.214   1.024  13.900
65811W        W31071  16.934  17.065  10.177
65812W        W31072  25.178  16.353  11.612
65813W        W31073  18.559   4.371  13.543
65814W        W31074  26.678  22.311  11.056
65815W        W31075  10.132  38.309   3.296
65816W        W31076  16.381  18.480  11.156
65817W        W31077  10.898  28.857   0.883
65818W        W31078  22.536   1.509  12.888
65819W        W31079   3.691  22.649  11.893
65820W        W31080  12.931  13.053  11.077
65821W        W31081  33.726  33.373   0.860
65822W        W31082  39.299  19.345   0.729
65823W        W31083  39.911   1.990   0.690
65824W        W31084  32.871  29.920   2.345
65825W        W31085   9.555  16.824  13.431
65826W        W31086  42.832  37.609   1.920
65827W        W31087  24.575  10.387  13.905
65828W        W31088  34.327  31.212   0.277
65829W        W31089  13.908  13.148   3.485
65830W        W31090   7.771  41.935  13.303
65831W        W31091  40.310  41.094   0.667
65832W        W31092  37.312  37.009   1.925
65833W        W31093  25.815  36.967   2.416
65834W        W31094  44.868  41.774   4.652
65835W        W31095  34.652   8.238  14.859
65836W        W31096  14.159  44.662   2.704
65837W        W31097  37.611  39.927   4.874
65838W        W31098  16.076  24.597  12.703
65839W        W31099  36.933  14.401   1.406
65840W        W31100   6.239  15.805  13.305
65841W        W31101  44.812   2.832  11.074
65842W        W31102  29.272  14.570   1.299
65843W        W31103  33.810  19.217   3.820
65844W        W31104  29.881   6.903  14.441
65845W        W31105   8.500  22.195  12.383
65846W        W31106  18.570  26.059   1.861
65847W        W31107   5.440  42.381   2.410
65848W        W31108  27.624  25.964   1.471
65849W        W31109  12.220   6.996   2.361
65850W        W31110  44.129   2.027   0.395
65851W        W31111   2.038  11.923   0.469
65852W        W31112  41.448  14.124   1.828
65853W        W31113   1.246  31.424   0.031
65854W        W31114   8.270  31.642  14.490
65855W        W31115  23.734   3.262   0.250
65856W        W31116  26.528   9.723  14.758
65857W        W31117  28.114  16.352   3.894
65858W        W31118  38.052  13.254   0.770
65859W        W31119   4.698  26.284  14.801
65860W        W31120  14.169  41.085  12.390
65861W        W31121  35.002  16.224   1.218
65862W        W31122  26.627  11.607   1.764
65863W        W31123  24.097  40.739  13.369
65864W        W31124  29.937  37.960  12.051
65865W        W31125   4.304  39.774  11.130
65866W        W31126  11.235  11.370   1.850
65867W        W31127   1.842  24.797  11.776
65868W        W31128  39.920  31.712   1.296
65869W        W31129  43.959   8.721  10.559
65870W        W31130   9.642  13.763  14.430
65871W        W31131  24.195  16.602  12.954
65872W        W31132   1.225  30.164   4.002
65873W        W31133   6.291  40.980  10.753
65874W        W31134  41.848  11.047   3.564
65875W        W31135  36.802  41.995   2.362
65876W        W31136  28.967  32.630   3.977
65877W        W31137  37.867   6.746   2.635
65878W        W31138  29.444  34.472   0.864
65879W        W31139  35.507  22.984  13.047
65880W        W31140  15.212  26.820   3.715
65881W        W31141   6.448  24.858  10.282
65882W        W31142  23.248  26.320  11.181
65883W        W31143  22.741  21.773   2.673
65884W        W31144  41.959   3.523   1.801
65885W        W31145   9.739  26.035   2.993
65886W        W31146  21.561  23.793  11.597
65887W        W31147  21.298  40.905  11.665
65888W        W31148  13.088  19.727  14.493
65889W        W31149  38.106  30.590  11.991
65890W        W31150  14.102  16.411  13.562
65891W        W31151   7.774  18.304  14.526
65892W        W31152  18.623  34.375   1.748
65893W        W31153  37.323   8.600  13.970
65894W        W31154  43.993   6.831  11.635
65895W        W31155  22.619  18.619   2.800
65896W        W31156  23.856   3.766   0.486
65897W        W31157  22.615   9.950   0.898
65898W        W31158  37.861  42.570  12.530
65899W        W31159  35.577  31.027  14.453
65900W        W31160  17.549  23.472  12.392
65901W        W31161  14.498   7.920  11.972
65902W        W31162  34.479  23.177   3.198
65903W        W31163  37.363  25.694   4.522
65904W        W31164  29.985   9.410  12.872
65905W        W31165  13.870  11.255  12.053
65906W        W31166  14.405   7.198   9.925
65907W        W31167  13.311  36.123   2.201
65908W        W31168  35.858   6.460   1.870
65909W        W31169  29.496  31.029   4.369
65910W        W31170   9.817  29.080  14.683
65911W        W31171  20.158  17.664  14.781
65912W        W31172  14.587  43.720   0.285
65913W        W31173   2.157   4.860  11.620
65914W        W31174   0.384  15.213  14.904
65915W        W31175  30.169  41.774   2.318
65916W        W31176   8.197  10.194   4.433
65917W        W31177   1.917  37.273  13.371
65918W        W31178  41.293  14.125  13.834
65919W        W31179  35.988  14.119   2.400
65920W        W31180  28.657  16.453  10.927
65921W        W31181  24.612  37.638  12.077
65922W        W31182  31.593   3.750  14.355
65923W        W31183  40.080  22.204  10.774
65924W        W31184  28.423  42.927  11.519
65925W        W31185  20.367  12.771   0.972
65926W        W31186  37.516  43.574   0.567
65927W        W31187   5.781  38.990   0.824
65928W        W31188  18.756  33.562   2.904
65929W        W31189  12.322   9.823   0.819
65930W        W31190   1.964  24.909  14.280
65931W        W31191  19.734  15.164   1.681
65932W        W31192  16.344   8.903  11.146
65933W        W31193  11.265  19.678   3.126
65934W        W31194  44.193   1.437   4.610
65935W        W31195  22.085  38.398  13.756
65936W        W31196  36.200  36.485   1.116
65937W        W31197   6.107   5.345  11.933
65938W        W31198  29.590   8.265  12.051
65939W        W31199   1.325  28.162   0.367
65940W        W31200   0.049  35.096   2.552
65941W        W31201  19.048  13.790   1.447
65942W        W31202  42.274   2.717   4.180
65943W        W31203  34.029   3.391   3.555
65944W        W31204  42.374   4.769  13.883
65945W        W31205  14.261  33.322   1.855
65946W        W31206   1.046  44.347  11.984
65947W        W31207  30.029  12.800   1.802
65948W        W31208  36.452   2.751   1.837
65949W        W31209  16.710  33.015  14.976
65950W        W31210   7.981  35.388   1.612
65951W        W31211  19.339   1.084  14.823
65952W        W31212  13.944  23.011   1.060
65953W        W31213  26.125  36.896  10.958
65954W        W31214   9.371   1.958   3.572
65955W        W31215   6.457  14.678  10.913
65956W        W31216  36.091  39.501   0.422
65957W        W31217  11.616   2.860  13.930
65958W        W31218   2.879   3.854  14.023
65959W        W31219  11.528  40.327  13.851
65960W        W31220  34.283  23.115  13.958
65961W        W31221   0.031   0.178  14.471
65962W        W31222  15.753  41.046  14.880
65963W        W31223  10.994  19.491   5.076
65964W        W31224  28.150   6.498  14.470
65965W        W31225  35.611  24.148  11.145
65966W        W31226  16.670   5.240  12.970
65967W        W31227   1.675  39.553   1.731
65968W        W31228  21.950   7.878  12.657
65969W        W31229   5.233   7.288  10.746
65970W        W31230   2.408  18.335   2.872
65971W        W31231   4.892  37.319   4.758
65972W        W31232  35.879  24.050   1.721
65973W        W31233  28.080  12.538   0.520
65974W        W31234  42.373  20.730   4.077
65975W        W31235   2.007  12.888   3.321
65976W        W31236  33.584  18.567  13.378
65977W        W31237   7.181  32.586   0.987
65978W        W31238   7.878  13.360   0.309
65979W        W31239  33.451   3.729  11.583
65980W        W31240  28.005  13.737   1.418
65981W        W31241  14.175  20.805  11.319
65982W        W31242  42.462  20.299  14.862
65983W        W31243  35.441   6.437   4.521
65984W        W31244  22.116  14.852   2.243
65985W        W31245  21.181  15.009   4.070
65986W        W31246  21.232  34.341   4.609
65987W        W31247  16.746  30.016  10.533
65988W        W31248   4.137  15.616  11.693
65989W        W31249  42.884  21.046   0.511
65990W        W31250  44.518  30.204   2.455
65991W        W31251  40.456  16.206   3.997
65992W        W31252   3.243   5.854  11.683
65993W        W31253  26.867  33.974   0.310
65994W        W31254  18.542   5.890   2.887
65995W        W31255  10.423  23.727  14.000
65996W        W31256  37.198  13.336  13.788
65997W        W31257  40.298  43.761  12.136
65998W        W31258  23.604   0.896   4.564
65999W        W31259  30.994   5.470   2.506
66000W        W31260   3.669  39.794   2.298
66001W        W31261  22.524  13.946  14.573
66002W        W31262  19.311  28.645  13.666
66003W        W31263  44.287  10.937  14.318
66004W        W31264  18.748  21.236  12.117
66005W        W31265  32.801  42.164   4.150
66006W        W31266   4.545  26.176  12.425
66007W        W31267   9.251   4.370   4.612
66008W        W31268  26.494  34.599  10.308
66009W        W31269  14.577  22.603   2.695
66010W        W31270  28.122  37.856   2.253
66011W        W31271  43.869  21.687  13.807
66012W        W31272  35.174   5.412   0.480
66013W        W31273  20.222  44.449   4.387
66014W        W31274  37.616   6.147   2.772
66015W        W31275   3.812  33.615   1.749
66016W        W31276  37.150  14.314   4.267
66017W        W31277  19.425  39.328  11.640
66018W        W31278   6.506  21.309   0.758
66019W        W31279  20.525  37.472  11.746
66020W        W31280  21.368   8.882   2.301
66021W        W31281   6.895  27.313   0.063
66022W        W31282  31.918  23.189  13.407
66023W        W31283  38.056  15.718  10.840
66024W        W31284  19.877   9.745  11.036
66025W        W31285  36.081  44.740   3.339
66026W        W31286  38.308  24.255  12.547
66027W        W31287  21.295   6.909  12.288
66028W        W31288  10.198  29.026  12.565
66029W        W31289  16.447  24.662   4.864
66030W        W31290  41.424  16.320  14.781
66031W        W31291  27.230  34.554   3.323
66032W        W31292  43.849  21.179   4.689
66033W        W31293  34.731   9.679   4.777
66034W        W31294   3.349  36.781  10.430
66035W        W31295  40.876  11.716   1.792
66036W        W31296  10.286  19.092  11.200
66037W        W31297  34.179   2.904  11.105
66038W        W31298  15.803  37.463   2.420
66039W        W31299   9.453  31.179  12.043
66040W        W31300  16.890  44.963  11.592
66041W        W31301  18.108  37.054  10.584
66042W        W31302   3.390  33.613  14.406
66043W        W31303   6.123  28.546   4.538
66044W        W31304  11.332  21.104   1.853
66045W        W31305  33.443  22.493   2.133
66046W        W31306  15.514  15.767   4.496
66047W        W31307   9.228   4.227   2.714
66048W        W31308  43.307  33.996   5.077
66049W        W31309  35.029  26.291   0.023
66050W        W31310  27.845  42.737  12.372
66051W        W31311   0.769  44.289   0.149
66052W        W31312  10.197   1.806   4.855
66053W        W31313  14.189   8.484   1.372
66054W        W31314  23.506  14.196   1.393
66055W        W31315  43.062  35.071   1.653
66056W        W31316  42.900  32.120  12.890
66057W        W31317  29.594  32.473  11.600
66058W        W31318  11.262  27.411  11.004
66059W        W31319   3.923  36.100   5.110
66060W        W31320   5.494  20.140  11.105
66061W        W31321   2.924  33.390   0.358
66062W        W31322  25.465  10.913  12.337
66063W        W31323   9.161  31.571  11.258
66064W        W31324  34.699  40.804   3.613
66065W        W31325  28.275  15.659  12.477
66066W        W31326  19.084  28.406  10.700
66067W        W31327   6.390   7.713   4.962
66068W        W31328   0.601  11.078  14.306
66069W        W31329  29.539  32.348   0.883
66070W        W31330  44.172  31.513   2.391
66071W        W31331  20.291   3.776  14.405
66072W        W31332  12.921  15.788  12.587
66073W        W31333  22.293   3.993  14.352
66074W        W31334  37.085  16.691  14.779
66075W        W31335  21.716  32.061  13.571
66076W        W31336  41.671  31.847   1.942
66077W        W31337  13.854   7.814  10.295
66078W        W31338  14.190  31.577   3.790
66079W        W31339  12.377  23.973   4.014
66080W        W31340  36.488  15.565  10.538
66081W        W31341   4.427  18.532  13.187
66082W        W31342  30.066  26.476  14.094
66083W        W31343  34.486  20.431  10.772
66084W        W31344  41.907  17.277   2.226
66085W        W31345  40.449  37.002  13.757
66086W        W31346  44.975  23.125   4.230
66087W        W31347  28.106  24.743   4.601
66088W        W31348  19.553  43.905   3.178
66089W        W31349   8.584  29.491  14.558
66090W        W31350  22.969  32.812  14.406
66091W        W31351  35.291  17.486  10.885
66092W        W31352  36.094  24.922   1.100
66093W        W31353  13.827  17.957   2.675
66094W        W31354   0.172   9.335  13.016
66095W        W31355  25.288  18.641  12.527
66096W        W31356  19.867  35.061   2.729
66097W        W31357  17.707  42.504  11.084
66098W        W31358  32.901  23.764  14.230
66099W        W31359  10.589  32.666   4.556
66100W        W31360  35.954   5.908   3.340
66101W        W31361  39.267  42.825   4.239
66102W        W31362  11.206   1.759  13.327
66103W        W31363  41.414  23.939  14.959
66104W        W31364  36.398  26.548  12.913
66105W        W31365  38.697   9.959  12.521
66106W        W31366  21.023  40.561   3.145
66107W        W31367  32.218  17.127   4.898
66108W        W31368  20.021   2.920   1.653
66109W        W31369  19.174  16.870  11.459
66110W        W31370  37.665  27.821   3.679
66111W        W31371  11.385   7.265  11.652
66112W        W31372  38.795  41.787  11.736
66113W        W31373  42.947  10.185   3.117
66114W        W31374  11.751  36.572  14.403
66115W        W31375  23.636  28.917  13.697
66116W        W31376  34.005  35.612   1.223
66117W        W31377  28.908  19.057   0.320
66118W        W31378  29.701  25.103  14.769
66119W        W31379  21.482  29.607  12.619
66120W        W31380  37.921  25.343  11.610
66121W        W31381   5.425  14.791   1.468
66122W        W31382   3.259  13.565   1.664
66123W        W31383  21.059   7.226  12.620
66124W        W31384  18.673  19.063   2.659
66125W        W31385   6.409  34.966  13.534
66126W        W31386  11.579  36.977  10.823
66127W        W31387  13.774  32.499  11.597
66128W        W31388   6.280   0.328   3.032
66129W        W31389  40.586  12.180   2.764
66130W        W31390  17.621  33.500   0.925
66131W        W31391  23.727  26.936  12.257
66132W        W31392  33.531  22.999  12.065
66133W        W31393   8.404  35.899   2.178
66134W        W31394  20.530  19.911  14.262
66135W        W31395  32.457  31.408  10.542
66136W        W31396  44.474   4.266  11.244
66137W        W31397  39.792   1.946  13.494
66138W        W31398  42.897   5.919   0.535
66139W        W31399  26.334   2.484  11.396
66140W        W31400  41.851  11.845   1.623
66141W        W31401  22.709  41.189   2.719
66142W        W31402  31.567  44.935   2.100
66143W        W31403  23.532  35.602  13.512
66144W        W31404  35.120  21.510  11.043
66145W        W31405  31.999  26.111   1.455
66146W        W31406  30.531   9.940   0.846
66147W        W31407  29.591  43.422   2.844
66148W        W31408   2.820  40.832  11.140
66149W        W31409  14.607  25.167   5.034
66150W        W31410  19.120  18.827   1.878
66151W        W31411  16.785  43.325  12.875
66152W        W31412   5.724  23.715  13.342
66153W        W31413  34.122  23.676  13.841
66154W        W31414   5.473  40.480   0.705
66155W        W31415  37.974  37.060  14.696
66156W        W31416  35.195   1.519   0.152
66157W        W31417  32.198  10.861   3.247
66158W        W31418  11.399  17.187   1.548
66159W        W31419   2.087  13.139   4.287
66160W        W31420   4.963  14.179  11.652
66161W        W31421  13.130  10.752  12.298
66162W        W31422  23.170  10.719   4.120
66163W        W31423  11.387  11.703  12.605
66164W        W31424  37.337   4.847  12.492
66165W        W31425  32.119   5.671  13.073
66166W        W31426  11.152  18.967  12.975
66167W        W31427  27.430  39.273  13.428
66168W        W31428  35.976   8.800   2.806
66169W        W31429  42.472   0.808   3.300
66170W        W31430  29.011   1.910  14.353
66171W        W31431  34.876  34.139  11.975
66172W        W31432  19.765   8.385   4.594
66173W        W31433   0.800  17.692  11.660
66174W        W31434   5.902  26.203   0.895
66175W        W31435  40.502  14.618   0.054
66176W        W31436  31.192  35.357  12.866
66177W        W31437  41.577  20.459   4.990
66178W        W31438   3.477   0.336   0.261
66179W        W31439  42.596   4.059   3.722
66180W        W31440  19.565  26.129   1.846
66181W        W31441  14.583   2.262   2.434
66182W        W31442  22.956  11.750  11.622
66183W        W31443   0.208  14.722   0.004
66184W        W31444  33.065  11.787   0.304
66185W        W31445  17.785  25.631   2.261
66186W        W31446  26.921  32.875  14.539
66187W        W31447  11.153   4.789   3.626
66188W        W31448   7.193  34.492  10.734
66189W        W31449  11.353  41.388  12.321
66190W        W31450  30.053  44.274   1.350
66191W        W31451  10.547  37.106   3.232
66192W        W31452  42.938  30.101   4.700
66193W        W31453   7.893   9.753  14.299
66194W        W31454   2.183  20.076  13.804
66195W        W31455   9.343   5.382   0.903
66196W        W31456  37.089  18.235   3.391
66197W        W31457  26.078   9.631  11.882
66198W        W31458  17.241   2.351  12.178
66199W        W31459  22.556  14.813  11.232
66200W        W31460  41.447  36.404  12.448
66201W        W31461  24.258  31.572   5.117
66202W        W31462   4.153  39.229   2.343
66203W        W31463  29.107  25.525   1.457
66204W        W31464   9.143  10.196  14.036
66205W        W31465   1.909  43.195   2.578
66206W        W31466  40.660  17.648   0.950
66207W        W31467  29.101   7.537  14.617
66208W        W31468  18.264  16.473   3.303
66209W        W31469  13.345  26.972   2.863
66210W        W31470  11.793  43.244  13.805
66211W        W31471  11.562  37.223   4.989
66212W        W31472  23.980  27.082  14.417
66213W        W31473  33.173  28.871   0.846
66214W        W31474  40.853  28.518  11.606
66215W        W31475  38.897   5.222  11.054
66216W        W31476  39.755   5.829  12.436
66217W        W31477  28.110   3.212  11.987
66218W        W31478   7.775  14.216   0.097
66219W        W31479  16.905  22.001   0.497
66220W        W31480  26.158  16.244  14.134
66221W        W31481  16.296  18.934  14.692
66222W        W31482  27.645   1.789   0.604
66223W        W31483   2.445  21.536  12.928
66224W        W31484   8.545   2.411   5.006
66225W        W31485  42.316  16.129   2.936
66226W        W31486  20.533  36.369  14.377
66227W        W31487   6.241  14.299  12.744
66228W        W31488   7.689  43.537  13.337
66229W        W31489  24.261   3.215  12.994
66230W        W31490   9.861   1.727  12.050
66231W        W31491  14.618  33.698  12.112
66232W        W31492  33.572  38.943   1.300
66233W        W31493  43.039  32.690   3.689
66234W        W31494  18.740  35.384   0.602
66235W        W31495   7.807   7.483  14.265
66236W        W31496  37.868  19.167  14.568
66237W        W31497  20.233   0.444   1.262
66238W        W31498  20.586  28.099  12.446
66239W        W31499   5.326  21.623   4.181
66240W        W31500  36.318  15.699   0.898
66241W        W31501  29.932  43.005  13.018
66242W        W31502  35.689  33.465   2.381
66243W        W31503  20.211  13.319  13.379
66244W        W31504   3.227  15.122  11.390
66245W        W31505  29.266  13.953  12.566
66246W        W31506  30.013  26.038  12.925
66247W        W31507  44.008   6.213  13.529
66248W        W31508   9.010  29.079   1.360
66249W        W31509  23.846  11.375   3.242
66250W        W31510  13.082  40.531  11.027
66251W        W31511  12.902  28.983  10.664
66252W        W31512  30.249  34.768  12.600
66253W        W31513  34.383  44.919  10.346
66254W        W31514  27.027  30.300   4.953
66255W        W31515  43.781   0.529  12.077
66256W        W31516   0.249  19.013  11.725
66257W        W31517  39.094   3.868  13.476
66258W        W31518  41.821  38.447   0.391
66259W        W31519  42.342  16.608   4.054
66260W        W31520  29.302   7.722  13.309
66261W        W31521  26.612  27.886  13.432
66262W        W31522  38.406  10.516  12.511
66263W        W31523  36.151  19.074   3.561
66264W        W31524  11.327  17.737   4.468
66265W        W31525  24.840  25.028   3.067
66266W        W31526  40.669  35.391   1.948
66267W        W31527  11.277  18.758   3.149
66268W        W31528  22.208  28.521  12.274
66269W        W31529  18.245  31.758   0.383
66270W        W31530  14.486  26.032  14.598
66271W        W31531  35.683  26.558  12.101
66272W        W31532  43.998  13.918   4.988
66273W        W31533  23.303  43.384  13.607
66274W        W31534  25.204  14.344  11.082
66275W        W31535  42.161  37.067   0.332
66276W        W31536  27.161  43.333  10.591
66277W        W31537  12.257  15.648   2.830
66278W        W31538   5.257  32.922  14.908
66279W        W31539  35.693   5.180   4.981
66280W        W31540  11.128  37.482   1.489
66281W        W31541  32.152   1.995   0.287
66282W        W31542  23.917  17.012  12.015
66283W        W31543  22.478  43.396   4.023
66284W        W31544  21.107  22.492  11.178
66285W        W31545  16.973  39.848  10.302
66286W        W31546   4.418   4.355  14.449
66287W        W31547   6.476   8.253   2.399
66288W        W31548   6.199  31.426  12.931
66289W        W31549  40.916  13.179   2.639
66290W        W31550  43.312  26.727  12.518
66291W        W31551  37.243  38.406   3.421
66292W        W31552  43.747  21.597  12.413
66293W        W31553  16.675   1.824   2.379
66294W        W31554  11.387  13.103   1.394
66295W        W31555  24.770   1.440  11.386
66296W        W31556  39.935  27.058   3.378
66297W        W31557   2.444  21.067   0.907
66298W        W31558   6.762   1.617  14.949
66299W        W31559  38.470  33.468  10.775
66300W        W31560   1.133  35.225  13.286
66301W        W31561  26.679  35.457   3.345
66302W        W31562  41.849  44.410  12.098
66303W        W31563  29.032  43.348   4.626
66304W        W31564  27.973   0.266  13.526
66305W        W31565  38.963  36.379  11.490
66306W        W31566  21.746  41.753  11.672
66307W        W31567   9.778   1.949   0.943
66308W        W31568  23.736  25.194   3.626
66309W        W31569  20.323  18.155  14.871
66310W        W31570   9.861  27.094  10.739
66311W        W31571   4.455  11.857   3.224
66312W        W31572  24.254  35.134   0.382
66313W        W31573   0.261  41.822   1.769
66314W        W31574  42.527  10.427  10.977
66315W        W31575   7.218  38.524   4.726
66316W        W31576   3.441   9.959  14.435
66317W        W31577   4.289  34.498  11.928
66318W        W31578   2.228  21.552  14.803
66319W        W31579  15.442  23.879   1.486
66320W        W31580  24.444  43.507  11.095
66321W        W31581   1.181  37.349   3.261
66322W        W31582  17.752  24.195  12.073
66323W        W31583  42.023  29.491  14.355
66324W        W31584  41.938  23.587   2.911
66325W        W31585  21.809  21.760   2.805
66326W        W31586  17.292  31.601  13.070
66327W        W31587  38.014  26.030   0.607
66328W        W31588  14.201   7.358   4.378
66329W        W31589  11.732   8.979   2.158
66330W        W31590  38.888  26.644   0.753
66331W        W31591  41.980  18.220   0.834
66332W        W31592  44.739  37.595  12.009
66333W        W31593  39.999  27.047  14.993
66334W        W31594   6.816  40.951  12.527
66335W        W31595  44.670   5.749  13.908
66336W        W31596  40.983   3.222   2.318
66337W        W31597   2.304  44.292   4.714
66338W        W31598  19.319   0.782  14.390
66339W        W31599  27.572   6.727  10.701
66340W        W31600  39.757  34.935  13.909
66341W        W31601  11.799  15.039   1.933
66342W        W31602  33.841  31.056  13.948
66343W        W31603  44.522  21.952   4.206
66344W        W31604  33.118  32.428  10.796
66345W        W31605  19.350  21.711   1.829
66346W        W31606  40.328  12.303   3.195
66347W        W31607  20.207  42.774  10.290
66348W        W31608  24.611  42.304   1.350
66349W        W31609  39.850  22.678   3.431
66350W        W31610  24.360   7.698   5.254
66351W        W31611  22.990   2.419  11.642
66352W        W31612  29.940  32.944  12.823
66353W        W31613  20.682  12.640   2.701
66354W        W31614  29.923  29.739  14.832
66355W        W31615  42.948  38.526  12.949
66356W        W31616  28.481  36.610   4.320
66357W        W31617  15.123  25.769  13.568
66358W        W31618  19.097   3.480   2.348
66359W        W31619  32.088  34.002   4.599
66360W        W31620   4.911   8.482  14.257
66361W        W31621  35.566  22.666  10.728
66362W        W31622  28.016  16.732  11.500
66363W        W31623   6.364   5.857  13.519
66364W        W31624  36.261  34.549  11.127
66365W        W31625  41.850  12.575   3.308
66366W        W31626  29.485   1.993  14.112
66367W        W31627  18.767  37.524   1.194
66368W        W31628   8.796  32.945   0.241
66369W        W31629  21.368   9.327   1.166
66370W        W31630   6.448  41.558  11.570
66371W        W31631   9.041  32.492  10.634
66372W        W31632   7.422  42.278   3.106
66373W        W31633  26.154  12.870   4.575
66374W        W31634  10.250  30.087   9.989
66375W        W31635  18.608  10.957   0.386
66376W        W31636  34.304  28.510  11.054
66377W        W31637  21.134  12.261  11.058
66378W        W31638  17.717  41.882  13.371
66379W        W31639   7.454  40.758  10.825
66380W        W31640  23.943  33.456  13.102
66381W        W31641  17.573  29.172  12.896
66382W        W31642  14.076  42.506   2.985
66383W        W31643  10.849   2.580  11.977
66384W        W31644  23.743  13.017  12.821
66385W        W31645  31.134  11.870   3.219
66386W        W31646  11.318  35.188   1.210
66387W        W31647  33.980  10.149   4.552
66388W        W31648  32.161  23.875   5.170
66389W        W31649  41.760  33.985   0.765
66390W        W31650  11.655  33.877   1.290
66391W        W31651   9.146  39.026   0.326
66392W        W31652   0.283  39.327  10.968
66393W        W31653   8.135  17.860   3.127
66394W        W31654  20.678  17.841   1.361
66395W        W31655  11.529  28.070  13.779
66396W        W31656  42.881  27.089  11.890
66397W        W31657  30.290  28.113  12.770
66398W        W31658  36.472  34.150   1.506
66399W        W31659   7.187   8.347  13.324
66400W        W31660  43.456  33.877   2.331
66401W        W31661  37.250  30.962  13.022
66402W        W31662  18.130  27.624   3.381
66403W        W31663  39.827  44.221  13.320
66404W        W31664  18.300   5.447  12.028
66405W        W31665  16.673  15.883  10.640
66406W        W31666  30.378   1.196   0.356
66407W        W31667  27.371  30.807   4.022
66408W        W31668  34.643  24.691   1.933
66409W        W31669   6.492   2.809  14.400
66410W        W31670  21.465  17.569   9.840
66411W        W31671  31.371  37.449   3.763
66412W        W31672  28.596  33.078  10.335
66413W        W31673  44.734   8.255  10.327
66414W        W31674  24.168  44.978   3.210
66415W        W31675  19.769   2.467   3.543
66416W        W31676  24.779  17.765   3.479
66417W        W31677   5.666  10.551  11.128
66418W        W31678   8.780  17.820  12.272
66419W        W31679  28.002  29.118   1.375
66420W        W31680  25.137  42.788   1.912
66421W        W31681   1.848  23.985   4.100
66422W        W31682   5.195  40.483  14.701
66423W        W31683  17.417  44.305  14.208
66424W        W31684   1.164  37.589  10.627
66425W        W31685  23.102  21.120   4.253
66426W        W31686   7.342  24.693  13.411
66427W        W31687  20.508  36.121   2.211
66428W        W31688  31.936   8.229  13.901
66429W        W31689  21.992  37.787   2.869
66430W        W31690   1.837  40.327   2.948
66431W        W31691  16.722   1.227  13.388
66432W        W31692  24.995  29.967  11.575
66433W        W31693   1.847  10.912  12.715
66434W        W31694  38.260  44.831   0.826
66435W        W31695  24.187   4.298  14.881
66436W        W31696  40.136  10.624   2.579
66437W        W31697  40.884  24.603   0.906
66438W        W31698  44.259  16.267   2.855
66439W        W31699  35.809  12.675  14.853
66440W        W31700   9.179   8.628  10.537
66441W        W31701   0.567   6.130   2.319
66442W        W31702  26.555  37.526   3.775
66443W        W31703  14.304  14.714   4.599
66444W        W31704  30.280  44.642   2.721
66445W        W31705  22.391   6.190  13.004
66446W        W31706  23.109  28.446   2.406
66447W        W31707  21.947   7.454   3.051
66448W        W31708  24.943  18.678  14.048
66449W        W31709  36.099  44.533  10.679
66450W        W31710   0.811  12.605   3.287
66451W        W31711  15.038  12.125  13.479
66452W        W31712  31.722  13.389  14.554
66453W        W31713  34.049   2.396   4.088
66454W        W31714  13.267  27.494  10.869
66455W        W31715  10.264  28.934   1.779
66456W        W31716  12.107  14.513  10.835
66457W        W31717  14.122  37.018   4.213
66458W        W31718  18.595  30.502  14.529
66459W        W31719  24.132  25.991  11.538
66460W        W31720  39.004  10.548  13.031
66461W        W31721  13.557  42.916  13.513
66462W        W31722  17.097   9.927   4.580
66463W        W31723  41.803  22.955   3.668
66464W        W31724  41.458  35.527  11.801
66465W        W31725   7.882  37.683   4.026
66466W        W31726  20.494  27.587  12.435
66467W        W31727  43.261  40.582  11.969
66468W        W31728  38.548  30.848   3.209
66469W        W31729  30.490  37.766  13.384
66470W        W31730  32.127  38.778   0.763
66471W        W31731   6.360  32.691  14.488
66472W        W31732   6.830  12.053   2.886
66473W        W31733  39.873  25.728   3.657
66474W        W31734  28.217  33.908   0.842
66475W        W31735  43.779  44.752  13.914
66476W        W31736  26.646  14.316   2.291
66477W        W31737  16.551   5.269   0.148
66478W        W31738   0.241  32.713   1.320
66479W        W31739  18.502   3.713   1.363
66480W        W31740  12.656   2.793  13.988
66481W        W31741   0.731   8.753  13.322
66482W        W31742  37.441  35.287   0.979
66483W        W31743  40.603  22.763   4.203
66484W        W31744  28.706  27.971   0.910
66485W        W31745  30.525  25.675   2.753
66486W        W31746  11.891  11.322   1.314
66487W        W31747  18.076  41.230   4.898
66488W        W31748  37.540  38.310   4.247
66489W        W31749  20.426  19.400  14.234
66490W        W31750  34.955  36.414  14.063
66491W        W31751  18.365  44.287  11.260
66492W        W31752   5.104  14.264   0.909
66493W        W31753  39.028  37.843   1.293
66494W        W31754   3.910  25.244   9.958
66495W        W31755  34.999   8.344  10.676
66496W        W31756  14.881   4.936   2.040
66497W        W31757  38.796  43.714  13.822
66498W        W31758   7.339  27.647   0.740
66499W        W31759  40.583   0.497   1.921
66500W        W31760  41.681  33.300  12.180
66501W        W31761   6.774   1.057  13.402
66502W        W31762  15.966   5.549   2.574
66503W        W31763   2.734  32.634  12.083
66504W        W31764  36.309  25.107  14.786
66505W        W31765  31.195  17.535  12.049
66506W        W31766  44.202  28.483  12.913
66507W        W31767  44.903   2.201  11.098
66508W        W31768  44.376  37.934   4.493
66509W        W31769  29.997  31.051   1.702
66510W        W31770   6.410   7.943  13.122
66511W        W31771  39.764  14.756   3.361
66512W        W31772  13.199  12.534  11.083
66513W        W31773  39.496  44.252   2.812
66514W        W31774  13.833  23.596  12.462
66515W        W31775   3.811  40.987   4.079
66516W        W31776  11.904   9.401  10.639
66517W        W31777  12.619  29.216  12.254
66518W        W31778  13.374  22.248   2.348
66519W        W31779   3.396  43.351   2.853
66520W        W31780  24.162  40.658  12.863
66521W        W31781  10.800  34.083  11.088
66522W        W31782  44.490  33.040  13.689
66523W        W31783  30.172  25.081   0.026
66524W        W31784  25.544  20.186   4.620
66525W        W31785   2.152  10.618   0.594
66526W        W31786   8.189  32.543   2.910
66527W        W31787  24.535  43.256   4.482
66528W        W31788  29.363   8.243  11.591
66529W        W31789  25.038   6.511  12.534
66530W        W31790   6.507  37.004  14.585
66531W        W31791  16.671   2.329   1.246
66532W        W31792  34.399  27.495   2.612
66533W        W31793  20.511  34.519  10.450
66534W        W31794   4.087   8.199   0.392
66535W        W31795  29.654  25.931   5.442
66536W        W31796  38.996  19.431  10.184
66537W        W31797  19.238  34.220  13.918
66538W        W31798   7.679  25.966   1.422
66539W        W31799  33.940  37.886   4.054
66540W        W31800  29.528  38.910  12.304
66541W        W31801  26.493  35.379  13.487
66542W        W31802  33.375   0.178  14.468
66543W        W31803  15.319  28.319   0.544
66544W        W31804   8.093  40.921  13.100
66545W        W31805  33.670  19.977  13.928
66546W        W31806  22.108  33.417   4.614
66547W        W31807  10.725  17.037   4.793
66548W        W31808   2.180  10.315  11.586
66549W        W31809  30.500   8.858  14.292
66550W        W31810  34.882  21.585   0.008
66551W        W31811  10.084  32.619   4.443
66552W        W31812   0.570   5.699  12.717
66553W        W31813  34.601  44.882   4.176
66554W        W31814  42.080   0.412  11.677
66555W        W31815   7.269  21.424   4.802
66556W        W31816  21.494  14.712  12.090
66557W        W31817  21.811  38.182   1.678
66558W        W31818   8.581  33.698   1.420
66559W        W31819  19.576  23.271  13.923
66560W        W31820  16.134  18.938   4.225
66561W        W31821   9.617  22.696   2.872
66562W        W31822  29.064  34.985   1.646
66563W        W31823  39.028   5.300  13.887
66564W        W31824  21.677  15.729   4.749
66565W        W31825  34.940  20.691  14.122
66566W        W31826  31.615  22.580  12.089
66567W        W31827  14.921  29.105   1.888
66568W        W31828   5.669  13.253  14.625
66569W        W31829  43.137  30.127  11.023
66570W        W31830  24.932  43.341  11.080
66571W        W31831  29.547  43.507   4.258
66572W        W31832   7.874   7.133  10.649
66573W        W31833  44.349  16.652   1.493
66574W        W31834   1.353  40.193  11.677
66575W        W31835  39.452   2.916  13.979
66576W        W31836  22.596  11.067   3.402
66577W        W31837  27.640  42.284   2.163
66578W        W31838   7.134  33.420  12.023
66579W        W31839  23.426  42.507  13.042
66580W        W31840  34.692  36.008  10.350
66581W        W31841  12.720   9.294   4.772
66582W        W31842  44.674  27.483   4.562
66583W        W31843   2.953  37.557  10.366
66584W        W31844  44.952  13.612   1.022
66585W        W31845  30.109   8.180  13.547
66586W        W31846  10.389  11.826  12.679
66587W        W31847  41.187  18.047   0.268
66588W        W31848   0.837  12.908   3.705
66589W        W31849  32.237  31.165  14.210
66590W        W31850   2.336  41.132   4.245
66591W        W31851  35.914  33.622   1.906
66592W        W31852  36.543  31.138   0.751
66593W        W31853  14.848  11.639   3.646
66594W        W31854  37.382  26.158   0.897
66595W        W31855  27.087   1.987   1.779
66596W        W31856  39.032  44.403   0.989
66597W        W31857   9.855  16.322   1.625
66598W        W31858  35.395   0.964   3.152
66599W        W31859  37.096   4.451   4.448
66600W        W31860   3.159  41.891  14.611
66601W        W31861  13.662  42.787   2.165
66602W        W31862  33.172  13.717  13.508
66603W        W31863  23.961   0.211   0.249
66604W        W31864  31.798  41.336  11.679
66605W        W31865  40.319  17.423   4.660
66606W        W31866  34.939  35.618  14.705
66607W        W31867   4.988  28.946  11.576
66608W        W31868  30.598  37.471  13.997
66609W        W31869  35.838   5.490  12.896
66610W        W31870   0.703  30.914  13.901
66611W        W31871  26.180  20.600  10.462
66612W        W31872  11.709  29.975   0.944
66613W        W31873  19.128  37.286  11.690
66614W        W31874  13.723   5.386   4.294
66615W        W31875  22.549  20.664   2.918
66616W        W31876   8.233   3.907  12.029
66617W        W31877  11.838  20.676   1.255
66618W        W31878  25.181  13.360  13.393
66619W        W31879   5.449  41.993  13.951
66620W        W31880   2.368   6.742  10.621
66621W        W31881   1.505   4.433   0.958
66622W        W31882   4.715  16.567  11.171
66623W        W31883  39.992   9.899   4.571
66624W        W31884  42.838   1.491   2.420
66625W        W31885  31.360   5.798  11.545
66626W        W31886  12.683  20.099   3.039
66627W        W31887  32.364  40.128   1.774
66628W        W31888  18.132  11.275  13.632
66629W        W31889  28.148   4.206  11.918
66630W        W31890  29.244   6.456  12.873
66631W        W31891  33.197  35.337  12.854
66632W        W31892  42.170  11.192  10.579
66633W        W31893   3.280  19.203  12.017
66634W        W31894  33.042  38.998   1.616
66635W        W31895   5.944  31.640   1.227
66636W        W31896  11.678  37.608  10.149
66637W        W31897   1.283  18.009   4.131
66638W        W31898   9.229  28.424  12.945
66639W        W31899  28.189  21.770   1.207
66640W        W31900  11.388  10.222  11.556
66641W        W31901  17.684   0.459   0.760
66642W        W31902  20.199  31.909  11.470
66643W        W31903  18.508  42.453   3.046
66644W        W31904  37.798  40.751   1.714
66645W        W31905  41.890  14.659   0.460
66646W        W31906   2.563  17.500   0.392
66647W        W31907  16.107  22.082   3.067
66648W        W31908  41.419  36.399  13.570
66649W        W31909  27.379  18.728   0.814
66650W        W31910   4.169  28.546  12.535
66651W        W31911  15.774  29.493   0.917
66652W        W31912   0.492  19.120   2.299
66653W        W31913  31.030  42.903   0.212
66654W        W31914  26.468   6.894  13.414
66655W        W31915   2.266  40.098   1.501
66656W        W31916  19.222  41.189   4.194
66657W        W31917   7.912  22.649   4.567
66658W        W31918  23.636  11.362  12.533
66659W        W31919   3.511   0.938   2.736
66660W        W31920  16.552  16.112   3.639
66661W        W31921  22.153   7.920   4.268
66662W        W31922  26.437  26.446   0.300
66663W        W31923  23.918  36.851   2.784
66664W        W31924   5.966  31.869  14.330
66665W        W31925  31.089  24.550   4.355
66666W        W31926   2.554  11.212  10.174
66667W        W31927  20.490  23.391   1.095
66668W        W31928  36.763  44.050   4.506
66669W        W31929  31.819  40.996   0.216
66670W        W31930  44.840   8.249   1.911
66671W        W31931  36.346   5.973  14.022
66672W        W31932  42.422  23.202  13.906
66673W        W31933  27.662  43.471   0.813
66674W        W31934  28.142  25.933   0.347
66675W        W31935  34.403  25.063   2.231
66676W        W31936  11.903  20.008  14.311
66677W        W31937  22.974  13.561   1.764
66678W        W31938   9.411  26.921   2.690
66679W        W31939   2.474  13.006   4.608
66680W        W31940   9.976  11.167  11.434
66681W        W31941   7.260   0.442  12.047
66682W        W31942  34.128  20.973   0.878
66683W        W31943   2.950  32.004  12.807
66684W        W31944  40.976  27.233   0.361
66685W        W31945  26.681   7.452   3.401
66686W        W31946  42.509  23.040  12.144
66687W        W31947  12.404  44.754  13.069
66688W        W31948  17.820  34.077   3.407
66689W        W31949  20.571  29.051  14.082
66690W        W31950  26.558  14.863  12.231
66691W        W31951  21.120  23.940  11.834
66692W        W31952   1.276   0.966  14.857
66693W        W31953  26.909  21.558  11.686
66694W        W31954   7.511  19.625  12.403
66695W        W31955  30.622   9.289   0.082
66696W        W31956  29.610   1.425   0.810
66697W        W31957  27.473  17.237   4.660
66698W        W31958  17.986  44.762   3.199
66699W        W31959   0.562  34.136  12.693
66700W        W31960  23.733  33.841   0.797
66701W        W31961  14.628  43.359   4.329
66702W        W31962  22.476  42.511   2.255
66703W        W31963  17.248  10.674   4.172
66704W        W31964  33.142  21.607  11.039
66705W        W31965  27.681  38.044  12.869
66706W        W31966  38.111   0.576   1.325
66707W        W31967   8.610   0.093   0.443
66708W        W31968  43.079  34.941  13.936
66709W        W31969   8.647   4.815  14.076
66710W        W31970  15.034  15.564   1.676
66711W        W31971  10.824  10.623   1.957
66712W        W31972  15.713  22.067   0.288
66713W        W31973  18.724  12.899   1.910
66714W        W31974  25.103  27.087   3.138
66715W        W31975  43.526   2.108  14.562
66716W        W31976  39.705   3.121  10.710
66717W        W31977  14.271   1.052   3.207
66718W        W31978   0.364  15.719   4.054
66719W        W31979   1.188  41.507  14.014
66720W        W31980  18.428  28.975  13.460
66721W        W31981   0.041  32.080  13.414
66722W        W31982   4.616  43.122  11.378
66723W        W31983  21.634   3.645   1.448
66724W        W31984  14.341  22.163   2.583
66725W        W31985  20.685  43.808  13.607
66726W        W31986  31.328  32.447  12.887
66727W        W31987  27.176  10.792  13.877
66728W        W31988  39.595  13.597  14.470
66729W        W31989   5.381  12.667   1.268
66730W        W31990   9.075   2.327   2.784
66731W        W31991  43.665  31.005   4.553
66732W        W31992  38.319  41.111  13.169
66733W        W31993  38.843  11.695  14.804
66734W        W31994  30.793  14.363   1.189
66735W        W31995  34.295  13.230   2.646
66736W        W31996  40.308  43.865  11.234
66737W        W31997   5.903  37.428  10.406
66738W        W31998   7.430  21.434   2.381
66739W        W31999   5.637  36.057   3.895
66740W        W32000  19.697  14.532  11.661
66741W        W32001   1.485   8.150   1.291
66742W        W32002  12.820  12.742  13.592
66743W        W32003  28.240  20.664   4.558
66744W        W32004  31.582  21.115   1.638
66745W        W32005  29.975  25.159  12.021
66746W        W32006  29.060  29.994   4.151
66747W        W32007   6.772  19.307  14.283
66748W        W32008  22.117  18.151  11.344
66749W        W32009   0.499  17.299   3.367
66750W        W32010   3.316  28.325   4.195
66751W        W32011  42.386  17.067   2.962
66752W        W32012  40.265  10.095  10.423
66753W        W32013  36.837  20.759  13.337
66754W        W32014   6.211  10.357  10.175
66755W        W32015   8.193   2.978   3.675
66756W        W32016  11.519  28.415  11.861
66757W        W32017   2.402  39.120   3.191
66758W        W32018  19.272  44.281   0.688
66759W        W32019  33.473  31.305   3.660
66760W        W32020  39.548  20.568   3.136
66761W        W32021  30.198   9.153  13.645
66762W        W32022  37.361  23.991   1.662
66763W        W32023  34.161   4.788   1.508
66764W        W32024  38.336  21.023  12.335
66765W        W32025  26.271  15.027  13.524
66766W        W32026  12.639  29.425   3.673
66767W        W32027  27.633  11.160  10.510
66768W        W32028  11.741  35.147   2.641
66769W        W32029  20.817  24.238  11.520
66770W        W32030  40.601  10.235  14.581
66771W        W32031  13.191  44.833  10.623
66772W        W32032  28.172  33.074  14.836
66773W        W32033  35.871   2.606  10.946
66774W        W32034  11.845  39.299  14.710
66775W        W32035  18.087   4.393  13.306
66776W        W32036   9.857  25.429   2.168
66777W        W32037   2.118  32.086   4.212
66778W        W32038  30.647  11.170  13.114
66779W        W32039   4.465  28.050   3.024
66780W        W32040  22.261  38.498   1.691
66781W        W32041   9.755  37.400  12.574
66782W        W32042   2.985  13.805  10.520
66783W        W32043  27.408  24.631   1.316
66784W        W32044  33.961  28.420   2.503
66785W        W32045  31.696  33.277  14.766
66786W        W32046  32.894   4.303  11.472
66787W        W32047  40.786  38.544   1.498
66788W        W32048  34.977  39.269   3.319
66789W        W32049   3.845  16.106   2.352
66790W        W32050  19.091   0.985   1.076
66791W        W32051  30.084  33.924  14.270
66792W        W32052  10.251  31.356   3.666
66793W        W32053   9.192  40.399  13.995
66794W        W32054   2.453   4.416  11.545
66795W        W32055  25.307  34.590   2.694
66796W        W32056  13.262  21.651   1.791
66797W        W32057  36.989   2.623   4.980
66798W        W32058  18.881  17.059  12.885
66799W        W32059   4.723  31.375   4.105
66800W        W32060  17.305  33.599  10.022
66801W        W32061  12.369  31.338   0.923
66802W        W32062   3.760  12.115  12.368
66803W        W32063   7.890  22.125  11.918
66804W        W32064  44.054  30.929   3.628
66805W        W32065  16.992  36.804   1.267
66806W        W32066  14.989  20.332   4.710
66807W        W32067  12.200  14.358  11.661
66808W        W32068  40.593  27.041  14.033
66809W        W32069   9.817  24.496  13.907
66810W        W32070  40.222   4.333  11.518
66811W        W32071   4.922   9.417   3.695
66812W        W32072  11.763  38.551   3.273
66813W        W32073  24.966  28.979  11.555
66814W        W32074  41.038  32.038   3.361
66815W        W32075  25.240  35.357  10.572
66816W        W32076  36.101  22.569  12.912
66817W        W32077  20.056  12.091   3.818
66818W        W32078  22.586  25.025  13.549
66819W        W32079  15.621  38.158   3.203
66820W        W32080   5.389  37.492   3.011
66821W        W32081  15.082  24.929  12.999
66822W        W32082  43.979  41.725   2.209
66823W        W32083  20.656  35.731  12.032
66824W        W32084  25.010  40.900   1.911
66825W        W32085   0.989  20.956  11.625
66826W        W32086  42.673  41.274   3.779
66827W        W32087   7.340   1.947   2.112
66828W        W32088  37.061   8.398  12.188
66829W        W32089   4.841  14.100  14.053
66830W        W32090  39.934  27.617  11.120
66831W        W32091  37.962   5.311   2.532
66832W        W32092  26.233  39.286   2.039
66833W        W32093   8.609   9.102   1.715
66834W        W32094  43.474  11.853  13.867
66835W        W32095  28.562  44.875  10.819
66836W        W32096   2.972  44.324  12.019
66837W        W32097  12.425  23.189   4.302
66838W        W32098  33.048  28.696   1.342
66839W        W32099   4.772  40.257  11.685
66840W        W32100  18.775  42.983   1.656
66841W        W32101   8.711  34.709  11.111
66842W        W32102  18.995  32.808  11.968
66843W        W32103  40.959  27.893   1.488
66844W        W32104  40.776   5.810  12.469
66845W        W32105  26.208  24.982  13.392
66846W        W32106  28.145   5.797   1.558
66847W        W32107   4.173  11.371   2.360
66848W        W32108  16.654  39.380  13.524
66849W        W32109  18.442  31.377  11.330
66850W        W32110  31.726  41.852   2.392
66851W        W32111   3.580   9.928   4.505
66852W        W32112  23.017  28.186   0.871
66853W        W32113  35.593  42.935   0.295
66854W        W32114  18.063   9.822  14.961
66855W        W32115   8.968  30.385  11.526
66856W        W32116  18.227  38.774   0.459
66857W        W32117   6.245  15.862   3.311
66858W        W32118  28.981  40.927   3.378
66859W        W32119   7.318   6.328  13.775
66860W        W32120  26.440   9.264  11.696
66861W        W32121   1.680   5.771  11.550
66862W        W32122  38.086  22.391  12.061
66863W        W32123  40.254  44.264  14.783
66864W        W32124   1.524  13.085   3.203
66865W        W32125  29.578  19.010   0.072
66866W        W32126  21.735  18.121  13.539
66867W        W32127  28.026   2.681   4.620
66868W        W32128  37.087  39.934   4.207
66869W        W32129  41.064   5.406  11.650
66870W        W32130  20.928  43.896  14.958
66871W        W32131  25.370   7.764  11.670
66872W        W32132  43.887  32.030  10.913
66873W        W32133  13.348  34.573   0.958
66874W        W32134  41.958  22.600  10.067
66875W        W32135  29.918   5.759  14.428
66876W        W32136  39.839  14.021   1.802
66877W        W32137  24.493  16.554   5.365
66878W        W32138   2.220   0.402  14.979
66879W        W32139   6.268  27.962   1.840
66880W        W32140  31.533  17.110   3.571
66881W        W32141   0.820  37.285   4.610
66882W        W32142  40.617  33.875  10.649
66883W        W32143  24.644  15.062   3.237
66884W        W32144  14.468  37.874  12.374
66885W        W32145  42.385  12.583  14.236
66886W        W32146   3.934  14.650  13.508
66887W        W32147  33.190  33.114  13.677
66888W        W32148  41.008  26.735  13.971
66889W        W32149  33.142  20.309   2.256
66890W        W32150  13.877  10.854   4.089
66891W        W32151   1.863  16.618  11.790
66892W        W32152   4.843  16.807   3.301
66893W        W32153  38.379  26.090  10.657
66894W        W32154  23.281   9.813  13.396
66895W        W32155  39.572   8.780  14.781
66896W        W32156  28.551  14.887   3.481
66897W        W32157   6.516  44.273  12.034
66898W        W32158  20.027  30.964  10.574
66899W        W32159  44.498   4.295   4.839
66900W        W32160  12.171  21.544   2.647
66901W        W32161  17.739   9.626   4.272
66902W        W32162  11.801  44.371   1.763
66903W        W32163  16.739  44.553  12.500
66904W        W32164  11.623  30.137   2.296
66905W        W32165  24.647  18.081   2.036
66906W        W32166  11.131  10.051  13.474
66907W        W32167  40.476  26.979   2.596
66908W        W32168  29.112   8.802   0.472
66909W        W32169  43.597  23.950  13.469
66910W        W32170  21.794  40.098  10.761
66911W        W32171   2.793  11.772  13.810
66912W        W32172  38.563   5.370  14.698
66913W        W32173  15.580  21.524  13.022
66914W        W32174  22.648  28.384  12.053
66915W        W32175  18.281  42.385   4.061
66916W        W32176  27.920   6.222  14.084
66917W        W32177  42.990   0.007  11.044
66918W        W32178   8.444  31.777   2.244
66919W        W32179  27.668  30.162  13.317
66920W        W32180  42.561  41.802   3.670
66921W        W32181   3.042  31.513   0.912
66922W        W32182  38.775  23.951  14.776
66923W        W32183  32.122   3.371   4.157
66924W        W32184  13.898  18.074   4.580
66925W        W32185  12.602  21.722  13.407
66926W        W32186  25.716  30.944  10.911
66927W        W32187  20.660   5.726  12.937
66928W        W32188  21.746  14.600   0.581
66929W        W32189  25.469  44.552  11.424
66930W        W32190   3.280  27.246  14.936
66931W        W32191   3.415  11.015  11.788
66932W        W32192   8.748   8.876   0.794
66933W        W32193  10.734  33.380   3.285
66934W        W32194  24.727  25.266   2.623
66935W        W32195  27.160  10.171  12.552
66936W        W32196  38.762   2.967   0.517
66937W        W32197  33.423  21.249  10.723
66938W        W32198  10.224  16.486   0.416
66939W        W32199  23.980  35.663   0.858
66940W        W32200  17.517   4.789   1.388
66941W        W32201  30.678  37.922  14.337
66942W        W32202  38.428  14.771   4.174
66943W        W32203  17.156  11.516  11.776
66944W        W32204   4.401   1.969   1.439
66945W        W32205  12.949  38.720  12.050
66946W        W32206  38.671   8.255   3.338
66947W        W32207  26.407   9.271   3.233
66948W        W32208  40.969  32.448   3.639
66949W        W32209   9.809  33.400   2.153
66950W        W32210  39.367   2.957  13.129
66951W        W32211  40.082  39.261  12.054
66952W        W32212  20.983  24.904  12.099
66953W        W32213  12.135   0.072   0.397
66954W        W32214   6.709  22.251  13.850
66955W        W32215   5.828   9.433   0.482
66956W        W32216  31.389  13.276  10.608
66957W        W32217   1.299  26.175   1.399
66958W        W32218  21.110   7.975   2.794
66959W        W32219  32.657  33.589   0.052
66960W        W32220  44.844  20.799   0.370
66961W        W32221   5.656  21.788  10.696
66962W        W32222  23.509  21.331  13.943
66963W        W32223  24.165  22.002  11.654
66964W        W32224  13.881   5.975   3.133
66965W        W32225  18.020   6.679  13.765
66966W        W32226   4.479  41.535  14.457
66967W        W32227  35.085  44.991   0.812
66968W        W32228   3.284  33.913   4.412
66969W        W32229  12.327   4.013   5.024
66970W        W32230   1.025  28.858  12.724
66971W        W32231   6.199  26.991  12.478
66972W        W32232   8.850  23.300   2.365
66973W        W32233  25.586   2.896   4.165
66974W        W32234  18.907  36.303   1.328
66975W        W32235   9.822   0.766   3.057
66976W        W32236   2.231  16.071   0.853
66977W        W32237  43.113  24.681  11.922
66978W        W32238  26.703   3.046  10.077
66979W        W32239  26.756  25.151  14.015
66980W        W32240  31.831  39.982  14.300
66981W        W32241  25.689  14.701  12.686
66982W        W32242  30.469  28.500   2.592
66983W        W32243  16.334   4.401   4.408
66984W        W32244  27.940  24.249  14.745
66985W        W32245  37.696   0.529   0.236
66986W        W32246  43.285  22.549   1.234
66987W        W32247  36.422  10.316   2.692
66988W        W32248   4.553  18.947  10.571
66989W        W32249   7.297  29.728  11.460
66990W        W32250  12.192  24.709  11.198
66991W        W32251  43.025  24.697  13.395
66992W        W32252  39.585  25.654  10.625
66993W        W32253   4.249  27.592   4.294
66994W        W32254  13.205  42.475   4.757
66995W        W32255   3.160  43.028   1.212
66996W        W32256  32.624  25.225   1.889
66997W        W32257   4.376  15.511   0.783
66998W        W32258   9.855  22.006  12.834
66999W        W32259   9.943  15.094  12.843
67000W        W32260  27.593  21.361  14.829
67001W        W32261   2.954   8.262   0.159
67002W        W32262  40.772  40.909  11.848
67003W        W32263  11.722   4.966   2.812
67004W        W32264  17.245  24.211   1.919
67005W        W32265  21.658  14.547  14.787
67006W        W32266   2.058  42.542  14.293
67007W        W32267  20.527  41.570   4.544
67008W        W32268  40.900  29.218  12.102
67009W        W32269  10.231  10.132   0.314
67010W        W32270  44.166  11.645  14.518
67011W        W32271  19.971  44.480  12.061
67012W        W32272   7.970  21.506  14.305
67013W        W32273  13.602   9.001  12.964
67014W        W32274   0.702   5.171  13.372
67015W        W32275   4.374  38.653  11.193
67016W        W32276  40.569  24.009  14.182
67017W        W32277  27.672   2.801  11.059
67018W        W32278  29.974  33.198  12.369
67019W        W32279  42.457  18.824  11.624
67020W        W32280  23.657  40.824  14.025
67021W        W32281  11.586  10.887   1.235
67022W        W32282  20.365  44.265   2.178
67023W        W32283   8.578  10.233  13.427
67024W        W32284  11.368   0.976  14.483
67025W        W32285  11.885  10.810   4.135
67026W        W32286  34.661  31.461  13.803
67027W        W32287   8.694  18.219  11.380
67028W        W32288  28.840  24.619   0.359
67029W        W32289  30.176  19.722   0.247
67030W        W32290  13.143   9.956   0.503
67031W        W32291  14.423  32.032  12.663
67032W        W32292   8.546  34.676  10.239
67033W        W32293  17.332  23.285  11.581
67034W        W32294   6.223  27.213   4.321
67035W        W32295  23.161  38.569   0.763
67036W        W32296   3.771  15.553  13.266
67037W        W32297  43.725   8.407  13.972
67038W        W32298  37.356  24.293  10.866
67039W        W32299  20.196  32.064  13.916
67040W        W32300  40.673  37.904   1.030
67041W        W32301  31.192  11.419  13.364
67042W        W32302  20.446  20.542  14.966
67043W        W32303  41.208  31.088   1.428
67044W        W32304  25.632  12.176  12.685
67045W        W32305  28.116  31.616   1.900
67046W        W32306  44.739   9.003  14.895
67047W        W32307  34.620  15.111   2.727
67048W        W32308  44.240  29.025   2.716
67049W        W32309  24.585  16.045   3.294
67050W        W32310  36.019  13.410   4.845
67051W        W32311  39.740  19.618  14.029
67052W        W32312   4.796  22.858  13.681
67053W        W32313  28.383  23.763  10.602
67054W        W32314  24.999  29.719   1.038
67055W        W32315  41.461   4.233  14.518
67056W        W32316  27.729  15.622  14.756
67057W        W32317   0.982  11.300   2.040
67058W        W32318   6.770  26.721  10.171
67059W        W32319  14.278  33.896  13.374
67060W        W32320  40.475  21.619   2.329
67061W        W32321  37.138  29.940   3.845
67062W        W32322   2.421  38.856   4.512
67063W        W32323  29.066   1.822   3.431
67064W        W32324  25.493  16.634   0.447
67065W        W32325   9.716  24.858  12.376
67066W        W32326  42.834   5.389   2.250
67067W        W32327   6.160  44.003  11.786
67068W        W32328  30.280  34.709  10.663
67069W        W32329   9.696   8.667   4.697
67070W        W32330  21.157   2.319  11.581
67071W        W32331  39.812   3.445   3.098
67072W        W32332  24.994   2.012  11.250
67073W        W32333  36.675  32.695   1.387
67074W        W32334  11.376   9.098  13.087
67075W        W32335  29.387  33.427  10.124
67076W        W32336  24.935   4.649  13.934
67077W        W32337  10.555  42.250  11.640
67078W        W32338  14.780  15.796   3.329
67079W        W32339   1.754  30.097   1.243
67080W        W32340   8.415  36.632  12.507
67081W        W32341   3.769  30.613  12.556
67082W        W32342  23.188   3.683   4.472
67083W        W32343  21.204   7.432   4.056
67084W        W32344  32.802  42.169  14.907
67085W        W32345  40.649   1.867   5.468
67086W        W32346  42.515  37.163   2.952
67087W        W32347  29.614  23.901   4.071
67088W        W32348  40.708   7.504  11.882
67089W        W32349  42.919  31.082  11.270
67090W        W32350  32.552  38.436   2.235
67091W        W32351  22.483   2.383  10.343
67092W        W32352  33.522  17.096  14.761
67093W        W32353   3.071  19.667  12.072
67094W        W32354  19.291  43.050  12.724
67095W        W32355  29.670  16.394  11.853
67096W        W32356  19.322  10.600  11.496
67097W        W32357  29.135  22.037   1.439
67098W        W32358  41.943  18.344   4.339
67099W        W32359  26.347   3.700  12.103
67100W        W32360  15.492  33.145   2.825
67101W        W32361   3.368  26.424  13.422
67102W        W32362  32.604  42.874   4.172
67103W        W32363  43.323  38.018   4.609
67104W        W32364   7.394  24.262  11.548
67105W        W32365  30.486  31.183   5.162
67106W        W32366  28.725  43.171  11.168
67107W        W32367   8.037  17.393  12.012
67108W        W32368   9.258  10.676  11.198
67109W        W32369  29.106  35.442   1.409
67110W        W32370   0.763   2.855   1.435
67111W        W32371  18.995   2.714   4.738
67112W        W32372   3.833  30.127   2.870
67113W        W32373   6.922  31.874  12.035
67114W        W32374   0.947  35.491   2.674
67115W        W32375  39.701  27.959  13.424
67116W        W32376  28.253  18.535   0.660
67117W        W32377   8.887  37.543  14.993
67118W        W32378  10.349  21.231   3.637
67119W        W32379  13.440  17.064   1.155
67120W        W32380  43.814  31.792  13.953
67121W        W32381  19.531  34.166   2.745
67122W        W32382  21.015  20.170   2.170
67123W        W32383  32.612  25.658  13.444
67124W        W32384  32.963  40.818  10.552
67125W        W32385   4.253   4.305  11.143
67126W        W32386  31.949  14.146  10.549
67127W        W32387  36.049  25.902  13.878
67128W        W32388   7.424   0.895  10.595
67129W        W32389  21.084  33.856  11.145
67130W        W32390  33.551  36.990   0.957
67131W        W32391   5.277  40.831  12.571
67132W        W32392  14.908  37.485   0.999
67133W        W32393  37.509   4.957   1.971
67134W        W32394  22.189  13.451  12.828
67135W        W32395  11.642  25.456   3.108
67136W        W32396   9.155   9.180  14.677
67137W        W32397  35.146  37.354  14.406
67138W        W32398  18.757  23.759  11.056
67139W        W32399  25.108  21.979  11.432
67140W        W32400  19.186  25.236  12.900
67141W        W32401  20.634  41.138  14.312
67142W        W32402   5.216   4.535  13.246
67143W        W32403   4.099   1.018  14.944
67144W        W32404  44.930  21.511   1.808
67145W        W32405  12.003   2.901  14.274
67146W        W32406   7.162  16.637   2.259
67147W        W32407   0.432  35.801  14.310
67148W        W32408   7.755  20.615   1.752
67149W        W32409  42.031  35.664   0.250
67150W        W32410  44.543   8.311   2.569
67151W        W32411  20.102  36.741   0.764
67152W        W32412  13.910  26.961   4.428
67153W        W32413  26.073  24.556  13.976
67154W        W32414  25.983  35.330   2.591
67155W        W32415  27.078  33.334   3.666
67156W        W32416  15.519  17.586  11.699
67157W        W32417  16.155  29.759  12.294
67158W        W32418  30.004  39.771  12.133
67159W        W32419  44.795  18.475  10.879
67160W        W32420  22.234  21.076   2.152
67161W        W32421  18.391  28.080   3.323
67162W        W32422  43.853   1.777   2.647
67163W        W32423  39.830  26.527   2.302
67164W        W32424  26.256  27.604  12.690
67165W        W32425   5.125  28.456   3.599
67166W        W32426  24.097  34.824  11.075
67167W        W32427  25.256   3.355  10.974
67168W        W32428  32.212   5.354  10.657
67169W        W32429  14.983  17.651  13.014
67170W        W32430  10.138  20.227  10.465
67171W        W32431   3.159   8.282   0.681
67172W        W32432   0.484  32.161  10.262
67173W        W32433   8.883  27.988   1.480
67174W        W32434  43.838  16.302  12.021
67175W        W32435  25.274  18.978  10.341
67176W        W32436  11.392  25.608  14.839
67177W        W32437  33.493  33.970  14.848
67178W        W32438  30.841  27.232   4.161
67179W        W32439  44.352  26.573  13.465
67180W        W32440  14.856   4.220   4.562
67181W        W32441  28.353  42.913   1.294
67182W        W32442  36.034  16.148  13.056
67183W        W32443  17.648  22.088  13.550
67184W        W32444  22.693  39.418  11.441
67185W        W32445  33.270  26.891   4.972
67186W        W32446  26.768  21.347   0.870
67187W        W32447  22.580  33.536  13.007
67188W        W32448  35.445  43.669  10.669
67189W        W32449  41.676   8.196  13.357
67190W        W32450  13.304  21.506   0.854
67191W        W32451  14.739  11.253  10.940
67192W        W32452  23.528  33.332  11.991
67193W        W32453   7.196  20.801   0.885
67194W        W32454   6.479   6.715   1.975
67195W        W32455  39.322   2.875  12.063
67196W        W32456  22.112  34.248   9.872
67197W        W32457  22.741  24.511   0.402
67198W        W32458  37.322  15.781   2.764
67199W        W32459  11.559  30.498   3.645
67200W        W32460  30.189   6.103   3.571
67201W        W32461   8.360  42.392  14.323
67202W        W32462  16.080  12.749   3.281
67203W        W32463   4.848  29.220  14.165
67204W        W32464  18.365  30.051   3.719
67205W        W32465  44.259  10.616   5.077
67206W        W32466  35.799  34.663  12.984
67207W        W32467   0.314  35.366   0.561
67208W        W32468  17.490  17.896   4.613
67209W        W32469   8.807   7.783   2.311
67210W        W32470  15.209   7.698  12.730
67211W        W32471   9.300   2.414   4.758
67212W        W32472   4.967  35.420   1.787
67213W        W32473   2.423  13.189   3.154
67214W        W32474  31.016  21.174   4.588
67215W        W32475  42.622  37.605   1.453
67216W        W32476  23.205  43.311  11.677
67217W        W32477   5.297  35.953   2.676
67218W        W32478   7.764  42.156   2.719
67219W        W32479  42.434   7.891  13.407
67220W        W32480   4.893  31.972  12.750
67221W        W32481  39.565  11.662   4.132
67222W        W32482  25.102  28.877  14.971
67223W        W32483  33.461  22.127   1.371
67224W        W32484   0.795  23.710   1.826
67225W        W32485  26.398  31.241  14.935
67226W        W32486   7.724  14.786   4.665
67227W        W32487  21.585   4.252   4.003
67228W        W32488  20.843  34.111   3.605
67229W        W32489  24.211   9.406  12.511
67230W        W32490  10.924  38.946  11.590
67231W        W32491  30.147  31.815   4.677
67232W        W32492  29.670  32.987  14.534
67233W        W32493  40.732  30.911   0.972
67234W        W32494  36.942  30.665  13.981
67235W        W32495   9.786  38.985   4.809
67236W        W32496  31.119  22.807   2.337
67237W        W32497  34.484   6.265  10.743
67238W        W32498  21.603  12.596   3.632
67239W        W32499  11.348  37.953   1.427
67240W        W32500  19.288   2.350   1.845
67241W        W32501  30.088  33.807   4.716
67242W        W32502  19.303  31.488   3.685
67243W        W32503  26.474  29.838  14.459
67244W        W32504  39.061  30.398  12.554
67245W        W32505  38.886   3.801  14.328
67246W        W32506  42.772  19.177   4.205
67247W        W32507  32.654  30.504   2.845
67248W        W32508  20.651  31.764  10.766
67249W        W32509  23.605  38.509   1.004
67250W        W32510  22.803  13.318   4.492
67251W        W32511  38.007  16.073   4.421
67252W        W32512  35.649  27.420   9.932
67253W        W32513   1.564  13.705   3.575
67254W        W32514   5.415  39.811  11.160
67255W        W32515  16.192  21.773   0.699
67256W        W32516  36.795  25.511   1.915
67257W        W32517  31.970  22.772   4.504
67258W        W32518  16.955  13.103  11.144
67259W        W32519  39.102  22.703  12.607
67260W        W32520  14.420  33.782   4.971
67261W        W32521  29.609  11.061  12.415
67262W        W32522  16.908  43.628   0.459
67263W        W32523  36.000  30.199   0.931
67264W        W32524  17.814  28.680  11.445
67265W        W32525  28.122  22.017   4.606
67266W        W32526   5.048  31.996   4.889
67267W        W32527  26.526  39.291   1.240
67268W        W32528  12.596  18.259   4.158
67269W        W32529  34.615  38.899   3.236
67270W        W32530  44.372   0.994   3.716
67271W        W32531  15.781  38.794   1.279
67272W        W32532   9.795  33.820  11.882
67273W        W32533  20.966  38.117  12.034
67274W        W32534  26.381  33.164   3.207
67275W        W32535  34.738   2.031   3.683
67276W        W32536  34.136  26.032  10.267
67277W        W32537   2.482   5.206   4.931
67278W        W32538  36.309  10.396  10.691
67279W        W32539   7.769   6.864  13.337
67280W        W32540  43.805  41.296  14.991
67281W        W32541  21.554  23.575   4.088
67282W        W32542  33.102   8.766  11.916
67283W        W32543  16.854  34.497   2.748
67284W        W32544  13.064  16.792  11.017
67285W        W32545   3.006  25.580  13.444
67286W        W32546  22.520  42.091   1.770
67287W        W32547  10.005  22.132  13.972
67288W        W32548  37.686  29.078  12.035
67289W        W32549  20.105  32.169   2.861
67290W        W32550  31.995  17.533   5.163
67291W        W32551   8.364  42.551   2.925
67292W        W32552  30.278  39.343  10.878
67293W        W32553  14.113  34.340   2.606
67294W        W32554   6.317  16.122   3.756
67295W        W32555  33.626  28.971  13.532
67296W        W32556  30.442  44.465  11.222
67297W        W32557  16.657  18.042  11.091
67298W        W32558  24.531  35.524   3.250
67299W        W32559  21.466  23.816  14.543
67300W        W32560  35.139  23.790  12.104
67301W        W32561  13.184  31.315   2.209
67302W        W32562  39.472  15.198   2.402
67303W        W32563  40.102  33.408   0.170
67304W        W32564   9.875   2.877  13.045
67305W        W32565  11.894  34.530  14.500
67306W        W32566  14.309   8.173  11.559
67307W        W32567   8.680  23.251  10.593
67308W        W32568   9.260  31.718   3.605
67309W        W32569  21.036  42.994  14.835
67310W        W32570  24.592  21.104  14.789
67311W        W32571  19.575  18.993  11.312
67312W        W32572  38.923  13.810  13.467
67313W        W32573  16.528   1.456  12.962
67314W        W32574  24.343  11.245   3.261
67315W        W32575  30.844  19.547   3.649
67316W        W32576  27.191  25.382  10.749
67317W        W32577  16.558  24.744  12.529
67318W        W32578   0.209  27.517  10.842
67319W        W32579  12.714  27.977  11.462
67320W        W32580  21.881  36.044   2.200
67321W        W32581   3.085  26.294  10.768
67322W        W32582  44.459  28.747   0.457
67323W        W32583   6.413   6.320  14.256
67324W        W32584   2.104  23.382  14.496
67325W        W32585   5.734  23.086   3.559
67326W        W32586  12.176  11.039  11.746
67327W        W32587   1.632  22.611  14.629
67328W        W32588  20.050  44.709   0.537
67329W        W32589  42.318   0.697   2.818
67330W        W32590  10.742   4.379  11.140
67331W        W32591  31.571  19.201   4.121
67332W        W32592   0.836   6.741   3.629
67333W        W32593  41.486  36.660   4.078
67334W        W32594  36.419  40.698  10.338
67335W        W32595  33.721  36.965  12.115
67336W        W32596   0.690  19.729  11.303
67337W        W32597  21.663  43.025   4.227
67338W        W32598  12.136   4.807  12.996
67339W        W32599  22.560   6.175  13.990
67340W        W32600   6.782   2.679  10.452
67341W        W32601  16.072  14.258  13.294
67342W        W32602  29.239  43.137   2.100
67343W        W32603   9.974  41.084   3.820
67344W        W32604  19.341   2.573   2.329
67345W        W32605  40.053  18.704   1.484
67346W        W32606  31.543  24.320   5.521
67347W        W32607   2.338  38.894  14.279
67348W        W32608  31.123  20.268   1.375
67349W        W32609  44.855   4.307  12.055
67350W        W32610  30.074  34.143   0.086
67351W        W32611  41.453  18.858   3.752
67352W        W32612  16.166  14.823  14.495
67353W        W32613  17.721   7.898  13.253
67354W        W32614  10.781  14.789  10.914
67355W        W32615  35.253  22.861  13.483
67356W        W32616   2.017  31.273  13.840
67357W        W32617   7.673  15.622   1.893
67358W        W32618   4.162  38.364   1.292
67359W        W32619  35.513  44.308  13.361
67360W        W32620  12.229  19.774  11.498
67361W        W32621  12.379  13.614   0.940
67362W        W32622  13.189  26.714   1.853
67363W        W32623  24.183  19.783   1.146
67364W        W32624   1.445  11.527   3.602
67365W        W32625  39.927  17.976  10.977
67366W        W32626  16.526  16.111  11.060
67367W        W32627  23.087  31.459  12.083
67368W        W32628   3.873  36.441  14.757
67369W        W32629  33.170  43.349   0.264
67370W        W32630  15.130  30.609  12.900
67371W        W32631   2.919  41.789  11.885
67372W        W32632  13.097  16.109  10.340
67373W        W32633   4.426  35.335  10.823
67374W        W32634  16.311   5.382  10.586
67375W        W32635  22.752  34.496  14.385
67376W        W32636  36.519   4.461  14.053
67377W        W32637  29.154  26.629  12.226
67378W        W32638  34.340  14.679   1.814
67379W        W32639  36.647  40.094   2.247
67380W        W32640   4.475  27.576  12.524
67381W        W32641  18.865  11.628   2.235
67382W        W32642  15.124  41.621  12.940
67383W        W32643  44.767  37.908  14.458
67384W        W32644  43.733  11.296   1.324
67385W        W32645  32.386  20.634  10.873
67386W        W32646  13.373  26.217   0.266
67387W        W32647  27.160  42.298  10.694
67388W        W32648   6.300  26.940   1.681
67389W        W32649  28.076  25.602  10.227
67390W        W32650  26.454   1.272   4.654
67391W        W32651  13.812  29.567  12.842
67392W        W32652  12.750  39.113  13.094
67393W        W32653  36.827  33.298  14.315
67394W        W32654  11.903  44.766  11.802
67395W        W32655  27.889  27.794   2.196
67396W        W32656  44.982  26.218  14.302
67397W        W32657  15.263  32.955   4.538
67398W        W32658  21.494  22.198  12.061
67399W        W32659  25.002  17.162  13.936
67400W        W32660   2.363   5.626  14.761
67401W        W32661   6.847  31.062  11.732
67402W        W32662  41.742  21.554   3.150
67403W        W32663  41.030  11.182   3.604
67404W        W32664  25.594  43.455   2.316
67405W        W32665   3.545  40.837   0.974
67406W        W32666   8.112  29.218   2.460
67407W        W32667   5.167   6.190  10.760
67408W        W32668  27.317  25.885  10.810
67409W        W32669  22.214  17.508   3.263
67410W        W32670  14.868  13.167   3.792
67411W        W32671  13.030  31.350   1.298
67412W        W32672  13.624  24.756  12.854
67413W        W32673  36.393  25.899  13.476
67414W        W32674  34.301  16.248   4.535
67415W        W32675   1.736  11.841   1.938
67416W        W32676  41.696   8.397   0.771
67417W        W32677   6.917  21.173  13.381
67418W        W32678  26.783  29.491   2.330
67419W        W32679   2.755   1.379  11.420
67420W        W32680  20.690  11.815   2.443
67421W        W32681  16.189  26.804  11.470
67422W        W32682  26.058  25.968  12.581
67423W        W32683   4.210  16.284  13.071
67424W        W32684  36.419  37.651  13.974
67425W        W32685  28.038  44.488  13.921
67426W        W32686  41.904   2.997   1.971
67427W        W32687  12.550  19.565   1.849
67428W        W32688  42.459  24.163  14.504
67429W        W32689   9.456  43.750   4.714
67430W        W32690  15.276   5.225  10.654
67431W        W32691  35.513  24.003  13.094
67432W        W32692  24.265  30.330  14.875
67433W        W32693  20.300   5.382  14.000
67434W        W32694  39.667  14.267  12.117
67435W        W32695  32.489  27.014  13.108
67436W        W32696  15.011  32.012   2.248
67437W        W32697   0.932  18.032  10.156
67438W        W32698  41.349   4.243  12.131
67439W        W32699  20.742  32.512  13.704
67440W        W32700  20.162  26.753   0.113
67441W        W32701  29.059  43.466   3.066
67442W        W32702  33.723  17.386   1.361
67443W        W32703  13.886   7.470   9.898
67444W        W32704  10.296  28.530   5.436
67445W        W32705  12.873  44.285  12.480
67446W        W32706  24.770  43.127   0.260
67447W        W32707  10.681  21.444  11.983
67448W        W32708  29.158  20.273   2.265
67449W        W32709  29.004  27.919  12.530
67450W        W32710   3.831  25.054   2.118
67451W        W32711  17.705  15.889   0.236
67452W        W32712  30.685   9.336   4.529
67453W        W32713  34.339  12.672   1.935
67454W        W32714  15.382   9.165  11.903
67455W        W32715   5.905  28.234  11.358
67456W        W32716  18.774  39.289   0.844
67457W        W32717  22.651  28.667   2.152
67458W        W32718  13.092  12.024  11.096
67459W        W32719  11.805  15.786   1.265
67460W        W32720  35.959  33.411  10.720
67461W        W32721  22.407  11.149   4.426
67462W        W32722  37.157   4.034   1.659
67463W        W32723  44.934  29.687   1.793
67464W        W32724   9.393  17.022   0.487
67465W        W32725  24.239  28.937   3.033
67466W        W32726  23.162   3.206  14.249
67467W        W32727  18.344   1.314   0.046
67468W        W32728  35.004  33.744  14.661
67469W        W32729  42.858  42.483   2.053
67470W        W32730   6.357  27.609   0.883
67471W        W32731  35.382  23.651  14.371
67472W        W32732  34.824  13.118   2.560
67473W        W32733  26.699   8.095   9.980
67474W        W32734   8.850  12.066  13.625
67475W        W32735  17.252  14.150   2.775
67476W        W32736  37.932  32.499   4.111
67477W        W32737  43.945   2.902  13.500
67478W        W32738   6.520  32.503   1.363
67479W        W32739  40.545  32.661  13.439
67480W        W32740  44.879  36.121  12.445
67481W        W32741   9.430  20.978  13.488
67482W        W32742  29.843  39.060  13.629
67483W        W32743  40.805   1.536  13.953
67484W        W32744  31.845  20.627   0.026
67485W        W32745  11.495   3.794   1.405
67486W        W32746  18.757  37.454  14.751
67487W        W32747  36.585  39.990   3.413
67488W        W32748  40.360  15.686  12.582
67489W        W32749  25.715  13.626   3.750
67490W        W32750  22.108  26.524  12.086
67491W        W32751  27.622  16.707  14.536
67492W        W32752   5.761   0.152  13.352
67493W        W32753  19.878  20.967  11.109
67494W        W32754  43.284  22.539  14.982
67495W        W32755  19.757   8.325  14.990
67496W        W32756  22.760   0.911  10.741
67497W        W32757  11.348  29.041  14.949
67498W        W32758   8.293  40.927  11.743
67499W        W32759  17.901   1.488  11.549
67500W        W32760  41.669  42.262   3.877
67501W        W32761  14.375  19.230   2.833
67502W        W32762  22.998   0.899   1.670
67503W        W32763  36.200   8.409  10.929
67504W        W32764  30.502  15.307   1.047
67505W        W32765  42.999   3.833   0.633
67506W        W32766  18.538  34.005   1.372
67507W        W32767   1.353  26.959  12.661
67508W        W32768  38.511  12.211  14.332
67509W        W32769  38.851  11.245   2.401
67510W        W32770  29.941  13.451  13.443
67511W        W32771  10.968  31.047  11.032
67512W        W32772  43.961  22.028  11.611
67513W        W32773  26.256  24.993  14.202
67514W        W32774   6.797  37.555   3.640
67515W        W32775  16.723  28.262   0.213
67516W        W32776  38.825  11.160  14.881
67517W        W32777   3.327  10.320   0.223
67518W        W32778  36.332  43.725   3.794
67519W        W32779   4.670  20.655   4.756
67520W        W32780  15.113   3.029   4.082
67521W        W32781  37.026  14.984   2.374
67522W        W32782  38.417  17.772   3.100
67523W        W32783  18.115  19.564   4.498
67524W        W32784   9.179   9.851   0.717
67525W        W32785   9.201  35.754  14.728
67526W        W32786  19.526  15.606  13.412
67527W        W32787  18.966  29.742   1.581
67528W        W32788  25.651   3.017   1.397
67529W        W32789   7.455  31.970  12.901
67530W        W32790  16.282  18.740  14.214
67531W        W32791  28.086  23.441   0.044
67532W        W32792   6.665  32.398   3.632
67533W        W32793   0.688  18.000  14.436
67534W        W32794  14.543  20.550   1.440
67535W        W32795   1.361  35.490   0.393
67536W        W32796  36.823  20.682  11.578
67537W        W32797  14.039   4.042   1.470
67538W        W32798  37.822   8.098  11.637
67539W        W32799  44.428  20.006  13.691
67540W        W32800   4.741  20.911   4.325
67541W        W32801  37.632   5.431  12.943
67542W        W32802  30.440  37.321  10.961
67543W        W32803  38.080  40.264  12.461
67544W        W32804  29.435  10.457   4.207
67545W        W32805   9.882   7.906   2.395
67546W        W32806  20.276  18.386  14.162
67547W        W32807  10.313  12.922  11.704
67548W        W32808   8.130  19.699   0.374
67549W        W32809   3.330  42.049  11.561
67550W        W32810  19.844  43.597  13.569
67551W        W32811  26.833  20.034   0.292
67552W        W32812  20.538  43.710   4.656
67553W        W32813  11.390  21.545  14.730
67554W        W32814  14.196   6.783   5.530
67555W        W32815  26.205   8.825   1.707
67556W        W32816  22.781  43.768   1.216
67557W        W32817  14.278   4.333   0.492
67558W        W32818  24.269  44.576   1.801
67559W        W32819  42.958   1.522  14.595
67560W        W32820  37.347  42.527  11.585
67561W        W32821  28.413   6.426  13.357
67562W        W32822  41.038  26.289   0.365
67563W        W32823   9.665   6.264  14.036
67564W        W32824  28.512  20.366  13.935
67565W        W32825   2.356  23.975   4.278
67566W        W32826  11.222  13.266  11.508
67567W        W32827  23.026  13.044  14.998
67568W        W32828  12.335  15.594   0.306
67569W        W32829  41.338  14.857  12.966
67570W        W32830  35.806   1.824   1.331
67571W        W32831  41.561   4.763   3.120
67572W        W32832   2.194  41.671   2.656
67573W        W32833   0.180  31.663  10.733
67574W        W32834   2.176  38.916   9.822
67575W        W32835  26.065  23.142   4.074
67576W        W32836  41.008  20.056   3.310
67577W        W32837  23.448   9.398   2.013
67578W        W32838  34.448  16.653  10.777
67579W        W32839   9.495  14.218   5.039
67580W        W32840  12.597   4.205   3.701
67581W        W32841  17.764   6.985  12.208
67582W        W32842  44.753  43.962  10.887
67583W        W32843   4.110  23.059   2.775
67584W        W32844  27.944  36.479  13.049
67585W        W32845  27.434   6.329   1.466
67586W        W32846  35.492  15.529  13.259
67587W        W32847  16.082  10.574  11.935
67588W        W32848  16.787  31.052   3.649
67589W        W32849  40.473  32.842   1.131
67590W        W32850  15.692  40.777  10.688
67591W        W32851  15.659   2.963   0.926
67592W        W32852  25.492  23.670   3.701
67593W        W32853  17.752  27.926  11.202
67594W        W32854  38.645  27.074  11.197
67595W        W32855  36.432  37.404  11.256
67596W        W32856  26.211  43.963  10.610
67597W        W32857   9.851  33.217   3.481
67598W        W32858  15.644   8.362   2.453
67599W        W32859  10.607  18.588   1.687
67600W        W32860  21.176   3.262  13.245
67601W        W32861  14.132  13.103   2.214
67602W        W32862  33.475  41.699   1.356
67603W        W32863   9.699   4.887  14.461
67604W        W32864  35.580   8.639  14.554
67605W        W32865  11.318  28.574   0.464
67606W        W32866   8.689  16.607   0.145
67607W        W32867   0.721   5.229  12.517
67608W        W32868  23.605  34.250  14.220
67609W        W32869  32.712   8.801  13.001
67610W        W32870  42.374  41.760  13.398
67611W        W32871  20.270  24.277  13.581
67612W        W32872  25.527  19.841   1.131
67613W        W32873  22.476  43.839  14.943
67614W        W32874  11.296  35.694   1.241
67615W        W32875  24.085  16.137   4.533
67616W        W32876  15.851  35.416   4.176
67617W        W32877   7.168  29.447   4.079
67618W        W32878  43.206  39.995  10.512
67619W        W32879   2.495   6.129   0.723
67620W        W32880  18.978   7.987  12.446
67621W        W32881  29.999   0.857   0.598
67622W        W32882  29.426   3.721   3.719
67623W        W32883  38.824  10.365   3.345
67624W        W32884   1.276  20.138   4.202
67625W        W32885   4.062  32.429  11.915
67626W        W32886  19.046   1.028  13.011
67627W        W32887  12.011   4.312   5.308
67628W        W32888   8.128  11.768  12.144
67629W        W32889  42.922  30.495  13.985
67630W        W32890  29.697  23.737  11.661
67631W        W32891   3.523  12.190  12.816
67632W        W32892  43.275   2.993   4.172
67633W        W32893  39.769  31.646   0.038
67634W        W32894   9.729  11.767  13.901
67635W        W32895  11.034   3.855   1.209
67636W        W32896  30.655  41.474  13.049
67637W        W32897  33.096  35.977   4.204
67638W        W32898  28.082  40.888   0.005
67639W        W32899  27.971  26.669   3.497
67640W        W32900   6.181  24.093   1.942
67641W        W32901   3.778  20.229  10.689
67642W        W32902   2.614   4.754   5.204
67643W        W32903  32.573  15.839  14.015
67644W        W32904  26.097  39.441   0.377
67645W        W32905  29.157  17.925  11.190
67646W        W32906  20.594  31.266  10.871
67647W        W32907  28.285  21.162  12.540
67648W        W32908   8.196  20.672  11.877
67649W        W32909  33.919  33.489  13.086
67650W        W32910   1.269  32.212   4.736
67651W        W32911  38.205  22.717  11.297
67652W        W32912  40.084  33.896  10.683
67653W        W32913   7.176  38.963  14.399
67654W        W32914  34.119  41.038  13.998
67655W        W32915   4.204  33.910   1.600
67656W        W32916  10.202  37.752  12.120
67657W        W32917  43.724  42.802   0.384
67658W        W32918   1.766   2.130  11.160
67659W        W32919  18.374   2.237  13.191
67660W        W32920  12.578   5.414  11.975
67661W        W32921  31.041  26.444   0.810
67662W        W32922  14.363  44.819   3.543
67663W        W32923  32.432   4.569   2.697
67664W        W32924  28.297  19.248   2.547
67665W        W32925  29.573  36.973   2.323
67666W        W32926  42.417  11.104  11.027
67667W        W32927  23.285  18.695   0.078
67668W        W32928  20.075   7.911  13.398
67669W        W32929  33.664  30.277  13.020
67670W        W32930  28.130  42.264  10.666
67671W        W32931   7.198  33.335   3.387
67672W        W32932  27.253   8.480   0.092
67673W        W32933  19.712  18.722   1.475
67674W        W32934  42.255  36.142   0.258
67675W        W32935  24.615  28.995  11.944
67676W        W32936  40.698  17.007  13.837
67677W        W32937  20.959  42.056   1.895
67678W        W32938   3.617   6.778  13.555
67679W        W32939  28.663  26.510  11.286
67680W        W32940  21.396  39.490   2.929
67681W        W32941  41.055  26.873  11.467
67682W        W32942  40.558  39.528  12.611
67683W        W32943   1.695   2.792  13.989
67684W        W32944  27.721  14.724   3.723
67685W        W32945  41.024  12.769   1.374
67686W        W32946  29.893   1.831  13.786
67687W        W32947  17.629   0.455  11.521
67688W        W32948  33.184  24.265  12.072
67689W        W32949  34.726  20.834  12.945
67690W        W32950  10.353  21.344   0.076
67691W        W32951  36.863  14.318  14.321
67692W        W32952  20.608   4.243  14.431
67693W        W32953  16.375  37.176  14.928
67694W        W32954  25.017  26.989   2.639
67695W        W32955   6.007   8.155  12.860
67696W        W32956   5.922  41.014   1.382
67697W        W32957  41.175  33.937  14.374
67698W        W32958   6.842  25.915  12.053
67699W        W32959  36.818  17.790   3.341
67700W        W32960  41.587  38.783  14.409
67701W        W32961  26.255  27.989  13.062
67702W        W32962  21.984  31.434  14.814
67703W        W32963  35.269   0.452   3.167
67704W        W32964   1.341  19.564   1.127
67705W        W32965   9.674  39.367   0.070
67706W        W32966  36.071  31.074   1.459
67707W        W32967   8.442   9.268  10.516
67708W        W32968  20.088  36.417   0.348
67709W        W32969   5.712  13.260   2.069
67710W        W32970  15.340  10.580  11.481
67711W        W32971  17.666  18.317   4.383
67712W        W32972   2.077  27.235  11.245
67713W        W32973  16.104  26.685  12.053
67714W        W32974   1.875  15.306  11.614
67715W        W32975  30.449   9.885  13.496
67716W        W32976  13.972   3.542   1.329
67717W        W32977  24.261  28.445  11.682
67718W        W32978  34.658  16.487  11.605
67719W        W32979   8.631  17.787   3.288
67720W        W32980  34.974  28.739  13.028
67721W        W32981  10.417  29.624  13.887
67722W        W32982  15.866  16.659   0.931
67723W        W32983  20.110  30.602   4.614
67724W        W32984  35.671  24.728  13.565
67725W        W32985  26.978  21.771  14.000
67726W        W32986  34.240  36.830  10.764
67727W        W32987  23.557  22.538   2.351
67728W        W32988  43.353   8.914  11.511
67729W        W32989  24.324  28.100  10.202
67730W        W32990  21.349  37.102   4.585
67731W        W32991   6.817  15.426   4.596
67732W        W32992  29.862  32.213  13.978
67733W        W32993   7.671  24.500  14.398
67734W        W32994  22.126  22.906  10.757
67735W        W32995   2.284   6.761   2.000
67736W        W32996  26.310   5.735   3.763
67737W        W32997  19.920  44.943  10.720
67738W        W32998  19.679  36.876  12.389
67739W        W32999  25.642   3.822   2.823
67740W        W33000  39.031  31.798  14.609
67741W        W33001   9.711   1.329  12.456
67742W        W33002   4.369  34.537   4.435
67743W        W33003   9.144  25.800   4.075
67744W        W33004  36.027  25.731  12.904
67745W        W33005   6.144   9.580  11.983
67746W        W33006  10.217  22.252   0.856
67747W        W33007  44.143  12.968  13.934
67748W        W33008   4.922  40.818   3.185
67749W        W33009  14.153   6.153  14.260
67750W        W33010  34.367  44.012  10.149
67751W        W33011  38.671  12.827  12.422
67752W        W33012  37.184  42.696   0.266
67753W        W33013  36.350  23.065   3.965
67754W        W33014  15.620  19.890  13.886
67755W        W33015   3.217   2.799  14.839
67756W        W33016  25.454  32.438   1.185
67757W        W33017   4.699  16.167  13.267
67758W        W33018  36.897  17.182   3.627
67759W        W33019  20.246  25.993  14.823
67760W        W33020  25.263  18.745   4.429
67761W        W33021  25.210  31.579   3.345
67762W        W33022  28.631  29.938   3.630
67763W        W33023  12.737  11.302  10.394
67764W        W33024  35.111  32.413  11.574
67765W        W33025  16.319  32.094  11.130
67766W        W33026  23.170  24.254   0.255
67767W        W33027  15.018  21.001  12.201
67768W        W33028  19.206  43.920  12.648
67769W        W33029  34.210  30.429   1.393
67770W        W33030  25.035  44.293  11.264
67771W        W33031  30.403  22.970   3.362
67772W        W33032  31.572  43.311  13.010
67773W        W33033  13.889  22.401  13.517
67774W        W33034   3.739  36.041  11.585
67775W        W33035  31.526  18.220  11.257
67776W        W33036  17.336  14.324  11.096
67777W        W33037   4.910  32.796   3.194
67778W        W33038  44.629  10.613   2.150
67779W        W33039   0.762  31.256  11.696
67780W        W33040  10.425  28.995   4.265
67781W        W33041  44.222  24.018   2.848
67782W        W33042  15.309  24.189   1.026
67783W        W33043  12.052  41.306   0.338
67784W        W33044  27.037  12.890  10.785
67785W        W33045  34.088   1.133   4.925
67786W        W33046  18.791  16.600  12.016
67787W        W33047  27.200   7.610  11.898
67788W        W33048   3.501  18.102  10.311
67789W        W33049  44.552  26.426  14.794
67790W        W33050  12.708  18.710  11.504
67791W        W33051  21.326   9.287  13.544
67792W        W33052  10.251  44.085   3.541
67793W        W33053  39.509  31.616  14.516
67794W        W33054  20.480  18.671   3.675
67795W        W33055  28.073  36.608   1.681
67796W        W33056  42.959  42.533  14.533
67797W        W33057  18.019  11.877  14.419
67798W        W33058  27.437   8.047  12.043
67799W        W33059  22.429   7.281   3.142
67800W        W33060  41.262  43.146   4.905
67801W        W33061  23.123  24.210   4.114
67802W        W33062   9.393  16.630  13.882
67803W        W33063  40.373  33.543  10.937
67804W        W33064   6.157  13.338  13.777
67805W        W33065   3.485  14.560   1.780
67806W        W33066  24.250  32.983   4.040
67807W        W33067   2.410  40.349  11.734
67808W        W33068   6.478   0.815  13.757
67809W        W33069   2.801  27.615   3.325
67810W        W33070  14.800   5.173   4.187
67811W        W33071  41.399  32.561   0.700
67812W        W33072   9.220   1.082   2.266
67813W        W33073  26.505   8.692  13.482
67814W        W33074  32.516  44.422   4.620
67815W        W33075   7.648  38.735   3.123
67816W        W33076  19.372  29.342  14.908
67817W        W33077  21.720  17.784  14.920
67818W        W33078  10.658   7.104   1.338
67819W        W33079  15.968  17.016   1.889
67820W        W33080  27.242  17.501   1.826
67821W        W33081  15.573  33.646   4.158
67822W        W33082  14.767  21.533  11.554
67823W        W33083  36.483  37.925   3.838
67824W        W33084  20.720  34.639  13.862
67825W        W33085  32.370  17.302   1.756
67826W        W33086  35.346   9.995   0.934
67827W        W33087  35.018  13.955   4.157
67828W        W33088  39.729  12.100  12.614
67829W        W33089  24.107  10.688   1.496
67830W        W33090   1.458   3.526   4.219
67831W        W33091  35.672  29.975   1.349
67832W        W33092  13.666  40.406  12.161
67833W        W33093   9.862  16.892   3.932
67834W        W33094  25.731  13.768   0.662
67835W        W33095  32.892  15.024  11.820
67836W        W33096  36.313  42.937   4.094
67837W        W33097  28.022   7.166  13.793
67838W        W33098   3.371  26.773   2.614
67839W        W33099  34.325  20.335  12.084
67840W        W33100  28.594   1.203  13.484
67841W        W33101  36.427   4.579   1.383
67842W        W33102   4.757  27.954  14.517
67843W        W33103   5.794  32.551   3.141
67844W        W33104  20.029   7.885   0.659
67845W        W33105  13.620  34.294  11.161
67846W        W33106  42.369  39.888   2.430
67847W        W33107  18.088   7.922  14.060
67848W        W33108  39.959  24.082  14.829
67849W        W33109  25.472   8.840  14.093
67850W        W33110   6.279  23.935   4.170
67851W        W33111  18.823  24.311  11.204
67852W        W33112   1.248  23.213   0.771
67853W        W33113  27.233  19.680  11.385
67854W        W33114  35.947   2.836   4.108
67855W        W33115  35.028   1.444  12.423
67856W        W33116  32.323   1.541  14.869
67857W        W33117  29.360  26.225  11.885
67858W        W33118  17.567  25.983   2.666
67859W        W33119  34.434  33.430   2.778
67860W        W33120  19.348  23.530  11.558
67861W        W33121   4.040   4.818  14.804
67862W        W33122  11.257  36.857  12.601
67863W        W33123   3.728  11.590  10.687
67864W        W33124  18.167  44.757   0.374
67865W        W33125  26.964  40.482  10.648
67866W        W33126  21.246  17.233  11.524
67867W        W33127   5.472   3.752   0.938
67868W        W33128  27.014  11.112   4.031
67869W        W33129  11.654   5.634   3.532
67870W        W33130  35.661  18.227  11.229
67871W        W33131  37.091   3.979   9.812
67872W        W33132  23.483  20.498   3.078
67873W        W33133  35.169  44.157   0.318
67874W        W33134  28.773  33.530   0.366
67875W        W33135  23.725  39.624  14.423
67876W        W33136  44.853   4.708  12.405
67877W        W33137  21.755  23.536  13.770
67878W        W33138  33.017  27.067   3.892
67879W        W33139   9.547  31.150   1.486
67880W        W33140  29.619  38.432  14.982
67881W        W33141  43.630   0.939  14.072
67882W        W33142  21.984  30.967  14.265
67883W        W33143  30.362  39.650  13.874
67884W        W33144  36.363  40.360   2.630
67885W        W33145  38.346  31.620   3.655
67886W        W33146  36.338  43.285   4.515
67887W        W33147  20.999   3.773   3.789
67888W        W33148  12.117  10.852  13.712
67889W        W33149  16.842  26.361  13.379
67890W        W33150   7.216  37.511   2.894
67891W        W33151  31.611  15.382  12.028
67892W        W33152  10.876   2.058  11.992
67893W        W33153  39.514  37.108   3.692
67894W        W33154  16.074   8.648   1.675
67895W        W33155  25.805   8.164  14.648
67896W        W33156   9.523  12.295   1.888
67897W        W33157  22.056  33.148  13.397
67898W        W33158   3.846  21.963   2.066
67899W        W33159   5.863   3.266  14.245
67900W        W33160  42.461  24.801   2.663
67901W        W33161  10.635   6.435   0.392
67902W        W33162  39.794  33.470  10.809
67903W        W33163  11.567   1.278   1.662
67904W        W33164  42.265   4.258  12.091
67905W        W33165   1.026  28.928   4.000
67906W        W33166  25.893  39.967   3.098
67907W        W33167  41.822  41.814  11.274
67908W        W33168   4.196  20.962  14.683
67909W        W33169   5.352  23.922  14.359
67910W        W33170  24.204  22.285  14.346
67911W        W33171  33.839  29.641  13.883
67912W        W33172  26.198  13.159   2.338
67913W        W33173  39.052   5.518  11.441
67914W        W33174  38.504  10.181  14.279
67915W        W33175  13.232   2.421  11.055
67916W        W33176  31.343  16.874  11.625
67917W        W33177  13.767  11.634   0.321
67918W        W33178  27.101  18.043  12.665
67919W        W33179  36.180  39.350   2.776
67920W        W33180  14.162   7.783  12.377
67921W        W33181  23.754  41.043   0.519
67922W        W33182   0.385   3.977  14.223
67923W        W33183  20.588   4.865  11.593
67924W        W33184  44.805   8.338   4.474
67925W        W33185  11.477  37.515   2.705
67926W        W33186  16.558  31.622  11.112
67927W        W33187  36.488  10.668   3.214
67928W        W33188   4.129  32.613   0.967
67929W        W33189  16.035   8.644  13.856
67930W        W33190  37.491  12.542   2.395
67931W        W33191  16.187  32.551  12.863
67932W        W33192  42.101  31.988  10.623
67933W        W33193  38.958  23.666   2.953
67934W        W33194  26.080  42.463  13.937
67935W        W33195  39.000  40.181   3.616
67936W        W33196  25.752  20.841   0.338
67937W        W33197  34.501  44.330  13.341
67938W        W33198  11.754  39.926   4.379
67939W        W33199  33.285  21.068   4.075
67940W        W33200  25.200  29.870  12.073
67941W        W33201  35.667  20.288   0.007
67942W        W33202  28.045  22.259  10.029
67943W        W33203  26.538  25.535  14.820
67944W        W33204  43.463  27.881  11.777
67945W        W33205  19.332  11.235  14.039
67946W        W33206  13.169  18.129   0.253
67947W        W33207  19.747  10.745  13.881
67948W        W33208  30.691  39.980  11.551
67949W        W33209  14.361  16.620  11.514
67950W        W33210  28.675   7.889  14.519
67951W        W33211  33.933  28.935   2.582
67952W        W33212  37.380  40.089   2.805
67953W        W33213  29.531   8.603   1.301
67954W        W33214  24.168  38.785   3.701
67955W        W33215  43.449  29.686  10.803
67956W        W33216   6.594  13.733  12.516
67957W        W33217   6.183  19.571  10.786
67958W        W33218   1.941  27.570  12.941
67959W        W33219   2.333  23.800  10.692
67960W        W33220   1.287   3.683   1.613
67961W        W33221  43.799  34.016   4.790
67962W        W33222  30.644  24.341   4.548
67963W        W33223  35.974  37.266  10.990
67964W        W33224  34.765   6.456  14.151
67965W        W33225  19.267  27.559   2.351
67966W        W33226  35.617  15.088  12.527
67967W        W33227  29.965  12.911  13.503
67968W        W33228  21.171  17.787  10.768
67969W        W33229   7.758  12.762  12.985
67970W        W33230  27.058  24.202   4.190
67971W        W33231   6.702  29.243  12.107
67972W        W33232  10.444  18.246   4.554
67973W        W33233  15.664  23.276  13.923
67974W        W33234   3.404   6.726   4.180
67975W        W33235  39.100  37.398  10.590
67976W        W33236  32.573  22.213  13.465
67977W        W33237  38.552  17.712  11.646
67978W        W33238  35.370  42.945   4.461
67979W        W33239  36.523  16.295  11.019
67980W        W33240   3.848  18.303  14.748
67981W        W33241  17.491   6.441  10.488
67982W        W33242  41.717  33.932   3.698
67983W        W33243   5.916  13.269   3.675
67984W        W33244  31.093  44.594   5.067
67985W        W33245  16.033  41.221   1.327
67986W        W33246  41.212  44.749  11.487
67987W        W33247   7.872  38.807  11.128
67988W        W33248  20.591   3.332   3.088
67989W        W33249  29.821  33.676  13.891
67990W        W33250   7.134  23.407   4.572
67991W        W33251  28.124  40.535  11.202
67992W        W33252  29.759  14.314   0.110
67993W        W33253   2.877   8.992  11.328
67994W        W33254   9.872  26.599  13.104
67995W        W33255   7.718   3.418  12.481
67996W        W33256  24.707   1.365  13.872
67997W        W33257  29.080  44.600  12.352
67998W        W33258  10.811  21.885   3.923
67999W        W33259  10.364  13.917  12.498
68000W        W33260   0.711  31.276   0.781
68001W        W33261  32.592  13.862  11.252
68002W        W33262  33.780   7.795   3.425
68003W        W33263  43.805  13.706   3.633
68004W        W33264  31.575   2.258  10.654
68005W        W33265  28.857   4.942   4.165
68006W        W33266  35.045  29.590   3.155
68007W        W33267  17.057   2.918  13.972
68008W        W33268  27.989  34.357   2.771
68009W        W33269  11.898  34.808   5.052
68010W        W33270  10.878  42.535  14.027
68011W        W33271  30.674   2.397  13.801
68012W        W33272  28.905  17.728  10.789
68013W        W33273  22.304  30.065  12.455
68014W        W33274  44.845  15.829   4.315
68015W        W33275  37.403  17.844  12.512
68016W        W33276  31.422  26.639  12.386
68017W        W33277   8.518  43.321  12.370
68018W        W33278   1.849  32.248  10.635
68019W        W33279  18.753  10.694  14.909
68020W        W33280   6.418   0.272   2.537
68021W        W33281  43.303  27.968   0.803
68022W        W33282  39.917  22.726  10.719
68023W        W33283  21.189   9.534   0.743
68024W        W33284  16.658  25.639   0.919
68025W        W33285   4.619  10.536   0.049
68026W        W33286   4.917  31.516  11.467
68027W        W33287  33.879   2.922   3.335
68028W        W33288  35.466   2.007  11.914
68029W        W33289   9.801  23.336  10.706
68030W        W33290  15.797  31.348  14.440
68031W        W33291  11.998   3.157  10.399
68032W        W33292  20.620  31.559   1.501
68033W        W33293   6.214   1.029  14.809
68034W        W33294  35.046  23.518   1.106
68035W        W33295  15.652  22.669   4.479
68036W        W33296  24.460  23.819   2.826
68037W        W33297  19.448  26.941  11.592
68038W        W33298  31.514  35.205   3.285
68039W        W33299  16.136   0.312   0.761
68040W        W33300   2.219  22.647  11.387
68041W        W33301  12.522  33.644   2.152
68042W        W33302  10.286  18.690  10.888
68043W        W33303  25.549  16.241  14.283
68044W        W33304  13.102  15.847  10.785
68045W        W33305  43.341  13.137   0.794
68046W        W33306  19.221  27.965  10.398
68047W        W33307   2.852  25.227  12.801
68048W        W33308   0.930  18.718   4.691
68049W        W33309  38.838  38.598  11.135
68050W        W33310   4.443  42.790  14.133
68051W        W33311  15.253  14.689  12.978
68052W        W33312  23.251  32.285   3.225
68053W        W33313  40.267  39.536  14.287
68054W        W33314  12.616  19.077  12.944
68055W        W33315  24.571   4.353  12.842
68056W        W33316   5.262  10.681   1.369
68057W        W33317   4.399  30.569   3.058
68058W        W33318  12.458  32.100  14.197
68059W        W33319  22.482  25.962   1.743
68060W        W33320   3.301  10.109   3.214
68061W        W33321  12.269   2.032  12.095
68062W        W33322  22.842  21.915   3.835
68063W        W33323  16.780  11.958  14.952
68064W        W33324  21.363  19.968  12.592
68065W        W33325  22.642   2.650   0.887
68066W        W33326  38.014  21.022  11.943
68067W        W33327   2.524   6.887  14.389
68068W        W33328   4.696  14.951   3.857
68069W        W33329   5.702  44.073  14.936
68070W        W33330  23.275   9.125  13.989
68071W        W33331  15.989  25.119  13.813
68072W        W33332  36.578   3.702  11.529
68073W        W33333   0.389  16.114  11.277
68074W        W33334   3.896  32.474  13.856
68075W        W33335  36.889   0.246  13.402
68076W        W33336  14.702  29.415   2.920
68077W        W33337  22.054  20.247   0.363
68078W        W33338  23.135   3.227   4.176
68079W        W33339  24.777  24.490  11.017
68080W        W33340  13.859  33.572  11.629
68081W        W33341  15.253  21.841  12.757
68082W        W33342  41.499  22.566  12.553
68083W        W33343  41.521  26.644  14.556
68084W        W33344  36.191  44.611  13.854
68085W        W33345  44.436   4.054  12.241
68086W        W33346  26.927  26.702   2.851
68087W        W33347  20.175  12.327  10.993
68088W        W33348  20.951  44.950   1.465
68089W        W33349   9.198  15.211   3.227
68090W        W33350  12.601  12.828  12.095
68091W        W33351  15.033  15.167  10.984
68092W        W33352  26.389  20.247   1.509
68093W        W33353  30.451  23.113  12.394
68094W        W33354   0.788   3.574   0.693
68095W        W33355  11.034  17.568  10.887
68096W        W33356  13.570  40.562   2.350
68097W        W33357  32.966  11.222   3.138
68098W        W33358   7.767   8.536   0.854
68099W        W33359  39.846  26.363  12.945
68100W        W33360  25.976  11.788   3.183
68101W        W33361  10.432  14.718   0.973
68102W        W33362  39.397  29.725   2.849
68103W        W33363  28.914   8.184   4.445
68104W        W33364  14.138  43.609  11.074
68105W        W33365  36.551   4.995  12.579
68106W        W33366  12.889   0.801   1.893
68107W        W33367  32.088  37.481  12.059
68108W        W33368  28.605  30.368   2.287
68109W        W33369  31.703  13.325   1.450
68110W        W33370   4.236  26.753   2.107
68111W        W33371  25.765   3.965   4.166
68112W        W33372  13.323  32.966   0.260
68113W        W33373  18.334  28.082   2.812
68114W        W33374   6.240  19.014   1.335
68115W        W33375  40.627  29.032   2.557
68116W        W33376  38.685  31.723   1.699
68117W        W33377   2.014  24.744   3.730
68118W        W33378  38.612  41.472  12.335
68119W        W33379  43.861  11.909   3.691
68120W        W33380  31.004  37.099  10.731
68121W        W33381  41.949  42.226   2.944
68122W        W33382  16.747   6.653  11.539
68123W        W33383  44.644  12.685  11.709
68124W        W33384  36.097  33.462  12.427
68125W        W33385   7.824  24.046   1.398
68126W        W33386  11.702   5.192   1.417
68127W        W33387  15.323   5.721  12.459
68128W        W33388  12.735  33.123  14.011
68129W        W33389  27.966   8.490   2.563
68130W        W33390  19.528  21.054  10.701
68131W        W33391   8.185  22.472  14.831
68132W        W33392  44.827  16.074   1.725
68133W        W33393  37.071  40.846  12.457
68134W        W33394  41.335  18.115  11.888
68135W        W33395  21.477  17.315  11.094
68136W        W33396   4.395  18.630  12.629
68137W        W33397   6.138  21.179  14.416
68138W        W33398  24.600  26.438  12.381
68139W        W33399  42.300   9.593  12.938
68140W        W33400  24.179  26.172   4.781
68141W        W33401  17.549  28.173   4.590
68142W        W33402  39.250  33.629   0.820
68143W        W33403  26.488  42.252  12.905
68144W        W33404  31.585  31.839  12.552
68145W        W33405   7.748  26.394  11.236
68146W        W33406  28.024  28.985   2.903
68147W        W33407  28.405  12.950   4.712
68148W        W33408  43.631  27.202   2.782
68149W        W33409   2.878  40.604   2.100
68150W        W33410  37.731   4.381   0.471
68151W        W33411  18.619  16.112  11.874
68152W        W33412   9.708  33.652   2.581
68153W        W33413  19.255  17.271   3.751
68154W        W33414  42.182  19.815   3.752
68155W        W33415  32.066  37.479   0.237
68156W        W33416  21.107   6.475   2.355
68157W        W33417  38.007  16.250   4.908
68158W        W33418  15.389  25.936   0.061
68159W        W33419  14.654   3.010   0.250
68160W        W33420  15.205   3.373  13.228
68161W        W33421  30.513   7.883  10.556
68162W        W33422  17.002   7.867  12.964
68163W        W33423  38.554  44.062  13.030
68164W        W33424  17.567  40.943  14.926
68165W        W33425  35.452  34.939   3.455
68166W        W33426  22.986  29.519  11.279
68167W        W33427   3.987  11.421   0.976
68168W        W33428  28.082  41.710   0.765
68169W        W33429  10.408  40.903   3.598
68170W        W33430  40.738  34.895  11.355
68171W        W33431   9.234   6.702  12.844
68172W        W33432   3.593  13.346   0.752
68173W        W33433  26.511  24.663   4.394
68174W        W33434  40.335  44.107  10.769
68175W        W33435  30.624  41.539  10.671
68176W        W33436  25.706   9.821  14.329
68177W        W33437   0.539  16.735  14.083
68178W        W33438   9.712  28.467  11.101
68179W        W33439  20.821  19.904  13.411
68180W        W33440   4.400   1.805   0.036
68181W        W33441   5.151  18.247   3.119
68182W        W33442  41.929  24.508   1.965
68183W        W33443   6.626  23.844  11.046
68184W        W33444  31.350  20.817  11.147
68185W        W33445  26.503  16.725  11.609
68186W        W33446  20.105  31.863   4.399
68187W        W33447  33.477  27.828   0.272
68188W        W33448  31.613  19.673  13.562
68189W        W33449   3.806  17.768   1.517
68190W        W33450  25.097  12.386   1.828
68191W        W33451  20.629  25.567   0.342
68192W        W33452  20.562  24.018  14.437
68193W        W33453  30.583   2.343  11.657
68194W        W33454  18.288  41.504   1.873
68195W        W33455  11.858   4.944  13.911
68196W        W33456  17.260  13.097   2.245
68197W        W33457  37.321  35.316  11.520
68198W        W33458  13.300   3.422   2.339
68199W        W33459   9.438   4.494  14.001
68200W        W33460  38.130  33.793   0.081
68201W        W33461   7.646  36.762   3.027
68202W        W33462  33.703  16.051   3.270
68203W        W33463  36.369  13.779   2.308
68204W        W33464  20.915  42.566  11.827
68205W        W33465  41.376   2.031   0.826
68206W        W33466   5.411   7.118   1.266
68207W        W33467  30.149  12.120  12.248
68208W        W33468  40.850  40.192   4.880
68209W        W33469  13.573  27.329   4.511
68210W        W33470  28.405   6.665  14.952
68211W        W33471  22.736  21.143   0.094
68212W        W33472   3.451  44.525  12.049
68213W        W33473  42.012  44.334   1.015
68214W        W33474  17.103  17.559   4.606
68215W        W33475  30.882   1.466  12.942
68216W        W33476   4.747  22.676   0.394
68217W        W33477  32.174  10.624   1.324
68218W        W33478  18.410  39.404   2.368
68219W        W33479  26.945  10.113   1.050
68220W        W33480  23.562  19.076  11.677
68221W        W33481  12.170  28.109  10.616
68222W        W33482  22.017   3.561   4.159
68223W        W33483  40.912  15.572  14.874
68224W        W33484  33.618   3.992  11.086
68225W        W33485  24.442  37.119  12.117
68226W        W33486  29.177  44.548   3.653
68227W        W33487  40.295  41.875  12.991
68228W        W33488  21.893   1.408  12.735
68229W        W33489  20.957  44.506   4.742
68230W        W33490  32.787  29.521  12.904
68231W        W33491  12.565  18.067  13.788
68232W        W33492  31.959  19.122   4.563
68233W        W33493   0.991  39.166  12.081
68234W        W33494   8.132   9.757   4.697
68235W        W33495   1.515  31.098  13.761
68236W        W33496   0.964  13.399  14.041
68237W        W33497  22.008  21.650  13.303
68238W        W33498  33.005  31.388  14.513
68239W        W33499  41.380  19.703   3.240
68240W        W33500  13.437  43.017   3.382
68241W        W33501  42.740  42.053   1.805
68242W        W33502  28.989  32.485  14.090
68243W        W33503  19.019   6.012   2.705
68244W        W33504  37.104  28.433  11.049
68245W        W33505  16.854  18.022   0.466
68246W        W33506  29.436  22.525   0.889
68247W        W33507  35.582   5.644   1.381
68248W        W33508  21.117  19.302   4.732
68249W        W33509  41.995  30.451   3.539
68250W        W33510  24.605   0.254  12.391
68251W        W33511   3.860  10.342  11.101
68252W        W33512  25.220  25.043  13.099
68253W        W33513  21.504   6.613   2.712
68254W        W33514  18.723   5.661   1.286
68255W        W33515  25.772  18.210  13.067
68256W        W33516   2.286   5.461   1.645
68257W        W33517  19.059  24.604  13.927
68258W        W33518  14.362  42.022  11.817
68259W        W33519  16.624  31.491   3.876
68260W        W33520  36.942  20.586   0.259
68261W        W33521  25.500   7.633   3.436
68262W        W33522  30.002   0.465   1.565
68263W        W33523  32.497  22.530  12.445
68264W        W33524  44.755   0.240   1.900
68265W        W33525  30.308   8.483   2.708
68266W        W33526   6.528  38.952  12.142
68267W        W33527  15.361  41.763   4.969
68268W        W33528  26.732  31.857  12.613
68269W        W33529   7.895  37.916  14.774
68270W        W33530  29.575  23.451   2.121
68271W        W33531   5.687  16.549  13.106
68272W        W33532   0.910   2.780  14.376
68273W        W33533   8.568   7.626   5.331
68274W        W33534  29.448  26.978  12.487
68275W        W33535  13.236   3.320   4.474
68276W        W33536  41.964  28.694  12.331
68277W        W33537  44.841  23.536  12.056
68278W        W33538  23.043   9.360   2.919
68279W        W33539  44.270  15.248   4.635
68280W        W33540  36.523  12.244  13.097
68281W        W33541  44.939  31.172   3.285
68282W        W33542  42.104  27.973   2.480
68283W        W33543   1.622   6.923  13.613
68284W        W33544  20.970  11.531  14.858
68285W        W33545  29.799  14.256  11.453
68286W        W33546  18.353  20.016   0.326
68287W        W33547   2.144  19.071   2.471
68288W        W33548  36.078  26.111  12.109
68289W        W33549  30.496  44.979  10.487
68290W        W33550  21.723  21.422   3.202
68291W        W33551   1.428  33.075   4.708
68292W        W33552   7.196   9.609   4.670
68293W        W33553   4.532   1.343  12.385
68294W        W33554  38.110  25.571  11.123
68295W        W33555  43.004  25.990  10.341
68296W        W33556   4.751  25.984  11.992
68297W        W33557  15.341  25.125   0.941
68298W        W33558  14.391  41.874  13.536
68299W        W33559  23.650  10.800  14.614
68300W        W33560  16.110  13.986  12.527
68301W        W33561  28.543  28.705  14.512
68302W        W33562  13.803   3.075  12.594
68303W        W33563  32.828   3.597   3.555
68304W        W33564  20.658  16.525   0.270
68305W        W33565  23.072  23.011   1.649
68306W        W33566  39.813  28.944   3.687
68307W        W33567  14.779  39.905   0.417
68308W        W33568  12.729  34.371  13.163
68309W        W33569  11.601  36.123   2.609
68310W        W33570  36.211  32.837   0.039
68311W        W33571  32.997  11.134  11.877
68312W        W33572  31.379  16.087  14.690
68313W        W33573  39.041  41.096  11.034
68314W        W33574  28.985   7.451  12.857
68315W        W33575  42.425   2.708  11.497
68316W        W33576  14.262   5.439  13.070
68317W        W33577  25.036  33.024   2.974
68318W        W33578  39.834  22.006  11.205
68319W        W33579  13.337   2.916  12.393
68320W        W33580  35.548  28.223   2.860
68321W        W33581  26.964   2.587  13.137
68322W        W33582   5.356   0.774  11.129
68323W        W33583  10.822  29.525  11.524
68324W        W33584  36.652  32.106   4.029
68325W        W33585  13.463  31.075   4.122
68326W        W33586   3.635   3.898  11.477
68327W        W33587  27.494  11.681  14.696
68328W        W33588   6.671   4.885  12.574
68329W        W33589   4.969  20.047  13.931
68330W        W33590  22.358  20.377   3.708
68331W        W33591  20.356  43.521  12.023
68332W        W33592   2.758   3.338  11.993
68333W        W33593  41.305  35.318  14.953
68334W        W33594  37.848   8.380   2.907
68335W        W33595  32.630  17.193  14.808
68336W        W33596  42.799  19.052  14.424
68337W        W33597  39.867   5.863  11.078
68338W        W33598  18.845   8.551   1.200
68339W        W33599   6.763   4.645   1.352
68340W        W33600  33.590   8.197   3.686
68341W        W33601  37.874  18.573   3.597
68342W        W33602  42.181   6.583   1.803
68343W        W33603   9.434  25.187  14.478
68344W        W33604  11.741  12.122  13.855
68345W        W33605   5.156   1.331   0.006
68346W        W33606   2.211  13.704  13.546
68347W        W33607   0.384  21.711   0.671
68348W        W33608   7.458  27.671   3.669
68349W        W33609   9.120  42.864  11.174
68350W        W33610   9.204  18.780  14.777
68351W        W33611  33.731  12.883  14.262
68352W        W33612  33.327  44.874  11.440
68353W        W33613   7.620  42.967  11.310
68354W        W33614  21.079   7.813   3.723
68355W        W33615  31.340  43.028  11.151
68356W        W33616   8.944   9.527  14.991
68357W        W33617   5.303   2.706   2.609
68358W        W33618  29.098   3.077   0.286
68359W        W33619  42.808  26.902  13.397
68360W        W33620   3.258   5.590  13.863
68361W        W33621  16.850  29.640   4.609
68362W        W33622   6.470   7.243   2.114
68363W        W33623  37.655   8.132  14.910
68364W        W33624  32.592  10.799  13.894
68365W        W33625   6.723  14.569   4.668
68366W        W33626  23.264  43.360   3.570
68367W        W33627  43.115   5.398  11.401
68368W        W33628  35.066  36.637   4.540
68369W        W33629   9.821  35.908  12.842
68370W        W33630  38.968  24.121   0.240
68371W        W33631  11.126  17.557  13.504
68372W        W33632  29.988   1.850   0.201
68373W        W33633  12.191  39.920   0.866
68374W        W33634   9.148  13.017  12.879
68375W        W33635  21.581  34.692   0.429
68376W        W33636   7.463  20.358   0.767
68377W        W33637  29.251  13.762   3.137
68378W        W33638  22.196  44.423  10.525
68379W        W33639  38.042  21.017   0.073
68380W        W33640  30.905  26.686  12.407
68381W        W33641  42.380  38.517  13.797
68382W        W33642  11.152   6.067  14.181
68383W        W33643  20.024  22.541   2.361
68384W        W33644  40.003  25.723   2.177
68385W        W33645  12.399  13.441  13.281
68386W        W33646  42.854  39.120   1.827
68387W        W33647  37.516  31.404   2.192
68388W        W33648  41.972  40.788  13.527
68389W        W33649  18.702  42.780  12.109
68390W        W33650  41.557  10.257  14.857
68391W        W33651   9.600  25.997  12.958
68392W        W33652   6.945  35.951   0.868
68393W        W33653  44.031   9.121   2.327
68394W        W33654   0.538   1.800  10.641
68395W        W33655  25.619   5.532   3.208
68396W        W33656  18.088  25.534   1.170
68397W        W33657  35.780   4.292   2.817
68398W        W33658  11.056  30.360   3.546
68399W        W33659  22.053  33.159   0.291
68400W        W33660  11.208  34.834  14.323
68401W        W33661  34.868  16.152   3.711
68402W        W33662  17.817   1.868  12.361
68403W        W33663  22.248  11.398   3.626
68404W        W33664  16.704  32.449   4.795
68405W        W33665   8.435  44.751   1.836
68406W        W33666  13.378  23.090  10.629
68407W        W33667  12.362  19.131  14.873
68408W        W33668  35.605  19.959   2.293
68409W        W33669  31.248   9.819  14.272
68410W        W33670  10.340  42.449   0.425
68411W        W33671   2.443  42.142   0.436
68412W        W33672   3.393   4.022  13.229
68413W        W33673  44.374   7.091   0.476
68414W        W33674  16.064   1.080   4.264
68415W        W33675  39.045   6.687   3.710
68416W        W33676  27.711   4.832   3.153
68417W        W33677   6.245  43.204   0.016
68418W        W33678   6.884  10.541  14.956
68419W        W33679  32.611  16.330   3.580
68420W        W33680  44.680  31.302   2.412
68421W        W33681   8.626  38.892   3.219
68422W        W33682  35.554  23.073   0.268
68423W        W33683   9.832  29.270   2.791
68424W        W33684  26.669  41.514  10.594
68425W        W33685  18.577  41.186   1.206
68426W        W33686  15.881  36.976  14.795
68427W        W33687  11.800   6.898   4.122
68428W        W33688  44.498   5.246  10.358
68429W        W33689  29.546  10.230   0.752
68430W        W33690  36.956  19.154  11.985
68431W        W33691  38.807  18.485  13.282
68432W        W33692  20.555  20.554  12.735
68433W        W33693  11.330  34.980   2.380
68434W        W33694  16.274  29.496   0.178
68435W        W33695   9.570  24.586   4.509
68436W        W33696  26.501  34.945   4.519
68437W        W33697  24.835  12.812   0.043
68438W        W33698  31.067   4.627  11.987
68439W        W33699  33.070  42.880   3.402
68440W        W33700  33.651  27.118   1.665
68441W        W33701  19.653  15.956  13.058
68442W        W33702  29.550  14.689   0.427
68443W        W33703  14.293  40.101  11.579
68444W        W33704  41.900  23.229   0.323
68445W        W33705  33.061  38.758  10.620
68446W        W33706  43.876  14.734  14.988
68447W        W33707  23.735  40.014   0.258
68448W        W33708  27.142  41.779  13.604
68449W        W33709   6.432  40.557   3.713
68450W        W33710  40.829   5.127   0.978
68451W        W33711  37.982  43.425   3.626
68452W        W33712  12.759  32.681   1.322
68453W        W33713  16.709  19.247  13.374
68454W        W33714  44.631  19.517   3.206
68455W        W33715  25.461  38.377  12.598
68456W        W33716  40.543   6.913   0.490
68457W        W33717   7.733   8.191   2.386
68458W        W33718  28.731  39.847  10.589
68459W        W33719   2.270  14.292  14.195
68460W        W33720   8.757  16.718   1.727
68461W        W33721  10.826   3.653   4.116
68462W        W33722   9.329  23.206  14.271
68463W        W33723  37.300  18.245  13.919
68464W        W33724  38.542  34.623  14.245
68465W        W33725   1.166   3.437  10.502
68466W        W33726  27.529  30.350   1.872
68467W        W33727   1.821  31.892  12.466
68468W        W33728  19.885   8.827  11.251
68469W        W33729  22.974  21.279   1.509
68470W        W33730  21.468   9.200  11.400
68471W        W33731   0.706  36.084  11.093
68472W        W33732  29.678  10.118  11.468
68473W        W33733  26.937  42.374   2.449
68474W        W33734   3.148   6.528   3.713
68475W        W33735  23.228   8.844  10.873
68476W        W33736  32.803  11.099  11.384
68477W        W33737  10.340  17.719   3.280
68478W        W33738   5.142  37.036   2.697
68479W        W33739  41.907  37.900  10.662
68480W        W33740  28.660  32.870   3.580
68481W        W33741  33.564  23.262   3.145
68482W        W33742  25.059  19.415  12.182
68483W        W33743  23.053   9.860   1.180
68484W        W33744  21.529  36.084  13.337
68485W        W33745  41.443   1.945  11.722
68486W        W33746  38.279  31.933  12.066
68487W        W33747  36.057  10.809   0.348
68488W        W33748  44.469  39.813   2.919
68489W        W33749  42.052  13.276   3.733
68490W        W33750   7.301  23.946  13.085
68491W        W33751  14.137  17.894  11.229
68492W        W33752  34.851   8.834  10.687
68493W        W33753  19.344  18.249  11.605
68494W        W33754   9.318  22.480  12.567
68495W        W33755  16.725  30.250  10.986
68496W        W33756   2.176  33.645   2.367
68497W        W33757  30.128   5.518   2.680
68498W        W33758  34.074   3.774  12.273
68499W        W33759  42.882  13.934  12.084
68500W        W33760  35.937   4.444   0.481
68501W        W33761   5.443  33.453  10.614
68502W        W33762   2.488   1.698  11.072
68503W        W33763   0.093  14.728   4.899
68504W        W33764  28.085  37.155   5.052
68505W        W33765  39.247  31.172  10.803
68506W        W33766  12.746  31.475   4.525
68507W        W33767   8.498  16.330   4.167
68508W        W33768  21.314  34.138   1.635
68509W        W33769  21.623  44.764  12.019
68510W        W33770  14.085  20.446  14.715
68511W        W33771  20.029  32.248   4.737
68512W        W33772   7.645  17.581  10.980
68513W        W33773   8.130  10.856   4.272
68514W        W33774   6.243  28.464   1.883
68515W        W33775  11.950  32.186  11.737
68516W        W33776  21.804  26.078   4.401
68517W        W33777  31.804  21.622   2.866
68518W        W33778  13.280  33.449  13.346
68519W        W33779   2.063  26.556   4.948
68520W        W33780  17.734  13.667  13.946
68521W        W33781  33.775   5.119  11.628
68522W        W33782  31.103  39.713   2.441
68523W        W33783  43.512  14.922  14.190
68524W        W33784  34.689  24.194   2.155
68525W        W33785  33.573  36.125  12.224
68526W        W33786  42.536   1.320   3.326
68527W        W33787  42.927   1.408  12.956
68528W        W33788  22.135  39.836  12.457
68529W        W33789  12.151  16.165   1.331
68530W        W33790   4.490  40.510   0.906
68531W        W33791  24.790   6.127  13.871
68532W        W33792  26.975  16.430   2.644
68533W        W33793  40.855  33.602  11.091
68534W        W33794  28.810  22.966   2.200
68535W        W33795  28.979  30.522   4.081
68536W        W33796  32.427   0.275   0.512
68537W        W33797  20.644   6.723  12.895
68538W        W33798  15.111  12.640  13.551
68539W        W33799  18.702   8.910   4.971
68540W        W33800  26.469  16.144   0.371
68541W        W33801  40.317  17.065   1.955
68542W        W33802  12.864   9.931  12.342
68543W        W33803   8.485  18.670   0.486
68544W        W33804  26.707   9.426   1.383
68545W        W33805  17.668  27.684   2.931
68546W        W33806  40.019  29.125   4.144
68547W        W33807  33.372  26.692   1.841
68548W        W33808   4.317  24.195   3.348
68549W        W33809  40.823  37.517  12.081
68550W        W33810   0.992   7.005  10.367
68551W        W33811  38.156  18.717  13.930
68552W        W33812  33.711   5.022   1.320
68553W        W33813   6.313  44.820   4.784
68554W        W33814  16.699   7.515   4.715
68555W        W33815  28.631  26.707   3.198
68556W        W33816  10.110  34.847   4.185
68557W        W33817  18.154  29.262   2.806
68558W        W33818   4.378  36.061   0.833
68559W        W33819  20.519  34.520   4.086
68560W        W33820  10.394  23.715  14.963
68561W        W33821  33.459  13.735  14.476
68562W        W33822   5.380  27.704   1.435
68563W        W33823  33.189  29.656   3.734
68564W        W33824  22.999  35.149   2.212
68565W        W33825  44.517  24.336  11.189
68566W        W33826  10.334  41.893   1.194
68567W        W33827  13.073  35.933   3.159
68568W        W33828  31.404  23.759   3.114
68569W        W33829  10.440   2.786  12.620
68570W        W33830  41.968  14.122   1.732
68571W        W33831  34.086  33.901   1.325
68572W        W33832   7.135  26.653   9.818
68573W        W33833  28.258  27.969   3.653
68574W        W33834  38.019  19.512   4.973
68575W        W33835   0.438   3.523   1.530
68576W        W33836  20.482  11.142  12.432
68577W        W33837  27.696  13.754   3.617
68578W        W33838   2.277  29.650  12.354
68579W        W33839   2.213  28.876  13.981
68580W        W33840  31.211   4.034   3.995
68581W        W33841  22.938  27.557   1.335
68582W        W33842   7.409  17.707   0.516
68583W        W33843  37.415  11.639   1.301
68584W        W33844  32.641  43.437  11.602
68585W        W33845  18.681  37.736   2.838
68586W        W33846  32.211  41.447   4.128
68587W        W33847   7.706  20.705   4.833
68588W        W33848  41.215  35.989   4.482
68589W        W33849  34.197  42.674  13.080
68590W        W33850  40.920  30.432  13.528
68591W        W33851   6.024   9.348   4.422
68592W        W33852  23.687  22.492   4.754
68593W        W33853  32.937  10.336   1.789
68594W        W33854  18.373  28.837  12.910
68595W        W33855   6.294  36.525  14.373
68596W        W33856  28.380  32.907  14.378
68597W        W33857  23.431  10.200   0.912
68598W        W33858  11.962  31.525  14.087
68599W        W33859   5.697  42.328   1.924
68600W        W33860  39.285  16.027  12.098
68601W        W33861  19.077  40.814  14.978
68602W        W33862   2.785  38.600  14.351
68603W        W33863   1.004   4.531  13.433
68604W        W33864   3.746  33.112  14.992
68605W        W33865  25.203  19.009   2.626
68606W        W33866  30.592  18.731  10.902
68607W        W33867   6.895  32.077   2.785
68608W        W33868  35.375   0.935   2.334
68609W        W33869  20.081  19.020  11.361
68610W        W33870  19.272  12.348  11.927
68611W        W33871  13.732  23.195  12.005
68612W        W33872   0.840  26.808  12.774
68613W        W33873   5.605  16.778   1.324
68614W        W33874  24.219  20.099   0.016
68615W        W33875   1.225  44.955   4.109
68616W        W33876   4.356  37.409   2.436
68617W        W33877  15.295  33.561  14.452
68618W        W33878  13.100  23.464  14.200
68619W        W33879  29.614  44.986   0.302
68620W        W33880  23.788  19.099  14.185
68621W        W33881   2.619   2.227   3.577
68622W        W33882   5.440  33.436  10.049
68623W        W33883  33.669  25.933  14.449
68624W        W33884  24.586  12.880  14.501
68625W        W33885  36.175  11.212  12.120
68626W        W33886   4.726  11.636  10.743
68627W        W33887  38.795  18.158  11.504
68628W        W33888  32.839  37.300  12.901
68629W        W33889  31.868  27.758  13.060
68630W        W33890  39.444  38.021   3.996
68631W        W33891  18.069  18.045   4.617
68632W        W33892  30.949   9.921  12.459
68633W        W33893  18.774   1.466   3.238
68634W        W33894  21.293  32.625  11.490
68635W        W33895  26.470  19.138  12.628
68636W        W33896  18.992  36.698   4.030
68637W        W33897   4.701   5.265   4.319
68638W        W33898   9.095  29.397   4.933
68639W        W33899   8.337  43.024   2.753
68640W        W33900  24.503  20.779   0.728
68641W        W33901  26.299   3.185   1.371
68642W        W33902  31.629   6.289   3.068
68643W        W33903  23.989  20.584   0.030
68644W        W33904   2.818  13.640   3.211
68645W        W33905  11.184  15.625   4.027
68646W        W33906  31.637  36.715   4.191
68647W        W33907  36.573  26.374  13.384
68648W        W33908  29.662  22.009  12.897
68649W        W33909  29.981   3.910  13.140
68650W        W33910  44.336  15.598  12.569
68651W        W33911  35.408  28.868   4.592
68652W        W33912  40.496  28.651  14.589
68653W        W33913  19.154  11.378  13.587
68654W        W33914   7.230  27.170  12.515
68655W        W33915  15.623  26.141   2.234
68656W        W33916  13.967  39.879  13.996
68657W        W33917  28.603  41.801   1.318
68658W        W33918   2.692  26.283  14.918
68659W        W33919  44.842  17.663   3.441
68660W        W33920   8.779  42.758  12.984
68661W        W33921   1.300  22.596  10.999
68662W        W33922  27.107   5.513   2.522
68663W        W33923  32.052   4.406   2.313
68664W        W33924   7.751  19.401  12.792
68665W        W33925   0.574  27.238   3.475
68666W        W33926  26.081   6.231   2.230
68667W        W33927  16.466  26.274  11.223
68668W        W33928  36.919   4.535  14.805
68669W        W33929  11.166  13.969   1.855
68670W        W33930  19.521  39.127   0.272
68671W        W33931  11.813  27.177  13.446
68672W        W33932  16.176  24.525   0.053
68673W        W33933  12.289  44.252  14.856
68674W        W33934  26.540   5.361  10.960
68675W        W33935  38.524  27.706   4.139
68676W        W33936  18.933   9.462   0.903
68677W        W33937   1.806   2.658  14.490
68678W        W33938  11.621  29.042  14.251
68679W        W33939   0.077  18.176  11.188
68680W        W33940  25.463  26.162  11.596
68681W        W33941  29.562   9.177   2.249
68682W        W33942  19.099  29.425   0.354
68683W        W33943   0.809   9.238  12.551
68684W        W33944  16.293   7.905  14.904
68685W        W33945  32.585  31.611   1.921
68686W        W33946  30.941   2.829  12.445
68687W        W33947  24.692  43.449  13.524
68688W        W33948  12.601  37.433  12.406
68689W        W33949  44.307  37.163  14.866
68690W        W33950   3.208  11.546  11.723
68691W        W33951  18.605  22.287   4.632
68692W        W33952  41.250  24.471  14.904
68693W        W33953  13.993  17.282   2.766
68694W        W33954  33.113  13.129   3.829
68695W        W33955   2.632  14.921  12.960
68696W        W33956   0.347  18.267   1.248
68697W        W33957  27.160  19.480   3.087
68698W        W33958  30.161   8.118   0.802
68699W        W33959  39.889  24.599  11.940
68700W        W33960   7.522   7.381  11.441
68701W        W33961  16.667  34.562  11.056
68702W        W33962  20.442   4.118   1.755
68703W        W33963  17.742  22.259   4.816
68704W        W33964  20.081  31.480   0.711
68705W        W33965  35.332  23.563   4.620
68706W        W33966  30.320   0.868   3.255
68707W        W33967  14.963  21.796   5.611
68708W        W33968  28.090  37.494   1.892
68709W        W33969  21.552  25.012   4.185
68710W        W33970  43.451  38.670  13.032
68711W        W33971  42.955   9.248  14.541
68712W        W33972  10.127  12.117  13.829
68713W        W33973  43.555  13.629  13.812
68714W        W33974  28.576  44.665   4.051
68715W        W33975  15.707  33.920   3.315
68716W        W33976  13.482  32.020  12.378
68717W        W33977  15.226  14.637  11.166
68718W        W33978  31.995   6.374   2.652
68719W        W33979  11.635  22.750  13.778
68720W        W33980  35.387  39.315  11.692
68721W        W33981  15.233  36.112   0.484
68722W        W33982  27.086  31.509   1.414
68723W        W33983  35.487  19.263  12.112
68724W        W33984  39.697  31.577   3.145
68725W        W33985   1.701  20.516  14.406
68726W        W33986  35.825  23.103   0.915
68727W        W33987  27.045  39.930  11.871
68728W        W33988  24.293  30.397  13.000
68729W        W33989   6.254  20.570  12.665
68730W        W33990  34.581  33.449   3.284
68731W        W33991  40.052   2.273  10.352
68732W        W33992  14.097  18.804   2.712
68733W        W33993   5.982  20.206  12.335
68734W        W33994  33.420   2.539   0.311
68735W        W33995  44.509  28.139  14.105
68736W        W33996   8.154  14.868   4.046
68737W        W33997  32.105   6.209  12.980
68738W        W33998   4.273  31.226   3.799
68739W        W33999  37.804  29.371   1.361
68740W        W34000  30.504  28.715   4.215
68741W        W34001  21.279  34.000   2.660
68742W        W34002   0.287  17.524   0.059
68743W        W34003  26.697  13.639   1.036
68744W        W34004  41.819  30.316   1.183
68745W        W34005  35.066  20.993  13.305
68746W        W34006  24.187  26.587   1.494
68747W        W34007  21.555   1.698  10.431
68748W        W34008  27.558  19.185   0.988
68749W        W34009   4.681  38.404   1.272
68750W        W34010  22.069  30.682   4.369
68751W        W34011  30.645   2.924  14.392
68752W        W34012  12.705  19.019  13.997
68753W        W34013  19.108  16.936  13.331
68754W        W34014  19.078  41.971  14.486
68755W        W34015   6.762   7.765  11.632
68756W        W34016   3.896  15.685  11.254
68757W        W34017   9.649  18.948   1.457
68758W        W34018  44.387  15.918  13.920
68759W        W34019   7.908  28.055  13.933
68760W        W34020  33.669  16.640   4.072
68761W        W34021  24.989  40.526  10.833
68762W        W34022  32.277  31.015  12.474
68763W        W34023  13.301   5.722  13.080
68764W        W34024  24.909  36.024  12.586
68765W        W34025  16.614  32.854  10.696
68766W        W34026   0.764  15.372   3.530
68767W        W34027  13.320  32.688  13.979
68768W        W34028   7.692  24.441  12.966
68769W        W34029  17.078  23.268   3.353
68770W        W34030  26.506  19.165  13.509
68771W        W34031  21.615  14.291   5.124
68772W        W34032   9.274  29.948  12.970
68773W        W34033  14.049  33.673   4.644
68774W        W34034  20.986  20.938   2.765
68775W        W34035  22.199  41.508  14.235
68776W        W34036   9.268  18.301  14.431
68777W        W34037   7.162  12.400   4.753
68778W        W34038   4.954  17.017   1.245
68779W        W34039  15.121  30.771  11.161
68780W        W34040   5.793  31.559   4.599
68781W        W34041  16.810  31.164  14.764
68782W        W34042  15.385  17.170  12.354
68783W        W34043   4.476  12.258   2.857
68784W        W34044  17.688  13.047  12.524
68785W        W34045  23.630  32.470   0.884
68786W        W34046   4.228  38.499   4.121
68787W        W34047  27.395  34.043   0.379
68788W        W34048  38.487  25.300   1.291
68789W        W34049  32.128  13.256  14.850
68790W        W34050  31.817   5.913   3.376
68791W        W34051  22.538  28.566   4.599
68792W        W34052  19.260  23.071   0.391
68793W        W34053  21.111  12.183   1.267
68794W        W34054  32.798  27.813  12.861
68795W        W34055  25.818   3.755  11.977
68796W        W34056  29.446  28.345   4.934
68797W        W34057  36.577   9.377  12.810
68798W        W34058  40.542   3.979  13.938
68799W        W34059  35.917  24.180  14.918
68800W        W34060  10.805  37.039  14.164
68801W        W34061   1.988  18.055   1.667
68802W        W34062  10.376  42.395  13.873
68803W        W34063  10.047   3.787   0.509
68804W        W34064  39.288  37.114   2.330
68805W        W34065  38.355   0.729   1.736
68806W        W34066  22.031  26.258   3.468
68807W        W34067  23.187  10.969  11.921
68808W        W34068  38.298  12.094   1.719
68809W        W34069  40.991  15.831  10.701
68810W        W34070  15.543  41.041   1.699
68811W        W34071  29.437   2.370  13.027
68812W        W34072  19.390  29.951   1.315
68813W        W34073  41.492  39.199  14.103
68814W        W34074  26.250  32.634  12.886
68815W        W34075  22.624  21.741   5.217
68816W        W34076   3.935  42.530   1.945
68817W        W34077  23.733  13.009   3.540
68818W        W34078  40.053   3.649  14.753
68819W        W34079  15.729   4.900   2.000
68820W        W34080  12.765  20.850   5.273
68821W        W34081  20.104   9.341  11.285
68822W        W34082   0.361  19.305   3.876
68823W        W34083  15.122  35.443   1.855
68824W        W34084   2.881   5.594   4.264
68825W        W34085  40.178  39.379   2.865
68826W        W34086  32.946   7.149  10.693
68827W        W34087  29.517  16.249   4.752
68828W        W34088  27.932  10.673   0.580
68829W        W34089   2.508  36.954  13.790
68830W        W34090   0.339   1.980  12.040
68831W        W34091  44.765  31.641   3.194
68832W        W34092  12.468  14.279   0.272
68833W        W34093  24.980  33.566   2.135
68834W        W34094  19.131  34.147   3.160
68835W        W34095  29.424  41.077  11.494
68836W        W34096   9.892  25.943  11.117
68837W        W34097   3.853  21.484   5.413
68838W        W34098  24.423   8.110   3.531
68839W        W34099  17.334  41.739  14.979
68840W        W34100  12.912  22.736  13.601
68841W        W34101  32.447  41.485   2.905
68842W        W34102  10.315  12.838  13.484
68843W        W34103  34.883  12.643  13.337
68844W        W34104  40.704  35.771   3.200
68845W        W34105   2.903  31.448  12.084
68846W        W34106  24.728  20.517   1.161
68847W        W34107  18.522  15.980   1.410
68848W        W34108  43.841  30.255  10.265
68849W        W34109  25.250  14.125  13.837
68850W        W34110   6.534  10.905   3.375
68851W        W34111  25.448  24.276  12.399
68852W        W34112   6.750  31.326   0.493
68853W        W34113  22.736  29.041   4.413
68854W        W34114  44.356  41.768  14.849
68855W        W34115  19.022   2.947  12.010
68856W        W34116  12.144  28.250   0.287
68857W        W34117   1.936  42.875  10.475
68858W        W34118  37.832   9.702  10.742
68859W        W34119   9.456  26.627   1.874
68860W        W34120  40.890  13.817   4.225
68861W        W34121  33.264   0.383   0.330
68862W        W34122   6.291  30.097  11.919
68863W        W34123  28.009  41.584  13.538
68864W        W34124  44.220  35.399  12.142
68865W        W34125  28.958  21.209  14.410
68866W        W34126  28.160  30.452   4.267
68867W        W34127  24.040  20.305  14.561
68868W        W34128  33.668   4.949   2.815
68869W        W34129   0.793  31.498   3.269
68870W        W34130  19.246  41.303   1.682
68871W        W34131  40.951  33.455  14.376
68872W        W34132  31.330  36.310  12.523
68873W        W34133  22.067   0.185  11.177
68874W        W34134  43.686  39.895   1.796
68875W        W34135  34.666  42.646  13.340
68876W        W34136  28.086  19.162  13.395
68877W        W34137  34.841  18.109   3.724
68878W        W34138  22.061  33.217   4.101
68879W        W34139  33.468   0.677   0.878
68880W        W34140  42.978   6.583  14.347
68881W        W34141  39.797  18.049   4.446
68882W        W34142  20.586  15.964   0.171
68883W        W34143  14.023  37.417  14.913
68884W        W34144  38.837  28.555   1.023
68885W        W34145  23.545  25.365   3.176
68886W        W34146   1.840   7.770   1.999
68887W        W34147  11.063  10.154  11.165
68888W        W34148  34.480  16.983  13.113
68889W        W34149  17.076  43.890   2.020
68890W        W34150  19.723  25.508  11.619
68891W        W34151  40.798   7.118  11.557
68892W        W34152  32.318   1.531  13.866
68893W        W34153  10.374  11.243  14.347
68894W        W34154  18.256  39.940  14.381
68895W        W34155  12.916  27.271   2.984
68896W        W34156  28.656  25.422  10.129
68897W        W34157  13.842  12.938  13.531
68898W        W34158   1.800  41.333   4.247
68899W        W34159  32.396   2.909   0.414
68900W        W34160  25.927  19.824   0.185
68901W        W34161   5.343  41.535   4.231
68902W        W34162   4.356  39.334   0.528
68903W        W34163  20.448  14.217  12.482
68904W        W34164  34.704  41.934  11.879
68905W        W34165  20.360  23.405   3.271
68906W        W34166   4.454   5.899  14.372
68907W        W34167  38.991  12.505  12.926
68908W        W34168  10.110  32.570  10.542
68909W        W34169   8.929  12.267   3.699
68910W        W34170  24.788  34.526   2.811
68911W        W34171   4.762  30.200   3.019
68912W        W34172  44.689   4.635   0.037
68913W        W34173  23.550   6.091   1.365
68914W        W34174  16.165  25.334  11.615
68915W        W34175  33.423  21.210  11.610
68916W        W34176  14.165  11.413  14.333
68917W        W34177  12.867   0.246  10.741
68918W        W34178  35.747  19.704   2.752
68919W        W34179  28.164   5.108   2.395
68920W        W34180  10.654   3.827  14.881
68921W        W34181  20.242   1.715  13.411
68922W        W34182   4.812  34.062  12.120
68923W        W34183   6.728   4.634  10.706
68924W        W34184  13.226  19.189   3.166
68925W        W34185  38.188   1.810   0.683
68926W        W34186   6.181  15.971   4.691
68927W        W34187  12.617  17.242   3.217
68928W        W34188  27.944   6.523  11.505
68929W        W34189  39.146   6.703  12.171
68930W        W34190  39.355   2.465   4.941
68931W        W34191  13.347   3.689  14.227
68932W        W34192  25.947  12.113   3.912
68933W        W34193  23.548  41.430   2.315
68934W        W34194  13.409   8.761   2.656
68935W        W34195  42.330  28.961  10.776
68936W        W34196   9.318  29.582   0.643
68937W        W34197  11.726  20.172   4.246
68938W        W34198  15.912  14.340   1.604
68939W        W34199   8.428  24.687  10.294
68940W        W34200  27.665  25.061  14.510
68941W        W34201   5.778  34.382   1.728
68942W        W34202  23.166  42.828  13.387
68943W        W34203   2.907   9.861  13.608
68944W        W34204  24.489  20.651   2.688
68945W        W34205  18.452  38.202   1.951
68946W        W34206  25.816  23.889   1.757
68947W        W34207  33.054   0.543  13.928
68948W        W34208  43.866  25.826   0.561
68949W        W34209  25.668  32.339   2.712
68950W        W34210  42.880  17.352  12.337
68951W        W34211  40.948  13.135  14.449
68952W        W34212  11.607  18.488  12.432
68953W        W34213  33.966   9.654   0.787
68954W        W34214  29.954   0.228  12.396
68955W        W34215  32.071  20.992  13.782
68956W        W34216  12.700  29.191  13.530
68957W        W34217  24.572  23.143   0.111
68958W        W34218  23.550   6.360  14.557
68959W        W34219   9.902  38.808  12.520
68960W        W34220  17.202  18.232   5.521
68961W        W34221  39.793  15.869   1.214
68962W        W34222  43.985  43.795  12.899
68963W        W34223  18.851  28.162   4.220
68964W        W34224   2.622  41.952  11.069
68965W        W34225  16.636   0.676  12.038
68966W        W34226  33.543  30.002  11.105
68967W        W34227  30.233   3.891  12.229
68968W        W34228  28.723  23.000   1.256
68969W        W34229  26.881  19.652  14.884
68970W        W34230  40.745  14.577  11.239
68971W        W34231  19.627  25.585   1.894
68972W        W34232   2.132  28.524  12.177
68973W        W34233  39.015  33.821   2.980
68974W        W34234   9.711  39.877  11.635
68975W        W34235  33.438  15.286   0.477
68976W        W34236   7.353  22.788  11.599
68977W        W34237   6.674  31.092  14.672
68978W        W34238  24.936  15.642  10.930
68979W        W34239  43.760  44.936   2.806
68980W        W34240  36.905  37.019  11.770
68981W        W34241  19.697  14.774  11.194
68982W        W34242   4.229  22.945  14.498
68983W        W34243  22.476  36.972  13.007
68984W        W34244   3.798  14.149  13.364
68985W        W34245   7.690  11.087   2.860
68986W        W34246   7.081  36.109  13.532
68987W        W34247  25.625  21.857   2.888
68988W        W34248  31.900  34.173   2.184
68989W        W34249  18.769  39.828   0.961
68990W        W34250  10.611  42.589  13.433
68991W        W34251  27.068   4.068  11.129
68992W        W34252  15.747  14.691  12.095
68993W        W34253  42.139  27.898   4.684
68994W        W34254  26.434  25.968  14.277
68995W        W34255  27.528  10.385  10.968
68996W        W34256  12.134  17.022   3.316
68997W        W34257  36.292  18.651  12.281
68998W        W34258   6.182  17.157   1.851
68999W        W34259  16.324  30.100   2.743
69000W        W34260   3.458   0.954  11.528
69001W        W34261  12.274  38.938  12.946
69002W        W34262  14.718   2.721  12.786
69003W        W34263  25.719   2.048   0.244
69004W        W34264  11.270  16.139  14.588
69005W        W34265  24.070  19.503   0.722
69006W        W34266  41.503  29.408  14.203
69007W        W34267  11.204  13.169   4.126
69008W        W34268  15.896  11.409   2.532
69009W        W34269  40.277   4.871  11.639
69010W        W34270  16.835   6.721   0.302
69011W        W34271   7.970  15.960  14.823
69012W        W34272  41.056  42.997  13.940
69013W        W34273  28.200  36.873   1.184
69014W        W34274  21.066  24.257   1.785
69015W        W34275  37.642  38.257  13.437
69016W        W34276  20.262  39.564   1.235
69017W        W34277  24.924   6.597  11.190
69018W        W34278  29.040   3.633   0.318
69019W        W34279  39.897  40.571  10.806
69020W        W34280  12.398  21.007   0.911
69021W        W34281  19.149   4.166  14.865
69022W        W34282  25.029  33.910   1.212
69023W        W34283  30.026  39.440  13.342
69024W        W34284   4.460  19.162  14.626
69025W        W34285  26.733   9.840   3.773
69026W        W34286  17.052   8.246  12.331
69027W        W34287  39.591  19.067   3.065
69028W        W34288  31.385  24.066  14.715
69029W        W34289  25.663  16.707  13.571
69030W        W34290  27.941  20.724   2.352
69031W        W34291  16.704  13.124   1.361
69032W        W34292  31.133  32.972   3.165
69033W        W34293  19.747  28.279  12.910
69034W        W34294  10.858  24.043   4.454
69035W        W34295   5.209  40.872  10.980
69036W        W34296   3.424  31.070  11.410
69037W        W34297  19.198   0.256   1.810
69038W        W34298  30.200  21.253  12.797
69039W        W34299   2.688  27.769  11.422
69040W        W34300   7.611   4.833   0.687
69041W        W34301  43.016  22.689  13.661
69042W        W34302  16.838  12.162  12.963
69043W        W34303  26.132  42.062   4.839
69044W        W34304   2.981  34.891  13.527
69045W        W34305  20.098  21.136   1.577
69046W        W34306  23.912   8.534   1.151
69047W        W34307  20.132  23.591   2.850
69048W        W34308   7.866  10.039  10.224
69049W        W34309  11.304   6.014  11.924
69050W        W34310  19.155  11.937   3.420
69051W        W34311   5.899  20.763   3.610
69052W        W34312  34.613  38.876   2.319
69053W        W34313  20.318  32.378  13.237
69054W        W34314  24.016   0.382  11.094
69055W        W34315   0.880  26.993   3.102
69056W        W34316  34.875  22.512   0.528
69057W        W34317  16.781  43.959   2.832
69058W        W34318  29.154  16.244   0.598
69059W        W34319  24.953  44.106  13.963
69060W        W34320  32.452  44.943   4.692
69061W        W34321   5.528  11.098  13.095
69062W        W34322   5.778  12.150  11.916
69063W        W34323   5.259  40.396   3.723
69064W        W34324  13.736  37.925   1.192
69065W        W34325  23.767  39.946   2.737
69066W        W34326  33.083  25.010  12.424
69067W        W34327  35.078  35.652   1.258
69068W        W34328  12.884  10.086  11.474
69069W        W34329  14.661  25.113   3.559
69070W        W34330   5.140  21.883   2.268
69071W        W34331  13.624  30.518   3.394
69072W        W34332   5.725  16.831  14.560
69073W        W34333  28.033  39.034   1.893
69074W        W34334  24.253  31.020  11.100
69075W        W34335  19.845  30.959   3.377
69076W        W34336  17.816  41.934   0.474
69077W        W34337  40.395   0.581  12.575
69078W        W34338  19.118  22.032  12.911
69079W        W34339   2.543  44.887  10.525
69080W        W34340   6.414  24.473  13.016
69081W        W34341  28.281  33.882  11.788
69082W        W34342  25.083   2.708  12.037
69083W        W34343   4.413  23.197  10.258
69084W        W34344  13.880  38.345  11.163
69085W        W34345  15.835   1.660   1.427
69086W        W34346   1.731  38.177  10.714
69087W        W34347  25.700  28.169  14.698
69088W        W34348   0.691   8.012  13.103
69089W        W34349   5.178  36.918  14.673
69090W        W34350  23.467  19.626  12.520
69091W        W34351  19.849  30.089   0.347
69092W        W34352  12.737   3.981  13.037
69093W        W34353  44.821  36.511  14.749
69094W        W34354  30.097  31.588  13.153
69095W        W34355   7.490  27.769   4.526
69096W        W34356  18.768  20.535  12.417
69097W        W34357  34.061  18.642  10.655
69098W        W34358  17.742  10.873   3.197
69099W        W34359   7.667  27.564  10.699
69100W        W34360  33.080  16.500  13.598
69101W        W34361  20.332  44.200   2.677
69102W        W34362  40.096   1.291   1.469
69103W        W34363  21.067  37.248  14.368
69104W        W34364  14.766   7.347  12.158
69105W        W34365  38.714  22.065   3.601
69106W        W34366   5.941  12.946   2.416
69107W        W34367  18.219   7.907  12.567
69108W        W34368  17.998  36.857   0.439
69109W        W34369  41.300  30.524   2.324
69110W        W34370  18.817  39.956   1.848
69111W        W34371  10.898  12.173  14.378
69112W        W34372  23.036  41.258  13.629
69113W        W34373  15.273  12.031   2.349
69114W        W34374   1.966  27.161   4.556
69115W        W34375  14.356   1.838   2.188
69116W        W34376  23.759  23.488  14.997
69117W        W34377  19.368   1.215  12.647
69118W        W34378   8.563  25.512  14.460
69119W        W34379   8.973  24.858  13.560
69120W        W34380  14.960   8.467   4.555
69121W        W34381   2.762  44.793   0.271
69122W        W34382  36.498  20.223  12.481
69123W        W34383  36.292   2.995  13.963
69124W        W34384  32.641  31.630  13.601
69125W        W34385  13.738   6.376   1.842
69126W        W34386  13.389  29.075  10.553
69127W        W34387  26.360  24.266  12.994
69128W        W34388  35.463   0.868   0.843
69129W        W34389  25.172  21.217  14.009
69130W        W34390  27.701  36.320  14.816
69131W        W34391   9.445  42.399   1.199
69132W        W34392  19.085  15.537  12.534
69133W        W34393  36.148  24.769   5.010
69134W        W34394  39.304  30.872   4.691
69135W        W34395   0.315  16.617   0.534
69136W        W34396  43.299  29.134   3.755
69137W        W34397  41.075  42.735  11.607
69138W        W34398  44.290  30.122  12.950
69139W        W34399  25.911  14.204  12.449
69140W        W34400  38.180  22.021   2.341
69141W        W34401  17.773  39.900   3.802
69142W        W34402  23.128  23.164  14.328
69143W        W34403  11.876  28.173  11.026
69144W        W34404  29.687   4.325  14.321
69145W        W34405  25.517  10.889   0.373
69146W        W34406  43.526  34.195   1.330
69147W        W34407  35.274   0.553   5.323
69148W        W34408  36.525  29.639   4.880
69149W        W34409  40.886  18.093   2.785
69150W        W34410  17.121  35.053   3.695
69151W        W34411  12.208  24.928   4.218
69152W        W34412  22.037  40.785  14.993
69153W        W34413  15.663  27.537   5.204
69154W        W34414  23.682  40.080  14.726
69155W        W34415   7.685  41.795  14.828
69156W        W34416  29.746  14.394  10.937
69157W        W34417   6.363   1.220  11.547
69158W        W34418   8.806  36.613   0.852
69159W        W34419   5.438  19.623   4.565
69160W        W34420  18.551  31.103  10.883
69161W        W34421  41.002   2.877  11.151
69162W        W34422   3.350  41.020  14.303
69163W        W34423  43.969  15.241  13.288
69164W        W34424  23.799  20.018   2.952
69165W        W34425  32.480  18.558   2.197
69166W        W34426  22.753  43.794  14.497
69167W        W34427  40.024  39.524  12.507
69168W        W34428  41.947   7.850  11.875
69169W        W34429  40.897  44.242   2.298
69170W        W34430  29.407   1.869   3.823
69171W        W34431  13.463  16.383   1.827
69172W        W34432  11.912  23.928  12.076
69173W        W34433   0.411  12.942   3.393
69174W        W34434  28.594  34.301   3.756
69175W        W34435  23.068  29.202   4.069
69176W        W34436  44.040   4.166   1.389
69177W        W34437   2.389  26.144  13.485
69178W        W34438  21.998  14.210  13.739
69179W        W34439   3.278  35.957   1.522
69180W        W34440  14.671   3.799   4.189
69181W        W34441  43.692   3.771   0.398
69182W        W34442   8.334  37.324   0.223
69183W        W34443  26.043  20.784   9.977
69184W        W34444  15.220  22.100   9.660
69185W        W34445  10.959  31.382   0.875
69186W        W34446  40.463   8.683   0.298
69187W        W34447  19.113   7.733  13.303
69188W        W34448  43.720  17.129  12.394
69189W        W34449  18.511   8.425  14.791
69190W        W34450  42.551  13.796  13.797
69191W        W34451  43.710  35.621   4.600
69192W        W34452   4.814  37.662   5.109
69193W        W34453  36.937  39.323  12.433
69194W        W34454  27.100  33.167   1.899
69195W        W34455  21.926  20.727  13.830
69196W        W34456  42.974  21.481  10.697
69197W        W34457   6.594  34.824  14.901
69198W        W34458  29.140   5.387  12.960
69199W        W34459  17.095  28.890  14.793
69200W        W34460   5.911  28.445  13.223
69201W        W34461  37.128  38.391  13.756
69202W        W34462  32.668  29.442   2.351
69203W        W34463  27.599  20.682   2.799
69204W        W34464  34.127  17.016   1.208
69205W        W34465  29.218  21.701  11.085
69206W        W34466  10.097  33.282  13.515
69207W        W34467  32.914  11.800  11.622
69208W        W34468  14.755  37.421  12.442
69209W        W34469  14.768  43.737   1.245
69210W        W34470  34.048  14.479   4.455
69211W        W34471  43.016   8.209   4.124
69212W        W34472   4.707   2.394  14.405
69213W        W34473   1.322  39.524  10.685
69214W        W34474  32.474   3.474   5.051
69215W        W34475  11.762  32.227   3.149
69216W        W34476  34.849   3.059  13.346
69217W        W34477  32.861  12.027   2.656
69218W        W34478  33.901  39.876   2.705
69219W        W34479   6.322   1.365   0.803
69220W        W34480   3.357  24.031   1.186
69221W        W34481   8.397   7.749  13.537
69222W        W34482  40.040  16.969   2.697
69223W        W34483  44.829   4.930  13.304
69224W        W34484  19.725  44.570  14.860
69225W        W34485  11.919   5.657   3.997
69226W        W34486  30.764   8.761  10.907
69227W        W34487   9.839  19.643   2.785
69228W        W34488  21.264   9.235   3.208
69229W        W34489  27.601  41.574   0.670
69230W        W34490  23.989  22.918  10.137
69231W        W34491  13.762  31.534  13.061
69232W        W34492  37.421   8.554   3.735
69233W        W34493  34.387  35.551  12.005
69234W        W34494  19.584  37.983   0.680
69235W        W34495  19.280  39.335   2.895
69236W        W34496  24.537  42.019   1.875
69237W        W34497  29.452   8.033   2.759
69238W        W34498  24.027   8.857  13.265
69239W        W34499   3.259  27.164   4.808
69240W        W34500  29.477  12.943   0.444
69241W        W34501  43.723  23.014   0.478
69242W        W34502   2.267   2.026  11.389
69243W        W34503  23.027  17.928   4.246
69244W        W34504  16.311   8.499   3.196
69245W        W34505  39.426  10.900  13.092
69246W        W34506  22.409   5.788  14.843
69247W        W34507   7.973  39.886  14.749
69248W        W34508  20.694  10.357   0.375
69249W        W34509  43.218  38.004  14.424
69250W        W34510  27.540  10.962   4.141
69251W        W34511  23.295  41.473   3.270
69252W        W34512  21.056   4.750   1.586
69253W        W34513  43.242  37.558  14.122
69254W        W34514  28.242  25.695   1.229
69255W        W34515  44.649  41.818   0.941
69256W        W34516   0.080  21.211   4.928
69257W        W34517   6.581  15.878   2.700
69258W        W34518  42.399   8.235  13.894
69259W        W34519  17.147  16.238   2.798
69260W        W34520   9.444  11.543  11.623
69261W        W34521   1.097  12.797   5.201
69262W        W34522  25.128   3.978   2.727
69263W        W34523  13.797  30.025  10.620
69264W        W34524  24.622   6.422   3.283
69265W        W34525  43.255  29.034  13.575
69266W        W34526  13.136  25.848  12.052
69267W        W34527   9.884  12.803   3.195
69268W        W34528  26.702  27.567   4.815
69269W        W34529  29.440  33.303  12.319
69270W        W34530  31.042  12.687  14.456
69271W        W34531  12.633   0.039  14.394
69272W        W34532  35.415  31.116   3.712
69273W        W34533   2.200  36.646  14.092
69274W        W34534  42.052  39.735  13.478
69275W        W34535  27.289  40.899  10.705
69276W        W34536   6.310   3.125  12.880
69277W        W34537  40.848   4.146   0.220
69278W        W34538  25.997  42.021   1.961
69279W        W34539  38.908   7.829  10.716
69280W        W34540  22.829   9.664   3.658
69281W        W34541  19.806  15.869   1.388
69282W        W34542  30.653   2.289   0.187
69283W        W34543  28.888  11.773   0.147
69284W        W34544  22.347  15.178  12.057
69285W        W34545  16.050  39.492   4.524
69286W        W34546  27.085  24.543   4.563
69287W        W34547   5.352  32.320  11.584
69288W        W34548  29.910   0.435   0.277
69289W        W34549   4.556  23.053  10.723
69290W        W34550  19.435  36.654   3.743
69291W        W34551   9.112   6.296  14.937
69292W        W34552  34.847  38.960  12.433
69293W        W34553   0.761  28.677  14.992
69294W        W34554   2.861  35.463   4.156
69295W        W34555  19.091   1.896  14.873
69296W        W34556  39.912  44.432   4.125
69297W        W34557  39.315  14.782   0.793
69298W        W34558  16.107  33.052   1.467
69299W        W34559  40.565  13.053   0.264
69300W        W34560  31.524  33.426   3.746
69301W        W34561  35.205  43.755  12.191
69302W        W34562  20.279  31.520  12.991
69303W        W34563  13.224  31.060  12.403
69304W        W34564  31.928  43.614   3.462
69305W        W34565   0.428  28.616   2.252
69306W        W34566   5.692   0.924  13.038
69307W        W34567   2.865  16.869  13.092
69308W        W34568  34.453  23.918   0.722
69309W        W34569  29.165  23.982  10.776
69310W        W34570  35.439  19.772   4.048
69311W        W34571   9.731  35.768  14.878
69312W        W34572   2.063  27.528  13.826
69313W        W34573  18.758  36.398   0.815
69314W        W34574   5.256  34.116   4.144
69315W        W34575   3.803  39.064  14.653
69316W        W34576  13.746  21.993   3.154
69317W        W34577  16.084  27.611   0.425
69318W        W34578  25.928   7.683   4.587
69319W        W34579  35.877  20.050  12.914
69320W        W34580  39.786  33.715  12.154
69321W        W34581   3.730  16.732  11.604
69322W        W34582  36.327   8.269   2.152
69323W        W34583  39.033  40.743  13.809
69324W        W34584  39.477   3.362  12.180
69325W        W34585  44.911  31.628  13.053
69326W        W34586  38.728  39.736   3.685
69327W        W34587  39.362  15.285   0.891
69328W        W34588  17.730  24.960  10.790
69329W        W34589   5.977   2.465  14.974
69330W        W34590   6.639  32.102  11.658
69331W        W34591   3.331  21.203   5.217
69332W        W34592  18.665  18.670  12.253
69333W        W34593   3.004  12.374   4.016
69334W        W34594   7.327  28.571   3.856
69335W        W34595  25.226  36.322  13.978
69336W        W34596  23.025   1.866  10.507
69337W        W34597   8.434   2.744  14.490
69338W        W34598   9.710  34.948  14.345
69339W        W34599   2.214  29.582  10.968
69340W        W34600  25.784  39.876  11.648
69341W        W34601  36.652  23.534  13.851
69342W        W34602   6.203  35.074  14.632
69343W        W34603  26.976   3.617   4.597
69344W        W34604  33.546   7.340   2.250
69345W        W34605  32.624  32.757   0.731
69346W        W34606   3.732  20.612   3.305
69347W        W34607  22.986   8.437   2.889
69348W        W34608  31.008  42.458   4.510
69349W        W34609  38.862  28.989  12.329
69350W        W34610  34.423   9.373   0.893
69351W        W34611  26.618  22.677   2.394
69352W        W34612  13.403  20.200   0.408
69353W        W34613  18.037   5.442  14.872
69354W        W34614  32.559   3.942   3.804
69355W        W34615   1.248  18.928   2.874
69356W        W34616  30.057  36.140  11.470
69357W        W34617  21.206  44.341  12.585
69358W        W34618  39.062  34.589   0.863
69359W        W34619   1.445  32.924  14.479
69360W        W34620  37.123  19.367  13.959
69361W        W34621  33.445  12.380  12.119
69362W        W34622  36.564  25.731  14.800
69363W        W34623  14.124  13.430   1.805
69364W        W34624   7.775   4.672  14.347
69365W        W34625  26.152  40.261  13.791
69366W        W34626   4.195  13.236   4.896
69367W        W34627   3.801  16.075  13.312
69368W        W34628  42.974   7.588   0.312
69369W        W34629  27.674  30.593   4.383
69370W        W34630  39.536   0.039  13.427
69371W        W34631  13.545  27.630  13.778
69372W        W34632  43.769  23.945   0.425
69373W        W34633  31.614  21.048  11.527
69374W        W34634  14.154  30.642   2.713
69375W        W34635  32.490  37.832  11.985
69376W        W34636  13.678  35.536  12.624
69377W        W34637  23.173  16.646   2.331
69378W        W34638   8.982  44.338   0.317
69379W        W34639  38.928  27.489  11.211
69380W        W34640  29.054  15.766  13.287
69381W        W34641  32.330   9.824   1.813
69382W        W34642  12.817  21.253  13.496
69383W        W34643  42.539  35.932   0.781
69384W        W34644  29.499  12.212  10.517
69385W        W34645  25.708  44.153   2.889
69386W        W34646  26.651   8.588  10.122
69387W        W34647  11.743  23.745   5.133
69388W        W34648  23.694   6.946  12.961
69389W        W34649  17.615  16.235  11.898
69390W        W34650  20.951  30.359  12.043
69391W        W34651   8.791  38.101  13.124
69392W        W34652  32.415  34.926   0.013
69393W        W34653   9.439   2.463  12.025
69394W        W34654   5.309  43.738  14.340
69395W        W34655  25.640  27.561  14.386
69396W        W34656  14.598  20.301   2.327
69397W        W34657  25.502  22.230   3.249
69398W        W34658  18.011  24.592  13.000
69399W        W34659  27.919   5.597   3.131
69400W        W34660  15.710  16.292   1.310
69401W        W34661  13.648  27.619  11.565
69402W        W34662  25.280  14.391   4.843
69403W        W34663   6.279  37.530   0.216
69404W        W34664   1.269   8.692   4.351
69405W        W34665  37.038  41.264  11.659
69406W        W34666  29.406  17.626  12.543
69407W        W34667   4.711   3.424   2.537
69408W        W34668  18.338  32.542  11.477
69409W        W34669   9.620  34.490   2.336
69410W        W34670   3.687  44.500  12.518
69411W        W34671  15.736  33.600  13.580
69412W        W34672  17.613  32.327  12.007
69413W        W34673  11.120  15.227  10.600
69414W        W34674  37.814   2.858  14.023
69415W        W34675   4.887  16.114   1.196
69416W        W34676  34.644  41.369  14.405
69417W        W34677   8.304  16.344  13.438
69418W        W34678  31.890  31.937  13.923
69419W        W34679  43.476  20.524   2.648
69420W        W34680  26.027   1.493  10.556
69421W        W34681  27.959  11.690   2.942
69422W        W34682   7.845  42.412  13.508
69423W        W34683  28.566  15.279  14.935
69424W        W34684  26.604  30.437   3.737
69425W        W34685   4.657  12.708  13.084
69426W        W34686  44.300  43.372  13.786
69427W        W34687  35.516  43.541   3.782
69428W        W34688  15.057  43.932   3.074
69429W        W34689  40.976  37.438   0.258
69430W        W34690  32.409  41.867  11.610
69431W        W34691  33.169  36.083   3.290
69432W        W34692  21.437   6.681   1.859
69433W        W34693  37.322  41.243  14.485
69434W        W34694   7.904  19.988  12.361
69435W        W34695  33.442  25.463   0.703
69436W        W34696  40.016   4.781  12.111
69437W        W34697  41.448  35.560   4.711
69438W        W34698  22.138  10.259   3.925
69439W        W34699   4.781  24.045   3.549
69440W        W34700   8.817  13.050   3.215
69441W        W34701  28.671  12.776  14.012
69442W        W34702   7.216  18.410   2.633
69443W        W34703  13.627  28.537  12.059
69444W        W34704  30.658  32.880   3.717
69445W        W34705   5.283  44.056  13.930
69446W        W34706  23.196   3.276   3.622
69447W        W34707  38.581   6.191  11.629
69448W        W34708  33.378  40.340  12.989
69449W        W34709  37.990  39.791  10.573
69450W        W34710  26.822   1.799  14.763
69451W        W34711  33.055   2.776   3.836
69452W        W34712  10.614  17.221   2.148
69453W        W34713  12.458  30.012  10.247
69454W        W34714  40.933  25.502  11.128
69455W        W34715  13.418   3.965   3.747
69456W        W34716  36.410  17.347   4.660
69457W        W34717  12.268  43.762   2.102
69458W        W34718  25.944  22.655  10.643
69459W        W34719  11.279   2.674  11.597
69460W        W34720  18.757  43.474   2.397
69461W        W34721  28.757  14.570   2.005
69462W        W34722  24.930  41.291   2.273
69463W        W34723  17.171  41.439  11.068
69464W        W34724  27.885  25.565   4.121
69465W        W34725  31.900   4.699   1.898
69466W        W34726   6.210  42.227   4.526
69467W        W34727  39.107  39.015   1.191
69468W        W34728  13.622   6.411   1.325
69469W        W34729  19.370  25.548   3.660
69470W        W34730  42.327  10.104  14.398
69471W        W34731   1.020  31.079   3.046
69472W        W34732  20.901  39.046  12.478
69473W        W34733   5.731  16.020   2.589
69474W        W34734  44.396   7.783  14.307
69475W        W34735  36.571   6.666  11.109
69476W        W34736   4.414  11.399  11.125
69477W        W34737   9.541  36.051  11.849
69478W        W34738  17.349   8.025   1.835
69479W        W34739  13.714  19.837  12.839
69480W        W34740   1.949  11.219   3.815
69481W        W34741  41.849  42.936   0.832
69482W        W34742  25.492  14.288   0.623
69483W        W34743   4.912   9.991  12.609
69484W        W34744  28.556  16.634  12.752
69485W        W34745   8.252  13.324  13.507
69486W        W34746  42.995  10.298  14.890
69487W        W34747   5.028  34.920  14.243
69488W        W34748  25.273  35.034   0.377
69489W        W34749   7.440  13.320  14.345
69490W        W34750   0.402  12.649   0.251
69491W        W34751   9.080  26.558   0.246
69492W        W34752  14.586  36.199   3.058
69493W        W34753  42.857   1.984  11.714
69494W        W34754  31.169  30.503  14.319
69495W        W34755  39.848  37.442   3.428
69496W        W34756  37.582  16.976  13.496
69497W        W34757  11.849  41.936  14.762
69498W        W34758  24.562  37.962   3.230
69499W        W34759  36.341  36.462  11.606
69500W        W34760  36.409  27.508  11.496
69501W        W34761   3.137  27.580  13.823
69502W        W34762  42.519  34.384  12.041
69503W        W34763  18.372   7.518  11.886
69504W        W34764   1.467   3.028  12.693
69505W        W34765  24.061   7.320  13.841
69506W        W34766  18.242  15.071  14.962
69507W        W34767   1.357  39.259  12.506
69508W        W34768  30.072  19.232  10.653
69509W        W34769  29.759  41.281   3.835
69510W        W34770  44.296   9.144  11.142
69511W        W34771  26.075   9.602   2.624
69512W        W34772  28.704  27.725   3.349
69513W        W34773  42.553  10.194   3.921
69514W        W34774  16.817  14.828  13.516
69515W        W34775   6.231  18.553   2.679
69516W        W34776  18.242  28.104  10.681
69517W        W34777  42.511   9.187  14.302
69518W        W34778  11.427  21.662   1.268
69519W        W34779  35.620  39.466  12.350
69520W        W34780  39.578  11.782   2.260
69521W        W34781  13.324  30.391   1.215
69522W        W34782  36.705   4.332   3.613
69523W        W34783  14.706  21.779   4.217
69524W        W34784  13.554  32.397  12.045
69525W        W34785  15.313  23.923   4.929
69526W        W34786  19.540  24.459   2.139
69527W        W34787  20.289  37.687   4.183
69528W        W34788  24.722  41.393  13.393
69529W        W34789   6.414  16.280  10.785
69530W        W34790  19.792  26.987  12.491
69531W        W34791  39.155  19.083   4.860
69532W        W34792   2.998  25.979   1.670
69533W        W34793  41.486  21.018   4.765
69534W        W34794  12.706   3.441  12.131
69535W        W34795  13.321   0.410   0.795
69536W        W34796  18.713  43.908  12.495
69537W        W34797  31.046  27.673   2.761
69538W        W34798  34.869  25.435  12.471
69539W        W34799   0.558  40.995   1.378
69540W        W34800  41.507  10.947   1.805
69541W        W34801  13.881   4.821   0.455
69542W        W34802  43.077  19.322   3.811
69543W        W34803  33.976   6.859  14.390
69544W        W34804  24.496  12.695  13.641
69545W        W34805  44.367  21.580  10.077
69546W        W34806  20.753  34.688   2.329
69547W        W34807  43.498   3.947  13.148
69548W        W34808  24.944   3.939   0.267
69549W        W34809  41.700  23.584   4.247
69550W        W34810  29.362   6.645   1.671
69551W        W34811  42.436  17.180  11.562
69552W        W34812  32.172  23.010  11.629
69553W        W34813  21.010  44.101  13.345
69554W        W34814  13.632  40.271   2.767
69555W        W34815  24.638  41.476  11.979
69556W        W34816  14.255  11.840   5.203
69557W        W34817  11.194  33.338   1.600
69558W        W34818  23.482  29.488  14.355
69559W        W34819  23.013  36.262   2.770
69560W        W34820  17.574  17.674  11.652
69561W        W34821  38.892  38.776  14.495
69562W        W34822  42.276  11.179  13.570
69563W        W34823  31.527  42.921   0.369
69564W        W34824   6.337   3.351   0.610
69565W        W34825   9.398  38.942  11.779
69566W        W34826  16.850   6.869   3.800
69567W        W34827   1.931  27.618   4.759
69568W        W34828  36.531   5.641   1.344
69569W        W34829  20.368   0.458   2.272
69570W        W34830  34.408  28.028   3.834
69571W        W34831  28.540  17.069   3.870
69572W        W34832   9.856  14.360   2.387
69573W        W34833  24.737  16.246   2.828
69574W        W34834  39.737   9.811  11.256
69575W        W34835  44.249  32.904   4.498
69576W        W34836  36.900  16.136   3.630
69577W        W34837   7.860   1.883   3.336
69578W        W34838  16.693  41.945  10.578
69579W        W34839  19.972   8.799  13.366
69580W        W34840  11.194  35.037   3.383
69581W        W34841  12.761  36.272  11.092
69582W        W34842  38.940  22.343  11.566
69583W        W34843  29.603   5.241  12.772
69584W        W34844   7.285  10.849   0.086
69585W        W34845  15.843   0.479   2.601
69586W        W34846  20.091  42.745  12.113
69587W        W34847  37.442   3.477   1.390
69588W        W34848  39.344   5.490   2.109
69589W        W34849   1.991   1.226  12.488
69590W        W34850   6.869  41.230  11.591
69591W        W34851  15.490  12.215  14.959
69592W        W34852  31.220  21.555  10.998
69593W        W34853  42.124  32.715  11.349
69594W        W34854  39.003  44.776  12.420
69595W        W34855  44.762  25.957  14.712
69596W        W34856  44.459  19.555   4.554
69597W        W34857  14.902  16.476  11.514
69598W        W34858  11.791  20.477   3.349
69599W        W34859  25.166  22.456   2.317
69600W        W34860  13.012  26.646  13.461
69601W        W34861  11.468  18.454   2.374
69602W        W34862  31.046  42.984  14.718
69603W        W34863   4.596  16.153   4.586
69604W        W34864   9.681  24.569  14.569
69605W        W34865   1.692  24.129  13.020
69606W        W34866  25.701  32.778   4.138
69607W        W34867  33.866  39.800  10.582
69608W        W34868  23.965   5.464   0.642
69609W        W34869  14.070   3.798  13.376
69610W        W34870  12.604  29.719   0.947
69611W        W34871  30.136   0.669   2.752
69612W        W34872   4.159  12.883  12.877
69613W        W34873  19.581  11.094  13.523
69614W        W34874  24.215  30.694  11.902
69615W        W34875  26.088  39.668  10.910
69616W        W34876  38.295  26.622  14.048
69617W        W34877  15.332   3.052   1.396
69618W        W34878  21.654  24.775   0.326
69619W        W34879  33.468  14.685   3.027
69620W        W34880  27.397  24.701   0.388
69621W        W34881  15.041  12.300   4.233
69622W        W34882  44.048  26.600  11.401
69623W        W34883  12.039   5.419  11.914
69624W        W34884  20.031  17.496  14.286
69625W        W34885   9.844  12.157   2.650
69626W        W34886   7.671  21.247  12.832
69627W        W34887  43.102  28.953  10.276
69628W        W34888  35.076  25.680   2.233
69629W        W34889  15.238   5.895   3.182
69630W        W34890  39.800  36.316  12.562
69631W        W34891  19.119   2.281   4.505
69632W        W34892   1.390  39.483  12.045
69633W        W34893  14.723   0.274  12.814
69634W        W34894  16.870   1.045   4.532
69635W        W34895  33.010  27.549  12.478
69636W        W34896  37.200   3.623   4.901
69637W        W34897  20.591  11.102   3.628
69638W        W34898  32.151  12.296  11.565
69639W        W34899  32.610  23.532   3.746
69640W        W34900  16.273  42.832  13.441
69641W        W34901   3.769  29.587  12.482
69642W        W34902   4.960   6.675  13.853
69643W        W34903   8.785  33.121   4.277
69644W        W34904  35.505  12.316  13.897
69645W        W34905  38.739  43.580  12.942
69646W        W34906   0.567  32.219   0.008
69647W        W34907  14.708  23.120  10.247
69648W        W34908  15.209  35.811   1.474
69649W        W34909  18.092  41.495  11.439
69650W        W34910  12.279  22.322  11.570
69651W        W34911  25.536  28.589  12.965
69652W        W34912  32.719   5.783  13.832
69653W        W34913   5.370  23.456  13.035
69654W        W34914   2.479   2.513   2.325
69655W        W34915   7.686  14.979  11.019
69656W        W34916  20.108  11.224   2.765
69657W        W34917  22.653   4.612  13.094
69658W        W34918  38.840  44.699   3.305
69659W        W34919   9.336   3.804  12.938
69660W        W34920   3.667  10.285  10.185
69661W        W34921  44.631  29.953  11.145
69662W        W34922   9.900  23.608  13.031
69663W        W34923  38.063   3.911  10.258
69664W        W34924  15.841  29.439   4.698
69665W        W34925  42.915   0.203   1.913
69666W        W34926  28.909   3.790   0.787
69667W        W34927  43.929   7.679   4.315
69668W        W34928   7.009  15.696  14.964
69669W        W34929   4.994  23.152   4.888
69670W        W34930   1.964  32.485  14.280
69671W        W34931   8.330  40.571   0.572
69672W        W34932  32.804   4.906   4.537
69673W        W34933   4.812  18.774  14.575
69674W        W34934  31.090  33.863   2.214
69675W        W34935  43.984  17.889  14.903
69676W        W34936  38.919   5.890  14.839
69677W        W34937   4.435  16.163   3.675
69678W        W34938   7.427  12.764   3.095
69679W        W34939  15.821  22.181   4.492
69680W        W34940  15.300  27.170  14.421
69681W        W34941  14.690  17.719  11.044
69682W        W34942  20.788  14.605   2.630
69683W        W34943  38.759  35.785  10.716
69684W        W34944  25.389  28.692  11.170
69685W        W34945  42.727  33.104   2.881
69686W        W34946  23.285  40.945  11.863
69687W        W34947  29.020  36.013  14.840
69688W        W34948  13.387  36.085  14.556
69689W        W34949  32.817  15.339  11.440
69690W        W34950  43.101  15.377  10.236
69691W        W34951  34.897  19.170   3.769
69692W        W34952  31.643  30.253  12.051
69693W        W34953  10.654  18.676   3.796
69694W        W34954  14.386  20.845  12.649
69695W        W34955   5.721  12.974   0.629
69696W        W34956  21.277  35.976  14.105
69697W        W34957   1.169  24.085   1.954
69698W        W34958  37.987  41.475   3.918
69699W        W34959  44.517  38.084   3.210
69700W        W34960  17.328  12.810  11.289
69701W        W34961  10.682  25.622   1.669
69702W        W34962  40.079  42.789   2.580
69703W        W34963   9.109   5.274   0.397
69704W        W34964  16.333  16.506  12.311
69705W        W34965  13.687  33.633   0.761
69706W        W34966  27.879  17.430   0.045
69707W        W34967  34.247  44.110   1.236
69708W        W34968   0.356   2.519  12.921
69709W        W34969  37.585   5.893   1.444
69710W        W34970  13.809  41.814   2.410
69711W        W34971  28.443   3.380  11.623
69712W        W34972  41.423  30.991   0.445
69713W        W34973  25.223  29.914   4.177
69714W        W34974  19.222  29.725  10.834
69715W        W34975  30.320  30.636   1.782
69716W        W34976  44.708   2.447   3.160
69717W        W34977   2.021   6.961  10.966
69718W        W34978   9.752  29.302  13.412
69719W        W34979  13.816  40.834  13.882
69720W        W34980  42.417  38.117  10.465
69721W        W34981  23.590  37.557   4.207
69722W        W34982  32.828  25.054   2.355
69723W        W34983  42.888   4.677  12.601
69724W        W34984  17.986  20.662   1.295
69725W        W34985   2.442   9.564  13.605
69726W        W34986  42.998  18.445   3.498
69727W        W34987   3.780  39.501  14.361
69728W        W34988  23.035  30.918   2.658
69729W        W34989  18.979  20.514  14.397
69730W        W34990  43.863  11.697   1.024
69731W        W34991  17.077  44.116   0.491
69732W        W34992  14.164   5.193   0.760
69733W        W34993   2.932  29.949  10.210
69734W        W34994  34.816  38.999   1.835
69735W        W34995   4.895   6.138   0.516
69736W        W34996  12.482  27.540  11.393
69737W        W34997  11.200  42.858   1.386
69738W        W34998   1.345  14.168   3.726
69739W        W34999   5.368   5.414   4.085
69740W        W35000  33.902  41.862  13.470
69741W        W35001   7.216  19.027   1.311
69742W        W35002  31.669  29.527   0.115
69743W        W35003  13.856   5.267   3.811
69744W        W35004   4.419   9.345   3.676
69745W        W35005  21.146  37.957  10.585
69746W        W35006  40.444  17.184   2.440
69747W        W35007  12.560  30.729  11.851
69748W        W35008  23.593   7.126  13.565
69749W        W35009  13.901   8.858  14.074
69750W        W35010  18.757   3.398   0.791
69751W        W35011  13.670  15.558   5.331
69752W        W35012  44.693  28.418   2.182
69753W        W35013  27.588  24.507   3.256
69754W        W35014  43.055  29.699  11.917
69755W        W35015  41.550  11.355  14.260
69756W        W35016  16.851  21.566  13.380
69757W        W35017  31.301   2.690   3.096
69758W        W35018  31.544  23.845  12.784
69759W        W35019  43.971  14.657   9.822
69760W        W35020  16.430  23.572  12.091
69761W        W35021  12.867  14.974   2.543
69762W        W35022  34.440   1.525   5.015
69763W        W35023  39.466  26.532   1.917
69764W        W35024  38.695  40.310  13.890
69765W        W35025  14.269  41.117   1.878
69766W        W35026  30.528  25.081   0.806
69767W        W35027  25.206  20.170  14.804
69768W        W35028  33.736   8.692  12.933
69769W        W35029  17.100  30.264  13.514
69770W        W35030   0.307   2.734   1.208
69771W        W35031  15.541  28.957   4.550
69772W        W35032  35.053  38.622  14.998
69773W        W35033   6.707  33.479   2.758
69774W        W35034  43.866  32.035  11.418
69775W        W35035  35.282   7.954  14.999
69776W        W35036  32.058  16.150  12.294
69777W        W35037  27.432  37.680   2.906
69778W        W35038  21.859  14.293   3.360
69779W        W35039  22.456  39.074  12.319
69780W        W35040  35.321  23.212   2.544
69781W        W35041  40.284   4.924  12.544
69782W        W35042  38.884  26.200  10.737
69783W        W35043   8.942  21.770  14.821
69784W        W35044  29.924  30.687  14.840
69785W        W35045  11.464  26.301   5.085
69786W        W35046  23.019   2.729  12.048
69787W        W35047  41.571   9.089   0.997
69788W        W35048  35.346  42.292   1.704
69789W        W35049   4.817  16.554   1.980
69790W        W35050   6.593  40.933  11.217
69791W        W35051  42.958  41.326   0.315
69792W        W35052  38.402  44.569  11.573
69793W        W35053  40.348  21.215   3.183
69794W        W35054   4.423  28.459  12.058
69795W        W35055   9.768   2.641  13.915
69796W        W35056  14.305  22.332  11.203
69797W        W35057  10.356  13.809   0.797
69798W        W35058  38.436  19.062  12.361
69799W        W35059  15.406  35.681   3.288
69800W        W35060  17.517  32.176  13.524
69801W        W35061  37.326  40.856  12.923
69802W        W35062   0.400  17.194  13.742
69803W        W35063  35.410  10.020  11.703
69804W        W35064   7.481  41.773   2.976
69805W        W35065   2.794  38.371  10.775
69806W        W35066   9.830  25.041  11.044
69807W        W35067  28.060  34.467  10.119
69808W        W35068  34.909   2.503   3.869
69809W        W35069  26.575   7.432  10.489
69810W        W35070   8.639  35.345  14.467
69811W        W35071  25.023   3.711   0.924
69812W        W35072  29.514  26.753   4.167
69813W        W35073   6.833   3.619  14.976
69814W        W35074   8.796   7.385  11.078
69815W        W35075  29.125  38.070  11.076
69816W        W35076  24.647  29.721  14.388
69817W        W35077   3.419  16.299  10.666
69818W        W35078   9.620  11.209   4.197
69819W        W35079   1.432  25.245  14.333
69820W        W35080  36.288   6.188  10.978
69821W        W35081  23.225  37.991  12.186
69822W        W35082  29.355  12.323  14.349
69823W        W35083  21.845  19.688  11.459
69824W        W35084  39.548  31.931   1.831
69825W        W35085   8.735  11.700  10.428
69826W        W35086   7.982  20.586  14.360
69827W        W35087  10.216  37.910   0.497
69828W        W35088  13.859  20.718  12.406
69829W        W35089   1.430   3.490  14.360
69830W        W35090  32.099   5.938   0.491
69831W        W35091   0.361   4.045   0.320
69832W        W35092  10.527  43.720   3.212
69833W        W35093  23.468  16.342   3.617
69834W        W35094  33.540  43.312  11.451
69835W        W35095  27.475   9.176   2.819
69836W        W35096   1.240  10.474  13.263
69837W        W35097  22.119  26.764   2.813
69838W        W35098  43.774  11.195  13.296
69839W        W35099  30.373  23.398  14.397
69840W        W35100  43.823  15.393  11.967
69841W        W35101  31.969  22.083   0.486
69842W        W35102  44.378  33.973  13.299
69843W        W35103  17.982  24.042  11.636
69844W        W35104   5.457  18.937   1.869
69845W        W35105   6.499  32.917  14.991
69846W        W35106   4.941  15.248   4.779
69847W        W35107  33.400  41.881  13.361
69848W        W35108  33.311  17.021   4.969
69849W        W35109  13.339  25.603  11.633
69850W        W35110   9.438  44.964   2.863
69851W        W35111  30.432  41.509  13.503
69852W        W35112  35.155  37.596   3.747
69853W        W35113  22.771  19.811   0.323
69854W        W35114  43.529  27.066   1.871
69855W        W35115   3.934  15.107  11.882
69856W        W35116  16.824  36.810   3.912
69857W        W35117  34.043  44.821   0.110
69858W        W35118   9.967   4.205  10.657
69859W        W35119  23.660   1.149   1.365
69860W        W35120  39.821   0.777  10.774
69861W        W35121  29.644  37.471  11.574
69862W        W35122  42.148  39.127  12.840
69863W        W35123  13.141  19.330   3.665
69864W        W35124  39.453  34.006   3.223
69865W        W35125  12.804   8.775   1.319
69866W        W35126  29.872  18.281  10.509
69867W        W35127   6.957   5.424  11.565
69868W        W35128  32.499  40.367  13.338
69869W        W35129  31.914  34.764  13.165
69870W        W35130  24.947  17.630   2.071
69871W        W35131  14.438  44.974   0.419
69872W        W35132  29.578  43.902   0.663
69873W        W35133   2.903  40.324  13.913
69874W        W35134  25.543  22.040  11.825
69875W        W35135   1.176  23.718   0.861
69876W        W35136  15.102   5.211   1.029
69877W        W35137  35.766  39.834  13.805
69878W        W35138  44.269  33.948  11.906
69879W        W35139  42.995   3.777   1.152
69880W        W35140   8.391  37.090  13.836
69881W        W35141  25.707  36.413  12.142
69882W        W35142   2.341  10.166   2.203
69883W        W35143   8.217  28.405   0.405
69884W        W35144   5.681  25.763   5.013
69885W        W35145  23.574  39.532   0.454
69886W        W35146  25.094  44.859  13.551
69887W        W35147  41.979   3.523  13.982
69888W        W35148   4.665   6.246  12.059
69889W        W35149  14.431   1.370  10.604
69890W        W35150  21.043  34.372  11.062
69891W        W35151  22.252  37.128  10.333
69892W        W35152  34.108   8.690  11.968
69893W        W35153  29.205  12.921   2.245
69894W        W35154  25.839  24.720   3.800
69895W        W35155  21.235  10.128  10.580
69896W        W35156  32.268  19.790  12.960
69897W        W35157  44.604  44.908  14.362
69898W        W35158  25.244  22.653   3.212
69899W        W35159  42.149  17.737  14.520
69900W        W35160  22.625   8.025   4.098
69901W        W35161   7.169  20.111   1.774
69902W        W35162  11.458  15.278  14.884
69903W        W35163  15.833   0.955   0.088
69904W        W35164  26.958  10.324  12.053
69905W        W35165  34.339  26.104  11.883
69906W        W35166  11.226  26.188   2.196
69907W        W35167   7.286  25.084   2.247
69908W        W35168  41.729  25.923   1.610
69909W        W35169   4.354  29.224  13.921
69910W        W35170  13.739  24.203  14.516
69911W        W35171  39.836  39.706  12.052
69912W        W35172  17.496  16.332   0.061
69913W        W35173  28.204   5.825  12.151
69914W        W35174  17.376  11.634   1.879
69915W        W35175   4.207  44.750  13.228
69916W        W35176  40.247   7.799   4.103
69917W        W35177  17.350  41.436  10.583
69918W        W35178  26.145  10.855   3.467
69919W        W35179  26.003  18.110  12.517
69920W        W35180   5.990  26.634   3.556
69921W        W35181   2.312  16.193  10.643
69922W        W35182   7.697  26.635   1.918
69923W        W35183  31.078  26.082  13.497
69924W        W35184  13.367  33.652  11.474
69925W        W35185   5.957   2.812   9.961
69926W        W35186  22.507  36.919   2.971
69927W        W35187  33.284  40.906   3.290
69928W        W35188  42.518  37.853   0.876
69929W        W35189  25.228  28.088  13.074
69930W        W35190  13.735   8.665  11.604
69931W        W35191   9.106  19.125  11.067
69932W        W35192  43.783  31.219   2.175
69933W        W35193  19.498   4.463  10.026
69934W        W35194  23.051  12.201  14.640
69935W        W35195  25.031  17.625  10.743
69936W        W35196  20.448  22.733  10.373
69937W        W35197  38.060  13.899   0.715
69938W        W35198  44.309  40.441   0.709
69939W        W35199  20.765  36.363   4.157
69940W        W35200  22.787  20.229   1.773
69941W        W35201   9.735   4.347   1.697
69942W        W35202  38.673  35.445  12.431
69943W        W35203  15.882  10.415   0.850
69944W        W35204   4.497  15.665   4.749
69945W        W35205  42.520  34.940  11.145
69946W        W35206  11.528  16.640  12.403
69947W        W35207  12.812  29.539   4.562
69948W        W35208  24.677  24.173  11.871
69949W        W35209  36.913  34.384  13.620
69950W        W35210   7.661  32.366  14.321
69951W        W35211   3.491  36.942  13.146
69952W        W35212  32.128  27.996  12.288
69953W        W35213  35.900  37.467   3.261
69954W        W35214  13.778   5.682   2.332
69955W        W35215  37.303  36.354   0.830
69956W        W35216  38.910   2.429   3.043
69957W        W35217  34.889  21.856  11.336
69958W        W35218  16.857  38.083   4.589
69959W        W35219  13.827  12.145  12.030
69960W        W35220  18.014  38.899   4.559
69961W        W35221  17.368  17.789   2.751
69962W        W35222  38.389  43.966   2.317
69963W        W35223  24.309  15.789  13.873
69964W        W35224  29.137  19.535   1.735
69965W        W35225  13.313  35.518  10.744
69966W        W35226  39.388  44.006  14.970
69967W        W35227   9.860  39.643  11.204
69968W        W35228  25.555   5.618   2.603
69969W        W35229  25.766  14.761   2.407
69970W        W35230  29.155   2.832  13.051
69971W        W35231  15.033  42.555   4.121
69972W        W35232  18.215  12.919   0.684
69973W        W35233  17.116  17.762  11.059
69974W        W35234  40.518  31.591  11.214
69975W        W35235   9.824  14.166  13.114
69976W        W35236  32.592  37.200  14.878
69977W        W35237  30.559  36.053  13.031
69978W        W35238   7.874  32.499  11.335
69979W        W35239  39.871  10.779  13.322
69980W        W35240  13.126  15.517  11.178
69981W        W35241  24.198  10.207   1.268
69982W        W35242   6.843  35.175  12.153
69983W        W35243  16.872  29.096  10.654
69984W        W35244  22.234  28.656   3.403
69985W        W35245  26.199  31.862  14.335
69986W        W35246  43.341  22.700  12.961
69987W        W35247  28.075  23.245   2.270
69988W        W35248  15.888  12.469  14.733
69989W        W35249  42.755  14.424  12.060
69990W        W35250  13.264   7.737   1.670
69991W        W35251   2.378   2.734   2.786
69992W        W35252  18.477  20.487   2.154
69993W        W35253  22.274  25.986  13.780
69994W        W35254  21.627  36.839   1.898
69995W        W35255   9.356  28.878  11.611
69996W        W35256  30.145  34.140  11.862
69997W        W35257  13.761  36.584   3.128
69998W        W35258   9.436  39.076   4.156
69999W        W35259   1.417  16.393  11.525
70000W        W35260  32.724  36.449  12.580
70001W        W35261  11.295   4.925   2.241
70002W        W35262  31.249  31.998   1.262
70003W        W35263  33.955  35.042   3.269
70004W        W35264  35.024  27.725  11.567
70005W        W35265  27.174   6.157   0.224
70006W        W35266  17.170   0.811  14.996
70007W        W35267   2.353   6.845  12.976
70008W        W35268   3.453  30.588   0.893
70009W        W35269  28.831  38.639   3.440
70010W        W35270   5.352  19.042  11.004
70011W        W35271  35.888   7.074   2.162
70012W        W35272  32.716   7.995   3.698
70013W        W35273  11.115  18.481  11.074
70014W        W35274   3.529  25.089  12.593
70015W        W35275   9.379  41.599   2.608
70016W        W35276  15.727  12.729  11.223
70017W        W35277   5.867  44.288  14.147
70018W        W35278  13.224  28.112  12.212
70019W        W35279  19.956   8.345  14.478
70020W        W35280  40.348  23.940   3.675
70021W        W35281  18.779  42.263  14.824
70022W        W35282  29.169  30.100  12.838
70023W        W35283   1.942  37.869  13.407
70024W        W35284  18.575  29.792   0.803
70025W        W35285  14.245  23.454   3.610
70026W        W35286  22.210  22.316   0.321
70027W        W35287  24.449  11.450  10.814
70028W        W35288   5.635  15.196  14.868
70029W        W35289  23.100   7.874  13.427
70030W        W35290  19.548  18.240   3.695
70031W        W35291  35.105  11.958  10.191
70032W        W35292   4.605  34.321   0.976
70033W        W35293  38.031  25.697   0.207
70034W        W35294  34.035  27.093  13.414
70035W        W35295  15.168  16.306  10.559
70036W        W35296  18.271   1.307   2.323
70037W        W35297   3.854  14.160  14.458
70038W        W35298  17.135  25.554   1.148
70039W        W35299  39.138  39.259   2.580
70040W        W35300  21.280   6.757  13.297
70041W        W35301  31.994  25.089   0.007
70042W        W35302  43.196  10.180   4.524
70043W        W35303  40.230  24.515  14.835
70044W        W35304  14.502  24.124  13.348
70045W        W35305  37.605  33.844  12.080
70046W        W35306   2.884  16.559   4.488
70047W        W35307  25.651   1.621  13.395
70048W        W35308  18.966   8.154  12.971
70049W        W35309   3.979  40.630  11.173
70050W        W35310  17.225  17.403  10.680
70051W        W35311  35.917  31.120   3.702
70052W        W35312  34.377  30.585  11.230
70053W        W35313  24.198  42.970   2.884
70054W        W35314   1.894  42.718  14.832
70055W        W35315  31.807  27.511  14.022
70056W        W35316  42.322  39.312  13.641
70057W        W35317   8.883  17.455   2.959
70058W        W35318  17.653  34.584   0.771
70059W        W35319   8.687  18.242   3.527
70060W        W35320   0.242  28.959   3.824
70061W        W35321  29.409  23.651  12.071
70062W        W35322  26.695  39.417  11.480
70063W        W35323   1.717  10.600  13.105
70064W        W35324  10.111  32.451   4.966
70065W        W35325  14.909   8.137   1.631
70066W        W35326  28.505  44.670  10.335
70067W        W35327   3.901   2.726   0.271
70068W        W35328  25.716  21.244  11.142
70069W        W35329  17.235  43.222  14.683
70070W        W35330   5.382  11.256  13.614
70071W        W35331  39.351  10.716   0.369
70072W        W35332  44.895   1.911   0.905
70073W        W35333  11.526  44.587  12.930
70074W        W35334  36.447  21.872   3.666
70075W        W35335  21.557  23.584   0.271
70076W        W35336  25.604  36.893   1.343
70077W        W35337  14.117  27.916   1.375
70078W        W35338  10.723   6.985   3.049
70079W        W35339  21.275  31.136   0.874
70080W        W35340  43.468  17.257  11.958
70081W        W35341  19.258  43.761   1.706
70082W        W35342   8.895  24.710  14.990
70083W        W35343  10.953  34.515  12.594
70084W        W35344  35.363  43.728   2.247
70085W        W35345  33.083   7.671   3.830
70086W        W35346   9.089  26.902  14.800
70087W        W35347  29.891  29.160  12.248
70088W        W35348  20.806  29.863  11.943
70089W        W35349  30.783  32.090  12.146
70090W        W35350   0.277   5.665  11.263
70091W        W35351  20.831  23.981   4.337
70092W        W35352  37.765  31.970   0.873
70093W        W35353  32.036  15.064  12.130
70094W        W35354  17.230  28.042  12.085
70095W        W35355  25.337   2.330  11.716
70096W        W35356  16.688  30.123   4.496
70097W        W35357  34.533  20.131  11.586
70098W        W35358  42.096   4.732  12.006
70099W        W35359  22.022  38.998   1.758
70100W        W35360   1.343  15.072  14.702
70101W        W35361  44.307  13.755   3.647
70102W        W35362   4.883   1.532  13.372
70103W        W35363   9.176  23.384   1.476
70104W        W35364  27.123  14.966   4.499
70105W        W35365  31.640  23.071   3.645
70106W        W35366   5.881  33.583   3.681
70107W        W35367  41.443  37.812  14.265
70108W        W35368  27.495  16.662   1.957
70109W        W35369  36.073   7.881   3.793
70110W        W35370  34.612  16.255   4.123
70111W        W35371  15.619  25.003   9.971
70112W        W35372  44.410  12.809  12.615
70113W        W35373   3.409  21.041   1.864
70114W        W35374  33.703   7.483   4.442
70115W        W35375  39.021  44.792   5.003
70116W        W35376  43.315  10.450   4.955
70117W        W35377   0.941   8.303  12.577
70118W        W35378  27.352  36.052  12.499
70119W        W35379  33.967  44.953  12.561
70120W        W35380  22.475  17.827   1.794
70121W        W35381   9.405  24.950  10.639
70122W        W35382  28.653   9.572  14.178
70123W        W35383  19.502  13.154  11.363
70124W        W35384  24.975  14.110  14.301
70125W        W35385  33.764  33.488  12.584
70126W        W35386  29.309  36.680  11.914
70127W        W35387  36.483   2.038  12.627
70128W        W35388  13.795   4.690  11.991
70129W        W35389  39.610  36.525  13.009
70130W        W35390   9.109  39.893  14.043
70131W        W35391  31.452  15.261   3.446
70132W        W35392   8.795  23.011   3.367
70133W        W35393   5.062  21.122   4.649
70134W        W35394  38.071  30.058  12.101
70135W        W35395  12.562  34.137  10.694
70136W        W35396  13.834  22.916  13.331
70137W        W35397  40.539  24.515  14.434
70138W        W35398   1.895  29.336  13.791
70139W        W35399  13.820  39.772   4.535
70140W        W35400  44.933  28.201  11.599
70141W        W35401  40.406  35.824   2.780
70142W        W35402  13.525  12.087   0.368
70143W        W35403   1.877   5.479   3.719
70144W        W35404  27.555  19.161   2.922
70145W        W35405  29.995   0.203  11.892
70146W        W35406   2.666  14.922  10.733
70147W        W35407  25.546  21.519   4.614
70148W        W35408  13.953   7.865  12.859
70149W        W35409  30.952  14.479  11.558
70150W        W35410  16.191  41.602   2.132
70151W        W35411  22.250  20.952  10.639
70152W        W35412  14.486   1.458   4.617
70153W        W35413   6.457   1.856   3.686
70154W        W35414  23.258  40.572   2.869
70155W        W35415  13.710  28.479  12.571
70156W        W35416  29.229  25.836   5.165
70157W        W35417  16.106   7.753  12.174
70158W        W35418   0.937  39.451   1.263
70159W        W35419  44.819  38.002  13.047
70160W        W35420   4.517   8.327  13.032
70161W        W35421  30.771  13.166   3.727
70162W        W35422  31.411   5.574   3.335
70163W        W35423  33.058  36.783   1.096
70164W        W35424  20.697  33.635   2.350
70165W        W35425  13.566  30.501  10.630
70166W        W35426  20.822  43.947   3.853
70167W        W35427  39.415  20.714   4.030
70168W        W35428  23.749  13.172   1.858
70169W        W35429  28.911  17.276  13.938
70170W        W35430  25.258   5.482  13.457
70171W        W35431  35.501   5.198  14.656
70172W        W35432   7.299  39.866   3.605
70173W        W35433  11.047  14.595  13.459
70174W        W35434  41.707  14.362  11.115
70175W        W35435  27.087   4.516   3.655
70176W        W35436  30.883   4.599   2.680
70177W        W35437  38.491  36.889  13.072
70178W        W35438   1.287  27.637  11.293
70179W        W35439  19.636  16.373   3.686
70180W        W35440  32.630  37.185   1.228
70181W        W35441  10.849  39.879   1.689
70182W        W35442  43.358  38.425  11.240
70183W        W35443  21.554  30.702   3.187
70184W        W35444  28.762  12.700   2.102
70185W        W35445  20.524  14.566   1.650
70186W        W35446  32.386  15.168  14.534
70187W        W35447  41.855  24.838   4.597
70188W        W35448  44.511  41.417  12.850
70189W        W35449  28.059  37.768   1.248
70190W        W35450  42.400  18.095   1.832
70191W        W35451  13.290  26.210  12.495
70192W        W35452  23.339  32.531   3.875
70193W        W35453  39.031  40.193   5.050
70194W        W35454  43.898   7.307   1.919
70195W        W35455  27.877  21.502  11.482
70196W        W35456  15.676   9.655  11.112
70197W        W35457  29.470  24.775   3.637
70198W        W35458  35.347  28.096  10.696
70199W        W35459  24.544  16.405   4.505
70200W        W35460  31.017   3.599   2.593
70201W        W35461  23.118  16.737   2.857
70202W        W35462  28.998  15.316   3.899
70203W        W35463  14.747  32.104   1.232
70204W        W35464  29.650  11.823  10.211
70205W        W35465  40.406   7.064  11.231
70206W        W35466  35.861  12.812  10.936
70207W        W35467  40.371   8.277   3.234
70208W        W35468   4.275  30.378  14.340
70209W        W35469   6.855  16.247  12.407
70210W        W35470  24.515  24.674   1.929
70211W        W35471   0.852  23.062   2.949
70212W        W35472  39.808  10.345   2.929
70213W        W35473  22.562  22.459   2.379
70214W        W35474  34.767   5.486  11.972
70215W        W35475   5.363  21.610  12.835
70216W        W35476  36.665  14.168  13.849
70217W        W35477   4.513  12.652  12.557
70218W        W35478  42.236  28.043  11.125
70219W        W35479  26.531  15.387  12.120
70220W        W35480  24.238   5.849  12.014
70221W        W35481  34.983   8.948  13.980
70222W        W35482   2.728  13.905   3.655
70223W        W35483  28.459  12.249   0.755
70224W        W35484  44.134   4.309  13.539
70225W        W35485  29.167  18.793   2.234
70226W        W35486   8.941  27.567   1.181
70227W        W35487  21.733   8.824   1.865
70228W        W35488  14.240  37.054  10.817
70229W        W35489  27.133  17.636   4.542
70230W        W35490   1.063   5.695  13.338
70231W        W35491  14.598  36.815   0.289
70232W        W35492   9.316   2.382   3.242
70233W        W35493  24.893  12.705  14.100
70234W        W35494  17.817  27.286   1.605
70235W        W35495  34.565  44.252   3.253
70236W        W35496  21.537  13.047  14.886
70237W        W35497  15.081  10.079  12.830
70238W        W35498  24.398   3.780  11.690
70239W        W35499   8.744  16.777   0.629
70240W        W35500  38.334  19.152  11.044
70241W        W35501  20.793  41.517   2.682
70242W        W35502  32.471  43.409  12.459
70243W        W35503  36.228  29.157   1.735
70244W        W35504  28.070  37.585  14.317
70245W        W35505  22.217  26.135  10.750
70246W        W35506  16.057  32.876  10.720
70247W        W35507  10.871   1.643   4.082
70248W        W35508  12.256  35.671   0.375
70249W        W35509  42.723   7.408  14.903
70250W        W35510  31.559  17.891  10.751
70251W        W35511   1.195   4.119  13.152
70252W        W35512   2.623  26.389   1.282
70253W        W35513  28.603  30.914   2.267
70254W        W35514   2.487  15.478   3.194
70255W        W35515  20.950   4.224   1.680
70256W        W35516  15.656   7.938  14.343
70257W        W35517  40.425  16.222   3.499
70258W        W35518  21.919  15.553  14.880
70259W        W35519  32.227  24.271   1.442
70260W        W35520  12.220  21.131  14.103
70261W        W35521  44.235   3.678   2.687
70262W        W35522  25.648  31.760   1.721
70263W        W35523  35.158  14.272   0.924
70264W        W35524  33.804  21.634  13.368
70265W        W35525  29.154   7.455  11.988
70266W        W35526  42.859  27.695  10.670
70267W        W35527  11.785   8.091  14.599
70268W        W35528   0.864  21.989  11.612
70269W        W35529  33.071  31.804   1.936
70270W        W35530   1.274  28.077   1.830
70271W        W35531  21.564  27.426  11.950
70272W        W35532   0.387  40.451   4.728
70273W        W35533  26.371  29.908  13.197
70274W        W35534  10.168  27.904  14.429
70275W        W35535  10.597  38.921  13.888
70276W        W35536   0.487  28.117   3.267
70277W        W35537  11.720  35.899  13.348
70278W        W35538  40.058   3.768  13.878
70279W        W35539  22.258  21.296   0.258
70280W        W35540  24.495  38.744   4.918
70281W        W35541   6.078  11.633   4.315
70282W        W35542  35.709  29.964  10.711
70283W        W35543   6.320  29.487  13.587
70284W        W35544   2.938  11.108  12.961
70285W        W35545  32.311  15.106  11.448
70286W        W35546  28.792  12.163   3.250
70287W        W35547  13.643  39.093  11.233
70288W        W35548  21.682  36.077  14.394
70289W        W35549  12.221   3.146  13.403
70290W        W35550  39.091  42.240  11.903
70291W        W35551  37.519  28.734   2.107
70292W        W35552  36.461  18.175  12.435
70293W        W35553  16.966  27.160  13.392
70294W        W35554  18.311  42.536  13.408
70295W        W35555  25.882  41.636   2.326
70296W        W35556  18.516  39.321  13.946
70297W        W35557  16.574  34.322   4.068
70298W        W35558  41.098  19.613   1.798
70299W        W35559  33.003   7.322  13.026
70300W        W35560   0.273  32.213   1.420
70301W        W35561   7.021  44.315   2.865
70302W        W35562  14.256  22.690  12.606
70303W        W35563  15.325  25.750  13.083
70304W        W35564  22.058  12.828   1.609
70305W        W35565   5.250  28.029  14.684
70306W        W35566  37.204  33.844   2.685
70307W        W35567  29.458  21.743  13.304
70308W        W35568  24.370  22.113   5.332
70309W        W35569  31.386  17.355  14.457
70310W        W35570  13.765  15.259  14.573
70311W        W35571  10.117  44.290  11.021
70312W        W35572  12.138  42.381  14.750
70313W        W35573  38.239  34.130   2.065
70314W        W35574  22.448  18.822   0.343
70315W        W35575  24.089  13.505  11.589
70316W        W35576  16.120   5.681   3.737
70317W        W35577  26.381   5.594  11.704
70318W        W35578  11.380  44.760  13.869
70319W        W35579  30.095   7.671  14.823
70320W        W35580  39.904  25.528   4.155
70321W        W35581  15.903  15.788  11.992
70322W        W35582  33.626   2.261  10.619
70323W        W35583  42.411  31.126   4.164
70324W        W35584  31.086   2.755   2.616
70325W        W35585   6.713   8.873   0.831
70326W        W35586  30.048  41.565   0.187
70327W        W35587   2.686  35.657  13.305
70328W        W35588  40.907   0.004  14.958
70329W        W35589   0.388  19.465   2.692
70330W        W35590  23.129   5.714  11.687
70331W        W35591  21.296   0.324   3.194
70332W        W35592  36.123  24.875   1.629
70333W        W35593  23.377  16.678   4.137
70334W        W35594   6.345   7.324  12.336
70335W        W35595  40.867  32.837  10.818
70336W        W35596  29.957  25.806   1.168
70337W        W35597  29.588   0.270  13.096
70338W        W35598  11.679  38.680  12.099
70339W        W35599  21.693  18.523   1.866
70340W        W35600  38.528   7.805  14.921
70341W        W35601   7.587   4.289  13.482
70342W        W35602  10.447  12.313  13.467
70343W        W35603   1.012   3.218   2.386
70344W        W35604  36.067  12.300   3.323
70345W        W35605  22.199  24.800  13.806
70346W        W35606   2.836  31.717   3.725
70347W        W35607   5.436   2.474   3.087
70348W        W35608   7.693   8.828   4.732
70349W        W35609  23.489   0.944   1.874
70350W        W35610  24.922   0.049   0.462
70351W        W35611  21.774  18.524   3.415
70352W        W35612   2.198  18.341  12.110
70353W        W35613  21.616  12.239  11.290
70354W        W35614  22.673   5.670   0.277
70355W        W35615  22.714  28.923   0.419
70356W        W35616  20.706  27.227   1.761
70357W        W35617   1.643  31.925   4.086
70358W        W35618  18.314  25.742   0.771
70359W        W35619  21.607  28.285  12.499
70360W        W35620   2.828  40.095  13.450
70361W        W35621   9.370  15.651   1.165
70362W        W35622  22.760  44.285  14.971
70363W        W35623  30.943  11.233  14.921
70364W        W35624   2.981  42.966  11.680
70365W        W35625  42.517   9.200  14.827
70366W        W35626  10.226  23.296   2.172
70367W        W35627  20.219  31.156  14.813
70368W        W35628  22.892  26.091   4.193
70369W        W35629   4.630   2.340   4.439
70370W        W35630  15.018  44.186  10.294
70371W        W35631  42.021  33.486  10.455
70372W        W35632  29.332  14.473   4.043
70373W        W35633  38.316  15.757   2.669
70374W        W35634  29.762   3.438  14.291
70375W        W35635   3.756  36.164  12.825
70376W        W35636  37.513  17.160   1.017
70377W        W35637  22.157  40.387  12.446
70378W        W35638  43.025  25.942   1.374
70379W        W35639  31.104  37.301  13.928
70380W        W35640  29.201  16.078  11.956
70381W        W35641   7.666  36.997  12.061
70382W        W35642  30.376  39.774   4.232
70383W        W35643  12.710  12.282  13.345
70384W        W35644  26.981  24.611  13.887
70385W        W35645  12.267  19.774   2.212
70386W        W35646   5.331  18.724  11.561
70387W        W35647  38.444  37.910   4.589
70388W        W35648  38.628   9.372  11.616
70389W        W35649  12.881   7.827  12.888
70390W        W35650  25.966   0.731  12.677
70391W        W35651  11.172  42.336   3.699
70392W        W35652  24.693  34.599  13.084
70393W        W35653  31.137  35.766  14.308
70394W        W35654  23.163  43.822   2.317
70395W        W35655  20.232  37.932  13.596
70396W        W35656  21.306  13.053  10.778
70397W        W35657  24.585  10.413  12.486
70398W        W35658  19.601   3.272   4.520
70399W        W35659  23.718  39.076  11.086
70400W        W35660  40.881   6.474  13.834
70401W        W35661  41.840  39.305  12.474
70402W        W35662  25.763  12.417  13.970
70403W        W35663  29.865  11.212   0.797
70404W        W35664   1.915   6.239  11.545
70405W        W35665   3.024  10.760  11.559
70406W        W35666  44.268  42.185   0.845
70407W        W35667   5.208  24.792   4.987
70408W        W35668   3.215  24.949  13.556
70409W        W35669  44.089   4.700   1.197
70410W        W35670   0.323  41.771   3.275
70411W        W35671   6.918  37.405  12.507
70412W        W35672   1.978  29.615   1.400
70413W        W35673  12.690   2.296  13.536
70414W        W35674  22.121  42.521  10.709
70415W        W35675   7.694   2.627  10.744
70416W        W35676  30.400  31.498  12.679
70417W        W35677   6.177  33.945   4.753
70418W        W35678   6.386  35.337  11.893
70419W        W35679  26.963  36.144   2.282
70420W        W35680   9.691  30.933  14.844
70421W        W35681  26.835  41.295   2.722
70422W        W35682  34.155   9.315   2.742
70423W        W35683  37.031  25.089   2.893
70424W        W35684  44.521  18.605  13.262
70425W        W35685  24.745  25.157   0.890
70426W        W35686   7.468   6.632  11.059
70427W        W35687  13.307  12.181  12.556
70428W        W35688  38.893  14.625   4.389
70429W        W35689  28.913  11.115   1.412
70430W        W35690  20.781   1.986  14.526
70431W        W35691  28.464  40.763  11.579
70432W        W35692   9.147  35.349  14.390
70433W        W35693  27.507  12.132   1.648
70434W        W35694  16.566  21.640   0.345
70435W        W35695  23.085   5.751  13.196
70436W        W35696   9.935  29.436   0.964
70437W        W35697  27.451  15.125  13.250
70438W        W35698  16.451  43.960  10.559
70439W        W35699   6.413  43.130   1.956
70440W        W35700  43.727  37.529  12.150
70441W        W35701  10.323  37.265   4.167
70442W        W35702  36.681  14.204   2.425
70443W        W35703  32.981  35.807   1.237
70444W        W35704  15.210  12.534   0.491
70445W        W35705  36.928   4.772   1.329
70446W        W35706  30.663  36.557   2.039
70447W        W35707   6.956  36.742   4.689
70448W        W35708  23.999  24.570   2.702
70449W        W35709  13.549  43.975   1.701
70450W        W35710  29.444  35.063  10.806
70451W        W35711  39.194  26.621   2.816
70452W        W35712   8.671   5.231   4.503
70453W        W35713  25.182  24.143  14.520
70454W        W35714  11.195   5.931  14.694
70455W        W35715  26.008   2.496  12.443
70456W        W35716   0.425   6.160  12.523
70457W        W35717   1.307   9.376  12.487
70458W        W35718   8.938  22.814   2.238
70459W        W35719  26.401  19.491   0.804
70460W        W35720  16.302   5.651   1.312
70461W        W35721  27.615  31.908  11.385
70462W        W35722  39.186  22.805  11.519
70463W        W35723  22.527  41.243  11.689
70464W        W35724  29.268   1.526   5.087
70465W        W35725  19.717  39.582   4.112
70466W        W35726   3.450   0.392  13.844
70467W        W35727  13.136  38.551  14.367
70468W        W35728  18.123  16.641  13.011
70469W        W35729   1.328  36.980  13.312
70470W        W35730  41.348  21.804  11.501
70471W        W35731  41.288  22.651   5.066
70472W        W35732  39.860  42.963  14.279
70473W        W35733   0.441  21.874  11.025
70474W        W35734   9.504   4.437  13.069
70475W        W35735   9.911  24.997  14.335
70476W        W35736  30.434  36.840   3.206
70477W        W35737  27.896  41.419   3.695
70478W        W35738   9.804   5.841  14.328
70479W        W35739  43.744   0.900  14.977
70480W        W35740   8.621  12.005  12.367
70481W        W35741  31.498   5.954   0.306
70482W        W35742   9.966  43.589  12.630
70483W        W35743  14.199  37.637   0.372
70484W        W35744   9.637   3.531   0.749
70485W        W35745   8.932  19.981  13.821
70486W        W35746  25.279  17.394   4.078
70487W        W35747  25.734  43.406  12.847
70488W        W35748  32.371   9.088   3.114
70489W        W35749  20.473  12.175  11.501
70490W        W35750  34.612  42.019   1.490
70491W        W35751   5.151  24.622  13.354
70492W        W35752   5.450   1.188   1.813
70493W        W35753  23.762  23.556  11.771
70494W        W35754  29.570  29.178   2.340
70495W        W35755   5.257   1.182  10.196
70496W        W35756   4.822  21.693  12.901
70497W        W35757  11.814  25.083   1.743
70498W        W35758  36.310   5.278  10.539
70499W        W35759   7.386  39.821   1.719
70500W        W35760  30.985  11.593  10.958
70501W        W35761  39.416  28.868  13.841
70502W        W35762  12.598   0.527   3.912
70503W        W35763  15.071   3.933  11.118
70504W        W35764  43.535  34.541  14.745
70505W        W35765  39.921   7.853  13.081
70506W        W35766  23.729  27.441   1.827
70507W        W35767  17.245   3.690   2.248
70508W        W35768  35.137   4.863  13.324
70509W        W35769  34.837  13.087   1.206
70510W        W35770  15.550  19.557   0.117
70511W        W35771   8.787  26.257   0.707
70512W        W35772  13.102  19.078   1.189
70513W        W35773  29.871   4.413   3.610
70514W        W35774  20.604  30.898   4.057
70515W        W35775  13.704  25.392   1.741
70516W        W35776  17.029  28.180   4.661
70517W        W35777  25.998   6.254   0.301
70518W        W35778   2.066  36.041   0.248
70519W        W35779   7.854  42.410   1.227
70520W        W35780  38.601  24.781  13.649
70521W        W35781   1.332  40.113   0.043
70522W        W35782  39.233   7.576   4.133
70523W        W35783  16.916  16.346   2.317
70524W        W35784  11.098   1.844  11.012
70525W        W35785  36.757  40.633  13.830
70526W        W35786  19.150  19.531  14.071
70527W        W35787  36.967   8.126  11.716
70528W        W35788   8.228  26.379  14.666
70529W        W35789  13.456  19.358  14.472
70530W        W35790  10.965  35.101   3.852
70531W        W35791  28.435   8.877  11.223
70532W        W35792  13.796   2.917   0.814
70533W        W35793  39.612  18.301   3.454
70534W        W35794  32.721  35.837  13.633
70535W        W35795   2.933  10.130   2.825
70536W        W35796  31.402  34.178   0.724
70537W        W35797  31.684  11.698  13.375
70538W        W35798  20.569   2.911  11.135
70539W        W35799  10.633  35.411   1.254
70540W        W35800  35.172  17.738  13.340
70541W        W35801  13.225  33.834   3.789
70542W        W35802  43.768  36.469   2.818
70543W        W35803   3.286  43.493   1.401
70544W        W35804  30.058  34.754  13.087
70545W        W35805  38.448  39.414   3.974
70546W        W35806   7.719   0.451   1.491
70547W        W35807   4.571   0.767  11.863
70548W        W35808  24.560  36.914  13.962
70549W        W35809  31.216   6.803  14.769
70550W        W35810  15.294  33.899  14.890
70551W        W35811  38.082  43.952  14.394
70552W        W35812  24.588  15.122   0.134
70553W        W35813  17.522  27.121  13.370
70554W        W35814  21.529   5.687   2.588
70555W        W35815  27.401   8.801  13.738
70556W        W35816  13.536  31.374   0.040
70557W        W35817  44.014  11.480   3.996
70558W        W35818  37.484  31.839  10.128
70559W        W35819  25.546  41.518  11.650
70560W        W35820  35.902  23.694  13.448
70561W        W35821  16.765  22.045  13.167
70562W        W35822  44.758  21.585   3.202
70563W        W35823  16.717  37.082   0.448
70564W        W35824  37.792   1.844   2.675
70565W        W35825  11.154  24.098   0.741
70566W        W35826  27.692  36.533  13.503
70567W        W35827  17.374  22.611  10.860
70568W        W35828  42.161  34.135  14.269
70569W        W35829   1.564  33.823   1.316
70570W        W35830  11.551  22.755  11.211
70571W        W35831   9.533  24.495   2.229
70572W        W35832   7.751  24.054   2.739
70573W        W35833  13.141  35.440   2.824
70574W        W35834  15.338  42.524   2.716
70575W        W35835  43.949  28.566   2.732
70576W        W35836  40.744  15.244  13.555
70577W        W35837  24.217  28.746   0.791
70578W        W35838  35.888   8.791  11.638
70579W        W35839  33.403  36.567  11.924
70580W        W35840  43.121  37.361   1.492
70581W        W35841  14.601  28.004  13.542
70582W        W35842  39.023  35.315  11.502
70583W        W35843  40.651  28.119  12.444
70584W        W35844   1.472   2.267   2.307
70585W        W35845  44.502  37.621   2.426
70586W        W35846  31.490  24.268   4.158
70587W        W35847  23.486   6.724   3.636
70588W        W35848  28.973  11.835  12.463
70589W        W35849  33.575  35.517  13.834
70590W        W35850   2.450  33.886   1.364
70591W        W35851  44.201  41.594  12.503
70592W        W35852   2.736  30.952  10.679
70593W        W35853  19.119  42.217   0.766
70594W        W35854  19.290  36.480  12.523
70595W        W35855  14.614  42.285  13.787
70596W        W35856  30.003  44.638   1.002
70597W        W35857  15.745  21.857  11.593
70598W        W35858   0.575  41.918  11.995
70599W        W35859   6.912  16.618  11.175
70600W        W35860  17.112   7.756   3.768
70601W        W35861  19.487  29.218  14.004
70602W        W35862  13.702  10.195   1.885
70603W        W35863  38.919   0.333   2.516
70604W        W35864  37.869  44.181   3.245
70605W        W35865  25.499  20.714   1.776
70606W        W35866   4.328  31.414  13.066
70607W        W35867  28.551   2.542   3.412
70608W        W35868  18.049  28.903  14.358
70609W        W35869  37.722  29.287   4.250
70610W        W35870  17.231  44.433   2.240
70611W        W35871   6.900  22.707   4.862
70612W        W35872  18.328  34.944   1.494
70613W        W35873  11.636  38.148  12.996
70614W        W35874   6.664  40.639   1.093
70615W        W35875   8.255  39.518  12.114
70616W        W35876  34.494   3.680  13.965
70617W        W35877   0.090  39.177   4.457
70618W        W35878  25.070  26.085  14.277
70619W        W35879   6.815  21.784  14.693
70620W        W35880  44.768  37.087  12.190
70621W        W35881   3.690  10.029  14.946
70622W        W35882  36.507   2.315  13.086
70623W        W35883   3.093  43.331  12.696
70624W        W35884  12.690   5.637   0.442
70625W        W35885  14.363  23.033   3.888
70626W        W35886  36.696   5.661  14.385
70627W        W35887   1.136  10.627  11.014
70628W        W35888  12.605  23.306  10.775
70629W        W35889  11.844   6.871   1.994
70630W        W35890  13.220  19.467  14.945
70631W        W35891   6.413   2.370  14.733
70632W        W35892  10.766  37.280   0.497
70633W        W35893  13.920  16.066  10.795
70634W        W35894  27.621   8.232   3.334
70635W        W35895  37.603  23.106   3.908
70636W        W35896  38.920  44.230   4.101
70637W        W35897  32.552  40.427  13.854
70638W        W35898  24.809   9.111   2.143
70639W        W35899  10.635  40.872   0.670
70640W        W35900  39.819  15.993  11.494
70641W        W35901  12.194  19.438   3.132
70642W        W35902  35.454  22.100   2.094
70643W        W35903  36.855   5.383  13.610
70644W        W35904  15.296  38.090  11.933
70645W        W35905  38.776   7.209  14.286
70646W        W35906  37.348  41.506   0.834
70647W        W35907  23.931  10.291   0.827
70648W        W35908  31.881  20.332   2.709
70649W        W35909  16.782  18.483   0.702
70650W        W35910   2.728  44.907   1.188
70651W        W35911  34.365  19.373  13.426
70652W        W35912   9.897  16.808  13.837
70653W        W35913  43.398  20.734  10.656
70654W        W35914   3.432  33.731   2.111
70655W        W35915   3.977  12.841  14.440
70656W        W35916  29.680  13.330  11.699
70657W        W35917  23.301   6.692  14.884
70658W        W35918   3.341  23.103   1.082
70659W        W35919  28.154  38.205  12.653
70660W        W35920   8.706  41.421   3.422
70661W        W35921  10.162   6.758   2.727
70662W        W35922   7.776  42.305  14.905
70663W        W35923   8.215  27.572  14.503
70664W        W35924  36.622   7.823  12.901
70665W        W35925  28.870  31.593  11.657
70666W        W35926   0.047  20.848  11.168
70667W        W35927  24.606  26.688  11.401
70668W        W35928  34.646  41.894  14.236
70669W        W35929  44.849   2.522   0.038
70670W        W35930  18.107   8.502   2.825
70671W        W35931  19.462  15.545   4.116
70672W        W35932  29.207  38.848   9.971
70673W        W35933  32.047   1.059   4.324
70674W        W35934  23.526  11.354   0.760
70675W        W35935   9.383  31.682   0.764
70676W        W35936  39.480  27.087  14.263
70677W        W35937   2.572  36.866   0.276
70678W        W35938  26.429  10.235   4.648
70679W        W35939  15.320  27.918   0.189
70680W        W35940  44.818  31.462   1.247
70681W        W35941  20.738  18.304  11.554
70682W        W35942   4.858  40.490  11.192
70683W        W35943   2.666  40.832  11.635
70684W        W35944  16.203  30.194  11.113
70685W        W35945   5.688  26.022  13.568
70686W        W35946   1.985  39.096   0.813
70687W        W35947   3.979  41.485   4.207
70688W        W35948  12.166  28.875   3.539
70689W        W35949  11.725   0.498  11.128
70690W        W35950  32.201  36.509  13.389
70691W        W35951  33.167  14.853   0.389
70692W        W35952  23.078   3.679   4.992
70693W        W35953  28.886  15.874  11.113
70694W        W35954  43.818  14.380   3.083
70695W        W35955  42.032  12.475   2.804
70696W        W35956  17.856  29.127   4.509
70697W        W35957   7.643  29.444   2.508
70698W        W35958   2.741  10.134   3.722
70699W        W35959  31.792  20.039   0.930
70700W        W35960  33.432  35.197   4.010
70701W        W35961  17.031  17.229   4.229
70702W        W35962  26.710   8.213   1.004
70703W        W35963  30.048  38.208  14.790
70704W        W35964  16.322  14.144   2.201
70705W        W35965  21.687  18.536   2.893
70706W        W35966  20.795  13.782  13.889
70707W        W35967  25.591  39.036   3.856
70708W        W35968   1.238  23.074   1.873
70709W        W35969   4.380  28.944   3.022
70710W        W35970  28.351   7.973   0.187
70711W        W35971  17.302   5.958  11.732
70712W        W35972  30.950  31.964  13.936
70713W        W35973  21.929  22.882  14.878
70714W        W35974  42.691  13.142   0.039
70715W        W35975   1.586  33.011   0.798
70716W        W35976  22.158   1.219   2.655
70717W        W35977  36.318  14.286   3.662
70718W        W35978   6.896  25.560   3.681
70719W        W35979  40.371  26.648  10.637
70720W        W35980  22.575  40.081  12.359
70721W        W35981  26.596   6.696   0.966
70722W        W35982  22.249  34.903  12.318
70723W        W35983  30.969  44.778  13.877
70724W        W35984   8.952  41.420  11.436
70725W        W35985  16.389  19.349   3.412
70726W        W35986  40.188   9.950   3.615
70727W        W35987   2.872   9.231   3.674
70728W        W35988  10.747  36.979   4.102
70729W        W35989  17.234   9.714   2.091
70730W        W35990  30.619  43.099   4.203
70731W        W35991  42.329  37.052   4.396
70732W        W35992   0.760  21.764   3.709
70733W        W35993  37.091  26.004   3.339
70734W        W35994  22.837  12.963  11.692
70735W        W35995  37.035  16.522  11.015
70736W        W35996  38.406  22.311   2.737
70737W        W35997  19.357  37.493   3.331
70738W        W35998  11.228  23.509   2.187
70739W        W35999  27.221  13.877  12.885
70740W        W36000  20.114  26.685   2.357
70741W        W36001   7.776  26.121  13.531
70742W        W36002  41.184  30.999  14.860
70743W        W36003  29.360  28.960   4.845
70744W        W36004  12.760   5.702  11.104
70745W        W36005  16.610  21.624  12.918
70746W        W36006  10.528  11.612  11.559
70747W        W36007  10.559   7.911   0.103
70748W        W36008  40.386   8.888   1.726
70749W        W36009  26.608   8.976  10.513
70750W        W36010  25.696  42.278   0.814
70751W        W36011  22.177  39.382  10.383
70752W        W36012   7.109  44.004  12.827
70753W        W36013  43.770  43.024  11.979
70754W        W36014   9.710   7.920   0.443
70755W        W36015   7.177  43.210  11.183
70756W        W36016  23.961  33.554   2.776
70757W        W36017  12.245  30.813  10.738
70758W        W36018  18.272   4.663  12.906
70759W        W36019  27.753  21.185   2.868
70760W        W36020   3.690  30.112   1.028
70761W        W36021  15.068  19.672  10.224
70762W        W36022  16.767  20.017   2.753
70763W        W36023  14.225  43.476   3.615
70764W        W36024   9.710  24.662  13.370
70765W        W36025  14.789  10.587  14.322
70766W        W36026  43.545   8.023   4.113
70767W        W36027  34.296  31.532   2.960
70768W        W36028   7.886  20.841   2.854
70769W        W36029  31.369   3.404  12.572
70770W        W36030  21.216  14.220   3.408
70771W        W36031  40.091  12.383   4.464
70772W        W36032  21.221   1.896  13.644
70773W        W36033  41.439  21.957  14.504
70774W        W36034  32.390  23.836  11.855
70775W        W36035  32.445  41.341   2.384
70776W        W36036  40.437   1.115  12.423
70777W        W36037  24.411  11.865  12.553
70778W        W36038  18.690  25.995   0.497
70779W        W36039  39.894  10.289  13.489
70780W        W36040  18.804  19.089   0.226
70781W        W36041  31.142  23.288   3.115
70782W        W36042   6.538   2.686   4.910
70783W        W36043  12.127  10.246   3.570
70784W        W36044  12.446  13.546  13.942
70785W        W36045  28.054  10.271   0.895
70786W        W36046  30.428  18.320  14.405
70787W        W36047   3.716   1.780  11.592
70788W        W36048  16.245  30.396  13.800
70789W        W36049   3.908   0.356  10.222
70790W        W36050   3.982  31.806   1.724
70791W        W36051   9.915   2.932   1.683
70792W        W36052  11.161  13.321   4.617
70793W        W36053   6.175  14.338   5.123
70794W        W36054   3.343  23.597   0.898
70795W        W36055   6.000  30.705   2.282
70796W        W36056   8.140  31.626  13.430
70797W        W36057   5.260  36.123   0.696
70798W        W36058   8.737  19.596   2.219
70799W        W36059  42.924  43.152   0.804
70800W        W36060  15.075   1.241   1.755
70801W        W36061   0.714  28.190   2.630
70802W        W36062  41.114  18.142   4.150
70803W        W36063  24.520  36.077  12.227
70804W        W36064  25.959  24.483  11.680
70805W        W36065  31.350   1.798   3.216
70806W        W36066   4.877  10.002  14.513
70807W        W36067  36.173  31.048   4.144
70808W        W36068  28.530  44.126   4.133
70809W        W36069  24.713  10.162  10.654
70810W        W36070   6.658  24.110   2.853
70811W        W36071  34.400  31.055   1.186
70812W        W36072   0.007  35.833  13.997
70813W        W36073  18.783  43.122   5.120
70814W        W36074  15.069   8.789  13.853
70815W        W36075  15.677  25.259   3.606
70816W        W36076  24.430   8.451  11.259
70817W        W36077   2.535  16.892   5.314
70818W        W36078   1.001  11.085  12.591
70819W        W36079  12.202  36.081  13.612
70820W        W36080  33.385  35.858  10.539
70821W        W36081  41.886  41.749  14.927
70822W        W36082  29.696  44.229  13.428
70823W        W36083  36.355  25.092  12.075
70824W        W36084  40.508  10.309   3.810
70825W        W36085  29.020  23.559   1.942
70826W        W36086  34.605  40.834   0.048
70827W        W36087  13.156  21.087  11.281
70828W        W36088  39.278  36.420  12.610
70829W        W36089  37.434  11.910   3.322
70830W        W36090   5.741  30.505   1.120
70831W        W36091  29.462   7.131   2.381
70832W        W36092  17.703  38.791  10.518
70833W        W36093   1.033  42.200   2.148
70834W        W36094   0.558  17.874   0.319
70835W        W36095   9.335  35.856  13.656
70836W        W36096  26.557  24.021   1.273
70837W        W36097  42.950  43.421  12.136
70838W        W36098  36.586   1.733  14.918
70839W        W36099  15.189  36.088   4.293
70840W        W36100  10.273   0.443  14.964
70841W        W36101  12.641  36.091   1.707
70842W        W36102  13.821  36.933  14.891
70843W        W36103  40.581   2.232   4.176
70844W        W36104   8.370  15.762   4.543
70845W        W36105   3.894  44.032  10.597
70846W        W36106  32.556  31.930   4.161
70847W        W36107  33.453   8.882  13.355
70848W        W36108  20.513   0.013   1.732
70849W        W36109  35.578  36.496  13.356
70850W        W36110  30.552  29.574  12.467
70851W        W36111  43.966   3.445   2.273
70852W        W36112   7.641  30.318   3.884
70853W        W36113  42.334  40.608  11.671
70854W        W36114  20.237   4.701   3.692
70855W        W36115  23.195  27.744  10.862
70856W        W36116  14.751  22.438  10.709
70857W        W36117  32.042  24.778  11.191
70858W        W36118  43.787  20.062  12.698
70859W        W36119  40.106  36.063  13.500
70860W        W36120   8.226  33.884  11.106
70861W        W36121  28.723   2.948  14.900
70862W        W36122  43.007  38.152  10.989
70863W        W36123  36.203  37.453   1.345
70864W        W36124   6.186  20.249  11.840
70865W        W36125   8.440   8.654  13.580
70866W        W36126  36.136  34.983   2.690
70867W        W36127  24.283  29.688  11.089
70868W        W36128  13.915  32.103  10.706
70869W        W36129  42.562  21.301  14.741
70870W        W36130  12.235  27.588  13.274
70871W        W36131  30.022   4.703  12.533
70872W        W36132  16.529  31.498  13.234
70873W        W36133  22.014  16.736   1.004
70874W        W36134  30.233  14.834   4.824
70875W        W36135   8.187  27.243   1.738
70876W        W36136  43.667   9.063   1.966
70877W        W36137   9.712  11.704  12.896
70878W        W36138  17.782  31.002   3.813
70879W        W36139  21.584  41.492  14.929
70880W        W36140  40.858   6.339   1.299
70881W        W36141  20.293  15.625  14.282
70882W        W36142  26.672  12.540  10.662
70883W        W36143   6.375  10.176   4.041
70884W        W36144  20.528  20.657  13.649
70885W        W36145  36.848  43.341  13.025
70886W        W36146  43.011  37.890  14.918
70887W        W36147  25.962   8.784   3.741
70888W        W36148  19.333  31.904  13.419
70889W        W36149  26.988  37.381  13.523
70890W        W36150   9.557  34.586  12.914
70891W        W36151  18.611  27.140   3.417
70892W        W36152  39.898  16.907  11.251
70893W        W36153  40.967  41.453  13.050
70894W        W36154  10.913   6.359   1.769
70895W        W36155  19.084  37.939  14.927
70896W        W36156  30.635  12.366   2.022
70897W        W36157  30.381   1.072  11.879
70898W        W36158  27.680  25.686  14.709
70899W        W36159  10.609  43.986  13.954
70900W        W36160  41.429  43.706   4.726
70901W        W36161  33.409  21.309   3.584
70902W        W36162  30.436  44.816   4.211
70903W        W36163  18.709  17.512  13.057
70904W        W36164   4.212   1.400   0.280
70905W        W36165   5.634  23.305  14.950
70906W        W36166  44.577   6.777   0.910
70907W        W36167  26.168  26.569   1.929
70908W        W36168  33.528  10.935   3.192
70909W        W36169  12.685  10.806  10.558
70910W        W36170   2.782  42.874  14.278
70911W        W36171  35.366  11.839   1.797
70912W        W36172   0.749  43.382  11.847
70913W        W36173  12.818  34.068   3.612
70914W        W36174  43.756  14.314  11.207
70915W        W36175  18.514  23.644   3.347
70916W        W36176   3.750  17.823  14.534
70917W        W36177  24.648  19.260   0.974
70918W        W36178  15.664  21.479   4.111
70919W        W36179  36.753  17.378   2.232
70920W        W36180   5.534   6.102  14.393
70921W        W36181  19.283  40.617  11.235
70922W        W36182  21.676  29.454   1.994
70923W        W36183   1.550   9.109  13.458
70924W        W36184  43.319  19.839   3.260
70925W        W36185   6.166   2.252  11.680
70926W        W36186  31.555   7.969   2.682
70927W        W36187  41.784   8.572  11.167
70928W        W36188  20.754  41.047   0.838
70929W        W36189  27.455  37.071   1.392
70930W        W36190  33.464  40.722   4.139
70931W        W36191  34.976  23.424   0.165
70932W        W36192  15.312  30.142  12.838
70933W        W36193  39.304  26.959  13.381
70934W        W36194   3.004  15.673  13.971
70935W        W36195  21.489  27.997  14.747
70936W        W36196   5.219  30.076  13.413
70937W        W36197  40.298  38.650   3.861
70938W        W36198  29.397  12.776   3.586
70939W        W36199  16.242  36.873   0.338
70940W        W36200  42.825  15.304   3.247
70941W        W36201  38.273  24.605  13.995
70942W        W36202  31.894   2.846   0.472
70943W        W36203  39.229   2.972   3.849
70944W        W36204  17.151  38.873   4.137
70945W        W36205  33.149  23.047   3.336
70946W        W36206   6.248  41.965   0.442
70947W        W36207   6.353  35.807  11.653
70948W        W36208  20.097  38.632  13.801
70949W        W36209  13.259  17.387   3.624
70950W        W36210  25.525   0.070  11.472
70951W        W36211  26.094  13.868   4.507
70952W        W36212  30.904  32.122   0.391
70953W        W36213  19.538   0.855   2.246
70954W        W36214  25.978   3.783  12.896
70955W        W36215   0.230   0.786  14.944
70956W        W36216  22.009   8.881  14.371
70957W        W36217   1.263  29.067  13.735
70958W        W36218   5.964  44.891  11.700
70959W        W36219  25.025  12.207   0.898
70960W        W36220  44.454  26.715  13.960
70961W        W36221   0.061  29.107   3.108
70962W        W36222  24.657   9.502   4.731
70963W        W36223  10.098  41.574   3.724
70964W        W36224  43.856  42.533  11.009
70965W        W36225  14.308  38.156   0.399
70966W        W36226  16.204  43.917   0.948
70967W        W36227  42.265  15.475  12.536
70968W        W36228  43.855  32.397   1.504
70969W        W36229  22.770  20.955  14.544
70970W        W36230  25.873  41.863   4.431
70971W        W36231  16.336  13.853  14.816
70972W        W36232  21.472  26.199  12.567
70973W        W36233  40.520  34.706   0.806
70974W        W36234   7.017  41.470  13.389
70975W        W36235  17.629   9.230   3.169
70976W        W36236  23.948  43.277   0.644
70977W        W36237   1.060  43.535  14.825
70978W        W36238  40.286  14.050  11.474
70979W        W36239   3.195  29.392   3.737
70980W        W36240  41.056   3.311   3.683
70981W        W36241  25.192  21.816   4.137
70982W        W36242  30.582  24.673  12.529
70983W        W36243  37.712  24.471  11.897
70984W        W36244  13.611  30.494  14.785
70985W        W36245   7.929   1.845   9.827
70986W        W36246   6.819  21.758  12.556
70987W        W36247  43.573  30.148   3.149
70988W        W36248  40.339  12.775   0.693
70989W        W36249  14.555   3.687  10.989
70990W        W36250  29.575  15.292   5.106
70991W        W36251  21.263  37.574   0.335
70992W        W36252  29.619  44.814  11.483
70993W        W36253  20.288   0.482   0.761
70994W        W36254  24.707  28.187   0.377
70995W        W36255  23.591  34.044   4.266
70996W        W36256  20.243  24.623   3.416
70997W        W36257   1.687  22.128   2.609
70998W        W36258  38.507  44.515   0.496
70999W        W36259  25.558  10.658  14.399
71000W        W36260  21.540  26.195   3.682
71001W        W36261  27.022  30.193   1.282
71002W        W36262   0.010   0.538   0.369
71003W        W36263  34.412   2.926   2.365
71004W        W36264   8.208  15.422   3.232
71005W        W36265  25.894  40.257  10.896
71006W        W36266  36.610  32.330  10.935
71007W        W36267  28.966   0.106  11.107
71008W        W36268  30.655  16.402   1.065
71009W        W36269   8.328   1.807   0.409
71010W        W36270  36.391  18.762   3.939
71011W        W36271   3.861  17.009  13.777
71012W        W36272  19.239  20.600  10.671
71013W        W36273  14.794  23.278  12.957
71014W        W36274  37.864  29.004  11.539
71015W        W36275   2.823  35.973  14.225
71016W        W36276   6.940  14.425  14.953
71017W        W36277  21.324  40.275  10.661
71018W        W36278   2.120  10.245  10.191
71019W        W36279  20.649  27.645   2.704
71020W        W36280  32.649  30.391   0.284
71021W        W36281  39.446  20.580  10.681
71022W        W36282  33.396  25.716  14.847
71023W        W36283  42.607   3.539   3.786
71024W        W36284  42.698   6.135   3.385
71025W        W36285  17.304  32.990  14.562
71026W        W36286  23.413  20.210   2.645
71027W        W36287  30.937   4.372   3.610
71028W        W36288  26.144  39.326   5.115
71029W        W36289  15.975   9.165  12.888
71030W        W36290  32.762  14.300  14.430
71031W        W36291  19.249  29.600   4.135
71032W        W36292   8.675  23.451   0.459
71033W        W36293  29.015  22.234  14.547
71034W        W36294  31.573  19.744   2.094
71035W        W36295   7.636  12.254  11.490
71036W        W36296  41.107  34.817   4.256
71037W        W36297   8.313  24.754   1.700
71038W        W36298  36.767  20.130   0.087
71039W        W36299  22.155  20.585   2.352
71040W        W36300   0.160   7.171  14.767
71041W        W36301  14.840   8.296   9.863
71042W        W36302  21.229  36.958   3.672
71043W        W36303  24.940  17.320  11.981
71044W        W36304  43.075   7.654  11.157
71045W        W36305  11.705  16.774  14.801
71046W        W36306  18.523  17.764  11.550
71047W        W36307  43.241   3.951   0.190
71048W        W36308  33.622   1.048  11.646
71049W        W36309  12.747  39.599  11.918
71050W        W36310  42.354   0.378  13.108
71051W        W36311  16.086  18.664  11.557
71052W        W36312  19.608   0.928  10.757
71053W        W36313  29.799   1.536   4.312
71054W        W36314  43.342  15.353  13.982
71055W        W36315  27.645  17.662   4.437
71056W        W36316  12.254  20.138  11.136
71057W        W36317  39.640   3.041   3.543
71058W        W36318  21.164  15.730   4.697
71059W        W36319   9.560  39.393  13.616
71060W        W36320  32.647  17.388   1.253
71061W        W36321   2.682  17.038   4.561
71062W        W36322  36.046  41.309   3.494
71063W        W36323  31.647  32.465   2.396
71064W        W36324  35.167  25.126  13.371
71065W        W36325  37.510   4.527   2.298
71066W        W36326  11.877  11.878   4.116
71067W        W36327  12.448  44.785  11.904
71068W        W36328  26.232  10.877  13.696
71069W        W36329  37.924  10.277   3.859
71070W        W36330  34.395  14.865  13.872
71071W        W36331  43.281  37.961   0.359
71072W        W36332  14.885  17.040   0.757
71073W        W36333  32.908  22.844   1.478
71074W        W36334  17.890  24.444   4.200
71075W        W36335  17.612  23.069   1.428
71076W        W36336  30.354  44.889  13.087
71077W        W36337  28.496  21.370  10.213
71078W        W36338  15.612  14.350  12.500
71079W        W36339  29.443  38.702  13.623
71080W        W36340  36.477  11.302  14.730
71081W        W36341  20.002  33.482  11.672
71082W        W36342  30.905   0.853  10.612
71083W        W36343  14.822  39.836  13.579
71084W        W36344  24.918  14.833   3.606
71085W        W36345   0.916   5.934   4.099
71086W        W36346   9.178  30.898  12.483
71087W        W36347   5.404  33.439   3.869
71088W        W36348  22.631  27.571   4.574
71089W        W36349  44.438   1.238   4.179
71090W        W36350  31.939  27.224  12.931
71091W        W36351   3.419  20.308   2.699
71092W        W36352  24.058  18.969   1.886
71093W        W36353  42.422  32.590   4.544
71094W        W36354   5.635   1.194   2.994
71095W        W36355   3.878  44.371   1.752
71096W        W36356  31.262  22.399  12.973
71097W        W36357  33.533  39.329  14.710
71098W        W36358  14.256  25.575   0.418
71099W        W36359  42.347  22.457   4.565
71100W        W36360   7.529  44.212  12.577
71101W        W36361   8.806  40.219  10.922
71102W        W36362  35.805  43.793  10.263
71103W        W36363   7.738  40.223  13.901
71104W        W36364   6.688   1.988   3.095
71105W        W36365  11.205  30.554   0.196
71106W        W36366  37.999  13.273  10.523
71107W        W36367  28.400  24.925   2.796
71108W        W36368   2.865  36.518  14.994
71109W        W36369  42.105  17.858   4.469
71110W        W36370  43.849  26.214   0.916
71111W        W36371  37.230  31.891  12.877
71112W        W36372  38.367  26.629   1.002
71113W        W36373  39.329  27.675   0.483
71114W        W36374  20.800  41.894   4.261
71115W        W36375  43.760  34.169   3.824
71116W        W36376  12.055  36.555  11.600
71117W        W36377  13.873  44.887   3.686
71118W        W36378  23.658  14.734  13.653
71119W        W36379  35.562  39.379   0.270
71120W        W36380  38.128  18.312   1.809
71121W        W36381   2.507  38.442  11.186
71122W        W36382  21.177  22.875   4.857
71123W        W36383  30.571  31.397   3.359
71124W        W36384  29.399  26.878  14.579
71125W        W36385  44.992  22.431   0.826
71126W        W36386  44.268  26.564  10.938
71127W        W36387  40.759  44.793  13.739
71128W        W36388  32.098  40.029  12.952
71129W        W36389   6.441  16.874   0.784
71130W        W36390  37.398  33.379  12.678
71131W        W36391  41.505  33.575   0.600
71132W        W36392   6.311  24.939   1.931
71133W        W36393   3.961  28.090   1.688
71134W        W36394   9.171  11.623   3.819
71135W        W36395  24.698   2.297   4.179
71136W        W36396  34.010  11.389   3.744
71137W        W36397  16.021  37.307  10.264
71138W        W36398   1.760  31.589   0.135
71139W        W36399  18.747  27.666   4.662
71140W        W36400  20.764  36.254  13.836
71141W        W36401   0.723  18.544   0.368
71142W        W36402  14.616  33.049   0.706
71143W        W36403  28.766   1.283   1.712
71144W        W36404  33.847   1.159   0.469
71145W        W36405   1.653  37.661  10.743
71146W        W36406  31.072   4.445  12.978
71147W        W36407  42.833  18.105  14.007
71148W        W36408  37.528   1.668   1.862
71149W        W36409  40.327  17.595   3.195
71150W        W36410   2.302  11.731   3.196
71151W        W36411   0.468  30.633   4.254
71152W        W36412  39.526   6.471  12.414
71153W        W36413  38.338  14.939   4.771
71154W        W36414  15.519   5.220  10.128
71155W        W36415  23.512  32.907  10.242
71156W        W36416   3.168  39.879  11.407
71157W        W36417  39.174  29.445   0.536
71158W        W36418  27.567   8.243  10.715
71159W        W36419   4.802  43.775  12.086
71160W        W36420   0.451  16.785  12.862
71161W        W36421  11.744   6.294   0.393
71162W        W36422  13.330   9.462   2.235
71163W        W36423  38.496  35.103   4.232
71164W        W36424  42.309   4.778  14.406
71165W        W36425  40.058  42.489  14.992
71166W        W36426  34.132  19.622   3.674
71167W        W36427   2.984  36.931  13.963
71168W        W36428   2.832  38.893   3.030
71169W        W36429  16.121   5.929   4.738
71170W        W36430   7.547  17.626  14.610
71171W        W36431   6.600  39.281   3.317
71172W        W36432  26.467  20.636   2.908
71173W        W36433  38.270  24.150   2.361
71174W        W36434  16.344   2.075   3.544
71175W        W36435   9.452  38.553   0.305
71176W        W36436  10.165  40.251  14.008
71177W        W36437  17.539  30.559   3.683
71178W        W36438  34.000   2.012   0.814
71179W        W36439   9.739  29.943  14.505
71180W        W36440  11.757  33.731   4.859
71181W        W36441   8.482   7.328   3.600
71182W        W36442  39.995  28.674  12.052
71183W        W36443  24.706  43.046  10.700
71184W        W36444  29.042  29.011   3.933
71185W        W36445  28.015   4.771   0.005
71186W        W36446   8.827  10.134   3.276
71187W        W36447   4.307  15.197   4.590
71188W        W36448  44.035  33.937   3.233
71189W        W36449  24.532  30.885  11.535
71190W        W36450  34.483   8.330  10.774
71191W        W36451   7.207  22.757   1.233
71192W        W36452  31.353  35.797  12.486
71193W        W36453   9.574  27.550   9.921
71194W        W36454  41.766  36.012  12.548
71195W        W36455  27.127  26.446   0.867
71196W        W36456  25.094   4.272  12.966
71197W        W36457  39.567  14.220  12.638
71198W        W36458  39.517  31.900   4.086
71199W        W36459   1.847  13.535  14.850
71200W        W36460  27.491  10.252   0.858
71201W        W36461  33.847  12.801   3.390
71202W        W36462  38.178  35.377  11.179
71203W        W36463   7.566  35.201  11.936
71204W        W36464  38.722  10.902  12.408
71205W        W36465  13.117   6.667  14.475
71206W        W36466   0.730  33.982  13.170
71207W        W36467  36.424   8.813   3.585
71208W        W36468  19.694  37.386  13.862
71209W        W36469  27.031  12.382  13.066
71210W        W36470   3.615  19.283  14.972
71211W        W36471  13.279  32.849   1.290
71212W        W36472  43.905   2.589  13.048
71213W        W36473   3.673  16.246   1.436
71214W        W36474  41.583  37.924  12.509
71215W        W36475  36.979  28.143  13.120
71216W        W36476  43.927  25.241   0.695
71217W        W36477  33.530  23.298  12.488
71218W        W36478   3.273  21.204   1.348
71219W        W36479  16.287   4.855  11.156
71220W        W36480  34.995  15.900   4.121
71221W        W36481  25.202  18.226  13.910
71222W        W36482  39.674   4.549  13.597
71223W        W36483  43.594  19.602  12.521
71224W        W36484  12.686  18.756   4.164
71225W        W36485   5.751  35.114  12.915
71226W        W36486   8.286   7.358  14.094
71227W        W36487  17.128  10.765   3.673
71228W        W36488  30.258  18.518   0.438
71229W        W36489  26.207  30.042  11.010
71230W        W36490  40.566  33.341  12.926
71231W        W36491  36.332  44.470   1.328
71232W        W36492  24.012  12.731   0.331
71233W        W36493   4.003  36.181   1.210
71234W        W36494  31.152  14.719   3.227
71235W        W36495  15.419   1.366   1.369
71236W        W36496  43.489  29.540   2.740
71237W        W36497  31.579  16.575  12.008
71238W        W36498  34.831   8.621   1.948
71239W        W36499  24.634  25.523   3.706
71240W        W36500  13.428  15.826  12.472
71241W        W36501  44.998  41.520  12.926
71242W        W36502   0.053  17.157   3.618
71243W        W36503  40.642   8.681   5.374
71244W        W36504  25.761  11.776   0.168
71245W        W36505  28.038   0.871  10.719
71246W        W36506  17.870  44.469  13.128
71247W        W36507  39.149  39.101  14.870
71248W        W36508  25.931   1.759   4.119
71249W        W36509  41.413  43.435  13.438
71250W        W36510  29.027  34.895  11.456
71251W        W36511  14.675   0.246  11.796
71252W        W36512   7.204  16.192   4.395
71253W        W36513  25.957  10.517  13.397
71254W        W36514  34.299  27.475  11.174
71255W        W36515  42.852  13.313   4.376
71256W        W36516  39.068  32.879  11.039
71257W        W36517  18.910  30.338   0.009
71258W        W36518  42.234  35.004  14.449
71259W        W36519   8.624  40.888   3.373
71260W        W36520  10.836  10.138   4.031
71261W        W36521  41.160  12.702  12.461
71262W        W36522  29.647   4.879   3.667
71263W        W36523  30.589  10.869  11.114
71264W        W36524  16.728   9.395   2.675
71265W        W36525  42.299  20.244  11.738
71266W        W36526  16.653  28.553   2.615
71267W        W36527   7.699  15.730   0.765
71268W        W36528  11.904  36.366   0.683
71269W        W36529   7.511   5.216   4.259
71270W        W36530  23.086  21.250  14.234
71271W        W36531  20.104  18.605   4.659
71272W        W36532   2.767  22.181   0.888
71273W        W36533  15.693  32.727   0.071
71274W        W36534  43.057  30.447   2.952
71275W        W36535  42.015  22.045   0.164
71276W        W36536  17.058  28.008   0.605
71277W        W36537   5.873   8.299   1.423
71278W        W36538   6.821  11.340  12.869
71279W        W36539   1.101  24.294   4.558
71280W        W36540  18.863  15.308   2.139
71281W        W36541  37.563  12.730   1.376
71282W        W36542  40.206  25.103  13.893
71283W        W36543  11.136  10.219   4.454
71284W        W36544  22.522  33.819  12.090
71285W        W36545  39.353  10.211   0.292
71286W        W36546   6.326   5.531  14.938
71287W        W36547   3.721  35.728   1.317
71288W        W36548  22.677  24.019   1.344
71289W        W36549   9.110   9.154   2.451
71290W        W36550  43.639  38.420  12.213
71291W        W36551   4.889  35.153   2.697
71292W        W36552  36.822  30.892   1.888
71293W        W36553   6.178  14.725  11.845
71294W        W36554  27.679  28.668   4.138
71295W        W36555  26.507  13.628  14.575
71296W        W36556  12.776   1.127   3.326
71297W        W36557  42.244  14.388  11.224
71298W        W36558   5.711  10.722   3.751
71299W        W36559  19.578  37.883  14.709
71300W        W36560  19.300  38.847  10.524
71301W        W36561  44.256   0.740  12.920
71302W        W36562  20.522  12.218   4.061
71303W        W36563  18.002  37.264  14.857
71304W        W36564  10.767  15.102  11.902
71305W        W36565  38.937  18.471   9.937
71306W        W36566  20.643  39.555   4.170
71307W        W36567  15.491  29.160   3.682
71308W        W36568  12.831  29.518   1.375
71309W        W36569  24.628  12.596   3.099
71310W        W36570  22.137   2.466  11.340
71311W        W36571  18.418  16.180   2.382
71312W        W36572  23.092  24.472   3.659
71313W        W36573  40.794  12.336  12.498
71314W        W36574  24.682  24.883   4.545
71315W        W36575  31.197   4.828  12.482
71316W        W36576   3.948  42.980   2.930
71317W        W36577  42.927  29.086   2.460
71318W        W36578  44.092  41.542   3.733
71319W        W36579  17.519   8.235   0.968
71320W        W36580  13.821  34.569   3.341
71321W        W36581  34.202  10.759   2.845
71322W        W36582  25.908  12.787  12.515
71323W        W36583  38.987  30.594  13.023
71324W        W36584  18.605   3.850   3.642
71325W        W36585  14.110  20.696   1.153
71326W        W36586   9.083  28.719  12.046
71327W        W36587  29.621  36.487   2.698
71328W        W36588   2.725  10.210   1.464
71329W        W36589  24.653  31.712  14.722
71330W        W36590  43.433   0.483   9.657
71331W        W36591   6.943  38.657  12.067
71332W        W36592  16.253  36.360  10.664
71333W        W36593  34.531  24.174   1.670
71334W        W36594   8.533   3.222  13.385
71335W        W36595   6.551  30.366  10.086
71336W        W36596  12.400  34.873   3.833
71337W        W36597   4.502   6.166  13.372
71338W        W36598  20.734  35.977  10.656
71339W        W36599   8.152  13.274  12.109
71340W        W36600  23.183   3.201  11.118
71341W        W36601  27.021  19.712  14.386
71342W        W36602  15.213   6.929   9.491
71343W        W36603  17.546  16.211   3.502
71344W        W36604  36.582  36.603   3.756
71345W        W36605  37.982  40.106   4.102
71346W        W36606  28.596  33.801   4.607
71347W        W36607  41.416  28.969  14.766
71348W        W36608   8.307   6.810  10.674
71349W        W36609  13.845  42.895   2.637
71350W        W36610  42.559  15.672   4.165
71351W        W36611  15.557  10.762   4.582
71352W        W36612  41.015  23.652   2.132
71353W        W36613   0.001  21.631  11.783
71354W        W36614  34.294   9.432  10.666
71355W        W36615  36.350  44.034   2.288
71356W        W36616  24.522  29.141   2.665
71357W        W36617  19.191  33.337  13.808
71358W        W36618  20.037  16.098   4.190
71359W        W36619  18.202   5.246  14.020
71360W        W36620  29.469  17.149  14.304
71361W        W36621  11.225   2.284  11.265
71362W        W36622  14.706  40.961   0.453
71363W        W36623  19.685  32.639   0.367
71364W        W36624  29.200  37.090  11.095
71365W        W36625  29.189  18.756  12.045
71366W        W36626  40.552  16.064   5.374
71367W        W36627   4.400  15.250   0.326
71368W        W36628  30.896  43.447   2.605
71369W        W36629   3.339  12.418  11.500
71370W        W36630   6.413  24.847  11.069
71371W        W36631  38.609   0.260  14.904
71372W        W36632  42.017  18.272  12.594
71373W        W36633  42.700  44.089   0.465
71374W        W36634   7.798  19.280  14.091
71375W        W36635   0.968   6.462   2.282
71376W        W36636   9.799  36.525  10.683
71377W        W36637   8.283  17.458   0.943
71378W        W36638  17.522  13.809   1.890
71379W        W36639  30.703  31.893  12.617
71380W        W36640  30.011  12.210   4.655
71381W        W36641   2.377  10.462  12.035
71382W        W36642  20.348  20.835   4.545
71383W        W36643  17.186   9.773  14.395
71384W        W36644  31.322   1.269   1.823
71385W        W36645  37.024   5.022   1.777
71386W        W36646  13.619   5.019  12.391
71387W        W36647   2.946   3.227   1.292
71388W        W36648   5.427   5.963   2.847
71389W        W36649  38.578  34.395   0.661
71390W        W36650  44.511  13.880   5.040
71391W        W36651  44.266   8.609  13.397
71392W        W36652  24.765   7.512   9.731
71393W        W36653  30.595  21.286   0.255
71394W        W36654  21.210  39.349  12.979
71395W        W36655   1.231  42.906  13.823
71396W        W36656   5.101  15.196  14.845
71397W        W36657  21.074  13.019  11.606
71398W        W36658  11.737  19.735   4.551
71399W        W36659  16.131  25.620   0.747
71400W        W36660  40.616   9.183   1.177
71401W        W36661  11.343  40.406  13.340
71402W        W36662  40.586  34.394   2.113
71403W        W36663  27.485  18.611   1.719
71404W        W36664  31.909  37.748   4.571
71405W        W36665  15.258  12.626   3.155
71406W        W36666  38.490  15.197   2.766
71407W        W36667  36.018   4.254   1.461
71408W        W36668  25.945  34.021   4.213
71409W        W36669  41.904  28.395  12.777
71410W        W36670  30.493  41.506  11.570
71411W        W36671   8.894  33.201  13.260
71412W        W36672   0.017   5.250   1.420
71413W        W36673   3.306   3.282   0.035
71414W        W36674  30.909   1.654   1.824
71415W        W36675  13.175  26.160  11.444
71416W        W36676  28.037  28.399  11.065
71417W        W36677  41.567   8.265   2.345
71418W        W36678  44.482   5.865   0.820
71419W        W36679  13.305  41.047  14.033
71420W        W36680  22.518  35.871   0.532
71421W        W36681  38.531   9.210  12.085
71422W        W36682   8.769   6.684  11.941
71423W        W36683  43.780  23.972   2.285
71424W        W36684  22.175  34.524   4.612
71425W        W36685   0.295   3.727   5.018
71426W        W36686  27.707  39.042   3.585
71427W        W36687  20.617  32.361   4.417
71428W        W36688  16.998  20.736   2.219
71429W        W36689  19.743  10.381   4.589
71430W        W36690  33.485  31.410  13.196
71431W        W36691  43.351  29.803   1.356
71432W        W36692   3.757  24.645  10.764
71433W        W36693   3.458  20.105   1.824
71434W        W36694   5.164  22.073  14.352
71435W        W36695  21.013   1.030  11.921
71436W        W36696  28.572   5.922  13.409
71437W        W36697  30.984  30.936  13.028
71438W        W36698   8.382   5.843  10.660
71439W        W36699  13.791   2.916  14.764
71440W        W36700  36.905  31.327  10.553
71441W        W36701  42.455  27.002   4.249
71442W        W36702  44.046  29.401   4.118
71443W        W36703  40.979   7.411   2.125
71444W        W36704  29.876  26.184  10.221
71445W        W36705  26.234   7.560   3.167
71446W        W36706  11.592   6.004   2.711
71447W        W36707   4.323  21.081   4.898
71448W        W36708  10.414  32.636   4.039
71449W        W36709  24.226  32.974   1.944
71450W        W36710  44.338  35.591  13.015
71451W        W36711  43.757   4.834  14.737
71452W        W36712  22.414  15.710  12.145
71453W        W36713  29.212   5.678  12.495
71454W        W36714  23.142  37.013   2.227
71455W        W36715  20.014  37.878   0.011
71456W        W36716   0.734  17.100  10.658
71457W        W36717  11.618  30.402  12.026
71458W        W36718   4.222   8.921   1.443
71459W        W36719  39.787  42.352   1.323
71460W        W36720  44.330   9.711   2.226
71461W        W36721  33.535  28.510   1.322
71462W        W36722  19.096  38.642  13.987
71463W        W36723  26.319  22.665   3.283
71464W        W36724  43.377  22.304  10.788
71465W        W36725  12.773  29.789   4.083
71466W        W36726   9.800  27.069  11.265
71467W        W36727  20.482  33.686   3.678
71468W        W36728  41.668  44.312   5.068
71469W        W36729  24.426  21.115   2.424
71470W        W36730  10.589  44.949  12.913
71471W        W36731   0.556   0.737  11.173
71472W        W36732  20.312  19.224   2.750
71473W        W36733   9.710   7.644   9.661
71474W        W36734   5.711  44.253   2.440
71475W        W36735  30.317  43.808   3.624
71476W        W36736   4.710  22.031  13.330
71477W        W36737  26.013  27.471   2.679
71478W        W36738  24.995  16.714  14.607
71479W        W36739  24.432  27.706  12.882
71480W        W36740  25.438  22.621  12.478
71481W        W36741   4.354  38.766   3.660
71482W        W36742  35.440  11.491   0.488
71483W        W36743  32.724  24.121   1.327
71484W        W36744  21.809  28.424   3.197
71485W        W36745  35.409  15.663   1.828
71486W        W36746  42.112  40.455  11.181
71487W        W36747  17.306  17.521  12.564
71488W        W36748   8.518  41.004   2.753
71489W        W36749  39.494  10.386  11.262
71490W        W36750  10.656  31.806   2.350
71491W        W36751  15.043  25.469   4.587
71492W        W36752   1.499  27.064  12.152
71493W        W36753  43.425  15.009   1.324
71494W        W36754  30.990   1.921  12.412
71495W        W36755  17.766   3.556  13.578
71496W        W36756  26.682  43.043   4.174
71497W        W36757  28.929  24.325  13.921
71498W        W36758  19.111   5.956  12.349
71499W        W36759  11.952   2.215  14.947
71500W        W36760  28.108  13.128  13.272
71501W        W36761  20.026  17.042   1.822
71502W        W36762  17.534   4.776  10.295
71503W        W36763  40.375  40.071  10.978
71504W        W36764  25.068   6.154   0.800
71505W        W36765  27.173  24.932  14.778
71506W        W36766   8.460  22.177   1.033
71507W        W36767  44.994   8.676  11.502
71508W        W36768  37.114  10.805   0.788
71509W        W36769   2.684   4.903  13.447
71510W        W36770   2.134  34.252  11.490
71511W        W36771  25.545  21.298   3.270
71512W        W36772  11.494  13.174   2.139
71513W        W36773  39.821  18.067  11.469
71514W        W36774  20.111   1.819  11.553
71515W        W36775  34.399  27.920   0.842
71516W        W36776  35.954  37.629  10.616
71517W        W36777   8.779  21.701   1.848
71518W        W36778   1.939  11.782  10.497
71519W        W36779  31.897  25.730  14.355
71520W        W36780  37.577  20.290  12.362
71521W        W36781  42.073  32.238   2.770
71522W        W36782   0.306  37.940  10.845
71523W        W36783  12.269  41.499   4.199
71524W        W36784   2.733  35.104   0.053
71525W        W36785  44.877  31.109  12.963
71526W        W36786  13.889   6.347  13.058
71527W        W36787  11.699  22.267  12.478
71528W        W36788  36.827  37.058  14.753
71529W        W36789  16.654  19.357  12.441
71530W        W36790  19.208  18.658  12.347
71531W        W36791  30.475  10.140   4.223
71532W        W36792   8.769  23.650   3.724
71533W        W36793  22.980  34.052  14.242
71534W        W36794  15.909  16.276  13.283
71535W        W36795  30.076   4.685   2.739
71536W        W36796   7.644   0.384   4.403
71537W        W36797  37.617  33.583   4.034
71538W        W36798   4.721  12.326  13.729
71539W        W36799  37.371   4.008  13.226
71540W        W36800  28.481  29.010  12.001
71541W        W36801  35.155  16.314  10.961
71542W        W36802   5.783  14.959   0.789
71543W        W36803  32.080  20.275  10.714
71544W        W36804  23.666   4.735   2.759
71545W        W36805  28.363  36.783  13.070
71546W        W36806   1.740   9.647  12.946
71547W        W36807   0.996  29.727   1.725
71548W        W36808  27.184   6.887  12.888
71549W        W36809  13.103  18.539  14.965
71550W        W36810  36.552  32.029   0.197
71551W        W36811  29.096  10.824  10.822
71552W        W36812  33.048  42.224   4.657
71553W        W36813  25.992  22.539   1.174
71554W        W36814  39.542   5.973   0.537
71555W        W36815   2.678  36.523  11.570
71556W        W36816  24.515  12.871  12.380
71557W        W36817  17.572  44.562   4.636
71558W        W36818  13.240  32.179  14.058
71559W        W36819  10.824  26.186   2.565
71560W        W36820  14.198  44.421  11.435
71561W        W36821   1.337  43.486   3.679
71562W        W36822  16.219  29.122   2.686
71563W        W36823  11.739  14.688  12.932
71564W        W36824  38.003  20.312  12.634
71565W        W36825  27.753  23.095  10.672
71566W        W36826  12.904  19.698   4.092
71567W        W36827  22.485  31.800   0.324
71568W        W36828  28.090   3.021  10.907
71569W        W36829   9.174  16.594   1.409
71570W        W36830   9.636  24.364  10.778
71571W        W36831  42.731  12.361   3.027
71572W        W36832   7.155  40.939   2.656
71573W        W36833  43.229  31.009  10.862
71574W        W36834  28.077   7.841   1.307
71575W        W36835   8.771  26.385   2.299
71576W        W36836  26.564  42.005  13.362
71577W        W36837  21.770  11.061   0.078
71578W        W36838  41.991  21.007   3.876
71579W        W36839   5.695  13.303  12.542
71580W        W36840  15.104  27.118  11.210
71581W        W36841  21.525  39.976   2.743
71582W        W36842  11.317  24.967  11.151
71583W        W36843  22.465  17.223  12.331
71584W        W36844  16.583  34.399   1.335
71585W        W36845  28.477  39.551  13.392
71586W        W36846   3.981  37.956  11.722
71587W        W36847  41.924  15.956   0.813
71588W        W36848  29.396  31.631  12.567
71589W        W36849  13.442  23.819   0.656
71590W        W36850  43.496  35.989   2.812
71591W        W36851  18.274  42.889  10.471
71592W        W36852  17.156   3.929  12.966
71593W        W36853  16.186  42.347   0.025
71594W        W36854   7.613  28.603  11.941
71595W        W36855  37.886   7.911   3.190
71596W        W36856   4.409  13.245  10.845
71597W        W36857  35.545  34.876   0.843
71598W        W36858  33.430  22.514  11.238
71599W        W36859   7.711   6.206   4.490
71600W        W36860  39.612  22.325   3.712
71601W        W36861   2.986  17.240  11.607
71602W        W36862  36.856  12.924   4.575
71603W        W36863  27.235   3.205   2.241
71604W        W36864  33.572  28.376   0.042
71605W        W36865  19.058  31.036  10.697
71606W        W36866   9.190  21.307  14.846
71607W        W36867   4.363   4.247   2.287
71608W        W36868  36.940   4.269   1.237
71609W        W36869  15.659  10.870   0.329
71610W        W36870  37.210  23.270  10.764
71611W        W36871  43.239  16.084  14.978
71612W        W36872  29.425  29.707   3.108
71613W        W36873  31.304   8.925   1.403
71614W        W36874  38.816   7.039  12.576
71615W        W36875  11.310  18.064  12.479
71616W        W36876  19.216  41.331  11.647
71617W        W36877  18.951  17.791  14.898
71618W        W36878  17.945  10.660  14.040
71619W        W36879  30.578  34.045   0.175
71620W        W36880  18.548  44.191   1.330
71621W        W36881   4.217   9.434  11.903
71622W        W36882  40.280  17.106   3.876
71623W        W36883  22.236  15.738  13.810
71624W        W36884  36.069  27.062   4.979
71625W        W36885  42.507  13.166   0.538
71626W        W36886  10.624  30.949  14.835
71627W        W36887  40.581  34.563  14.897
71628W        W36888  17.546  17.988  12.605
71629W        W36889  17.623   9.279   0.697
71630W        W36890   4.241   5.146  13.509
71631W        W36891   1.549  17.585   1.755
71632W        W36892  41.032  36.405  11.217
71633W        W36893  17.013   0.877   3.351
71634W        W36894  17.493   9.560  13.316
71635W        W36895  41.514  41.494   2.060
71636W        W36896  21.500  18.797   4.304
71637W        W36897  11.269  20.599   2.116
71638W        W36898  26.790   7.174  14.491
71639W        W36899  15.217  18.983   3.331
71640W        W36900  26.905  23.535  11.034
71641W        W36901   5.058  31.609  10.153
71642W        W36902  40.618   7.394  12.958
71643W        W36903  34.859   9.097  12.350
71644W        W36904  16.118  42.121   2.277
71645W        W36905  14.563  21.969  13.826
71646W        W36906  44.694  14.547  12.160
71647W        W36907  33.970  32.898   4.078
71648W        W36908  28.681  39.002   1.149
71649W        W36909  34.636  24.104   4.255
71650W        W36910  28.624  34.515  10.598
71651W        W36911  44.018  39.961  13.278
71652W        W36912  38.634   3.850  11.082
71653W        W36913  22.223  34.025   1.914
71654W        W36914  35.683   9.294  10.604
71655W        W36915  43.755  31.406   2.655
71656W        W36916  31.084  12.216  14.842
71657W        W36917  18.375  23.123  11.540
71658W        W36918   0.108  11.231  14.408
71659W        W36919   1.882  21.756  11.125
71660W        W36920  42.483  43.591  11.969
71661W        W36921  24.173  19.052   0.956
71662W        W36922  17.568  11.102   4.286
71663W        W36923  16.140  24.020  11.229
71664W        W36924  40.306  44.854   0.666
71665W        W36925  15.326  17.617  12.635
71666W        W36926   2.256  37.376  13.008
71667W        W36927  31.168  26.634  14.839
71668W        W36928  34.337  31.834  14.593
71669W        W36929   3.837  44.437  13.930
71670W        W36930  30.081  42.873  10.727
71671W        W36931  19.217  29.282   3.020
71672W        W36932  18.036  44.158  10.506
71673W        W36933   5.790  33.059   1.297
71674W        W36934  23.259   2.849  11.542
71675W        W36935   5.282  41.345  11.191
71676W        W36936   6.382  23.907   4.833
71677W        W36937  23.885  37.138   4.155
71678W        W36938  40.049   1.649  13.895
71679W        W36939  15.857   7.253  14.219
71680W        W36940   5.646  44.712   1.494
71681W        W36941  44.744  31.700  11.024
71682W        W36942  14.298  29.149  11.643
71683W        W36943  29.016  10.062   3.397
71684W        W36944  10.616   1.825   2.788
71685W        W36945   9.982  36.423   1.589
71686W        W36946  44.390  15.045   3.346
71687W        W36947  22.569  28.712  14.496
71688W        W36948  39.338  44.454  14.059
71689W        W36949  18.189   2.312  14.017
71690W        W36950   4.311  24.241   2.328
71691W        W36951  16.120  36.153  11.138
71692W        W36952  23.144   2.825  10.026
71693W        W36953  36.291  23.801  11.704
71694W        W36954  26.529  43.843   4.684
71695W        W36955   6.145  30.048   1.007
71696W        W36956  40.625  33.122   3.100
71697W        W36957  14.687   7.363  11.656
71698W        W36958  44.314  17.650  11.078
71699W        W36959   6.120   7.741  14.053
71700W        W36960  35.368   8.118   0.509
71701W        W36961  11.158  33.601   4.092
71702W        W36962  19.318  38.300   1.331
71703W        W36963  32.151   7.300   2.227
71704W        W36964   1.480  18.183  14.796
71705W        W36965  34.992  20.018  12.971
71706W        W36966  42.187  17.474  11.212
71707W        W36967   3.307  22.564  13.281
71708W        W36968  19.507  24.798  12.952
71709W        W36969  22.017  15.642   2.872
71710W        W36970  16.776   3.678   4.713
71711W        W36971  31.169  25.900  12.519
71712W        W36972  23.243  32.686   1.199
71713W        W36973   1.450   2.758  13.485
71714W        W36974  11.660   7.722   1.699
71715W        W36975  14.355  34.951  13.319
71716W        W36976  18.318  22.627  11.499
71717W        W36977  33.501   2.194  13.506
71718W        W36978  38.445  23.238  14.869
71719W        W36979  41.774   3.546   0.447
71720W        W36980  25.061  20.176  12.635
71721W        W36981   2.466   5.441  11.371
71722W        W36982  26.524   6.818  14.837
71723W        W36983   8.817  23.821   2.333
71724W        W36984   9.620  29.173   5.096
71725W        W36985   0.540  20.276   0.369
71726W        W36986  15.163   7.118  11.670
71727W        W36987  32.048  18.956   1.897
71728W        W36988  33.040  21.808  11.498
71729W        W36989  19.263  18.686   3.213
71730W        W36990  38.039  28.690  11.980
71731W        W36991  16.509  34.071  13.120
71732W        W36992  28.892  10.538   4.134
71733W        W36993  20.491  38.785  14.107
71734W        W36994   2.431  13.610   3.943
71735W        W36995  26.229  14.786   4.919
71736W        W36996  17.850  30.903  13.433
71737W        W36997  14.037   6.509  13.916
71738W        W36998  30.143  22.968  12.791
71739W        W36999   3.176  39.517  13.487
71740W        W37000  25.779  41.371  13.796
71741W        W37001  44.328  38.992  14.396
71742W        W37002   5.611  30.996  10.449
71743W        W37003  12.725  24.168  14.360
71744W        W37004  15.245  13.539   0.588
71745W        W37005  36.417  33.694   1.777
71746W        W37006  25.207   4.691   1.169
71747W        W37007  34.034  30.250   0.441
71748W        W37008   5.174  32.837   2.556
71749W        W37009  16.232   5.905  13.063
71750W        W37010  39.273   4.877  13.407
71751W        W37011  34.433  18.504   0.848
71752W        W37012  44.316  42.793  13.058
71753W        W37013  35.131  37.580   4.866
71754W        W37014  28.090  34.440  10.637
71755W        W37015   5.604  29.053  10.324
71756W        W37016  33.185  12.397  11.559
71757W        W37017  36.088  13.322   0.763
71758W        W37018  38.228   9.212   4.481
71759W        W37019  28.575   9.274   3.942
71760W        W37020  30.612  27.124  12.567
71761W        W37021  22.703   6.879   0.703
71762W        W37022   0.764  20.457  14.829
71763W        W37023  10.667  25.807  12.491
71764W        W37024  37.294  14.567  12.811
71765W        W37025   1.461  18.230  11.519
71766W        W37026   9.298  33.814  12.367
71767W        W37027  39.747  15.508  11.604
71768W        W37028  25.548  26.487   0.673
71769W        W37029   0.312  36.605  13.112
71770W        W37030  18.286  10.069   0.373
71771W        W37031  41.861  24.949  12.943
71772W        W37032   1.935  25.746   3.655
71773W        W37033  16.495  13.508  13.995
71774W        W37034  36.540  34.927  11.985
71775W        W37035  29.535  42.011  11.742
71776W        W37036  15.332  43.954   2.642
71777W        W37037  20.555  10.595  11.094
71778W        W37038   0.287  27.631  14.432
71779W        W37039  28.522  28.730   1.682
71780W        W37040   2.212  40.562   5.087
71781W        W37041  11.748  24.253   1.193
71782W        W37042   0.462  33.135   0.737
71783W        W37043  34.182   3.874  11.786
71784W        W37044  36.904  10.834   1.924
71785W        W37045   7.372  29.233  14.290
71786W        W37046  43.513  17.021   3.685
71787W        W37047  40.515  20.302   1.816
71788W        W37048  35.953   1.061   0.834
71789W        W37049  15.834  15.169   4.101
71790W        W37050  41.763   8.735   3.260
71791W        W37051  14.820  12.661   3.650
71792W        W37052  27.088   0.729   2.248
71793W        W37053  34.931  29.647  14.655
71794W        W37054  19.557  26.611  10.359
71795W        W37055  15.199  44.417   2.893
71796W        W37056  25.208   8.393  13.940
71797W        W37057  17.142  25.519   1.657
71798W        W37058  14.977   0.008   2.741
71799W        W37059  14.639  39.194  14.876
71800W        W37060  30.669   1.402   4.675
71801W        W37061  10.829   8.844   0.317
71802W        W37062  39.795  44.273  14.240
71803W        W37063  17.638  10.567   1.332
71804W        W37064  42.343   6.812   4.031
71805W        W37065  27.390   1.397   1.794
71806W        W37066  44.426  28.398  11.635
71807W        W37067   5.968  35.029  13.810
71808W        W37068  14.690   4.399  11.640
71809W        W37069  28.731  38.388  11.415
71810W        W37070  27.176  11.541  13.394
71811W        W37071   6.667   3.346   2.306
71812W        W37072  44.346  36.331  13.463
71813W        W37073  24.678  12.693  13.161
71814W        W37074  19.993  26.074  13.400
71815W        W37075  34.595  32.819   2.368
71816W        W37076  37.174  10.093  11.910
71817W        W37077  29.100  36.028  12.518
71818W        W37078  38.008  35.719   0.468
71819W        W37079  15.767  23.997  11.601
71820W        W37080   7.974  19.490   0.864
71821W        W37081   5.868  31.274   4.131
71822W        W37082  37.916   2.210   2.271
71823W        W37083  27.285  35.300  12.013
71824W        W37084  15.324   7.978  12.327
71825W        W37085  31.124   9.325  14.999
71826W        W37086   7.843  15.322  13.829
71827W        W37087   2.746  29.480   9.448
71828W        W37088  19.081  15.223  10.723
71829W        W37089  28.216  36.230  12.661
71830W        W37090   0.961  17.240   4.126
71831W        W37091  14.681  13.525  11.239
71832W        W37092  29.134  36.888  14.598
71833W        W37093   8.103  26.186  12.661
71834W        W37094   6.362   3.809   2.612
71835W        W37095  10.178  26.038   0.961
71836W        W37096  26.746  30.688   5.122
71837W        W37097  35.150  18.809  11.407
71838W        W37098  29.591  26.492   3.194
71839W        W37099  13.304  20.442   0.904
71840W        W37100  12.806  33.956   1.837
71841W        W37101  14.952  15.981   0.921
71842W        W37102  38.041  16.806   1.740
71843W        W37103  18.728   4.372  14.058
71844W        W37104   5.186  36.631   0.862
71845W        W37105   9.681  26.538   2.871
71846W        W37106  30.404   6.964  12.611
71847W        W37107  43.465  25.745   2.721
71848W        W37108  10.190   7.742   1.560
71849W        W37109  32.928  42.516   0.276
71850W        W37110  43.343  15.271   3.257
71851W        W37111  19.867  18.676  12.850
71852W        W37112  12.916  43.864   4.253
71853W        W37113  39.390  29.490  14.569
71854W        W37114  43.497   3.287  10.636
71855W        W37115   8.798  29.975  12.777
71856W        W37116  25.132  40.386   1.772
71857W        W37117  17.687  32.640  14.514
71858W        W37118  44.208  14.173  11.516
71859W        W37119  43.418  12.696  12.190
71860W        W37120  38.938  36.758  12.847
71861W        W37121  11.185  29.486   2.898
71862W        W37122  14.656  29.908  13.312
71863W        W37123  26.112   7.465   4.117
71864W        W37124   2.366  29.947  11.718
71865W        W37125  37.195   1.910  13.966
71866W        W37126   8.384  34.448   4.286
71867W        W37127  20.786  28.965   0.071
71868W        W37128   5.217  24.748  11.561
71869W        W37129  42.931  34.697   4.971
71870W        W37130   0.948  33.678  11.985
71871W        W37131  40.334  13.560  11.597
71872W        W37132  25.631  35.811   3.250
71873W        W37133  31.413  15.285  14.538
71874W        W37134  20.931  26.024   0.376
71875W        W37135  41.062  11.873   4.091
71876W        W37136   8.358   1.150  12.667
71877W        W37137  33.956  31.918  11.123
71878W        W37138  32.938   2.209  11.460
71879W        W37139  27.041  36.961   4.097
71880W        W37140  20.989   6.349   0.186
71881W        W37141  27.008  20.009   0.808
71882W        W37142  41.948  20.238  12.424
71883W        W37143   6.896   1.474   3.744
71884W        W37144   2.748  21.560   2.891
71885W        W37145  35.491  13.135  14.829
71886W        W37146  23.038  12.657   1.701
71887W        W37147  30.239  32.888  11.187
71888W        W37148   9.983  10.454  14.944
71889W        W37149  38.877   8.638   3.645
71890W        W37150  20.891  17.448   2.825
71891W        W37151  11.658  25.515  12.606
71892W        W37152   2.429  34.659   1.863
71893W        W37153  33.995  16.463  11.164
71894W        W37154  38.044  30.770   3.952
71895W        W37155   9.969  20.269   2.434
71896W        W37156   7.778   2.705  14.857
71897W        W37157  28.529   3.385   1.992
71898W        W37158  18.799  14.504  11.109
71899W        W37159  16.534  10.757  14.780
71900W        W37160  25.143  42.882   2.830
71901W        W37161  15.006  44.883  14.458
71902W        W37162  36.330  29.540   1.264
71903W        W37163  20.059  24.110  13.157
71904W        W37164  22.275  26.331  14.265
71905W        W37165  13.393  29.200  12.908
71906W        W37166   0.381  33.920  12.180
71907W        W37167  18.637  14.117   1.295
71908W        W37168  19.528  44.223  11.977
71909W        W37169   3.756   8.599   0.265
71910W        W37170  44.035  27.082   1.753
71911W        W37171  25.842   6.452  12.221
71912W        W37172  33.816  15.191   2.318
71913W        W37173  36.994  25.418  11.563
71914W        W37174  28.268  28.170  13.830
71915W        W37175  25.914   9.412   3.179
71916W        W37176   4.499  27.458  11.187
71917W        W37177  13.693  37.021  13.065
71918W        W37178  44.665  28.119   3.989
71919W        W37179  26.393  34.407  14.999
71920W        W37180   1.684   6.749  12.687
71921W        W37181   8.953  43.955  13.359
71922W        W37182  31.593  33.396  11.146
71923W        W37183  26.504  15.892  12.253
71924W        W37184   2.329  11.223   3.248
71925W        W37185  21.245  44.532  10.991
71926W        W37186  41.580  28.145   0.517
71927W        W37187  18.355  34.563  11.517
71928W        W37188   6.900  36.563   2.445
71929W        W37189  21.270   7.644  12.936
71930W        W37190  27.388   3.326  12.508
71931W        W37191  25.942  42.701   0.659
71932W        W37192  26.655  30.647  14.248
71933W        W37193  31.428   3.618   2.264
71934W        W37194  21.396   5.963   4.280
71935W        W37195  15.211  14.699  12.096
71936W        W37196   4.221  33.134  10.823
71937W        W37197  26.052  23.111   3.202
71938W        W37198  25.563  14.941  10.738
71939W        W37199  29.350  18.429  11.154
71940W        W37200  33.980  32.386  10.907
71941W        W37201  40.131  42.530   0.953
71942W        W37202  43.833  11.572  12.429
71943W        W37203   6.755  35.559   4.465
71944W        W37204   3.453  30.194  12.439
71945W        W37205  27.525  16.722  11.854
71946W        W37206  24.030  39.275   1.886
71947W        W37207  37.410  37.081  12.686
71948W        W37208  22.479  43.814  11.543
71949W        W37209  22.686  42.870   3.166
71950W        W37210  31.074  25.246  14.588
71951W        W37211  19.772  18.772   0.968
71952W        W37212   9.437   4.186  10.671
71953W        W37213  34.997  35.435  13.135
71954W        W37214  17.284   9.329  10.701
71955W        W37215  12.132  22.204   3.727
71956W        W37216  31.603  33.760  14.581
71957W        W37217   0.728  43.499   4.092
71958W        W37218   6.737  33.733   2.297
71959W        W37219  30.971   4.098   2.680
71960W        W37220  38.506  43.383   3.747
71961W        W37221  44.455  11.094   0.006
71962W        W37222  13.691  33.381  11.147
71963W        W37223  34.566  27.758  12.489
71964W        W37224  35.018  10.768   4.100
71965W        W37225   8.631  44.744   3.180
71966W        W37226  33.865   9.737   2.801
71967W        W37227  39.706   0.927   2.665
71968W        W37228  37.646  37.573   2.384
71969W        W37229  12.128  24.224   2.319
71970W        W37230  21.343   7.783   0.317
71971W        W37231  27.230   6.868  11.544
71972W        W37232   3.266  14.702   4.354
71973W        W37233   9.868  40.496   1.023
71974W        W37234  20.614  20.123   0.262
71975W        W37235  21.446   4.106   2.732
71976W        W37236  39.313  25.226   3.824
71977W        W37237  33.190   7.891   4.787
71978W        W37238   3.981   7.304   0.935
71979W        W37239  17.210  27.454  11.998
71980W        W37240  24.565  31.569  13.310
71981W        W37241  21.815  38.096   0.818
71982W        W37242   7.209  36.853  13.004
71983W        W37243  14.657  18.045   1.434
71984W        W37244  37.970  31.654   2.337
71985W        W37245   0.739  42.067   0.840
71986W        W37246  12.717  37.321  13.753
71987W        W37247  14.730  20.111  13.579
71988W        W37248   9.866   7.338  14.797
71989W        W37249  27.448  14.060   0.804
71990W        W37250  37.185  18.838  12.465
71991W        W37251  22.674   3.743  12.771
71992W        W37252  44.869  40.476   4.853
71993W        W37253  39.264  35.900  10.777
71994W        W37254  40.001   9.278  13.427
71995W        W37255  11.039   5.349   9.863
71996W        W37256   9.754  28.869   1.831
71997W        W37257   7.933  23.106  13.312
71998W        W37258  36.031  30.410  14.001
71999W        W37259   4.428  10.970  11.475
72000W        W37260  30.477  38.654  12.036
72001W        W37261  16.758   6.402  13.812
72002W        W37262  14.686  16.296   1.247
72003W        W37263  28.292  27.260   2.773
72004W        W37264  21.492  43.291  11.138
72005W        W37265  36.937  42.628   4.820
72006W        W37266  25.142  13.942  12.597
72007W        W37267  35.695  35.141  11.869
72008W        W37268  43.665  26.970  12.168
72009W        W37269  25.147  32.086   4.168
72010W        W37270  44.032  17.340   3.687
72011W        W37271   7.340  19.742   0.727
72012W        W37272   6.901  20.033   1.235
72013W        W37273  14.513  32.998  12.486
72014W        W37274  21.125   4.889  13.337
72015W        W37275  33.480  27.727  11.156
72016W        W37276  28.117  21.914   1.711
72017W        W37277  25.225  42.380  14.277
72018W        W37278  39.090  33.791  13.025
72019W        W37279  18.822  23.228  13.407
72020W        W37280  10.133  36.383   2.105
72021W        W37281   3.722  13.907   3.756
72022W        W37282  25.132  20.276  10.782
72023W        W37283  36.193  37.122  10.528
72024W        W37284  33.838  27.678  12.115
72025W        W37285  23.084  39.442   1.884
72026W        W37286  26.513  16.370  12.452
72027W        W37287  26.673  18.906   3.927
72028W        W37288  20.546  18.010  14.442
72029W        W37289  43.193   4.465   4.340
72030W        W37290  37.645  33.157  11.026
72031W        W37291  16.787   8.247   2.184
72032W        W37292  32.843  12.317   2.203
72033W        W37293  25.474  25.157  11.889
72034W        W37294  39.109  19.787   3.171
72035W        W37295   9.870  44.678   2.770
72036W        W37296  16.166  15.268   2.733
72037W        W37297  22.624  11.605   5.010
72038W        W37298   1.828  24.505   2.915
72039W        W37299  12.653  34.849   1.474
72040W        W37300  22.258   8.521   4.320
72041W        W37301   4.696  34.023  11.620
72042W        W37302   7.733   9.874  12.863
72043W        W37303  35.434   3.947   2.663
72044W        W37304  38.071  37.623   2.097
72045W        W37305  30.039   9.458  10.993
72046W        W37306  16.884   8.737  13.423
72047W        W37307  20.708  26.633   2.655
72048W        W37308  15.159  34.868   3.762
72049W        W37309  19.600   7.935  10.286
72050W        W37310  31.854  24.285   5.095
72051W        W37311  39.033  33.262  12.913
72052W        W37312   5.788  15.067  12.010
72053W        W37313  36.279  30.626  14.912
72054W        W37314  35.789   7.309   1.696
72055W        W37315  28.926   8.853   1.406
72056W        W37316  31.979  29.516   4.317
72057W        W37317  41.535  10.793  13.527
72058W        W37318   6.934   7.224   1.877
72059W        W37319   7.261  33.845   2.295
72060W        W37320   1.298  30.732   3.371
72061W        W37321  17.655  34.876  13.434
72062W        W37322   5.847  37.966  11.685
72063W        W37323  42.431  15.994  13.407
72064W        W37324  42.250   7.726  13.857
72065W        W37325   0.285  39.067   9.823
72066W        W37326  41.747  38.548   3.813
72067W        W37327  10.195  44.860   1.002
72068W        W37328  29.173  27.722   2.646
72069W        W37329   2.045  40.783   0.080
72070W        W37330  24.566   7.661   2.337
72071W        W37331   2.764   0.629   0.871
72072W        W37332  18.186  12.835   1.210
72073W        W37333  17.588   7.591   2.543
72074W        W37334  27.216  26.906  12.968
72075W        W37335  41.637  21.226  12.917
72076W        W37336  13.894  15.819  11.255
72077W        W37337   0.777  19.994   2.349
72078W        W37338  44.779  42.853   3.681
72079W        W37339  21.070  38.050   0.337
72080W        W37340  12.601  19.566  12.785
72081W        W37341  38.556   5.775   0.423
72082W        W37342  24.680  26.958   4.769
72083W        W37343  15.563  43.606   0.458
72084W        W37344  39.281  44.317  14.551
72085W        W37345   9.328  10.311   1.536
72086W        W37346  19.546   7.856   2.105
72087W        W37347  22.825  32.902   1.411
72088W        W37348  36.333  27.909  11.888
72089W        W37349  38.401  39.886  14.636
72090W        W37350  27.176  36.883   5.165
72091W        W37351  44.881  39.752  13.773
72092W        W37352  17.208   6.278   2.959
72093W        W37353  29.938  21.737   1.783
72094W        W37354  20.598  37.868   2.140
72095W        W37355  11.710  42.521  12.957
72096W        W37356   9.856  19.628   0.805
72097W        W37357  44.001   9.791   3.765
72098W        W37358  10.027  16.115   3.579
72099W        W37359   7.942  30.130   4.357
72100W        W37360   5.698  28.370  12.603
72101W        W37361  39.486   8.126  12.936
72102W        W37362  43.446  31.415  13.969
72103W        W37363  11.669  40.029   2.722
72104W        W37364   6.796   8.813   1.857
72105W        W37365   6.161   0.898   3.738
72106W        W37366  19.159  40.821  11.668
72107W        W37367   6.756  17.706   2.869
72108W        W37368  44.810  39.589   4.663
72109W        W37369  21.068  32.474   1.144
72110W        W37370  16.222  40.436   4.391
72111W        W37371  22.924  12.261  12.130
72112W        W37372   7.708   1.523  11.587
72113W        W37373   1.963  14.571   1.738
72114W        W37374  31.364   6.418   0.089
72115W        W37375  14.815  26.816  14.398
72116W        W37376  13.337  10.963   2.268
72117W        W37377  14.329  21.272   2.447
72118W        W37378  10.113   8.941   0.999
72119W        W37379  35.392  33.953   0.738
72120W        W37380  40.403   4.431   1.359
72121W        W37381  11.239  37.970   2.773
72122W        W37382  36.778  41.170  11.105
72123W        W37383  30.986  37.127   3.821
72124W        W37384  43.790  28.172  14.936
72125W        W37385  22.501  13.143  13.952
72126W        W37386  12.512  21.860  11.673
72127W        W37387  26.372  40.356  11.648
72128W        W37388  39.023  29.616  13.802
72129W        W37389  40.927  29.578   4.583
72130W        W37390  34.792  13.526  10.682
72131W        W37391  15.847  26.481  13.396
72132W        W37392  13.181   2.789  13.889
72133W        W37393   3.322   7.965   3.855
72134W        W37394  43.391  25.109   2.146
72135W        W37395  18.715   9.851   3.434
72136W        W37396  13.287   5.661  10.992
72137W        W37397   1.343  29.700   4.138
72138W        W37398  13.572  15.878   1.789
72139W        W37399  37.581   6.249  11.615
72140W        W37400   2.746  38.324   2.883
72141W        W37401  37.184  10.122  11.026
72142W        W37402   7.442  42.941   4.250
72143W        W37403   4.296   5.274  12.054
72144W        W37404  41.832  27.041   3.000
72145W        W37405   3.288  35.403  13.888
72146W        W37406  16.423  32.975   0.433
72147W        W37407   8.182   3.348  12.927
72148W        W37408  13.166  37.843   2.885
72149W        W37409  33.046   8.644   4.115
72150W        W37410  28.977  22.048  14.056
72151W        W37411  44.978  32.888  12.865
72152W        W37412   4.915  37.274  10.732
72153W        W37413   8.917  10.647   2.399
72154W        W37414  35.964  40.636   2.863
72155W        W37415   7.391  31.623   3.712
72156W        W37416  35.034   1.018   9.803
72157W        W37417  31.664  11.363  11.044
72158W        W37418   3.927  23.034  12.121
72159W        W37419  17.685  16.605   1.719
72160W        W37420  30.380   4.233   4.818
72161W        W37421  41.366  30.217  13.749
72162W        W37422   2.398  32.664  14.519
72163W        W37423  11.298  20.603   1.281
72164W        W37424  21.685  18.343   4.164
72165W        W37425   4.315  28.949   4.485
72166W        W37426  43.281  15.299  14.519
72167W        W37427   3.343  19.966  12.952
72168W        W37428  20.604  29.456  14.993
72169W        W37429  27.953  16.312  14.311
72170W        W37430  22.764   3.739  14.241
72171W        W37431  34.824  17.164  12.783
72172W        W37432  17.637  29.352   1.702
72173W        W37433  13.540  34.551  14.568
72174W        W37434  31.676   3.051   4.783
72175W        W37435  42.444  18.540   0.509
72176W        W37436   1.832  27.564  14.317
72177W        W37437  19.646  35.692  14.296
72178W        W37438  38.073  36.291  11.529
72179W        W37439  32.963  14.242   1.894
72180W        W37440  28.971   9.144   4.708
72181W        W37441   3.242   0.535   0.676
72182W        W37442  10.852  11.601  12.737
72183W        W37443   2.627  27.446  13.802
72184W        W37444  44.414  32.686  13.283
72185W        W37445  21.143   4.554   2.047
72186W        W37446  30.587  10.804   3.624
72187W        W37447  15.123  30.886   2.884
72188W        W37448  35.027  12.170  10.652
72189W        W37449  17.244  43.376   1.229
72190W        W37450   6.948  16.304  11.576
72191W        W37451  16.871  23.258  11.191
72192W        W37452   2.209  23.670  11.159
72193W        W37453  43.327  26.187   4.904
72194W        W37454  24.472  10.237   3.206
72195W        W37455  41.316  34.056   4.078
72196W        W37456  41.354  10.805   3.728
72197W        W37457   3.562  20.146   3.221
72198W        W37458  33.903   8.829   1.825
72199W        W37459   9.079  12.751   0.917
72200W        W37460  33.731  34.982  12.002
72201W        W37461   1.507  23.488   4.604
72202W        W37462  38.504  25.160   0.787
72203W        W37463   1.470  40.035   2.751
72204W        W37464  16.818  28.590  13.745
72205W        W37465  34.487   3.147  13.957
72206W        W37466  33.082   8.746  14.277
72207W        W37467  37.530  12.127  13.053
72208W        W37468  12.108  43.365   1.007
72209W        W37469  29.209  29.736   3.636
72210W        W37470  37.830  33.659  12.682
72211W        W37471   0.820  21.266   3.647
72212W        W37472   4.132  12.248   4.653
72213W        W37473  18.302  11.873   1.629
72214W        W37474  14.838  44.812  13.966
72215W        W37475  17.319  20.262   0.505
72216W        W37476  43.132   8.431  12.577
72217W        W37477   4.304  12.907  11.530
72218W        W37478   2.323  16.633  11.559
72219W        W37479  41.640   8.143   1.288
72220W        W37480  41.440  33.550   1.103
72221W        W37481  26.365  22.564   4.974
72222W        W37482  30.058  15.306  14.213
72223W        W37483  23.966   6.901   1.733
72224W        W37484  20.265  15.076   4.124
72225W        W37485  40.990  30.204   3.201
72226W        W37486  16.263  29.501   3.243
72227W        W37487   7.938  35.024  13.691
72228W        W37488  40.787   3.412   3.227
72229W        W37489   0.665  24.092   1.453
72230W        W37490  11.105   7.223   0.517
72231W        W37491   9.563  25.694  14.406
72232W        W37492  44.924   0.855   2.962
72233W        W37493  15.686  38.551   4.618
72234W        W37494  37.318  12.455   3.332
72235W        W37495  16.770   0.167  13.399
72236W        W37496  43.847   3.857   0.902
72237W        W37497  27.938  16.365   4.742
72238W        W37498  15.527   8.169  12.905
72239W        W37499  16.773   6.080  14.839
72240W        W37500  10.382  10.272   1.734
72241W        W37501  28.733   8.259   0.899
72242W        W37502  14.152  16.270   3.386
72243W        W37503  35.821  31.448  13.063
72244W        W37504  10.896   4.979  10.298
72245W        W37505   8.770   1.205   2.645
72246W        W37506  27.596  11.389  13.663
72247W        W37507  36.992  44.847   4.182
72248W        W37508  14.885  22.544   3.298
72249W        W37509  38.430  11.684   1.425
72250W        W37510  24.175  18.487  13.471
72251W        W37511  29.367  17.386   9.761
72252W        W37512   9.862  15.315  11.037
72253W        W37513   2.144  42.738   2.695
72254W        W37514  22.105  34.990   0.731
72255W        W37515  19.672  34.895   3.165
72256W        W37516   8.509   2.910  12.143
72257W        W37517  31.705   3.391  11.273
72258W        W37518  22.165  31.611  14.346
72259W        W37519  36.368  22.538  11.623
72260W        W37520  27.531  25.512   1.709
72261W        W37521   5.524  25.600   4.550
72262W        W37522  14.898  34.510   4.866
72263W        W37523  25.685   8.525   0.827
72264W        W37524  26.086  21.562  13.545
72265W        W37525  32.791  11.011  13.107
72266W        W37526  30.588  31.603   2.210
72267W        W37527  16.138  24.641  14.562
72268W        W37528  25.585  12.695   0.769
72269W        W37529  25.676  44.387  10.067
72270W        W37530  15.286  10.403   2.689
72271W        W37531  33.110  14.760  13.524
72272W        W37532  12.219   3.631   2.731
72273W        W37533  36.569  19.771   4.043
72274W        W37534  10.350   6.647   3.190
72275W        W37535  23.399  40.464  12.002
72276W        W37536  32.942   9.812   0.350
72277W        W37537  18.968  33.449  12.448
72278W        W37538  15.269   5.656   3.658
72279W        W37539  27.973  34.074   0.411
72280W        W37540  15.445  31.951   4.612
72281W        W37541   7.816  24.955  11.433
72282W        W37542   3.569  40.410   1.303
72283W        W37543  35.053   2.269   1.503
72284W        W37544  14.191  34.535   4.602
72285W        W37545  22.080  18.200   2.768
72286W        W37546  10.644  15.154   3.316
72287W        W37547  15.704  42.924  14.678
72288W        W37548  40.735  29.647   2.767
72289W        W37549  37.801  43.806  12.071
72290W        W37550  35.489  19.244   4.746
72291W        W37551  17.303  18.999  13.375
72292W        W37552   2.864  31.002   2.690
72293W        W37553  18.326  40.994   0.321
72294W        W37554  16.247  41.601  14.055
72295W        W37555   5.648  23.337  12.595
72296W        W37556   2.235  22.394  10.769
72297W        W37557  24.497  28.414   2.102
72298W        W37558  44.549  17.729  11.513
72299W        W37559  41.323  19.572   4.300
72300W        W37560  12.803  36.506   0.258
72301W        W37561  38.915   3.522   2.845
72302W        W37562  35.111  39.544   3.734
72303W        W37563  30.099   6.260  11.063
72304W        W37564  22.326  13.707   2.846
72305W        W37565  39.874  25.143   4.521
72306W        W37566  41.483  11.348   3.744
72307W        W37567  25.875  36.526   5.585
72308W        W37568  21.324  12.584  12.433
72309W        W37569  20.832  32.077  10.022
72310W        W37570  25.815   5.808   5.060
72311W        W37571   1.271  25.058  12.819
72312W        W37572   8.900  26.653   1.869
72313W        W37573  29.068  20.515  14.097
72314W        W37574  39.874  31.844  11.388
72315W        W37575  30.702  42.053  12.411
72316W        W37576  44.688   6.678  12.433
72317W        W37577   6.710  32.910   3.875
72318W        W37578  14.293  39.993   4.568
72319W        W37579  40.732  21.114   4.433
72320W        W37580   7.635  25.987  10.667
72321W        W37581  12.752  32.035  10.704
72322W        W37582  37.990  27.557  14.051
72323W        W37583  15.303  34.661   3.317
72324W        W37584  41.335  41.011   1.923
72325W        W37585  23.047  37.892   0.003
72326W        W37586  20.432  32.526  14.224
72327W        W37587  39.568  24.508   3.044
72328W        W37588  43.883  43.560   4.561
72329W        W37589  44.249  36.483   3.770
72330W        W37590  22.967  29.432  14.338
72331W        W37591  32.630  35.434   1.277
72332W        W37592  24.617  26.713   2.858
72333W        W37593   3.853  16.592  11.150
72334W        W37594   1.002   4.817   2.729
72335W        W37595   7.875  29.228   2.916
72336W        W37596  11.770  25.488   3.981
72337W        W37597  13.474  22.344  12.600
72338W        W37598  27.736  28.523  11.485
72339W        W37599  40.778   6.438   4.843
72340W        W37600  27.493  10.231  11.462
72341W        W37601  34.418   5.034  14.232
72342W        W37602  36.061  19.770   3.177
72343W        W37603   4.894  34.473  14.485
72344W        W37604  33.858  35.482  12.064
72345W        W37605  30.937  17.696  11.582
72346W        W37606   8.641   5.236   2.422
72347W        W37607  11.349   6.405   2.989
72348W        W37608  12.982  18.254   2.404
72349W        W37609  29.284  33.662   4.378
72350W        W37610   7.811   5.334  13.414
72351W        W37611  35.538  14.845   3.371
72352W        W37612  44.972  28.703   0.780
72353W        W37613   7.858  37.387   3.578
72354W        W37614   7.281   8.754   4.381
72355W        W37615  16.210  10.277   5.082
72356W        W37616  17.765  35.131  13.004
72357W        W37617  18.491  24.278   4.426
72358W        W37618  31.957  20.082   4.588
72359W        W37619  20.435  39.845   0.415
72360W        W37620  28.253   4.333  13.801
72361W        W37621  25.604  11.084   1.785
72362W        W37622  20.491   0.257   4.804
72363W        W37623  35.536  20.037  11.581
72364W        W37624  26.147  15.487   2.781
72365W        W37625  26.229   9.847   0.851
72366W        W37626  10.610  36.585   3.746
72367W        W37627  34.345  22.503  11.113
72368W        W37628  15.713  38.056  12.865
72369W        W37629  33.057   1.999   4.374
72370W        W37630   1.351  23.053  14.700
72371W        W37631   1.241  15.621   0.446
72372W        W37632   1.877  42.399   2.984
72373W        W37633  30.513  18.077  13.935
72374W        W37634  12.977  31.509   4.029
72375W        W37635   0.009  33.693   1.239
72376W        W37636  10.100  26.011   0.025
72377W        W37637  26.143  21.218   0.417
72378W        W37638  20.171  26.662   4.489
72379W        W37639  11.761  40.859   3.906
72380W        W37640  23.157  41.781   3.754
72381W        W37641   6.472  20.487   3.316
72382W        W37642  24.497  33.894  12.379
72383W        W37643  27.186  24.682  12.392
72384W        W37644  27.879  36.902  12.021
72385W        W37645   1.048  35.892   0.340
72386W        W37646  38.457  38.544  11.473
72387W        W37647  15.828  34.385   4.865
72388W        W37648  16.107  30.955   1.386
72389W        W37649  10.450  32.122  14.416
72390W        W37650   5.606   7.113   0.005
72391W        W37651  39.692  29.911   1.268
72392W        W37652  24.811   6.516   0.119
72393W        W37653   6.030  43.001   5.019
72394W        W37654  31.618  25.762  13.421
72395W        W37655  16.838  35.093   3.213
72396W        W37656  36.399   9.912   2.197
72397W        W37657   3.332  37.382   1.303
72398W        W37658  21.043  24.476   2.742
72399W        W37659   6.628  36.641   0.356
72400W        W37660  37.301  13.376  14.346
72401W        W37661  14.798  26.938   4.363
72402W        W37662  32.579  13.224  11.558
72403W        W37663  15.079  16.832  11.190
72404W        W37664  30.557  14.268   0.739
72405W        W37665  10.354  34.595   4.574
72406W        W37666  14.320  17.780  14.860
72407W        W37667  25.050  43.823   4.680
72408W        W37668  43.422  43.661   3.765
72409W        W37669  34.340  44.571   4.497
72410W        W37670  17.117  10.796  13.441
72411W        W37671  31.067  24.795  14.861
72412W        W37672  41.531  18.186  12.775
72413W        W37673  22.327  23.214   1.214
72414W        W37674  28.611  31.229  10.451
72415W        W37675  20.734  44.687  11.969
72416W        W37676  34.870  15.939  11.194
72417W        W37677   1.325  41.237  11.573
72418W        W37678   0.482  23.125   3.331
72419W        W37679  38.983  11.829  10.814
72420W        W37680  37.175   5.451  13.191
72421W        W37681  37.547  22.393   0.295
72422W        W37682  13.916   9.173  14.505
72423W        W37683  36.923  28.404   1.250
72424W        W37684  20.599  42.788   2.414
72425W        W37685  40.779  11.241  10.699
72426W        W37686   7.819  39.874   1.193
72427W        W37687   5.405   0.394   3.792
72428W        W37688   8.751  18.280   2.628
72429W        W37689  40.964   0.992  13.938
72430W        W37690  38.270  22.154   0.894
72431W        W37691   8.080   5.611   3.717
72432W        W37692  17.710   3.364  14.043
72433W        W37693  31.021   7.910  14.863
72434W        W37694  43.864  10.865  10.010
72435W        W37695  31.455  13.610  14.968
72436W        W37696   9.650  16.779   1.741
72437W        W37697  44.354  32.612  11.278
72438W        W37698  28.631  42.547   0.572
72439W        W37699  33.969   3.959   4.869
72440W        W37700  37.451   6.814  12.876
72441W        W37701  36.773  39.026  14.382
72442W        W37702  26.395   6.856   4.148
72443W        W37703  36.830  24.924   4.523
72444W        W37704  42.766   1.709  13.880
72445W        W37705  28.459  21.107  14.454
72446W        W37706  41.310   7.121  14.516
72447W        W37707  36.262  24.745   4.502
72448W        W37708  32.287  32.115   1.949
72449W        W37709   2.676  21.950  11.552
72450W        W37710   4.727  41.211   4.963
72451W        W37711  30.867  27.053  14.933
72452W        W37712  23.712  30.382   0.730
72453W        W37713  33.392  33.569  13.882
72454W        W37714  19.543  23.361  12.964
72455W        W37715  21.240  20.683   5.033
72456W        W37716   7.127  12.521  11.928
72457W        W37717  36.345  18.556   2.792
72458W        W37718  37.520   4.000   2.293
72459W        W37719   9.510  12.544   5.001
72460W        W37720  32.159  36.954  12.051
72461W        W37721   8.717  22.379  11.050
72462W        W37722  20.804   0.733   2.358
72463W        W37723  19.983   6.768  13.964
72464W        W37724  41.888  25.959  12.870
72465W        W37725  34.393  40.380  14.880
72466W        W37726  32.057   8.242  12.044
72467W        W37727  42.708   4.327   0.380
72468W        W37728   4.634   6.470   2.339
72469W        W37729  41.928  17.230   3.175
72470W        W37730  32.420  25.636  13.950
72471W        W37731  10.390  40.950   1.116
72472W        W37732  43.541  44.236  14.603
72473W        W37733   0.370  39.915  13.882
72474W        W37734   6.446  10.107  11.178
72475W        W37735   8.994  41.079  10.642
72476W        W37736  35.856   5.080  14.298
72477W        W37737  11.281  15.395  13.029
72478W        W37738  30.141   1.969  13.355
72479W        W37739  30.500  20.976   3.702
72480W        W37740  35.074  11.295   3.073
72481W        W37741  25.735  38.108  12.963
72482W        W37742  12.369  11.362  12.480
72483W        W37743   5.770   2.665   0.396
72484W        W37744  34.363  38.842  14.469
72485W        W37745  22.491   2.152   0.958
72486W        W37746  22.895  32.352  14.615
72487W        W37747  15.343   1.877   1.495
72488W        W37748  29.990  39.374  12.842
72489W        W37749  32.327   0.703   0.214
72490W        W37750  14.538  39.072   2.464
72491W        W37751  11.448  22.125  13.812
72492W        W37752   1.418  44.520   3.738
72493W        W37753  21.597  41.416   2.310
72494W        W37754   0.775  37.804   4.583
72495W        W37755   6.429  27.988   4.554
72496W        W37756  32.427  30.131   0.677
72497W        W37757  26.189  14.159  13.727
72498W        W37758  37.525  16.860   1.921
72499W        W37759  16.065   1.511   4.561
72500W        W37760  14.252  21.223   0.293
72501W        W37761  11.628  18.513   1.890
72502W        W37762  43.856   6.822  14.470
72503W        W37763  44.374  34.298  14.518
72504W        W37764  17.271  12.145   3.409
72505W        W37765  13.820  33.541   4.201
72506W        W37766  20.729  35.359   3.717
72507W        W37767  42.973   4.383  13.043
72508W        W37768  19.656  26.499   4.497
72509W        W37769  39.621  24.182  11.807
72510W        W37770   3.695  17.897   2.025
72511W        W37771  26.077  42.544   4.648
72512W        W37772   1.728  19.516   0.491
72513W        W37773  44.015   0.773  13.766
72514W        W37774   6.407  38.421  14.330
72515W        W37775   4.293  19.545  14.336
72516W        W37776  35.925  12.391   0.798
72517W        W37777  32.429  42.497  10.558
72518W        W37778  13.626   2.039  12.510
72519W        W37779  32.918   1.551  12.913
72520W        W37780  18.630  22.904  10.298
72521W        W37781  33.698  15.314  12.047
72522W        W37782  29.866  22.203   2.206
72523W        W37783  19.555   1.348   4.581
72524W        W37784   6.294   6.265   1.711
72525W        W37785   7.143  33.384  13.764
72526W        W37786  23.050   2.833   2.875
72527W        W37787  29.904  29.663  13.532
72528W        W37788  26.639  37.061   2.881
72529W        W37789  14.140  27.657   1.816
72530W        W37790  40.596  33.657   0.131
72531W        W37791  39.257  10.058  12.396
72532W        W37792  21.651   3.514   1.946
72533W        W37793  32.467   7.527   0.468
72534W        W37794  37.437  43.073   0.532
72535W        W37795  14.712  12.983  13.500
72536W        W37796  31.063  17.993  12.869
72537W        W37797   6.922  16.641  12.066
72538W        W37798  15.784  36.365   0.997
72539W        W37799   9.892  24.775  10.600
72540W        W37800  22.629   3.948  12.302
72541W        W37801  38.052  28.826   1.988
72542W        W37802  10.168  42.490  11.372
72543W        W37803   8.614  30.427  14.099
72544W        W37804  42.450  20.923   4.684
72545W        W37805  44.513  12.298  12.614
72546W        W37806   7.150  26.031   1.652
72547W        W37807  29.567  25.509  14.448
72548W        W37808  36.985  26.200  11.099
72549W        W37809   4.799  41.135  11.147
72550W        W37810  38.581  27.473  10.292
72551W        W37811  38.628  43.745   1.818
72552W        W37812  13.577  35.333  14.522
72553W        W37813  27.747  23.585  11.403
72554W        W37814  36.065   4.933  14.739
72555W        W37815  12.199  17.076  10.587
72556W        W37816  31.375   6.941  13.406
72557W        W37817  29.619  28.636  13.879
72558W        W37818   9.179   0.946  13.800
72559W        W37819  30.624  32.554   2.844
72560W        W37820   8.354  41.074   0.455
72561W        W37821  12.370  17.086   3.822
72562W        W37822  30.346  27.022   3.658
72563W        W37823  32.174   0.308  12.197
72564W        W37824  11.796   9.198   3.985
72565W        W37825  18.366  19.101  13.754
72566W        W37826  11.055  43.263   4.728
72567W        W37827  18.663  15.079   3.150
72568W        W37828  36.024  38.112   3.663
72569W        W37829   4.706  15.180   2.320
72570W        W37830   9.409  13.381  12.565
72571W        W37831  37.071  36.087  11.812
72572W        W37832  38.931   5.670   3.157
72573W        W37833  11.183  22.311  12.440
72574W        W37834   0.786  22.289   3.711
72575W        W37835  22.774  43.468   1.794
72576W        W37836   7.909   4.266  13.999
72577W        W37837  29.635  10.135  10.608
72578W        W37838  14.406  11.578   4.344
72579W        W37839  25.037  40.491   2.283
72580W        W37840  24.096  27.917   1.031
72581W        W37841  32.178   5.875  12.597
72582W        W37842  11.683  38.336  10.453
72583W        W37843  14.707   1.482   2.721
72584W        W37844  13.241  38.331  14.815
72585W        W37845  10.794  39.850   3.387
72586W        W37846  37.287  42.413  13.015
72587W        W37847  20.659  39.022   1.816
72588W        W37848  31.842   9.253   2.282
72589W        W37849  18.519  30.794   1.018
72590W        W37850  37.929  41.548  11.208
72591W        W37851   9.572  21.123   2.400
72592W        W37852  11.726  14.836   4.425
72593W        W37853  34.015  19.777   0.131
72594W        W37854  25.074  14.065   0.887
72595W        W37855  14.228  42.465  13.476
72596W        W37856  20.482  22.029  12.407
72597W        W37857   8.327   0.526   2.338
72598W        W37858   6.529  27.484   4.683
72599W        W37859  34.302  39.920   0.294
72600W        W37860  22.670   7.053  11.730
72601W        W37861  35.810  28.149   4.174
72602W        W37862  40.936  29.252   3.717
72603W        W37863  15.020  39.907  13.104
72604W        W37864   0.233   5.350  12.485
72605W        W37865  34.463  19.970   0.372
72606W        W37866   5.401  38.042  10.450
72607W        W37867  36.922   0.738   2.635
72608W        W37868  19.572  17.995   4.147
72609W        W37869  41.209  18.729   0.775
72610W        W37870  30.477   0.873   0.817
72611W        W37871   3.888  15.324   0.927
72612W        W37872   8.209  16.480  12.506
72613W        W37873  11.398  33.620  11.744
72614W        W37874  15.547   2.687  13.121
72615W        W37875  17.625  43.083  12.873
72616W        W37876  44.533  41.892  13.057
72617W        W37877  28.433   0.311   2.730
72618W        W37878   1.924  44.172   2.784
72619W        W37879  39.939   9.708   2.214
72620W        W37880  18.599   4.736   4.169
72621W        W37881  11.564  35.026  10.760
72622W        W37882  10.088  27.083  13.130
72623W        W37883  15.514  28.249  12.982
72624W        W37884  21.975  19.299   4.768
72625W        W37885  18.589  13.119   0.982
72626W        W37886  24.026   9.772   0.767
72627W        W37887   9.432  23.526  14.900
72628W        W37888  33.818  44.320  14.375
72629W        W37889   9.060  42.812  13.722
72630W        W37890   8.379  24.721  12.526
72631W        W37891  15.672  17.270   0.088
72632W        W37892  44.310  42.075   0.303
72633W        W37893  38.055  27.962  12.848
72634W        W37894  10.653  30.160   4.888
72635W        W37895  39.450  11.349   0.998
72636W        W37896  14.274   9.574  11.610
72637W        W37897   4.706   1.093  10.118
72638W        W37898  41.419  18.219   0.866
72639W        W37899  22.810  17.166  14.679
72640W        W37900  44.598  32.705  10.597
72641W        W37901  16.136   5.699  11.232
72642W        W37902  27.666  38.604  12.076
72643W        W37903  40.409   6.935   2.463
72644W        W37904  22.146  30.567  12.507
72645W        W37905   8.851  31.151   1.684
72646W        W37906   6.146  21.296   1.234
72647W        W37907  36.995  10.629   3.283
72648W        W37908  10.192  42.595  14.543
72649W        W37909  17.472   1.108   3.654
72650W        W37910  10.704  19.980  12.152
72651W        W37911  23.995   1.881  11.814
72652W        W37912   3.236  27.652  12.001
72653W        W37913  20.831  13.493  11.578
72654W        W37914  25.306  31.886  11.544
72655W        W37915   7.314  13.542  11.915
72656W        W37916  42.334  24.737  12.978
72657W        W37917  13.811  20.709  14.322
72658W        W37918  22.052  18.122   1.737
72659W        W37919   5.210  26.942   1.887
72660W        W37920  11.287  41.042   3.241
72661W        W37921  21.682   9.608   2.822
72662W        W37922  29.489  12.846  11.195
72663W        W37923  16.730   6.065   0.876
72664W        W37924   6.158  23.274  12.777
72665W        W37925   0.269   6.702  12.480
72666W        W37926  25.475  24.496   4.106
72667W        W37927  32.830  43.640   2.250
72668W        W37928  15.699   4.342  10.629
72669W        W37929   4.187  21.253  14.241
72670W        W37930  41.813   1.788   4.628
72671W        W37931  44.788  10.619   3.586
72672W        W37932  30.153   0.981   4.121
72673W        W37933  41.289  42.894  13.469
72674W        W37934   3.973  16.863  12.562
72675W        W37935  19.706   2.317  12.217
72676W        W37936  14.142  26.561  11.967
72677W        W37937   3.975  11.139  10.644
72678W        W37938   2.758  17.820   3.632
72679W        W37939  32.872  39.059  13.284
72680W        W37940  25.941  36.363   1.746
72681W        W37941   5.001  36.394  12.455
72682W        W37942  14.177  13.667   2.247
72683W        W37943  30.341   6.462  14.846
72684W        W37944  27.601   0.810  12.867
72685W        W37945  33.751  19.695  11.916
72686W        W37946   4.251  40.091   4.204
72687W        W37947   7.920  12.287  11.941
72688W        W37948  11.204  39.321   1.276
72689W        W37949  11.249   6.821   3.294
72690W        W37950  14.256  22.314   2.108
72691W        W37951  27.401  25.558   3.173
72692W        W37952  33.117   6.849   4.566
72693W        W37953  18.494  23.727  14.471
72694W        W37954   1.722  41.838   4.345
72695W        W37955  29.390  37.469   1.308
72696W        W37956  12.828  10.342   9.754
72697W        W37957  28.169  10.235   4.658
72698W        W37958   8.736  28.964   0.679
72699W        W37959   1.523   8.871   3.115
72700W        W37960  11.102   6.212   1.275
72701W        W37961  29.791  40.306  13.276
72702W        W37962  23.653   8.092  14.994
72703W        W37963  22.281  42.235   4.694
72704W        W37964   7.808  40.352   2.401
72705W        W37965  29.120  25.038  13.623
72706W        W37966  23.715  12.452  11.604
72707W        W37967  22.128  41.498  13.313
72708W        W37968   5.384  30.508   3.506
72709W        W37969  39.548  19.109   3.609
72710W        W37970   9.167  34.900   1.403
72711W        W37971   3.142  23.057   2.866
72712W        W37972   9.371  11.949   2.864
72713W        W37973  25.023  30.762  13.890
72714W        W37974  32.443  40.656   3.198
72715W        W37975   4.175  23.169  14.956
72716W        W37976   0.929  41.479   1.883
72717W        W37977  17.100  13.749  12.454
72718W        W37978  44.301  31.743  10.227
72719W        W37979  13.197  25.197   4.576
72720W        W37980  37.219   4.897   3.198
72721W        W37981  27.872  12.281  12.706
72722W        W37982  19.505  10.698  11.976
72723W        W37983   4.187  38.964  13.721
72724W        W37984  22.190  32.406   2.339
72725W        W37985  29.057  34.024  14.401
72726W        W37986  21.729  18.477   2.374
72727W        W37987  18.821  18.790   4.443
72728W        W37988  13.262  19.078   1.697
72729W        W37989  40.028  35.300   0.248
72730W        W37990  25.694  19.618  12.396
72731W        W37991  24.135  34.056   2.681
72732W        W37992   4.667  36.502   3.729
72733W        W37993  37.920  30.243  14.408
72734W        W37994  28.098  15.072   1.346
72735W        W37995  23.456  12.723  12.464
72736W        W37996   1.063  30.888  14.447
72737W        W37997  15.641  43.364  14.994
72738W        W37998  37.077  36.896   1.440
72739W        W37999  44.168  16.802  11.666
72740W        W38000  28.100  18.291  11.229
72741W        W38001  37.835  42.261   4.865
72742W        W38002  33.415  36.019   1.424
72743W        W38003  32.608   3.873   1.377
72744W        W38004  10.171  38.868  14.188
72745W        W38005  20.608  32.286   3.902
72746W        W38006  21.497  37.457  11.949
72747W        W38007  44.402   6.996   1.355
72748W        W38008  41.483  10.066   0.644
72749W        W38009   0.388  23.961   4.322
72750W        W38010  19.264   1.728  12.576
72751W        W38011  18.532  10.654  11.949
72752W        W38012   9.307  35.790   1.799
72753W        W38013  39.954  20.246   3.084
72754W        W38014   1.435  11.105   2.227
72755W        W38015  20.769   6.125   3.693
72756W        W38016  32.584  26.684   2.292
72757W        W38017  25.534   0.450  12.436
72758W        W38018  10.151  17.308   0.891
72759W        W38019  26.224   8.957  14.398
72760W        W38020  25.521  31.707  11.102
72761W        W38021  13.181  24.122   3.439
72762W        W38022  20.242   7.784   1.625
72763W        W38023   5.758  12.242   2.138
72764W        W38024   5.360  10.855  11.490
72765W        W38025  34.437   0.976  12.044
72766W        W38026  39.386  14.697  12.038
72767W        W38027   2.347   7.775   1.701
72768W        W38028  22.038  44.723   3.811
72769W        W38029  40.557   2.383   0.916
72770W        W38030  15.171  43.771   3.535
72771W        W38031   6.444  12.867   4.523
72772W        W38032  22.127  34.972   2.722
72773W        W38033  37.296   8.862   4.136
72774W        W38034  31.949  18.863   0.280
72775W        W38035  24.179  22.590   1.180
72776W        W38036  39.205   1.979   4.033
72777W        W38037  36.620  25.462   2.854
72778W        W38038  22.650   9.814  11.294
72779W        W38039  25.519  28.031  10.613
72780W        W38040  38.027  28.515  10.452
72781W        W38041   1.254   7.128   1.311
72782W        W38042  26.329  19.897   0.513
72783W        W38043  18.564   5.004  11.860
72784W        W38044  24.110  43.831   2.305
72785W        W38045  39.127  26.548  12.464
72786W        W38046   7.761  18.580   4.587
72787W        W38047  25.077  21.200   3.544
72788W        W38048  31.855  39.729  13.289
72789W        W38049  31.190  20.156  14.631
72790W        W38050   4.703   6.331  14.515
72791W        W38051  20.007   2.720   3.174
72792W        W38052  18.113  26.204   3.413
72793W        W38053  41.496  21.853  12.013
72794W        W38054  26.650  19.262  14.466
72795W        W38055  37.887  38.711   3.108
72796W        W38056  23.728  33.075   4.162
72797W        W38057  13.591  16.992  14.950
72798W        W38058  18.207  37.878   3.152
72799W        W38059  41.208  31.848  10.871
72800W        W38060  43.936  32.502  13.406
72801W        W38061  42.092  44.417  14.875
72802W        W38062  33.559  19.014  13.630
72803W        W38063  33.845  43.964   1.527
72804W        W38064  24.530  15.763  11.915
72805W        W38065  24.695   8.511  11.687
72806W        W38066  31.572  32.227   0.951
72807W        W38067  30.548  37.007   2.294
72808W        W38068  18.671   7.677  14.265
72809W        W38069  12.891  27.625  12.257
72810W        W38070   9.807  42.223  12.682
72811W        W38071  14.143  37.899  13.330
72812W        W38072  17.141  42.856   0.935
72813W        W38073  11.816  43.992  12.158
72814W        W38074  23.667  10.218  10.610
72815W        W38075  33.652  40.393  14.545
72816W        W38076  27.211   9.765  12.910
72817W        W38077  41.492  35.971  12.108
72818W        W38078  25.121  25.895   1.428
72819W        W38079  38.312  20.951  10.109
72820W        W38080  13.081  33.910   4.590
72821W        W38081  30.512  44.532   1.206
72822W        W38082   4.334   5.343  14.004
72823W        W38083  19.951  43.607   1.184
72824W        W38084  27.265  42.795   2.349
72825W        W38085  19.274  32.559   1.767
72826W        W38086  41.310  40.724  11.016
72827W        W38087  16.192  17.211   1.419
72828W        W38088  25.992  35.333   3.728
72829W        W38089  30.051  13.143   0.785
72830W        W38090  42.828   8.804  13.254
72831W        W38091  23.252  42.227   4.497
72832W        W38092   6.320  28.394  14.950
72833W        W38093  10.093   5.977  11.477
72834W        W38094  16.013  31.379  12.379
72835W        W38095  33.667  44.110  11.113
72836W        W38096  18.069  42.865  11.875
72837W        W38097  26.271  26.071   2.716
72838W        W38098   9.898  43.759  10.390
72839W        W38099  18.682  22.021   1.312
72840W        W38100   2.451  19.541  11.322
72841W        W38101   1.507  32.986  12.735
72842W        W38102   0.340  18.426   4.524
72843W        W38103   9.775  38.590  13.863
72844W        W38104  13.151  38.524  10.699
72845W        W38105  11.766  44.215  14.822
72846W        W38106   5.760  31.968   0.671
72847W        W38107  23.204  43.951  14.279
72848W        W38108   4.356   7.210  13.319
72849W        W38109   0.363  23.291  12.913
72850W        W38110  24.485  34.309   1.947
72851W        W38111  26.134  40.813  11.650
72852W        W38112  24.212   0.450   1.905
72853W        W38113  41.386  44.959   3.279
72854W        W38114  26.474  11.122  12.929
72855W        W38115  38.932  33.309   1.204
72856W        W38116  15.139  37.175   1.383
72857W        W38117  31.391  28.363   2.155
72858W        W38118  20.138  44.322  14.177
72859W        W38119  12.376   9.803   3.440
72860W        W38120   3.453  24.654  10.344
72861W        W38121   2.199   6.669  12.501
72862W        W38122  25.459  19.145  11.051
72863W        W38123   9.376   7.284   0.011
72864W        W38124  34.106  28.237   3.367
72865W        W38125  29.258  24.132  12.136
72866W        W38126  36.762  15.091  13.876
72867W        W38127   9.232  38.008  14.639
72868W        W38128  10.635   2.297   1.708
72869W        W38129  12.317  32.058   2.621
72870W        W38130  33.280  12.714   1.911
72871W        W38131  22.780   3.138   5.547
72872W        W38132  12.822  19.296  11.951
72873W        W38133  23.789  43.770   1.474
72874W        W38134  36.403  24.254   4.430
72875W        W38135  28.623  11.031   0.977
72876W        W38136  11.666   5.687  12.146
72877W        W38137   3.730  28.957  13.389
72878W        W38138  40.060  33.202  14.385
72879W        W38139  23.066  19.178  11.514
72880W        W38140   7.110   2.471  13.124
72881W        W38141  43.940  25.561   5.872
72882W        W38142  13.703  42.631   4.555
72883W        W38143   8.135  25.196  12.393
72884W        W38144  33.047  31.328  12.526
72885W        W38145  20.536  22.550   2.271
72886W        W38146  25.141   5.932  11.922
72887W        W38147   2.277  27.294   1.056
72888W        W38148   2.263  38.298   0.505
72889W        W38149  22.608  30.344   1.237
72890W        W38150   2.372  20.044   4.617
72891W        W38151  19.670  14.169  13.544
72892W        W38152  18.096  22.810  10.292
72893W        W38153   4.638   6.967   3.450
72894W        W38154  27.637  10.835  14.905
72895W        W38155  31.501  20.725  14.498
72896W        W38156  44.805  34.806  14.857
72897W        W38157  10.289  25.499   2.800
72898W        W38158  34.348  12.218  12.853
72899W        W38159  34.089  19.274  11.984
72900W        W38160  23.560  42.922   4.147
72901W        W38161  28.842  11.790   1.388
72902W        W38162   7.460  11.364   3.710
72903W        W38163  21.398  44.074   4.542
72904W        W38164   2.752  21.255   1.268
72905W        W38165  19.739  35.873  14.788
72906W        W38166   6.019  32.929  14.792
72907W        W38167  23.068  33.551  12.136
72908W        W38168   2.666  36.039   2.930
72909W        W38169  10.882  20.601   3.883
72910W        W38170  15.143  22.229  13.924
72911W        W38171  13.098  29.435  13.288
72912W        W38172  15.231  37.839   2.926
72913W        W38173  13.552  17.586  11.673
72914W        W38174   5.343  25.675   1.281
72915W        W38175  25.327  25.276   3.227
72916W        W38176  27.469  37.766  14.266
72917W        W38177  27.980  44.879  12.940
72918W        W38178  32.151  10.799  12.340
72919W        W38179  14.112  39.286  12.030
72920W        W38180   2.658  21.129  12.116
72921W        W38181  40.221   3.978  14.373
72922W        W38182   5.440  23.941  12.872
72923W        W38183  38.128  18.183   2.677
72924W        W38184  29.031  29.474   4.193
72925W        W38185  34.424   6.008   2.693
72926W        W38186  14.820   9.430   0.854
72927W        W38187  22.098  25.106  10.748
72928W        W38188  20.734  17.518  10.696
72929W        W38189   7.634  11.846  13.055
72930W        W38190  20.062  21.408  13.139
72931W        W38191   0.474   0.252   2.344
72932W        W38192  20.033  33.801   3.443
72933W        W38193  26.984  29.815  10.813
72934W        W38194  13.634  14.754   0.442
72935W        W38195  20.164  25.497   4.019
72936W        W38196  18.006  24.598   1.263
72937W        W38197  26.672  34.657  10.769
72938W        W38198  22.411  19.059  13.954
72939W        W38199  22.922   1.464  11.569
72940W        W38200  21.663  41.521   3.766
72941W        W38201  43.689  21.014   3.739
72942W        W38202  10.789  17.662   2.355
72943W        W38203   7.043  25.516   2.362
72944W        W38204   5.721  33.617   2.868
72945W        W38205   3.825  32.061  10.674
72946W        W38206  21.685  15.201  12.107
72947W        W38207   2.235  42.852  12.536
72948W        W38208  21.286  30.568  12.987
72949W        W38209  35.326  34.394  13.073
72950W        W38210  23.052  12.377   2.126
72951W        W38211  25.728   6.807   2.201
72952W        W38212  34.345  22.562   0.464
72953W        W38213  43.533  15.535   3.683
72954W        W38214  17.974  23.483   3.251
72955W        W38215  12.753  30.466   2.221
72956W        W38216  37.070  35.928   0.528
72957W        W38217   3.762   8.729   4.434
72958W        W38218   8.826  27.928   3.277
72959W        W38219  23.456  35.573  11.213
72960W        W38220   6.958  19.756   4.429
72961W        W38221   1.519   0.655   0.903
72962W        W38222  34.635  18.328   1.460
72963W        W38223   1.368  34.807   0.459
72964W        W38224  32.014  12.610  12.140
72965W        W38225   3.977  12.797   3.210
72966W        W38226  12.421   1.342   1.042
72967W        W38227   3.827   5.817  10.690
72968W        W38228  40.921  13.798   0.012
72969W        W38229  12.209  34.396  10.961
72970W        W38230   7.395  27.619  13.429
72971W        W38231  21.593  24.932  13.409
72972W        W38232  25.103  19.348   4.469
72973W        W38233   8.785   3.403   1.737
72974W        W38234  28.958  27.062   4.073
72975W        W38235  21.157  13.616  13.416
72976W        W38236  17.145  25.032  14.601
72977W        W38237  42.311   0.259  14.851
72978W        W38238  10.856  12.457   0.825
72979W        W38239  25.776  39.953  13.066
72980W        W38240  43.489   6.872  11.540
72981W        W38241  41.104  15.562   2.226
72982W        W38242  20.994  20.646  14.979
72983W        W38243  27.968   4.835   5.070
72984W        W38244   0.453  12.022   2.275
72985W        W38245   8.829  23.470   4.222
72986W        W38246   2.661  14.676   3.460
72987W        W38247  29.212   5.306   1.531
72988W        W38248  34.473   7.396  13.745
72989W        W38249  15.606  34.157   1.682
72990W        W38250  41.520  43.083  12.471
72991W        W38251  37.024  35.292   3.722
72992W        W38252  31.658  19.524   1.638
72993W        W38253  14.568  31.029  13.430
72994W        W38254  40.200  35.576   0.735
72995W        W38255  18.113  13.099  12.962
72996W        W38256  39.987   8.906  14.461
72997W        W38257  40.435   2.239  14.935
72998W        W38258   0.795  43.845  12.112
72999W        W38259  29.987   4.547  11.192
73000W        W38260   3.025  26.500  13.838
73001W        W38261  19.259  35.516  11.039
73002W        W38262   7.229  17.858   0.020
73003W        W38263   9.908  28.998   4.337
73004W        W38264  25.565  15.890  10.538
73005W        W38265  26.095  22.776  12.889
73006W        W38266  28.942  14.769   4.258
73007W        W38267  21.697  28.571   0.272
73008W        W38268  23.497   1.295   3.643
73009W        W38269  10.319  17.792  12.229
73010W        W38270  33.047  39.517  13.497
73011W        W38271  41.040  35.901  13.166
73012W        W38272   4.850  29.390   1.476
73013W        W38273  14.685  36.701   3.083
73014W        W38274   1.357  32.641  13.569
73015W        W38275  31.071  14.836   4.157
73016W        W38276  43.345  38.601  13.859
73017W        W38277  30.625   2.338   4.333
73018W        W38278  13.761  13.624  12.939
73019W        W38279  27.458   7.430  12.362
73020W        W38280  43.915  40.914  11.099
73021W        W38281  38.874   3.423  14.704
73022W        W38282  28.945  16.297   0.041
73023W        W38283   7.804   2.895  13.817
73024W        W38284  35.058  40.244   0.552
73025W        W38285  37.116   7.715   0.384
73026W        W38286  35.149   3.717  11.945
73027W        W38287  24.654  17.122   5.033
73028W        W38288  26.956   5.239  11.881
73029W        W38289  18.605   1.927   0.385
73030W        W38290  22.101  37.806   1.332
73031W        W38291  36.271   1.350  12.059
73032W        W38292  28.075  30.535  10.100
73033W        W38293  42.482  16.697   1.856
73034W        W38294   2.711   9.620   1.844
73035W        W38295  24.659  42.937   2.653
73036W        W38296  43.962  40.509  10.784
73037W        W38297   3.250  21.238   0.276
73038W        W38298  19.516  34.161  11.072
73039W        W38299  38.389  22.730  14.838
73040W        W38300  12.824  41.488   2.820
73041W        W38301  23.220  20.990  12.212
73042W        W38302  12.618  25.202   4.087
73043W        W38303  41.300   3.413   0.659
73044W        W38304  14.865  24.470   2.746
73045W        W38305  26.447  28.275   1.622
73046W        W38306  12.949  37.258  10.129
73047W        W38307  12.290  18.982  13.388
73048W        W38308   4.869   5.804   1.429
73049W        W38309  34.001   4.697   1.979
73050W        W38310  18.753  35.534  11.256
73051W        W38311   2.017  16.534   0.748
73052W        W38312  10.089  19.227   1.405
73053W        W38313  20.328  21.714   4.088
73054W        W38314  27.513  12.634  12.965
73055W        W38315  44.505  21.242  12.040
73056W        W38316  39.272  10.876   2.151
73057W        W38317   4.666  34.533  12.928
73058W        W38318   0.277  38.838   4.063
73059W        W38319  20.615  39.916   2.236
73060W        W38320  28.696  24.405  14.853
73061W        W38321  27.412   7.558   0.016
73062W        W38322  32.521  42.884   1.624
73063W        W38323  11.585  20.675   1.719
73064W        W38324  33.411   2.472  13.096
73065W        W38325  14.208   1.322  13.521
73066W        W38326  27.789   0.162   2.301
73067W        W38327  25.616  15.058   0.279
73068W        W38328  34.244  29.862   0.151
73069W        W38329  43.509   7.606  14.242
73070W        W38330  26.015  24.379   1.793
73071W        W38331  34.514  10.612   4.060
73072W        W38332  15.203  23.593  13.339
73073W        W38333   1.279   0.603  13.974
73074W        W38334  27.441  21.130  12.121
73075W        W38335  24.495  40.916  14.100
73076W        W38336  35.020  33.159  13.121
73077W        W38337   3.869  33.456   0.416
73078W        W38338  19.718  35.613   3.565
73079W        W38339   6.362  34.183  11.146
73080W        W38340  42.489   2.937   1.304
73081W        W38341  12.756   0.904  12.383
73082W        W38342  27.741   6.148   2.420
73083W        W38343  14.210   4.209   1.018
73084W        W38344  34.396  20.049   4.514
73085W        W38345  14.269  37.418  12.293
73086W        W38346  32.033  37.006  14.053
73087W        W38347   6.371  16.824   3.142
73088W        W38348  14.651  33.375  14.040
73089W        W38349  13.309  21.152  13.637
73090W        W38350  13.582  24.091  12.340
73091W        W38351  41.363  21.001  14.297
73092W        W38352  12.281  36.538   0.348
73093W        W38353  34.157  35.640  12.960
73094W        W38354   9.454  39.837   3.696
73095W        W38355   8.304  12.109   0.275
73096W        W38356   7.329  35.193   3.682
73097W        W38357   6.256  42.298  11.154
73098W        W38358  23.325  24.107  11.320
73099W        W38359  26.738   7.346   1.368
73100W        W38360  11.477  31.565   0.818
73101W        W38361  21.780  30.217  13.271
73102W        W38362  41.579   6.681  11.681
73103W        W38363  32.999  18.417  11.257
73104W        W38364  13.864  10.909  10.991
73105W        W38365  31.285  42.032  14.318
73106W        W38366  31.001   9.764  10.703
73107W        W38367  26.538  40.380   4.465
73108W        W38368  33.833  44.869  13.086
73109W        W38369  13.354  33.775  13.974
73110W        W38370   8.818   5.238  10.260
73111W        W38371  37.696  20.485   0.763
73112W        W38372  13.746  32.429   2.699
73113W        W38373  25.992  32.489  14.876
73114W        W38374  19.231  33.123   4.581
73115W        W38375  26.494  14.011  10.557
73116W        W38376  30.414  21.809  10.750
73117W        W38377  30.523  25.043  11.656
73118W        W38378  15.990  20.280  11.755
73119W        W38379  29.488  20.664  13.323
73120W        W38380   5.842  30.940  11.458
73121W        W38381   6.802  36.589  14.364
73122W        W38382   3.039  33.164   3.844
73123W        W38383  11.283  16.611  11.466
73124W        W38384  35.848  34.024   0.439
73125W        W38385  26.553  11.008   0.374
73126W        W38386  18.738   9.355  11.619
73127W        W38387  32.513   7.900  11.812
73128W        W38388  43.790   6.077   0.105
73129W        W38389  33.313   1.850  10.549
73130W        W38390  39.709  13.240  14.859
73131W        W38391  37.634  43.136  14.283
73132W        W38392  43.065  24.515  12.425
73133W        W38393  43.838  41.095   3.663
73134W        W38394   1.239  21.475   3.924
73135W        W38395  19.573   5.493   3.615
73136W        W38396  15.345  41.750  11.263
73137W        W38397  23.309   8.462   4.256
73138W        W38398   0.249  32.425  12.887
73139W        W38399  28.216  27.668   3.140
73140W        W38400  27.635  19.018   1.986
73141W        W38401  39.285  33.631  13.496
73142W        W38402  37.094  26.221  11.898
73143W        W38403  26.053   5.294   1.448
73144W        W38404   4.721  25.235   2.804
73145W        W38405  33.581  40.437   0.551
73146W        W38406  34.425  34.868   3.398
73147W        W38407  18.680  15.128  14.675
73148W        W38408   2.191  39.765  11.137
73149W        W38409  15.404  17.023   1.929
73150W        W38410  28.017  32.652  11.295
73151W        W38411  34.661  44.373   4.131
73152W        W38412  24.379   0.086   0.527
73153W        W38413  34.956  15.196  10.744
73154W        W38414  40.997  14.273  14.440
73155W        W38415  39.323   6.226   1.456
73156W        W38416   3.793   0.513   2.117
73157W        W38417  28.926  26.379  13.532
73158W        W38418  44.878   8.742   2.609
73159W        W38419  30.509  29.475   4.994
73160W        W38420   8.188  18.813   1.339
73161W        W38421  39.652  44.432   2.323
73162W        W38422  24.570   4.455   2.241
73163W        W38423   0.414   5.282  12.961
73164W        W38424  40.883  37.036  13.449
73165W        W38425  16.628  12.798  10.746
73166W        W38426  22.806   9.866  14.987
73167W        W38427  33.652   0.753  12.868
73168W        W38428  11.788  13.122  13.956
73169W        W38429  15.583  11.708   3.568
73170W        W38430   8.245  19.577  12.812
73171W        W38431  43.356  29.181  10.689
73172W        W38432  43.185  14.540   1.211
73173W        W38433  14.703  40.462  14.538
73174W        W38434  40.311  35.317   3.573
73175W        W38435  11.649  32.079   0.807
73176W        W38436  28.974  37.628  14.473
73177W        W38437  25.230  20.405  13.500
73178W        W38438  18.232  14.829  10.697
73179W        W38439   7.752   3.889  14.898
73180W        W38440  11.333   3.831   3.040
73181W        W38441  19.101  34.375  11.992
73182W        W38442  24.495  29.223  14.421
73183W        W38443   8.185  41.104  11.279
73184W        W38444  30.977  32.944  11.886
73185W        W38445  30.473   9.523  10.688
73186W        W38446   3.151  28.627  10.566
73187W        W38447  23.170   1.976   1.254
73188W        W38448  16.499  13.580   0.245
73189W        W38449   5.449  19.211   0.951
73190W        W38450  23.807  11.253  13.429
73191W        W38451  12.158  15.849  11.098
73192W        W38452   1.154  11.451  14.370
73193W        W38453  21.446  20.532  13.938
73194W        W38454  19.536  22.057   1.029
73195W        W38455  11.798  34.531  10.588
73196W        W38456  19.821  18.132  11.367
73197W        W38457  43.297   9.936  11.530
73198W        W38458  32.581  27.606  14.413
73199W        W38459  14.703  18.189  11.917
73200W        W38460  38.799  20.557   1.594
73201W        W38461  39.660  29.450   3.909
73202W        W38462  18.575  13.592  10.761
73203W        W38463  26.068  16.193   3.072
73204W        W38464  19.778  26.566   0.786
73205W        W38465  13.810  32.560   2.187
73206W        W38466   0.320  43.428   2.791
73207W        W38467  13.169  41.035  10.977
73208W        W38468   2.452  18.665   2.405
73209W        W38469  34.913   7.295   1.449
73210W        W38470  28.942  41.691  10.512
73211W        W38471  30.424  26.617  12.541
73212W        W38472  37.158   2.956  11.952
73213W        W38473   7.321  13.334  13.478
73214W        W38474  16.093  17.892   3.067
73215W        W38475  39.354  23.785  12.744
73216W        W38476  40.496  43.543  14.294
73217W        W38477  44.424   4.957   0.807
73218W        W38478  16.013   5.288  13.740
73219W        W38479   3.359  35.957  13.975
73220W        W38480  30.222  23.393  13.073
73221W        W38481  15.445  39.041   1.577
73222W        W38482  44.687  23.080  13.516
73223W        W38483  10.827  38.244   1.640
73224W        W38484  20.556   6.209  14.755
73225W        W38485  39.896  39.784  12.976
73226W        W38486   1.625  43.466  14.362
73227W        W38487   4.637   7.340   2.694
73228W        W38488  12.711  12.915   4.057
73229W        W38489  32.146  11.087  11.591
73230W        W38490  25.003   4.452   0.307
73231W        W38491  43.831   3.406  14.796
73232W        W38492  41.807   5.284   4.307
73233W        W38493  25.563   1.745  10.596
73234W        W38494  17.020  28.536  11.955
73235W        W38495  10.695  22.201   4.324
73236W        W38496  33.205  38.913  14.723
73237W        W38497  19.748  12.227   1.388
73238W        W38498  38.705  21.979  12.144
73239W        W38499  10.106  31.636   4.105
73240W        W38500   9.676  14.094  13.621
73241W        W38501  25.953   8.449   2.188
73242W        W38502  14.671  38.986   1.951
73243W        W38503  22.657  27.216   0.935
73244W        W38504  18.086  20.296   2.530
73245W        W38505   7.523  44.439  13.534
73246W        W38506  27.950  23.251   4.657
73247W        W38507  11.406  28.362   4.562
73248W        W38508  37.000  34.160  14.067
73249W        W38509  31.705   4.850  12.422
73250W        W38510  19.601  42.412  11.912
73251W        W38511  18.699  21.223  13.045
73252W        W38512  17.061  32.803  12.890
73253W        W38513  29.652  31.503   0.418
73254W        W38514  21.182  18.587  12.437
73255W        W38515  11.373   1.340  10.756
73256W        W38516  20.525  40.980   1.726
73257W        W38517  33.126  13.402  14.811
73258W        W38518  26.114   5.929  11.383
73259W        W38519  32.868  17.283   2.396
73260W        W38520  29.625  22.645  10.569
73261W        W38521   2.362  33.192  12.527
73262W        W38522  11.593  21.602  13.480
73263W        W38523   1.447  10.463   0.271
73264W        W38524  41.830  35.006   3.594
73265W        W38525  15.296   5.220  11.667
73266W        W38526   6.175   4.886  11.688
73267W        W38527  27.188  27.104  13.459
73268W        W38528   9.686  13.386   3.589
73269W        W38529   8.729   7.793   9.949
73270W        W38530   5.042   2.317  11.606
73271W        W38531  21.427   1.039   0.476
73272W        W38532  32.663  35.507   4.555
73273W        W38533  13.183  42.039  12.741
73274W        W38534   6.869  30.870  12.227
73275W        W38535  20.744  21.922   0.122
73276W        W38536   2.733  10.639  12.935
73277W        W38537  30.158  34.415  14.044
73278W        W38538  25.708  42.703   1.119
73279W        W38539  23.934  43.275   1.162
73280W        W38540   6.769  30.871   4.634
73281W        W38541  36.878  25.000  12.089
73282W        W38542  27.941  35.425   2.799
73283W        W38543   7.758  37.234   4.303
73284W        W38544  28.922  29.114   0.407
73285W        W38545  20.962   8.195   1.810
73286W        W38546  41.716  33.194   1.772
73287W        W38547   4.875  33.907  13.551
73288W        W38548   3.358  23.571  14.689
73289W        W38549  42.503  27.138   0.348
73290W        W38550  11.367  38.417   0.405
73291W        W38551  27.220  16.014   1.850
73292W        W38552  19.514  38.795   1.280
73293W        W38553  13.863  28.953  14.940
73294W        W38554  16.137   3.893   4.131
73295W        W38555  10.667  21.915   4.769
73296W        W38556  43.917  16.285  11.193
73297W        W38557  10.881  21.408  14.969
73298W        W38558   6.411  41.610   1.849
73299W        W38559   9.471  41.705   0.205
73300W        W38560   3.467  28.175  11.194
73301W        W38561  44.908   6.407   2.689
73302W        W38562  42.911   6.292  12.093
73303W        W38563  24.660  27.546  11.449
73304W        W38564   1.825  44.974   0.317
73305W        W38565   5.345  36.034   4.541
73306W        W38566  13.851  26.030  10.582
73307W        W38567  30.556   5.379   2.971
73308W        W38568  35.702   8.437  12.416
73309W        W38569  15.197  39.448   3.237
73310W        W38570   2.478  24.643  13.016
73311W        W38571  34.345  32.458  12.998
73312W        W38572  29.022  17.264  13.432
73313W        W38573  11.718  38.533   5.110
73314W        W38574  23.467  14.386  12.692
73315W        W38575  35.888  14.606  11.465
73316W        W38576   5.141  36.354  13.750
73317W        W38577  32.254  28.481   4.977
73318W        W38578  26.534   7.039   0.322
73319W        W38579  37.779  31.387  14.997
73320W        W38580   9.387  44.970  14.809
73321W        W38581   0.105  31.842   5.208
73322W        W38582  34.542  26.515   3.692
73323W        W38583   9.127  39.901   2.400
73324W        W38584  20.266  27.062   4.153
73325W        W38585  36.404  30.287  14.550
73326W        W38586   1.937  33.562   0.247
73327W        W38587  24.755  13.645   0.761
73328W        W38588  37.006  41.109  13.894
73329W        W38589   3.713  34.548  11.022
73330W        W38590  14.204   9.113   3.662
73331W        W38591  34.355  14.172   4.789
73332W        W38592  21.159  30.898   3.886
73333W        W38593  10.110  22.610  11.121
73334W        W38594  41.955  33.047  10.735
73335W        W38595  10.382  29.426   4.650
73336W        W38596   4.672  41.785  11.405
73337W        W38597  35.955  43.646   4.570
73338W        W38598  24.989  22.186   3.348
73339W        W38599  39.571  17.141   2.839
73340W        W38600  38.503  44.015  12.525
73341W        W38601   7.463   2.287  13.485
73342W        W38602  25.798  36.836   4.735
73343W        W38603  34.648   5.637  12.524
73344W        W38604   7.842  17.094   0.684
73345W        W38605   9.876  19.116   2.890
73346W        W38606   3.788  27.225  13.574
73347W        W38607  34.640   9.334   2.922
73348W        W38608   3.311  10.628  13.792
73349W        W38609   7.810  28.247   2.652
73350W        W38610  23.652   9.680   2.402
73351W        W38611  18.388  31.892   2.706
73352W        W38612  31.032  22.200  11.685
73353W        W38613  21.184  24.646   1.436
73354W        W38614  28.254  35.512  14.515
73355W        W38615   9.425  42.053   1.556
73356W        W38616  39.972  33.755   2.559
73357W        W38617  24.546  30.093   1.741
73358W        W38618  32.578  10.828   3.616
73359W        W38619   7.557  43.313   1.110
73360W        W38620   9.080   1.012  12.005
73361W        W38621   1.202  15.599  14.468
73362W        W38622  30.981  26.994  13.986
73363W        W38623   3.486  41.132  10.360
73364W        W38624  23.300  11.172   4.914
73365W        W38625  18.229  24.960  11.520
73366W        W38626  22.639  18.580  14.024
73367W        W38627  24.598  26.514  13.951
73368W        W38628   2.746  34.631   4.764
73369W        W38629  40.601  39.043  11.707
73370W        W38630  34.549  21.673   0.940
73371W        W38631  44.750  43.092  13.816
73372W        W38632   9.084  33.608  14.221
73373W        W38633   4.322  42.618   3.143
73374W        W38634  42.209  12.669  11.620
73375W        W38635  41.816  36.069  11.697
73376W        W38636  29.654  11.710  10.722
73377W        W38637  14.363  27.081  13.479
73378W        W38638  30.884  29.751   2.724
73379W        W38639  17.288   6.644   3.686
73380W        W38640  25.635   9.472  12.158
73381W        W38641  29.135   1.627   0.902
73382W        W38642  14.656  42.803  13.777
73383W        W38643  16.533  15.611  13.901
73384W        W38644  17.674  41.883   4.466
73385W        W38645  18.106  40.031  14.879
73386W        W38646  17.905  17.680  14.864
73387W        W38647  42.967  28.358  13.461
73388W        W38648  10.726  28.577   3.169
73389W        W38649  30.879  12.755   4.544
73390W        W38650  12.998  16.688   3.328
73391W        W38651  27.176   1.466  12.899
73392W        W38652   3.390  11.616   3.270
73393W        W38653   6.916   2.032   1.639
73394W        W38654  39.675  41.777   1.790
73395W        W38655   8.300  11.637  13.526
73396W        W38656  23.630  16.389   1.758
73397W        W38657  29.581  32.814  12.391
73398W        W38658  12.554  42.053   1.766
73399W        W38659  14.402  28.728  11.342
73400W        W38660   9.146  30.651   3.678
73401W        W38661  16.674  23.032   0.487
73402W        W38662   1.281   4.771  11.927
73403W        W38663   9.102  20.496   1.964
73404W        W38664  38.175  30.142  12.821
73405W        W38665  14.485   8.778  12.958
73406W        W38666  15.306  29.924   3.772
73407W        W38667  24.262  39.480   1.453
73408W        W38668   6.364   9.238  10.746
73409W        W38669  16.039  41.852   2.741
73410W        W38670  37.601  18.211   3.389
73411W        W38671  16.107  18.166  14.059
73412W        W38672  44.241  35.499   3.751
73413W        W38673  39.064  39.291  13.753
73414W        W38674  18.635  39.605   0.467
73415W        W38675   9.711  37.059   0.986
73416W        W38676  20.217  26.206  12.487
73417W        W38677   2.436  24.463   0.002
73418W        W38678  30.938  20.494  13.337
73419W        W38679  31.691  12.180   3.835
73420W        W38680  26.948  23.043   4.483
73421W        W38681   6.480  37.560  12.798
73422W        W38682   5.881  42.073  14.795
73423W        W38683  41.580  31.296   2.949
73424W        W38684  38.938  17.166   0.971
73425W        W38685  44.704   3.700  12.594
73426W        W38686   7.937  41.794   0.308
73427W        W38687  15.829  13.676  11.982
73428W        W38688  23.278  41.934  10.918
73429W        W38689  14.333  28.278   2.640
73430W        W38690  21.471  36.071   0.425
73431W        W38691  44.969   3.214   2.306
73432W        W38692   7.477   2.663  12.806
73433W        W38693   2.636  21.448   3.909
73434W        W38694   2.913  35.464   3.635
73435W        W38695  28.947  20.829  12.056
73436W        W38696   6.450  28.912  12.812
73437W        W38697  12.342  38.909   1.231
73438W        W38698  44.734   8.268   5.400
73439W        W38699  32.055  35.370   0.929
73440W        W38700  20.103   8.785   0.089
73441W        W38701  12.885  40.930  14.956
73442W        W38702  21.177  31.900   5.296
73443W        W38703  40.539   0.416   3.748
73444W        W38704  26.948  17.508   1.342
73445W        W38705  40.272  15.501  11.682
73446W        W38706   2.571  33.320   9.904
73447W        W38707  25.000   0.405  13.507
73448W        W38708   3.380  28.018  13.972
73449W        W38709  11.664   9.336  11.106
73450W        W38710  33.866   0.689  12.045
73451W        W38711  44.239  17.522  12.842
73452W        W38712  40.805  36.074   3.618
73453W        W38713  28.013  33.962  10.814
73454W        W38714  32.936  37.626  13.828
73455W        W38715  25.910  13.095   2.770
73456W        W38716  10.246  40.768   2.637
73457W        W38717   0.079  12.280  10.050
73458W        W38718  43.474  40.499   0.285
73459W        W38719  18.815  15.571   3.307
73460W        W38720  12.221   8.742  14.120
73461W        W38721   3.516  10.616  11.435
73462W        W38722  18.829  31.704   3.708
73463W        W38723  43.880  37.967   2.703
73464W        W38724  21.593  24.925  12.462
73465W        W38725  19.023  10.403  13.475
73466W        W38726   8.021  22.070  10.698
73467W        W38727   7.133  37.030   2.297
73468W        W38728   9.782  18.522   1.205
73469W        W38729  28.032  11.008  11.600
73470W        W38730  30.150  30.629  13.518
73471W        W38731   4.471  37.321  12.967
73472W        W38732  26.957  42.051  13.996
73473W        W38733  11.596  27.074  12.039
73474W        W38734  42.741  35.301   1.306
73475W        W38735  28.739   7.315   1.195
73476W        W38736  43.754  20.738  14.324
73477W        W38737  37.320  27.795   3.244
73478W        W38738   3.410  17.610   0.687
73479W        W38739  39.140  22.551   0.293
73480W        W38740  44.378  27.086  12.516
73481W        W38741  41.763  35.669  11.376
73482W        W38742  14.850  29.099   2.506
73483W        W38743  13.494  31.065  11.231
73484W        W38744  34.605  13.039   4.134
73485W        W38745  33.620   1.521  12.548
73486W        W38746  39.287  34.115  10.618
73487W        W38747  26.497  24.792  12.929
73488W        W38748  37.499  43.206   9.867
73489W        W38749  18.586   9.763  14.894
73490W        W38750  43.569  26.115   4.408
73491W        W38751   4.235  27.970  14.473
73492W        W38752  33.576  29.960   1.845
73493W        W38753   5.007  23.984  12.045
73494W        W38754  24.486  41.105   2.817
73495W        W38755  36.502  14.148   1.527
73496W        W38756  38.302   9.744  10.954
73497W        W38757  25.924   8.787   5.134
73498W        W38758  40.457  34.644  14.366
73499W        W38759  25.246   1.243   1.408
73500W        W38760  43.775  30.810   4.077
73501W        W38761   6.000  38.765  12.016
73502W        W38762  22.090  44.212   3.880
73503W        W38763  15.739  12.276   1.008
73504W        W38764   7.619  22.777   0.799
73505W        W38765  15.518  35.024  12.434
73506W        W38766  26.069  16.958  14.776
73507W        W38767  38.741  12.134   2.411
73508W        W38768  21.027  26.165  13.571
73509W        W38769  16.064   5.806  10.745
73510W        W38770  34.210  43.010   0.208
73511W        W38771  15.839  23.532   4.139
73512W        W38772  42.056  42.421   3.423
73513W        W38773  25.998  24.660   2.635
73514W        W38774  12.884   4.519   0.175
73515W        W38775  24.471  33.438  14.926
73516W        W38776  10.344  13.439  11.650
73517W        W38777   3.751  36.451  10.663
73518W        W38778  33.748  28.444  12.577
73519W        W38779  37.699  22.590  11.276
73520W        W38780  31.385  24.738  12.933
73521W        W38781  17.503  19.501   0.440
73522W        W38782   8.735  42.772   4.936
73523W        W38783   7.487  25.567   1.030
73524W        W38784  39.274  38.306  12.889
73525W        W38785  33.470  18.639   2.135
73526W        W38786  32.595  16.390   0.122
73527W        W38787  13.225  41.691  13.118
73528W        W38788  34.797  13.778  14.734
73529W        W38789  33.144  43.796  10.729
73530W        W38790   5.807  17.574   3.610
73531W        W38791  10.680  12.057  10.595
73532W        W38792  44.394  28.468  14.502
73533W        W38793  22.054  26.199  11.548
73534W        W38794  19.641  38.357  14.457
73535W        W38795   0.786  31.233  14.860
73536W        W38796  44.570  15.043   4.289
73537W        W38797  31.755  39.760   0.333
73538W        W38798  43.480  27.616   1.147
73539W        W38799  43.878  25.457   3.334
73540W        W38800  24.984  14.905  13.034
73541W        W38801   8.397   5.545  12.780
73542W        W38802  25.073   9.800   3.687
73543W        W38803  18.637  32.452  10.613
73544W        W38804  19.720  32.024  13.724
73545W        W38805  23.908  40.805   1.768
73546W        W38806  12.771   2.243   0.940
73547W        W38807   2.549  29.865   3.873
73548W        W38808  36.048  23.963   2.220
73549W        W38809  18.525  18.294  11.126
73550W        W38810  27.045   2.664  11.462
73551W        W38811  39.604  35.044  14.374
73552W        W38812  44.342   4.247   0.031
73553W        W38813  13.282  13.860  13.610
73554W        W38814  23.798   7.386   0.485
73555W        W38815  19.423  33.628  14.248
73556W        W38816   6.486  12.473   4.198
73557W        W38817  25.695  12.575  13.025
73558W        W38818  14.173   7.930   0.412
73559W        W38819  35.521   0.417  10.771
73560W        W38820  28.034  28.453  11.908
73561W        W38821   7.418  38.871  14.861
73562W        W38822  24.167  22.806   0.228
73563W        W38823  20.103  12.761  14.431
73564W        W38824  36.910   9.846   3.695
73565W        W38825  15.617  42.757   2.240
73566W        W38826  16.868   3.312  12.123
73567W        W38827   8.489  11.523  12.469
73568W        W38828   1.977  27.278   3.572
73569W        W38829  16.555  16.093  12.707
73570W        W38830  17.601  25.181  14.457
73571W        W38831  22.924  32.941   3.709
73572W        W38832   7.581   6.360  14.934
73573W        W38833   8.552   1.648  11.366
73574W        W38834   8.876  15.197  13.918
73575W        W38835  13.810  16.590  10.794
73576W        W38836  30.167  19.404  11.812
73577W        W38837  34.250  27.019   3.797
73578W        W38838  17.640  12.228   2.568
73579W        W38839  28.819  34.485  14.460
73580W        W38840  36.046  33.850   1.415
73581W        W38841   2.893  12.054   0.446
73582W        W38842  11.263   4.162  12.985
73583W        W38843  24.178  32.161  13.559
73584W        W38844  41.460  28.515   3.670
73585W        W38845  12.313  29.164   3.135
73586W        W38846  11.746  44.748   0.314
73587W        W38847  44.488  21.151   2.357
73588W        W38848  26.641  38.604  14.841
73589W        W38849  12.603  14.587  12.028
73590W        W38850  20.889  36.622   0.307
73591W        W38851  25.551  42.034  11.639
73592W        W38852  31.077   2.279  10.422
73593W        W38853  12.584  43.832   0.005
73594W        W38854   0.402  17.610  13.130
73595W        W38855  14.839  10.152  13.287
73596W        W38856   1.753   9.381   0.953
73597W        W38857  39.270  11.261   4.277
73598W        W38858   1.404  36.088   2.168
73599W        W38859  11.216  39.028   4.106
73600W        W38860  28.937  20.550   0.370
73601W        W38861  24.975  16.302   1.390
73602W        W38862  44.910  16.264  10.909
73603W        W38863  10.404  39.330   4.293
73604W        W38864  22.482   2.283   1.839
73605W        W38865   6.156   8.265   4.489
73606W        W38866  42.026   1.282  11.449
73607W        W38867  36.411  32.587   3.146
73608W        W38868  35.612  19.806  14.030
73609W        W38869  34.586  41.519   0.737
73610W        W38870  30.787  16.374   1.882
73611W        W38871   5.748  35.996   2.413
73612W        W38872  16.725  29.042  14.003
73613W        W38873  34.925  29.188  14.933
73614W        W38874  17.019  25.009   2.373
73615W        W38875  26.463  15.216  14.876
73616W        W38876   9.452  30.395   2.222
73617W        W38877  39.982  44.507   2.712
73618W        W38878  35.819  22.137   0.770
73619W        W38879   0.799  36.332   0.383
73620W        W38880  31.116  11.056  12.929
73621W        W38881  39.431  41.900  13.612
73622W        W38882  29.406  38.307   1.939
73623W        W38883  15.226  29.927  14.421
73624W        W38884   3.055  15.503   0.628
73625W        W38885  40.952  13.786  10.797
73626W        W38886   5.740  35.151  12.410
73627W        W38887  32.014   2.371   3.112
73628W        W38888   1.155  13.728   1.418
73629W        W38889  16.097   7.745   4.180
73630W        W38890  25.629  30.616   4.547
73631W        W38891  23.610  14.978  13.166
73632W        W38892  17.146  14.194  13.259
73633W        W38893  26.737  28.667  12.350
73634W        W38894  22.816   2.675   1.742
73635W        W38895  33.437  35.459   1.767
73636W        W38896   0.720   5.953  11.374
73637W        W38897   1.342  44.233  13.612
73638W        W38898   3.814  32.095  11.623
73639W        W38899   3.186   8.365  13.473
73640W        W38900  22.566  31.501   2.683
73641W        W38901  23.267  42.526   0.680
73642W        W38902  21.054  11.779  11.206
73643W        W38903  44.301   7.911  10.294
73644W        W38904   1.799  26.388  14.713
73645W        W38905  43.679  34.335  12.770
73646W        W38906  23.433   2.987   3.251
73647W        W38907   7.227  21.702  11.610
73648W        W38908  37.446  15.128   3.425
73649W        W38909  24.533  10.261  14.782
73650W        W38910  39.091  39.265  12.892
73651W        W38911  19.724   6.720   0.931
73652W        W38912  37.103   8.334  12.737
73653W        W38913  29.963  14.392  14.293
73654W        W38914  27.411   6.254   2.811
73655W        W38915  36.620  10.654  13.580
73656W        W38916  19.707  37.588   0.352
73657W        W38917   6.554  19.335   3.690
73658W        W38918  12.220  41.483  13.375
73659W        W38919  39.976  17.572  13.017
73660W        W38920  40.296  34.117  14.372
73661W        W38921  18.493  35.703  14.663
73662W        W38922  23.193  30.389   2.774
73663W        W38923  23.104   4.517  13.397
73664W        W38924  15.743  42.748   3.138
73665W        W38925   7.642  15.796  12.868
73666W        W38926   2.895  13.661   4.200
73667W        W38927  19.088   2.793   2.735
73668W        W38928  38.447  38.090  11.737
73669W        W38929  42.283  44.891   4.237
73670W        W38930  36.057  17.756   0.346
73671W        W38931  32.062   1.778   0.920
73672W        W38932  32.553  35.460  12.321
73673W        W38933  44.421  11.563  13.632
73674W        W38934  40.245  24.038   2.644
73675W        W38935  27.462  42.076  13.938
73676W        W38936  28.157  38.318  13.864
73677W        W38937  30.870  26.665   2.794
73678W        W38938  29.525   7.331  13.558
73679W        W38939  16.740  16.617   1.342
73680W        W38940  17.784   2.816   1.338
73681W        W38941  39.401  25.888   3.318
73682W        W38942  27.409  34.537  13.447
73683W        W38943  34.701   5.255  11.476
73684W        W38944  33.794  44.797   2.116
73685W        W38945   5.184   6.295  12.046
73686W        W38946  30.162  39.193  14.021
73687W        W38947  44.479  10.447  14.308
73688W        W38948  22.177  38.573  11.556
73689W        W38949  28.137  18.309  14.031
73690W        W38950   6.777  37.525   2.627
73691W        W38951   6.203  27.704   4.175
73692W        W38952  16.664   9.177  13.237
73693W        W38953   2.708  16.290   0.871
73694W        W38954   2.206  32.558   2.432
73695W        W38955  29.035   5.206   3.752
73696W        W38956  25.852  25.469  11.753
73697W        W38957  24.136   9.837   3.698
73698W        W38958  25.659  18.065   0.400
73699W        W38959  31.006  39.825   3.612
73700W        W38960  38.436  12.627   1.365
73701W        W38961  14.595   3.554   2.718
73702W        W38962  19.170   4.964  11.261
73703W        W38963  17.084  10.444   4.605
73704W        W38964  36.513  34.091   3.145
73705W        W38965  27.207  27.066  14.009
73706W        W38966   4.760  19.499  12.586
73707W        W38967  20.710  35.821   3.031
73708W        W38968  36.013  23.468   4.509
73709W        W38969  16.348  28.683  14.021
73710W        W38970  24.119  44.318   1.377
73711W        W38971   9.759  39.052   1.458
73712W        W38972  17.227  38.325   4.944
73713W        W38973  22.213  30.159  14.357
73714W        W38974   4.268  37.592   0.863
73715W        W38975  30.028  30.130   1.146
73716W        W38976  29.756  36.526   3.642
73717W        W38977  44.808  32.952   1.497
73718W        W38978  30.468  17.996   3.842
73719W        W38979   5.453  24.502  11.105
73720W        W38980  44.416   0.810   4.992
73721W        W38981  16.684  12.194   2.725
73722W        W38982  30.049  24.947  13.507
73723W        W38983  13.568  42.716  14.490
73724W        W38984  32.682  16.686   4.070
73725W        W38985  38.903  43.375   0.374
73726W        W38986  32.472   7.369  12.971
73727W        W38987  37.198  12.188   0.461
73728W        W38988  25.015  12.871  11.098
73729W        W38989  16.897  25.154   0.934
73730W        W38990  23.125   6.236  11.660
73731W        W38991  41.213  25.043   4.170
73732W        W38992  34.058   3.834   3.254
73733W        W38993  39.669  42.162   2.604
73734W        W38994   7.879  12.555   3.009
73735W        W38995   8.181  43.745   1.902
73736W        W38996  43.926  35.074   3.760
73737W        W38997  38.544  20.693  13.135
73738W        W38998   9.293   2.201  11.572
73739W        W38999  27.813  33.531  10.570
73740W        W39000  30.360  41.275   4.587
73741W        W39001  14.274  32.542  14.505
73742W        W39002  14.849  16.382  12.420
73743W        W39003  42.407   3.514   2.127
73744W        W39004  21.721  18.032  12.598
73745W        W39005  23.869  35.634   1.678
73746W        W39006  35.058  17.131  12.337
73747W        W39007  29.274  32.154   9.786
73748W        W39008   6.419  23.719   3.698
73749W        W39009   5.221   1.667  12.898
73750W        W39010  40.774  14.575   3.196
73751W        W39011  11.011  33.390  12.004
73752W        W39012  42.843  16.748  14.406
73753W        W39013  21.687  29.935  11.991
73754W        W39014   9.769  25.882  12.438
73755W        W39015  41.982   8.286   4.652
73756W        W39016   4.529  31.643   0.831
73757W        W39017  37.826  21.615   2.587
73758W        W39018  39.899  28.183  11.151
73759W        W39019   1.892  32.286   2.116
73760W        W39020   9.728  10.902  14.935
73761W        W39021  29.111  23.119  11.057
73762W        W39022  17.732  38.470   4.743
73763W        W39023  29.982  41.989   0.833
73764W        W39024  25.588  24.386   1.237
73765W        W39025  21.818  18.094   9.847
73766W        W39026  36.047  21.287   3.336
73767W        W39027   0.302  20.146   4.509
73768W        W39028  19.103  31.510  11.554
73769W        W39029   3.885  28.144   4.232
73770W        W39030   0.281  26.139  13.839
73771W        W39031  29.606  36.502   0.276
73772W        W39032  24.756  40.027  13.043
73773W        W39033  16.156  30.571  14.831
73774W        W39034  11.164  21.609  11.950
73775W        W39035   3.359  15.592  14.954
73776W        W39036  33.006  44.967  12.113
73777W        W39037  13.232  11.663   0.388
73778W        W39038   7.873  14.798  13.016
73779W        W39039   5.616  29.474  10.008
73780W        W39040  42.151   5.474   3.099
73781W        W39041  24.033  17.313  12.399
73782W        W39042   4.182  44.433  10.432
73783W        W39043  32.547  10.121  13.401
73784W        W39044  13.141   5.157  10.973
73785W        W39045  25.281   2.954  13.289
73786W        W39046  44.724  44.400  11.661
73787W        W39047   1.438   8.017   3.072
73788W        W39048  42.266   6.486  14.880
73789W        W39049  36.069   2.153  10.135
73790W        W39050  27.913  12.612   4.103
73791W        W39051  37.361  16.850   4.541
73792W        W39052  21.498   4.919  12.183
73793W        W39053  41.676   3.885   3.608
73794W        W39054  44.469  25.131  12.628
73795W        W39055  23.570   2.761  10.741
73796W        W39056  41.168  37.462  11.347
73797W        W39057  35.690  13.614   4.499
73798W        W39058   0.233  23.715  14.810
73799W        W39059  36.062  31.171   0.943
73800W        W39060  24.720   2.061  14.369
73801W        W39061  12.840  13.407   1.033
73802W        W39062  28.210  15.186   3.182
73803W        W39063  25.677  16.242  10.881
73804W        W39064  19.159  23.313  12.614
73805W        W39065  30.944   1.852  10.109
73806W        W39066  19.765  31.686   2.841
73807W        W39067  28.511  15.396   3.585
73808W        W39068  20.056  32.680   0.026
73809W        W39069  31.554  16.871   2.250
73810W        W39070  30.447  33.103  11.999
73811W        W39071  23.699  32.465   2.990
73812W        W39072  12.551  23.141   1.162
73813W        W39073  20.987  40.656  11.977
73814W        W39074  10.162  37.436  11.122
73815W        W39075   7.600  27.751   0.311
73816W        W39076   0.250  44.834  13.071
73817W        W39077  23.759  28.176  12.564
73818W        W39078  10.100   4.256   1.325
73819W        W39079  19.054  21.677   2.822
73820W        W39080  44.780  27.184  10.724
73821W        W39081  13.710  35.669   0.431
73822W        W39082  17.642  18.604   1.907
73823W        W39083   8.956  17.253  11.432
73824W        W39084   0.748  23.042   4.914
73825W        W39085   4.362  39.278   3.749
73826W        W39086  21.300  37.096  13.926
73827W        W39087   3.098  34.554   3.775
73828W        W39088  12.713  25.249  13.721
73829W        W39089  33.893  22.109  14.782
73830W        W39090  10.033  22.446   1.774
73831W        W39091  35.008  41.617  13.983
73832W        W39092  36.138  43.296  14.589
73833W        W39093  11.328  25.198   1.953
73834W        W39094   2.719  37.646  12.069
73835W        W39095  15.399   9.773   4.721
73836W        W39096  29.769   9.852  11.896
73837W        W39097  16.667  28.825   0.362
73838W        W39098  26.553  24.724  10.814
73839W        W39099  28.124  32.761   3.691
73840W        W39100  24.409   8.617   4.911
73841W        W39101   8.064  16.233  11.551
73842W        W39102  17.196   3.735   1.343
73843W        W39103  40.449   3.796  11.992
73844W        W39104   9.458  40.059   1.721
73845W        W39105   2.074  27.482  12.469
73846W        W39106  30.176   0.519   4.743
73847W        W39107  22.296  34.111  10.775
73848W        W39108  38.823  39.858  12.007
73849W        W39109  13.095  25.054   3.360
73850W        W39110  36.949  41.203  12.878
73851W        W39111  30.709   9.157   2.045
73852W        W39112  12.908  30.253  10.158
73853W        W39113  14.220  13.610  14.021
73854W        W39114  31.893  36.546   3.736
73855W        W39115  14.847  35.871  11.106
73856W        W39116  33.190  26.570  12.555
73857W        W39117  42.977  20.247  14.701
73858W        W39118  32.397  41.987   2.745
73859W        W39119  39.543  20.243  13.455
73860W        W39120  29.917   3.902   3.780
73861W        W39121  41.277  44.916   3.980
73862W        W39122  40.461  36.065  14.905
73863W        W39123  40.707  26.541   2.413
73864W        W39124  23.776  42.001  12.353
73865W        W39125  24.119  43.983  13.762
73866W        W39126  28.818   2.464  12.238
73867W        W39127   8.873  34.035  13.239
73868W        W39128  27.759  36.984  12.920
73869W        W39129   3.918  30.546   3.727
73870W        W39130  34.866   7.065  13.553
73871W        W39131   2.628  42.877   3.798
73872W        W39132  29.148  10.741   1.685
73873W        W39133  13.043  26.581   4.587
73874W        W39134  33.317  27.741  12.128
73875W        W39135  44.678  23.232   3.742
73876W        W39136  21.106  20.379  13.528
73877W        W39137  31.606  23.969  13.266
73878W        W39138  27.621   5.723   0.865
73879W        W39139  11.272  34.617   0.374
73880W        W39140  20.104   8.687   4.881
73881W        W39141  24.773  34.346  12.356
73882W        W39142  11.618  15.483   1.663
73883W        W39143  39.932  18.629  13.879
73884W        W39144  13.640  27.518   1.671
73885W        W39145  37.920   3.056  14.930
73886W        W39146   5.773  43.887  12.151
73887W        W39147  15.600  40.290  14.407
73888W        W39148  23.667  18.272  12.204
73889W        W39149  14.221  31.183  13.831
73890W        W39150  38.656  28.175   0.020
73891W        W39151  37.897  23.541  13.249
73892W        W39152  11.715  10.318   2.676
73893W        W39153  24.634  16.198  12.599
73894W        W39154  34.501  31.374  14.804
73895W        W39155  16.318   8.088  11.856
73896W        W39156  23.754  11.792   0.605
73897W        W39157  19.521  27.216  12.900
73898W        W39158  26.697  41.233  12.006
73899W        W39159   8.721  12.684  14.531
73900W        W39160  14.844  36.381  11.008
73901W        W39161  36.397  17.077   1.826
73902W        W39162  10.428  14.429  13.475
73903W        W39163  19.252  29.964   3.733
73904W        W39164  11.812  16.650  10.612
73905W        W39165  10.579   4.724   4.626
73906W        W39166   8.853  27.432   3.362
73907W        W39167  11.667  26.516   5.552
73908W        W39168  34.859  16.226  14.292
73909W        W39169  12.629  19.221   0.897
73910W        W39170  34.026  34.379  10.437
73911W        W39171   4.503   5.728  12.051
73912W        W39172   9.632  15.563  13.910
73913W        W39173  34.842  27.649  12.923
73914W        W39174   9.726  40.157  12.928
73915W        W39175  17.184  31.076  13.070
73916W        W39176  30.625  16.081   3.679
73917W        W39177   2.035   4.250   2.426
73918W        W39178   1.146  14.273  14.257
73919W        W39179   8.368  22.725  12.849
73920W        W39180  35.088  24.728  12.990
73921W        W39181  36.863   6.701  14.200
73922W        W39182  22.546  17.623   0.934
73923W        W39183  43.418   4.110   0.703
73924W        W39184  43.840  34.210  11.543
73925W        W39185   4.250  18.677   3.320
73926W        W39186  30.068  16.483   0.247
73927W        W39187   4.062  37.832  10.724
73928W        W39188  24.783  39.436   1.510
73929W        W39189  34.986  25.892   3.345
73930W        W39190  15.696  14.063   3.396
73931W        W39191  12.701   4.903  14.470
73932W        W39192   0.299   6.344   4.694
73933W        W39193  29.009   8.075   1.848
73934W        W39194   6.697  17.331   1.821
73935W        W39195  22.954  17.133   4.636
73936W        W39196  33.335  24.390   4.545
73937W        W39197  14.689   5.760  13.382
73938W        W39198  41.473  23.262   1.851
73939W        W39199  18.736  35.460  14.207
73940W        W39200   7.268   1.785  10.784
73941W        W39201  28.209  31.063  10.721
73942W        W39202  20.759  17.102   3.791
73943W        W39203  13.698  36.039   4.210
73944W        W39204  29.665  16.311   0.760
73945W        W39205  14.093  18.861  14.900
73946W        W39206  18.645  33.544  13.769
73947W        W39207  22.707  29.423   4.745
73948W        W39208  20.376  41.269  10.880
73949W        W39209  43.010  14.566  14.896
73950W        W39210  33.250  41.440  11.061
73951W        W39211   3.467  35.199  13.006
73952W        W39212  23.724  38.500  13.951
73953W        W39213   8.594  28.333   1.756
73954W        W39214   3.792  41.402  11.513
73955W        W39215   2.430   8.819   9.916
73956W        W39216  25.787  20.734  11.699
73957W        W39217  23.085  39.018  12.975
73958W        W39218  31.346   9.873   4.104
73959W        W39219  43.482  13.367  13.335
73960W        W39220   3.630  21.099  10.398
73961W        W39221  18.616  32.001  12.801
73962W        W39222  24.153  26.614  12.147
73963W        W39223   4.905   5.643   4.006
73964W        W39224  18.703  38.311  13.942
73965W        W39225   5.323   8.839   3.222
73966W        W39226  26.267  40.302   3.190
73967W        W39227  36.937  12.167   3.175
73968W        W39228  15.212  23.796  12.835
73969W        W39229  43.094  33.908   4.282
73970W        W39230  43.730  43.328   0.436
73971W        W39231  36.042  14.560  12.355
73972W        W39232  39.385  29.336  14.045
73973W        W39233  24.721  15.736  12.836
73974W        W39234  20.811  38.287  14.943
73975W        W39235  17.766  26.659  13.548
73976W        W39236  17.159  29.214  11.609
73977W        W39237  26.453  31.312  12.740
73978W        W39238  11.780   2.710   4.953
73979W        W39239  16.269  10.918  12.944
73980W        W39240  44.171  15.302  10.387
73981W        W39241   5.672  37.964  13.106
73982W        W39242   7.071  40.527   1.891
73983W        W39243  34.003  32.157   1.697
73984W        W39244   6.267  39.004   4.800
73985W        W39245  34.311   2.353  14.674
73986W        W39246  37.382  33.892  12.528
73987W        W39247   4.470   2.316  13.936
73988W        W39248  29.073  10.125  10.111
73989W        W39249  11.409  23.975   4.057
73990W        W39250   9.856  14.188   4.105
73991W        W39251  14.703   4.664  12.944
73992W        W39252  10.907   2.775  10.999
73993W        W39253   3.940  19.713  10.582
73994W        W39254  27.726  37.257   2.821
73995W        W39255  11.974  33.191  13.551
73996W        W39256   9.022  23.850   3.271
73997W        W39257  14.039  25.076  11.290
73998W        W39258  25.463   1.218   3.629
73999W        W39259  34.292  32.938   2.792
74000W        W39260   1.497  25.990  11.788
74001W        W39261  43.427  34.029  10.926
74002W        W39262  35.114  32.543   4.627
74003W        W39263   1.217  42.797  14.312
74004W        W39264  14.088  25.109  11.872
74005W        W39265   0.050  22.233  13.525
74006W        W39266  23.498  23.630  10.798
74007W        W39267  33.293   5.146  11.439
74008W        W39268  41.354  41.480   3.451
74009W        W39269   3.579  18.761  13.905
74010W        W39270  20.980  20.950  12.344
74011W        W39271  22.722  33.100   4.684
74012W        W39272  37.460  27.620   5.036
74013W        W39273  37.925  38.728  10.685
74014W        W39274  40.922  43.722   3.356
74015W        W39275   6.539  24.231  13.486
74016W        W39276  38.827  42.298  11.486
74017W        W39277   0.493  24.486   3.628
74018W        W39278  23.095  41.861   4.813
74019W        W39279  16.122  32.874  11.561
74020W        W39280  13.747  17.355  12.103
74021W        W39281  32.094   6.384   0.829
74022W        W39282   5.624  20.427   4.615
74023W        W39283  26.481   5.199  12.049
74024W        W39284  25.674  43.120   0.775
74025W        W39285  40.080  33.517   4.788
74026W        W39286  19.605  12.242   0.341
74027W        W39287  20.382   4.298  10.197
74028W        W39288  22.919  25.611  14.960
74029W        W39289   5.204  43.401   1.095
74030W        W39290   6.806  34.416  11.145
74031W        W39291  39.726  15.856   1.984
74032W        W39292  42.085  34.762   1.858
74033W        W39293  22.753  33.085   3.219
74034W        W39294  14.332   5.617   2.362
74035W        W39295   0.692   8.900  13.821
74036W        W39296  39.889  34.065  13.628
74037W        W39297  44.476  41.441   5.202
74038W        W39298   5.608  17.091   0.013
74039W        W39299  23.044  14.275  12.913
74040W        W39300  15.842  15.779   2.679
74041W        W39301   8.400  25.012   1.259
74042W        W39302  30.955  28.964  12.157
74043W        W39303  18.352  30.845  13.485
74044W        W39304   0.011  44.385  12.074
74045W        W39305   4.324   6.754  11.332
74046W        W39306  12.145   6.232  13.419
74047W        W39307  15.994  27.256  11.635
74048W        W39308  39.044  13.558   3.291
74049W        W39309   7.651   0.364  11.189
74050W        W39310  29.192  10.847  12.155
74051W        W39311  11.407   1.316   0.003
74052W        W39312  10.849  10.285  11.619
74053W        W39313  40.784  19.600   4.865
74054W        W39314  41.104  20.560   2.234
74055W        W39315  27.524  15.162  14.844
74056W        W39316  42.464  21.890  14.426
74057W        W39317  44.760  41.721   1.578
74058W        W39318  22.424  10.240   1.849
74059W        W39319  28.875  21.561  10.536
74060W        W39320  38.486  28.479  11.238
74061W        W39321  17.666  35.510  14.615
74062W        W39322  35.803  35.762   0.993
74063W        W39323  29.606  42.607  12.970
74064W        W39324   1.782  14.345   3.103
74065W        W39325  23.631   6.601   1.359
74066W        W39326  34.380  31.023  13.956
74067W        W39327  20.316  16.698  12.093
74068W        W39328  19.682  36.415   0.780
74069W        W39329  16.760   3.035   2.715
74070W        W39330  29.014   9.183  11.169
74071W        W39331  34.322   0.716  10.799
74072W        W39332  13.705  21.052   1.210
74073W        W39333  22.998  43.756  11.487
74074W        W39334  24.216   7.315   3.033
74075W        W39335  10.517  11.291  12.495
74076W        W39336  17.588  39.060   3.298
74077W        W39337  30.114  16.038   3.691
74078W        W39338  26.004  15.653   0.903
74079W        W39339  30.265  35.458  10.996
74080W        W39340  24.178  32.960  11.995
74081W        W39341  19.249  35.007  11.966
74082W        W39342  25.945  31.520  13.363
74083W        W39343  41.449  38.928   1.213
74084W        W39344  13.067  42.333  14.948
74085W        W39345  37.400  35.903  14.617
74086W        W39346  20.246  11.100  12.946
74087W        W39347  37.507  33.392   2.692
74088W        W39348   0.919  39.970   1.126
74089W        W39349  20.832  18.762   5.099
74090W        W39350  42.000   7.682  11.408
74091W        W39351  12.880  40.856   3.823
74092W        W39352  42.794  28.918   3.208
74093W        W39353   1.243   6.140  12.079
74094W        W39354  14.177  19.388  14.869
74095W        W39355  32.186  36.028   0.356
74096W        W39356  27.226   3.780  12.115
74097W        W39357  12.846  33.409   1.800
74098W        W39358  29.267  41.372   3.662
74099W        W39359  33.070  34.061  11.834
74100W        W39360  36.037  21.789  13.408
74101W        W39361  40.261  15.013   0.769
74102W        W39362   4.141  39.045   0.944
74103W        W39363  20.048  11.030   4.541
74104W        W39364  33.668  16.589  11.573
74105W        W39365  43.085  43.716  11.640
74106W        W39366  28.049  11.998   2.022
74107W        W39367  16.234   7.892  12.647
74108W        W39368  10.838  32.626   3.710
74109W        W39369  42.397   6.313   4.175
74110W        W39370   8.642  39.763  10.834
74111W        W39371  37.846  23.747   4.437
74112W        W39372  20.504  30.947   4.556
74113W        W39373  23.548  23.339   2.806
74114W        W39374  17.847   9.226  13.503
74115W        W39375  27.849   1.296   4.837
74116W        W39376   5.163  14.686  11.631
74117W        W39377  33.643  14.652   3.503
74118W        W39378  13.334  16.614   1.370
74119W        W39379  13.591  43.504  11.263
74120W        W39380  29.854  37.715  14.787
74121W        W39381  21.272  36.408  13.821
74122W        W39382   0.359  33.053  14.002
74123W        W39383  12.218  23.491   0.426
74124W        W39384   8.908  34.481   3.380
74125W        W39385   4.917  25.472   0.275
74126W        W39386   4.921  34.162   3.727
74127W        W39387  36.927  24.726   1.498
74128W        W39388  25.893  21.697   0.953
74129W        W39389  36.641  21.129  10.483
74130W        W39390  30.838  33.764  10.237
74131W        W39391  44.909  20.781  13.490
74132W        W39392  38.363  38.564   2.937
74133W        W39393  37.527  26.605   0.192
74134W        W39394  38.336  24.244  14.936
74135W        W39395  41.034   8.766  10.715
74136W        W39396  25.802   0.436   0.330
74137W        W39397  35.274  27.516   0.691
74138W        W39398  25.522  29.600   4.537
74139W        W39399  10.798  27.422   1.460
74140W        W39400   4.256  15.845  13.362
74141W        W39401  19.576  35.861  13.003
74142W        W39402  44.825  41.229   2.529
74143W        W39403  14.715   9.192   0.388
74144W        W39404  33.124  34.724   4.907
74145W        W39405  33.409  36.876  14.096
74146W        W39406   1.788  35.883  13.326
74147W        W39407  21.256  39.864  12.809
74148W        W39408  40.037  14.135   4.034
74149W        W39409  13.715  16.552   2.694
74150W        W39410   6.642  40.554   2.833
74151W        W39411  31.598  22.686  14.057
74152W        W39412  34.067   8.294  11.636
74153W        W39413  14.619  20.005   4.489
74154W        W39414  39.119  35.832  13.182
74155W        W39415  31.100  39.733  13.514
74156W        W39416  29.977  39.378   2.508
74157W        W39417  16.393  25.170   0.902
74158W        W39418  31.753  16.442   1.192
74159W        W39419  43.146  13.210   1.245
74160W        W39420  15.323  40.131  12.680
74161W        W39421  43.969  14.346   0.928
74162W        W39422   2.190   7.913  12.278
74163W        W39423  36.384   1.913  14.406
74164W        W39424  41.041  31.663   0.675
74165W        W39425  21.146  18.084   4.969
74166W        W39426   4.451   6.480   4.183
74167W        W39427   2.428  38.397   1.486
74168W        W39428   7.916  12.697   2.194
74169W        W39429  31.603   3.235   0.294
74170W        W39430  12.656   5.212   2.326
74171W        W39431  31.479   7.188  11.561
74172W        W39432   3.693  16.154   0.920
74173W        W39433  29.344  18.686   4.040
74174W        W39434  36.559  15.620  14.940
74175W        W39435  16.808  38.790  11.643
74176W        W39436  41.212   4.889   1.752
74177W        W39437   5.800  37.314   4.580
74178W        W39438   1.425  18.604   2.144
74179W        W39439  23.697  12.402   4.463
74180W        W39440  15.551  14.151  10.265
74181W        W39441  36.562  32.430  12.293
74182W        W39442   7.224  21.016   2.689
74183W        W39443  22.197  20.285   2.787
74184W        W39444  31.948  38.982  12.112
74185W        W39445  28.829  20.321   1.834
74186W        W39446  10.602   1.891   4.484
74187W        W39447  26.608  42.237  11.945
74188W        W39448  21.275  36.761   5.336
74189W        W39449  34.004  25.085  13.472
74190W        W39450   9.263  39.593   1.824
74191W        W39451  13.541  28.024  13.438
74192W        W39452   2.768   8.615   1.508
74193W        W39453  40.087  22.648   0.269
74194W        W39454  39.605  39.082   1.207
74195W        W39455   5.812  16.310   1.238
74196W        W39456  32.541   0.923   1.233
74197W        W39457  44.609  19.287   1.387
74198W        W39458  12.502  44.388   3.681
74199W        W39459  30.580  19.069   0.965
74200W        W39460  29.973  38.939   4.636
74201W        W39461  14.271   2.797  12.534
74202W        W39462   4.450  43.452   4.541
74203W        W39463  28.490  38.788   1.957
74204W        W39464  35.095  31.727  12.391
74205W        W39465  36.565  42.941  11.270
74206W        W39466   0.881  41.574  12.901
74207W        W39467  27.676   5.869  12.312
74208W        W39468   6.810   4.331   4.267
74209W        W39469  14.182   2.451   3.295
74210W        W39470   2.288  21.422   3.125
74211W        W39471  13.747  31.546  13.577
74212W        W39472   5.790  26.985   9.688
74213W        W39473  35.096   6.392   1.138
74214W        W39474  27.563  44.733   2.145
74215W        W39475  20.965  12.105  11.591
74216W        W39476   3.678  32.100  13.542
74217W        W39477  11.472  34.413  11.429
74218W        W39478  23.257  19.719   3.163
74219W        W39479  31.442  38.020   0.735
74220W        W39480   2.285  39.270  13.550
74221W        W39481  16.646  16.755  10.466
74222W        W39482  23.274  16.128   0.568
74223W        W39483  32.178   7.428  12.541
74224W        W39484  18.289   2.742  11.611
74225W        W39485   4.217   4.424  13.990
74226W        W39486   7.158  42.943  12.591
74227W        W39487  38.019  14.056  10.494
74228W        W39488   9.324  11.876  10.720
74229W        W39489  15.281  10.920   2.767
74230W        W39490   5.346  20.205  14.883
74231W        W39491  21.234  19.803  12.082
74232W        W39492  12.735   4.875   0.995
74233W        W39493  39.994   9.213  10.954
74234W        W39494   9.284  25.670   5.018
74235W        W39495   0.779   5.777   0.244
74236W        W39496  44.544  42.556   5.060
74237W        W39497  13.640  35.912   0.871
74238W        W39498  34.448  12.822  13.931
74239W        W39499  34.163   2.242   2.264
74240W        W39500   2.366   1.949  13.005
74241W        W39501  22.325   5.261   2.819
74242W        W39502  11.662  15.787  10.238
74243W        W39503  17.699  24.259   3.211
74244W        W39504  17.507  43.572   4.823
74245W        W39505  23.318  29.950  12.581
74246W        W39506   7.644  15.748   5.021
74247W        W39507  44.363  12.535   0.367
74248W        W39508   2.746   1.999  14.482
74249W        W39509  27.526   2.235   1.619
74250W        W39510  39.015  14.056   3.204
74251W        W39511   4.918  10.770  13.852
74252W        W39512  39.352  14.815   4.625
74253W        W39513  12.107  14.706  12.058
74254W        W39514   8.623  31.782  12.536
74255W        W39515  36.260  34.914   3.187
74256W        W39516   4.365  14.721   0.353
74257W        W39517  40.614   7.426  10.898
74258W        W39518   7.342  39.574   0.354
74259W        W39519  37.350  26.917   3.806
74260W        W39520  32.378   9.159  10.752
74261W        W39521  18.724  43.665   4.413
74262W        W39522  21.524  36.900   0.993
74263W        W39523  42.698  12.371   3.539
74264W        W39524   7.674  40.612  11.689
74265W        W39525  30.676  16.516  12.888
74266W        W39526  38.720  15.650  11.576
74267W        W39527  37.497  21.555  14.356
74268W        W39528   8.123  21.081   0.013
74269W        W39529  37.752  38.301   3.395
74270W        W39530  16.351   3.949  11.186
74271W        W39531  21.244  37.373  14.848
74272W        W39532  26.945  24.396  10.616
74273W        W39533  18.325  27.131  13.819
74274W        W39534  19.179  36.269  11.555
74275W        W39535  25.246  36.014   3.525
74276W        W39536   6.850  27.462  12.828
74277W        W39537  21.056  22.752   3.797
74278W        W39538  40.117  41.576   0.717
74279W        W39539  29.136   5.720   4.622
74280W        W39540  32.042  31.580  12.354
74281W        W39541  32.024  10.307   4.028
74282W        W39542  22.056   2.661  11.838
74283W        W39543  34.917  36.633  14.944
74284W        W39544  22.509  29.230  14.487
74285W        W39545  39.647  40.419   2.595
74286W        W39546   7.194  41.699   0.036
74287W        W39547   3.486   3.307   3.674
74288W        W39548  43.929  27.628  11.708
74289W        W39549  17.517   3.406  14.510
74290W        W39550  34.022  30.341  14.286
74291W        W39551  42.920  11.586   2.421
74292W        W39552  21.861  14.592   1.875
74293W        W39553  24.515   5.903  12.982
74294W        W39554  25.968   1.802  11.122
74295W        W39555  44.135  12.829  11.699
74296W        W39556   7.225  20.507  12.347
74297W        W39557  37.597  33.460  11.713
74298W        W39558  43.534  14.043   3.335
74299W        W39559   6.354  28.701   4.060
74300W        W39560  33.992  40.318   4.156
74301W        W39561  43.547  15.850  11.070
74302W        W39562  42.452  21.751  11.582
74303W        W39563  16.166   3.961   1.821
74304W        W39564   8.341  44.176  12.268
74305W        W39565  42.930  17.212  11.850
74306W        W39566  30.142  24.862   0.505
74307W        W39567  32.118  10.928  10.474
74308W        W39568  21.139  41.084   0.461
74309W        W39569  18.248  41.846   3.170
74310W        W39570  31.420  38.032  14.894
74311W        W39571  13.063  17.197   4.988
74312W        W39572  30.557   2.847  14.907
74313W        W39573   0.186  38.207   1.308
74314W        W39574  32.183  26.664  11.527
74315W        W39575  38.520  21.906  11.002
74316W        W39576  21.190   1.309  14.955
74317W        W39577   6.239  42.799  11.161
74318W        W39578   0.379   1.558  14.425
74319W        W39579  20.666   7.937   4.622
74320W        W39580  41.541  27.399   2.287
74321W        W39581  11.277  24.951   3.689
74322W        W39582  17.892  15.320  12.637
74323W        W39583  34.178   9.104  13.525
74324W        W39584   5.792  25.675  12.339
74325W        W39585  29.879   0.015   3.369
74326W        W39586  17.658  38.813   3.741
74327W        W39587  19.110  35.262  11.520
74328W        W39588   1.722  40.569   0.836
74329W        W39589  30.471  15.265  14.528
74330W        W39590  22.364  13.362   3.236
74331W        W39591   4.722  17.236  11.993
74332W        W39592  34.894  23.098   1.393
74333W        W39593   7.637  40.383   5.193
74334W        W39594   8.645  29.595  14.044
74335W        W39595  25.509  23.638   0.401
74336W        W39596  44.828   3.738  12.085
74337W        W39597  23.437  36.653   1.909
74338W        W39598   0.733  19.979  14.979
74339W        W39599  21.542  13.396  14.136
74340W        W39600  32.181  43.270   4.946
74341W        W39601  24.738  42.843  14.837
74342W        W39602  29.273   8.708   3.601
74343W        W39603  12.219  38.351   4.688
74344W        W39604  38.948  16.585  10.132
74345W        W39605  36.985  21.229   3.302
74346W        W39606  28.640   7.638   4.026
74347W        W39607  19.561  37.808   2.267
74348W        W39608   9.582  27.334  12.762
74349W        W39609  22.208  35.646   0.942
74350W        W39610  38.947  16.365  12.584
74351W        W39611  28.010  36.585   3.317
74352W        W39612  19.101   9.922   2.156
74353W        W39613  34.390   4.520  14.357
74354W        W39614  30.846  37.798  12.092
74355W        W39615  19.766   2.875  14.292
74356W        W39616  33.541   7.254  14.979
74357W        W39617   7.795  14.522   4.220
74358W        W39618  35.290  42.933   2.299
74359W        W39619  13.745  32.387  11.101
74360W        W39620  39.884  38.529   0.261
74361W        W39621  16.151  44.199  11.465
74362W        W39622  11.181  20.380   0.803
74363W        W39623  44.363  20.209   2.376
74364W        W39624  20.484  31.798  12.585
74365W        W39625  29.069   8.882   2.318
74366W        W39626  11.296  22.990   2.691
74367W        W39627  29.151  37.673  10.340
74368W        W39628  20.924  30.945   0.477
74369W        W39629  26.124   1.463   1.925
74370W        W39630   0.452  32.981  13.060
74371W        W39631  39.017   0.803  12.590
74372W        W39632  36.761  40.348   4.971
74373W        W39633  43.314   6.474  12.846
74374W        W39634  39.980  10.282  11.407
74375W        W39635   7.755  35.470   3.398
74376W        W39636  31.011  33.815   0.771
74377W        W39637   0.474  19.619   1.125
74378W        W39638   9.593  42.953   2.397
74379W        W39639   3.565  41.988   2.361
74380W        W39640   3.270  17.807  10.682
74381W        W39641  27.358  17.616  10.727
74382W        W39642  35.114  43.726   0.034
74383W        W39643  33.290  37.867   1.914
74384W        W39644   0.226  15.102   2.821
74385W        W39645  10.632  43.297   4.432
74386W        W39646  21.078  21.514  12.951
74387W        W39647  29.428  23.735   1.684
74388W        W39648  38.090  35.803   4.552
74389W        W39649   0.996  35.359   1.279
74390W        W39650   6.727  41.490  13.864
74391W        W39651  31.036  32.027  11.689
74392W        W39652  16.081  38.876  13.914
74393W        W39653  19.299  41.571   2.118
74394W        W39654  38.616   6.739   0.200
74395W        W39655  41.034   1.254   3.941
74396W        W39656  32.684  10.000  11.134
74397W        W39657   4.478   2.545   2.938
74398W        W39658  38.364   9.681  11.965
74399W        W39659  11.876  30.594  11.006
74400W        W39660   1.282   6.327   0.738
74401W        W39661  42.575  23.271   4.135
74402W        W39662  26.762  29.575  12.411
74403W        W39663  37.908  24.946  13.587
74404W        W39664   3.354  13.783  11.587
74405W        W39665  30.086   6.298   1.661
74406W        W39666  17.243  30.019   1.086
74407W        W39667   1.978  41.478  14.256
74408W        W39668  19.229  12.221  13.573
74409W        W39669  28.947  35.136   2.135
74410W        W39670  43.241  17.287   3.256
74411W        W39671  41.757  20.844  11.158
74412W        W39672  36.499  37.833  11.574
74413W        W39673  23.720  22.201   0.691
74414W        W39674  15.726  14.259   0.158
74415W        W39675  13.498  25.439  14.018
74416W        W39676   6.774   7.879  10.745
74417W        W39677   1.405  18.209   1.338
74418W        W39678  20.242  37.057  14.181
74419W        W39679  17.745  30.985  10.934
74420W        W39680   4.309  32.151  10.293
74421W        W39681  29.480  23.045   3.410
74422W        W39682   3.644  37.987   3.478
74423W        W39683   3.462  26.220  13.915
74424W        W39684  31.573   8.940  14.321
74425W        W39685  26.021  26.998   1.011
74426W        W39686  13.366  14.056   2.373
74427W        W39687  19.715  41.982  10.577
74428W        W39688   8.867  17.978  10.978
74429W        W39689   6.773  17.762  14.788
74430W        W39690  19.056  17.112   4.690
74431W        W39691  29.599  21.252   4.854
74432W        W39692  32.117  35.784  10.400
74433W        W39693  41.995  15.766   1.732
74434W        W39694   3.486   1.533   0.734
74435W        W39695   5.149  14.869  10.747
74436W        W39696  25.218  42.763   0.128
74437W        W39697   0.827  39.480  11.677
74438W        W39698   7.766  41.281  14.769
74439W        W39699  34.479   0.739   4.049
74440W        W39700  17.622   1.467  14.606
74441W        W39701  22.526  42.971  12.525
74442W        W39702   2.875  32.513   2.197
74443W        W39703  11.161   2.488  12.710
74444W        W39704  26.400  35.066   3.535
74445W        W39705  18.633   0.943  11.041
74446W        W39706   3.487   2.960   4.648
74447W        W39707  27.937  15.568   0.295
74448W        W39708  18.185  13.549   2.287
74449W        W39709  25.599  19.205   0.999
74450W        W39710  33.303  28.882  14.442
74451W        W39711  39.055  12.150   3.700
74452W        W39712  28.459   5.742   3.858
74453W        W39713   8.652  28.480   4.069
74454W        W39714  35.414  40.760   4.058
74455W        W39715   2.308   9.655   2.210
74456W        W39716  17.789  10.844   1.748
74457W        W39717  41.448  44.395  13.085
74458W        W39718   4.098  29.034   1.653
74459W        W39719  14.145   7.969   1.255
74460W        W39720   0.524  43.342  12.575
74461W        W39721  32.172  26.138   3.256
74462W        W39722  16.140  39.745  14.956
74463W        W39723  20.488  35.386   3.269
74464W        W39724   6.144  24.225   2.831
74465W        W39725   6.301  18.074   3.820
74466W        W39726  23.183  19.016   0.847
74467W        W39727   4.451  10.263   2.756
74468W        W39728   3.317  26.110   2.827
74469W        W39729  18.635  16.656  13.256
74470W        W39730  37.908  11.512  10.087
74471W        W39731  32.572  36.987   4.615
74472W        W39732   2.451  29.617  10.513
74473W        W39733  43.108  44.228  11.599
74474W        W39734  11.224  24.296  14.872
74475W        W39735  21.476  17.306  14.857
74476W        W39736  32.406  31.566  12.708
74477W        W39737  40.953  17.313   3.075
74478W        W39738  14.847  38.029  13.230
74479W        W39739   8.886  36.468   3.071
74480W        W39740  36.016  14.781   4.474
74481W        W39741   8.265  23.631   3.566
74482W        W39742  31.567  18.343  11.747
74483W        W39743   6.646  19.869  12.051
74484W        W39744   0.283  31.073  11.583
74485W        W39745  42.975  36.121  13.269
74486W        W39746  24.024  38.540   3.227
74487W        W39747   0.658  18.675   1.206
74488W        W39748  38.538  19.536  13.971
74489W        W39749   1.939  13.838  10.723
74490W        W39750  18.134  25.649   0.292
74491W        W39751  10.598  16.010  12.017
74492W        W39752  32.169  30.916   2.881
74493W        W39753  40.504   3.456   2.335
74494W        W39754  25.937  20.749  12.973
74495W        W39755  33.100  37.103  13.302
74496W        W39756   5.920  37.380  12.497
74497W        W39757   1.606   1.591  12.460
74498W        W39758   1.379  35.452  12.398
74499W        W39759  25.300  28.660   3.659
74500W        W39760  17.011  41.016  14.043
74501W        W39761  14.758  12.906   1.345
74502W        W39762  41.959  37.322   5.421
74503W        W39763  28.851  17.689   5.411
74504W        W39764  13.201  40.383  13.820
74505W        W39765  23.520  30.489  13.796
74506W        W39766   2.873   6.136   2.287
74507W        W39767  20.374  36.231   5.010
74508W        W39768  10.839  32.328  12.692
74509W        W39769  30.613   3.237   1.248
74510W        W39770  18.123  19.727   1.305
74511W        W39771  31.890   6.889  11.527
74512W        W39772  21.474   3.100   1.183
74513W        W39773   1.503   5.856  12.421
74514W        W39774  13.731  18.183   3.151
74515W        W39775  27.378   0.338  14.005
74516W        W39776  23.954  12.769  12.402
74517W        W39777   3.294  24.295  10.732
74518W        W39778  23.236   3.788   2.881
74519W        W39779   5.704  36.709  12.073
74520W        W39780  24.624  12.088   3.256
74521W        W39781  42.487   8.319   2.008
74522W        W39782  21.031  26.203   3.771
74523W        W39783   3.748  10.443   2.365
74524W        W39784  30.615  22.409   5.052
74525W        W39785  23.595  41.344  10.531
74526W        W39786  37.785  18.532   4.095
74527W        W39787  44.955   7.226  11.660
74528W        W39788  18.611  12.605   1.000
74529W        W39789  37.482   0.995   3.280
74530W        W39790  28.571  14.309   2.858
74531W        W39791   6.663   1.228  14.597
74532W        W39792  32.095  23.211  10.289
74533W        W39793  30.104  16.076   0.612
74534W        W39794   9.889  13.675  12.400
74535W        W39795  19.577   6.879   3.658
74536W        W39796  35.125  31.080   4.130
74537W        W39797  18.833  40.985  14.329
74538W        W39798  16.207  31.453   2.130
74539W        W39799  12.584  26.843   9.667
74540W        W39800   3.067  11.771  12.151
74541W        W39801   8.654   8.656   5.455
74542W        W39802   9.984   2.334   4.067
74543W        W39803  26.721  34.626  11.256
74544W        W39804   2.662   2.838   1.521
74545W        W39805  42.144   1.036  10.334
74546W        W39806  17.528  29.950   4.129
74547W        W39807  21.979   4.954  11.921
74548W        W39808  24.256  29.052  12.741
74549W        W39809  19.730   9.080  12.532
74550W        W39810  34.760  27.091  12.050
74551W        W39811  29.394  43.754   4.720
74552W        W39812  12.328   7.277   0.053
74553W        W39813   3.320  44.746   2.866
74554W        W39814  33.158  22.135   1.880
74555W        W39815  20.823  42.362   0.688
74556W        W39816  37.815  18.049  11.237
74557W        W39817  40.846  25.216  10.689
74558W        W39818  13.276  41.575  13.999
74559W        W39819  22.233  26.753   0.324
74560W        W39820  37.629  33.181  13.105
74561W        W39821   8.137  24.670   2.580
74562W        W39822  28.093  27.937  14.275
74563W        W39823   9.014  19.713   0.913
74564W        W39824  16.349  15.641  11.101
74565W        W39825  20.208  14.354  13.508
74566W        W39826  31.121  37.404   4.620
74567W        W39827  41.904  43.807  12.017
74568W        W39828   0.392   4.911   1.630
74569W        W39829  22.018  20.252  10.254
74570W        W39830  19.616  33.630   3.666
74571W        W39831  30.957  12.127  12.898
74572W        W39832   6.968  30.965   4.137
74573W        W39833  31.198  17.229  12.515
74574W        W39834   0.484  14.583  13.397
74575W        W39835  14.375  10.082  13.751
74576W        W39836  16.850  34.352   2.268
74577W        W39837  40.971  28.115  14.704
74578W        W39838  43.018  17.097   1.184
74579W        W39839   2.111  22.377  14.570
74580W        W39840  15.845  15.181  13.833
74581W        W39841  38.364  27.627   2.441
74582W        W39842  33.477  11.929  14.959
74583W        W39843  43.417  18.487  14.563
74584W        W39844  20.317  40.968   1.192
74585W        W39845  23.615  30.439   4.269
74586W        W39846  41.271  33.113   2.041
74587W        W39847  42.758  31.892   2.296
74588W        W39848   6.612   5.288  11.938
74589W        W39849  37.353   4.335   0.834
74590W        W39850  26.166  21.532   4.108
74591W        W39851  20.011  27.251   0.034
74592W        W39852  44.986   7.411   4.745
74593W        W39853  32.401  41.770  13.460
74594W        W39854  21.252  35.546  11.044
74595W        W39855  12.492  33.892   0.054
74596W        W39856   1.354   9.436   1.753
74597W        W39857  27.182  31.757  13.403
74598W        W39858  17.647   1.946  11.541
74599W        W39859   9.167  34.006   3.219
74600W        W39860  24.332  38.543   5.372
74601W        W39861   1.004  42.024  14.008
74602W        W39862  43.730  10.804  12.216
74603W        W39863   9.397  32.199   0.781
74604W        W39864  21.903  23.109  11.190
74605W        W39865  10.461  20.862  14.834
74606W        W39866  41.824  35.811   3.803
74607W        W39867  43.072  35.357  12.637
74608W        W39868   0.124  12.502  11.818
74609W        W39869  24.983  31.608  11.174
74610W        W39870  36.531  21.645  13.385
74611W        W39871  34.075  37.381  14.519
74612W        W39872  41.983  34.420   2.815
74613W        W39873   4.394  44.834   3.308
74614W        W39874  34.289  10.860   0.934
74615W        W39875  42.824  16.321  14.113
74616W        W39876  19.642  20.267   0.878
74617W        W39877  24.069  24.062  13.340
74618W        W39878  12.118  11.331  12.944
74619W        W39879   9.830  33.513   3.058
74620W        W39880   8.928  21.157  13.553
74621W        W39881  21.622  24.694   4.620
74622W        W39882  38.914  13.527   0.725
74623W        W39883  33.264   5.314   4.127
74624W        W39884  15.396  26.568   2.482
74625W        W39885  36.127  28.976  14.591
74626W        W39886  38.154   0.777   0.311
74627W        W39887  21.621  26.489   1.633
74628W        W39888  42.528  44.245   3.621
74629W        W39889  12.733  41.008   4.882
74630W        W39890  31.837  15.714   2.587
74631W        W39891  19.976  22.880  12.375
74632W        W39892  34.877  22.481  12.548
74633W        W39893  35.920  41.938  12.492
74634W        W39894  10.323   8.358  12.613
74635W        W39895  37.616  37.572   2.907
74636W        W39896  14.925  27.142  13.549
74637W        W39897  16.929  44.359  14.407
74638W        W39898  26.743  35.478   1.251
74639W        W39899  17.134  11.276   2.924
74640W        W39900   6.698  29.520   3.741
74641W        W39901  28.892  35.864  14.374
74642W        W39902  42.561  27.658  11.097
74643W        W39903  19.264   1.747   2.802
74644W        W39904  23.788   6.845   2.210
74645W        W39905   9.323  30.551  14.752
74646W        W39906   8.866   1.410  14.930
74647W        W39907  16.171  28.900  12.165
74648W        W39908   7.763   5.209  14.965
74649W        W39909   1.006   5.277   1.322
74650W        W39910  17.659  15.361   3.941
74651W        W39911  43.365  19.433   1.449
74652W        W39912  25.593  16.133  12.873
74653W        W39913  31.117  33.404   1.048
74654W        W39914  25.538   2.931  12.848
74655W        W39915   6.264  38.381  11.072
74656W        W39916  41.504  32.305   1.811
74657W        W39917   6.445   3.313   0.113
74658W        W39918  34.048  13.135   0.794
74659W        W39919   5.502  28.012  11.624
74660W        W39920  15.632  25.278  12.080
74661W        W39921  31.001  22.343   3.303
74662W        W39922  25.076  42.882  13.352
74663W        W39923  44.720  31.016  12.480
74664W        W39924  10.739  19.589  10.634
74665W        W39925  10.793   4.465  10.294
74666W        W39926  20.258  25.105   2.571
74667W        W39927  35.556  26.084   1.130
74668W        W39928  30.679   6.288  11.903
74669W        W39929   0.893  19.007  13.410
74670W        W39930   7.996  12.949   2.657
74671W        W39931  13.299  42.843  11.758
74672W        W39932   0.242  17.053  11.455
74673W        W39933  24.526  25.697   2.820
74674W        W39934  11.711  43.017  10.974
74675W        W39935  10.258   5.704   4.405
74676W        W39936  35.000   4.360  11.596
74677W        W39937  26.925  28.292   2.377
74678W        W39938  14.675  19.221  13.086
74679W        W39939  44.535  26.439  11.412
74680W        W39940   7.900  36.577   0.803
74681W        W39941   2.007  32.384  12.416
74682W        W39942  34.837  30.137   3.235
74683W        W39943  28.076  29.431   3.184
74684W        W39944  37.495  44.875  14.358
74685W        W39945  21.007  29.320   4.630
74686W        W39946  34.168  32.008   4.145
74687W        W39947  37.875  15.281   0.221
74688W        W39948   3.879   1.005  12.377
74689W        W39949  20.547  31.257   1.903
74690W        W39950  12.767  41.925  12.433
74691W        W39951  43.026  27.352  13.498
74692W        W39952  27.763   4.247  13.704
74693W        W39953  23.033  17.176   1.691
74694W        W39954   7.243  32.683  14.293
74695W        W39955  27.228  17.265   3.227
74696W        W39956  21.634  13.530   3.766
74697W        W39957  35.628  30.127   2.786
74698W        W39958  43.023  15.779  14.582
74699W        W39959  20.062  14.874   2.816
74700W        W39960  16.148  44.736   0.037
74701W        W39961  35.608  21.051   3.082
74702W        W39962  37.326  10.051   1.867
74703W        W39963  15.934  43.926  10.543
74704W        W39964  35.257   5.180   0.935
74705W        W39965  26.419  12.228   3.653
74706W        W39966  12.784  40.361  10.658
74707W        W39967  44.569   0.832   4.491
74708W        W39968  33.484  41.274   4.955
74709W        W39969  35.420  30.442   2.440
74710W        W39970   4.312  13.723  10.663
74711W        W39971   0.204  20.669  12.115
74712W        W39972  13.295  33.604   4.244
74713W        W39973   2.972   8.590   2.878
74714W        W39974  21.532  32.664   3.649
74715W        W39975  26.517  44.341   1.264
74716W        W39976  35.939   7.463  10.795
74717W        W39977   5.450  22.524  14.338
74718W        W39978  18.739  28.023  10.174
74719W        W39979   2.879   7.234  13.619
74720W        W39980  37.747  22.153   4.525
74721W        W39981  27.188  25.578  12.004
74722W        W39982  31.104  19.161  11.534
74723W        W39983   2.907  40.905  14.552
74724W        W39984   8.438   6.475  12.670
74725W        W39985   2.075  17.282   1.221
74726W        W39986  26.599   4.083  14.905
74727W        W39987   4.880  15.078   0.321
74728W        W39988   6.250  44.199   3.321
74729W        W39989  13.611   7.228   2.051
74730W        W39990  23.414  19.651  10.395
74731W        W39991  38.831  35.400  13.060
74732W        W39992  34.532  37.513   3.592
74733W        W39993  34.143  14.286  11.623
74734W        W39994   7.662   9.290  13.575
74735W        W39995  33.443   5.837  11.264
74736W        W39996   8.431  35.488   3.334
74737W        W39997   7.756   3.642  12.968
74738W        W39998  27.709  19.114  14.474
74739W        W39999  43.907  37.473   0.976
74740W        W40000  37.915  44.397   0.305
74741W        W40001  19.853  22.954  13.598
74742W        W40002  39.360   0.655   3.193
74743W        W40003  22.157  22.779  13.882
74744W        W40004  34.535   3.230   0.729
74745W        W40005  20.591  25.499  13.015
74746W        W40006  17.316  22.999  12.524
74747W        W40007  28.969   0.367  14.400
74748W        W40008  40.586   2.966  10.389
74749W        W40009   2.231  34.221  13.611
74750W        W40010  15.135  15.677   4.137
74751W        W40011  25.402  26.730  12.930
74752W        W40012  44.364  18.011   3.200
74753W        W40013  30.275  37.091   0.303
74754W        W40014   9.813  14.245   1.453
74755W        W40015  13.958  22.105  14.331
74756W        W40016  14.756  39.679  14.934
74757W        W40017  42.813  33.305  14.703
74758W        W40018  37.016   3.253   1.224
74759W        W40019   0.299  36.125   0.337
74760W        W40020   7.625  18.248   3.666
74761W        W40021  41.976   4.437   3.183
74762W        W40022  10.098  14.189   4.563
74763W        W40023  21.199  36.881   2.786
74764W        W40024  38.390  22.813   2.898
74765W        W40025  17.421  38.974  11.892
74766W        W40026  12.152   1.743  14.893
74767W        W40027  10.298   7.293  13.868
74768W        W40028  34.239   1.979   3.800
74769W        W40029  40.901  37.812   4.547
74770W        W40030  27.034   8.872  14.814
74771W        W40031   8.366  16.693   4.601
74772W        W40032  34.913   7.773  12.514
74773W        W40033  23.554  23.580   1.398
74774W        W40034  34.124  17.578   4.802
74775W        W40035  39.362   6.686   1.757
74776W        W40036  31.984  23.810   1.503
74777W        W40037  32.606   4.676  14.675
74778W        W40038  24.571  40.483  13.307
74779W        W40039  23.427  19.064   3.615
74780W        W40040  14.841  21.742  12.447
74781W        W40041  25.617   8.082  10.681
74782W        W40042   2.359  12.807  11.780
74783W        W40043  34.311  15.589   2.790
74784W        W40044  33.115  17.644  11.845
74785W        W40045   8.472  21.710  12.564
74786W        W40046  40.044  31.969   0.735
74787W        W40047  33.459  21.992  11.190
74788W        W40048   3.902   8.242   3.326
74789W        W40049  13.809  41.164   0.221
74790W        W40050  29.119  14.150   2.721
74791W        W40051  10.798   0.908   3.474
74792W        W40052  24.700  26.604   1.431
74793W        W40053   0.352   1.976  11.125
74794W        W40054  31.099  17.629  10.760
74795W        W40055  31.606  25.724  12.312
74796W        W40056  37.722  43.036  10.311
74797W        W40057   5.121  27.929   2.744
74798W        W40058  14.005  19.023  10.678
74799W        W40059  43.011  40.074  13.950
74800W        W40060  17.399  28.417   0.614
74801W        W40061  11.682  38.631   4.065
74802W        W40062  32.619  34.633  10.450
74803W        W40063  44.427   4.447   3.315
74804W        W40064   3.751   9.248   4.329
74805W        W40065  18.745  18.259  14.827
74806W        W40066   5.879  16.289  14.664
74807W        W40067  31.109   0.654  12.913
74808W        W40068  15.420  14.564  14.868
74809W        W40069  17.595  22.634   3.583
74810W        W40070  26.013  22.059   1.390
74811W        W40071   0.240  12.403   1.987
74812W        W40072  11.654   2.406  13.150
74813W        W40073  33.449  14.398   0.266
74814W        W40074  42.774  29.460   3.271
74815W        W40075  31.245   5.504  14.521
74816W        W40076  11.297  17.807  14.855
74817W        W40077  10.251  34.571  14.840
74818W        W40078  10.654  29.438   2.906
74819W        W40079  21.044  13.624  14.333
74820W        W40080  41.392   2.340   0.304
74821W        W40081  21.549  35.386   1.803
74822W        W40082   3.489  37.481   2.885
74823W        W40083   5.171  44.570  12.181
74824W        W40084   3.433  32.437   4.173
74825W        W40085  36.914   7.759  10.712
74826W        W40086  42.328  36.041  10.731
74827W        W40087  13.349  35.532   1.915
74828W        W40088  17.559  10.809  14.834
74829W        W40089  39.072  16.585   1.827
74830W        W40090  22.919  30.276   3.246
74831W        W40091  37.580  11.660  11.085
74832W        W40092  10.854  16.317  13.461
74833W        W40093  12.860   9.543  13.494
74834W        W40094  33.475  18.035   1.345
74835W        W40095  19.593  39.718  13.220
74836W        W40096  42.715   4.181  12.614
74837W        W40097  11.384  20.742  12.615
74838W        W40098  32.560  11.414  11.709
74839W        W40099  36.396  29.797  14.399
74840W        W40100  26.350  25.557  11.639
74841W        W40101  41.045  19.123   2.439
74842W        W40102  33.054  41.868  10.856
74843W        W40103   4.849  19.180   0.797
74844W        W40104   3.295  17.127   1.839
74845W        W40105   4.945   2.258  10.752
74846W        W40106  22.309  14.338   4.554
74847W        W40107  34.493  30.259  11.624
74848W        W40108  40.203  10.097  12.217
74849W        W40109  43.383   7.223  10.095
74850W        W40110  44.426  33.495  13.103
74851W        W40111   9.194  24.680  14.564
74852W        W40112   9.949  15.189  14.778
74853W        W40113   5.175  18.157   2.225
74854W        W40114  31.399  16.098   1.724
74855W        W40115  36.541  44.382   0.236
74856W        W40116  23.025  19.511   0.723
74857W        W40117  16.989   1.279   1.851
74858W        W40118  20.254  26.105   3.220
74859W        W40119   4.363  38.252   3.702
74860W        W40120  37.402  32.496  12.080
74861W        W40121  38.758  10.770   2.184
74862W        W40122   0.527  28.123  14.392
74863W        W40123  22.125  43.536  14.348
74864W        W40124  23.809  22.798  13.782
74865W        W40125  40.287  18.761   3.753
74866W        W40126  22.244  19.769   0.284
74867W        W40127  34.814  28.934   3.780
74868W        W40128  44.356  31.835  12.124
74869W        W40129  22.704  22.254   2.846
74870W        W40130  36.829  26.098   0.167
74871W        W40131  19.595  23.561   1.149
74872W        W40132   6.839  37.210  12.038
74873W        W40133   7.599   1.999  11.457
74874W        W40134  13.969  25.206  14.027
74875W        W40135  18.792  38.088  10.584
74876W        W40136  29.252  29.866  11.132
74877W        W40137  31.996  27.159  14.422
74878W        W40138  24.247  40.152  13.058
74879W        W40139  18.090   8.773   3.263
74880W        W40140   2.251  24.904   0.190
74881W        W40141  34.375  38.935   2.781
74882W        W40142  12.210  16.401  13.638
74883W        W40143  16.022   3.163  11.148
74884W        W40144   7.613  37.052  10.675
74885W        W40145  18.176  39.297  13.557
74886W        W40146  22.244  23.974   3.697
74887W        W40147  23.236   3.984  14.239
74888W        W40148  29.864  21.518  11.552
74889W        W40149   2.985  34.559   1.200
74890W        W40150   7.257  28.654   4.364
74891W        W40151  44.487  38.730  14.828
74892W        W40152  16.261  26.285   3.359
74893W        W40153  18.801  25.710  11.016
74894W        W40154  22.254  17.762   4.577
74895W        W40155  15.182  34.070  12.945
74896W        W40156   2.637   0.613   4.097
74897W        W40157  37.629  18.447   0.666
74898W        W40158  10.195  25.595  10.501
74899W        W40159  26.193   7.897  13.762
74900W        W40160  21.183  28.096   2.859
74901W        W40161  26.614  25.579   4.726
74902W        W40162  34.376  38.840   3.697
74903W        W40163   5.548  25.979   9.929
74904W        W40164  16.241  35.969  14.356
74905W        W40165   9.770  22.190  14.919
74906W        W40166  17.803  30.593   1.563
74907W        W40167  15.203  11.255  10.710
74908W        W40168   6.222   2.603  12.937
74909W        W40169  25.020  19.694   0.504
74910W        W40170  11.558  19.161  12.090
74911W        W40171  31.747   8.897   1.877
74912W        W40172  33.393  30.947  11.534
74913W        W40173  43.880  25.612  11.676
74914W        W40174   2.841  32.902   4.244
74915W        W40175  38.925  15.692  10.684
74916W        W40176  20.039  14.059  13.890
74917W        W40177  39.155  16.145  13.970
74918W        W40178  32.804  26.494   2.720
74919W        W40179   3.553  26.088   0.450
74920W        W40180   7.159  38.227   0.889
74921W        W40181  17.628   0.373  13.059
74922W        W40182  15.009  40.875  11.160
74923W        W40183  33.169  18.278  13.522
74924W        W40184   7.978  37.424  13.886
74925W        W40185  27.546   8.839  14.715
74926W        W40186  28.614   2.420  11.369
74927W        W40187  32.057  12.383   2.676
74928W        W40188  35.993  11.222  14.400
74929W        W40189  22.687  21.741  10.730
74930W        W40190  14.243  24.633  11.989
74931W        W40191  34.536  31.220   1.666
74932W        W40192  26.539   4.014   1.217
74933W        W40193   3.339  20.759  14.852
74934W        W40194  18.561  15.366  12.930
74935W        W40195  20.140  30.394  14.274
74936W        W40196  20.190   2.225   2.329
74937W        W40197  33.989  36.046  14.485
74938W        W40198  32.201  19.264  10.775
74939W        W40199  28.147  10.275   2.431
74940W        W40200  33.155  39.891  13.134
74941W        W40201   8.766  23.764  10.358
74942W        W40202  29.559  43.927  12.628
74943W        W40203   2.648  25.599  12.488
74944W        W40204  15.243   8.185   4.102
74945W        W40205  35.182  37.635  11.518
74946W        W40206  19.103  38.823   0.342
74947W        W40207  14.870  22.179   2.451
74948W        W40208  12.873   9.901   3.557
74949W        W40209  11.761  37.190   1.848
74950W        W40210  23.125  30.687   0.324
74951W        W40211  16.200  27.868  10.579
74952W        W40212  18.579  27.584  13.857
74953W        W40213  27.919  43.935   0.909
74954W        W40214   3.044  34.601  14.399
74955W        W40215  31.883  20.579  12.009
74956W        W40216  38.223  36.956  10.516
74957W        W40217  11.577   0.485  14.496
74958W        W40218   1.316  25.760  14.407
74959W        W40219  20.605  44.437  11.518
74960W        W40220  25.648  16.163   4.112
74961W        W40221  36.510   6.722   4.264
74962W        W40222  11.294  16.362  13.192
74963W        W40223  11.635  12.483  11.565
74964W        W40224  20.130  11.867  14.977
74965W        W40225  14.663  19.422  10.677
74966W        W40226  42.893  28.009   4.171
74967W        W40227  34.518  35.568   2.819
74968W        W40228  18.638  33.851  11.526
74969W        W40229  29.944   8.237  12.970
74970W        W40230  32.701  38.456  11.173
74971W        W40231   0.550  16.154  10.371
74972W        W40232   0.542  15.588   1.189
74973W        W40233  23.990  42.842  14.534
74974W        W40234  12.536  27.917  12.524
74975W        W40235  39.710  21.441   0.043
74976W        W40236  40.019  23.211  14.377
74977W        W40237  31.997  23.639  12.165
74978W        W40238  29.348  16.558   4.008
74979W        W40239  42.089  43.257  14.248
74980W        W40240   9.410   6.459  10.183
74981W        W40241  33.933  11.648  14.877
74982W        W40242  12.523  28.126   2.592
74983W        W40243  36.865  34.947  10.436
74984W        W40244  25.008  38.527   1.292
74985W        W40245   4.040  29.448   2.268
74986W        W40246  25.550  23.662  13.906
74987W        W40247  13.412  22.952  11.621
74988W        W40248   2.329  17.142   4.077
74989W        W40249  20.135   6.675  12.984
74990W        W40250   1.252   2.271   1.831
74991W        W40251  37.577  32.971  11.880
74992W        W40252   7.304  40.087  12.057
74993W        W40253  16.547  17.682   3.190
74994W        W40254  16.627  28.928   0.880
74995W        W40255  43.933  36.877  13.999
74996W        W40256  19.686   5.831  11.012
74997W        W40257   8.805  16.217   0.471
74998W        W40258   5.846   7.121  14.513
74999W        W40259  11.669  31.914  13.829
75000W        W40260   5.325  32.134  11.111
75001W        W40261  25.154  27.482  14.259
75002W        W40262  16.803  16.212   4.123
75003W        W40263   7.187  21.206  11.530
75004W        W40264  17.419   2.912   4.560
75005W        W40265  22.644   0.743   3.290
75006W        W40266  23.274  29.565  12.982
75007W        W40267  17.742  42.268   1.932
75008W        W40268  18.364  12.596  14.725
75009W        W40269  33.724  17.170   0.248
75010W        W40270  13.669  41.070  11.665
75011W        W40271   8.386  10.360  14.770
75012W        W40272  31.343  12.276  14.390
75013W        W40273  42.278   3.987  13.530
75014W        W40274   1.507  21.204   2.270
75015W        W40275   8.416  15.810  11.838
75016W        W40276  14.485  16.882  14.174
75017W        W40277  42.600  39.458  14.500
75018W        W40278  26.393  39.814   3.269
75019W        W40279  41.115  21.710  13.552
75020W        W40280  33.464  37.785  14.936
75021W        W40281  11.527   9.706  13.395
75022W        W40282  20.084  38.930   3.006
75023W        W40283  29.585  34.926   1.786
75024W        W40284  10.417  11.252  13.774
75025W        W40285  30.164  15.658  14.899
75026W        W40286  42.332  42.770  14.334
75027W        W40287   1.237  24.312   2.422
75028W        W40288  21.525   9.776   1.377
75029W        W40289   9.107   6.208   4.588
75030W        W40290   4.931  30.448   3.810
75031W        W40291   9.242   3.239  11.482
75032W        W40292  21.404  40.053  14.122
75033W        W40293   3.373   3.830  12.738
75034W        W40294  39.484  17.050  14.065
75035W        W40295   0.167  19.298   1.940
75036W        W40296  38.718  14.775   0.454
75037W        W40297  40.095   9.880   1.754
75038W        W40298  13.967  40.113   4.169
75039W        W40299  25.419  11.675  14.369
75040W        W40300  23.305  12.638  14.788
75041W        W40301  15.107  17.603   4.885
75042W        W40302  27.145  34.860   2.846
75043W        W40303  14.923   5.610  10.811
75044W        W40304  36.638  32.330  13.932
75045W        W40305  42.895  19.181  12.744
75046W        W40306  16.309  17.551   3.665
75047W        W40307  42.459  31.890  13.109
75048W        W40308   9.806   3.908   1.999
75049W        W40309  13.538  22.025  13.522
75050W        W40310  29.860   7.575  11.052
75051W        W40311  14.448  40.029  13.868
75052W        W40312   9.724  26.514  13.988
75053W        W40313   0.680   2.358  13.304
75054W        W40314  25.939  15.697   3.263
75055W        W40315  15.475  41.100  13.737
75056W        W40316  16.583  31.831  14.462
75057W        W40317  30.729  25.516   0.480
75058W        W40318  32.886  17.795  14.024
75059W        W40319  16.528   8.246   2.652
75060W        W40320   7.183  20.136  14.320
75061W        W40321   5.799  42.103   0.699
75062W        W40322  31.082  20.537   1.843
75063W        W40323  38.807  33.106   3.716
75064W        W40324  40.020  44.770  14.789
75065W        W40325  34.539   6.191   3.166
75066W        W40326  41.500  32.626  14.795
75067W        W40327  15.109   8.364  13.499
75068W        W40328   0.829  22.509  11.596
75069W        W40329  29.123  38.413  11.779
75070W        W40330  37.527  29.659   5.188
75071W        W40331  42.020  28.270   1.460
75072W        W40332  38.943   4.423  13.033
75073W        W40333  44.832  29.162   4.778
75074W        W40334   7.557  23.550   4.290
75075W        W40335   8.594  28.992  12.158
75076W        W40336  17.343  31.806   0.156
75077W        W40337  10.824   6.247   3.674
75078W        W40338   6.291  12.188   4.577
75079W        W40339   1.379  14.540  12.853
75080W        W40340  24.213  16.552  10.298
75081W        W40341   2.195  17.655  13.115
75082W        W40342  17.547  37.401   0.233
75083W        W40343  44.772  14.618   4.078
75084W        W40344  18.703  24.193  13.294
75085W        W40345  39.703   4.191   0.790
75086W        W40346  12.743  34.950   4.777
75087W        W40347  41.062  44.427  13.974
75088W        W40348  26.274   0.312   4.502
75089W        W40349   2.881  33.669   3.814
75090W        W40350  28.161  23.813   0.409
75091W        W40351  34.736  12.598  10.707
75092W        W40352  25.260  30.233  11.204
75093W        W40353   8.183   0.355   2.796
75094W        W40354  18.269  34.524   0.292
75095W        W40355  36.484  27.686   4.538
75096W        W40356  37.636   7.401   3.211
75097W        W40357  21.972  17.316  10.999
75098W        W40358  39.452  35.464  13.069
75099W        W40359  29.538   6.631   3.058
75100W        W40360  15.186   0.998   4.041
75101W        W40361  16.092   3.458   1.773
75102W        W40362   7.857  24.621  14.899
75103W        W40363  21.153  41.615   0.228
75104W        W40364  41.231  25.584  11.768
75105W        W40365  10.760  30.699   5.247
75106W        W40366  20.385   6.208  12.910
75107W        W40367  25.918  32.954   3.241
75108W        W40368  30.455  33.436   3.294
75109W        W40369  15.136  25.422  12.734
75110W        W40370  36.431  41.514  14.968
75111W        W40371  20.134  22.699  13.073
75112W        W40372  37.961   6.607  14.939
75113W        W40373  13.697  32.149   0.311
75114W        W40374  24.981  33.650   4.093
75115W        W40375  37.608   8.220   1.729
75116W        W40376  24.273  13.683  14.868
75117W        W40377  13.479   6.345  11.499
75118W        W40378  20.713   3.986   4.352
75119W        W40379  18.979   7.312   1.683
75120W        W40380  18.371  40.317  12.009
75121W        W40381  43.789  32.904  12.489
75122W        W40382  38.932  38.936   3.056
75123W        W40383  17.779  23.931  12.523
75124W        W40384  29.976   2.754   4.962
75125W        W40385  13.880  26.131   2.892
75126W        W40386  18.017  12.741  13.401
75127W        W40387  28.511  16.707   0.833
75128W        W40388  41.617  31.889  12.694
75129W        W40389   9.847   3.748  11.275
75130W        W40390  20.038  16.507  12.462
75131W        W40391  42.619   9.313   2.602
75132W        W40392  33.129  31.650  11.500
75133W        W40393  13.229  18.807   3.967
75134W        W40394  18.998  33.405  11.525
75135W        W40395  27.672  34.647   3.059
75136W        W40396  12.713  20.857  13.177
75137W        W40397  17.589   7.163   1.060
75138W        W40398   1.484  13.166  10.906
75139W        W40399   7.430   3.382  13.328
75140W        W40400  38.132  32.069   4.318
75141W        W40401  32.343   8.136   3.357
75142W        W40402   8.760   1.934   4.217
75143W        W40403  18.233  11.362   4.508
75144W        W40404  12.362  28.176  14.374
75145W        W40405  36.374  20.681   4.077
75146W        W40406  10.808  20.762  11.405
75147W        W40407  15.675  27.880  13.447
75148W        W40408  15.235  13.437   1.540
75149W        W40409  16.913  17.799  14.485
75150W        W40410  35.823  31.971   2.101
75151W        W40411  13.422  18.501  14.519
75152W        W40412  15.785  20.698  14.471
75153W        W40413  41.053  35.935   1.042
75154W        W40414   6.436  23.478  13.180
75155W        W40415   0.274  17.334   4.652
75156W        W40416  10.336  22.118   2.797
75157W        W40417  16.760  16.751   0.309
75158W        W40418   8.613  26.889   2.267
75159W        W40419   8.974  37.650  12.937
75160W        W40420  28.922   4.877  13.794
75161W        W40421  27.957  31.543  10.941
75162W        W40422  21.729  13.367  10.668
75163W        W40423  28.471   5.760  11.188
75164W        W40424  26.855  38.778  13.595
75165W        W40425  37.904  44.730   3.341
75166W        W40426  19.039  42.820  13.893
75167W        W40427  13.566  30.610   0.778
75168W        W40428   0.662  23.602  14.137
75169W        W40429  30.411  21.721   0.461
75170W        W40430  33.518  27.829  14.252
75171W        W40431   5.427  22.070   2.655
75172W        W40432   6.923   0.984  10.743
75173W        W40433  14.169  14.224   4.444
75174W        W40434  35.099  38.483   3.869
75175W        W40435  27.540  23.990   3.243
75176W        W40436   6.818  12.788   0.574
75177W        W40437  40.360  29.241  14.010
75178W        W40438  30.631  30.239   2.991
75179W        W40439  26.484  10.614  13.344
75180W        W40440  20.410   9.540   1.155
75181W        W40441  14.036   3.513  11.012
75182W        W40442   0.579  39.489   3.381
75183W        W40443   3.920  14.092  11.548
75184W        W40444  39.793  39.370   3.254
75185W        W40445  30.419  30.886   0.333
75186W        W40446  16.491   2.914  13.309
75187W        W40447  12.505  43.070  13.521
75188W        W40448  17.637  21.292  10.409
75189W        W40449  18.047   0.698  14.418
75190W        W40450  41.868  11.665  10.207
75191W        W40451  13.056  42.085  10.915
75192W        W40452  19.148  19.723  12.098
75193W        W40453  42.786  26.733  11.046
75194W        W40454  25.439  38.598  13.072
75195W        W40455  13.647  26.671  12.006
75196W        W40456   1.239   6.826  13.955
75197W        W40457  13.146  20.754  10.571
75198W        W40458  27.644  11.701   1.931
75199W        W40459  15.794   3.828  14.974
75200W        W40460  42.556  14.737  13.350
75201W        W40461   4.739  36.686   2.816
75202W        W40462  23.742  11.634  12.963
75203W        W40463  15.994   2.288   2.441
75204W        W40464  22.960  35.169  13.526
75205W        W40465  42.209  35.701   3.107
75206W        W40466  29.001  37.942  11.576
75207W        W40467  35.532  31.648   0.066
75208W        W40468   4.764  21.998   2.672
75209W        W40469  17.665  23.022   4.019
75210W        W40470  23.792  14.767   0.294
75211W        W40471  13.645   2.289   4.288
75212W        W40472  13.286  40.110  10.732
75213W        W40473  13.835  16.825   4.575
75214W        W40474  26.702  42.516   1.794
75215W        W40475  13.629  19.817  10.830
75216W        W40476  43.706  18.077  11.575
75217W        W40477  40.127  33.065   3.206
75218W        W40478   8.384  25.113   3.808
75219W        W40479  38.618   4.643   2.726
75220W        W40480  24.706  43.414   2.444
75221W        W40481  28.353  18.592   5.443
75222W        W40482  10.565  23.500   2.810
75223W        W40483  10.678  37.077   0.988
75224W        W40484  11.763  41.731  10.593
75225W        W40485  14.403  38.355  13.333
75226W        W40486   5.493  21.288  12.458
75227W        W40487  28.028  43.975  11.173
75228W        W40488  24.649  43.349   2.945
75229W        W40489   5.660  25.097  14.982
75230W        W40490   0.366  39.834   2.875
75231W        W40491  27.489  26.401  10.470
75232W        W40492   2.130  22.096  10.333
75233W        W40493  17.561   0.706  13.839
75234W        W40494  15.284  23.156   4.380
75235W        W40495   1.170  31.360   1.343
75236W        W40496   9.375  35.583  13.155
75237W        W40497  43.882   4.314  14.768
75238W        W40498  36.343  13.639  14.885
75239W        W40499  40.127   4.856  11.138
75240W        W40500  27.926  35.806  14.978
75241W        W40501  17.359   5.191  14.241
75242W        W40502  24.112  30.691   1.373
75243W        W40503  30.704  29.551  14.311
75244W        W40504  43.984  36.840  12.092
75245W        W40505  31.669  29.828  11.114
75246W        W40506   6.151   5.213   3.770
75247W        W40507  29.628  34.572  10.689
75248W        W40508  36.658  34.110  10.657
75249W        W40509  34.797  29.808   2.396
75250W        W40510  17.103  44.191   1.252
75251W        W40511  19.179  40.914  13.115
75252W        W40512  20.229  34.902   3.193
75253W        W40513   0.231  20.545  11.595
75254W        W40514  28.443  20.589   1.623
75255W        W40515  23.430  24.566   2.907
75256W        W40516  35.517   7.360  11.067
75257W        W40517  14.257  36.855   2.576
75258W        W40518  22.591  19.967  12.956
75259W        W40519  26.526  23.206   2.343
75260W        W40520  14.566  16.175  11.715
75261W        W40521  10.342  22.494  10.680
75262W        W40522  24.617  19.114  12.104
75263W        W40523  29.046  38.791  12.537
75264W        W40524  44.133  20.728   2.590
75265W        W40525  36.148  32.951  12.526
75266W        W40526  26.022  22.371  14.245
75267W        W40527  19.793   0.360   1.488
75268W        W40528  37.905  20.668   2.182
75269W        W40529  15.209  38.012   1.918
75270W        W40530  14.396  32.131   4.580
75271W        W40531  26.683  18.816  13.917
75272W        W40532  24.388  28.444  14.140
75273W        W40533   3.345   1.679  10.636
75274W        W40534  30.179  29.657   1.876
75275W        W40535  19.712  12.176   0.863
75276W        W40536   5.955   5.777   3.657
75277W        W40537  12.368  40.837   1.754
75278W        W40538  32.479  27.635   3.137
75279W        W40539  11.268  21.621   1.766
75280W        W40540  30.652  39.356  14.201
75281W        W40541  35.441  19.260   3.787
75282W        W40542  42.517  35.800  12.112
75283W        W40543   4.883  36.603   1.286
75284W        W40544  13.596  15.254   0.517
75285W        W40545  13.976  11.600  14.827
75286W        W40546  25.498  40.815   0.964
75287W        W40547  14.817  40.278  12.785
75288W        W40548  17.919  27.461  11.276
75289W        W40549  20.960  25.422  14.943
75290W        W40550  43.514  33.620   2.765
75291W        W40551   7.888  15.220   0.213
75292W        W40552  21.561  39.611  14.397
75293W        W40553  44.735  15.065   0.928
75294W        W40554  41.468  13.161  11.698
75295W        W40555  30.190  38.644   0.457
75296W        W40556  10.382  24.210  14.852
75297W        W40557  18.159   7.294  14.774
75298W        W40558  23.245   1.670  13.530
75299W        W40559  26.384  38.520   2.391
75300W        W40560  36.975   5.241  12.753
75301W        W40561   3.183  33.420   2.485
75302W        W40562  18.361  30.222  12.971
75303W        W40563  37.159   6.358  10.347
75304W        W40564  27.748   8.020   0.878
75305W        W40565  38.273  34.980  12.351
75306W        W40566  30.264  35.022  11.809
75307W        W40567  30.912  42.744  11.201
75308W        W40568  11.926  19.491  14.315
75309W        W40569   1.348  26.745   2.338
75310W        W40570  26.624  25.778   0.941
75311W        W40571  16.874  37.920  11.856
75312W        W40572   2.233  15.350  14.871
75313W        W40573  30.665  31.401   4.755
75314W        W40574  41.131  34.805  10.980
75315W        W40575  28.529  43.402   3.284
75316W        W40576   5.721  37.766   2.718
75317W        W40577   6.321  44.044   4.213
75318W        W40578  21.596  27.588   0.415
75319W        W40579  31.493   0.355   3.920
75320W        W40580  40.089  42.091   1.832
75321W        W40581  13.299  33.403   0.521
75322W        W40582  24.521  30.364  11.619
75323W        W40583  43.563  17.332  10.240
75324W        W40584   3.494  19.611  13.824
75325W        W40585   4.522  27.171   4.179
75326W        W40586  23.508  32.641  13.514
75327W        W40587   8.393  35.445  13.531
75328W        W40588  20.447  31.930   1.217
75329W        W40589   5.312  21.975   0.395
75330W        W40590   9.209  28.665   2.994
75331W        W40591   8.362  32.272   2.346
75332W        W40592  38.579  29.182   4.619
75333W        W40593  28.616  30.596  12.511
75334W        W40594  33.583   4.693  11.397
75335W        W40595  16.692  34.760   3.663
75336W        W40596   8.294  42.841   4.666
75337W        W40597  12.128  30.034  12.123
75338W        W40598  44.817  34.078   4.505
75339W        W40599  13.412  34.307   3.608
75340W        W40600   2.303  28.913   0.357
75341W        W40601   2.653  32.732   3.771
75342W        W40602  41.550   5.415   1.760
75343W        W40603  14.864  28.256   1.920
75344W        W40604  30.585  12.019   3.003
75345W        W40605  34.104  18.349  12.410
75346W        W40606  25.893  11.855   2.227
75347W        W40607  37.761  43.935   4.392
75348W        W40608  12.246  17.967   1.349
75349W        W40609   5.132   3.046  14.756
75350W        W40610  32.246   3.911  12.618
75351W        W40611  19.339  29.793   2.900
75352W        W40612   0.835   0.640  11.813
75353W        W40613  39.936   3.838  12.079
75354W        W40614  33.165  13.056  14.376
75355W        W40615  23.504  20.721   1.738
75356W        W40616   1.374  35.346   2.938
75357W        W40617   9.126   9.369  12.387
75358W        W40618  12.102  15.231  11.580
75359W        W40619  38.397  29.654  12.024
75360W        W40620  21.994  24.615  13.353
75361W        W40621  17.388  13.014  12.000
75362W        W40622  23.484  28.983   0.783
75363W        W40623  33.952   1.951   1.848
75364W        W40624  18.029  24.573   4.711
75365W        W40625  18.631  29.630   0.313
75366W        W40626  16.288  29.889  10.731
75367W        W40627  32.282   5.078  13.468
75368W        W40628  13.014   9.908  13.993
75369W        W40629  17.830  40.812   0.355
75370W        W40630  13.548   4.274  12.882
75371W        W40631  22.002  26.260   0.309
75372W        W40632   5.420  18.220   2.677
75373W        W40633  43.725  23.417   2.233
75374W        W40634  15.722  18.866  11.213
75375W        W40635  33.422   8.998  11.599
75376W        W40636  24.336  37.995   0.821
75377W        W40637  36.946  30.525  13.043
75378W        W40638  32.827  26.291  10.256
75379W        W40639  23.255  11.643   3.245
75380W        W40640  30.686  38.675  12.929
75381W        W40641  10.597  21.615  11.504
75382W        W40642  22.041  43.989  13.354
75383W        W40643  39.163   0.412  10.243
75384W        W40644   2.062   0.945   0.412
75385W        W40645   1.758  19.918  13.541
75386W        W40646  16.342  15.274  12.477
75387W        W40647  29.001  11.679   3.236
75388W        W40648  16.669  40.566  13.970
75389W        W40649  15.268  15.460  11.736
75390W        W40650  34.291  43.327   3.327
75391W        W40651  12.392  26.701   5.051
75392W        W40652  36.462  38.500  11.561
75393W        W40653  23.357  33.376  11.124
75394W        W40654  32.878  34.497  12.066
75395W        W40655  36.030  17.543  14.267
75396W        W40656  40.449  37.436   0.957
75397W        W40657   6.919  32.018   4.369
75398W        W40658   4.545  37.429  14.350
75399W        W40659   1.238  17.166  14.833
75400W        W40660  13.960  14.036   1.279
75401W        W40661  26.519   0.543  13.577
75402W        W40662  12.953  28.229   0.697
75403W        W40663  20.715  43.661  10.672
75404W        W40664  27.145  17.840  14.523
75405W        W40665  36.970  42.340   3.841
75406W        W40666  28.987  13.356  11.020
75407W        W40667  43.280  15.125   1.888
75408W        W40668   4.528  17.330   1.342
75409W        W40669  31.483   8.217  13.140
75410W        W40670   0.481   7.742  13.493
75411W        W40671  29.873   0.859  14.104
75412W        W40672   8.152  15.151  11.101
75413W        W40673  30.274   0.361  13.372
75414W        W40674  24.523  19.055   1.434
75415W        W40675  10.166  33.949  11.562
75416W        W40676  34.806  10.122  12.400
75417W        W40677  26.147  40.254   2.149
75418W        W40678  28.246  33.999  13.601
75419W        W40679   8.612  33.855  10.753
75420W        W40680  21.713  10.759  12.977
75421W        W40681  30.047  29.947   2.277
75422W        W40682  44.383  18.546  10.555
75423W        W40683  29.809  43.752   3.575
75424W        W40684   8.395   7.244   2.602
75425W        W40685  18.517   0.885  14.304
75426W        W40686   8.478  22.271  10.603
75427W        W40687   3.849  34.236  11.965
75428W        W40688  21.713  32.951  11.500
75429W        W40689   2.258  14.639  10.585
75430W        W40690  36.383   5.183  13.520
75431W        W40691  28.636  26.949   0.841
75432W        W40692  19.500  22.979  14.939
75433W        W40693  37.064  24.075  13.974
75434W        W40694   3.379  28.210   0.876
75435W        W40695  19.340  17.996  11.165
75436W        W40696  30.737  24.162   3.313
75437W        W40697   5.398  38.317   0.274
75438W        W40698  14.969   1.937  12.727
75439W        W40699  37.329  30.996   0.358
75440W        W40700  32.626   2.958  11.093
75441W        W40701  38.782  29.196   0.275
75442W        W40702  34.623  13.152   1.686
75443W        W40703   9.395   6.228   1.850
75444W        W40704   3.074  15.746   4.765
75445W        W40705  25.567  43.807   4.625
75446W        W40706  21.735  13.847  11.219
75447W        W40707   8.308  39.073  11.153
75448W        W40708  18.034  10.339   4.494
75449W        W40709   1.025  24.613   1.877
75450W        W40710   6.938  16.344  14.873
75451W        W40711  31.524  37.100   2.289
75452W        W40712   3.051  14.853   4.834
75453W        W40713  30.702  10.770  14.858
75454W        W40714  29.202  31.423  13.388
75455W        W40715  15.787   6.436   2.696
75456W        W40716   1.677  11.947   2.516
75457W        W40717  40.596  11.854   3.250
75458W        W40718  13.411   8.702   3.151
75459W        W40719  22.086  11.726  12.134
75460W        W40720  14.615   2.284  12.528
75461W        W40721  10.053  15.410  13.583
75462W        W40722  12.146   4.319  14.108
75463W        W40723  34.057  25.033  10.864
75464W        W40724  44.703  16.340  13.981
75465W        W40725  32.881   7.317   4.164
75466W        W40726  17.236  18.585   2.375
75467W        W40727  19.460  35.980  12.503
75468W        W40728  19.753  19.041  11.833
75469W        W40729  27.067  27.260  14.796
75470W        W40730  11.101  41.453   1.834
75471W        W40731  41.020   4.650  12.116
75472W        W40732  29.573  15.701  10.692
75473W        W40733   1.897  22.318  11.153
75474W        W40734  26.431  42.928   1.938
75475W        W40735  38.988  29.215  11.508
75476W        W40736  35.734  26.657  12.856
75477W        W40737  11.889  21.260   4.047
75478W        W40738  37.706  18.463  13.391
75479W        W40739  24.998  41.017  10.690
75480W        W40740  30.034  42.870  14.850
75481W        W40741  13.571  15.498  12.103
75482W        W40742  32.735  21.702   1.885
75483W        W40743  21.298  12.219  10.444
75484W        W40744  40.043   7.976   1.784
75485W        W40745  33.458   7.506  13.615
75486W        W40746  38.642  22.519   0.805
75487W        W40747  24.509  17.508  12.550
75488W        W40748  10.732  13.093   0.205
75489W        W40749  27.583  36.784  11.619
75490W        W40750  10.433  31.410  12.408
75491W        W40751  37.111  14.823   4.276
75492W        W40752  22.236  10.203   0.304
75493W        W40753  20.600  37.041   0.515
75494W        W40754  11.117  25.873  14.015
75495W        W40755  42.131  29.644   4.732
75496W        W40756  42.298  15.296   3.214
75497W        W40757   0.788  41.463  10.666
75498W        W40758   7.178  35.561  12.186
75499W        W40759  44.859  12.718   1.859
75500W        W40760   9.341  10.140  11.104
75501W        W40761   6.122  13.998  12.361
75502W        W40762  15.049  29.582   1.697
75503W        W40763  37.064  28.792   4.151
75504W        W40764  27.925  28.503  14.976
75505W        W40765  43.349  24.694   5.006
75506W        W40766  20.032  19.418   0.959
75507W        W40767  10.039  42.319   4.549
75508W        W40768  37.509   4.614   2.829
75509W        W40769  38.969  35.167   1.722
75510W        W40770   8.707  34.536   0.535
75511W        W40771  40.463  30.480  12.848
75512W        W40772  31.806  44.198   0.994
75513W        W40773  24.180  14.174  12.993
75514W        W40774  34.957  25.490   0.018
75515W        W40775  14.313   3.793   3.330
75516W        W40776  31.147  14.514  10.453
75517W        W40777   5.689   4.715  13.442
75518W        W40778   1.824  34.147  12.300
75519W        W40779  32.866   2.549   2.528
75520W        W40780  32.376   3.428   1.678
75521W        W40781  33.867  14.673  11.836
75522W        W40782  40.227  43.330  13.902
75523W        W40783  42.555  30.970   1.999
75524W        W40784  42.912  13.612   2.806
75525W        W40785   3.377  27.145  11.946
75526W        W40786   5.957  41.525   2.613
75527W        W40787   7.795  32.134   4.049
75528W        W40788   2.309  23.162   0.802
75529W        W40789  23.610  43.613   0.987
75530W        W40790  18.774  28.545  13.805
75531W        W40791  13.144  22.469  13.973
75532W        W40792  16.786  25.145   1.822
75533W        W40793  30.222  32.312  12.043
75534W        W40794   3.499  35.001  13.529
75535W        W40795   2.397  16.528   0.327
75536W        W40796  34.599   8.903  13.215
75537W        W40797   6.837  12.713   3.062
75538W        W40798  17.806  19.273  14.959
75539W        W40799  17.752   9.921   3.293
75540W        W40800   7.721   3.204   2.208
75541W        W40801  10.248   6.183   4.994
75542W        W40802  42.961  15.418   4.816
75543W        W40803  24.699  37.549  13.848
75544W        W40804  42.922  18.564  10.468
75545W        W40805  28.533  37.341   2.398
75546W        W40806  43.068  41.411  10.885
75547W        W40807   0.545  15.774   3.028
75548W        W40808  14.232   7.345   4.887
75549W        W40809  22.462   0.526  11.085
75550W        W40810  32.364  15.255  13.585
75551W        W40811  10.210  17.312   2.431
75552W        W40812   0.210  35.938   1.359
75553W        W40813   1.597   0.510   3.816
75554W        W40814  29.890   2.252  14.319
75555W        W40815  42.658  12.245  14.923
75556W        W40816   9.954  23.952   2.965
75557W        W40817  11.370   4.758   1.272
75558W        W40818  25.997  41.474  12.970
75559W        W40819   7.348  32.904   0.142
75560W        W40820  15.257  34.770  11.608
75561W        W40821  12.686  33.509   0.931
75562W        W40822  21.537   8.936  10.614
75563W        W40823  11.916  11.774  12.750
75564W        W40824  15.724  27.628  10.744
75565W        W40825  21.132  24.732   4.486
75566W        W40826  24.167   0.992  11.496
75567W        W40827  12.893  15.315  14.390
75568W        W40828  26.014  42.609  11.172
75569W        W40829   6.506  18.549   3.152
75570W        W40830  17.137  13.774  11.573
75571W        W40831  30.541  17.163   4.474
75572W        W40832  12.716  37.727   2.688
75573W        W40833  17.648   6.956   4.040
75574W        W40834   7.268  20.993  11.067
75575W        W40835  34.872  38.690  10.708
75576W        W40836   0.811   2.234   4.511
75577W        W40837  23.306  32.005  10.615
75578W        W40838   2.718  15.618   2.216
75579W        W40839  36.168   8.847  11.210
75580W        W40840  28.969  44.867  14.273
75581W        W40841  30.565   0.835  11.463
75582W        W40842  30.812  26.673  10.720
75583W        W40843  44.383   4.971   0.299
75584W        W40844   4.279   1.841   0.561
75585W        W40845  27.597  28.430  12.154
75586W        W40846  35.093  16.337  12.306
75587W        W40847  30.208  19.998  11.118
75588W        W40848  37.929  14.353  12.831
75589W        W40849   5.749  22.166   3.672
75590W        W40850  27.825   2.743   0.009
75591W        W40851  31.697  39.672  11.053
75592W        W40852   9.617  15.638  10.151
75593W        W40853  20.556   5.151   3.773
75594W        W40854  23.281  20.337  11.580
75595W        W40855  25.045  22.526   0.690
75596W        W40856  14.508  31.984   3.743
75597W        W40857  12.636  11.693   1.377
75598W        W40858   9.497  29.980   3.682
75599W        W40859  34.410  31.894   0.807
75600W        W40860   6.474  17.700   1.181
75601W        W40861  36.802  43.900   0.879
75602W        W40862  11.050  24.696  13.570
75603W        W40863  36.081  40.089  12.386
75604W        W40864  28.781  35.632  13.630
75605W        W40865  10.044  29.546  14.730
75606W        W40866   6.786  16.337   1.593
75607W        W40867  20.955  40.423  11.000
75608W        W40868  13.833   5.733   3.574
75609W        W40869  13.637  33.829  13.519
75610W        W40870   9.613  17.855   3.585
75611W        W40871  30.860  32.486   3.992
75612W        W40872  10.620  44.328   1.876
75613W        W40873  20.455   8.529  11.281
75614W        W40874  36.383   4.756   4.498
75615W        W40875  42.763  13.603  11.647
75616W        W40876  41.727  18.661   0.822
75617W        W40877  16.209  11.298   0.765
75618W        W40878   6.114  43.332   0.508
75619W        W40879   3.729   5.821   0.442
75620W        W40880  37.339  41.314   4.588
75621W        W40881  25.649  23.978  10.948
75622W        W40882  17.506  23.272   3.051
75623W        W40883  32.728   8.624   1.424
75624W        W40884   5.848  19.749  14.528
75625W        W40885  43.710  42.503  11.914
75626W        W40886  10.311  18.996   3.202
75627W        W40887  14.148  41.922   3.188
75628W        W40888  41.743  34.161   1.240
75629W        W40889  29.331  32.120  13.982
75630W        W40890  24.757  35.580  12.912
75631W        W40891  33.429   2.292   3.703
75632W        W40892  19.057  17.901   1.433
75633W        W40893  31.388  38.868   3.369
75634W        W40894  30.508   0.014  13.992
75635W        W40895  42.217   3.780   0.253
75636W        W40896  17.075   3.977   1.845
75637W        W40897  12.427  17.769   3.110
75638W        W40898  35.205  22.809   4.162
75639W        W40899  40.253  24.156   0.665
75640W        W40900  32.097  21.953  13.555
75641W        W40901  22.307  29.984   1.436
75642W        W40902  36.583  40.006   3.954
75643W        W40903  17.748  33.512   3.169
75644W        W40904  31.951  40.463   1.388
75645W        W40905  23.743  44.496   0.881
75646W        W40906  34.123  22.635  14.982
75647W        W40907   7.850  13.826  12.973
75648W        W40908  29.839  22.642   2.854
75649W        W40909  35.152   2.408   2.392
75650W        W40910   1.301  18.191  11.029
75651W        W40911  23.408   4.711  12.077
75652W        W40912  43.801  35.064  14.365
75653W        W40913  14.662  28.888   4.875
75654W        W40914   0.120  18.935  13.107
75655W        W40915   4.919  22.194  12.384
75656W        W40916  39.081  25.115  11.973
75657W        W40917  35.083  21.644   3.172
75658W        W40918  28.958   6.393  12.057
75659W        W40919   9.720  27.485  13.771
75660W        W40920  26.595  12.283  12.355
75661W        W40921  14.990  20.736   1.260
75662W        W40922  40.749   7.898  13.124
75663W        W40923  32.734  22.369  11.998
75664W        W40924  30.614   1.753  13.285
75665W        W40925  10.628   5.777   3.632
75666W        W40926  22.782  26.207   2.732
75667W        W40927  24.045  11.370   3.724
75668W        W40928  35.475  17.983   2.192
75669W        W40929  14.905  42.822   3.714
75670W        W40930  19.613  11.168   3.369
75671W        W40931  14.803  40.955  14.577
75672W        W40932   4.436  15.280   1.222
75673W        W40933  28.540  26.733   4.103
75674W        W40934  25.532  39.514  12.963
75675W        W40935  15.444  27.426  13.528
75676W        W40936  43.236  12.277   1.343
75677W        W40937  25.441  30.123  14.591
75678W        W40938  33.429   5.855  10.753
75679W        W40939  35.910  18.160   2.904
75680W        W40940  23.647   2.322  13.044
75681W        W40941  12.093  31.589   1.351
75682W        W40942  36.128   5.237   2.192
75683W        W40943   5.461  33.104  12.882
75684W        W40944   9.823  22.761   4.123
75685W        W40945  10.744   2.357  12.428
75686W        W40946   2.969  18.235  12.593
75687W        W40947  18.076  17.337   0.751
75688W        W40948  31.652  44.349  12.823
75689W        W40949  36.345   4.264  13.603
75690W        W40950  15.198   3.699  14.059
75691W        W40951   1.334  33.923  12.545
75692W        W40952  42.358  20.703   3.562
75693W        W40953  18.245  26.646  12.202
75694W        W40954   8.896  23.623   1.862
75695W        W40955  39.467  43.980  11.153
75696W        W40956  17.277  20.331  12.963
75697W        W40957  18.157  15.301   2.704
75698W        W40958  25.101   0.416   0.836
75699W        W40959  30.591  28.812   1.623
75700W        W40960  14.614  11.930   1.096
75701W        W40961  19.675  34.508   1.021
75702W        W40962  12.922  24.588  10.706
75703W        W40963  30.069  31.376   4.952
75704W        W40964  33.489  18.055   4.200
75705W        W40965  44.073  16.100  10.747
75706W        W40966  31.208  16.811   2.663
75707W        W40967  26.332  37.959   4.816
75708W        W40968   7.922  21.740  13.664
75709W        W40969  33.566  31.429  11.609
75710W        W40970  42.318   1.535   3.765
75711W        W40971  16.845  24.478   4.029
75712W        W40972  35.003  24.634   3.490
75713W        W40973  43.018   0.551   0.387
75714W        W40974  37.018   2.937   4.569
75715W        W40975  18.239  42.305  14.811
75716W        W40976  24.071   4.273   3.353
75717W        W40977  40.092  23.325   1.791
75718W        W40978  40.049   5.663  10.610
75719W        W40979  18.612  39.451  10.454
75720W        W40980  25.201  11.179   2.599
75721W        W40981  29.986  33.220  14.848
75722W        W40982  32.528  20.066  12.502
75723W        W40983  39.544   6.262   3.325
75724W        W40984   2.865  16.293   2.337
75725W        W40985  41.027  12.313   4.558
75726W        W40986  20.708  29.491   0.505
75727W        W40987  22.201  44.349   0.719
75728W        W40988   1.907  32.048   2.597
75729W        W40989  39.722   2.827  13.523
75730W        W40990   1.467  10.759  10.616
75731W        W40991  42.540  37.963   3.155
75732W        W40992  42.530   0.422  12.608
75733W        W40993  44.671  12.548   9.843
75734W        W40994   9.394  12.924  11.670
75735W        W40995  40.089  35.546  11.206
75736W        W40996   7.678  35.346   0.245
75737W        W40997  14.935  25.971   4.634
75738W        W40998  15.686  27.012   3.672
75739W        W40999   0.892  21.437  14.974
75740W        W41000  36.808  10.159   3.270
75741W        W41001  34.415   3.954   4.615
75742W        W41002  42.882  37.584  14.509
75743W        W41003   4.770   7.650   4.655
75744W        W41004  21.426  17.238   3.200
75745W        W41005  33.365  16.104   4.176
75746W        W41006   6.730  26.414   1.380
75747W        W41007  11.769  28.496  12.823
75748W        W41008   6.713  23.067   0.864
75749W        W41009  11.843   0.509  13.491
75750W        W41010   8.206  30.528   4.612
75751W        W41011  44.423   8.779   1.801
75752W        W41012   1.313   7.097   2.343
75753W        W41013  22.623  36.952  14.545
75754W        W41014   4.231   8.631   4.610
75755W        W41015  40.588  13.262  11.911
75756W        W41016   5.970  14.247   2.365
75757W        W41017  12.851  17.250   1.755
75758W        W41018  33.420   7.444   3.525
75759W        W41019  44.257  14.687   4.123
75760W        W41020  16.513  24.017  13.373
75761W        W41021  16.567  22.603   3.607
75762W        W41022  12.660  38.965   2.632
75763W        W41023  36.300  16.614  12.179
75764W        W41024  44.308  18.953   1.671
75765W        W41025  26.918  31.076   1.194
75766W        W41026  39.071  29.614   3.432
75767W        W41027   8.958   7.884  12.939
75768W        W41028  35.411  44.954  11.059
75769W        W41029  43.633  37.427  10.388
75770W        W41030  30.822  41.533   4.504
75771W        W41031  29.033  37.002   3.681
75772W        W41032  34.940  40.746   0.439
75773W        W41033  30.558  17.269   2.169
75774W        W41034  34.512  40.573   3.181
75775W        W41035  22.542  24.291   2.796
75776W        W41036  19.315  16.685  11.922
75777W        W41037  20.371  22.097   1.213
75778W        W41038  17.149  43.725  12.309
75779W        W41039  33.385  11.583   1.340
75780W        W41040  37.930   1.468   0.993
75781W        W41041  15.297  39.356  10.744
75782W        W41042  29.925  19.615   1.229
75783W        W41043  30.961   4.940  14.330
75784W        W41044  44.831  20.858   3.608
75785W        W41045  34.217  24.965   3.198
75786W        W41046   2.993  38.107   4.055
75787W        W41047  18.492  36.531  14.568
75788W        W41048   4.566  20.273  14.315
75789W        W41049  24.965  15.333   2.290
75790W        W41050  16.150  12.636   2.348
75791W        W41051  21.493  37.591   3.775
75792W        W41052  35.466  37.858  13.614
75793W        W41053   6.413  11.080  11.952
75794W        W41054  40.342  29.667  10.567
75795W        W41055  35.512  16.176   2.908
75796W        W41056  33.420  20.212   1.808
75797W        W41057  38.313  10.256   4.207
75798W        W41058  33.448  32.639   1.814
75799W        W41059   3.702  24.522  13.530
75800W        W41060  20.534  28.739   1.871
75801W        W41061  31.487  34.780   1.945
75802W        W41062  28.050  22.274   4.154
75803W        W41063  42.247  33.792   2.032
75804W        W41064  17.260  11.714   3.147
75805W        W41065   6.931  26.572  10.656
75806W        W41066  37.875  15.365  11.996
75807W        W41067  38.282  13.073  12.624
75808W        W41068   4.280  13.127   0.378
75809W        W41069  13.222  11.344   3.669
75810W        W41070   7.689   0.744  11.945
75811W        W41071  42.063  30.434  10.750
75812W        W41072  41.095  23.591  13.096
75813W        W41073  19.313  37.160  13.094
75814W        W41074  22.713   3.549  11.060
75815W        W41075  11.200  24.651  14.507
75816W        W41076  32.796  21.002  13.511
75817W        W41077  31.002  26.594   1.891
75818W        W41078  11.220   2.724  13.594
75819W        W41079   1.059  35.300   2.207
75820W        W41080  12.802  28.032  11.953
75821W        W41081  32.637  33.498   2.355
75822W        W41082  39.031  20.074   0.769
75823W        W41083  22.307  27.027  12.873
75824W        W41084  40.087  18.298   4.066
75825W        W41085   6.909   9.516  13.808
75826W        W41086  37.993  29.052   3.259
75827W        W41087  29.565  16.616  13.032
75828W        W41088  33.077  33.393  12.560
75829W        W41089  13.827  29.261   0.817
75830W        W41090  18.744  29.635  14.384
75831W        W41091  22.133  14.932  12.501
75832W        W41092  11.143  38.510  13.190
75833W        W41093  40.447  25.360  11.162
75834W        W41094   8.249  25.359   5.095
75835W        W41095   4.993  19.904   3.225
75836W        W41096  13.246  25.442   1.978
75837W        W41097   7.525  11.128  11.907
75838W        W41098  20.123   5.104  10.192
75839W        W41099  38.223  22.107  14.513
75840W        W41100  43.971  42.797   2.203
75841W        W41101   2.387  15.738  12.133
75842W        W41102  29.107  14.749  12.213
75843W        W41103   8.201  28.556   4.357
75844W        W41104  11.224  12.070  10.697
75845W        W41105  23.728  42.830   3.080
75846W        W41106  44.838  40.808   2.127
75847W        W41107  34.903  42.937  10.202
75848W        W41108  17.278  26.666  13.339
75849W        W41109  27.057  38.540   1.803
75850W        W41110  22.576  16.071  14.395
75851W        W41111  40.793  12.209   1.190
75852W        W41112  27.695   0.206  11.069
75853W        W41113  36.283  14.095   2.832
75854W        W41114  18.271  18.246   3.160
75855W        W41115  33.701  20.726  13.471
75856W        W41116  24.289  10.813  13.846
75857W        W41117  20.634  31.668   0.414
75858W        W41118   3.173  15.713  12.587
75859W        W41119  26.281   5.129   2.916
75860W        W41120  19.091   6.479  14.819
75861W        W41121  29.549  36.989   3.841
75862W        W41122   9.994  13.864   2.198
75863W        W41123  15.854   6.818  10.520
75864W        W41124   4.261  38.777   4.551
75865W        W41125  23.305  20.234   1.747
75866W        W41126  19.716  12.708  11.604
75867W        W41127   5.659   5.357   3.671
75868W        W41128  21.697  30.088  14.271
75869W        W41129   6.794  32.200  13.806
75870W        W41130  36.344  39.468   1.435
75871W        W41131  41.712  44.816   2.800
75872W        W41132  22.342  33.711  12.563
75873W        W41133  15.300  35.745   2.637
75874W        W41134   8.421  20.464  10.906
75875W        W41135  24.764   3.254  13.932
75876W        W41136  28.909  24.801  12.633
75877W        W41137  18.008  40.265  11.095
75878W        W41138  13.779  29.502   4.669
75879W        W41139  37.034  12.932   2.538
75880W        W41140  35.915   0.907   2.186
75881W        W41141  10.960  28.983   4.191
75882W        W41142  39.504  35.506  12.575
75883W        W41143  41.736  36.094   0.359
75884W        W41144  12.787   1.657   4.167
75885W        W41145  31.478  42.757  14.874
75886W        W41146  33.145  27.939   2.492
75887W        W41147  30.651  12.508  14.783
75888W        W41148  25.620  32.100   0.205
75889W        W41149  41.412  40.936  12.465
75890W        W41150  10.210  36.806   0.952
75891W        W41151  26.307  29.473  12.182
75892W        W41152  18.642  44.900   3.751
75893W        W41153  25.099   4.897   2.897
75894W        W41154  20.546   0.995  11.682
75895W        W41155  31.321  44.289   0.285
75896W        W41156   2.957  19.165  12.512
75897W        W41157   6.720  13.123   4.877
75898W        W41158  38.356  24.490   0.817
75899W        W41159   4.629   8.728   2.775
75900W        W41160  37.897  24.509  12.768
75901W        W41161  42.222  19.573  12.887
75902W        W41162  24.591   0.979  11.195
75903W        W41163   8.802  11.556   4.174
75904W        W41164   7.372  31.828   4.179
75905W        W41165   4.627   4.267  10.800
75906W        W41166  14.012  16.375   0.848
75907W        W41167  15.920  14.688  14.945
75908W        W41168   4.764  18.468  14.991
75909W        W41169  17.692   5.684   3.210
75910W        W41170  17.106  19.745  13.810
75911W        W41171  38.911  25.828   0.287
75912W        W41172   1.873  30.784  13.940
75913W        W41173  14.414  17.692  13.794
75914W        W41174  23.081  43.372   4.057
75915W        W41175  13.133  38.237  12.045
75916W        W41176  37.809  19.976  12.977
75917W        W41177  36.130  14.863   3.564
75918W        W41178  26.616   7.948   0.558
75919W        W41179  25.538  41.243   5.006
75920W        W41180  12.938  25.368  11.856
75921W        W41181  44.012  21.190  14.408
75922W        W41182   8.809   4.136  11.096
75923W        W41183  18.733  27.242  13.452
75924W        W41184  38.515   8.313   1.860
75925W        W41185   3.004  31.339  14.450
75926W        W41186  13.707  41.223   1.269
75927W        W41187  24.883  18.493  11.246
75928W        W41188  30.667  30.436  14.418
75929W        W41189  13.140  32.471   0.363
75930W        W41190  39.748   4.170  10.713
75931W        W41191  23.187  17.413   5.526
75932W        W41192  19.632   7.299  14.451
75933W        W41193  19.459   8.163  14.581
75934W        W41194   4.607  29.358   2.817
75935W        W41195  23.448  32.359  11.992
75936W        W41196  30.687  17.718   0.470
75937W        W41197  40.238  11.671  14.018
75938W        W41198  34.933  42.347  12.575
75939W        W41199  12.680   3.391   2.717
75940W        W41200  26.281  11.342  13.451
75941W        W41201  34.095  25.652   2.668
75942W        W41202  29.095   9.438   2.279
75943W        W41203   7.456  36.395  11.646
75944W        W41204   2.536   2.694  12.365
75945W        W41205  12.774  30.783   3.219
75946W        W41206  25.588  10.398   1.165
75947W        W41207   6.403  41.514   0.617
75948W        W41208  39.690  39.005   4.989
75949W        W41209  11.773  31.622  14.561
75950W        W41210  20.758  32.632  12.352
75951W        W41211  21.262  25.858  14.976
75952W        W41212  29.009  12.464   3.630
75953W        W41213   4.843  10.606  11.262
75954W        W41214  11.221  18.656   0.241
75955W        W41215   6.213   6.274   1.166
75956W        W41216  23.124  21.489   2.891
75957W        W41217  41.957  22.653   2.729
75958W        W41218   7.093   2.602  11.255
75959W        W41219   1.764  38.382  13.431
75960W        W41220  22.700  32.664  10.956
75961W        W41221  41.999   0.384   4.340
75962W        W41222   2.423  28.601  11.767
75963W        W41223  15.905  34.350   2.158
75964W        W41224  38.914  22.944   0.579
75965W        W41225  38.894  41.101   2.567
75966W        W41226  31.237  11.006  13.840
75967W        W41227  34.509  11.299  10.693
75968W        W41228   3.116   3.029   1.756
75969W        W41229  30.664  31.490  11.651
75970W        W41230   8.423  15.234   2.774
75971W        W41231  18.360  35.290  10.535
75972W        W41232  39.045  32.816  10.503
75973W        W41233   4.638  14.603  11.606
75974W        W41234   0.293  31.530  14.432
75975W        W41235   6.825   6.016  14.362
75976W        W41236  36.935  22.200  13.737
75977W        W41237  29.380  13.834  14.257
75978W        W41238   8.492  11.878  13.956
75979W        W41239  32.893   5.440   1.809
75980W        W41240  28.401   8.503   3.609
75981W        W41241  18.169  29.036   0.803
75982W        W41242  21.260  15.155  14.868
75983W        W41243  39.048   8.839   2.336
75984W        W41244  27.648  12.360  11.473
75985W        W41245  39.070   3.480  13.891
75986W        W41246  20.440  19.522  13.353
75987W        W41247  13.555  24.900   0.283
75988W        W41248  19.119   1.931   3.297
75989W        W41249   1.741  23.785  11.518
75990W        W41250   7.676  26.470   0.492
75991W        W41251  36.508   7.493   2.711
75992W        W41252   4.661  43.955   4.605
75993W        W41253  12.933  37.029  12.419
75994W        W41254  14.774  44.797  12.014
75995W        W41255   1.573  40.935  14.862
75996W        W41256  30.153   8.538   3.206
75997W        W41257  19.176  35.776  14.000
75998W        W41258  33.363  44.242  12.877
75999W        W41259   2.204  17.160  13.012
76000W        W41260   9.761  17.251   4.315
76001W        W41261  14.600  29.690   4.336
76002W        W41262  23.318   6.224  13.276
76003W        W41263  23.747  43.290   3.361
76004W        W41264  40.889  41.227  10.719
76005W        W41265   0.863  34.884   0.437
76006W        W41266  29.624   8.744   4.554
76007W        W41267  35.788  44.221   2.737
76008W        W41268  29.820   7.729  13.379
76009W        W41269   0.750  18.595   3.811
76010W        W41270   0.997  17.180   2.647
76011W        W41271  13.647  14.120   4.089
76012W        W41272   1.459  13.340   4.121
76013W        W41273  43.029  33.050   1.055
76014W        W41274   8.772  41.916   2.889
76015W        W41275  36.871  13.729   0.809
76016W        W41276  36.428  40.524   4.156
76017W        W41277  14.776  33.136  12.025
76018W        W41278   4.353   2.051  10.774
76019W        W41279  22.046  13.862  12.044
76020W        W41280  14.689  33.261   4.203
76021W        W41281  24.268  30.188   1.303
76022W        W41282   2.310  24.450  13.533
76023W        W41283  20.194  38.110   1.890
76024W        W41284  17.195   9.561   0.358
76025W        W41285   3.826  31.259  13.103
76026W        W41286  31.538   0.911   2.164
76027W        W41287  39.731  34.167  11.891
76028W        W41288   0.527  40.178  11.189
76029W        W41289  20.972  39.970   0.385
76030W        W41290  16.164  27.579   1.829
76031W        W41291   8.116   8.672   3.321
76032W        W41292   9.235  16.432   1.900
76033W        W41293  10.578  19.211  11.932
76034W        W41294  10.886  26.114   1.698
76035W        W41295  22.361  31.302   0.201
76036W        W41296  36.954   9.324   1.230
76037W        W41297  28.718  25.899  13.904
76038W        W41298   7.940  44.665   0.003
76039W        W41299  29.149  16.690   0.341
76040W        W41300  20.776  10.840  13.085
76041W        W41301  23.972  11.715  14.753
76042W        W41302   2.672  43.491  12.401
76043W        W41303  31.024   3.389  13.946
76044W        W41304  36.322   5.357   0.893
76045W        W41305  30.923  22.763  13.145
76046W        W41306   6.626   6.219  14.905
76047W        W41307  29.482  42.087   1.024
76048W        W41308  24.055  19.567   3.131
76049W        W41309  25.423   8.772   4.935
76050W        W41310  34.352  23.302  13.457
76051W        W41311  35.877  14.125   0.344
76052W        W41312  20.042  11.837  10.253
76053W        W41313  10.302   4.258  13.775
76054W        W41314  23.025  27.028   3.420
76055W        W41315  21.238  18.289   2.336
76056W        W41316  32.260   0.214  14.998
76057W        W41317   3.953  21.647  12.009
76058W        W41318  11.300  36.211   1.218
76059W        W41319  14.563  33.641   3.311
76060W        W41320  20.026  20.692   3.699
76061W        W41321  28.692  40.494  11.200
76062W        W41322  41.251  17.080  12.924
76063W        W41323  21.079  15.745  12.686
76064W        W41324  22.727  27.883  11.976
76065W        W41325  33.900  38.561   1.928
76066W        W41326  22.170  40.900  11.530
76067W        W41327  31.439  20.635   3.772
76068W        W41328   5.318  19.150   4.171
76069W        W41329   3.329   2.202   4.054
76070W        W41330  35.335  13.866  14.046
76071W        W41331  17.991  26.194   2.910
76072W        W41332  10.124  19.736  11.895
76073W        W41333  43.012  44.415   0.768
76074W        W41334   1.722  38.635  12.963
76075W        W41335  34.018   5.821  14.420
76076W        W41336  20.001  23.080   2.789
76077W        W41337  44.510  29.382   1.829
76078W        W41338  17.461  10.664   2.350
76079W        W41339   3.660  37.952   4.924
76080W        W41340  23.369   5.217   3.631
76081W        W41341  34.591  25.422   3.666
76082W        W41342  16.111   7.009  14.584
76083W        W41343  21.536   8.464   4.609
76084W        W41344  13.812  21.543  11.423
76085W        W41345   3.897  21.987   3.577
76086W        W41346  24.644  22.174  11.606
76087W        W41347  20.192  17.202  11.968
76088W        W41348   8.322   1.967   3.632
76089W        W41349  37.478  16.055   3.237
76090W        W41350   6.888  39.288  11.990
76091W        W41351  39.230  22.810   1.651
76092W        W41352   8.326  35.875  12.298
76093W        W41353  19.112  24.289  12.962
76094W        W41354   2.209  12.784   2.853
76095W        W41355  15.909  10.619  14.127
76096W        W41356  22.709  28.408   1.727
76097W        W41357  25.722   9.589   1.336
76098W        W41358  32.690  19.203   0.818
76099W        W41359  10.514  27.612   0.994
76100W        W41360  34.444  32.956  14.804
76101W        W41361   4.832  36.922  13.116
76102W        W41362  36.037  10.308   4.525
76103W        W41363  44.205  35.972  11.909
76104W        W41364  41.411  14.796   4.923
76105W        W41365  19.027  20.317   3.088
76106W        W41366   2.401  38.378   0.993
76107W        W41367  12.397   8.393   1.326
76108W        W41368  11.136  43.457   4.212
76109W        W41369   5.789  40.100   1.751
76110W        W41370   6.116  22.676  12.166
76111W        W41371  22.127   2.689   4.946
76112W        W41372   4.347  41.339   3.688
76113W        W41373   7.797  26.255  14.989
76114W        W41374  33.269  40.825  12.221
76115W        W41375   3.020  11.180   4.066
76116W        W41376   1.392   9.605  11.104
76117W        W41377  12.142  29.521   2.821
76118W        W41378  34.539  40.302   3.648
76119W        W41379  42.213  17.744   0.859
76120W        W41380  28.051  33.324  12.520
76121W        W41381  33.328  18.617  12.937
76122W        W41382  30.678  13.420  12.082
76123W        W41383  41.533  13.278   3.723
76124W        W41384  28.150  24.217  12.526
76125W        W41385  29.230  41.779   4.837
76126W        W41386  13.760  16.321  11.221
76127W        W41387  22.566  38.945   4.534
76128W        W41388  39.515  19.022  13.006
76129W        W41389   6.299  33.072   4.159
76130W        W41390  10.276   9.709   3.992
76131W        W41391   6.443  27.531   3.746
76132W        W41392  39.968  12.409  13.019
76133W        W41393  10.252   9.654   2.108
76134W        W41394  34.995  23.641   2.624
76135W        W41395  19.563  14.790   0.165
76136W        W41396   1.680  14.927   3.591
76137W        W41397  16.352  15.270   4.071
76138W        W41398  39.775  22.624   2.926
76139W        W41399   8.675  36.885  14.472
76140W        W41400  41.443  29.389   3.706
76141W        W41401  15.101  40.281  13.587
76142W        W41402  29.497  15.255  10.469
76143W        W41403   2.743  25.957   2.612
76144W        W41404  33.234  10.751   0.342
76145W        W41405  38.102  39.277   0.600
76146W        W41406  39.328  12.744   0.878
76147W        W41407  15.252   9.566   4.248
76148W        W41408  36.815  10.137   4.146
76149W        W41409  14.618   1.032  10.980
76150W        W41410  12.050  39.219  14.036
76151W        W41411  26.484  26.126  13.787
76152W        W41412  12.152   4.727   3.575
76153W        W41413   1.614  43.479   3.222
76154W        W41414  14.601  22.462  14.745
76155W        W41415  19.123  37.772  11.419
76156W        W41416  23.216   6.351   1.867
76157W        W41417  31.801  36.065   4.963
76158W        W41418   4.363  14.163   3.306
76159W        W41419  32.028  31.986   0.920
76160W        W41420   4.843   7.366  13.423
76161W        W41421  23.276  33.030  14.757
76162W        W41422  23.119  18.852  13.405
76163W        W41423  30.001  15.403  10.623
76164W        W41424  44.093  32.810  11.992
76165W        W41425  13.493   8.197  13.594
76166W        W41426  19.276  39.873   2.839
76167W        W41427  20.441  38.177   4.077
76168W        W41428   2.976  39.364  13.030
76169W        W41429  11.096  37.972   3.617
76170W        W41430  14.757  22.195   0.446
76171W        W41431  13.118  15.892  14.955
76172W        W41432  33.027  42.834  11.143
76173W        W41433  10.814  23.424  14.995
76174W        W41434  23.085  39.283   3.147
76175W        W41435  27.003  24.680  12.920
76176W        W41436   2.540  22.764  11.018
76177W        W41437  26.623  16.135   2.352
76178W        W41438  38.830  25.445  10.614
76179W        W41439  17.013   3.109  12.599
76180W        W41440  28.355  37.905   3.557
76181W        W41441  38.799  19.279   1.739
76182W        W41442  29.070  35.184   3.479
76183W        W41443  22.084  29.116  13.518
76184W        W41444  17.587  17.989  11.094
76185W        W41445  27.983   9.244  14.762
76186W        W41446  44.200  40.020  10.854
76187W        W41447  30.882  31.482  10.823
76188W        W41448  39.524  38.890   3.237
76189W        W41449  37.981  17.737   1.798
76190W        W41450  41.832  27.859  10.298
76191W        W41451   9.566  10.637   0.340
76192W        W41452  32.000  44.669   0.898
76193W        W41453  31.935  22.350  13.852
76194W        W41454  39.454  22.194   0.617
76195W        W41455  41.386  10.670  14.414
76196W        W41456  29.042  13.398   2.214
76197W        W41457   4.202   0.693   1.353
76198W        W41458   1.972  37.635  14.328
76199W        W41459  11.284   3.002   1.877
76200W        W41460   2.319  32.884  13.900
76201W        W41461  25.059  15.083  13.905
76202W        W41462  38.012  40.101  14.383
76203W        W41463   9.157  17.488  14.912
76204W        W41464  39.240   2.275   2.664
76205W        W41465   8.830  24.908  12.794
76206W        W41466  17.090   1.413  13.834
76207W        W41467  20.326   2.711  10.698
76208W        W41468  14.555  38.932  11.053
76209W        W41469   4.775  17.348   0.886
76210W        W41470  44.312  36.879  10.528
76211W        W41471  32.811  26.968  12.157
76212W        W41472  37.842  34.140  12.475
76213W        W41473  42.381  37.047   1.402
76214W        W41474  36.926  40.251  13.510
76215W        W41475  27.078   9.244  14.448
76216W        W41476  40.854  11.659   3.660
76217W        W41477  20.800   9.787   4.570
76218W        W41478  43.540  34.023  14.872
76219W        W41479  31.103  15.365   0.528
76220W        W41480  22.944  37.246   4.555
76221W        W41481  35.371   6.893   3.636
76222W        W41482  24.053   5.243  13.968
76223W        W41483  17.684  39.287  11.569
76224W        W41484  39.225  35.863   3.485
76225W        W41485  10.159  23.680  13.534
76226W        W41486  25.554  18.343   3.063
76227W        W41487  12.494  10.461  14.930
76228W        W41488  21.271  29.170  12.926
76229W        W41489   6.881  23.034   2.180
76230W        W41490  14.106  24.072  11.003
76231W        W41491  39.234  35.435  11.056
76232W        W41492   1.135  22.054   4.963
76233W        W41493  10.005  32.104   0.273
76234W        W41494  37.801  17.270  11.720
76235W        W41495   3.457  17.712  12.849
76236W        W41496  16.429   9.797   5.131
76237W        W41497  16.394  43.177   5.285
76238W        W41498  22.410   1.746   1.868
76239W        W41499   6.400   0.337   3.539
76240W        W41500  42.819  26.927  12.463
76241W        W41501  12.365   7.101  13.662
76242W        W41502   2.961  30.470  14.949
76243W        W41503  44.981  44.006   0.404
76244W        W41504   0.831  32.616  12.027
76245W        W41505   6.400  11.637  11.202
76246W        W41506  17.751   4.698  12.209
76247W        W41507  27.113  24.222  13.207
76248W        W41508  36.359  33.368   0.931
76249W        W41509  43.191  27.478   2.637
76250W        W41510  31.430  26.645   2.273
76251W        W41511  32.155  36.116   4.522
76252W        W41512  32.300   2.785   3.366
76253W        W41513   4.989  30.826   2.337
76254W        W41514  30.069  28.418   4.104
76255W        W41515  40.432  39.961   4.257
76256W        W41516   8.773  12.705  11.294
76257W        W41517   8.856   0.037   1.734
76258W        W41518  36.885  38.560   4.335
76259W        W41519  31.440  19.454   0.715
76260W        W41520  42.943  41.837  12.354
76261W        W41521  27.161  43.801  14.453
76262W        W41522  10.645  28.088   0.340
76263W        W41523  16.196  42.800   3.402
76264W        W41524   3.011  26.729   1.233
76265W        W41525  23.412  16.336  14.540
76266W        W41526  21.985  14.770  12.996
76267W        W41527  43.388  31.563   4.343
76268W        W41528  30.002  12.841   0.353
76269W        W41529  10.990  43.922  13.082
76270W        W41530  21.574  10.505  12.001
76271W        W41531  33.937  40.021   1.819
76272W        W41532   3.125  43.352   4.168
76273W        W41533  43.421  10.880   1.145
76274W        W41534  33.648  38.525   4.605
76275W        W41535  36.852  42.685   1.256
76276W        W41536  11.183  25.686   2.353
76277W        W41537  11.980  17.506   3.235
76278W        W41538   2.928   4.449  13.359
76279W        W41539  10.681   2.878   4.466
76280W        W41540  29.148   8.395   3.159
76281W        W41541  28.422  36.767   0.732
76282W        W41542  44.450  21.741  11.710
76283W        W41543  23.225  31.191   3.472
76284W        W41544  40.686  37.878  11.282
76285W        W41545  33.548  34.336  11.729
76286W        W41546   0.297   7.945  12.303
76287W        W41547  14.699  37.186   3.246
76288W        W41548  30.411  27.462   1.401
76289W        W41549  32.528  23.701  12.307
76290W        W41550  41.440  15.280  12.123
76291W        W41551  10.285  28.569  14.951
76292W        W41552  27.025  22.640  13.363
76293W        W41553   2.571  36.347   0.987
76294W        W41554  36.332  13.663  13.904
76295W        W41555   0.346  40.490   1.331
76296W        W41556  15.145  44.987   4.188
76297W        W41557  28.575  38.621  14.603
76298W        W41558  36.234  41.996   4.158
76299W        W41559  10.314  22.147  14.953
76300W        W41560  34.817  18.679  14.353
76301W        W41561  12.403  21.080   1.860
76302W        W41562  12.970   2.992   4.180
76303W        W41563  41.739   5.365   2.252
76304W        W41564  40.445   8.685   2.846
76305W        W41565  20.785  23.022   2.342
76306W        W41566   3.628  32.059   3.255
76307W        W41567  12.331  21.365  10.497
76308W        W41568  13.555  35.935  10.971
76309W        W41569  43.812   1.325   2.959
76310W        W41570  41.367  44.755   4.469
76311W        W41571  29.766  38.472   2.596
76312W        W41572  41.278   0.806   2.820
76313W        W41573  26.982  44.634   4.654
76314W        W41574  28.179  27.684  11.516
76315W        W41575  34.067  19.235   3.319
76316W        W41576  24.454  19.267  13.462
76317W        W41577  35.385  16.738  12.047
76318W        W41578  21.576  24.736  11.563
76319W        W41579  41.817  34.885   4.639
76320W        W41580  39.873  15.060  14.579
76321W        W41581  36.290  36.055  13.944
76322W        W41582  17.129  27.705   2.983
76323W        W41583   9.118  15.663  13.811
76324W        W41584  21.989  16.714   4.662
76325W        W41585   6.633   2.421   0.222
76326W        W41586  43.013   5.277   3.208
76327W        W41587  19.148  36.558  13.824
76328W        W41588  17.080   3.157  10.380
76329W        W41589  25.912  38.967  14.610
76330W        W41590  34.897  32.814  10.776
76331W        W41591  14.363  12.769   3.859
76332W        W41592  25.638  19.746   2.941
76333W        W41593   2.190  38.817  13.789
76334W        W41594  41.634  23.740  11.453
76335W        W41595  34.459  25.169  12.704
76336W        W41596  10.354   6.143  14.558
76337W        W41597  24.030  32.114   1.444
76338W        W41598  18.351   5.992   2.396
76339W        W41599  37.646  27.074  11.083
76340W        W41600  33.594   9.373  14.239
76341W        W41601  19.158  36.223   2.747
76342W        W41602   3.741  15.209  11.430
76343W        W41603  27.411  41.941  11.531
76344W        W41604  15.655  11.168   1.539
76345W        W41605   0.872  25.917   3.041
76346W        W41606  18.241  10.250   2.173
76347W        W41607  35.585   5.380  12.453
76348W        W41608  35.951  41.338  14.337
76349W        W41609  34.357   7.030   4.108
76350W        W41610  19.071  17.668  13.923
76351W        W41611  44.944  41.010   3.034
76352W        W41612  18.822  40.600   2.700
76353W        W41613  23.310  43.518   1.888
76354W        W41614  23.618  33.926   2.775
76355W        W41615   2.450  22.701   5.510
76356W        W41616  22.978  27.565  12.318
76357W        W41617  33.892  13.963  12.906
76358W        W41618  19.046  43.340  13.937
76359W        W41619  38.881  36.167  13.489
76360W        W41620  26.116   0.160   1.461
76361W        W41621  41.181   8.125   2.018
76362W        W41622  34.032   9.942   3.621
76363W        W41623  31.957  41.761   3.800
76364W        W41624  35.672  30.862   4.079
76365W        W41625  29.585  29.913  11.930
76366W        W41626  20.609   1.906   2.464
76367W        W41627   5.759  41.572  11.175
76368W        W41628  31.432  36.534  12.995
76369W        W41629   5.280   1.582   0.463
76370W        W41630  16.112  33.214  14.156
76371W        W41631   3.507  30.943   3.233
76372W        W41632  15.169  40.381   1.878
76373W        W41633  10.407  35.043   2.820
76374W        W41634  26.636  42.827  12.926
76375W        W41635  12.561  13.762  11.176
76376W        W41636  41.695  32.419   1.333
76377W        W41637   4.902  25.170  11.594
76378W        W41638  30.201  21.548   0.913
76379W        W41639  13.678  26.586   4.159
76380W        W41640  37.152  30.048  12.947
76381W        W41641  33.448   3.251   2.219
76382W        W41642  44.605  37.404   0.229
76383W        W41643  35.487   5.181   4.170
76384W        W41644  16.221  36.298   1.257
76385W        W41645  34.705  25.915  14.341
76386W        W41646  12.258  24.218  11.132
76387W        W41647   3.837   8.071   3.882
76388W        W41648  17.851  38.342   1.267
76389W        W41649  29.080   8.713  11.600
76390W        W41650   1.535  42.073  11.900
76391W        W41651  37.300  14.993  11.473
76392W        W41652  28.976  38.127  10.574
76393W        W41653   8.674  26.035  14.187
76394W        W41654  10.338  41.108   4.680
76395W        W41655  25.767  40.976   1.370
76396W        W41656  41.398   0.989   4.708
76397W        W41657  11.673  24.106   0.682
76398W        W41658  32.492   8.875  14.940
76399W        W41659  34.737  19.745   2.632
76400W        W41660  25.397   5.498   2.098
76401W        W41661  34.348  44.291  14.467
76402W        W41662  44.276  28.720   1.292
76403W        W41663  26.440  17.186   3.684
76404W        W41664   1.905   8.579   1.341
76405W        W41665  24.824   7.361   0.064
76406W        W41666  39.320   9.688   2.695
76407W        W41667   1.014  37.857  11.773
76408W        W41668   7.314   1.286  10.916
76409W        W41669   1.346   8.616   2.190
76410W        W41670  15.442   8.704   4.836
76411W        W41671  25.253  19.750   3.271
76412W        W41672  17.543  21.841  12.077
76413W        W41673  33.827  29.105   3.756
76414W        W41674  20.678   7.976  12.133
76415W        W41675   9.685  23.007   4.576
76416W        W41676   2.986   0.932  11.262
76417W        W41677  24.779  13.127   0.851
76418W        W41678   9.433  39.392  11.039
76419W        W41679  17.179  30.395   4.035
76420W        W41680   2.636  28.216   1.428
76421W        W41681  44.288   5.619  13.076
76422W        W41682  43.278  30.021   2.745
76423W        W41683  30.916   4.355   4.660
76424W        W41684  41.012   4.714  10.934
76425W        W41685  43.592  28.154  14.468
76426W        W41686  24.916  19.509  13.039
76427W        W41687  21.776  32.530  12.352
76428W        W41688  41.004   3.033  13.036
76429W        W41689  33.850  12.243   1.224
76430W        W41690  42.875  40.461   1.459
76431W        W41691  31.190  16.547  12.824
76432W        W41692   7.364  42.514   2.105
76433W        W41693  37.811  17.525  11.265
76434W        W41694  39.941   1.268  14.241
76435W        W41695  35.973   8.801   3.337
76436W        W41696  40.069  43.418   0.482
76437W        W41697   7.705   5.315   4.757
76438W        W41698   1.991  18.384   4.459
76439W        W41699  33.087  31.826   0.492
76440W        W41700  10.772  36.469  12.363
76441W        W41701  36.974  43.366   2.253
76442W        W41702  38.040  34.378   0.786
76443W        W41703  29.932  27.965   3.179
76444W        W41704  27.095  14.215  11.112
76445W        W41705   5.085  15.525  14.336
76446W        W41706  32.336  28.404   1.768
76447W        W41707  29.519  15.195   4.590
76448W        W41708  15.656  11.584  10.151
76449W        W41709  10.706   5.625   2.669
76450W        W41710  20.769   8.404  13.240
76451W        W41711   1.842  21.481  13.925
76452W        W41712  17.972   5.982   0.861
76453W        W41713  18.243  32.049  14.871
76454W        W41714  11.282   5.301   4.612
76455W        W41715  36.155   8.269  12.760
76456W        W41716  32.680   6.229  13.573
76457W        W41717  25.545  33.813  12.469
76458W        W41718  38.617  15.118  12.358
76459W        W41719  41.742  27.658  10.759
76460W        W41720  28.732  30.386   4.944
76461W        W41721  10.705  38.032   0.730
76462W        W41722   0.228   8.296  10.498
76463W        W41723   9.000  22.700   0.025
76464W        W41724  30.129  12.880  14.490
76465W        W41725  23.529  13.149   3.980
76466W        W41726   5.174   7.183   1.747
76467W        W41727  43.355   5.328  12.253
76468W        W41728   8.259  39.266   0.906
76469W        W41729  26.604  12.661   3.875
76470W        W41730  32.101  24.255  11.169
76471W        W41731   9.304  25.582  13.130
76472W        W41732  41.223   8.250   1.001
76473W        W41733  21.219  33.019  14.927
76474W        W41734  20.576  19.539   4.677
76475W        W41735  32.218   7.834   3.760
76476W        W41736  10.619   3.020  14.320
76477W        W41737  27.475  10.644  12.431
76478W        W41738  15.388  35.985   4.808
76479W        W41739  43.024   7.421   3.698
76480W        W41740  27.027  11.605  14.949
76481W        W41741   0.004  33.489   0.730
76482W        W41742  32.948  28.159   3.320
76483W        W41743  41.094  25.519   4.545
76484W        W41744   2.283  15.377   1.742
76485W        W41745   3.922   9.226   1.852
76486W        W41746  42.919  20.121   3.039
76487W        W41747  23.206   5.005  14.299
76488W        W41748  34.547  13.446  11.690
76489W        W41749  10.550  19.793   4.507
76490W        W41750  34.600  33.337   2.303
76491W        W41751  13.672   2.253  11.636
76492W        W41752  19.155  25.320  11.872
76493W        W41753  33.561   2.716  14.458
76494W        W41754   1.339   4.322   0.482
76495W        W41755  18.747   6.110   1.712
76496W        W41756  36.639   0.215  11.674
76497W        W41757  29.648   1.091   4.111
76498W        W41758  20.906  25.671   2.706
76499W        W41759   6.684  37.688  12.128
76500W        W41760  31.947  35.641  11.677
76501W        W41761   7.383   9.765  14.297
76502W        W41762  35.067  34.011   2.882
76503W        W41763  16.528   5.360   3.686
76504W        W41764  27.293  30.758  13.485
76505W        W41765  35.504  38.142   1.716
76506W        W41766  37.892  12.435   2.076
76507W        W41767  11.602  23.527   4.180
76508W        W41768  30.065  30.128  11.701
76509W        W41769  24.548  33.937   4.250
76510W        W41770   8.596   8.217   2.124
76511W        W41771   1.337  43.004  12.395
76512W        W41772  43.653   2.803   3.320
76513W        W41773  40.945  13.601   3.277
76514W        W41774  23.578  19.189   1.683
76515W        W41775  38.619  26.789   1.991
76516W        W41776  27.385  28.442   0.874
76517W        W41777  35.558  39.574   0.773
76518W        W41778   1.724  22.688   3.544
76519W        W41779  33.677  21.961  12.047
76520W        W41780  25.662   1.440  11.407
76521W        W41781  29.024   7.122   0.816
76522W        W41782  17.521  17.031  13.425
76523W        W41783   4.997  27.639  11.163
76524W        W41784  34.755   6.733  12.633
76525W        W41785  44.862   2.638   3.646
76526W        W41786  13.406   7.985   2.245
76527W        W41787   3.218  31.247  10.576
76528W        W41788  37.643  22.761  12.973
76529W        W41789   7.015   7.115   3.924
76530W        W41790   7.459  40.980   4.130
76531W        W41791  35.449  15.327   3.210
76532W        W41792  21.113  29.089  10.624
76533W        W41793  32.542  36.658   1.205
76534W        W41794  39.050  16.801   0.288
76535W        W41795  17.105  14.272  13.825
76536W        W41796   9.492  11.994  12.058
76537W        W41797  42.410  37.146   2.437
76538W        W41798   2.905  43.845   0.278
76539W        W41799   3.083  31.874  11.863
76540W        W41800   5.358  16.275   3.739
76541W        W41801  43.161  33.410   4.111
76542W        W41802  16.336  35.183   2.305
76543W        W41803  13.793  31.614   1.816
76544W        W41804  26.767   3.001   1.304
76545W        W41805  36.892  23.113  12.059
76546W        W41806  36.286  20.723  11.585
76547W        W41807  24.974  32.761   4.742
76548W        W41808  37.578  19.720  13.915
76549W        W41809   2.001   4.194  12.519
76550W        W41810  38.791   5.903  10.673
76551W        W41811  26.941   8.679   1.181
76552W        W41812  18.030  30.599   2.091
76553W        W41813   2.833  13.607   2.291
76554W        W41814  27.594  15.750   1.620
76555W        W41815  17.288  37.398  13.556
76556W        W41816  33.304  32.430   4.159
76557W        W41817  41.758  21.600  11.083
76558W        W41818  10.149  30.161  13.001
76559W        W41819  24.711  16.656  12.358
76560W        W41820   6.920  41.893   3.652
76561W        W41821  31.526  39.602   0.938
76562W        W41822  28.031  34.895   4.235
76563W        W41823   3.816   7.393   3.095
76564W        W41824  15.792  20.225   0.917
76565W        W41825  21.496   6.435  14.428
76566W        W41826  32.593  25.218   3.250
76567W        W41827  36.164   8.309  12.260
76568W        W41828  25.556  24.727   0.820
76569W        W41829  36.961  42.097   4.709
76570W        W41830  41.480  16.862  14.771
76571W        W41831  37.877   7.460   4.098
76572W        W41832  11.761  37.071   2.671
76573W        W41833  20.794  36.610   3.689
76574W        W41834  29.478  21.245   2.234
76575W        W41835  25.413   0.614   2.675
76576W        W41836  43.348   5.882   0.289
76577W        W41837  19.117   7.661  11.172
76578W        W41838  11.752  27.754  14.556
76579W        W41839   4.233  34.694  12.709
76580W        W41840  40.569  32.406  12.977
76581W        W41841   3.784   5.870  11.576
76582W        W41842  44.428  41.451  10.126
76583W        W41843  15.277  14.301  14.434
76584W        W41844  11.670   5.191   3.276
76585W        W41845   9.794   8.001  13.645
76586W        W41846  17.956  32.281  10.554
76587W        W41847  13.920  16.806   1.143
76588W        W41848  44.430   7.286   0.934
76589W        W41849  27.344  22.228   0.571
76590W        W41850  14.840  19.780   1.812
76591W        W41851  41.217   0.518  14.941
76592W        W41852  23.613  13.022  13.809
76593W        W41853  21.487  25.493   1.902
76594W        W41854  44.242  33.189   5.394
76595W        W41855  23.619  29.733  10.700
76596W        W41856  26.630  31.005  13.122
76597W        W41857  35.035  28.109   3.661
76598W        W41858  39.754  44.761  13.962
76599W        W41859  30.748  40.988  12.899
76600W        W41860   1.248   4.210   2.273
76601W        W41861  15.541  25.211   2.247
76602W        W41862   6.407   0.317  11.905
76603W        W41863  14.324  24.621  13.313
76604W        W41864   9.207  43.224   1.675
76605W        W41865  26.334  26.389   4.611
76606W        W41866  21.840   9.903   3.657
76607W        W41867  31.487  14.717   0.510
76608W        W41868  40.599   1.800  11.415
76609W        W41869  29.511   0.649  13.462
76610W        W41870  27.166  28.747   4.117
76611W        W41871  21.783  33.025   4.490
76612W        W41872  41.456   4.769   1.284
76613W        W41873  15.603  39.906  11.656
76614W        W41874  31.113  35.436   0.753
76615W        W41875  43.279  10.239   2.071
76616W        W41876  36.372  10.693   1.142
76617W        W41877  11.334  10.408   1.335
76618W        W41878  18.916  34.381   1.302
76619W        W41879  21.446   7.914  14.412
76620W        W41880   7.923  28.666   0.049
76621W        W41881  11.034  33.987  14.634
76622W        W41882  34.337  29.573  13.937
76623W        W41883  33.069  42.352  12.058
76624W        W41884  14.108  29.027   2.267
76625W        W41885  40.565   5.179   4.566
76626W        W41886  41.280  22.239  13.834
76627W        W41887  20.627  23.003   1.408
76628W        W41888  31.325  32.034   4.262
76629W        W41889  15.475  12.628  12.683
76630W        W41890  22.503   8.646   1.353
76631W        W41891  13.671  29.627   1.826
76632W        W41892  28.369  18.632   3.490
76633W        W41893   2.022  16.868  13.980
76634W        W41894  32.090  25.516  12.197
76635W        W41895  40.786  21.651  14.859
76636W        W41896  13.920  34.557  11.539
76637W        W41897  44.404   1.200   1.839
76638W        W41898  25.130  13.145  11.969
76639W        W41899   6.460   8.124   3.280
76640W        W41900  14.180  21.470  12.134
76641W        W41901   4.988   2.905  12.394
76642W        W41902  15.112  24.545   3.673
76643W        W41903  27.617   8.060  13.087
76644W        W41904  43.837  24.277   1.810
76645W        W41905  37.077  18.529  14.824
76646W        W41906  20.539   7.808   0.710
76647W        W41907  38.526  30.373   4.191
76648W        W41908  30.529  35.823  10.698
76649W        W41909  17.586   8.952  10.883
76650W        W41910  19.968  31.728  11.881
76651W        W41911  39.041  37.360   3.815
76652W        W41912  32.374   3.354  10.383
76653W        W41913  39.318  12.793   3.632
76654W        W41914  14.037   6.339   0.274
76655W        W41915  41.258  14.321   2.275
76656W        W41916  12.380  15.118   0.083
76657W        W41917   7.330  12.598   1.317
76658W        W41918   1.948   6.596  12.013
76659W        W41919  16.733   4.906  10.849
76660W        W41920  18.045  32.789   2.296
76661W        W41921  14.659  19.613   2.669
76662W        W41922  20.128  14.151   4.462
76663W        W41923   3.176  10.767  10.448
76664W        W41924   5.949   7.612  12.176
76665W        W41925  21.514   2.741  14.021
76666W        W41926   1.093  44.946  11.071
76667W        W41927  13.644   2.257   2.957
76668W        W41928  15.420  36.031  12.645
76669W        W41929  28.958  13.124  10.557
76670W        W41930  28.105  21.517  14.802
76671W        W41931   8.898  19.325   1.797
76672W        W41932  11.171  12.835  12.713
76673W        W41933  28.434  15.135   4.473
76674W        W41934  31.459  15.112   4.375
76675W        W41935  16.468   1.149   1.846
76676W        W41936  21.564  17.614   1.362
76677W        W41937   7.402  22.143  12.049
76678W        W41938  16.594   0.421  11.576
76679W        W41939  27.858  40.900   3.651
76680W        W41940  31.054   3.730   3.097
76681W        W41941  11.681  17.638   0.800
76682W        W41942  16.295  38.030  11.176
76683W        W41943  17.021  13.662   0.393
76684W        W41944  30.848  24.662   0.814
76685W        W41945  10.118  18.546  13.757
76686W        W41946  12.636  43.397   0.931
76687W        W41947  41.480   5.000   0.404
76688W        W41948  14.533  29.633  14.733
76689W        W41949  13.317  43.286  12.072
76690W        W41950  17.867  12.620   3.200
76691W        W41951  19.985  24.665  14.933
76692W        W41952   5.290  14.300   0.416
76693W        W41953  36.225  10.496  12.498
76694W        W41954  27.011  21.645  10.670
76695W        W41955  43.325  11.847  13.385
76696W        W41956  26.264  36.532   1.334
76697W        W41957   1.179  28.547   3.666
76698W        W41958  42.882  18.790   2.108
76699W        W41959  39.175  31.493   3.184
76700W        W41960  22.816  43.575  13.598
76701W        W41961  21.569   5.401   0.286
76702W        W41962  11.814  27.068  10.213
76703W        W41963  20.222  38.764  14.901
76704W        W41964  27.668  29.362   1.777
76705W        W41965  32.830  29.660   2.795
76706W        W41966  27.505  14.702   3.254
76707W        W41967  13.689   4.216  10.667
76708W        W41968  21.616   7.384  14.373
76709W        W41969  41.303   1.640  12.646
76710W        W41970  37.609  30.624   4.803
76711W        W41971   3.919  11.196   2.809
76712W        W41972  26.976  11.367  12.051
76713W        W41973  35.871  11.875  10.774
76714W        W41974  20.999  44.386   0.217
76715W        W41975  16.611  34.134  14.446
76716W        W41976   8.186   5.396   4.589
76717W        W41977   3.706  29.928  12.075
76718W        W41978   0.613  11.438  13.427
76719W        W41979   5.769  10.889  13.543
76720W        W41980  41.519  33.966  10.968
76721W        W41981  42.732  41.450   4.287
76722W        W41982  33.495  34.684   4.084
76723W        W41983  42.938  22.374   0.380
76724W        W41984  18.522  32.564   2.368
76725W        W41985  44.290  16.518   3.307
76726W        W41986  39.989  38.111   4.189
76727W        W41987  17.972   4.190   2.437
76728W        W41988  16.232  41.861  11.353
76729W        W41989   9.264   0.163   4.343
76730W        W41990  32.542   1.237  14.266
76731W        W41991  18.392  31.040   2.798
76732W        W41992  24.494  21.765   0.866
76733W        W41993  32.182  21.208  12.010
76734W        W41994   9.625   6.211   4.521
76735W        W41995  33.936  26.007  12.257
76736W        W41996  36.570  41.895  14.198
76737W        W41997  23.719  12.020  13.901
76738W        W41998  17.149  21.769  14.831
76739W        W41999  15.358   0.528  14.035
76740W        W42000   2.704   4.955  10.758
76741W        W42001  16.229  26.787   3.328
76742W        W42002  10.784  34.589  10.690
76743W        W42003  44.267  22.621  12.649
76744W        W42004   9.265  38.307   3.101
76745W        W42005   6.531   3.664   4.971
76746W        W42006   8.754  36.994  14.999
76747W        W42007  34.447  19.064   0.547
76748W        W42008  31.824   1.755  13.789
76749W        W42009   5.849  41.716   4.155
76750W        W42010  19.478   5.704   0.825
76751W        W42011  13.155   8.667  13.612
76752W        W42012  34.415  41.597   1.288
76753W        W42013  38.444   4.922  13.935
76754W        W42014  26.373  10.452   3.689
76755W        W42015  13.708  15.170  11.726
76756W        W42016  17.870  21.605  12.498
76757W        W42017  39.984  22.996   2.607
76758W        W42018   7.834  18.088  13.417
76759W        W42019   0.236  19.324  14.473
76760W        W42020  40.740  27.481  14.593
76761W        W42021  32.378  29.990  12.563
76762W        W42022  23.124   8.660  11.387
76763W        W42023  14.965  14.333   1.212
76764W        W42024   7.413  40.062   0.285
76765W        W42025   5.692  25.919   4.177
76766W        W42026  44.551  40.927   1.145
76767W        W42027   9.171  24.915   4.514
76768W        W42028  17.121  29.964   2.331
76769W        W42029  21.113   5.832  13.891
76770W        W42030  16.047  43.144   2.312
76771W        W42031  27.837  20.475   0.919
76772W        W42032   3.749   5.495   2.262
76773W        W42033  39.439  37.498   1.245
76774W        W42034   8.691   3.686   2.470
76775W        W42035   3.696  15.601  10.787
76776W        W42036  43.092  26.015  12.050
76777W        W42037  13.788  10.323   3.220
76778W        W42038  17.415   3.842   0.842
76779W        W42039  33.565  30.517   2.259
76780W        W42040  43.610  43.414  13.424
76781W        W42041  31.986  17.597   1.945
76782W        W42042  36.936   7.751   5.196
76783W        W42043  36.022  41.925   2.754
76784W        W42044  24.983  18.091  13.439
76785W        W42045  25.235  37.797   3.693
76786W        W42046  21.232   6.393   0.833
76787W        W42047  41.499  40.964   4.381
76788W        W42048   6.849  17.828   0.847
76789W        W42049  33.520  16.150   0.993
76790W        W42050   6.160  11.366   1.310
76791W        W42051  31.384  23.671  12.349
76792W        W42052  22.476  30.640   3.245
76793W        W42053  17.187  15.544   3.812
76794W        W42054  20.616  27.704   0.747
76795W        W42055  30.019  43.889  14.786
76796W        W42056  10.354   9.400  14.535
76797W        W42057   3.980   4.319  14.744
76798W        W42058  42.688  10.371   1.198
76799W        W42059  13.807  12.366  12.522
76800W        W42060  31.964  15.637  13.024
76801W        W42061  27.069   5.357  14.438
76802W        W42062  15.880  15.785  14.546
76803W        W42063  12.187  19.217  13.875
76804W        W42064   4.377  34.985   4.174
76805W        W42065  18.014  22.251   2.681
76806W        W42066  29.904  44.278   2.837
76807W        W42067  41.756   3.890   2.515
76808W        W42068  28.066  15.554   1.491
76809W        W42069  30.415   0.748   5.159
76810W        W42070   3.210  40.512   2.843
76811W        W42071  20.165  19.800   1.263
76812W        W42072  25.237  26.393  10.285
76813W        W42073  25.487  26.462   4.238
76814W        W42074  44.391   9.339   2.623
76815W        W42075  39.960  18.838  10.811
76816W        W42076  23.035  40.168  10.332
76817W        W42077   4.353  42.347  10.771
76818W        W42078   1.197  18.456   0.135
76819W        W42079  43.839  26.054  13.568
76820W        W42080  27.395  43.975  11.947
76821W        W42081   9.866   2.905   2.717
76822W        W42082  14.640  30.907   2.718
76823W        W42083  31.036  41.233  10.823
76824W        W42084   9.885   4.834   4.111
76825W        W42085  19.550  16.472   4.509
76826W        W42086   3.558  41.144  11.082
76827W        W42087  13.747  30.974   4.545
76828W        W42088   0.794  13.846  14.259
76829W        W42089  25.660  12.702   0.224
76830W        W42090  29.179  38.935  10.819
76831W        W42091  35.842  13.821  14.000
76832W        W42092  23.287  44.447   3.615
76833W        W42093  20.679   6.443   3.271
76834W        W42094  39.535  29.806   0.405
76835W        W42095  42.869   3.811   4.570
76836W        W42096  15.265  28.538   2.319
76837W        W42097  37.502   5.023   2.498
76838W        W42098   4.684   4.795   5.129
76839W        W42099  26.672  33.098  10.347
76840W        W42100  41.513   3.265  13.946
76841W        W42101  25.596  23.211  14.670
76842W        W42102  38.931  27.499  13.664
76843W        W42103   5.453  44.785   3.254
76844W        W42104  27.222  30.552   3.593
76845W        W42105  32.461  39.770  11.785
76846W        W42106  15.102  12.973  13.958
76847W        W42107  16.656  32.546  12.674
76848W        W42108  34.056  29.914   3.610
76849W        W42109  20.316  15.716   2.246
76850W        W42110  16.294  11.800   3.213
76851W        W42111  31.801  12.873  13.474
76852W        W42112  35.082  22.729   2.750
76853W        W42113  41.367  19.878   3.715
76854W        W42114  23.955  41.556  13.763
76855W        W42115  20.637  37.282   4.246
76856W        W42116   5.760  19.073  11.319
76857W        W42117   8.664  28.409   2.355
76858W        W42118  24.273  15.537  10.249
76859W        W42119  27.636  28.907   0.814
76860W        W42120   6.829  10.166  12.109
76861W        W42121   2.773  11.102   0.294
76862W        W42122  17.214  33.884  10.892
76863W        W42123  17.797  33.189  14.534
76864W        W42124  20.078  36.625  14.418
76865W        W42125  41.915  15.859  13.402
76866W        W42126   9.670  24.511   1.396
76867W        W42127  35.683  25.836   4.325
76868W        W42128  39.116  25.841  11.885
76869W        W42129  29.087   6.946  12.920
76870W        W42130  35.860  17.587   1.274
76871W        W42131  29.194  18.878  10.498
76872W        W42132  39.730  34.421   1.989
76873W        W42133  14.231  34.936   1.089
76874W        W42134  40.799  30.160   3.682
76875W        W42135  27.292  17.654   3.601
76876W        W42136   2.699  23.961   2.121
76877W        W42137  34.589  11.275  12.970
76878W        W42138  16.735  29.299   4.981
76879W        W42139  10.717   2.743  13.898
76880W        W42140  14.031  12.247   4.968
76881W        W42141   7.712  29.138  11.192
76882W        W42142  44.448  24.536   0.962
76883W        W42143   8.116  27.027   3.110
76884W        W42144   1.388  33.357   4.286
76885W        W42145   7.222  27.332   3.341
76886W        W42146   4.259   3.336  12.568
76887W        W42147  28.654  42.524   3.225
76888W        W42148  14.955  24.190   0.254
76889W        W42149  24.905  26.376  11.117
76890W        W42150   3.993  14.746   2.684
76891W        W42151  29.510  28.602  11.246
76892W        W42152  16.072  37.537   4.900
76893W        W42153  11.965  14.065   3.183
76894W        W42154   8.159  36.848  11.580
76895W        W42155  17.707   4.623  13.616
76896W        W42156  38.839  40.877  12.830
76897W        W42157  14.994  32.853  12.422
76898W        W42158  14.548   4.883  14.423
76899W        W42159  18.426  31.982  10.521
76900W        W42160   7.460   3.290   2.753
76901W        W42161  26.615  13.573  10.788
76902W        W42162  25.527  27.568   2.471
76903W        W42163   1.026   0.908   0.735
76904W        W42164  24.544  38.995  10.850
76905W        W42165  34.583  21.513   0.439
76906W        W42166  16.375   2.322   0.436
76907W        W42167  22.211  29.524   4.526
76908W        W42168  42.017   4.778   9.925
76909W        W42169  36.345  38.889   4.781
76910W        W42170  35.947  28.220   3.677
76911W        W42171  19.068  43.450  12.493
76912W        W42172  10.160  33.068  11.916
76913W        W42173  31.181  29.898  13.957
76914W        W42174   4.522  21.783   4.366
76915W        W42175  25.217   6.691   2.376
76916W        W42176  11.363   8.115   0.055
76917W        W42177  34.375  11.362  14.920
76918W        W42178  19.336   2.893   0.189
76919W        W42179  17.035  15.057   3.696
76920W        W42180  42.241  33.852   0.738
76921W        W42181   4.369  21.194  13.335
76922W        W42182  37.815  21.935  12.843
76923W        W42183  24.990  14.362  13.445
76924W        W42184   1.956  30.445   0.715
76925W        W42185  24.131  39.399  14.189
76926W        W42186   4.654  20.244  12.740
76927W        W42187  21.282  14.733  13.950
76928W        W42188  13.543  12.195  11.365
76929W        W42189  38.835   9.643  12.147
76930W        W42190   9.684  15.521  12.175
76931W        W42191  37.387   5.821   0.963
76932W        W42192   3.231  38.266   4.761
76933W        W42193   9.842  37.376  12.056
76934W        W42194  29.879  34.146  13.684
76935W        W42195  16.761   7.882   1.274
76936W        W42196  40.552  10.533   2.911
76937W        W42197  32.459  24.013   9.950
76938W        W42198   0.138  32.973  11.079
76939W        W42199   1.909  26.673  12.934
76940W        W42200  39.442  23.540  10.787
76941W        W42201  43.768  44.327   3.266
76942W        W42202   9.795  42.447  11.704
76943W        W42203  28.417  24.154  13.012
76944W        W42204  20.238   7.859  10.652
76945W        W42205  25.410  20.732  12.193
76946W        W42206  13.821  20.050  13.706
76947W        W42207  37.813  25.851  11.447
76948W        W42208  23.966  21.813  14.335
76949W        W42209  18.990   4.839   2.399
76950W        W42210   9.275  11.772  13.423
76951W        W42211  11.792  44.441   2.650
76952W        W42212   2.102  39.018  11.499
76953W        W42213  37.129   4.187  14.384
76954W        W42214  38.902   1.733  14.607
76955W        W42215   2.966  36.815  11.888
76956W        W42216   3.432  21.789  12.058
76957W        W42217  32.072   3.732  12.149
76958W        W42218   6.710  14.844   3.383
76959W        W42219  24.994   4.414  13.474
76960W        W42220  21.870  15.212   3.190
76961W        W42221  17.388  44.398   0.870
76962W        W42222   8.193  11.421   4.231
76963W        W42223  33.886  35.418   4.091
76964W        W42224  15.589  17.101  11.890
76965W        W42225  44.873  18.283  14.947
76966W        W42226  19.556  34.396   4.070
76967W        W42227  29.760  41.765  13.957
76968W        W42228   8.361  11.780   2.973
76969W        W42229  41.834  29.212  14.936
76970W        W42230   6.462  16.749   1.694
76971W        W42231   7.962  19.252   4.609
76972W        W42232  32.407   0.472  10.600
76973W        W42233  11.434  14.354   0.368
76974W        W42234  11.817  41.025  13.287
76975W        W42235   7.160  16.777  11.600
76976W        W42236  12.334  38.550  12.463
76977W        W42237  36.355  30.088  12.490
76978W        W42238  40.786  16.503   2.340
76979W        W42239  40.768  19.056  12.103
76980W        W42240  14.457   2.447   3.807
76981W        W42241  16.253  32.812   3.226
76982W        W42242   1.849  31.627  12.916
76983W        W42243  11.158  34.974   4.336
76984W        W42244  12.106  35.891   2.843
76985W        W42245  26.420  33.005   0.528
76986W        W42246  41.135   6.292  12.484
76987W        W42247  20.090   6.534   1.736
76988W        W42248  17.351  30.544  10.672
76989W        W42249  31.485  36.836  10.563
76990W        W42250   8.254  11.415   3.653
76991W        W42251  28.294  21.074   2.814
76992W        W42252  42.226  35.681  11.706
76993W        W42253   5.605  37.663  13.510
76994W        W42254  29.454  40.930   3.180
76995W        W42255  15.753  42.017  12.538
76996W        W42256  33.911   4.613   2.481
76997W        W42257   1.124  21.571   2.301
76998W        W42258   6.701  15.175   0.823
76999W        W42259  20.059  17.282  10.881
77000W        W42260  36.407   6.821   4.755
77001W        W42261   0.621  35.107  13.303
77002W        W42262  42.089  41.632  11.684
77003W        W42263  44.190  13.469  10.406
77004W        W42264  42.754  10.964   3.661
77005W        W42265  25.006  38.500  12.382
77006W        W42266  26.541   4.959  10.645
77007W        W42267  33.465  42.910   4.727
77008W        W42268  20.108  10.852  11.915
77009W        W42269  16.864  15.269   4.131
77010W        W42270  39.410  28.493  14.260
77011W        W42271  36.182   0.440   1.353
77012W        W42272  27.302  13.858   1.871
77013W        W42273  22.560   5.821  12.040
77014W        W42274  30.952  38.227   0.805
77015W        W42275   1.455   4.295  11.900
77016W        W42276  27.658  25.135  10.692
77017W        W42277   0.447  43.871  12.680
77018W        W42278   9.665   3.850   1.497
77019W        W42279  44.948  38.500  14.913
77020W        W42280   7.697   8.698   2.428
77021W        W42281  11.736  32.624   2.178
77022W        W42282   6.495  12.410   2.043
77023W        W42283  37.547   5.439   2.825
77024W        W42284  14.388  19.421   1.205
77025W        W42285  29.335  18.833   3.544
77026W        W42286  15.948   3.763   1.367
77027W        W42287  28.547  10.200  12.939
77028W        W42288  33.408  14.409  12.101
77029W        W42289  43.768   7.381  13.008
77030W        W42290  27.571  42.325   1.658
77031W        W42291  22.683   4.159   0.454
77032W        W42292  26.503  22.139   2.446
77033W        W42293  41.046  35.846   4.010
77034W        W42294  43.412  32.099   0.039
77035W        W42295  20.908  14.219   0.221
77036W        W42296  38.802  22.974   4.569
77037W        W42297  33.418  31.961  14.507
77038W        W42298   5.343  27.908   9.970
77039W        W42299  11.171  41.299  13.217
77040W        W42300  21.160  33.864  13.100
77041W        W42301  22.090  29.703   0.285
77042W        W42302  39.580  11.284  14.509
77043W        W42303  18.233  16.960  11.525
77044W        W42304  27.720  16.170   0.802
77045W        W42305  16.788  43.541  10.618
77046W        W42306  44.983  35.404  11.186
77047W        W42307  41.933  42.232   0.114
77048W        W42308  23.723  35.391  13.075
77049W        W42309  29.538  10.109  12.813
77050W        W42310  32.675  38.560  12.545
77051W        W42311  12.845  15.348   1.695
77052W        W42312  15.603  32.007   3.215
77053W        W42313   9.131   4.895  13.811
77054W        W42314   0.836  33.093   0.378
77055W        W42315  22.231  19.099   2.898
77056W        W42316   4.495   2.321  11.669
77057W        W42317  13.897  33.554   2.162
77058W        W42318  41.351  19.596   2.392
77059W        W42319  44.866  12.688  10.319
77060W        W42320  20.743  34.055  12.548
77061W        W42321  38.986  28.416  11.101
77062W        W42322  21.050  44.339  14.715
77063W        W42323   6.048  14.687   3.777
77064W        W42324   5.146  33.353   0.775
77065W        W42325  43.827  22.436   2.756
77066W        W42326  29.812   4.286  13.815
77067W        W42327  36.524  22.551   4.838
77068W        W42328  39.811  13.141   3.631
77069W        W42329  41.411  30.080   3.972
77070W        W42330  42.482   7.543   1.326
77071W        W42331  14.609  21.751  12.003
77072W        W42332  18.280  10.810   4.071
77073W        W42333  33.504  36.983  11.618
77074W        W42334  22.147  41.697  11.006
77075W        W42335  21.241  40.853  12.485
77076W        W42336  12.844  16.352   2.162
77077W        W42337  27.522  20.790  12.600
77078W        W42338  34.404  26.202  12.382
77079W        W42339   7.679  35.912   4.835
77080W        W42340  25.787  28.558  12.440
77081W        W42341  41.992  16.565   1.432
77082W        W42342  32.460   7.635   1.971
77083W        W42343  19.185   8.682  13.061
77084W        W42344   0.709   6.216  12.096
77085W        W42345  25.617  12.100  11.239
77086W        W42346  15.073   9.039   2.426
77087W        W42347  44.080   7.795   2.132
77088W        W42348  44.707  43.355   3.862
77089W        W42349  19.206  40.125  11.101
77090W        W42350  34.019   2.447   3.136
77091W        W42351  15.613  33.869  13.999
77092W        W42352  38.972  43.348  11.650
77093W        W42353  17.022  42.968   1.925
77094W        W42354  30.400   2.770   3.313
77095W        W42355   8.251  19.332   1.281
77096W        W42356  16.065  29.710   3.755
77097W        W42357  37.006   1.266   2.590
77098W        W42358  29.670  42.814  13.445
77099W        W42359   6.013  24.729   3.057
77100W        W42360  21.016  12.895   3.042
77101W        W42361  10.516  26.002   1.354
77102W        W42362  25.659  12.944   1.334
77103W        W42363  30.241   5.946  14.021
77104W        W42364  23.660  22.243  14.268
77105W        W42365   7.998  38.636   2.777
77106W        W42366  29.705  35.994   0.357
77107W        W42367  37.328  25.004   3.812
77108W        W42368  18.299  40.736  11.088
77109W        W42369  18.428  32.643   1.216
77110W        W42370  42.319   5.914   2.383
77111W        W42371  15.820  30.429   1.203
77112W        W42372  11.582  41.562   2.423
77113W        W42373  23.761  41.838  11.841
77114W        W42374  34.846   5.740  11.502
77115W        W42375  34.386   7.011  13.399
77116W        W42376  26.588  32.437   2.742
77117W        W42377  29.837  30.976   4.738
77118W        W42378  31.972   4.213  14.009
77119W        W42379  23.040  10.151  11.131
77120W        W42380  27.504  34.875   4.137
77121W        W42381  38.891  38.554   1.358
77122W        W42382  27.947  32.102   0.660
77123W        W42383  12.288  32.583  14.386
77124W        W42384   1.965   4.179   4.187
77125W        W42385  42.503   5.992  13.310
77126W        W42386  10.747  21.833  13.090
77127W        W42387  31.166   7.130  10.849
77128W        W42388  34.631  37.331   0.372
77129W        W42389  14.722  44.701   1.352
77130W        W42390  12.144  29.345   3.763
77131W        W42391   4.060  24.490  11.144
77132W        W42392   7.442   8.173  11.075
77133W        W42393   7.210  10.836   1.909
77134W        W42394   2.320   3.722  11.964
77135W        W42395   1.057  10.393   3.970
77136W        W42396  32.032   8.688   3.048
77137W        W42397   5.940   2.735  12.526
77138W        W42398  15.470  25.967   2.777
77139W        W42399  33.837  10.107  11.589
77140W        W42400  34.082  41.402   3.316
77141W        W42401  39.435  36.846  14.183
77142W        W42402  10.296  14.079   1.397
77143W        W42403  24.297  44.328  14.996
77144W        W42404   9.161  34.944  12.019
77145W        W42405   8.748  32.033  10.681
77146W        W42406  15.653   4.322  12.072
77147W        W42407  27.816  11.612  10.684
77148W        W42408  35.022  12.497  10.257
77149W        W42409  28.756  39.559   3.284
77150W        W42410   1.955   7.447  11.574
77151W        W42411  40.878  18.534   3.622
77152W        W42412  19.345  28.473   0.378
77153W        W42413  16.113  41.082   3.599
77154W        W42414   7.210  40.889  14.335
77155W        W42415   7.775   6.227  12.091
77156W        W42416  42.226  37.221  12.100
77157W        W42417  20.959  20.264   1.270
77158W        W42418  43.494   2.482  14.923
77159W        W42419   4.512  31.976  12.345
77160W        W42420   6.485  35.323   0.014
77161W        W42421   4.874  35.803   0.893
77162W        W42422  13.297  32.543   4.148
77163W        W42423  32.911  27.555   2.246
77164W        W42424  13.246  31.689   3.022
77165W        W42425  36.120  34.699   0.771
77166W        W42426  26.594  13.109  14.514
77167W        W42427  25.017  10.670  12.248
77168W        W42428  43.971   8.176   4.384
77169W        W42429  24.162   7.983   2.203
77170W        W42430  20.086   0.408   4.535
77171W        W42431  28.958  42.163   1.364
77172W        W42432  29.988  21.988  12.527
77173W        W42433  14.085   5.543   1.898
77174W        W42434  34.921  17.584   0.247
77175W        W42435   5.531  22.561   4.772
77176W        W42436  36.134  12.365   1.730
77177W        W42437  30.680  11.688   0.777
77178W        W42438  29.730  33.461   4.584
77179W        W42439   3.714  42.274  12.509
77180W        W42440  14.046  24.992   4.311
77181W        W42441  19.575  31.017  12.122
77182W        W42442  36.030  10.115  13.840
77183W        W42443  13.647   3.793  13.051
77184W        W42444  42.183  18.150   3.206
77185W        W42445  23.730  23.678   4.178
77186W        W42446  12.088  22.908   1.251
77187W        W42447  23.321  11.776   0.932
77188W        W42448   1.236  17.354  12.837
77189W        W42449  30.037  37.482  13.848
77190W        W42450   2.790   9.600   0.025
77191W        W42451  26.702  33.639   3.880
77192W        W42452  43.745  31.737   2.202
77193W        W42453  11.125  38.396   1.254
77194W        W42454   3.941   0.795   0.411
77195W        W42455  36.855  21.798   1.271
77196W        W42456  20.637  31.988   2.761
77197W        W42457  18.142   4.816   4.419
77198W        W42458  10.405  16.304   0.883
77199W        W42459  19.170  23.668   1.980
77200W        W42460  38.588  27.123  10.685
77201W        W42461   6.196  43.909   2.697
77202W        W42462  28.396  27.691   0.513
77203W        W42463  29.956  42.276   2.651
77204W        W42464  25.501  25.036   2.342
77205W        W42465  26.764  34.329   5.112
77206W        W42466  10.132  13.579  14.339
77207W        W42467   4.646  19.654  10.204
77208W        W42468  41.300  31.559   4.405
77209W        W42469  40.287  40.419   4.045
77210W        W42470   7.501  16.235   2.216
77211W        W42471  19.053  41.620  12.018
77212W        W42472  28.196   1.126   0.790
77213W        W42473   9.251  41.628   4.947
77214W        W42474  25.124  12.286  11.396
77215W        W42475   0.233  36.990  14.853
77216W        W42476  27.873  36.444  11.229
77217W        W42477  23.508  25.864  11.184
77218W        W42478  37.240  25.883  11.495
77219W        W42479  14.243  32.028  14.605
77220W        W42480   2.250  32.149  13.583
77221W        W42481  34.841   0.192   2.642
77222W        W42482  14.250  20.953  12.173
77223W        W42483   8.358  20.610  11.399
77224W        W42484  20.913  23.061  12.046
77225W        W42485  12.280  39.387   0.497
77226W        W42486  43.098  29.073  11.115
77227W        W42487  12.780   3.680   3.165
77228W        W42488  23.587  23.641  11.306
77229W        W42489  42.791  12.721   0.519
77230W        W42490   7.773  14.738   2.393
77231W        W42491  19.804   9.850   4.522
77232W        W42492  29.080  25.717   3.757
77233W        W42493  18.288  13.008   2.236
77234W        W42494  31.508  36.539   1.953
77235W        W42495  18.265  32.453   3.444
77236W        W42496  34.471  20.809  11.158
77237W        W42497   9.373  32.149   4.519
77238W        W42498  19.298   6.527  14.289
77239W        W42499  32.624  15.623   1.247
77240W        W42500  33.451  29.381   4.653
77241W        W42501  43.421  44.906   4.277
77242W        W42502  39.388  17.307   2.375
77243W        W42503  17.858   7.567   1.239
77244W        W42504  43.887  14.340   4.049
77245W        W42505  25.162  21.605   1.117
77246W        W42506   6.396   4.511   4.567
77247W        W42507   5.383  23.398  14.428
77248W        W42508  38.421   7.755  11.439
77249W        W42509  17.635  42.329   4.750
77250W        W42510   1.744  37.289   0.274
77251W        W42511   0.431  23.587  13.361
77252W        W42512  15.182  25.279   3.805
77253W        W42513  33.791  25.137  14.785
77254W        W42514  21.899  27.080  14.581
77255W        W42515  31.823   8.783  14.812
77256W        W42516   3.270   0.152   3.204
77257W        W42517   7.168  27.388   1.157
77258W        W42518  11.003   7.895   0.369
77259W        W42519  44.370  37.128   2.341
77260W        W42520  37.303  20.737  12.473
77261W        W42521  31.417  38.997  10.542
77262W        W42522   2.931  19.262  13.407
77263W        W42523  10.163  30.252   3.809
77264W        W42524   9.602  12.220   0.201
77265W        W42525  18.244  27.566   4.722
77266W        W42526  44.828   1.421  12.578
77267W        W42527  44.362   7.815   1.708
77268W        W42528  25.483  15.522   3.595
77269W        W42529   5.340  26.953   4.560
77270W        W42530   1.969  34.677   0.255
77271W        W42531  39.049   6.370   4.530
77272W        W42532  14.760  13.080  14.357
77273W        W42533  40.907  19.538   3.348
77274W        W42534  10.677  24.026   2.112
77275W        W42535  44.116   8.733  13.877
77276W        W42536   7.850  36.076  12.108
77277W        W42537  14.284  14.772   0.822
77278W        W42538  21.669   9.230   0.727
77279W        W42539  24.600   8.130  13.110
77280W        W42540  41.281  40.312  13.696
77281W        W42541  18.376  22.072  14.706
77282W        W42542  25.808   4.214  11.691
77283W        W42543  27.616   2.488   1.197
77284W        W42544  16.546  38.270   1.638
77285W        W42545  32.728  27.443   3.632
77286W        W42546  34.155  14.778  12.671
77287W        W42547   5.488   3.869   4.169
77288W        W42548  14.383  34.627   2.263
77289W        W42549   2.114  20.118   4.160
77290W        W42550  25.300   7.294  14.290
77291W        W42551  20.510   5.666  11.171
77292W        W42552  27.497  36.887   0.861
77293W        W42553  15.865  38.466  10.636
77294W        W42554  31.871  42.277   1.695
77295W        W42555  17.480  19.431   3.395
77296W        W42556   8.837   5.429   0.803
77297W        W42557  11.756  38.662   1.852
77298W        W42558  37.998  25.111   0.685
77299W        W42559  43.060  37.860   1.304
77300W        W42560   9.474  15.521  14.674
77301W        W42561  18.816  32.960   4.306
77302W        W42562  34.521  34.764   1.399
77303W        W42563  18.777  37.228  12.420
77304W        W42564   2.263   4.099   1.549
77305W        W42565  27.449  12.813   0.499
77306W        W42566  31.223  31.047  14.513
77307W        W42567   9.602  33.738  11.422
77308W        W42568  31.657   0.928   1.129
77309W        W42569  23.022  15.452  13.548
77310W        W42570  18.003  31.519   2.079
77311W        W42571  13.281  13.443   4.583
77312W        W42572  11.406  26.092  10.395
77313W        W42573  27.523  13.546  12.013
77314W        W42574  43.667  28.388   2.256
77315W        W42575   2.270   4.395   3.846
77316W        W42576   9.810   2.553   2.343
77317W        W42577  30.642   5.855   0.700
77318W        W42578  32.574  42.898   3.665
77319W        W42579   1.931   0.684  14.526
77320W        W42580  17.578  30.926  13.891
77321W        W42581  40.035  39.570   1.939
77322W        W42582  16.703  21.956  11.654
77323W        W42583  24.442  40.429   1.395
77324W        W42584  27.112   1.840  14.315
77325W        W42585  24.993  27.511   0.430
77326W        W42586   0.711   9.930  13.637
77327W        W42587  27.452  32.071  11.920
77328W        W42588  31.915   6.152   3.982
77329W        W42589  17.058  16.024   3.658
77330W        W42590   7.835  22.945  11.670
77331W        W42591  42.788   1.345  13.490
77332W        W42592  28.898  27.539  12.916
77333W        W42593  11.214   7.070  14.205
77334W        W42594  34.945  36.343  12.005
77335W        W42595  34.016   0.412  13.720
77336W        W42596  22.760  32.466   2.259
77337W        W42597   7.328  27.300   0.352
77338W        W42598  21.654  24.111  12.001
77339W        W42599   9.435  26.254   2.249
77340W        W42600   9.109  33.470   0.951
77341W        W42601  14.257  43.710   4.144
77342W        W42602  43.393   0.866   2.373
77343W        W42603  35.968  23.956  12.576
77344W        W42604  38.541  34.388   4.984
77345W        W42605  33.062   2.882  14.674
77346W        W42606   8.769  21.019  13.058
77347W        W42607  35.778  34.238  12.085
77348W        W42608  38.378  32.594  13.393
77349W        W42609  21.514  27.712  11.545
77350W        W42610  16.327  27.602   0.881
77351W        W42611  43.293  34.646   1.465
77352W        W42612  31.642  34.822  13.608
77353W        W42613   9.483  32.312  12.446
77354W        W42614  25.954  28.669  11.066
77355W        W42615  20.087  33.082   1.705
77356W        W42616  33.111   4.782  13.592
77357W        W42617  25.692  35.411   1.256
77358W        W42618  35.834  32.003   2.611
77359W        W42619  30.189   0.653  12.117
77360W        W42620   5.753  12.517  10.960
77361W        W42621  29.975  17.758   0.996
77362W        W42622  29.289  20.805  14.453
77363W        W42623  35.362   8.713  10.764
77364W        W42624  30.346  38.060   4.281
77365W        W42625  31.386  23.135  14.277
77366W        W42626  15.065   1.821  10.723
77367W        W42627   1.393  21.192  14.758
77368W        W42628  42.470   1.661   1.463
77369W        W42629  38.787  26.648  13.853
77370W        W42630  13.393  26.115  13.050
77371W        W42631  21.947  26.542   1.235
77372W        W42632  22.514  27.173   1.433
77373W        W42633  38.328  41.845   3.347
77374W        W42634  27.097  35.114   1.984
77375W        W42635  37.145  27.998  14.897
77376W        W42636  37.069  40.571   0.643
77377W        W42637  43.762  17.192  14.041
77378W        W42638  29.214   9.591   3.339
77379W        W42639  31.796  18.539   3.719
77380W        W42640  37.330  10.736   4.581
77381W        W42641  33.452  16.130  11.623
77382W        W42642   8.319   5.203  11.579
77383W        W42643  40.328  12.408  13.400
77384W        W42644  36.149   8.358   3.565
77385W        W42645  34.424  43.909  10.653
77386W        W42646  13.344   4.148  14.466
77387W        W42647  38.248  17.774  11.206
77388W        W42648  15.873   8.233   3.402
77389W        W42649  14.271  23.788   2.665
77390W        W42650  31.611  39.274   0.454
77391W        W42651  25.635  13.818  14.736
77392W        W42652   2.402  24.563  12.486
77393W        W42653  42.054  20.124  13.506
77394W        W42654  21.921  28.470   4.309
77395W        W42655  39.299  33.164   2.183
77396W        W42656  18.329  41.312  13.037
77397W        W42657  24.650  40.837   2.299
77398W        W42658  25.947  15.335  10.575
77399W        W42659  34.876  34.094   2.139
77400W        W42660  31.179  40.798  13.964
77401W        W42661  16.672   2.736   0.294
77402W        W42662   6.321  40.077  12.999
77403W        W42663  20.658  22.710   2.751
77404W        W42664  40.720  37.592   3.263
77405W        W42665  27.222  12.413  10.745
77406W        W42666  15.893  36.237  12.729
77407W        W42667  37.427  36.483   3.108
77408W        W42668  31.733  42.896  12.688
77409W        W42669  27.141  16.486   1.631
77410W        W42670  36.533  26.179   2.364
77411W        W42671  26.669   5.192   0.765
77412W        W42672  15.497  24.509   4.018
77413W        W42673  43.972  37.684  12.598
77414W        W42674  28.157   1.005  14.750
77415W        W42675  12.010  30.691  14.409
77416W        W42676  17.660   6.415  13.985
77417W        W42677   4.170  17.609  10.742
77418W        W42678   0.456  18.055  10.393
77419W        W42679  22.047  36.337  12.510
77420W        W42680  26.666  14.720   4.622
77421W        W42681   1.016  44.559  14.784
77422W        W42682  24.523  42.744   4.506
77423W        W42683  35.153  21.935  13.471
77424W        W42684  32.313  34.556  13.486
77425W        W42685  19.203  22.557  12.885
77426W        W42686  34.189   6.666   4.674
77427W        W42687  27.049   7.918   0.252
77428W        W42688  35.023  42.269   0.767
77429W        W42689  10.702  30.322   2.598
77430W        W42690  28.717  19.638  13.732
77431W        W42691   4.123  28.599  10.776
77432W        W42692  15.279  31.927  14.915
77433W        W42693  34.828  34.078   0.160
77434W        W42694  38.333  25.682   4.865
77435W        W42695  17.972  29.197  10.851
77436W        W42696   2.282   0.398   3.218
77437W        W42697  23.208  41.049  14.933
77438W        W42698  16.061  44.984  12.452
77439W        W42699  33.284  27.060   0.728
77440W        W42700   1.442  43.228  13.476
77441W        W42701  27.198  19.170   4.809
77442W        W42702   4.924   7.882  11.594
77443W        W42703   8.252  19.669   3.572
77444W        W42704  16.213  32.441   0.208
77445W        W42705  13.390  32.930  13.339
77446W        W42706  35.383  42.461  13.800
77447W        W42707  39.098  10.296  11.631
77448W        W42708  39.648  33.375   4.537
77449W        W42709   8.326  20.517   3.162
77450W        W42710  14.300   7.271   5.399
77451W        W42711  15.027  38.523   1.731
77452W        W42712  32.906  23.133  13.760
77453W        W42713  26.490  15.271  10.600
77454W        W42714  30.682  36.805   1.245
77455W        W42715  42.056  35.085  12.506
77456W        W42716  16.385  23.581   4.152
77457W        W42717  36.949  26.462   2.734
77458W        W42718  22.951  10.287   3.298
77459W        W42719  15.671  32.046  11.931
77460W        W42720  38.816  25.119  12.408
77461W        W42721  10.767   8.758  14.786
77462W        W42722  34.735  39.152  10.982
77463W        W42723  40.566  44.213  12.975
77464W        W42724  17.310   5.092   1.952
77465W        W42725  23.578   7.888  14.059
77466W        W42726  15.352  36.949  14.921
77467W        W42727  30.684   1.531   3.818
77468W        W42728  13.147  32.405   3.650
77469W        W42729  33.560   1.008  10.702
77470W        W42730  43.446  15.432   2.767
77471W        W42731  41.816  13.064   2.265
77472W        W42732  28.453  10.637  10.579
77473W        W42733  35.858   1.888  12.488
77474W        W42734  17.869   2.100  13.286
77475W        W42735  31.744  38.985  13.979
77476W        W42736  19.278  42.943  13.354
77477W        W42737  13.819   5.844  13.075
77478W        W42738  39.370  36.066   3.947
77479W        W42739  26.640   7.365  13.330
77480W        W42740   0.752  14.723  12.196
77481W        W42741  40.838  41.423   4.296
77482W        W42742   4.683  38.354  12.490
77483W        W42743  38.452  23.471   0.628
77484W        W42744  43.625   3.105  12.344
77485W        W42745   4.102  15.215  11.077
77486W        W42746  10.664  37.288  14.997
77487W        W42747  18.231  17.071  10.296
77488W        W42748  37.001  38.925   2.728
77489W        W42749  30.089  23.946  12.497
77490W        W42750  28.591  20.597   2.614
77491W        W42751  29.991  33.496   3.760
77492W        W42752  24.734  34.925   0.325
77493W        W42753  29.932  26.915  12.324
77494W        W42754  41.127   2.867  14.729
77495W        W42755  43.310  26.667   0.254
77496W        W42756  32.091  24.114   1.945
77497W        W42757  25.072  12.133  12.872
77498W        W42758  24.808  31.019   0.325
77499W        W42759   8.547  29.629   2.186
77500W        W42760  14.583  17.008  11.200
77501W        W42761  11.209  16.240  12.693
77502W        W42762  40.844   1.450   0.206
77503W        W42763  42.464  33.911   0.239
77504W        W42764   8.774  20.603   1.459
77505W        W42765  15.080  23.197  11.099
77506W        W42766   0.437  29.935   3.208
77507W        W42767  16.683   8.339  14.377
77508W        W42768   9.830  36.970   3.731
77509W        W42769  31.352  16.404   2.366
77510W        W42770  42.022  42.160  11.592
77511W        W42771  24.213  32.060   4.743
77512W        W42772   3.946  26.774   3.642
77513W        W42773  21.156  31.098   2.831
77514W        W42774  39.768  41.845  12.891
77515W        W42775  39.928  29.183   4.664
77516W        W42776  41.035  42.852  12.506
77517W        W42777  36.573   0.660  14.842
77518W        W42778  43.335  30.000   3.562
77519W        W42779  37.568  11.694  14.313
77520W        W42780  40.125  29.357  13.544
77521W        W42781  27.464  36.893   4.435
77522W        W42782  42.203   0.530  13.602
77523W        W42783  24.075  31.448   3.865
77524W        W42784  26.017   1.811  14.109
77525W        W42785  39.792   4.413   4.797
77526W        W42786   4.194  14.875   3.707
77527W        W42787  33.499  23.169  12.995
77528W        W42788   1.201  37.455  12.054
77529W        W42789  15.402  42.097   0.512
77530W        W42790  11.683  32.626   3.741
77531W        W42791  29.845   7.191   0.715
77532W        W42792   9.690  23.989  13.918
77533W        W42793  21.615  11.801  13.036
77534W        W42794  24.692  20.131  14.829
77535W        W42795  36.589  36.382  14.644
77536W        W42796  28.193  28.575   4.748
77537W        W42797  31.938  19.537   0.839
77538W        W42798  32.681  21.357  11.936
77539W        W42799  20.304  27.566  14.722
77540W        W42800  34.085  38.843  13.045
77541W        W42801   5.923  13.096  10.698
77542W        W42802  42.948   7.859   2.813
77543W        W42803  33.776   8.742   4.601
77544W        W42804  14.831  10.621  11.481
77545W        W42805   3.338  32.256  10.544
77546W        W42806  36.587  15.272  12.489
77547W        W42807  40.562   2.280  13.021
77548W        W42808  38.378  42.950  11.089
77549W        W42809  36.407  16.315  13.378
77550W        W42810   3.883  24.375  13.066
77551W        W42811  35.969  14.609   3.121
77552W        W42812  41.282  24.652   4.581
77553W        W42813  35.625  24.087   2.649
77554W        W42814  31.276  40.608  14.438
77555W        W42815   9.823  36.185   0.344
77556W        W42816  39.439  25.668  13.281
77557W        W42817  39.989  27.425  10.659
77558W        W42818  16.172  39.006   0.607
77559W        W42819   5.016  27.084   2.836
77560W        W42820  27.858  33.680  12.014
77561W        W42821  39.550  15.827   0.737
77562W        W42822  29.580  13.606   3.882
77563W        W42823   7.917  35.862  12.596
77564W        W42824   1.853  16.035  12.363
77565W        W42825   3.014  20.784   0.267
77566W        W42826  38.792  14.103   4.587
77567W        W42827  24.516  24.697   0.925
77568W        W42828  18.678  34.222  14.413
77569W        W42829   5.925   3.858   3.883
77570W        W42830   8.102  10.207  14.375
77571W        W42831  10.645  24.916  12.912
77572W        W42832  32.617   8.953  11.216
77573W        W42833  24.440  24.481  10.633
77574W        W42834  36.865  36.803   0.391
77575W        W42835  28.996  44.689   4.484
77576W        W42836  14.735   9.916  14.968
77577W        W42837   2.908   6.623   4.157
77578W        W42838  16.615   7.758   2.875
77579W        W42839  15.801  21.695  13.448
77580W        W42840  38.532  42.200  11.074
77581W        W42841  42.803  22.642  11.099
77582W        W42842  19.710  26.344   1.375
77583W        W42843  43.732  41.167  11.966
77584W        W42844  16.334  31.855   0.785
77585W        W42845  21.935  27.538   4.302
77586W        W42846   1.303  12.752  12.121
77587W        W42847   3.155   0.163   1.024
77588W        W42848  20.718  43.862  12.098
77589W        W42849  43.828  41.380  14.058
77590W        W42850   8.763  41.294  12.395
77591W        W42851  42.023  10.247  11.064
77592W        W42852   9.860  21.920   2.583
77593W        W42853  31.225  30.896   0.928
77594W        W42854  23.622  16.126  13.079
77595W        W42855  28.351  43.572  11.304
77596W        W42856  14.777  40.718  13.070
77597W        W42857  31.019  32.261   1.624
77598W        W42858  41.395  17.877  14.805
77599W        W42859  16.134  43.993   4.132
77600W        W42860  41.738  38.530  14.885
77601W        W42861  25.388   8.775   4.157
77602W        W42862  18.690  21.580  13.528
77603W        W42863   3.280   0.765  12.426
77604W        W42864  41.298   8.655  12.487
77605W        W42865  40.368   6.494   2.197
77606W        W42866  10.093  10.251   0.845
77607W        W42867  24.500  18.436  14.264
77608W        W42868  35.336  25.155  14.842
77609W        W42869  25.219   0.885  14.323
77610W        W42870  33.011   8.300   4.514
77611W        W42871  43.333  20.125   0.073
77612W        W42872  21.148   6.186   3.290
77613W        W42873   3.288  34.383   4.695
77614W        W42874  36.395  23.662  14.280
77615W        W42875  32.112  19.846   2.248
77616W        W42876   2.297  40.155   2.319
77617W        W42877  18.603  37.899   3.878
77618W        W42878  12.095  23.509  10.687
77619W        W42879  37.742  37.522  14.789
77620W        W42880   8.320  33.917   1.019
77621W        W42881  27.042  36.695   0.647
77622W        W42882   9.722  37.446  14.489
77623W        W42883  39.908   6.111  11.543
77624W        W42884   4.738  37.889   1.936
77625W        W42885  28.715  32.852  11.518
77626W        W42886  39.165  18.486  13.656
77627W        W42887  12.389  21.356   4.113
77628W        W42888  15.622  14.340   4.609
77629W        W42889  19.177  16.879  14.550
77630W        W42890  33.895  43.936  12.623
77631W        W42891  15.067  30.546  10.709
77632W        W42892  16.236  43.800  14.558
77633W        W42893  39.649  11.397  11.363
77634W        W42894  42.858  21.600   2.226
77635W        W42895   6.157   0.915  13.372
77636W        W42896  10.941  22.081   1.194
77637W        W42897  12.894   3.239  12.571
77638W        W42898  17.803   0.365  13.533
77639W        W42899  34.600  23.611   4.119
77640W        W42900   3.508  28.474  13.537
77641W        W42901  44.668  20.050   3.207
77642W        W42902   2.848  29.587  13.905
77643W        W42903  27.387  41.127   0.469
77644W        W42904  18.683   5.760  10.729
77645W        W42905  30.392  15.313   4.088
77646W        W42906  11.350   4.710   5.077
77647W        W42907  19.063   5.977  11.827
77648W        W42908  20.144   8.617   2.845
77649W        W42909  10.116   5.349  12.001
77650W        W42910  33.483  18.237  14.764
77651W        W42911  24.002  37.355   5.014
77652W        W42912  22.617  24.227   4.045
77653W        W42913  23.233  15.614   0.459
77654W        W42914  35.048   9.124  13.384
77655W        W42915  30.456  31.533  11.153
77656W        W42916  43.783  30.408   2.480
77657W        W42917   2.037  33.431  14.761
77658W        W42918  15.358  30.817  12.042
77659W        W42919  31.622  39.533   2.586
77660W        W42920  32.040   1.231  11.377
77661W        W42921  10.695  35.814  11.721
77662W        W42922  44.280  27.134   2.658
77663W        W42923  31.597   8.731   3.977
77664W        W42924   1.218  21.125   4.520
77665W        W42925  12.061  10.225  12.928
77666W        W42926  40.591  33.162  13.387
77667W        W42927  14.289  18.765  14.413
77668W        W42928  24.121  42.046   3.352
77669W        W42929  21.644  40.459   4.623
77670W        W42930  17.890   8.284  10.578
77671W        W42931  21.021  30.810  12.567
77672W        W42932  14.043  10.821   1.563
77673W        W42933   0.824  22.765  11.152
77674W        W42934  28.030   5.708  12.655
77675W        W42935   2.391  15.885  11.122
77676W        W42936  12.158  17.722  13.625
77677W        W42937   7.791   0.531  14.429
77678W        W42938  11.789   0.856  12.400
77679W        W42939  17.349  16.448  10.832
77680W        W42940  32.479  11.708   1.590
77681W        W42941  36.852  22.672  12.518
77682W        W42942   3.603  44.893  11.633
77683W        W42943  13.703  16.327  12.538
77684W        W42944  13.819  27.539   2.720
77685W        W42945  15.046  36.609  13.832
77686W        W42946   8.806   7.151  14.278
77687W        W42947  29.063   8.877  10.737
77688W        W42948   9.791  44.318  11.891
77689W        W42949   1.743  27.558  13.404
77690W        W42950  40.547  22.136  14.778
77691W        W42951   4.203  13.670   4.609
77692W        W42952  29.716  35.444   2.513
77693W        W42953  21.649  43.552  12.504
77694W        W42954  43.877  28.658  14.800
77695W        W42955   9.983  13.994  11.579
77696W        W42956  18.257  13.311   3.870
77697W        W42957  25.137  26.884  14.854
77698W        W42958  17.800   3.034   4.193
77699W        W42959  43.990   8.715   3.130
77700W        W42960  35.340   8.937  12.476
77701W        W42961  22.096  28.010   0.999
77702W        W42962  16.463  24.849   4.097
77703W        W42963  25.194  33.464   3.238
77704W        W42964   1.238  44.423  10.661
77705W        W42965  15.657  33.299   1.362
77706W        W42966   2.277  41.784   0.041
77707W        W42967  23.556  19.864  12.039
77708W        W42968   7.641   8.668   1.759
77709W        W42969  36.412  27.459  14.456
77710W        W42970   1.243  38.557   2.862
77711W        W42971  35.868  42.543  10.658
77712W        W42972  22.792   3.336  13.908
77713W        W42973  17.264  26.524  12.116
77714W        W42974  12.804  19.007  13.464
77715W        W42975  22.296   5.462   0.548
77716W        W42976  24.138   1.830  10.804
77717W        W42977  23.059  37.353   2.621
77718W        W42978  25.034  32.635  11.216
77719W        W42979  28.509  25.917  10.161
77720W        W42980   5.157  10.670   0.010
77721W        W42981   0.778  12.884  13.855
77722W        W42982   7.649  10.571  12.104
77723W        W42983  42.766   5.503  13.423
77724W        W42984  11.137  31.562  12.962
77725W        W42985   3.693  34.090  12.452
77726W        W42986  28.173  42.047   1.613
77727W        W42987  25.777  34.451   2.866
77728W        W42988  31.571  12.885  12.024
77729W        W42989  18.153  31.614  14.006
77730W        W42990  40.499  23.135  11.384
77731W        W42991   3.511  36.556  14.411
77732W        W42992  37.070  30.593   3.011
77733W        W42993  33.411  36.421  13.807
77734W        W42994  44.714  26.333   0.565
77735W        W42995  30.453  13.698  11.403
77736W        W42996  30.705  34.172  12.950
77737W        W42997   2.429  33.537  11.528
77738W        W42998  30.151  24.637   1.120
77739W        W42999   0.318  16.124  13.474
77740W        W43000  31.031   8.832  12.147
77741W        W43001  25.747  22.128  13.604
77742W        W43002  28.665   7.438   3.142
77743W        W43003   2.496  23.728  13.034
77744W        W43004   9.412   2.859  12.802
77745W        W43005  13.014  25.549   2.901
77746W        W43006   3.109  36.319   0.874
77747W        W43007  28.201  23.180   0.881
77748W        W43008  36.444  29.585  12.088
77749W        W43009  37.969  37.403   0.730
77750W        W43010   9.547  24.646  11.225
77751W        W43011  40.255  26.469   2.653
77752W        W43012   4.161  20.432  12.710
77753W        W43013  33.544   7.043   1.290
77754W        W43014  40.594   3.798   4.480
77755W        W43015  30.325   9.287   0.498
77756W        W43016  22.548   5.409   2.362
77757W        W43017  24.029  28.593   4.769
77758W        W43018  36.315  36.627  10.695
77759W        W43019  32.875  19.010   3.764
77760W        W43020  44.851   0.462  14.082
77761W        W43021  35.025  24.193  12.952
77762W        W43022   1.283  29.775   3.240
77763W        W43023  38.983   2.836  11.199
77764W        W43024  43.931  36.098   4.512
77765W        W43025  19.464  36.245   1.308
77766W        W43026   6.627  36.115   2.393
77767W        W43027  16.563  31.479   1.707
77768W        W43028  13.330   6.346   3.707
77769W        W43029   5.222  16.827   0.381
77770W        W43030  36.954   2.920   5.412
77771W        W43031  31.143  17.379  11.211
77772W        W43032  32.864   8.237  11.614
77773W        W43033  42.427  37.577  10.433
77774W        W43034  35.885  41.760  11.951
77775W        W43035  43.975   2.617  11.073
77776W        W43036  32.433  33.196  10.511
77777W        W43037   5.944   3.176  13.709
77778W        W43038  31.794  39.327  10.677
77779W        W43039  33.731  32.488   0.227
77780W        W43040  38.610  14.444   1.315
77781W        W43041  20.472  41.899   2.786
77782W        W43042  26.841  20.051  12.043
77783W        W43043  44.336  23.183   4.666
77784W        W43044  13.690  10.589   3.670
77785W        W43045  38.506  18.702   1.804
77786W        W43046   8.388  22.053  11.895
77787W        W43047   8.041  11.805  12.647
77788W        W43048  19.745   5.471   1.225
77789W        W43049  44.290   5.969   3.344
77790W        W43050  23.241  39.498  10.658
77791W        W43051   9.306  35.754   0.809
77792W        W43052  41.174   8.213   1.514
77793W        W43053   0.351  27.608   4.102
77794W        W43054  26.115  12.866  12.986
77795W        W43055   8.342  25.107   0.750
77796W        W43056   7.907  42.572  11.496
77797W        W43057  39.124  43.537  11.092
77798W        W43058   3.779  14.532   1.316
77799W        W43059  32.122   6.810   1.188
77800W        W43060  28.819  41.000   3.848
77801W        W43061  30.982  41.814  13.390
77802W        W43062  31.871   2.028  12.443
77803W        W43063  24.503  44.941  11.579
77804W        W43064   1.820  35.758   3.425
77805W        W43065  19.541   9.589   4.120
77806W        W43066  42.997   3.697  13.879
77807W        W43067   0.221   7.778  13.938
77808W        W43068  22.587  10.106  10.001
77809W        W43069  23.559  15.687   2.350
77810W        W43070   8.194  43.892   2.781
77811W        W43071  35.006  31.410   3.716
77812W        W43072  25.105  13.111  12.499
77813W        W43073  41.285  40.072  12.555
77814W        W43074  21.807  18.343  14.920
77815W        W43075   2.964  31.118   3.307
77816W        W43076  37.915  27.630  11.032
77817W        W43077  19.571  42.128   2.842
77818W        W43078  13.136   5.143  12.430
77819W        W43079  15.533  17.527  13.120
77820W        W43080   1.044  22.140  13.604
77821W        W43081  29.195  11.787  10.515
77822W        W43082  21.882  19.057  13.477
77823W        W43083   6.455  13.143   0.311
77824W        W43084  41.992  39.795   4.308
77825W        W43085  34.913  15.529   1.846
77826W        W43086  22.388  27.149  11.613
77827W        W43087  13.246  25.019  14.149
77828W        W43088  13.215  15.697   2.568
77829W        W43089  37.090  23.232   3.255
77830W        W43090   1.294  22.216  14.746
77831W        W43091  10.455  12.591   4.258
77832W        W43092  33.517  24.959  14.387
77833W        W43093  33.453  25.593   1.617
77834W        W43094  44.252  18.499  12.831
77835W        W43095  17.541  15.118  10.753
77836W        W43096  10.725  11.885   2.299
77837W        W43097  40.556   4.462  12.393
77838W        W43098  42.792  16.212   3.174
77839W        W43099  18.090  37.777  11.093
77840W        W43100   0.845  14.121   0.884
77841W        W43101  40.959   9.882  14.379
77842W        W43102  43.929  33.573   4.530
77843W        W43103  39.269  38.419  14.419
77844W        W43104  44.644  26.250  13.793
77845W        W43105  41.905  11.145  12.013
77846W        W43106  43.014   6.099  12.590
77847W        W43107   5.433  43.060  12.922
77848W        W43108  37.518  25.909   3.629
77849W        W43109   1.390  41.457   0.011
77850W        W43110  19.043  40.455  12.486
77851W        W43111  42.366  11.145  11.725
77852W        W43112  15.680  35.513  11.594
77853W        W43113  27.187  29.951  13.787
77854W        W43114   0.452   0.344  12.949
77855W        W43115  36.966  11.943  13.781
77856W        W43116  17.676   1.863   2.810
77857W        W43117  39.076  12.842  14.164
77858W        W43118  31.622  18.135  12.586
77859W        W43119  40.017  20.789   3.240
77860W        W43120   5.219  37.317  11.562
77861W        W43121  40.568   9.325   4.078
77862W        W43122  27.636  16.760   4.428
77863W        W43123   8.891  23.523  11.342
77864W        W43124  30.979  12.988  10.417
77865W        W43125   4.132  26.197   9.788
77866W        W43126  39.052  11.162  11.964
77867W        W43127   1.009  15.746  13.974
77868W        W43128  14.092  35.342  13.604
77869W        W43129  21.294  29.563   3.705
77870W        W43130  43.814  27.146   4.997
77871W        W43131  26.613  40.521   2.886
77872W        W43132  14.832  44.073   2.635
77873W        W43133  13.264  29.422   0.083
77874W        W43134  23.503   3.365   1.973
77875W        W43135  40.414  42.060  11.643
77876W        W43136  15.212  38.901   0.602
77877W        W43137  42.273  26.860   2.822
77878W        W43138  16.683  12.731   3.515
77879W        W43139  16.844  31.115  10.953
77880W        W43140  30.991  11.590  11.991
77881W        W43141   4.431   6.791  14.002
77882W        W43142  34.993   3.648  12.423
77883W        W43143   4.893  11.481  10.278
77884W        W43144  39.889  27.498  14.720
77885W        W43145  14.564  38.900  10.061
77886W        W43146  33.477  23.583  11.262
77887W        W43147  20.172   7.485   0.952
77888W        W43148  21.072  36.319   1.513
77889W        W43149  34.306  41.730   4.174
77890W        W43150  36.396   6.720  14.895
77891W        W43151  40.498  17.564  12.994
77892W        W43152  10.655  36.971  10.678
77893W        W43153   4.358  20.753   2.202
77894W        W43154  13.141  14.288  11.634
77895W        W43155   5.871  28.514   9.713
77896W        W43156   5.799  35.797   4.513
77897W        W43157  44.784  37.515   1.709
77898W        W43158  41.016   1.901   2.600
77899W        W43159  14.369   0.758   4.556
77900W        W43160  10.849  35.605   1.716
77901W        W43161  10.359  38.180   0.058
77902W        W43162   7.254  31.060  12.541
77903W        W43163  17.997   1.203   3.660
77904W        W43164  41.483  40.868   2.860
77905W        W43165  26.255   3.933   2.818
77906W        W43166   4.921  32.154   0.133
77907W        W43167  19.802   0.858  14.784
77908W        W43168  23.743  32.806  14.798
77909W        W43169   6.222  26.003   2.621
77910W        W43170  40.548  32.020   3.545
77911W        W43171   2.460  28.691   1.309
77912W        W43172  43.508  24.151  11.202
77913W        W43173   7.908  15.997  12.458
77914W        W43174  25.433  38.278   1.076
77915W        W43175  28.055  14.156   3.588
77916W        W43176  18.009   6.343   4.017
77917W        W43177  29.165  14.846   0.771
77918W        W43178   8.337  41.580  13.914
77919W        W43179  22.616  22.917   3.715
77920W        W43180   2.250  11.999  14.986
77921W        W43181  37.041  38.890   1.129
77922W        W43182  42.759   8.745  14.723
77923W        W43183  15.877  31.526  13.956
77924W        W43184   3.259  29.952   3.213
77925W        W43185  37.417  22.027  13.510
77926W        W43186  14.868  26.070   1.392
77927W        W43187   5.472   0.678   1.682
77928W        W43188  12.193   3.497  12.058
77929W        W43189  15.220  17.172  12.859
77930W        W43190  27.592  26.524   3.170
77931W        W43191  24.945  31.491   0.530
77932W        W43192   1.929  25.636  10.806
77933W        W43193   1.632   5.700  14.217
77934W        W43194   2.693  26.464  12.401
77935W        W43195  37.338  17.102   1.498
77936W        W43196   1.413   9.122   2.201
77937W        W43197  30.952  24.260  11.625
77938W        W43198   8.882  15.084  11.974
77939W        W43199   4.505  12.775  13.559
77940W        W43200  33.923  21.016   2.672
77941W        W43201   5.064   2.007   3.625
77942W        W43202  33.539  44.605   3.132
77943W        W43203  44.772  33.080  12.413
77944W        W43204  38.202  11.760   3.721
77945W        W43205  10.112  35.909   2.869
77946W        W43206  40.149   0.640  10.389
77947W        W43207  31.141   6.868  12.941
77948W        W43208  40.094  33.153   4.333
77949W        W43209   7.604  31.118  13.485
77950W        W43210  27.648  42.512  10.666
77951W        W43211  21.012  28.100   1.830
77952W        W43212  38.885  23.253   4.142
77953W        W43213  26.514  44.861   3.584
77954W        W43214  36.916  12.776   1.669
77955W        W43215   0.691  15.163   0.859
77956W        W43216   6.230  25.635   1.205
77957W        W43217  39.283   7.189  11.673
77958W        W43218  24.138  10.703   4.434
77959W        W43219  10.648  19.201   3.700
77960W        W43220   2.272  31.896  13.121
77961W        W43221  19.585  12.919  10.691
77962W        W43222  44.668  18.677   1.322
77963W        W43223  25.068  36.813  13.860
77964W        W43224   0.360  43.345   1.789
77965W        W43225  12.229  32.140  14.669
77966W        W43226   6.679  15.135  10.991
77967W        W43227  23.809  13.549  13.756
77968W        W43228  17.462  13.186  14.024
77969W        W43229   3.833  26.933   0.313
77970W        W43230  40.209   6.416  12.899
77971W        W43231  24.901   2.224  13.133
77972W        W43232   1.859   5.980  13.222
77973W        W43233  30.438  40.994  11.497
77974W        W43234  18.718  33.497   4.256
77975W        W43235  24.240   5.699  13.372
77976W        W43236  17.615  16.967   4.917
77977W        W43237  43.246  40.756   0.715
77978W        W43238  23.257  32.109  12.403
77979W        W43239  32.528  33.105  12.013
77980W        W43240   7.667  16.106   1.640
77981W        W43241   6.684  18.041  10.636
77982W        W43242  24.333  20.282   1.899
77983W        W43243   7.705  43.836   2.730
77984W        W43244  39.943  12.609  12.135
77985W        W43245   2.028   7.497   0.947
77986W        W43246  23.396  33.940  12.398
77987W        W43247   0.925  19.845   0.973
77988W        W43248  39.260  35.765   4.907
77989W        W43249  21.220  19.640   4.228
77990W        W43250  32.304  19.215   2.263
77991W        W43251  17.176   2.118  14.405
77992W        W43252  36.464  26.341   2.867
77993W        W43253  14.184  28.668   4.796
77994W        W43254   3.729  28.392  14.007
77995W        W43255   2.876  30.585   2.360
77996W        W43256  31.913  41.055  10.423
77997W        W43257  32.067  15.535   2.171
77998W        W43258  14.679  43.244  10.704
77999W        W43259  38.406  19.533  12.542
78000W        W43260  23.346   0.800  11.944
78001W        W43261   3.347  20.213   3.699
78002W        W43262  15.632   7.813  11.940
78003W        W43263  18.186  29.734   2.247
78004W        W43264  38.885  23.615  13.054
78005W        W43265  16.195  19.541   1.260
78006W        W43266  36.146  39.875   3.131
78007W        W43267  24.077  29.581   0.350
78008W        W43268   9.832  17.250  13.561
78009W        W43269   6.379   9.725   4.426
78010W        W43270   5.230  29.754   3.092
78011W        W43271  37.067   9.914   2.719
78012W        W43272  44.752  43.464  12.085
78013W        W43273  21.031  30.136  14.888
78014W        W43274   2.019  10.241  13.991
78015W        W43275  13.869  25.251  12.333
78016W        W43276  11.905  22.221   4.199
78017W        W43277  19.566  26.573   3.628
78018W        W43278   0.927  27.894   2.184
78019W        W43279  27.238  39.533   0.919
78020W        W43280  38.318  20.134   2.705
78021W        W43281   5.474   8.901   4.934
78022W        W43282   9.953  24.888   3.624
78023W        W43283  37.063  41.445  13.332
78024W        W43284  12.033  30.386   0.781
78025W        W43285  32.970  35.802  12.842
78026W        W43286  21.425   6.144  11.263
78027W        W43287  16.840  11.272  13.491
78028W        W43288   4.731  19.837   3.734
78029W        W43289  27.038  20.919   1.113
78030W        W43290   2.349  11.538   3.669
78031W        W43291   6.887  14.442   4.139
78032W        W43292  12.195  10.664  11.424
78033W        W43293   1.468  37.324   4.891
78034W        W43294  44.333  33.987  10.875
78035W        W43295   1.194  30.957   4.364
78036W        W43296  19.136  13.103  12.492
78037W        W43297  32.931  14.114  12.986
78038W        W43298  23.977  21.707   4.646
78039W        W43299  25.941  25.915  14.421
78040W        W43300  43.893  10.738  10.760
78041W        W43301  32.452   5.938  14.248
78042W        W43302  29.945  28.622  13.447
78043W        W43303   9.358  12.870   4.297
78044W        W43304  33.353   2.765   3.390
78045W        W43305  10.526  16.791  12.453
78046W        W43306  11.057  42.996  13.342
78047W        W43307   4.910  26.900  11.994
78048W        W43308  15.151  16.629  13.616
78049W        W43309   9.068  34.490  12.232
78050W        W43310  33.930   5.839   0.801
78051W        W43311  42.360  14.686   0.942
78052W        W43312   2.792  44.826   4.053
78053W        W43313  43.112  33.075   0.047
78054W        W43314  21.781  34.394   0.801
78055W        W43315  23.567  22.957   3.751
78056W        W43316   5.762  14.785  11.546
78057W        W43317  30.937   0.349  11.565
78058W        W43318  34.255  19.231   0.996
78059W        W43319  26.123  11.884  11.208
78060W        W43320   2.807   2.918   4.139
78061W        W43321  24.148   7.610  12.446
78062W        W43322   3.268  40.004   1.486
78063W        W43323  13.814  17.860  12.027
78064W        W43324  34.073   2.231  12.000
78065W        W43325  16.810  17.375   4.990
78066W        W43326   8.182   2.697   0.497
78067W        W43327   9.819  14.669  14.896
78068W        W43328  35.550   7.016  11.462
78069W        W43329   3.935  13.212  11.733
78070W        W43330   0.328  23.618   3.475
78071W        W43331   5.413  40.219   1.411
78072W        W43332   6.911   5.383   4.291
78073W        W43333  28.094  40.711  12.712
78074W        W43334  33.511  10.126  12.980
78075W        W43335  35.495  37.848  12.645
78076W        W43336  44.287  11.541  12.175
78077W        W43337  25.118  28.651  10.457
78078W        W43338  42.531  25.108  14.073
78079W        W43339  24.244  43.749   1.222
78080W        W43340   2.799  41.451  12.324
78081W        W43341  37.451  41.992   0.970
78082W        W43342  34.052  25.435  12.926
78083W        W43343   8.879  44.456  14.822
78084W        W43344  21.112  16.507   4.179
78085W        W43345  39.553  39.937  13.996
78086W        W43346  39.910  26.063  12.142
78087W        W43347  18.156  30.217   2.427
78088W        W43348  16.207  25.469   1.777
78089W        W43349  10.330  20.495  13.360
78090W        W43350   0.426  32.721   4.062
78091W        W43351  17.551  35.104  11.410
78092W        W43352  28.043  36.121   3.121
78093W        W43353  26.590  43.702   2.925
78094W        W43354  13.872   8.673   2.897
78095W        W43355  26.089  36.344   0.866
78096W        W43356   3.655  20.844  12.026
78097W        W43357   6.230  25.615  14.096
78098W        W43358  30.999  20.037  14.144
78099W        W43359   3.291  14.697  12.571
78100W        W43360  26.462  28.541   3.296
78101W        W43361  11.645   5.924  14.082
78102W        W43362  32.418  38.802  14.387
78103W        W43363  16.550   5.178  12.476
78104W        W43364  42.834  37.847  10.612
78105W        W43365   8.352  21.669  13.067
78106W        W43366   3.279   0.864   3.212
78107W        W43367  12.610  25.454   3.630
78108W        W43368   5.931  19.513   2.903
78109W        W43369  31.557   2.283   3.445
78110W        W43370   8.933  24.060  11.354
78111W        W43371  25.005  29.045  14.491
78112W        W43372  22.816  21.445  12.904
78113W        W43373  29.587  38.436   1.034
78114W        W43374  36.040  42.393   2.275
78115W        W43375  41.848   2.469   3.400
78116W        W43376  11.796  15.512   2.166
78117W        W43377  38.991  28.340  13.472
78118W        W43378  41.947  36.550  11.513
78119W        W43379   2.184  12.106   4.496
78120W        W43380  15.710  19.744   1.128
78121W        W43381  21.721  35.548   0.025
78122W        W43382   3.233  19.323  10.902
78123W        W43383  11.648  37.154   0.580
78124W        W43384  23.293  12.733  11.596
78125W        W43385   6.460   5.825   4.686
78126W        W43386  26.050   4.316  10.263
78127W        W43387  20.116  37.880   3.751
78128W        W43388  27.633  24.167   2.058
78129W        W43389  31.998  39.523   2.180
78130W        W43390   9.650   4.938  13.113
78131W        W43391   6.826  14.682   0.936
78132W        W43392  13.163   8.945   0.320
78133W        W43393  14.787   0.890  11.454
78134W        W43394  10.901  32.077   2.812
78135W        W43395  25.082  12.860   3.223
78136W        W43396  39.595  35.513   0.060
78137W        W43397  26.397  22.023   0.296
78138W        W43398   5.695  44.229  13.648
78139W        W43399  38.195  11.813  10.427
78140W        W43400  41.868  10.676  11.736
78141W        W43401  21.238  38.866   3.501
78142W        W43402  26.058  18.036   1.151
78143W        W43403  44.256  37.613  12.190
78144W        W43404  40.567  14.144  12.892
78145W        W43405  29.237  10.910  11.654
78146W        W43406   8.537  36.581  13.820
78147W        W43407  19.197  24.079  13.429
78148W        W43408  14.154   2.831   1.926
78149W        W43409  15.878  25.132   0.913
78150W        W43410  12.676  40.381  12.347
78151W        W43411   5.365  32.597  12.940
78152W        W43412  15.791   1.692  13.570
78153W        W43413  22.514  11.903   3.573
78154W        W43414  39.409   9.966  14.838
78155W        W43415  16.960  35.377  11.194
78156W        W43416   4.695   2.986  12.814
78157W        W43417   5.351  18.520  11.075
78158W        W43418  21.822  33.855   3.541
78159W        W43419  19.851  41.299  14.934
78160W        W43420  43.180  32.801  13.420
78161W        W43421  37.844  42.207   0.142
78162W        W43422   2.589  27.879   1.855
78163W        W43423  33.988  39.534  13.686
78164W        W43424   9.176   9.779  12.023
78165W        W43425  38.447  41.734   2.213
78166W        W43426   2.794  44.992   4.548
78167W        W43427  41.918  23.551   1.872
78168W        W43428  13.308   0.629   2.639
78169W        W43429  19.289   7.405   3.689
78170W        W43430  34.519  10.593   3.213
78171W        W43431  28.618  17.745   4.518
78172W        W43432  22.077  14.772   3.375
78173W        W43433  35.385  11.323  12.495
78174W        W43434  30.025   5.255   3.116
78175W        W43435  40.582   2.844   9.880
78176W        W43436  28.129  13.055  14.854
78177W        W43437  25.366   7.192   1.454
78178W        W43438   6.697  15.682  13.112
78179W        W43439  12.581  25.281  13.231
78180W        W43440   1.584  12.628   5.427
78181W        W43441   2.791  29.887  13.027
78182W        W43442   2.787  10.764  14.785
78183W        W43443  32.904  16.796   0.015
78184W        W43444  29.370  12.045   1.968
78185W        W43445  41.056  44.022  12.998
78186W        W43446  10.312  12.464   0.828
78187W        W43447  24.263  16.690   0.016
78188W        W43448  28.019  42.394  14.767
78189W        W43449  36.003  14.007  13.480
78190W        W43450   7.484   9.901   2.178
78191W        W43451   3.843  33.866  12.895
78192W        W43452  34.899  24.445   3.032
78193W        W43453   7.300  36.685  14.489
78194W        W43454  30.960  18.082   0.751
78195W        W43455  38.140   5.321  12.823
78196W        W43456  29.739  31.781   5.047
78197W        W43457  38.644  37.616  12.625
78198W        W43458  39.711   7.248  14.417
78199W        W43459  18.798  44.951   2.821
78200W        W43460  17.419  43.469  11.157
78201W        W43461   6.193   4.822  13.547
78202W        W43462  30.440  25.989  14.802
78203W        W43463  28.221  35.539   0.352
78204W        W43464   2.531   8.303  13.993
78205W        W43465  32.169  29.021   4.410
78206W        W43466   7.188   4.313  10.952
78207W        W43467  18.338  10.390  12.330
78208W        W43468   1.829  27.918   1.092
78209W        W43469  29.169  11.364  10.857
78210W        W43470  35.956  23.986   4.552
78211W        W43471  23.186   6.943   1.237
78212W        W43472  31.908  28.561   3.660
78213W        W43473  31.575  26.651  13.904
78214W        W43474  35.175  20.146  14.967
78215W        W43475  16.045   7.118   0.196
78216W        W43476   0.417   8.399   0.736
78217W        W43477  42.765  38.351   3.666
78218W        W43478  37.082   7.346   0.905
78219W        W43479  24.038  42.897   4.430
78220W        W43480  38.761  40.075  12.470
78221W        W43481  42.900   9.844  12.028
78222W        W43482   1.948  33.869   3.468
78223W        W43483   0.896  26.866   2.132
78224W        W43484  38.556  15.002   1.309
78225W        W43485  39.950   0.012   0.309
78226W        W43486  28.743  11.757   4.066
78227W        W43487  20.118  40.615  11.085
78228W        W43488  28.219   0.203   0.491
78229W        W43489  30.165  40.171  14.968
78230W        W43490   5.218  24.249   9.455
78231W        W43491  12.842   0.856  11.376
78232W        W43492  22.956  32.139  11.454
78233W        W43493  33.051  19.027  14.323
78234W        W43494  16.764   7.744  13.557
78235W        W43495  23.785  23.175  13.411
78236W        W43496  37.260  32.375  14.716
78237W        W43497   7.447  10.818  11.488
78238W        W43498  13.135  34.692   1.941
78239W        W43499   5.466   8.468   2.389
78240W        W43500  20.545  10.029   1.173
78241W        W43501   5.393   7.363  14.600
78242W        W43502  40.331  16.864   4.718
78243W        W43503  12.065   9.384   2.175
78244W        W43504  10.642  43.252   2.939
78245W        W43505  17.971  22.866   0.146
78246W        W43506  10.563  29.472   3.404
78247W        W43507  32.350  24.758   3.218
78248W        W43508  19.658   4.833  11.412
78249W        W43509  11.183  13.398   0.126
78250W        W43510  33.162   3.625   1.406
78251W        W43511  35.543  36.858   4.497
78252W        W43512  13.854  34.158  14.493
78253W        W43513   4.808  33.376  13.605
78254W        W43514  21.730  29.489   3.993
78255W        W43515   5.725  35.825  14.017
78256W        W43516  32.415  39.832   2.226
78257W        W43517  43.689   0.838   4.212
78258W        W43518  15.153  31.191  14.416
78259W        W43519  40.547  15.071   0.354
78260W        W43520  36.965  36.306   2.911
78261W        W43521  33.511  10.669   3.651
78262W        W43522  29.836  36.856   1.881
78263W        W43523   3.384  22.546   3.584
78264W        W43524  29.590   1.813   1.544
78265W        W43525  44.437  35.904  10.455
78266W        W43526  31.414  14.917   2.363
78267W        W43527  20.229  31.157  13.975
78268W        W43528  36.993  12.186  14.983
78269W        W43529   7.714  29.486   1.997
78270W        W43530  32.972  44.099   4.489
78271W        W43531  42.837   3.371   4.260
78272W        W43532  19.432  38.306   4.534
78273W        W43533  40.148   3.788   5.185
78274W        W43534  26.144  44.345  12.805
78275W        W43535   2.342  43.042   2.301
78276W        W43536  39.923  44.965   1.849
78277W        W43537  39.922  27.358  12.636
78278W        W43538  33.829   3.680   0.472
78279W        W43539  32.526  22.447  10.307
78280W        W43540   5.812  19.324   4.145
78281W        W43541   7.435   6.281  10.680
78282W        W43542  21.061  38.487  11.200
78283W        W43543   8.811  21.494   0.444
78284W        W43544   5.331  31.816  11.535
78285W        W43545   2.292  17.754   0.786
78286W        W43546  37.912  42.967   0.730
78287W        W43547  15.050   7.353   0.436
78288W        W43548  23.599   4.980  13.061
78289W        W43549   7.968   8.879  13.655
78290W        W43550  44.817  10.832  14.728
78291W        W43551  28.643  31.578   1.930
78292W        W43552  36.970  11.340   4.753
78293W        W43553  35.098  29.907  11.207
78294W        W43554   1.445  43.751  11.398
78295W        W43555  44.470  26.550   2.326
78296W        W43556  26.607  29.130  13.034
78297W        W43557  14.196   4.284   2.460
78298W        W43558  11.809  35.149   1.714
78299W        W43559  12.634   6.707   1.272
78300W        W43560   2.927  11.188  11.986
78301W        W43561  44.997  15.233   1.404
78302W        W43562   0.774  27.053  14.098
78303W        W43563  36.671  21.126   4.182
78304W        W43564  27.594  40.160   2.826
78305W        W43565   4.109  18.155   3.191
78306W        W43566  28.648  22.102  11.206
78307W        W43567  18.046  34.164   1.322
78308W        W43568  44.929  30.015   2.194
78309W        W43569  38.297  31.624   0.703
78310W        W43570  28.138  43.448   4.091
78311W        W43571   3.991  20.063  12.359
78312W        W43572  15.062  16.861   2.341
78313W        W43573  16.822  31.455  11.548
78314W        W43574   9.136  42.022  14.950
78315W        W43575  17.707   6.350   2.803
78316W        W43576  34.388   2.589   1.941
78317W        W43577  44.697  38.688   0.326
78318W        W43578   8.465  10.864  14.850
78319W        W43579  26.777  40.347   0.004
78320W        W43580  42.732  40.884  14.452
78321W        W43581  43.415   9.441  11.545
78322W        W43582  19.336  30.347   0.333
78323W        W43583  35.906  27.376  11.588
78324W        W43584   9.720  26.685  11.661
78325W        W43585  15.107  31.759  11.111
78326W        W43586  28.811  15.771   3.746
78327W        W43587  32.910   5.690  12.072
78328W        W43588  25.660   3.428   0.639
78329W        W43589  36.277  39.531  11.677
78330W        W43590   6.273  21.270   4.962
78331W        W43591  33.915  21.873   4.048
78332W        W43592  20.110  10.289  11.112
78333W        W43593  42.527  17.075  11.068
78334W        W43594  34.869  16.304   0.204
78335W        W43595  34.557  17.341   1.234
78336W        W43596  30.088  36.124  10.518
78337W        W43597   1.372  14.555   2.280
78338W        W43598  36.895  19.394   4.222
78339W        W43599  26.116   1.394  13.438
78340W        W43600  40.558  23.705  13.721
78341W        W43601   3.788  29.365  13.859
78342W        W43602  43.568  15.832  11.971
78343W        W43603  34.431   1.766  13.529
78344W        W43604   9.056  29.690  14.686
78345W        W43605  21.183   0.740   2.731
78346W        W43606  24.565   6.222   5.098
78347W        W43607  10.170  14.607   1.403
78348W        W43608  16.584  16.548   3.345
78349W        W43609  38.079  29.084  10.334
78350W        W43610  34.086   4.717  11.602
78351W        W43611  13.864   6.410   4.607
78352W        W43612  12.425  22.324   4.220
78353W        W43613  25.739  17.218  14.465
78354W        W43614  17.058  13.601   1.728
78355W        W43615  15.239   6.181   3.596
78356W        W43616  35.730  43.750  13.406
78357W        W43617  15.510  12.176   1.919
78358W        W43618  16.694   2.333  14.450
78359W        W43619   1.922  24.571  13.845
78360W        W43620  43.065  23.692   4.727
78361W        W43621   8.101  38.408  10.653
78362W        W43622  32.390  24.816  10.827
78363W        W43623  13.442  35.585   4.108
78364W        W43624  29.047  41.971   0.729
78365W        W43625   3.618   8.836   1.696
78366W        W43626  34.394  39.453   4.242
78367W        W43627  20.968  44.874   0.952
78368W        W43628  17.713  31.763   0.506
78369W        W43629  40.378   2.498   2.302
78370W        W43630  10.411  15.740   2.302
78371W        W43631  21.476  40.242   3.309
78372W        W43632  13.793  39.964  11.474
78373W        W43633  20.365  13.608  12.977
78374W        W43634  16.328  15.747   2.876
78375W        W43635  36.629  37.577   3.484
78376W        W43636  23.351   3.886  11.616
78377W        W43637   9.132  34.419   2.920
78378W        W43638  33.952  22.065   3.573
78379W        W43639  17.954  37.689  12.765
78380W        W43640   8.809   5.496  10.719
78381W        W43641  11.525   5.116  14.260
78382W        W43642  17.086  43.533   4.242
78383W        W43643  14.177  40.052  10.657
78384W        W43644  17.135   9.290  12.983
78385W        W43645  34.145  32.435  10.417
78386W        W43646  14.788  10.954  14.732
78387W        W43647  38.816  34.181   3.931
78388W        W43648  29.354  31.095  12.052
78389W        W43649  11.730  32.744  13.108
78390W        W43650  33.906  31.663   1.513
78391W        W43651  35.495   0.837   4.059
78392W        W43652  40.078  42.722  12.401
78393W        W43653   0.059  31.080  14.439
78394W        W43654   5.532  20.933   4.620
78395W        W43655  16.830   9.148  13.736
78396W        W43656  15.137  24.609  13.755
78397W        W43657  35.410  12.418   0.754
78398W        W43658  34.087   1.460   1.883
78399W        W43659  27.076  29.391  14.146
78400W        W43660   2.604  25.732  13.764
78401W        W43661  36.977  34.622   2.698
78402W        W43662   0.072  34.439   0.640
78403W        W43663  21.052  17.889   0.195
78404W        W43664  19.367  40.973   0.380
78405W        W43665  28.616  27.573   4.351
78406W        W43666  24.269  11.820   0.714
78407W        W43667   0.065  43.289   2.349
78408W        W43668  24.099  14.571  14.423
78409W        W43669  32.586  29.904   0.177
78410W        W43670  16.246  32.890   0.934
78411W        W43671   5.220  26.909   3.633
78412W        W43672  28.761  25.487   9.612
78413W        W43673  36.298  12.090  12.652
78414W        W43674  10.109  14.290   0.937
78415W        W43675  37.554  17.218  13.957
78416W        W43676  21.070  20.141  13.030
78417W        W43677  13.038  25.908   2.128
78418W        W43678  13.674  38.740  10.863
78419W        W43679   9.963  36.420  14.172
78420W        W43680  42.308   5.302   0.501
78421W        W43681   8.129  14.014   2.901
78422W        W43682  43.386  33.557   4.546
78423W        W43683   1.011  16.734  11.451
78424W        W43684  37.934   3.453  11.704
78425W        W43685  43.928  41.516  13.481
78426W        W43686  11.289  10.955  11.513
78427W        W43687  12.638  31.279   3.225
78428W        W43688   3.669  22.290   3.201
78429W        W43689   4.987   8.103  12.963
78430W        W43690  42.779   6.969   3.810
78431W        W43691  21.456  30.559  13.499
78432W        W43692   3.732  19.441   2.951
78433W        W43693  25.038  31.038   3.531
78434W        W43694  14.827  12.756  13.055
78435W        W43695  34.551   8.141   1.360
78436W        W43696  32.561  26.651   3.152
78437W        W43697  13.059  38.465  11.572
78438W        W43698  24.075  26.117   0.195
78439W        W43699  20.787  23.667   0.764
78440W        W43700   5.830   0.162  14.727
78441W        W43701  28.418  11.839   0.424
78442W        W43702  32.063  39.522   3.741
78443W        W43703   4.553  16.285   0.351
78444W        W43704  34.054   5.678   3.587
78445W        W43705  41.106  11.613  13.000
78446W        W43706  40.250  17.101  10.297
78447W        W43707  42.622  43.839   2.247
78448W        W43708  30.817  36.891  13.827
78449W        W43709  27.464  30.028  14.227
78450W        W43710  23.713  10.841   4.756
78451W        W43711  42.806  12.786  13.022
78452W        W43712   0.056   8.671   5.575
78453W        W43713  24.912  19.828   5.702
78454W        W43714  17.503  24.225  11.605
78455W        W43715  19.305  16.640   2.187
78456W        W43716  37.884  33.880   0.940
78457W        W43717   1.739  43.174  12.711
78458W        W43718  22.562  30.157  12.012
78459W        W43719  23.509   4.582   0.405
78460W        W43720  33.091  26.249   1.904
78461W        W43721  41.499  14.596  10.225
78462W        W43722  33.468  11.325  12.088
78463W        W43723  40.711  18.226   0.179
78464W        W43724  20.092  15.125  11.636
78465W        W43725   5.512  18.285  13.526
78466W        W43726  28.491  16.550  12.251
78467W        W43727  40.007  17.483   3.606
78468W        W43728  42.514  42.925  12.795
78469W        W43729  23.689   0.445  13.028
78470W        W43730   3.000  29.515  14.933
78471W        W43731  27.065  37.364   5.006
78472W        W43732  42.921  44.822   1.553
78473W        W43733   7.774  23.621   0.422
78474W        W43734  41.870  43.642  14.572
78475W        W43735  30.649   2.951  13.024
78476W        W43736   4.275  16.783  13.380
78477W        W43737  43.589  29.560   3.688
78478W        W43738  35.285  33.930  12.814
78479W        W43739  31.856  29.260   4.751
78480W        W43740  37.379   7.240  12.078
78481W        W43741   0.485  27.208   2.863
78482W        W43742  19.758  24.040  12.190
78483W        W43743  22.465  16.117   0.313
78484W        W43744  10.101  13.706   0.355
78485W        W43745  41.993  38.905  10.578
78486W        W43746  25.259  40.366  14.349
78487W        W43747  32.695  34.885   4.656
78488W        W43748  38.707   6.282   3.622
78489W        W43749   1.195  30.469   0.285
78490W        W43750   7.155  25.886   2.698
78491W        W43751  38.024  30.595  10.491
78492W        W43752  23.425  34.450  12.917
78493W        W43753  36.085  12.123   1.276
78494W        W43754   4.643  16.239  14.396
78495W        W43755  20.522  42.985  13.943
78496W        W43756   6.430  13.183   3.630
78497W        W43757   9.784  25.303  10.614
78498W        W43758  20.953   5.851   9.758
78499W        W43759  15.125   3.732   0.809
78500W        W43760  25.438  30.658  12.667
78501W        W43761  35.127  17.255   4.226
78502W        W43762  22.287  13.271   1.759
78503W        W43763   1.727  42.814   1.733
78504W        W43764  21.513  16.827   0.160
78505W        W43765  27.640  25.768  11.219
78506W        W43766  37.240  43.944  10.131
78507W        W43767  35.861  36.026  14.923
78508W        W43768   9.817  28.174   3.119
78509W        W43769  23.731  19.877   0.860
78510W        W43770  40.496  11.849  11.172
78511W        W43771  35.890  29.674   0.971
78512W        W43772  26.154  27.526   1.211
78513W        W43773   7.029  23.566  14.006
78514W        W43774  31.811   8.106   3.335
78515W        W43775  30.050  37.575   0.280
78516W        W43776  44.994  38.086  13.525
78517W        W43777  26.474  10.260  11.745
78518W        W43778  34.102  37.340  10.771
78519W        W43779  24.142  11.120  11.533
78520W        W43780  30.354  21.436   1.852
78521W        W43781  33.409  10.354  13.465
78522W        W43782  18.740  23.327   2.469
78523W        W43783  38.456  43.669   4.175
78524W        W43784   5.375  12.343   2.855
78525W        W43785   5.978  36.608   0.221
78526W        W43786  37.336  22.044  14.400
78527W        W43787  14.223  21.586   0.668
78528W        W43788  24.917  11.236  14.430
78529W        W43789  22.014   6.487   0.386
78530W        W43790   4.310  20.699  11.281
78531W        W43791   4.518  37.971  10.511
78532W        W43792  26.461  32.629  10.509
78533W        W43793  33.075  37.618  13.294
78534W        W43794   9.328   3.764   1.886
78535W        W43795  17.382  13.060   4.084
78536W        W43796  34.324  30.167   3.239
78537W        W43797  40.955  34.985  12.378
78538W        W43798  12.654  11.118  11.466
78539W        W43799   1.244  29.091   1.710
78540W        W43800   9.633  41.988  11.873
78541W        W43801  17.600  17.820   1.470
78542W        W43802  11.416   9.600  12.077
78543W        W43803  38.136   7.435   3.239
78544W        W43804  16.848  35.849   2.306
78545W        W43805  44.233  20.775  12.332
78546W        W43806  28.767  17.515   2.258
78547W        W43807   6.760  36.054  14.456
78548W        W43808  29.135   9.902  10.597
78549W        W43809   1.985   2.897   4.623
78550W        W43810  12.274  31.167  14.354
78551W        W43811  23.995  13.795  11.170
78552W        W43812  39.943  28.280   2.755
78553W        W43813  24.314   1.853   0.905
78554W        W43814   2.977  26.557  12.833
78555W        W43815  36.424  43.512  14.967
78556W        W43816   8.422  34.716   4.734
78557W        W43817  44.063   6.695   4.183
78558W        W43818  34.200   7.358  12.048
78559W        W43819  11.648  44.012  14.357
78560W        W43820  42.779  35.030   3.639
78561W        W43821  22.007  12.087  11.006
78562W        W43822  24.647  39.359  12.176
78563W        W43823  13.168   7.895   3.731
78564W        W43824  38.597  17.242  14.024
78565W        W43825  32.659  11.727   3.633
78566W        W43826  44.437  13.774  13.042
78567W        W43827  15.684  41.829  12.076
78568W        W43828  26.096  15.317   0.288
78569W        W43829  21.001   7.884   4.230
78570W        W43830  13.663   1.247  11.979
78571W        W43831  35.285  17.100   1.891
78572W        W43832  21.041  34.896  12.014
78573W        W43833  19.778  25.347   2.369
78574W        W43834  29.840  12.387  14.564
78575W        W43835  29.750   8.398  12.515
78576W        W43836   9.240  17.339   0.875
78577W        W43837  18.700  30.528  10.593
78578W        W43838  20.717   0.931   1.670
78579W        W43839  10.315  22.488   3.209
78580W        W43840  30.171  21.353   2.365
78581W        W43841  30.529   5.636   4.755
78582W        W43842  24.179  10.777  12.473
78583W        W43843  18.856  30.456   2.752
78584W        W43844  35.077  35.315  10.620
78585W        W43845  11.554  36.734   0.871
78586W        W43846  30.494   6.265  10.614
78587W        W43847  12.812  15.557  13.050
78588W        W43848  16.639  29.006   2.387
78589W        W43849  20.760  32.251  12.713
78590W        W43850   4.673  11.385  11.635
78591W        W43851  17.314  41.470  12.058
78592W        W43852   5.965   2.466   3.158
78593W        W43853  29.748  22.653   4.701
78594W        W43854  15.559   1.932   1.033
78595W        W43855  44.648  44.349  10.548
78596W        W43856   6.819   6.285   1.902
78597W        W43857  36.441  19.532   3.605
78598W        W43858  17.284   3.388   3.631
78599W        W43859   9.764   4.022  14.863
78600W        W43860  36.567  15.499  14.111
78601W        W43861  10.669   5.221  14.748
78602W        W43862  39.830  14.713   4.854
78603W        W43863  43.932  35.370   4.189
78604W        W43864  24.185  39.593   2.343
78605W        W43865  34.194  44.148  13.993
78606W        W43866  40.372  29.385   4.450
78607W        W43867  10.256   0.355  14.088
78608W        W43868  37.533  37.030   3.798
78609W        W43869  25.249  24.598   2.188
78610W        W43870  12.677  15.574  12.098
78611W        W43871   8.394  23.724  10.711
78612W        W43872  33.502  16.333  11.151
78613W        W43873  24.557   5.948  10.774
78614W        W43874   8.794  11.899   0.878
78615W        W43875  20.379  42.037   0.394
78616W        W43876  28.130  22.703   2.308
78617W        W43877  11.449  26.078   4.583
78618W        W43878  29.931  23.086  10.515
78619W        W43879  11.864  17.345  11.847
78620W        W43880   9.018   2.960   1.595
78621W        W43881  11.165  16.646  14.324
78622W        W43882   0.532  34.555   4.837
78623W        W43883  28.512  29.638  13.493
78624W        W43884  23.088  39.783   0.426
78625W        W43885  10.824  34.423   4.423
78626W        W43886  26.184  41.296   4.294
78627W        W43887  18.703  16.772  11.551
78628W        W43888  42.711   6.402  10.827
78629W        W43889  40.368  16.470  13.360
78630W        W43890  31.625  36.839   4.898
78631W        W43891  18.215  21.542  13.824
78632W        W43892  42.204  40.861  14.407
78633W        W43893  22.985  44.954   1.699
78634W        W43894  21.626   2.740   2.394
78635W        W43895  38.706  24.433   1.487
78636W        W43896  13.702   5.752  11.320
78637W        W43897  43.080  27.632  13.953
78638W        W43898  15.689   2.442   3.694
78639W        W43899   3.262  26.263  14.406
78640W        W43900  42.205  12.457  10.251
78641W        W43901   4.262   8.487  12.075
78642W        W43902  32.176  10.044  13.034
78643W        W43903  32.126  15.516  10.732
78644W        W43904   0.402  39.079   4.872
78645W        W43905  33.570  11.232   1.788
78646W        W43906  37.490  19.584   5.067
78647W        W43907  10.652  26.120  13.019
78648W        W43908  40.494  27.887  11.999
78649W        W43909  25.650   0.839  10.722
78650W        W43910  22.761  33.402   1.335
78651W        W43911  12.448  43.538  13.286
78652W        W43912  30.523  35.757  12.621
78653W        W43913  20.768  38.511   2.720
78654W        W43914  19.051  16.372  11.576
78655W        W43915   4.858  16.784  12.186
78656W        W43916  29.155  10.423  14.953
78657W        W43917  37.851   3.344   1.656
78658W        W43918   1.704  29.490  12.325
78659W        W43919  17.655  10.575  13.372
78660W        W43920  16.073  44.772  14.515
78661W        W43921  36.028  10.645   1.941
78662W        W43922   0.019  40.037   4.183
78663W        W43923  27.506   5.955  13.895
78664W        W43924  19.770  23.197   0.388
78665W        W43925  23.607   7.611   1.453
78666W        W43926   9.350  13.068  14.855
78667W        W43927  40.952  21.596   4.399
78668W        W43928  30.574   7.421   1.936
78669W        W43929   9.345  21.187  10.286
78670W        W43930  19.836   0.453   3.645
78671W        W43931  14.310   0.019  12.992
78672W        W43932  36.360  13.223   2.632
78673W        W43933  11.652  26.039  14.913
78674W        W43934  24.079  15.009  10.533
78675W        W43935  25.584  35.342  12.525
78676W        W43936  37.995  15.134   2.560
78677W        W43937  37.069  16.931   3.137
78678W        W43938  14.391   4.686   2.160
78679W        W43939  14.744  40.762  10.748
78680W        W43940  32.058  28.083   5.239
78681W        W43941  19.616  11.516  14.825
78682W        W43942  25.917  11.992  11.664
78683W        W43943   7.304  37.289   5.241
78684W        W43944  36.920  34.634  12.231
78685W        W43945  22.757  12.183   1.489
78686W        W43946  41.358  18.351   3.695
78687W        W43947  31.333  14.609  12.480
78688W        W43948  25.357  37.004   2.182
78689W        W43949   9.172  19.722   2.515
78690W        W43950  23.962  38.092   2.250
78691W        W43951  28.622  34.338   1.842
78692W        W43952  13.068  29.510  10.637
78693W        W43953  10.553  10.672   0.404
78694W        W43954   3.383   1.139   2.027
78695W        W43955  32.119   5.668  11.989
78696W        W43956  41.091  10.334  14.672
78697W        W43957  11.102  43.430   3.102
78698W        W43958  16.898   6.991   4.589
78699W        W43959   0.307  14.174  14.970
78700W        W43960  13.237   9.966   2.376
78701W        W43961   3.712  19.223  14.077
78702W        W43962  27.154  21.969  14.760
78703W        W43963  10.952   4.324   5.481
78704W        W43964  40.463  38.090   0.215
78705W        W43965  25.935  41.604  11.282
78706W        W43966  12.011   1.489   1.330
78707W        W43967   7.735   9.105   2.100
78708W        W43968  24.684   3.878  12.688
78709W        W43969  33.424  40.994   2.692
78710W        W43970   5.984  35.029  11.980
78711W        W43971   1.711  14.110  12.966
78712W        W43972   7.828   0.258  12.979
78713W        W43973  21.223  31.498   2.204
78714W        W43974  16.580  11.934   4.075
78715W        W43975  34.557   1.597  14.002
78716W        W43976  26.093  28.200  11.953
78717W        W43977   2.759  14.556   4.402
78718W        W43978  29.033  12.735   4.117
78719W        W43979   5.846  40.096  13.277
78720W        W43980  19.217  24.014   2.792
78721W        W43981  36.896  10.650  12.967
78722W        W43982  28.481  23.687   4.013
78723W        W43983   5.832  38.124  11.198
78724W        W43984  35.357  31.912  10.724
78725W        W43985  10.237  22.455   4.157
78726W        W43986  17.646  18.702  12.531
78727W        W43987  27.830  19.938   1.943
78728W        W43988   1.717  33.496  13.922
78729W        W43989  35.442   5.296   2.789
78730W        W43990  34.385   6.229  14.458
78731W        W43991  19.823   7.113   4.605
78732W        W43992  31.103  41.408   1.152
78733W        W43993   4.829  16.835   0.740
78734W        W43994   3.821   0.289  10.740
78735W        W43995  30.632  16.647   2.733
78736W        W43996  42.825  22.758  14.988
78737W        W43997   3.829  10.199  14.000
78738W        W43998  11.789  42.341   0.441
78739W        W43999  22.436   6.394   3.132
78740W        W44000   2.824  36.059  14.758
78741W        W44001   3.466  27.600   3.692
78742W        W44002  38.928  36.625   1.648
78743W        W44003  34.023   1.582   4.688
78744W        W44004  16.215   2.996  10.704
78745W        W44005   1.391   1.816   4.047
78746W        W44006  34.022  14.858   0.067
78747W        W44007  21.675  20.536  11.372
78748W        W44008  38.892  28.655   3.614
78749W        W44009  27.031   4.360  14.909
78750W        W44010   2.135   0.803  10.180
78751W        W44011  28.771  23.348  10.743
78752W        W44012  26.916   1.510   1.866
78753W        W44013  37.042  16.400   4.046
78754W        W44014  41.455  29.955   0.958
78755W        W44015  30.915  22.235  13.722
78756W        W44016  26.209   3.613   1.109
78757W        W44017  17.605  38.848  12.362
78758W        W44018  44.818  33.444   2.354
78759W        W44019   3.378  29.751  10.610
78760W        W44020  13.296  15.578  12.916
78761W        W44021  28.243  13.779  10.692
78762W        W44022  34.105  26.180   2.627
78763W        W44023  39.490  25.652  13.823
78764W        W44024   2.032  36.549  12.573
78765W        W44025  21.631  40.686   0.817
78766W        W44026  41.919  24.893   3.843
78767W        W44027  38.961  26.412   2.115
78768W        W44028  23.513  31.980   1.786
78769W        W44029   9.773  42.797  14.834
78770W        W44030  18.003   2.173   3.136
78771W        W44031  27.806  25.602  13.747
78772W        W44032  23.533  44.571  12.620
78773W        W44033  19.677  36.843  12.918
78774W        W44034  28.441  13.714   3.472
78775W        W44035   5.715  20.453  11.994
78776W        W44036  36.369  26.784   3.698
78777W        W44037   9.921  44.388  12.748
78778W        W44038  24.586   1.375  12.104
78779W        W44039   4.003  37.116  13.054
78780W        W44040  44.930  39.050  10.708
78781W        W44041  28.460  10.373  12.009
78782W        W44042  13.370  14.534   3.239
78783W        W44043  19.604  42.859  10.859
78784W        W44044   5.901  27.264   5.400
78785W        W44045  14.364  28.849  14.958
78786W        W44046  43.223  21.165   3.887
78787W        W44047  33.621  22.467  12.072
78788W        W44048  21.350  13.621  12.455
78789W        W44049   3.343   1.238   4.114
78790W        W44050  33.817  41.817  12.003
78791W        W44051  37.049  32.081  13.724
78792W        W44052   3.447  11.575  13.934
78793W        W44053  38.011  10.613  11.029
78794W        W44054  28.939  39.058   2.124
78795W        W44055  44.263   5.860   0.316
78796W        W44056  30.497  35.505   2.071
78797W        W44057  44.621  24.647   5.056
78798W        W44058   7.845  26.658   2.778
78799W        W44059  10.981  42.324  10.765
78800W        W44060  29.218  35.932  13.485
78801W        W44061   9.473  11.117  11.354
78802W        W44062  27.480  17.712   4.935
78803W        W44063  20.803  40.351   4.932
78804W        W44064  29.985  26.754  11.121
78805W        W44065   8.660  23.064  11.441
78806W        W44066  34.225  33.727  13.929
78807W        W44067  28.884  17.680  12.511
78808W        W44068  19.751  26.544  13.512
78809W        W44069  40.185  39.303   1.495
78810W        W44070  11.106  40.253   0.213
78811W        W44071   5.297  24.012   2.717
78812W        W44072  21.642  18.309  11.160
78813W        W44073  36.413  38.386   4.602
78814W        W44074   1.305   0.520   4.253
78815W        W44075  11.415   2.009  12.930
78816W        W44076  21.624  18.693   5.806
78817W        W44077  24.607   4.736   1.796
78818W        W44078   5.445   0.025   4.138
78819W        W44079  11.383  11.467  11.375
78820W        W44080  34.034  25.450   2.197
78821W        W44081  11.446  34.132   2.572
78822W        W44082  26.631  32.533  14.221
78823W        W44083   1.482  29.115   2.180
78824W        W44084  42.776  12.047   1.209
78825W        W44085  19.581  20.633  12.604
78826W        W44086  40.911  21.706   0.775
78827W        W44087  42.719   3.732  10.563
78828W        W44088   5.424   9.838  12.446
78829W        W44089  14.087  36.950  12.154
78830W        W44090   0.384  15.580  11.123
78831W        W44091  11.432  12.065  13.421
78832W        W44092  38.604  18.218   1.614
78833W        W44093   7.344  12.169  10.593
78834W        W44094  30.696  20.589  12.485
78835W        W44095  24.208  12.576  11.540
78836W        W44096  27.749  24.546   0.846
78837W        W44097   9.952   8.641  11.472
78838W        W44098  24.555   5.713  10.312
78839W        W44099  23.343  36.367  11.626
78840W        W44100  27.541  37.787   0.388
78841W        W44101  23.625  30.943   0.980
78842W        W44102  14.785  41.092   3.340
78843W        W44103  27.593  32.090  13.479
78844W        W44104  19.826  18.041   1.816
78845W        W44105  19.529  22.229  13.992
78846W        W44106  19.025  38.545   4.348
78847W        W44107  25.492   7.793   3.967
78848W        W44108  39.900  23.084   0.458
78849W        W44109  13.673  24.829  12.014
78850W        W44110  41.824  33.181   2.754
78851W        W44111  10.844  15.764  11.621
78852W        W44112   6.170  39.539  14.792
78853W        W44113  31.180  33.545  11.611
78854W        W44114  44.025  28.774  10.844
78855W        W44115  12.850  30.999   3.752
78856W        W44116  42.886  18.094   1.260
78857W        W44117  38.371   9.362   1.838
78858W        W44118  15.697   5.897   0.720
78859W        W44119  13.972  19.384  14.384
78860W        W44120  30.935  39.519   4.972
78861W        W44121   1.011  44.599  12.783
78862W        W44122  32.401  44.785   4.196
78863W        W44123  20.472  42.354   2.134
78864W        W44124  26.184  25.037   2.937
78865W        W44125   8.387  29.639  12.477
78866W        W44126  10.314  25.769   3.262
78867W        W44127   3.147  34.830  14.881
78868W        W44128  10.902  17.126  12.251
78869W        W44129   4.450  42.270  13.391
78870W        W44130   9.140  10.082   0.022
78871W        W44131  23.996  23.083   2.950
78872W        W44132  44.333  41.271   0.025
78873W        W44133  18.346  18.214  10.669
78874W        W44134   1.763  43.732   1.857
78875W        W44135  28.889   0.860  12.217
78876W        W44136  15.745  30.026  14.478
78877W        W44137  24.953  21.724   3.662
78878W        W44138   0.431  31.643  14.987
78879W        W44139   8.263   2.770  14.996
78880W        W44140  41.601   1.399   1.305
78881W        W44141  16.606  14.533   3.471
78882W        W44142  41.691  29.500   0.862
78883W        W44143  15.671  22.744   3.560
78884W        W44144  29.696  22.748   3.790
78885W        W44145  19.768  29.142  11.119
78886W        W44146   3.175  25.577  12.542
78887W        W44147  36.668   6.587  11.647
78888W        W44148  43.613  37.838   2.249
78889W        W44149   9.163   7.629  10.796
78890W        W44150   6.593  23.301  13.840
78891W        W44151  31.152  41.449  13.063
78892W        W44152   7.462  37.927  13.383
78893W        W44153   3.443  30.172  14.172
78894W        W44154   8.094  35.575   4.661
78895W        W44155  42.851  10.341  11.937
78896W        W44156  21.658  38.520  11.569
78897W        W44157  14.764  25.022  13.565
78898W        W44158  23.341  33.005   0.791
78899W        W44159  25.729   3.290  11.111
78900W        W44160  29.757  31.932   9.951
78901W        W44161  21.293  39.957  12.292
78902W        W44162  38.448  18.179   4.559
78903W        W44163  18.417  21.279   3.724
78904W        W44164  39.844  14.632  14.871
78905W        W44165  11.009   7.468  13.940
78906W        W44166   0.065   0.972  12.763
78907W        W44167  43.761  13.381  14.888
78908W        W44168   7.424  33.581  11.638
78909W        W44169  10.382  17.044  12.995
78910W        W44170  30.191   0.394   0.728
78911W        W44171  22.992  41.936  14.337
78912W        W44172  36.125  26.689   4.645
78913W        W44173  26.849   5.794   2.170
78914W        W44174  39.976   7.458  14.031
78915W        W44175  39.316  24.963  13.968
78916W        W44176  36.857  44.348   4.100
78917W        W44177  38.157  16.491   1.353
78918W        W44178  32.447   4.735   3.231
78919W        W44179  36.887   1.033  13.102
78920W        W44180  43.079  22.683  11.546
78921W        W44181  32.891   2.295   4.756
78922W        W44182  11.358  25.069  14.269
78923W        W44183   3.518   6.709   1.483
78924W        W44184  17.208  31.297  13.943
78925W        W44185   2.488  26.308   9.872
78926W        W44186  27.893   8.702  13.615
78927W        W44187  15.886  18.143   4.031
78928W        W44188  27.185  18.509  12.434
78929W        W44189  19.574   2.177  10.597
78930W        W44190  39.486  17.151   4.811
78931W        W44191  12.714  12.337   0.996
78932W        W44192  20.975   4.314   3.048
78933W        W44193  36.916  21.542  10.702
78934W        W44194   5.988  17.992  14.931
78935W        W44195   8.729  11.400   4.670
78936W        W44196   2.720   3.961   1.810
78937W        W44197  43.373   0.851  10.744
78938W        W44198  33.853  38.868   2.781
78939W        W44199  36.550  44.503   5.384
78940W        W44200   6.204  35.153   4.134
78941W        W44201  37.753  11.039   0.323
78942W        W44202  26.618   5.439  12.513
78943W        W44203  20.186  18.191   3.365
78944W        W44204   2.279  13.725   0.835
78945W        W44205  13.612  41.245  11.157
78946W        W44206  33.418   5.272   2.447
78947W        W44207  15.997  38.516  12.910
78948W        W44208  17.703  20.245  11.215
78949W        W44209  24.175  22.639   4.666
78950W        W44210  41.286   8.864  14.893
78951W        W44211   5.915  26.227  10.213
78952W        W44212  33.383  34.951  14.738
78953W        W44213  10.113   7.852  14.839
78954W        W44214   2.803   7.592   1.916
78955W        W44215  18.301  25.176   1.897
78956W        W44216   7.077  21.744  12.096
78957W        W44217  35.147  39.168  10.686
78958W        W44218   5.389  10.715   0.485
78959W        W44219  32.339  16.098   1.378
78960W        W44220   8.309  14.358   4.062
78961W        W44221  39.460  10.424  13.247
78962W        W44222   5.009  34.874   4.884
78963W        W44223  13.662  20.165   3.796
78964W        W44224  23.910  18.859   3.662
78965W        W44225  13.232   8.841  11.560
78966W        W44226  36.946   9.885  13.867
78967W        W44227  33.247  17.209  11.070
78968W        W44228  37.042   4.812   2.724
78969W        W44229  23.105  14.668   2.430
78970W        W44230  30.596  42.341  12.906
78971W        W44231   7.130  30.071   0.789
78972W        W44232  43.329   6.041   4.551
78973W        W44233  35.953  13.219  13.065
78974W        W44234  24.840  36.344  11.907
78975W        W44235  32.482   7.427   5.102
78976W        W44236  12.431   8.300  13.806
78977W        W44237   3.713  41.120  14.651
78978W        W44238  10.968  41.232   3.635
78979W        W44239  39.400  40.330   4.432
78980W        W44240   3.459   9.691  11.039
78981W        W44241  21.188  29.353   0.327
78982W        W44242  22.912  14.537  13.349
78983W        W44243   2.772  41.787   3.787
78984W        W44244   5.940  31.558  12.141
78985W        W44245  13.818  12.736  14.581
78986W        W44246  36.317  34.614  12.940
78987W        W44247  23.653  12.747   0.705
78988W        W44248  39.045   6.524   1.151
78989W        W44249  18.262  14.561   3.301
78990W        W44250  27.634  11.408  11.564
78991W        W44251   1.234  22.537   1.897
78992W        W44252   9.431  44.745  11.491
78993W        W44253   0.018   1.910   4.375
78994W        W44254  19.159  33.271  12.899
78995W        W44255  23.004  36.317  13.384
78996W        W44256   4.813   2.885   0.803
78997W        W44257  30.975  39.294  13.723
78998W        W44258  20.617  31.204  14.501
78999W        W44259   1.267  16.071   3.830
79000W        W44260   3.141  14.327   4.691
79001W        W44261  24.706  29.217   3.144
79002W        W44262  14.692  11.898   3.225
79003W        W44263  27.248  14.661   2.360
79004W        W44264  15.197  28.666  12.085
79005W        W44265   7.263  11.102  13.755
79006W        W44266   0.243  20.610   4.268
79007W        W44267   6.380  43.661   0.198
79008W        W44268  28.685  43.234   2.815
79009W        W44269   3.580   0.671  10.525
79010W        W44270  22.101   2.017   0.321
79011W        W44271  38.293  24.686   2.205
79012W        W44272  27.641  16.412  14.995
79013W        W44273  34.711  43.915   1.454
79014W        W44274   4.961  39.402   4.532
79015W        W44275  16.172  28.755  14.512
79016W        W44276   1.503  23.471   1.240
79017W        W44277  37.544  34.610   4.205
79018W        W44278   4.842  25.479   1.267
79019W        W44279  13.867   3.042  11.159
79020W        W44280   6.780  21.536  13.018
79021W        W44281  24.184   7.233  10.786
79022W        W44282  27.508  29.895   2.801
79023W        W44283   5.044  25.587  10.398
79024W        W44284   9.034   3.812   0.210
79025W        W44285  18.326  35.576  10.963
79026W        W44286  31.911   3.415   1.452
79027W        W44287   0.139  44.822   3.845
79028W        W44288  29.516  35.331  13.093
79029W        W44289  34.974  27.106  14.570
79030W        W44290  21.475  37.379   2.054
79031W        W44291   9.282  38.073   2.200
79032W        W44292  36.602  17.525  10.523
79033W        W44293  36.554  18.827   2.342
79034W        W44294  35.081  30.048   4.117
79035W        W44295  44.349  35.070  13.001
79036W        W44296  42.782  44.526   3.139
79037W        W44297   3.084   3.851   1.351
79038W        W44298  25.120  29.550   4.895
79039W        W44299  23.184  30.514  14.791
79040W        W44300  37.482   7.069   2.812
79041W        W44301  29.384   1.379   0.327
79042W        W44302  13.829  10.644  12.800
79043W        W44303   8.420  38.562  14.277
79044W        W44304  13.162  28.928  13.397
79045W        W44305  44.319  25.196   1.771
79046W        W44306  33.350   6.242  14.247
79047W        W44307  31.480  24.808   0.466
79048W        W44308  21.715   1.217   4.326
79049W        W44309  17.348   6.443  13.161
79050W        W44310  15.491  30.194   1.538
79051W        W44311  20.649   2.393  10.427
79052W        W44312  22.992  32.563  13.558
79053W        W44313  12.281  22.081  14.996
79054W        W44314  29.986  44.163  12.518
79055W        W44315  12.271  13.176   2.139
79056W        W44316   2.332  32.813   1.433
79057W        W44317  31.744  23.592   4.926
79058W        W44318  31.412   5.461   1.903
79059W        W44319  42.800  27.506  14.412
79060W        W44320   2.908  23.443  12.922
79061W        W44321   7.669  40.284  14.880
79062W        W44322  27.786  40.994  10.764
79063W        W44323  24.386  14.900   1.120
79064W        W44324  19.589  35.411   0.742
79065W        W44325  16.305  20.355   2.615
79066W        W44326  13.698  10.744   0.482
79067W        W44327  14.184   0.934   2.699
79068W        W44328  42.310   0.875  11.656
79069W        W44329   2.902  42.758   3.374
79070W        W44330  25.651  41.019  11.548
79071W        W44331   1.732   2.114   3.297
79072W        W44332  31.569  33.206  10.677
79073W        W44333  27.641  40.979  12.577
79074W        W44334  22.153  15.607   3.378
79075W        W44335  18.653   9.552   1.319
79076W        W44336  26.538  42.289   1.342
79077W        W44337  17.109  28.600   0.237
79078W        W44338  23.497  11.275  14.814
79079W        W44339  20.702  15.162   3.868
79080W        W44340   2.425  18.614  12.981
79081W        W44341  10.888  27.771   5.162
79082W        W44342  18.204  21.128   4.987
79083W        W44343  16.316  15.032   0.546
79084W        W44344  27.657  29.639   1.356
79085W        W44345  35.758  21.600  12.867
79086W        W44346  39.634  32.882  14.383
79087W        W44347  13.220  12.768  13.255
79088W        W44348  41.936  32.633  12.973
79089W        W44349   3.757   4.658  12.020
79090W        W44350  37.563  14.563  13.702
79091W        W44351  40.087   5.349   4.472
79092W        W44352  22.977   1.836   2.138
79093W        W44353   5.381  27.195   1.395
79094W        W44354  29.114  27.015   0.538
79095W        W44355  13.190  39.266  11.087
79096W        W44356  27.674  17.196   1.757
79097W        W44357  15.546  28.464  11.763
79098W        W44358  11.148  17.785  10.426
79099W        W44359  22.422  23.132  11.933
79100W        W44360  10.196  16.943   4.360
79101W        W44361  37.450  22.162  12.541
79102W        W44362  35.939  15.734   1.840
79103W        W44363   4.318  27.204  14.741
79104W        W44364  16.743  36.119  14.395
79105W        W44365  44.773   5.780   0.305
79106W        W44366   0.836  32.892  13.439
79107W        W44367   4.300  20.942  13.787
79108W        W44368   4.366  13.142  12.485
79109W        W44369   6.434  42.603  14.309
79110W        W44370  37.794  17.265   1.679
79111W        W44371   8.642   0.778   4.466
79112W        W44372  13.719  30.368  11.405
79113W        W44373  43.310  36.998   0.236
79114W        W44374  10.405  43.917   2.416
79115W        W44375   3.981  25.483   2.765
79116W        W44376  26.441  34.084   3.236
79117W        W44377  18.340  43.361  13.067
79118W        W44378   7.411  22.255  14.232
79119W        W44379   1.247  33.823  11.587
79120W        W44380  20.118  21.045   3.331
79121W        W44381  14.663   0.169  13.399
79122W        W44382   9.893  32.500   1.665
79123W        W44383  21.466  34.191  14.443
79124W        W44384  13.159   6.794  12.364
79125W        W44385   5.594  28.757   1.781
79126W        W44386  33.206  20.271   0.003
79127W        W44387  12.207   4.944   2.222
79128W        W44388  43.041  34.048  14.046
79129W        W44389  15.299  14.341   3.657
79130W        W44390  15.176  44.950   1.231
79131W        W44391   1.940  33.161  12.980
79132W        W44392   7.415   1.413  10.427
79133W        W44393  36.568  40.552   0.808
79134W        W44394  17.772   3.829   4.712
79135W        W44395  29.059   8.902  12.914
79136W        W44396  36.427  32.115  14.339
79137W        W44397  30.091   6.787  13.982
79138W        W44398  21.252   3.903   3.139
79139W        W44399  40.523  36.658  14.138
79140W        W44400  22.967  21.902   9.897
79141W        W44401  12.305  44.845   2.320
79142W        W44402  13.760  39.427  12.800
79143W        W44403   7.779  12.223   2.327
79144W        W44404  13.111  30.497   3.529
79145W        W44405   9.218  11.053   2.235
79146W        W44406  33.085  36.582  13.397
79147W        W44407   2.888  17.538   4.741
79148W        W44408  30.704  31.115  14.956
79149W        W44409  23.000   1.227   3.536
79150W        W44410  20.403  24.252  12.827
79151W        W44411  44.972  29.689   0.888
79152W        W44412   5.400  24.152  13.343
79153W        W44413  11.267  31.479   3.199
79154W        W44414   5.054   2.409   0.834
79155W        W44415   2.604  19.172   2.267
79156W        W44416  30.014  43.715   4.061
79157W        W44417  38.941  12.109  12.117
79158W        W44418  29.523  41.912   0.545
79159W        W44419   4.721  29.722   3.261
79160W        W44420  38.964   1.123  12.194
79161W        W44421  17.388   0.389  12.608
79162W        W44422  24.698  36.394  13.995
79163W        W44423  18.837  35.942  14.350
79164W        W44424  36.982  27.917   1.430
79165W        W44425  35.141   0.996   3.601
79166W        W44426  15.375  39.355   2.774
79167W        W44427  16.610  14.692  14.270
79168W        W44428  29.062  42.673  14.937
79169W        W44429   9.818  41.840  14.117
79170W        W44430   7.204   5.321  12.852
79171W        W44431  15.873   0.789  13.040
79172W        W44432   2.461   8.747  11.125
79173W        W44433  40.589  24.601  13.358
79174W        W44434  11.697  20.997  12.286
79175W        W44435  11.301  41.878   1.002
79176W        W44436  17.570  31.470   3.742
79177W        W44437   9.708  34.033   3.192
79178W        W44438  30.033  23.925  13.403
79179W        W44439  23.717  43.052  10.750
79180W        W44440  40.812  31.709  12.399
79181W        W44441  17.394  14.405  12.851
79182W        W44442  19.155  29.313  14.424
79183W        W44443  11.772  26.631   0.979
79184W        W44444  16.251  17.569  13.593
79185W        W44445  29.472  24.711  11.621
79186W        W44446  39.581  11.912  11.010
79187W        W44447  35.049  43.252   0.814
79188W        W44448  37.146  22.965   3.694
79189W        W44449  28.258  33.966   1.774
79190W        W44450  26.911  32.905  13.029
79191W        W44451  14.551  23.126  12.506
79192W        W44452  12.045  36.260  10.692
79193W        W44453   6.189  30.493   3.904
79194W        W44454  18.533  34.997  13.522
79195W        W44455  38.112  38.125   1.235
79196W        W44456  34.501  26.772   3.243
79197W        W44457   9.243  23.765   4.110
79198W        W44458  10.077   1.071   4.819
79199W        W44459  38.532  12.847   4.052
79200W        W44460  29.354  34.651  11.124
79201W        W44461  43.808   6.746  11.155
79202W        W44462  30.509  22.134  11.251
79203W        W44463  31.169  30.460  11.918
79204W        W44464  42.946   2.285   0.903
79205W        W44465  38.454  38.529  13.780
79206W        W44466  38.361  30.432  12.424
79207W        W44467  14.132  21.113   1.982
79208W        W44468   6.221  27.375  13.332
79209W        W44469  23.784   5.649  11.158
79210W        W44470  28.646  12.277   1.465
79211W        W44471  40.904  34.075   3.178
79212W        W44472  41.470  40.479  10.439
79213W        W44473  43.331  23.727   2.088
79214W        W44474  38.420  43.543   1.397
79215W        W44475  23.555  44.401  10.138
79216W        W44476  10.161  11.861   4.715
79217W        W44477   6.835   9.195  14.822
79218W        W44478  41.737   9.868   2.911
79219W        W44479  15.637  30.188   0.339
79220W        W44480  17.301  43.792   3.685
79221W        W44481  43.046  13.938   3.181
79222W        W44482  23.232  10.355   2.279
79223W        W44483  16.073  34.665  13.981
79224W        W44484  33.966  13.339   2.206
79225W        W44485  27.131  39.501   1.909
79226W        W44486  32.517  43.398   4.227
79227W        W44487   8.873   6.414   0.941
79228W        W44488   3.424  19.356   4.666
79229W        W44489  19.766  37.802   3.152
79230W        W44490   0.789   9.982   0.028
79231W        W44491  16.815  44.251   1.681
79232W        W44492  37.541  24.229  13.062
79233W        W44493  28.378  24.425   0.576
79234W        W44494   8.962   2.852  11.042
79235W        W44495  39.823  11.649   2.741
79236W        W44496  29.868  17.394  11.037
79237W        W44497  10.293   9.593   0.207
79238W        W44498  38.380  19.868  14.331
79239W        W44499  17.597  39.990  13.489
79240W        W44500  13.052  42.487  10.591
79241W        W44501  16.679  42.797   3.591
79242W        W44502   2.238  21.814  10.756
79243W        W44503  40.580  16.774   0.185
79244W        W44504   2.994  28.053  11.093
79245W        W44505  36.375   6.863  11.983
79246W        W44506  23.925  25.247   1.282
79247W        W44507  18.138   0.193  10.777
79248W        W44508  12.244  22.058  14.023
79249W        W44509  28.928  19.459  11.641
79250W        W44510  26.381  26.677   3.009
79251W        W44511  26.221   2.261  14.307
79252W        W44512  21.250  25.014  11.218
79253W        W44513  10.263  16.810   4.895
79254W        W44514   2.001  23.933   1.154
79255W        W44515  21.784  37.981   4.050
79256W        W44516  21.683  39.672  11.185
79257W        W44517  29.314  21.421   4.092
79258W        W44518  32.159   6.842   2.919
79259W        W44519  24.551  39.035   5.391
79260W        W44520   5.648  41.357   1.691
79261W        W44521  19.266  41.980   1.245
79262W        W44522  44.341  19.645  10.961
79263W        W44523   9.871  41.307   0.997
79264W        W44524  10.210  23.572   0.448
79265W        W44525  15.138  36.433   3.186
79266W        W44526   3.930  10.255  14.514
79267W        W44527  29.957  10.892  14.438
79268W        W44528  25.570   8.742  11.442
79269W        W44529  33.558   4.578   9.994
79270W        W44530  27.773  31.029   0.136
79271W        W44531  36.418  14.433   5.136
79272W        W44532  34.420   5.366   0.034
79273W        W44533  12.030  35.979  11.998
79274W        W44534  28.208  14.602   3.843
79275W        W44535  28.242  15.678  14.869
79276W        W44536  20.776  11.521  10.862
79277W        W44537  16.519  28.499  12.030
79278W        W44538  28.610  22.139  13.411
79279W        W44539  31.438  42.073   2.791
79280W        W44540   9.684  31.695   0.333
79281W        W44541  16.358  12.170   3.636
79282W        W44542  12.898  29.726  10.190
79283W        W44543  41.521  35.674   1.241
79284W        W44544   7.945   4.704  14.842
79285W        W44545  38.268  34.444  12.105
79286W        W44546  22.269   6.148   2.706
79287W        W44547  24.127  22.631   2.218
79288W        W44548  34.456  13.248   4.713
79289W        W44549  41.888   3.136  12.590
79290W        W44550  23.486  21.548  14.428
79291W        W44551  16.173  11.577   4.207
79292W        W44552  21.987  37.969  14.034
79293W        W44553   5.266  36.481   2.647
79294W        W44554  31.183   6.665  10.638
79295W        W44555   6.115   9.240  14.065
79296W        W44556  19.529   3.323   0.368
79297W        W44557  25.399  25.790   3.188
79298W        W44558  11.798  22.025   1.263
79299W        W44559  26.433  13.766   1.489
79300W        W44560  40.288  23.291   1.303
79301W        W44561  18.643  13.753  14.375
79302W        W44562   6.737   4.196   3.293
79303W        W44563  19.073  36.100  12.884
79304W        W44564   8.441  38.304   0.496
79305W        W44565  19.735  13.128  13.345
79306W        W44566  31.516  22.998   4.527
79307W        W44567   4.873   8.914   3.634
79308W        W44568  37.609  17.205  14.819
79309W        W44569  27.566  10.064   0.370
79310W        W44570   3.342  18.501   2.454
79311W        W44571  39.896  11.905   4.568
79312W        W44572  24.450  43.803   2.739
79313W        W44573  36.770  28.807  10.991
79314W        W44574  24.415   5.361   0.882
79315W        W44575   0.182  10.553   2.227
79316W        W44576  33.143  12.399  13.527
79317W        W44577  42.723  43.758   0.045
79318W        W44578  40.746  40.000  12.467
79319W        W44579   0.951  21.612  14.233
79320W        W44580  40.376  14.135   1.265
79321W        W44581  33.919  23.831   0.749
79322W        W44582  20.033  44.451   4.893
79323W        W44583  37.967   0.909  14.840
79324W        W44584  23.000  36.618  14.377
79325W        W44585  14.045  21.988  13.813
79326W        W44586  23.646  40.477  14.398
79327W        W44587  31.534  14.434  11.846
79328W        W44588  36.419  29.222  11.133
79329W        W44589  23.650  39.583  14.937
79330W        W44590  26.940  15.632  11.105
79331W        W44591  15.736  41.498  13.976
79332W        W44592  29.444  36.931  12.338
79333W        W44593   2.136   3.312   2.632
79334W        W44594  34.127  42.845   4.957
79335W        W44595  40.845  26.092   3.323
79336W        W44596   4.723   5.907  11.220
79337W        W44597  44.193   0.697  14.802
79338W        W44598  39.346   6.511   4.116
79339W        W44599  13.144  32.352  10.483
79340W        W44600  10.243  14.802   3.296
79341W        W44601  10.241  43.982   4.068
79342W        W44602  43.742   0.378  14.948
79343W        W44603   1.692   4.626  14.374
79344W        W44604  42.824  13.465  10.920
79345W        W44605  39.513  34.251   0.076
79346W        W44606  30.577  24.439   5.082
79347W        W44607  22.293   2.332   3.715
79348W        W44608   8.668  12.420   0.927
79349W        W44609  40.913   1.171   0.977
79350W        W44610  40.050   1.263   0.934
79351W        W44611  40.475  35.058  14.713
79352W        W44612   9.240  41.760   3.640
79353W        W44613  31.695  28.900  13.254
79354W        W44614   1.320  26.710   1.409
79355W        W44615  40.353  34.121  13.384
79356W        W44616  41.344   7.759   3.169
79357W        W44617  39.465  16.641   2.750
79358W        W44618  27.866  37.394   3.711
79359W        W44619  43.718  34.110   2.875
79360W        W44620  17.691  16.183  12.413
79361W        W44621   2.369  43.879  14.935
79362W        W44622  15.586  28.147  14.762
79363W        W44623  35.422  19.493   3.130
79364W        W44624  34.537  27.233  12.515
79365W        W44625   5.045  42.496  14.433
79366W        W44626   7.740  34.197   0.552
79367W        W44627  32.160  35.065  13.533
79368W        W44628  38.790   3.781  11.592
79369W        W44629  19.621  34.093   0.187
79370W        W44630   6.398  40.940  13.674
79371W        W44631  16.088  21.905   3.564
79372W        W44632  34.567  34.449  13.983
79373W        W44633  12.149  11.776   1.239
79374W        W44634   0.899  40.125  14.728
79375W        W44635  12.330  42.027   2.274
79376W        W44636  39.004  33.762   1.480
79377W        W44637  27.611  28.897   3.657
79378W        W44638  29.403  17.184   0.664
79379W        W44639  11.398  12.340  11.099
79380W        W44640  31.370  10.103  11.002
79381W        W44641   0.704  39.581   4.286
79382W        W44642  13.075  28.964  11.496
79383W        W44643  25.899  23.125  11.684
79384W        W44644  28.666  21.655   3.830
79385W        W44645  13.591  39.333   3.318
79386W        W44646  38.415   9.867   0.951
79387W        W44647  39.466  43.148  13.241
79388W        W44648   4.732  20.498  13.874
79389W        W44649   5.424  38.406  14.038
79390W        W44650  38.363  20.831  14.618
79391W        W44651   5.383   4.722  11.186
79392W        W44652  36.757   5.382   0.443
79393W        W44653  44.951  18.604   2.751
79394W        W44654   1.862  42.355   1.958
79395W        W44655  27.229  37.809  14.782
79396W        W44656  11.660  34.111   4.359
79397W        W44657  20.048   5.191  14.414
79398W        W44658  14.117  37.400  13.524
79399W        W44659  33.660   2.831   4.887
79400W        W44660  16.561  29.669   3.656
79401W        W44661  10.498  11.679   3.395
79402W        W44662  40.010  15.954   2.829
79403W        W44663  34.123  37.513   1.253
79404W        W44664  26.171  37.650   0.431
79405W        W44665   6.414  19.453  13.887
79406W        W44666  23.163  33.364   0.406
79407W        W44667  23.285  42.776   2.154
79408W        W44668  26.111  33.636   1.277
79409W        W44669   9.159   6.367   1.389
79410W        W44670  27.161   7.430   2.689
79411W        W44671  18.666   7.685  11.497
79412W        W44672  33.372  31.835   0.945
79413W        W44673  42.268  21.648   1.876
79414W        W44674   8.450   9.880   2.788
79415W        W44675  44.436  13.005  14.360
79416W        W44676   9.509   6.615  11.413
79417W        W44677   8.846  42.877   0.603
79418W        W44678  25.098   9.459   4.047
79419W        W44679  33.793  44.359   2.759
79420W        W44680   8.439  25.963   3.171
79421W        W44681  22.969   8.976   3.718
79422W        W44682  18.958  23.362   1.330
79423W        W44683  20.742   7.155  14.072
79424W        W44684  24.325  42.922  12.680
79425W        W44685  26.116  11.939  12.839
79426W        W44686  38.798  24.002  13.430
79427W        W44687  40.921  37.907   0.032
79428W        W44688  18.044  21.957   0.097
79429W        W44689  13.738  13.263  14.164
79430W        W44690   9.781  36.585   4.612
79431W        W44691   1.011   1.884  13.586
79432W        W44692  23.799  20.087  11.637
79433W        W44693  23.858  26.226  11.155
79434W        W44694  17.031  34.493  14.960
79435W        W44695   2.731  13.807  14.014
79436W        W44696  28.263   5.322  12.411
79437W        W44697  26.660   4.776  13.911
79438W        W44698   0.053   4.698   2.417
79439W        W44699   1.598  16.101  11.907
79440W        W44700   9.108   1.087  12.925
79441W        W44701  30.554  33.612   4.596
79442W        W44702  24.550  19.732   0.779
79443W        W44703   8.875  30.664  12.832
79444W        W44704  25.040  22.560   0.163
79445W        W44705   6.847  28.162  13.062
79446W        W44706  30.709  18.545   4.573
79447W        W44707  17.262  40.825  14.496
79448W        W44708  19.574   2.569   0.990
79449W        W44709  17.243  16.084  13.420
79450W        W44710  37.170  20.110   2.051
79451W        W44711  27.551  16.115   4.125
79452W        W44712  23.237  17.947  12.161
79453W        W44713  28.384  31.050   0.903
79454W        W44714   6.223  38.236  10.580
79455W        W44715  11.298  36.229  12.079
79456W        W44716  17.803  28.672   1.282
79457W        W44717  31.596  33.169   3.312
79458W        W44718  30.107  31.797  13.749
79459W        W44719  19.563  16.113   3.220
79460W        W44720  39.078  15.097  12.024
79461W        W44721   2.879   5.130   2.323
79462W        W44722  21.240  13.534  14.867
79463W        W44723  12.190   8.393   2.292
79464W        W44724  34.940  20.721   2.624
79465W        W44725  29.221  27.965   0.945
79466W        W44726  26.490  22.615  13.160
79467W        W44727  44.289  33.964   4.555
79468W        W44728  14.083   8.836  14.858
79469W        W44729  11.200  28.265  12.243
79470W        W44730  26.592  22.804  11.180
79471W        W44731   9.492  37.475  10.307
79472W        W44732  34.513  31.700   0.322
79473W        W44733  18.637  37.606  10.555
79474W        W44734  10.186  43.237  12.996
79475W        W44735  25.104   3.268  11.976
79476W        W44736  24.484  12.257   2.306
79477W        W44737  37.739  38.519  11.990
79478W        W44738   5.307  10.340   4.081
79479W        W44739   6.163  27.911  13.349
79480W        W44740   4.990  38.041   4.288
79481W        W44741  41.047  33.256   0.477
79482W        W44742  39.608  42.758   0.364
79483W        W44743  32.355  31.178   3.342
79484W        W44744  39.494  44.898   4.315
79485W        W44745   2.698  27.841  14.559
79486W        W44746  43.502  36.312   2.412
79487W        W44747  16.025  22.849  11.193
79488W        W44748  18.742  13.120  10.717
79489W        W44749  31.746  24.009   2.793
79490W        W44750   1.864  19.596  14.990
79491W        W44751   6.397  16.591  11.196
79492W        W44752  24.597   7.133  12.005
79493W        W44753  18.112  31.461   1.366
79494W        W44754  34.921  43.443   1.345
79495W        W44755  41.749  30.444   2.617
79496W        W44756  21.269  21.072  12.749
79497W        W44757  12.788  24.035  12.841
79498W        W44758  16.566  24.113  12.021
79499W        W44759  20.205  39.386   0.314
79500W        W44760   4.015   8.278  13.086
79501W        W44761   6.125  12.811   1.941
79502W        W44762   7.362   5.635   0.931
79503W        W44763  26.933  35.819   0.868
79504W        W44764   7.572  29.617  11.056
79505W        W44765  20.334  10.308  11.585
79506W        W44766  40.417  39.865   4.771
79507W        W44767   1.522  12.107   5.377
79508W        W44768  30.306   6.582   4.853
79509W        W44769  34.109  11.946  13.943
79510W        W44770  17.002   2.526   1.615
79511W        W44771  35.676  37.754   1.011
79512W        W44772  20.063   3.714   3.714
79513W        W44773  27.343  17.176   1.298
79514W        W44774   0.736  16.950   1.387
79515W        W44775  22.349  28.912   2.959
79516W        W44776   8.396  20.790   2.716
79517W        W44777  21.041   3.792   2.628
79518W        W44778  27.935  11.918   4.717
79519W        W44779  15.427  24.209   0.517
79520W        W44780  38.353  44.539  13.083
79521W        W44781  25.393   9.161   2.030
79522W        W44782  33.288   1.452   2.466
79523W        W44783   0.522  27.736   3.622
79524W        W44784  10.763   2.261  11.038
79525W        W44785  44.503  36.476   3.303
79526W        W44786  37.423  10.573   2.747
79527W        W44787   4.732  33.116   2.386
79528W        W44788  22.752  31.036  13.863
79529W        W44789  29.092  16.129   2.486
79530W        W44790  35.525  26.072  11.277
79531W        W44791   8.353  23.670   4.064
79532W        W44792  34.811  39.431   1.287
79533W        W44793   2.274   0.403   0.864
79534W        W44794  11.843  28.220   2.930
79535W        W44795  32.424  35.230   2.887
79536W        W44796  14.141  31.684   4.496
79537W        W44797  23.178  31.702   1.442
79538W        W44798   4.255  32.023   4.996
79539W        W44799  37.261   7.291  10.698
79540W        W44800  32.147   9.710  14.718
79541W        W44801  26.750  10.214   5.043
79542W        W44802  34.080  15.782   2.297
79543W        W44803  21.952   6.857   3.770
79544W        W44804  32.445  38.363  13.516
79545W        W44805   3.743  23.515  13.337
79546W        W44806  26.149  32.697   2.838
79547W        W44807  44.557  10.791  12.893
79548W        W44808  24.004  21.466   3.783
79549W        W44809  10.359  32.856   2.755
79550W        W44810  36.420  44.238  13.004
79551W        W44811  37.823  19.108  11.120
79552W        W44812  44.789  13.398  13.109
79553W        W44813  18.899  32.145  13.668
79554W        W44814  14.204  41.617   0.959
79555W        W44815  28.381  22.983   4.500
79556W        W44816  16.476  11.637  12.448
79557W        W44817  32.159  44.383  11.069
79558W        W44818  30.849  43.923   3.707
79559W        W44819  17.118   1.316   4.914
79560W        W44820  13.296   5.300  13.381
79561W        W44821  23.731  16.110  12.532
79562W        W44822  39.493   8.301  13.965
79563W        W44823   1.998  40.367   0.375
79564W        W44824  39.981  14.626  13.360
79565W        W44825  18.515  16.143   0.405
79566W        W44826   3.788  22.697  11.136
79567W        W44827  36.453   6.409   2.682
79568W        W44828  11.168  17.269   4.611
79569W        W44829  43.823  18.191   3.342
79570W        W44830  39.800  40.012   2.858
79571W        W44831  40.146  30.472  10.577
79572W        W44832  13.864  18.303  13.298
79573W        W44833  10.682  13.716  13.080
79574W        W44834  23.778  32.403  13.902
79575W        W44835   3.298  16.018  12.008
79576W        W44836   0.517   3.533  12.004
79577W        W44837   2.927   5.333  11.690
79578W        W44838  33.486  26.198  10.726
79579W        W44839  37.461  32.935  12.371
79580W        W44840  42.791  32.561   0.675
79581W        W44841   9.388   7.900  13.327
79582W        W44842  44.437   7.715  11.269
79583W        W44843  34.816  24.853   1.204
79584W        W44844   4.590  22.649  11.649
79585W        W44845  13.574  18.787   3.078
79586W        W44846  25.937  41.108   0.479
79587W        W44847  11.555  40.327   5.052
79588W        W44848  33.145  30.966  11.052
79589W        W44849  13.251  18.979  14.757
79590W        W44850  26.070  21.913  13.965
79591W        W44851  22.584  10.212   3.648
79592W        W44852  20.146   1.232  14.068
79593W        W44853  28.795  36.193  11.194
79594W        W44854  44.369  38.375  11.467
79595W        W44855  40.283   1.728  14.768
79596W        W44856  10.130  16.024   1.278
79597W        W44857  37.525  33.104   3.130
79598W        W44858  33.929  22.154   2.280
79599W        W44859  20.035  39.389  12.481
79600W        W44860   3.687  44.762  12.995
79601W        W44861   1.998  38.421  11.165
79602W        W44862  32.330  21.896   9.831
79603W        W44863  26.679  43.433  13.836
79604W        W44864  10.244   2.217   0.939
79605W        W44865  37.006   1.685   2.243
79606W        W44866  17.658   0.757  12.376
79607W        W44867  39.446  25.604   1.328
79608W        W44868  16.357   6.811   0.482
79609W        W44869  19.081  25.947   3.553
79610W        W44870  34.058  43.810   4.576
79611W        W44871   4.519  13.254  11.881
79612W        W44872  17.390  27.608   0.799
79613W        W44873   3.463  10.469  14.270
79614W        W44874   0.372  35.299   0.028
79615W        W44875   6.944  13.784   4.258
79616W        W44876   2.847  18.316   3.134
79617W        W44877  39.026  38.029  10.059
79618W        W44878  32.521  20.764   4.187
79619W        W44879  39.047  35.712  12.676
79620W        W44880  13.742  32.926   3.891
79621W        W44881  11.707   4.676   3.246
79622W        W44882  21.025  40.055  13.752
79623W        W44883  19.531  11.965   3.782
79624W        W44884   8.112  30.383   3.705
79625W        W44885  34.611   3.906  10.251
79626W        W44886  12.736  40.008   4.602
79627W        W44887  40.877  40.990  13.326
79628W        W44888  39.875  20.295  10.680
79629W        W44889  10.864  11.211  13.471
79630W        W44890  35.286   1.766   1.250
79631W        W44891  30.519  16.987   3.630
79632W        W44892  38.381  18.726   3.000
79633W        W44893   9.090  15.513   4.998
79634W        W44894   1.215  20.638  14.538
79635W        W44895  25.757   0.828  13.148
79636W        W44896   4.995  13.081   1.392
79637W        W44897  19.456  32.984   3.197
79638W        W44898   6.784  15.232  11.932
79639W        W44899  37.408   6.832   3.275
79640W        W44900  28.584   0.241  14.755
79641W        W44901  31.030  14.568   0.748
79642W        W44902  16.443   6.901  14.957
79643W        W44903  34.667  30.254  10.811
79644W        W44904  28.507  27.240   5.507
79645W        W44905  28.827  42.988   3.379
79646W        W44906  40.841  43.280  10.808
79647W        W44907  28.130  12.342  11.256
79648W        W44908  32.307  15.344   3.771
79649W        W44909   8.370  28.214  10.766
79650W        W44910  26.935   2.650  14.135
79651W        W44911  32.011  33.495  10.846
79652W        W44912  42.338  42.954  13.444
79653W        W44913  25.410  40.368   5.020
79654W        W44914  22.424   0.312  12.408
79655W        W44915  20.694  40.606  14.295
79656W        W44916  14.018  32.609  12.908
79657W        W44917  24.599  32.961   4.425
79658W        W44918  14.841  14.538  10.820
79659W        W44919  33.312  28.003   2.991
79660W        W44920   5.291  35.938  10.656
79661W        W44921   6.151  37.473  11.967
79662W        W44922   4.243  36.286  12.936
79663W        W44923  21.395  15.668  13.494
79664W        W44924  15.099  32.594  11.984
79665W        W44925  12.636  31.070  11.432
79666W        W44926   5.432  17.997  11.000
79667W        W44927  29.499  13.130  13.418
79668W        W44928  43.022   5.169   2.695
79669W        W44929  10.825  12.662  13.440
79670W        W44930  22.992  43.265   0.425
79671W        W44931   8.768  41.768  13.333
79672W        W44932  14.786   6.130  10.712
79673W        W44933  18.116  17.842   0.891
79674W        W44934   6.204  30.646  13.253
79675W        W44935  19.091  21.124   0.962
79676W        W44936  11.276   3.580  11.204
79677W        W44937  24.092  12.069  12.959
79678W        W44938  29.105  15.659  13.783
79679W        W44939   1.770  24.248   5.392
79680W        W44940  17.085  32.626   1.265
79681W        W44941  12.150  27.135  13.038
79682W        W44942  43.865   9.961  11.311
79683W        W44943  27.419   3.637   0.307
79684W        W44944  20.052  29.517  11.296
79685W        W44945  11.551   3.392  10.544
79686W        W44946  14.146  16.479   2.410
79687W        W44947  20.664   5.976   2.126
79688W        W44948  23.733  25.624   3.965
79689W        W44949  42.881  25.188  13.274
79690W        W44950   0.349  31.350  13.024
79691W        W44951  15.732   7.789  12.618
79692W        W44952  42.477  40.632   0.166
79693W        W44953  20.702  17.801   1.877
79694W        W44954  41.695  33.013  11.175
79695W        W44955  37.341  39.491   3.764
79696W        W44956  18.312   6.001  10.986
79697W        W44957  18.350   6.655   4.717
79698W        W44958  16.911   5.597  14.974
79699W        W44959  27.600  32.499  12.694
79700W        W44960  44.873   0.224  11.068
79701W        W44961  19.140  15.890  14.651
79702W        W44962  27.746  39.288  12.551
79703W        W44963   6.708  10.653  11.987
79704W        W44964  26.407  25.105  11.133
79705W        W44965   0.223  32.282   2.653
79706W        W44966  37.339   8.397   0.338
79707W        W44967  35.557  30.494  13.775
79708W        W44968  14.101  42.955  13.422
79709W        W44969   0.947  12.802   2.365
79710W        W44970  44.903   8.449  12.929
79711W        W44971  19.407   2.751   3.284
79712W        W44972  44.313  25.875  10.183
79713W        W44973  29.626  41.558  11.518
79714W        W44974  32.916  41.878  13.546
79715W        W44975   7.731  15.347   4.670
79716W        W44976  21.014  16.015  11.084
79717W        W44977  37.800  22.223  14.265
79718W        W44978   2.240   2.799  14.992
79719W        W44979  27.699  28.653   1.261
79720W        W44980   6.752  21.723   1.861
79721W        W44981   9.442   8.938  14.328
79722W        W44982  29.582   3.877   1.496
79723W        W44983   7.263  39.796   3.097
79724W        W44984  34.106  23.033  11.557
79725W        W44985  42.794  31.691   4.588
79726W        W44986   4.828  24.190  11.606
79727W        W44987  18.992   4.860  10.798
79728W        W44988  10.629  25.532   0.300
79729W        W44989   1.195   9.699  14.867
79730W        W44990  43.901  17.217   4.612
79731W        W44991  13.562  28.609   1.451
79732W        W44992  29.194  13.853   3.648
79733W        W44993  22.211  38.094  14.481
79734W        W44994  26.039  33.075  14.052
79735W        W44995  43.861  29.292  10.759
79736W        W44996  34.972   6.494  11.821
79737W        W44997  21.639  28.975  11.984
79738W        W44998   5.660   8.216   3.700
79739W        W44999  17.081  32.093   2.149
79740W        W45000  15.763  41.273   2.288
79741W        W45001  18.139  27.954  13.025
79742W        W45002   7.787   6.194   2.181
79743W        W45003   2.957  44.203  13.026
79744W        W45004  10.763  32.508  12.189
79745W        W45005  40.041  44.753  12.461
79746W        W45006  22.708  42.347  11.633
79747W        W45007   8.606  33.294  12.238
79748W        W45008  44.173  16.375  14.846
79749W        W45009  42.337  22.139   1.135
79750W        W45010  31.674  15.655  14.797
79751W        W45011  23.750  39.412  10.668
79752W        W45012   0.001  29.628   3.140
79753W        W45013  28.887  33.372   4.576
79754W        W45014  14.750  44.681   4.271
79755W        W45015   1.865  37.798   0.297
79756W        W45016  40.112   3.931   3.597
79757W        W45017  13.144  17.700  13.413
79758W        W45018   8.490  12.558  11.690
79759W        W45019  35.376   9.630  11.386
79760W        W45020  39.555   4.356   3.146
79761W        W45021  24.662  40.091   2.758
79762W        W45022  20.079  36.595  12.186
79763W        W45023  30.451  31.461  13.546
79764W        W45024   1.636  32.597   4.678
79765W        W45025  13.622  19.652   3.613
79766W        W45026   6.098  41.507   1.462
79767W        W45027   4.482   0.194   0.649
79768W        W45028  10.426   2.294   0.037
79769W        W45029   6.730  17.893   2.374
79770W        W45030  36.968   2.990   0.776
79771W        W45031  19.066  40.827   0.808
79772W        W45032  27.916  14.632   4.267
79773W        W45033  38.511   9.107  11.198
79774W        W45034  40.125  42.785  11.196
79775W        W45035  18.060  10.056  12.576
79776W        W45036  38.507   2.290   0.914
79777W        W45037  31.639  18.908   2.412
79778W        W45038  43.006   1.718  12.531
79779W        W45039  32.668  14.130  14.936
79780W        W45040  14.543  31.635   3.344
79781W        W45041  15.309  29.050  12.897
79782W        W45042  38.940  26.055  12.522
79783W        W45043   7.829  43.330   0.164
79784W        W45044   1.038  11.227   3.517
79785W        W45045  19.338  31.014   3.484
79786W        W45046  42.514  42.949  10.553
79787W        W45047  23.601  14.313  14.462
79788W        W45048  13.657  32.011  13.352
79789W        W45049  34.170  16.481   4.030
79790W        W45050  42.721  15.826   5.058
79791W        W45051  14.676  27.202   0.500
79792W        W45052  24.024  20.818  12.204
79793W        W45053  42.547  43.465   1.899
79794W        W45054  36.641  37.154   2.709
79795W        W45055  16.650  30.995   4.141
79796W        W45056  36.667  42.787   0.359
79797W        W45057   3.173  21.810  11.611
79798W        W45058  37.577   0.231   2.604
79799W        W45059   2.390   1.980  11.950
79800W        W45060  25.546  39.813   2.733
79801W        W45061   2.280  13.115   3.718
79802W        W45062   9.788  10.763  11.171
79803W        W45063  14.170  28.856  13.963
79804W        W45064  22.816  32.388  14.097
79805W        W45065  33.649  22.825  14.874
79806W        W45066  27.459  13.033   2.700
79807W        W45067  28.377  17.491   3.132
79808W        W45068  38.852   0.874   1.727
79809W        W45069  13.909  34.461   0.960
79810W        W45070  33.546   3.830   3.219
79811W        W45071  35.332  29.625  10.832
79812W        W45072  34.500  44.094   2.422
79813W        W45073  27.131  43.868  10.631
79814W        W45074   9.606   8.978  11.231
79815W        W45075  29.498  19.579  14.433
79816W        W45076   1.837   5.449   0.895
79817W        W45077  27.652  40.632  11.984
79818W        W45078  44.224  12.269   2.237
79819W        W45079  15.683   6.751  12.927
79820W        W45080  38.580  27.519  12.437
79821W        W45081  26.750   1.886  12.440
79822W        W45082  22.138   5.813  13.297
79823W        W45083  23.257  19.990   0.237
79824W        W45084  31.084   4.453   2.223
79825W        W45085  36.557  26.251  12.514
79826W        W45086  34.871  23.605   0.633
79827W        W45087  33.766  41.765   4.063
79828W        W45088  40.472  43.438   3.330
79829W        W45089  33.507  22.810  10.783
79830W        W45090   3.644  40.867  11.524
79831W        W45091  30.334  12.918   1.184
79832W        W45092  16.585  38.901  13.345
79833W        W45093  29.581   9.980   4.099
79834W        W45094  22.485  40.876  12.045
79835W        W45095  31.974  38.592  13.061
79836W        W45096  11.536  33.776   0.397
79837W        W45097  43.196  44.009   1.277
79838W        W45098  34.131  35.311  10.734
79839W        W45099  22.197  40.520   2.084
79840W        W45100  26.643  39.274  12.985
79841W        W45101  27.532  13.325   2.236
79842W        W45102   2.794  37.368   3.372
79843W        W45103  10.177  17.307   1.871
79844W        W45104  26.000  43.817   1.779
79845W        W45105  36.800   3.460   3.234
79846W        W45106  19.677  44.293  14.420
79847W        W45107  21.976  25.589  13.827
79848W        W45108  44.738   2.244   2.685
79849W        W45109   1.923  34.934   2.313
79850W        W45110  32.518  39.513   0.722
79851W        W45111  12.563  40.461  13.086
79852W        W45112   0.922  20.188  12.068
79853W        W45113  23.061  21.599   2.265
79854W        W45114  13.195  32.202   1.823
79855W        W45115   4.639  42.985   2.377
79856W        W45116   7.579  42.876  12.280
79857W        W45117  39.391   7.093  10.841
79858W        W45118  16.886  25.417  12.900
79859W        W45119   5.441  40.329  14.264
79860W        W45120  28.951   1.798  11.943
79861W        W45121   8.849  43.107  14.520
79862W        W45122  32.047  32.593  12.577
79863W        W45123  40.146  21.318  10.811
79864W        W45124  27.138  11.685  11.193
79865W        W45125   2.252  26.281  10.332
79866W        W45126  23.243  15.110  10.864
79867W        W45127  18.744  28.608  13.275
79868W        W45128  33.748  19.613   5.146
79869W        W45129  13.887  32.163   4.586
79870W        W45130  18.066  40.261   2.319
79871W        W45131   8.845  37.059   2.881
79872W        W45132  34.894   4.653  10.232
79873W        W45133   2.972  10.123  14.273
79874W        W45134  28.681  19.790  11.972
79875W        W45135  13.758  18.785   4.164
79876W        W45136  40.848  11.063   2.307
79877W        W45137   6.322  28.928  12.321
79878W        W45138  31.119   6.499   3.712
79879W        W45139  40.720  33.800   2.723
79880W        W45140   2.391  19.556  12.885
79881W        W45141  28.942  16.436   4.330
79882W        W45142   3.520   6.277   3.999
79883W        W45143  30.937  34.771  14.586
79884W        W45144  33.395   3.310  12.613
79885W        W45145  43.345   9.956   9.810
79886W        W45146   6.939  19.740  14.063
79887W        W45147  37.547   3.943  10.295
79888W        W45148  30.928  29.356  10.685
79889W        W45149  42.402   9.000   0.968
79890W        W45150  30.894  35.726  14.947
79891W        W45151   6.198  43.579  14.031
79892W        W45152  22.713  25.580  11.905
79893W        W45153  36.473  35.355   1.905
79894W        W45154   5.299  42.380  10.331
79895W        W45155   9.365  11.155   0.413
79896W        W45156   3.418  25.904  13.467
79897W        W45157  44.988  21.282  13.384
79898W        W45158   1.177  32.666   2.689
79899W        W45159  14.606  41.212   2.840
79900W        W45160   9.909  34.230   3.675
79901W        W45161  13.130  21.590   2.696
79902W        W45162  31.168  28.182  11.613
79903W        W45163   1.454  14.784   2.721
79904W        W45164   5.331  18.756  13.631
79905W        W45165  27.964  20.191   3.599
79906W        W45166  42.888  30.067   0.208
79907W        W45167  34.208  16.199  10.717
79908W        W45168  33.674  44.066   0.573
79909W        W45169  10.696  23.560   1.290
79910W        W45170  11.249  27.138  11.663
79911W        W45171  23.704   3.081  14.300
79912W        W45172  33.609  21.264   0.840
79913W        W45173  21.191   6.839   0.527
79914W        W45174  15.866  39.229   0.234
79915W        W45175  36.027  42.413   3.893
79916W        W45176  21.767  11.290  11.036
79917W        W45177  27.908  23.027   3.696
79918W        W45178  15.073  24.974   4.700
79919W        W45179  26.931  33.584  14.757
79920W        W45180  43.439  22.045   1.243
79921W        W45181  35.305  13.670  10.751
79922W        W45182  44.569  37.031   1.873
79923W        W45183  38.160  36.343  12.322
79924W        W45184   0.938   2.348  14.686
79925W        W45185  33.801   7.698  11.175
79926W        W45186  38.904  24.932  10.673
79927W        W45187  32.622  21.704  14.940
79928W        W45188   1.284  30.117  11.411
79929W        W45189   0.199  18.057  12.946
79930W        W45190  11.279  37.031  13.936
79931W        W45191  21.277   5.406  12.122
79932W        W45192  11.781  42.006   0.835
79933W        W45193  32.176  41.953  11.138
79934W        W45194  13.375  12.657   4.138
79935W        W45195  24.266   3.749   1.404
79936W        W45196  24.945  28.747  10.925
79937W        W45197  10.593   9.349   3.702
79938W        W45198  16.859  16.297   4.992
79939W        W45199  37.566   1.295  13.379
79940W        W45200  24.626  29.007   1.637
79941W        W45201  38.954  44.983   2.900
79942W        W45202  13.043   5.735  13.553
79943W        W45203  23.633   8.679  10.583
79944W        W45204  24.197  25.246  13.883
79945W        W45205   9.109  10.294  11.549
79946W        W45206  21.351  38.359  13.607
79947W        W45207  41.289   0.211  13.558
79948W        W45208  32.045   0.348  13.142
79949W        W45209  41.896   2.982  11.572
79950W        W45210  19.289  40.873  14.006
79951W        W45211  10.622  43.286   1.869
79952W        W45212  14.733   5.928  11.189
79953W        W45213   5.831   9.397  10.687
79954W        W45214   3.281  16.337  12.994
79955W        W45215  35.432   8.698  14.066
79956W        W45216  20.730   5.478   3.205
79957W        W45217  28.076  19.769   3.295
79958W        W45218  33.107   2.528   0.750
79959W        W45219  34.944  11.321   4.523
79960W        W45220  41.164  26.654   2.777
79961W        W45221  40.701  44.892  11.584
79962W        W45222  10.820   2.383   4.560
79963W        W45223   7.944  11.782  11.225
79964W        W45224  25.717  18.379   1.325
79965W        W45225  38.371   8.739   4.131
79966W        W45226  26.120  29.912  11.494
79967W        W45227  33.472  39.767   4.593
79968W        W45228  35.099  19.704   1.796
79969W        W45229  25.409  39.958  10.218
79970W        W45230   4.215   1.189  12.003
79971W        W45231  34.831   2.206  11.740
79972W        W45232  43.954   1.057   0.418
79973W        W45233  43.270  25.696  12.660
79974W        W45234  31.415  27.039   0.850
79975W        W45235  36.992  35.443  10.697
79976W        W45236   1.868  42.293  13.879
79977W        W45237   9.771  32.042  10.698
79978W        W45238  28.046  14.129  13.805
79979W        W45239  18.941  12.666   5.089
79980W        W45240  12.822  15.340  10.803
79981W        W45241  18.179   0.393  11.723
79982W        W45242  19.307   4.509  11.584
79983W        W45243  14.876  19.564   1.334
79984W        W45244  10.378  44.925  13.679
79985W        W45245  11.763  10.839   2.718
79986W        W45246  41.717  30.642  13.813
79987W        W45247  18.863  10.714   2.523
79988W        W45248  27.095  34.559  11.608
79989W        W45249   5.314  12.158   3.405
79990W        W45250  22.959  11.889   2.268
79991W        W45251  32.689  22.937  14.527
79992W        W45252  41.383  21.215   2.206
79993W        W45253  17.273   4.915  14.912
79994W        W45254  29.093  20.576  14.888
79995W        W45255  34.156  44.264   4.144
79996W        W45256  43.791  27.939   4.136
79997W        W45257  19.423  26.140   0.488
79998W        W45258   4.331  11.850   1.197
79999W        W45259  35.382  38.417   3.415
80000W        W45260   8.831  14.225   0.322
80001W        W45261  10.390   4.997   4.204
80002W        W45262  12.228  43.357   4.512
80003W        W45263  38.176  29.907  14.680
80004W        W45264  16.379   6.678  11.924
80005W        W45265   8.681  31.980  14.949
80006W        W45266   9.612  34.797   1.782
80007W        W45267   4.796  24.862   4.603
80008W        W45268  32.061  29.375  14.820
80009W        W45269   3.453  21.958  11.170
80010W        W45270  25.987  23.281  12.170
80011W        W45271  35.072  42.628  12.986
80012W        W45272   4.791  28.130   4.321
80013W        W45273  24.009  16.772  14.593
80014W        W45274   9.917  15.034   0.285
80015W        W45275  28.111   2.752   3.212
80016W        W45276  33.634  34.966   1.899
80017W        W45277  12.644  31.890  13.443
80018W        W45278  38.523   4.961   0.732
80019W        W45279  12.601  13.658   4.528
80020W        W45280   2.004  44.753   3.620
80021W        W45281   3.236   2.672   4.274
80022W        W45282  14.880  26.048  12.689
80023W        W45283   0.485  22.591   0.790
80024W        W45284   7.203  37.890   0.493
80025W        W45285   4.462  18.727  11.126
80026W        W45286  36.495  13.804  12.485
80027W        W45287  14.193  39.576  14.859
80028W        W45288   8.744  27.384   2.133
80029W        W45289  22.063  43.486  11.510
80030W        W45290  40.469  11.179  13.899
80031W        W45291  38.412  17.320   0.991
80032W        W45292  29.528  25.911  11.070
80033W        W45293  39.885  27.857  12.414
80034W        W45294   9.660  14.324  14.483
80035W        W45295  37.414   2.214   2.720
80036W        W45296  43.355   4.425  14.848
80037W        W45297  11.064  10.905   1.259
80038W        W45298   0.151  41.122  14.909
80039W        W45299  18.548  28.281  12.915
80040W        W45300  10.149  23.981  12.743
80041W        W45301  38.945  30.718  14.873
80042W        W45302  23.085  29.047  11.134
80043W        W45303  33.137   1.976  11.025
80044W        W45304  19.699  39.953   1.721
80045W        W45305  30.150  32.101  11.480
80046W        W45306  29.633  28.249  11.585
80047W        W45307  15.380   9.252  10.491
80048W        W45308   5.220   5.858   2.372
80049W        W45309  28.606  13.716   2.256
80050W        W45310  12.441  39.624   2.323
80051W        W45311  23.942   1.607   4.188
80052W        W45312   3.503  20.651   0.337
80053W        W45313  16.280  31.453  11.542
80054W        W45314  42.588   9.740   3.295
80055W        W45315   0.427  44.518   3.542
80056W        W45316   9.238  11.939  13.914
80057W        W45317   1.500  21.577  14.291
80058W        W45318   3.436   8.698   0.804
80059W        W45319  39.693  12.627  12.594
80060W        W45320   2.313  11.476   2.745
80061W        W45321  36.052  32.551  12.117
80062W        W45322  10.324  16.353   3.166
80063W        W45323  34.005   7.485   0.094
80064W        W45324  41.393  18.632   1.231
80065W        W45325  19.678   9.323   1.813
80066W        W45326  39.889  41.802  13.385
80067W        W45327  22.751  35.570   2.956
80068W        W45328  17.072  12.276   2.390
80069W        W45329  11.303   4.621  10.197
80070W        W45330   0.810  37.954  10.755
80071W        W45331   5.775  44.084   4.847
80072W        W45332  30.726   3.899  12.351
80073W        W45333  42.893  23.885   2.691
80074W        W45334  25.144  44.417   1.769
80075W        W45335  13.652   1.883   3.891
80076W        W45336   1.410   8.138   3.597
80077W        W45337  33.198  17.364  13.833
80078W        W45338  13.360   9.688  13.613
80079W        W45339  40.414  43.004  14.281
80080W        W45340  19.507  17.637  13.612
80081W        W45341  11.182  33.618  12.608
80082W        W45342  38.517  44.369   0.981
80083W        W45343  16.625  44.884   0.960
80084W        W45344  39.861   1.871  14.375
80085W        W45345   1.476  21.953   3.149
80086W        W45346   0.008  15.579   1.801
80087W        W45347   1.483  18.030   2.858
80088W        W45348   5.908  43.683   1.393
80089W        W45349  27.437  24.540   4.139
80090W        W45350   7.674  30.826  10.463
80091W        W45351  39.707  36.822  14.975
80092W        W45352  14.366  31.012  11.648
80093W        W45353  19.730  21.682  11.671
80094W        W45354  29.723   9.457   4.168
80095W        W45355   4.388   1.432  14.181
80096W        W45356   2.379  32.077   2.354
80097W        W45357  10.335  28.919  14.560
80098W        W45358  41.682  23.637   3.345
80099W        W45359   7.225  28.963   1.733
80100W        W45360  11.780  39.029   2.235
80101W        W45361  29.634  41.086   0.772
80102W        W45362  19.563  42.332  13.779
80103W        W45363  35.427  35.322  12.838
80104W        W45364  26.522  35.516   1.729
80105W        W45365   2.870  40.831   2.613
80106W        W45366  22.996  34.956  14.370
80107W        W45367  34.888  10.199   0.875
80108W        W45368   4.899  17.245   2.348
80109W        W45369   4.399  36.455   2.391
80110W        W45370  38.477  22.848   3.844
80111W        W45371  31.353  10.126   4.582
80112W        W45372  30.927   7.482   3.643
80113W        W45373  34.025  18.857  13.501
80114W        W45374   4.783   8.443  12.607
80115W        W45375   1.900  31.378  12.412
80116W        W45376   8.251  37.489  11.132
80117W        W45377  19.243  39.601  11.026
80118W        W45378  36.285  30.557  11.675
80119W        W45379  21.106  26.423   0.700
80120W        W45380  19.773  27.156   1.735
80121W        W45381  24.474  38.097   1.305
80122W        W45382  22.567   9.882  11.784
80123W        W45383  19.620  41.461   0.375
80124W        W45384  10.440  41.936   0.173
80125W        W45385  43.791   4.821  10.786
80126W        W45386  31.915  37.249  12.930
80127W        W45387  30.464  43.940   0.732
80128W        W45388  28.925  41.459   1.590
80129W        W45389  21.065  32.900   3.730
80130W        W45390  21.044  18.570   4.190
80131W        W45391  43.248  34.358   3.358
80132W        W45392  33.739   5.923  13.997
80133W        W45393   3.380  39.931   4.096
80134W        W45394   5.424   2.469  10.672
80135W        W45395   5.458  36.661  11.211
80136W        W45396   0.404   2.206   4.182
80137W        W45397  44.917   7.459  12.099
80138W        W45398   2.597   8.385   4.223
80139W        W45399  27.615  31.511  14.486
80140W        W45400  44.495  39.172   4.553
80141W        W45401  43.558   5.354  10.690
80142W        W45402  35.947  27.275  14.514
80143W        W45403  22.038   8.421  10.752
80144W        W45404  22.217  32.115  12.423
80145W        W45405  12.601  30.390  12.825
80146W        W45406  40.192  19.829   2.714
80147W        W45407   4.390  15.343  10.680
80148W        W45408  10.529  43.681  13.017
80149W        W45409  36.949  23.981  14.980
80150W        W45410  32.090  26.697  10.635
80151W        W45411  32.060  24.421   2.920
80152W        W45412  41.484  40.307  14.280
80153W        W45413  20.732  12.381   3.615
80154W        W45414  42.360   3.190  13.893
80155W        W45415   6.740  39.839  13.259
80156W        W45416  34.111  32.632  12.573
80157W        W45417  29.757  43.779   0.205
80158W        W45418   4.705   8.309   1.013
80159W        W45419  28.065  41.757   3.118
80160W        W45420  31.179  35.911   0.964
80161W        W45421  23.450  34.799  12.329
80162W        W45422  30.010  32.827   2.541
80163W        W45423  13.354  19.259  11.263
80164W        W45424   7.313   2.989  14.006
80165W        W45425  10.595  12.889   0.672
80166W        W45426  15.361  12.379   1.339
80167W        W45427  43.490   0.167  14.326
80168W        W45428  15.607  38.001  13.717
80169W        W45429  18.666  36.297   4.836
80170W        W45430  15.625  26.976  13.366
80171W        W45431  17.672   8.833   1.821
80172W        W45432  26.852  40.030   3.122
80173W        W45433  25.577   4.269   4.533
80174W        W45434  11.172  33.106   2.430
80175W        W45435   9.356  31.767  10.001
80176W        W45436  30.475  32.968   4.611
80177W        W45437   8.963   2.768   2.071
80178W        W45438  36.477  21.647   2.301
80179W        W45439  38.510  36.325   0.219
80180W        W45440   4.170  16.362  11.940
80181W        W45441   7.777  12.152   3.333
80182W        W45442   0.594  37.122   1.861
80183W        W45443  19.287  16.022  12.519
80184W        W45444  28.096  36.780  13.906
80185W        W45445   2.883  43.224   2.001
80186W        W45446  35.554  44.664   2.556
80187W        W45447  19.228  39.009   1.662
80188W        W45448   5.297  13.856  14.781
80189W        W45449  36.732  35.796  11.020
80190W        W45450  14.249  34.687  13.781
80191W        W45451  13.336  38.123   0.288
80192W        W45452  40.081  14.111   2.242
80193W        W45453  41.345  16.859   3.994
80194W        W45454  25.428  11.162  14.391
80195W        W45455   8.665  17.680   0.672
80196W        W45456  31.158  30.135   0.334
80197W        W45457  16.182  13.139  10.725
80198W        W45458  12.904  16.642  12.841
80199W        W45459  26.442  10.646   4.948
80200W        W45460   3.920   3.014   3.721
80201W        W45461  38.512  13.756  12.005
80202W        W45462  21.303  33.913   3.682
80203W        W45463  25.211   2.188  14.253
80204W        W45464   3.773   1.522   3.256
80205W        W45465  17.098  11.177  10.375
80206W        W45466  35.893  35.256   0.860
80207W        W45467  21.338   3.248   1.650
80208W        W45468  41.935  37.921  11.635
80209W        W45469   2.194  41.953   3.113
80210W        W45470  12.700  11.794   3.243
80211W        W45471  20.744  25.451  14.449
80212W        W45472  24.517  34.369   4.530
80213W        W45473  31.117  23.251   0.934
80214W        W45474  11.683  35.627   2.774
80215W        W45475   7.383   1.811  13.249
80216W        W45476  27.286  19.062   3.366
80217W        W45477  14.425  32.845  13.329
80218W        W45478  36.838   4.864   0.423
80219W        W45479   8.961   2.241  11.974
80220W        W45480   5.728  21.838   1.700
80221W        W45481  15.058  28.503   3.158
80222W        W45482  34.474  11.812  12.552
80223W        W45483  38.346  11.837   3.234
80224W        W45484  42.177   1.682  14.616
80225W        W45485  41.472  28.229  11.529
80226W        W45486   2.864   0.571  11.607
80227W        W45487  27.897   5.577   4.395
80228W        W45488  39.333   7.250   1.851
80229W        W45489  24.599  43.203  13.967
80230W        W45490  22.342  16.342   4.637
80231W        W45491  27.579  33.946  14.031
80232W        W45492  10.868  15.252   4.190
80233W        W45493  14.207  15.196   4.248
80234W        W45494  28.889  39.391   3.740
80235W        W45495  38.889  27.715   3.775
80236W        W45496   8.236  11.866   3.996
80237W        W45497  25.957   4.226  12.583
80238W        W45498  42.426   1.720   2.812
80239W        W45499   9.257  10.888   1.742
80240W        W45500   8.205  16.986   1.839
80241W        W45501  37.638  37.510  12.534
80242W        W45502  21.328  18.259  14.835
80243W        W45503  13.292  34.956  11.444
80244W        W45504  23.169  36.956   4.913
80245W        W45505   5.733  31.149  11.911
80246W        W45506  17.292  41.797   4.122
80247W        W45507  36.004  22.614   0.851
80248W        W45508  33.336  19.983  12.099
80249W        W45509  36.450  18.045  11.401
80250W        W45510  27.470  35.824   0.738
80251W        W45511   6.291  27.449   1.779
80252W        W45512  27.593   7.780   3.019
80253W        W45513  19.545  14.912   2.799
80254W        W45514  21.638  44.255   2.671
80255W        W45515   0.802   1.229   4.685
80256W        W45516  27.589   1.956  11.971
80257W        W45517  44.843  27.562   1.703
80258W        W45518  33.928  26.233  14.013
80259W        W45519  31.564  33.151   2.401
80260W        W45520   3.014  33.132  14.530
80261W        W45521  24.685  16.893   3.642
80262W        W45522   2.991  16.540  12.172
80263W        W45523  13.702  19.687   0.033
80264W        W45524  22.283  13.391   4.538
80265W        W45525  35.385  24.302   0.948
80266W        W45526  39.364   8.031   1.490
80267W        W45527  22.789  31.954  10.557
80268W        W45528  11.407  44.893  13.347
80269W        W45529  19.054  25.716  13.006
80270W        W45530  35.624  24.627  14.075
80271W        W45531  37.368  23.466  11.463
80272W        W45532   6.370  26.272  13.325
80273W        W45533  19.528   3.750   0.026
80274W        W45534  21.191  41.446  14.366
80275W        W45535  14.614  21.226   0.670
80276W        W45536  32.861   3.870  13.790
80277W        W45537  39.418  14.148   0.728
80278W        W45538  35.692  37.549  12.257
80279W        W45539  34.370  28.096  14.909
80280W        W45540  21.655  24.407  12.475
80281W        W45541  40.624  42.893  11.163
80282W        W45542  41.838   5.346  14.663
80283W        W45543  24.757  33.421  13.446
80284W        W45544   9.675  14.103   2.817
80285W        W45545  32.033  37.837   3.179
80286W        W45546   0.223   3.731  11.440
80287W        W45547  13.823  15.036  12.984
80288W        W45548  35.478  40.723   3.134
80289W        W45549  10.107  35.265   1.314
80290W        W45550  17.299  23.740  13.779
80291W        W45551  20.259  29.504   0.816
80292W        W45552   8.095  10.875   2.601
80293W        W45553   5.749  42.594  14.814
80294W        W45554  33.576  16.669  14.284
80295W        W45555  17.309  12.086  10.051
80296W        W45556  40.631   2.410  14.455
80297W        W45557  35.596  44.027  12.017
80298W        W45558  18.221   6.825   3.818
80299W        W45559  36.482  42.434  12.840
80300W        W45560  28.412  31.724   0.009
80301W        W45561  15.302   6.211   0.916
80302W        W45562  31.266  43.800  11.212
80303W        W45563  20.525  41.365  11.917
80304W        W45564   6.003  30.785   4.275
80305W        W45565  13.516   8.137   4.070
80306W        W45566   6.935  36.324   3.813
80307W        W45567  44.377  33.141   0.715
80308W        W45568   9.058   5.526   2.346
80309W        W45569  20.150   1.623   3.209
80310W        W45570  31.617  23.984  14.273
80311W        W45571  19.200  28.313   1.998
80312W        W45572  19.840   5.233   0.758
80313W        W45573  36.101  17.726   2.675
80314W        W45574  17.208  14.139   0.328
80315W        W45575  42.845   0.486   3.388
80316W        W45576  23.159  10.036   4.917
80317W        W45577  16.978  28.448  11.159
80318W        W45578   4.920  32.242  12.159
80319W        W45579  44.154  33.626  10.540
80320W        W45580  22.506  10.337  14.866
80321W        W45581  14.849  23.622  13.823
80322W        W45582  33.330  43.451   2.291
80323W        W45583  21.493  28.523  10.386
80324W        W45584  19.273  22.952   4.247
80325W        W45585   7.405  21.284   0.882
80326W        W45586  41.394  37.854  13.242
80327W        W45587  13.147  10.652   9.487
80328W        W45588  27.010  29.248   4.065
80329W        W45589  27.614   2.006  14.293
80330W        W45590  28.494   9.300  12.976
80331W        W45591   9.309   2.421   2.308
80332W        W45592  23.039   5.704  12.182
80333W        W45593   9.436   8.842  13.445
80334W        W45594  22.556  29.132  10.598
80335W        W45595  17.732  30.892   1.146
80336W        W45596  29.945  20.000   3.102
80337W        W45597  28.367  30.977   2.728
80338W        W45598   2.052  22.600  10.336
80339W        W45599  37.477   4.248  11.543
80340W        W45600  44.621  36.445   4.774
80341W        W45601  35.831  21.128   4.638
80342W        W45602  14.551  22.565   0.756
80343W        W45603  36.578   4.421  12.584
80344W        W45604  20.509  12.466  14.452
80345W        W45605  44.970   8.972   5.145
80346W        W45606   9.869  31.462   2.820
80347W        W45607  32.527  37.729  14.875
80348W        W45608   9.805   9.323   0.294
80349W        W45609  17.351   8.152   0.481
80350W        W45610  41.612   8.904  12.895
80351W        W45611  15.784  39.292  13.817
80352W        W45612  30.142  24.583   4.033
80353W        W45613   5.859  34.339  10.979
80354W        W45614  25.966   7.285  11.667
80355W        W45615  34.041  29.181  11.033
80356W        W45616  28.407   8.705  13.607
80357W        W45617  22.812  13.165   0.823
80358W        W45618  10.878  27.160  14.464
80359W        W45619   8.647  26.455  12.067
80360W        W45620   9.132   8.978   1.214
80361W        W45621  13.016  14.722  13.329
80362W        W45622  19.910  42.535   3.169
80363W        W45623  13.162   8.808   1.675
80364W        W45624   8.124  38.015  13.973
80365W        W45625  20.413  30.227  11.916
80366W        W45626   5.276   1.716  12.040
80367W        W45627  28.521   7.974   3.560
80368W        W45628   2.015  41.792  13.831
80369W        W45629  24.658  20.852  11.085
80370W        W45630  35.765   5.368   0.473
80371W        W45631   1.375  11.675  14.755
80372W        W45632  34.097  14.749  11.371
80373W        W45633  38.732  11.767   1.847
80374W        W45634   5.612  40.512  13.424
80375W        W45635  22.540  20.665  14.934
80376W        W45636   2.086  16.888  12.600
80377W        W45637   0.404   6.288  13.977
80378W        W45638   1.885   4.454  13.447
80379W        W45639  11.212  16.202  14.073
80380W        W45640   0.852   7.376   5.001
80381W        W45641   1.630   6.400   3.555
80382W        W45642  32.716  42.681   1.195
80383W        W45643  21.952  23.669  11.908
80384W        W45644  43.284  42.343   2.337
80385W        W45645  19.729  41.048  12.550
80386W        W45646  22.567   3.407  11.531
80387W        W45647   8.156   6.665   3.269
80388W        W45648  24.774   8.821  12.087
80389W        W45649  37.737  22.298   0.765
80390W        W45650  19.012  12.314   0.382
80391W        W45651  36.865   4.263  13.425
80392W        W45652  19.220  32.061   0.013
80393W        W45653   8.488  26.570  14.265
80394W        W45654  37.471  13.397  11.200
80395W        W45655  22.150  37.126   5.121
80396W        W45656   3.888  42.761   3.412
80397W        W45657  31.609  33.677  12.253
80398W        W45658  31.152  26.450  11.998
80399W        W45659  18.699  31.811  11.427
80400W        W45660  10.475  28.394   3.615
80401W        W45661  18.685  12.698  14.000
80402W        W45662  29.212  20.131   3.998
80403W        W45663  30.047  13.092   4.608
80404W        W45664  37.043  20.663  11.116
80405W        W45665  36.114  15.074  12.241
80406W        W45666  36.374  19.955   1.737
80407W        W45667  32.405  30.672   3.249
80408W        W45668  11.502  40.981  13.993
80409W        W45669  28.592  19.177   4.688
80410W        W45670  30.385   3.380   1.691
80411W        W45671   2.831  36.813  12.375
80412W        W45672   3.460  26.689  10.815
80413W        W45673  33.377  24.629  13.385
80414W        W45674  30.106  41.414  10.752
80415W        W45675  44.406  25.052   0.843
80416W        W45676  37.893  31.138   0.429
80417W        W45677   5.153   6.873  12.490
80418W        W45678   1.493  38.291  12.564
80419W        W45679  14.642   8.155   0.383
80420W        W45680  41.819  22.014   1.076
80421W        W45681  34.214   9.815  14.747
80422W        W45682  25.401  28.999   2.663
80423W        W45683  12.042  11.736  13.280
80424W        W45684  30.435   6.644  11.568
80425W        W45685   2.032  20.634   1.248
80426W        W45686   9.206  21.242  10.833
80427W        W45687  44.020  38.449  11.844
80428W        W45688  11.266  31.805   3.659
80429W        W45689  29.648  39.349   4.882
80430W        W45690   7.112  25.671   0.095
80431W        W45691   7.465  42.576  12.780
80432W        W45692  23.243  22.717   1.225
80433W        W45693   5.268  21.733  12.347
80434W        W45694  42.775  18.446   1.706
80435W        W45695   1.453  28.047  14.219
80436W        W45696  25.519  26.268  12.100
80437W        W45697  19.555  41.584  14.338
80438W        W45698  24.393  26.146   4.314
80439W        W45699  25.616   8.316   4.050
80440W        W45700  25.546  41.118   3.662
80441W        W45701  40.092   6.823  11.977
80442W        W45702  27.215  32.095  14.904
80443W        W45703  24.037  34.503  14.304
80444W        W45704  28.925   7.580  11.160
80445W        W45705   7.140  34.297   3.075
80446W        W45706  30.985   0.503   2.198
80447W        W45707  29.092  34.054   3.705
80448W        W45708  33.075  21.080  13.944
80449W        W45709   5.379   9.111   3.655
80450W        W45710  10.236  23.517  11.470
80451W        W45711  30.163  17.248   3.317
80452W        W45712  31.318  13.066   1.735
80453W        W45713   9.433  36.849  11.451
80454W        W45714  44.016   3.383   5.042
80455W        W45715  22.966  19.001   0.353
80456W        W45716  43.541  20.157  13.673
80457W        W45717  29.816  14.737  11.640
80458W        W45718  28.107  33.625   3.084
80459W        W45719  10.782   4.953  12.458
80460W        W45720  30.430  29.138  14.454
80461W        W45721  25.081  10.659   4.758
80462W        W45722   2.278   0.939  12.847
80463W        W45723   2.561  11.570  11.034
80464W        W45724  38.675  25.425  11.978
80465W        W45725   3.678  20.098   2.295
80466W        W45726  37.409  31.104   3.564
80467W        W45727  31.513  19.231  11.835
80468W        W45728  39.789   8.853  11.312
80469W        W45729   1.470  27.051   4.508
80470W        W45730  41.699  28.591   1.034
80471W        W45731  37.605  35.117   4.213
80472W        W45732  38.897   1.026   5.382
80473W        W45733  24.647  20.349  10.922
80474W        W45734   3.885  38.356   3.175
80475W        W45735  10.294  34.070   4.307
80476W        W45736  11.923  28.641   2.282
80477W        W45737  20.743  27.880  12.892
80478W        W45738  12.193  22.600  13.258
80479W        W45739  38.923  44.322  14.951
80480W        W45740  30.033   5.877  11.680
80481W        W45741  35.106   9.911  12.794
80482W        W45742  37.389  24.747   2.193
80483W        W45743  15.640   2.750  14.378
80484W        W45744  11.908  35.453  11.983
80485W        W45745  18.753  21.835   3.229
80486W        W45746  44.093  16.761   1.917
80487W        W45747  29.024  22.035   3.844
80488W        W45748   4.444  35.559   0.149
80489W        W45749  10.292  13.674   1.774
80490W        W45750  38.724  42.156   5.274
80491W        W45751   1.731  33.935   0.801
80492W        W45752  23.536  10.588   3.791
80493W        W45753   4.628  20.715   3.528
80494W        W45754   7.297  12.838  14.411
80495W        W45755   2.141  23.541   4.989
80496W        W45756  36.521  16.540  11.487
80497W        W45757  24.615  40.551   0.921
80498W        W45758  24.618  14.292   3.693
80499W        W45759  17.241  37.320  14.829
80500W        W45760  23.596  16.504   2.705
80501W        W45761  31.023   9.375  12.358
80502W        W45762  43.820  31.318   4.141
80503W        W45763   3.684  19.015  11.127
80504W        W45764  30.377  16.640  11.109
80505W        W45765  14.748  10.106  11.448
80506W        W45766   1.046  37.282   1.175
80507W        W45767   0.234  21.354  13.846
80508W        W45768   5.715  23.081   4.090
80509W        W45769  18.795  13.496   2.935
80510W        W45770  41.059   5.845  14.506
80511W        W45771  12.067  33.797  13.628
80512W        W45772  15.266   3.273  10.651
80513W        W45773  13.168   0.944  13.785
80514W        W45774   5.496  20.840   0.430
80515W        W45775  20.699  23.728  11.559
80516W        W45776   6.193  33.463   2.669
80517W        W45777  36.403  30.803  13.927
80518W        W45778   3.338  12.384  13.314
80519W        W45779   6.711  26.378   4.082
80520W        W45780  12.851   9.700  14.485
80521W        W45781  11.609   2.777   2.223
80522W        W45782  42.029  26.178   0.393
80523W        W45783  13.704  29.446  14.769
80524W        W45784  22.228  38.245  13.288
80525W        W45785  13.192  30.644   4.036
80526W        W45786   3.911  38.755   2.332
80527W        W45787  22.762  17.608  14.951
80528W        W45788   3.838   2.453   1.154
80529W        W45789  32.459  36.658   3.823
80530W        W45790   5.449  26.178   3.244
80531W        W45791   6.217  14.604   0.440
80532W        W45792   6.465  41.986  12.911
80533W        W45793   4.693  17.395  14.014
80534W        W45794  20.044  29.761  10.421
80535W        W45795   3.861  24.153   2.594
80536W        W45796  42.801  40.191   0.744
80537W        W45797  42.518  15.637   2.335
80538W        W45798  40.448  41.347  13.923
80539W        W45799  18.515  18.571   2.805
80540W        W45800   7.705  34.328   9.981
80541W        W45801  32.081   1.230  14.523
80542W        W45802  24.500  43.854  11.894
80543W        W45803  19.672   0.440  13.916
80544W        W45804  12.902  40.329  11.484
80545W        W45805  23.508  33.800   1.278
80546W        W45806  22.128  33.731   4.220
80547W        W45807  26.279  43.345  14.153
80548W        W45808   5.504  39.592  12.007
80549W        W45809  41.828  11.596  11.271
80550W        W45810   3.190  20.479   0.733
80551W        W45811  34.704  24.913   3.110
80552W        W45812  32.619   1.554  12.482
80553W        W45813  23.127   9.513   4.863
80554W        W45814   7.760  31.994  10.737
80555W        W45815  42.992  23.178   3.314
80556W        W45816  12.750  43.544   2.786
80557W        W45817  24.597  40.608  10.464
80558W        W45818   7.183  21.254  12.028
80559W        W45819  15.440  41.524  14.420
80560W        W45820  40.087  18.296   3.202
80561W        W45821  11.917  44.730  13.308
80562W        W45822  17.543   6.224   3.849
80563W        W45823   2.387   6.357  13.316
80564W        W45824  10.355  12.888   2.972
80565W        W45825   4.177  19.571  12.329
80566W        W45826  27.907  14.104  13.315
80567W        W45827  40.929  43.843   1.407
80568W        W45828  28.159   7.385  14.297
80569W        W45829  20.145  32.449   3.727
80570W        W45830  27.051   3.529   1.896
80571W        W45831  28.293  29.925   2.294
80572W        W45832  15.814  32.896  13.869
80573W        W45833  23.857  20.314   3.374
80574W        W45834   8.015  39.486   3.424
80575W        W45835  35.548   5.309  11.229
80576W        W45836  22.455  39.434  14.598
80577W        W45837   6.869   3.158  10.655
80578W        W45838  43.162  41.037   1.158
80579W        W45839  38.626  29.407  12.492
80580W        W45840   1.309   6.420  12.508
80581W        W45841   9.170  44.260   2.893
80582W        W45842  19.594  22.020   3.448
80583W        W45843  26.085  44.885   1.882
80584W        W45844  41.001  28.419   1.429
80585W        W45845  13.995  16.751  12.517
80586W        W45846  23.726  37.148  13.985
80587W        W45847  18.049  17.748   0.370
80588W        W45848   7.938  38.183   4.157
80589W        W45849  22.732  31.430  11.716
80590W        W45850  11.832   1.839   0.890
80591W        W45851  33.609  38.797  12.879
80592W        W45852  13.419  30.152  10.980
80593W        W45853   0.219  44.285   1.495
80594W        W45854  17.743   0.349   2.392
80595W        W45855  20.221   0.455  12.043
80596W        W45856  16.602  17.544  11.003
80597W        W45857   4.528  42.162   4.170
80598W        W45858   0.791  16.522  14.514
80599W        W45859   0.127  41.319   3.412
80600W        W45860  16.611  36.443  14.004
80601W        W45861  31.103  25.448  12.763
80602W        W45862  15.807   5.020   2.549
80603W        W45863  39.077  14.903  11.098
80604W        W45864  20.036  12.999  13.761
80605W        W45865  13.697   8.412   2.146
80606W        W45866   9.328   6.881  14.294
80607W        W45867  37.763  28.770  14.247
80608W        W45868  18.792  34.471  13.961
80609W        W45869  19.716  44.914   2.239
80610W        W45870   4.433   8.330   1.452
80611W        W45871  24.570   9.779  11.603
80612W        W45872   4.240  28.534   0.775
80613W        W45873  13.700  19.200  14.929
80614W        W45874  26.008  15.800  12.183
80615W        W45875  30.604  30.420  13.570
80616W        W45876  43.293  24.729  12.958
80617W        W45877  18.868  41.389  12.433
80618W        W45878   9.352   1.681   0.775
80619W        W45879   0.730  22.660   3.284
80620W        W45880  41.422  10.456   1.762
80621W        W45881  26.621   6.415  10.286
80622W        W45882   3.445  17.186  13.480
80623W        W45883  44.518  21.674   0.278
80624W        W45884   4.400  18.157   3.633
80625W        W45885   3.470  41.511  14.393
80626W        W45886   9.310   0.613   0.817
80627W        W45887  14.777  37.321  12.941
80628W        W45888  15.951  14.812  10.704
80629W        W45889  10.933   3.075   4.912
80630W        W45890  34.366  38.455   1.219
80631W        W45891  16.065  23.591   4.606
80632W        W45892  41.424   2.341   3.155
80633W        W45893  35.950   6.434  13.160
80634W        W45894  43.030  20.789  13.990
80635W        W45895  35.147   5.771   4.809
80636W        W45896  33.694   8.337   2.723
80637W        W45897  31.648  44.927   3.675
80638W        W45898  17.496   5.873   2.753
80639W        W45899   2.694   8.051   2.887
80640W        W45900  18.872  29.343  13.982
80641W        W45901   4.960  43.837  10.458
80642W        W45902  39.537  27.023   3.999
80643W        W45903  20.861  12.892   0.869
80644W        W45904  43.978  11.668  13.942
80645W        W45905  41.237  13.240   4.145
80646W        W45906  26.634  37.906  12.622
80647W        W45907  36.934  14.356  14.887
80648W        W45908  29.516  36.140  14.895
80649W        W45909  11.679  10.602   3.675
80650W        W45910   4.141  28.622  14.936
80651W        W45911   8.132   3.991   0.339
80652W        W45912  32.443  11.265   3.899
80653W        W45913  22.503   6.404  14.452
80654W        W45914   1.802  14.824   2.197
80655W        W45915   7.403  31.348   3.256
80656W        W45916  44.729  44.487   2.230
80657W        W45917  18.601   7.173  10.677
80658W        W45918  42.415  36.415  13.934
80659W        W45919  38.522  36.589  12.599
80660W        W45920  20.769  39.712  12.987
80661W        W45921  31.400  12.405  12.936
80662W        W45922   4.861  26.649  13.118
80663W        W45923  11.295  31.124  12.485
80664W        W45924  38.045  19.077   2.420
80665W        W45925  28.509  12.223   4.215
80666W        W45926   0.410  21.000  13.517
80667W        W45927  31.133  39.999   1.954
80668W        W45928  38.050  29.524  11.482
80669W        W45929  16.350   8.970   3.399
80670W        W45930  13.830   6.856   0.873
80671W        W45931   1.535   7.269   0.870
80672W        W45932  18.898   2.750   0.414
80673W        W45933  35.597  25.445  13.021
80674W        W45934  40.712  26.913   1.286
80675W        W45935   9.359  39.638   0.379
80676W        W45936   2.846  21.721   2.392
80677W        W45937  29.191   4.695   3.760
80678W        W45938  40.776   4.453  13.828
80679W        W45939  14.586  29.375  13.318
80680W        W45940  26.062   4.406   4.017
80681W        W45941  11.283  40.483  10.701
80682W        W45942  24.247  39.725   0.979
80683W        W45943  14.215  22.499  12.140
80684W        W45944  33.840  18.100  11.538
80685W        W45945  25.769  44.065  12.577
80686W        W45946  38.084   8.690  10.456
80687W        W45947  20.020  19.459  11.605
80688W        W45948  17.671  40.652  11.025
80689W        W45949  24.981  42.777   3.692
80690W        W45950  38.710  13.094   1.464
80691W        W45951   5.440  28.659  12.061
80692W        W45952  38.973  28.162   0.441
80693W        W45953  37.225  19.517   9.870
80694W        W45954  16.885  25.228  14.980
80695W        W45955  16.516  37.433  14.289
80696W        W45956   8.288   5.905  13.938
80697W        W45957   8.676   1.732  10.887
80698W        W45958   2.733  29.111   1.220
80699W        W45959  44.702   9.276   5.513
80700W        W45960   1.777  43.680   2.774
80701W        W45961   0.426  37.530   0.722
80702W        W45962  29.530   9.114  14.425
80703W        W45963  44.885  28.466  12.046
80704W        W45964   7.384  11.708   3.082
80705W        W45965  26.967  41.913   2.724
80706W        W45966  27.615  30.010   0.054
80707W        W45967  40.839  31.403   1.079
80708W        W45968  12.535  16.792  13.550
80709W        W45969   4.976  39.000   3.580
80710W        W45970  36.682  43.400  11.092
80711W        W45971  29.668   9.954   5.042
80712W        W45972  38.117  34.931   0.887
80713W        W45973   0.956   1.900  14.946
80714W        W45974  44.227   3.884  12.689
80715W        W45975  15.668  16.149  10.590
80716W        W45976  26.328  43.071   3.757
80717W        W45977   2.300   8.896  13.048
80718W        W45978  17.289  21.162   1.478
80719W        W45979  14.012  12.635  11.981
80720W        W45980  20.356  23.541  10.704
80721W        W45981  10.734  43.167   1.312
80722W        W45982  18.977  43.920   0.417
80723W        W45983  14.688  11.399   3.197
80724W        W45984  19.136  41.056  10.732
80725W        W45985   9.835  19.260  11.954
80726W        W45986   0.020  26.641   4.714
80727W        W45987  42.169  31.833  13.943
80728W        W45988  17.631  37.284  10.649
80729W        W45989  23.105  38.262   0.360
80730W        W45990  38.069  12.435  14.469
80731W        W45991  28.754  24.958   5.428
80732W        W45992  27.935  40.089   3.997
80733W        W45993  32.520   9.292  12.645
80734W        W45994  13.766   2.307  14.593
80735W        W45995  30.496  38.527  11.551
80736W        W45996  18.770  16.280   3.642
80737W        W45997  28.047  29.004   1.906
80738W        W45998   5.110  37.145  12.029
80739W        W45999  41.392  28.915   2.942
80740W        W46000  30.634  35.434  12.013
80741W        W46001  15.327  36.518   0.844
80742W        W46002  34.861  24.575  14.460
80743W        W46003  24.741  42.995   1.100
80744W        W46004  36.601   6.250  14.884
80745W        W46005  15.611  17.858   3.685
80746W        W46006   3.330  24.499   0.964
80747W        W46007  39.949  41.453  12.059
80748W        W46008  29.916   1.505   1.284
80749W        W46009  20.103  28.427   1.879
80750W        W46010  39.320  12.111   3.259
80751W        W46011  26.644  40.986   3.109
80752W        W46012  19.236   8.720   4.488
80753W        W46013  15.509  35.394   0.798
80754W        W46014   2.848  30.502  12.422
80755W        W46015  12.831  24.068  12.318
80756W        W46016  32.649  36.848  13.498
80757W        W46017  27.038  31.068   1.687
80758W        W46018   1.939  40.080   4.576
80759W        W46019  43.439  10.677   3.727
80760W        W46020  24.840  41.912  14.704
80761W        W46021  21.473   8.372  11.453
80762W        W46022  28.920  18.302  12.096
80763W        W46023  10.347  31.554  11.179
80764W        W46024  21.479   6.373  10.734
80765W        W46025  30.866  31.287  10.355
80766W        W46026  29.850  24.209   2.292
80767W        W46027  24.168  31.077   2.151
80768W        W46028  20.531   4.787  10.206
80769W        W46029  35.368   3.357  10.832
80770W        W46030  30.538   4.132   3.821
80771W        W46031  23.899  20.220   4.651
80772W        W46032  35.996  16.764  12.615
80773W        W46033  37.626   2.200   4.535
80774W        W46034  18.785  31.448  10.560
80775W        W46035   3.256   3.512  10.657
80776W        W46036  12.579  42.611  13.298
80777W        W46037   3.303  25.608  13.875
80778W        W46038  43.359  28.108   4.386
80779W        W46039  33.946  34.629  13.004
80780W        W46040  32.332  16.103   0.482
80781W        W46041   6.741   4.259  11.189
80782W        W46042  14.089  30.907   4.113
80783W        W46043  32.141  42.957  10.767
80784W        W46044  17.219  15.824   1.294
80785W        W46045   0.850  27.112   1.667
80786W        W46046  26.536  26.372   1.572
80787W        W46047  31.069   2.935  14.871
80788W        W46048  16.618  19.827   3.369
80789W        W46049  12.044  38.470  12.901
80790W        W46050  40.408   2.408  10.714
80791W        W46051  13.096  33.335   4.663
80792W        W46052  38.345  39.978   2.689
80793W        W46053  23.417   0.290  12.025
80794W        W46054  43.025  23.497   4.254
80795W        W46055   3.631   7.344  12.981
80796W        W46056  19.240  11.310  12.069
80797W        W46057   9.919  40.922   1.350
80798W        W46058  30.274  23.971  12.022
80799W        W46059  15.293  27.593   2.379
80800W        W46060  41.357  34.423  10.704
80801W        W46061  12.615  23.587   4.548
80802W        W46062  15.733  18.815  13.870
80803W        W46063  16.134  12.714  12.058
80804W        W46064  25.663  33.131  10.878
80805W        W46065  19.776  26.967   0.432
80806W        W46066   3.045  40.946  13.009
80807W        W46067  33.408  16.590  10.712
80808W        W46068  15.078  43.487   2.175
80809W        W46069  28.369  24.819   5.062
80810W        W46070  24.687  42.423   3.412
80811W        W46071  28.556  30.691   0.349
80812W        W46072  42.904  23.556  10.263
80813W        W46073  18.808  38.797  12.170
80814W        W46074   6.985  27.516  11.437
80815W        W46075  15.572  33.808  12.624
80816W        W46076  37.937  32.715  13.675
80817W        W46077   2.524   0.925  11.503
80818W        W46078   4.939   9.133   2.715
80819W        W46079   8.176  37.826   2.678
80820W        W46080   7.245  11.456  13.359
80821W        W46081  33.199   1.397   3.789
80822W        W46082   0.484  27.166   1.174
80823W        W46083  10.128  19.471  13.939
80824W        W46084  20.141   3.577   2.324
80825W        W46085   7.292   2.353   1.784
80826W        W46086  13.183  22.101   4.643
80827W        W46087  29.003  42.290   0.317
80828W        W46088  22.309  27.152   4.695
80829W        W46089  23.873  42.272  12.878
80830W        W46090  21.240  41.220   3.690
80831W        W46091  34.529  21.353  11.962
80832W        W46092  32.487  19.558  12.515
80833W        W46093  28.529  34.936  12.647
80834W        W46094  17.538  10.169   4.360
80835W        W46095  11.850  29.255   3.372
80836W        W46096  14.538  44.867   3.034
80837W        W46097  26.497  26.186  12.783
80838W        W46098  21.347  17.015  13.824
80839W        W46099  12.545  29.102  13.040
80840W        W46100  13.530  12.587  12.151
80841W        W46101  40.971   3.909   3.170
80842W        W46102  37.844  43.237   3.168
80843W        W46103  32.881  30.645  13.585
80844W        W46104   9.679   2.330   1.892
80845W        W46105  43.929  36.149  12.650
80846W        W46106  21.325  24.977  13.869
80847W        W46107  18.789   2.704  14.422
80848W        W46108  44.306  37.867  11.425
80849W        W46109  18.604   2.936  12.825
80850W        W46110  29.657  39.748   2.341
80851W        W46111  35.835  35.647  12.948
80852W        W46112  42.476  44.986   0.654
80853W        W46113  26.209   0.457  11.026
80854W        W46114  21.091  28.802   4.590
80855W        W46115  35.079  44.678   0.370
80856W        W46116  28.913  42.097   3.395
80857W        W46117  42.848  10.850  11.863
80858W        W46118  26.906  34.356   0.935
80859W        W46119  32.258  13.287   5.024
80860W        W46120  16.601  30.837   2.287
80861W        W46121  42.317  26.637   2.373
80862W        W46122  40.936  21.845  10.686
80863W        W46123  21.012  39.901   4.358
80864W        W46124  15.067  40.839   1.659
80865W        W46125   0.266  31.575  13.494
80866W        W46126  25.072   1.750  14.010
80867W        W46127  37.787  38.534  12.992
80868W        W46128   2.985  38.643  11.195
80869W        W46129  37.513  21.311   3.611
80870W        W46130  22.973   3.818  10.317
80871W        W46131  40.945  35.183   1.045
80872W        W46132   1.191   8.881  12.400
80873W        W46133  11.947  42.494   0.908
80874W        W46134  15.800  38.022   0.819
80875W        W46135  23.450  33.010   3.710
80876W        W46136  14.774  23.454  10.641
80877W        W46137  12.546   1.869  11.059
80878W        W46138  10.077  42.786  13.448
80879W        W46139  37.186  42.800   1.618
80880W        W46140  37.600  32.604  14.445
80881W        W46141  36.240  25.420  13.569
80882W        W46142   9.562  14.104   4.525
80883W        W46143  25.586   3.165   3.710
80884W        W46144  31.680   7.815  14.024
80885W        W46145  30.656   3.806   4.634
80886W        W46146  42.224   2.189   3.197
80887W        W46147  44.834  44.549   1.270
80888W        W46148   0.723  39.034  13.978
80889W        W46149   6.188  21.608  11.737
80890W        W46150  11.559  37.915   2.263
80891W        W46151  25.282  17.684   3.612
80892W        W46152   8.694   6.865  13.455
80893W        W46153  23.007  19.135   3.917
80894W        W46154   3.373   3.485  13.116
80895W        W46155  32.272  18.813  11.572
80896W        W46156   4.209   8.304   2.871
80897W        W46157  12.924   2.659   2.543
80898W        W46158  26.805   0.193  13.845
80899W        W46159  42.379  30.384  11.980
80900W        W46160  19.349  24.331   0.266
80901W        W46161  21.144  38.652   2.211
80902W        W46162  19.576  11.409   3.855
80903W        W46163  11.085   4.875  11.487
80904W        W46164   4.486  18.726  13.661
80905W        W46165  30.682  41.923   4.821
80906W        W46166   1.043   7.500  12.457
80907W        W46167   3.014   9.927   0.404
80908W        W46168  44.777  43.954  11.404
80909W        W46169   2.398  39.364   4.475
80910W        W46170  43.204   3.660   3.618
80911W        W46171  38.032   9.445   2.210
80912W        W46172   2.368  19.378   1.870
80913W        W46173  43.743  15.601  12.438
80914W        W46174  27.979  42.530   1.396
80915W        W46175  35.411  26.090  12.149
80916W        W46176  27.105  16.786  13.734
80917W        W46177  22.611  14.758   2.328
80918W        W46178   3.688  35.919   0.127
80919W        W46179  21.969  43.330  13.891
80920W        W46180  24.924  37.462  14.320
80921W        W46181  21.521  25.434  12.532
80922W        W46182  20.019  22.529  14.451
80923W        W46183   8.648  10.268   3.753
80924W        W46184  31.636  10.730  13.257
80925W        W46185  43.527  15.027   3.704
80926W        W46186  13.362  42.786   0.830
80927W        W46187  35.851   5.685   2.791
80928W        W46188  42.279  41.498   4.015
80929W        W46189  34.004  13.436   3.996
80930W        W46190  11.851  19.477  12.610
80931W        W46191  43.482  26.766   1.167
80932W        W46192   4.088  42.344  11.660
80933W        W46193  39.107  14.404   1.405
80934W        W46194  44.064  25.722   1.785
80935W        W46195  10.989  41.683   0.259
80936W        W46196  37.423  30.256   3.545
80937W        W46197  26.120  21.132  13.272
80938W        W46198  11.611  12.627   0.422
80939W        W46199  43.478   0.777  11.245
80940W        W46200  14.201  32.648   3.887
80941W        W46201  34.739   7.283   2.316
80942W        W46202  32.515  44.163   1.577
80943W        W46203  42.008   2.262   0.946
80944W        W46204   5.409  12.742  10.644
80945W        W46205  34.345  22.980   2.200
80946W        W46206  28.011  25.400  11.209
80947W        W46207  13.899  32.704   3.445
80948W        W46208  38.621   0.554  13.104
80949W        W46209  23.985  11.401  14.340
80950W        W46210  16.975  31.224  12.425
80951W        W46211   4.407  40.708  12.392
80952W        W46212  27.967  12.354  13.737
80953W        W46213   2.382  44.396   2.829
80954W        W46214  16.404  30.960  10.646
80955W        W46215   0.111  26.843   3.667
80956W        W46216   8.657   0.275  11.222
80957W        W46217  22.995   0.458  14.760
80958W        W46218   4.233  42.004   1.918
80959W        W46219  40.206  29.133  13.062
80960W        W46220  16.277  10.231   2.772
80961W        W46221  13.826  10.821   2.338
80962W        W46222  14.173  35.668   2.290
80963W        W46223   0.747  39.790   1.598
80964W        W46224  28.049  31.436   3.504
80965W        W46225  16.718  21.436  14.882
80966W        W46226  17.033  12.677   1.425
80967W        W46227  37.097  36.813   2.845
80968W        W46228   0.217   8.509  12.486
80969W        W46229  39.735   9.361   2.721
80970W        W46230   9.338  29.560  13.291
80971W        W46231  32.027  43.398  11.070
80972W        W46232  35.170  39.386  11.201
80973W        W46233  28.867  31.074   1.794
80974W        W46234   3.459  20.594   1.182
80975W        W46235   5.411  26.135  14.028
80976W        W46236  24.713  14.082  13.850
80977W        W46237   5.420  37.129  13.388
80978W        W46238  30.026  38.835   3.234
80979W        W46239  18.636  21.221   5.249
80980W        W46240  21.395  30.930   0.283
80981W        W46241  33.201  19.431  10.032
80982W        W46242  23.129  23.043   2.729
80983W        W46243   9.063  30.038   2.744
80984W        W46244  20.634   6.722  14.860
80985W        W46245   0.566  19.525  14.835
80986W        W46246  12.650  24.466  13.116
80987W        W46247   1.032   6.131  10.150
80988W        W46248  30.502  26.730  11.679
80989W        W46249   7.332  37.777   1.934
80990W        W46250  26.829  28.013  10.276
80991W        W46251  43.817  31.979  13.403
80992W        W46252  18.362  18.244  12.128
80993W        W46253  22.287  17.163   0.976
80994W        W46254  10.296  44.212  11.531
80995W        W46255  20.034  42.417   0.343
80996W        W46256  32.071  36.257  12.158
80997W        W46257  44.497  40.026  14.020
80998W        W46258  44.437   8.974   5.183
80999W        W46259  36.181  12.761   4.188
81000W        W46260  44.677  26.850  11.120
81001W        W46261  44.230   8.293  14.868
81002W        W46262  26.897  28.406   1.868
81003W        W46263   0.707  20.949  13.093
81004W        W46264   8.779  44.426   1.096
81005W        W46265  38.559  38.987  14.128
81006W        W46266  23.119  14.131  14.366
81007W        W46267  11.093  30.360   1.727
81008W        W46268  13.589  38.013   3.106
81009W        W46269   3.830  16.871   1.731
81010W        W46270  27.670  43.984   3.326
81011W        W46271  31.627  11.906  12.131
81012W        W46272   1.980  12.381   0.218
81013W        W46273   7.238  42.117  14.163
81014W        W46274   1.483  34.931  13.572
81015W        W46275  28.522  42.591   2.265
81016W        W46276  43.317  19.072   4.213
81017W        W46277  19.824   9.794  12.333
81018W        W46278  36.276  21.508   0.750
81019W        W46279  21.044  31.039  13.013
81020W        W46280  44.482  18.798   3.677
81021W        W46281  39.623  17.833   0.984
81022W        W46282   4.865  13.163  13.724
81023W        W46283  18.897   7.486  11.903
81024W        W46284   4.407  34.027   2.587
81025W        W46285  15.230  31.539   2.246
81026W        W46286  43.428  30.156  11.568
81027W        W46287   8.962  21.239  11.502
81028W        W46288   1.850  35.660   0.540
81029W        W46289   7.105  37.539  13.573
81030W        W46290  28.920  25.654  12.489
81031W        W46291  28.997   9.458  12.073
81032W        W46292  36.456  10.093   0.396
81033W        W46293  33.985  10.271  14.776
81034W        W46294  42.289  11.095   3.900
81035W        W46295  11.680  24.802  12.936
81036W        W46296   5.340  32.134   2.496
81037W        W46297  31.492  15.731   3.660
81038W        W46298  41.057  44.287   0.753
81039W        W46299   1.445  22.857  11.637
81040W        W46300   7.827  10.287   3.144
81041W        W46301  22.186   5.468   1.061
81042W        W46302  20.780  19.075  14.475
81043W        W46303  27.675  17.483  11.180
81044W        W46304  35.861  40.964  14.012
81045W        W46305  11.130   8.189   0.794
81046W        W46306   0.990   0.485  11.178
81047W        W46307  36.389  42.973  14.946
81048W        W46308  22.768  40.450   3.668
81049W        W46309  23.024   5.116   1.633
81050W        W46310  12.511   4.450  13.069
81051W        W46311  31.593  36.647   0.956
81052W        W46312   9.775   5.045   0.028
81053W        W46313  23.677  19.669   0.364
81054W        W46314  10.280   3.984  11.965
81055W        W46315  22.052  21.663   2.342
81056W        W46316  11.346  31.484  11.085
81057W        W46317   7.246  33.105  11.602
81058W        W46318  18.836  33.962   0.908
81059W        W46319  33.232  27.757   4.474
81060W        W46320  33.555  40.288   3.863
81061W        W46321   2.224  43.559   2.344
81062W        W46322  17.539   5.218   3.706
81063W        W46323  16.338  32.875   4.105
81064W        W46324  32.947  35.567   1.775
81065W        W46325  44.013   5.898   4.781
81066W        W46326   4.004  17.163  11.636
81067W        W46327  37.250  10.715   2.276
81068W        W46328  11.187  31.959   0.984
81069W        W46329   0.546   8.291   2.178
81070W        W46330  26.013  27.227  14.328
81071W        W46331  44.246  31.772  11.185
81072W        W46332  13.251   2.538  11.557
81073W        W46333  39.152  43.822  11.515
81074W        W46334   7.177  30.163   2.568
81075W        W46335  35.032   5.291   2.401
81076W        W46336   0.909   5.970  14.793
81077W        W46337  19.328  17.461   1.930
81078W        W46338  41.020  24.636  12.045
81079W        W46339  30.385  11.185   3.338
81080W        W46340  32.322  30.678   4.769
81081W        W46341  26.521  14.369   0.865
81082W        W46342  31.229  36.748   0.356
81083W        W46343   2.790  40.222   1.622
81084W        W46344  14.986   0.646  11.038
81085W        W46345  26.624   6.236  13.866
81086W        W46346   7.366  25.574  10.506
81087W        W46347   2.057  38.152  14.349
81088W        W46348  38.921   0.085  12.014
81089W        W46349   1.775   6.791   1.823
81090W        W46350  34.842  44.972   2.174
81091W        W46351   4.277  34.846  10.646
81092W        W46352  28.503  28.129  13.375
81093W        W46353   7.363  27.552  14.870
81094W        W46354  12.745   6.724  14.838
81095W        W46355  39.366  38.042  11.848
81096W        W46356   0.791  27.373   3.955
81097W        W46357  27.210  44.335   1.915
81098W        W46358  30.403   0.681   0.330
81099W        W46359  32.829   8.814   2.757
81100W        W46360  18.459  35.903  12.257
81101W        W46361  33.182  29.382   0.700
81102W        W46362  12.363  36.071  12.437
81103W        W46363  15.738   9.150   0.774
81104W        W46364  27.961  37.723  12.550
81105W        W46365  41.236  40.754  12.000
81106W        W46366  37.810  16.977  14.349
81107W        W46367  22.633   3.899   5.220
81108W        W46368  26.733   5.426   1.224
81109W        W46369  41.430  12.883   3.390
81110W        W46370  13.978   1.813  10.821
81111W        W46371   9.580  32.623   2.703
81112W        W46372  12.549  36.306  13.267
81113W        W46373  42.005   7.457   4.196
81114W        W46374  41.340   1.501   4.713
81115W        W46375  20.690  33.621  12.858
81116W        W46376  43.504  33.084  13.950
81117W        W46377   4.828  39.308   3.109
81118W        W46378   8.996   9.353   0.837
81119W        W46379  27.915  30.696  13.970
81120W        W46380  34.366  24.953   2.716
81121W        W46381  10.353   3.764   2.753
81122W        W46382  33.705  14.964  11.062
81123W        W46383  18.102  30.491   1.129
81124W        W46384  42.420   4.083   4.687
81125W        W46385  44.334   2.980  10.851
81126W        W46386  20.382   9.893  10.925
81127W        W46387  25.101  37.466   1.036
81128W        W46388   7.306   7.953  10.624
81129W        W46389  43.328  23.718  13.852
81130W        W46390  40.128  13.367   4.550
81131W        W46391   2.059   8.396   4.240
81132W        W46392   7.283  14.869  14.366
81133W        W46393  23.356  12.158  14.237
81134W        W46394  29.627  24.465   4.032
81135W        W46395  25.140   3.181   1.304
81136W        W46396  30.380  32.413   3.807
81137W        W46397  23.549   2.416  12.522
81138W        W46398  44.503   7.241   2.743
81139W        W46399  15.011  12.898   1.863
81140W        W46400  35.061  17.991  12.499
81141W        W46401  15.278  37.492   4.191
81142W        W46402  26.980   3.875  13.984
81143W        W46403  38.218   4.849  12.469
81144W        W46404   5.025  29.493   2.500
81145W        W46405  38.778  23.003  11.859
81146W        W46406  26.942  31.042   0.676
81147W        W46407   4.258   3.983   4.610
81148W        W46408   4.855  18.475  11.344
81149W        W46409  39.961  34.471  13.294
81150W        W46410  35.875  40.978   2.259
81151W        W46411  24.973   3.711  11.725
81152W        W46412   9.985   2.118   0.492
81153W        W46413   4.123  34.137   0.856
81154W        W46414  23.927  19.375  12.522
81155W        W46415  10.677  33.789   0.010
81156W        W46416  43.144  10.254   3.962
81157W        W46417  30.397  29.574   1.419
81158W        W46418  35.581   9.996   3.569
81159W        W46419   6.813   5.650  13.381
81160W        W46420  20.659  12.727  13.546
81161W        W46421  27.438  23.540   2.189
81162W        W46422  39.967  44.756   1.387
81163W        W46423  16.116   4.697   2.269
81164W        W46424  43.310   8.269   0.001
81165W        W46425   7.786  11.041  14.956
81166W        W46426  37.908  35.253   2.748
81167W        W46427  35.886   6.300  14.090
81168W        W46428   1.377  26.841  11.689
81169W        W46429  19.671  31.342   2.469
81170W        W46430  37.352  33.398  12.160
81171W        W46431  39.593  18.505   2.945
81172W        W46432  31.966  32.467   1.753
81173W        W46433   6.299  26.515  11.401
81174W        W46434  14.170   7.495  13.172
81175W        W46435  44.213   8.769   0.721
81176W        W46436   3.146  26.290  12.168
81177W        W46437   3.025   7.214  11.229
81178W        W46438  24.036   7.909   4.563
81179W        W46439  36.911  25.998   1.689
81180W        W46440  43.151  25.930   4.178
81181W        W46441  26.265  27.103  11.110
81182W        W46442  19.146  21.993  13.751
81183W        W46443  35.868  43.821   2.313
81184W        W46444  18.223  10.691   3.128
81185W        W46445   7.405  34.730   4.517
81186W        W46446  35.529   0.916  11.403
81187W        W46447  34.882  42.580   1.765
81188W        W46448  38.590  28.008  14.496
81189W        W46449  18.651  34.732  14.416
81190W        W46450  14.699  20.258  11.947
81191W        W46451  24.459  38.811   3.280
81192W        W46452  11.776  39.800  13.839
81193W        W46453  39.490  32.611  10.936
81194W        W46454  44.720   3.316  14.093
81195W        W46455  19.858  33.402  13.046
81196W        W46456  14.307  35.290  11.240
81197W        W46457  29.366   6.391   0.988
81198W        W46458  34.895  37.343   0.835
81199W        W46459   5.759  10.775   1.483
81200W        W46460   2.982  18.613  10.468
81201W        W46461  24.537  10.622  13.018
81202W        W46462  43.044  14.686  11.522
81203W        W46463  38.412  32.466  13.911
81204W        W46464   2.228  42.628   0.554
81205W        W46465  20.559  15.315  11.496
81206W        W46466  40.585  35.911  13.432
81207W        W46467  42.273  12.108   9.857
81208W        W46468  28.611  42.746   4.025
81209W        W46469   6.430  44.343   4.634
81210W        W46470  34.386  31.931   2.229
81211W        W46471  29.125  14.964  12.718
81212W        W46472  15.557  27.392   4.502
81213W        W46473  33.883  42.616  13.937
81214W        W46474   1.186  16.193   4.898
81215W        W46475  38.054  16.260  12.087
81216W        W46476  43.134  27.908  14.388
81217W        W46477  17.892  32.789   4.164
81218W        W46478  11.720  14.391  14.307
81219W        W46479  18.542  22.050  11.239
81220W        W46480  12.629  14.945   4.282
81221W        W46481   8.460  25.965   2.324
81222W        W46482  21.957  16.518  10.503
81223W        W46483  10.387  38.320   1.904
81224W        W46484  13.443  31.650   2.526
81225W        W46485  33.489  14.346  14.059
81226W        W46486  35.825  22.753  12.455
81227W        W46487  24.254  41.474   1.838
81228W        W46488   6.584  42.820   2.342
81229W        W46489  40.334  40.564   0.445
81230W        W46490  10.768  31.323   3.259
81231W        W46491  43.644  44.689   4.697
81232W        W46492  35.338  27.932  14.994
81233W        W46493   3.483   2.729   3.812
81234W        W46494  41.464  17.354  13.407
81235W        W46495  25.266  39.984  13.062
81236W        W46496  22.507  21.112   2.656
81237W        W46497  23.986  14.456  14.923
81238W        W46498   0.884  31.741  11.461
81239W        W46499   0.328  18.254   2.323
81240W        W46500  41.569   9.613   3.315
81241W        W46501  27.615   8.411   4.336
81242W        W46502  36.437  33.971   2.258
81243W        W46503  11.835  25.595   0.821
81244W        W46504  42.822  33.213   3.758
81245W        W46505  39.890  32.993  14.838
81246W        W46506  15.492  27.326  11.542
81247W        W46507  43.333   2.942  14.263
81248W        W46508  38.922  38.101  11.071
81249W        W46509  38.682  28.508   5.003
81250W        W46510  20.585  10.144   1.672
81251W        W46511  26.652  30.284  10.939
81252W        W46512  30.528  34.188   1.699
81253W        W46513  15.136  24.981   3.391
81254W        W46514  33.434  43.205  12.956
81255W        W46515  14.180  39.274   3.805
81256W        W46516   0.640  10.607   3.134
81257W        W46517  32.417  17.328  10.878
81258W        W46518  40.443  34.612  13.460
81259W        W46519  11.020   4.848   5.456
81260W        W46520   3.736  14.867   2.222
81261W        W46521   4.310  33.165  13.452
81262W        W46522  17.034  26.941  14.210
81263W        W46523  12.264  33.603   4.359
81264W        W46524   9.793  28.683   0.037
81265W        W46525   7.140  26.142   9.794
81266W        W46526   6.362  20.802  11.141
81267W        W46527   4.704  14.219   2.367
81268W        W46528  39.361  42.561   3.813
81269W        W46529  38.518  40.814  14.968
81270W        W46530  33.914  14.121  13.851
81271W        W46531  28.094  43.492  14.812
81272W        W46532  19.110  13.194   2.674
81273W        W46533  17.399  11.564  10.151
81274W        W46534  38.285  25.642  14.528
81275W        W46535  29.590  28.621   4.508
81276W        W46536  21.379  21.615  11.132
81277W        W46537  36.298  13.709  11.967
81278W        W46538   1.302  20.125  13.761
81279W        W46539   3.648  38.689  12.938
81280W        W46540  10.519  37.569   0.847
81281W        W46541   1.189  44.033  13.139
81282W        W46542  33.561  12.074  11.646
81283W        W46543  20.569  38.576   3.761
81284W        W46544  38.438  12.796  11.038
81285W        W46545   1.793  38.749   3.930
81286W        W46546   3.115  40.018   1.987
81287W        W46547  30.402   1.837   1.715
81288W        W46548  15.784  32.304   1.323
81289W        W46549   2.309  27.085  13.984
81290W        W46550  21.345  33.176   1.336
81291W        W46551  19.898  35.347   4.138
81292W        W46552  30.900  37.559   5.062
81293W        W46553  31.494   6.260  14.180
81294W        W46554   2.166  35.137   5.121
81295W        W46555  36.169  37.811  11.071
81296W        W46556  40.469   8.658   4.829
81297W        W46557  22.659  13.875  10.826
81298W        W46558  26.458  21.622   2.638
81299W        W46559   9.436   6.690   4.444
81300W        W46560  16.719  27.067   4.576
81301W        W46561  35.090  21.724  14.421
81302W        W46562  13.332   2.404   2.331
81303W        W46563  30.557  12.699   2.435
81304W        W46564  42.024  25.447  12.844
81305W        W46565   5.237  36.841  12.404
81306W        W46566  13.062  27.597  14.439
81307W        W46567  31.547   1.282  11.202
81308W        W46568  43.950  29.897  11.565
81309W        W46569  39.458  34.494  14.621
81310W        W46570   8.748  17.205   0.927
81311W        W46571  21.523  26.161  11.517
81312W        W46572  36.371  40.201   1.751
81313W        W46573  29.716   9.519   3.442
81314W        W46574  40.760   2.804   2.137
81315W        W46575  13.298  22.179   3.322
81316W        W46576  27.296  36.563   2.320
81317W        W46577  10.184  22.782   0.794
81318W        W46578  30.391  10.399   3.326
81319W        W46579  26.202  42.405  10.706
81320W        W46580   4.692   8.210   1.918
81321W        W46581  39.824  37.003  14.504
81322W        W46582  36.006  18.244  11.591
81323W        W46583  32.974   9.736   3.982
81324W        W46584  10.643  17.815   1.244
81325W        W46585  14.511   1.900   1.650
81326W        W46586   5.832  27.589  10.751
81327W        W46587  23.558  11.574   3.663
81328W        W46588  11.902  24.570   0.768
81329W        W46589  19.905  37.291   3.105
81330W        W46590  14.486  20.968  10.561
81331W        W46591  14.353   6.676   9.970
81332W        W46592  41.189  23.419  12.578
81333W        W46593  17.199   4.095   2.571
81334W        W46594  27.571  12.402   0.830
81335W        W46595   4.709  41.775   1.877
81336W        W46596   2.480  28.257  10.120
81337W        W46597  30.068   2.252  11.597
81338W        W46598   8.566  10.818   2.788
81339W        W46599   5.435   1.633  11.155
81340W        W46600   8.400  39.502   4.430
81341W        W46601  28.153  33.516   4.470
81342W        W46602  38.033  33.901   4.179
81343W        W46603  31.230  42.222   1.550
81344W        W46604   7.062   6.569  14.988
81345W        W46605  43.099  18.142  10.739
81346W        W46606  24.254  26.086   1.621
81347W        W46607  10.786  34.950  10.334
81348W        W46608  16.308  39.998  12.428
81349W        W46609  14.084  36.210  12.710
81350W        W46610   6.074  13.952  11.081
81351W        W46611  35.490   0.974   1.785
81352W        W46612  28.910   8.310   3.601
81353W        W46613  36.086  13.143  14.381
81354W        W46614  27.163  20.481   0.252
81355W        W46615  30.049  19.563   2.587
81356W        W46616  12.911   1.223   0.940
81357W        W46617  23.158  13.920  13.865
81358W        W46618   1.344   4.804   1.907
81359W        W46619  37.047   9.652  11.731
81360W        W46620  38.636  22.018   1.261
81361W        W46621  30.726  29.071  13.455
81362W        W46622  34.202  14.685   0.532
81363W        W46623  38.539   7.777   1.108
81364W        W46624   8.720   7.595   0.244
81365W        W46625  35.358  27.524  11.916
81366W        W46626  32.901  30.613   4.805
81367W        W46627  19.721  25.017  11.710
81368W        W46628  13.552  22.522   2.817
81369W        W46629  10.652  39.455  11.656
81370W        W46630  41.239  17.784  10.966
81371W        W46631  44.121  40.947  14.064
81372W        W46632  34.032  13.699   0.180
81373W        W46633  35.805  13.632   3.155
81374W        W46634  25.093  39.323  12.465
81375W        W46635  28.237  21.292  13.715
81376W        W46636   2.635  34.067  14.592
81377W        W46637   3.901  28.150  14.887
81378W        W46638  27.607  20.855  14.975
81379W        W46639  26.946  14.709  11.085
81380W        W46640   8.981  11.498   9.963
81381W        W46641   6.803  18.094  14.302
81382W        W46642   0.340   2.155   4.712
81383W        W46643  28.033  41.054   1.846
81384W        W46644  29.219  17.270  14.790
81385W        W46645   9.839  29.644   0.505
81386W        W46646  33.512  20.181  11.654
81387W        W46647  14.839  42.348  12.905
81388W        W46648  38.656  42.720  12.825
81389W        W46649  44.123  34.826  10.987
81390W        W46650  39.925  43.285  13.430
81391W        W46651  30.161  29.526   0.281
81392W        W46652   2.489  28.979   3.454
81393W        W46653  41.277  41.251   3.912
81394W        W46654   9.345  28.851   2.156
81395W        W46655  18.181  39.036   1.666
81396W        W46656  36.615  13.604   0.346
81397W        W46657  17.607   8.030   2.292
81398W        W46658  41.432  44.893   2.355
81399W        W46659  31.538  22.268  12.555
81400W        W46660   7.094   8.603  11.982
81401W        W46661  44.921  17.256  14.009
81402W        W46662  37.513  44.806  13.416
81403W        W46663   1.434  39.689   0.416
81404W        W46664  35.530  40.791  11.904
81405W        W46665  21.515   9.738   0.406
81406W        W46666  28.264  24.744   2.328
81407W        W46667  13.431  17.155  14.474
81408W        W46668  16.548  12.692   0.525
81409W        W46669   8.392  25.588  12.595
81410W        W46670   9.897  14.171   0.450
81411W        W46671   4.499  28.508   3.739
81412W        W46672   3.410  29.016   2.316
81413W        W46673  30.737  17.630   4.133
81414W        W46674  30.963  37.997   3.094
81415W        W46675  40.461  44.585   2.550
81416W        W46676  13.383  23.064  13.545
81417W        W46677  34.027  29.098  14.921
81418W        W46678  22.811  15.355   5.277
81419W        W46679  43.803  15.192   2.127
81420W        W46680  36.515  21.192  12.656
81421W        W46681  17.461  21.324  14.056
81422W        W46682  21.080  26.441  11.200
81423W        W46683  23.637   8.716  12.670
81424W        W46684   7.100  39.336   3.257
81425W        W46685  14.515  18.886  12.426
81426W        W46686  35.928  39.005   0.350
81427W        W46687  23.204  21.143  13.218
81428W        W46688  32.689  35.894  11.231
81429W        W46689  43.020  37.356  11.555
81430W        W46690  11.506  22.711   1.729
81431W        W46691  14.162  43.214   4.136
81432W        W46692  16.640  11.030   0.229
81433W        W46693   8.690  28.451  11.147
81434W        W46694  43.222  41.550   1.161
81435W        W46695   1.355  29.715  12.666
81436W        W46696  20.591  43.032   1.253
81437W        W46697  28.502  42.000  11.582
81438W        W46698  34.299  13.298   0.363
81439W        W46699  12.148  28.010  13.527
81440W        W46700   9.379   2.680  14.790
81441W        W46701   0.468  32.867  14.469
81442W        W46702  28.069   7.293   3.156
81443W        W46703  30.819  12.207  14.381
81444W        W46704   1.337  37.511   3.860
81445W        W46705   6.329  11.670   2.483
81446W        W46706  38.850  44.838  11.545
81447W        W46707  14.035  27.327  10.647
81448W        W46708  16.633   2.981   4.063
81449W        W46709  21.548  24.948   2.240
81450W        W46710  11.135   1.739  14.737
81451W        W46711  13.740  17.685   4.853
81452W        W46712  33.589  44.912  13.675
81453W        W46713   3.324  37.454   0.306
81454W        W46714  29.359   4.458   3.337
81455W        W46715  21.763  32.205  10.584
81456W        W46716  13.056  43.756  12.544
81457W        W46717  35.374   2.771  12.547
81458W        W46718  20.957  15.555   0.070
81459W        W46719  10.327   2.231   3.705
81460W        W46720  13.287   0.016   2.533
81461W        W46721  34.768  14.206   5.098
81462W        W46722  35.925  24.562  11.080
81463W        W46723  33.078  12.547  14.409
81464W        W46724  19.703   7.870  13.773
81465W        W46725  44.180  24.449   3.144
81466W        W46726  13.299   5.634   0.906
81467W        W46727  42.827  36.061  11.382
81468W        W46728  27.713  41.909   1.400
81469W        W46729   1.039   8.396  13.079
81470W        W46730  41.129  31.907   1.939
81471W        W46731   7.717  43.208   3.367
81472W        W46732  39.953  30.216   2.596
81473W        W46733  28.834   7.081  11.159
81474W        W46734  25.874  17.702   0.726
81475W        W46735  21.216  42.412  12.831
81476W        W46736  28.921   3.327  13.053
81477W        W46737  27.494   8.321   0.528
81478W        W46738   3.555   9.219  11.225
81479W        W46739  43.772   3.832  10.711
81480W        W46740   8.749   7.952   2.787
81481W        W46741  38.105  23.606  10.941
81482W        W46742  24.652  17.013  14.878
81483W        W46743   8.230  15.170  13.016
81484W        W46744  19.877   6.683  13.445
81485W        W46745  32.520  16.598  12.498
81486W        W46746  31.670   7.405  13.409
81487W        W46747  31.418  42.400  10.431
81488W        W46748  35.306  27.898  12.917
81489W        W46749   5.713  27.755   3.543
81490W        W46750  35.729  15.168  14.078
81491W        W46751  40.275   9.385   1.884
81492W        W46752  37.932  38.491   2.631
81493W        W46753  26.992  42.078  11.144
81494W        W46754   8.638  36.823   1.319
81495W        W46755   5.949   1.766  13.284
81496W        W46756  10.156  13.339   2.201
81497W        W46757  36.667  27.945   1.018
81498W        W46758   6.708  38.008   0.714
81499W        W46759   4.591  17.815   1.794
81500W        W46760  38.081  17.293  13.989
81501W        W46761   0.406   5.821   3.799
81502W        W46762   2.206  18.671  14.368
81503W        W46763  13.409  26.272   1.982
81504W        W46764  40.298   8.745  11.212
81505W        W46765  41.892  24.424  12.928
81506W        W46766   6.839  39.885   1.439
81507W        W46767  44.835   4.692   3.844
81508W        W46768  34.545  28.844   2.224
81509W        W46769  37.517  38.373   2.959
81510W        W46770  19.792  44.716   4.214
81511W        W46771  13.314   0.209  13.230
81512W        W46772  43.464  16.247  14.458
81513W        W46773  28.949   1.208   1.208
81514W        W46774  20.056   4.235  14.480
81515W        W46775  29.161  41.852   2.404
81516W        W46776   7.274  30.448   1.154
81517W        W46777   6.407  24.921   3.312
81518W        W46778  11.445  16.781   2.130
81519W        W46779  16.800  42.920  14.024
81520W        W46780  40.325  18.774  12.066
81521W        W46781  32.478  21.595  10.697
81522W        W46782  14.257   8.698  11.582
81523W        W46783  18.786  28.097   1.201
81524W        W46784  37.481  31.878  11.954
81525W        W46785  16.053   4.648   1.352
81526W        W46786  20.174  24.653   0.425
81527W        W46787  32.959  14.125  10.512
81528W        W46788  42.826  27.864  14.824
81529W        W46789  44.350  41.748  11.021
81530W        W46790  26.949   1.252  13.333
81531W        W46791   4.767  44.371   2.340
81532W        W46792  26.572  24.152  14.401
81533W        W46793  15.190   8.559   2.301
81534W        W46794   9.342  34.931   3.645
81535W        W46795  15.243  18.135  12.599
81536W        W46796  30.446  17.376  11.511
81537W        W46797  40.010  30.904  11.449
81538W        W46798  32.921  27.898  10.261
81539W        W46799   6.247  39.535   4.693
81540W        W46800   9.804   2.487  13.424
81541W        W46801  17.837   3.611  12.212
81542W        W46802  10.125  13.372   3.871
81543W        W46803  42.295   9.322   2.195
81544W        W46804  42.366  34.349  13.026
81545W        W46805  37.420  23.125  12.115
81546W        W46806  18.840  26.041  11.503
81547W        W46807  35.313   8.930   4.917
81548W        W46808  20.849   4.683   5.445
81549W        W46809  11.769  20.386  11.098
81550W        W46810  31.557   7.811  12.852
81551W        W46811  27.704  31.939  14.767
81552W        W46812  19.037  24.733   0.391
81553W        W46813   5.686   3.317  11.335
81554W        W46814  26.328  26.385  10.019
81555W        W46815  27.557   0.546   3.860
81556W        W46816  11.878   8.587   5.590
81557W        W46817  34.656   3.739   0.844
81558W        W46818  17.278  43.377   2.156
81559W        W46819  13.679  13.929   1.709
81560W        W46820  27.686  10.588   2.798
81561W        W46821   2.505  39.630   3.254
81562W        W46822  26.162   5.842   9.856
81563W        W46823   8.970  37.940  13.615
81564W        W46824  22.014  15.157  11.674
81565W        W46825  23.164   2.282  12.916
81566W        W46826  12.708  38.012   3.608
81567W        W46827  36.567  12.291   1.417
81568W        W46828  18.043   3.101  13.468
81569W        W46829  23.529   3.341   2.859
81570W        W46830  23.441  39.554   2.823
81571W        W46831  23.804  26.866  14.845
81572W        W46832   7.837  35.276  14.504
81573W        W46833  16.052   6.611  10.959
81574W        W46834  25.475  33.802   4.142
81575W        W46835   8.696   8.312  11.234
81576W        W46836  26.700  14.121  14.589
81577W        W46837  38.459  26.444  11.660
81578W        W46838  34.540  16.037   2.917
81579W        W46839  36.046  41.916  14.333
81580W        W46840  22.880  36.913   0.870
81581W        W46841  20.120  42.699   3.681
81582W        W46842   6.635  30.167   0.875
81583W        W46843  34.057  29.828  14.321
81584W        W46844  18.732  14.659  14.909
81585W        W46845  15.393  35.437  14.855
81586W        W46846   9.156  31.926  13.524
81587W        W46847  21.145  38.909  10.445
81588W        W46848   7.295  20.472   4.578
81589W        W46849  21.564  44.952  11.550
81590W        W46850  37.859   0.034  10.851
81591W        W46851   9.205   8.121  10.598
81592W        W46852  29.971   3.056   3.226
81593W        W46853  23.842  44.401   4.877
81594W        W46854  38.468  12.568  11.513
81595W        W46855  39.299  33.841   0.311
81596W        W46856  41.446  31.474   1.684
81597W        W46857  41.030  32.904   3.370
81598W        W46858   1.962  44.492   3.187
81599W        W46859  34.112  22.123  13.394
81600W        W46860  28.349  24.230  11.726
81601W        W46861   2.850  26.941  12.482
81602W        W46862  40.331  31.463   2.457
81603W        W46863  12.755  43.822  11.846
81604W        W46864  33.747  27.407   3.764
81605W        W46865  29.330  44.810   2.755
81606W        W46866  21.827  31.760  12.361
81607W        W46867  19.944  20.689   0.891
81608W        W46868  20.278  16.324  14.942
81609W        W46869  12.169  43.893  13.067
81610W        W46870  23.879  23.218  11.129
81611W        W46871   2.940   0.795   0.361
81612W        W46872   5.053  11.739   0.417
81613W        W46873   8.813   9.593   1.765
81614W        W46874   5.150   5.713  10.983
81615W        W46875  37.046   8.442  11.184
81616W        W46876   1.981  13.414  11.023
81617W        W46877  13.504  27.433   3.130
81618W        W46878  12.659  42.476   1.456
81619W        W46879  12.194  14.900  11.163
81620W        W46880  34.577  12.786   4.577
81621W        W46881  17.265  38.311   2.934
81622W        W46882  11.370  22.666   0.043
81623W        W46883   2.915  25.506  14.742
81624W        W46884  34.958  43.272   4.534
81625W        W46885  32.877  22.439   5.036
81626W        W46886  14.050  37.512   1.217
81627W        W46887  31.672  20.244   4.022
81628W        W46888   0.292  10.535   3.739
81629W        W46889  43.285  30.553   4.277
81630W        W46890  10.697  13.738  12.090
81631W        W46891  33.612   7.202  11.250
81632W        W46892  11.692  37.381   3.387
81633W        W46893  37.777  33.328   1.794
81634W        W46894  38.307  42.858  12.036
81635W        W46895  14.401  16.969   5.050
81636W        W46896  24.849  26.514   2.439
81637W        W46897   7.658  12.199   1.397
81638W        W46898  22.587  10.287   4.574
81639W        W46899   7.465  25.053   3.251
81640W        W46900   5.361   0.764   3.116
81641W        W46901  13.310  23.099  14.546
81642W        W46902   8.209  42.533  11.103
81643W        W46903   6.942  32.626  13.470
81644W        W46904  26.404  43.993  13.086
81645W        W46905  19.737  35.904   0.752
81646W        W46906  42.887  30.852   3.273
81647W        W46907  13.891  37.606   2.931
81648W        W46908  34.434  33.463  11.923
81649W        W46909  33.113  28.421   2.262
81650W        W46910  24.395   3.223   4.489
81651W        W46911  33.708   9.411   2.094
81652W        W46912  38.660  29.601   3.781
81653W        W46913  14.565   8.817   4.528
81654W        W46914  18.736   8.670   2.617
81655W        W46915   5.124  44.772   1.382
81656W        W46916  22.230  39.041   4.940
81657W        W46917  19.849   5.203   1.658
81658W        W46918  33.737   9.681   4.453
81659W        W46919  13.088   4.897  14.848
81660W        W46920   0.062  15.202  11.604
81661W        W46921  20.137  34.297  11.245
81662W        W46922  35.051  29.235  13.170
81663W        W46923   2.067  35.172  12.946
81664W        W46924  13.611  11.614   3.875
81665W        W46925  38.362  35.053   2.888
81666W        W46926   0.917  26.026  12.643
81667W        W46927  31.727  23.312  12.472
81668W        W46928  29.083   6.255  14.474
81669W        W46929  28.680  20.296  13.009
81670W        W46930  10.304  14.837  14.956
81671W        W46931   9.906  26.612   0.876
81672W        W46932  27.801  28.668   2.368
81673W        W46933  33.568   4.540   1.257
81674W        W46934   6.341   2.970   4.526
81675W        W46935  21.994  31.917  12.888
81676W        W46936  18.509  35.632   3.595
81677W        W46937  23.474   9.793  13.855
81678W        W46938  20.182  21.968  14.520
81679W        W46939  31.347  20.726   1.399
81680W        W46940  32.411  22.255   4.108
81681W        W46941  15.626  37.453   2.906
81682W        W46942  10.844  41.221   0.971
81683W        W46943  14.710  20.965   0.210
81684W        W46944  19.980   3.929   2.711
81685W        W46945   8.537  21.581  12.011
81686W        W46946  20.347  38.379   1.398
81687W        W46947  12.318  30.331  11.045
81688W        W46948  33.422  22.688  14.389
81689W        W46949   7.473  33.852   4.206
81690W        W46950  32.973  16.192  11.345
81691W        W46951  23.414  35.519   1.880
81692W        W46952   4.682  40.431  14.677
81693W        W46953  33.431  30.265  10.530
81694W        W46954   1.791  24.984  12.971
81695W        W46955   8.823  44.270  12.151
81696W        W46956  18.084  23.336   3.746
81697W        W46957  29.156  33.575   3.891
81698W        W46958  16.149  33.580   1.469
81699W        W46959   2.776   8.721   0.483
81700W        W46960   2.912  36.830   3.960
81701W        W46961  23.052  24.658  11.220
81702W        W46962  19.623  18.663  10.700
81703W        W46963   6.633  12.864   1.810
81704W        W46964  34.018  16.890  13.441
81705W        W46965   7.723  39.451   1.949
81706W        W46966  15.160  17.699  14.355
81707W        W46967   4.841  19.320   3.880
81708W        W46968   5.353  39.337   3.797
81709W        W46969  17.313  34.504   2.481
81710W        W46970  33.432  28.350  14.378
81711W        W46971  10.664   5.174   0.328
81712W        W46972  10.701   9.342  10.808
81713W        W46973  44.712  15.551  14.106
81714W        W46974  10.560   5.968   1.823
81715W        W46975  44.803  29.455   1.355
81716W        W46976   2.902  30.480  11.898
81717W        W46977  20.436  11.590   1.071
81718W        W46978  41.308  18.505  13.841
81719W        W46979  24.253  39.809   2.798
81720W        W46980  11.180  31.285   3.668
81721W        W46981  43.110  29.128   0.997
81722W        W46982   9.860  17.054  10.842
81723W        W46983  31.625  30.931   1.287
81724W        W46984  38.854  35.021  14.938
81725W        W46985   9.580  35.912   2.786
81726W        W46986  19.625   4.176   1.699
81727W        W46987  25.172   3.321   2.200
81728W        W46988  13.596  38.382   1.419
81729W        W46989   0.842  40.053   4.084
81730W        W46990  19.076  29.649   2.069
81731W        W46991   4.922  39.800   3.292
81732W        W46992  23.697  26.546  11.920
81733W        W46993   8.605   6.470   4.041
81734W        W46994  26.551   4.285  14.042
81735W        W46995  10.677  31.888   3.249
81736W        W46996  10.826   9.725   0.778
81737W        W46997  22.217   0.438   3.258
81738W        W46998  31.395  27.032  13.635
81739W        W46999  22.793  33.410  13.569
81740W        W47000  28.445  14.594   4.330
81741W        W47001  20.699  21.359   2.687
81742W        W47002  19.151  33.923  10.733
81743W        W47003  11.626  35.365  12.580
81744W        W47004   6.938  19.682   1.948
81745W        W47005  35.683   1.121  13.404
81746W        W47006  37.923   9.640  13.628
81747W        W47007  41.969  32.408  14.898
81748W        W47008  17.725   8.777  11.814
81749W        W47009  11.877  30.097   3.795
81750W        W47010   1.853   4.933   3.675
81751W        W47011  39.808  36.397   4.477
81752W        W47012  34.890  42.280   3.812
81753W        W47013  22.670  16.042   1.226
81754W        W47014  35.924  41.748   0.295
81755W        W47015  17.275  31.633   1.187
81756W        W47016   7.254  38.705  11.667
81757W        W47017  25.264  43.356  13.440
81758W        W47018  35.038  27.901  13.377
81759W        W47019   2.587  33.975   2.309
81760W        W47020   6.028  10.935  13.070
81761W        W47021   8.362   9.150   3.312
81762W        W47022  17.916   9.000   2.809
81763W        W47023  33.103  26.594   2.285
81764W        W47024  43.568  22.822  10.629
81765W        W47025   6.896  29.504   0.601
81766W        W47026  21.602   1.002  14.985
81767W        W47027  28.591  12.683  13.202
81768W        W47028  35.280  35.904  11.568
81769W        W47029  22.043  15.443  12.381
81770W        W47030  18.369  37.460   3.725
81771W        W47031  42.080  36.059  12.121
81772W        W47032  40.396  38.601   0.284
81773W        W47033  32.607  42.390   4.896
81774W        W47034  23.682   7.938  11.111
81775W        W47035  33.991  12.155  14.806
81776W        W47036  17.128  17.051  12.500
81777W        W47037  35.658  42.326   0.887
81778W        W47038  38.994  27.383  13.181
81779W        W47039  17.605   6.469  10.989
81780W        W47040  32.891  24.025  12.469
81781W        W47041  20.589  39.815  11.159
81782W        W47042  32.266  24.422  13.941
81783W        W47043   1.769  15.997   9.930
81784W        W47044  25.624  16.093   0.283
81785W        W47045  23.090  14.224   0.330
81786W        W47046  35.370  10.214   2.174
81787W        W47047  17.485   5.371  14.760
81788W        W47048  28.438  28.449  14.961
81789W        W47049  16.769  39.526   2.638
81790W        W47050  20.718  16.608  10.828
81791W        W47051   9.384  35.852  11.260
81792W        W47052  38.082   6.413   0.960
81793W        W47053  34.412  42.837   1.829
81794W        W47054  10.163  33.604   4.136
81795W        W47055   1.000  41.209  13.202
81796W        W47056   0.997  37.532  13.989
81797W        W47057   7.272  37.499   3.402
81798W        W47058  12.798  42.559   3.926
81799W        W47059  33.737  13.341   0.418
81800W        W47060  25.869  22.423  11.983
81801W        W47061  38.153   7.009   0.207
81802W        W47062  42.856  40.970  11.137
81803W        W47063   1.189  24.579   4.124
81804W        W47064   6.147  12.516  12.315
81805W        W47065   0.038  18.111   2.760
81806W        W47066  10.591  15.243   2.421
81807W        W47067  19.034  15.836   4.113
81808W        W47068  16.570  26.874   0.336
81809W        W47069  43.204  39.789   1.635
81810W        W47070   6.236  11.657  10.702
81811W        W47071  27.529  10.655  10.500
81812W        W47072  11.416  31.013   0.100
81813W        W47073   5.618  33.413   0.945
81814W        W47074   8.782  16.354   2.169
81815W        W47075   7.393  41.283  10.804
81816W        W47076  43.206   6.366  10.663
81817W        W47077  43.930  39.812  12.131
81818W        W47078  38.039  28.288   2.723
81819W        W47079   6.962  31.621   3.131
81820W        W47080  28.974  39.479   1.791
81821W        W47081   0.952   0.859   5.032
81822W        W47082  14.557  31.798   4.209
81823W        W47083  15.293   6.674   2.656
81824W        W47084   0.967   1.035  13.308
81825W        W47085  33.032   5.221  11.869
81826W        W47086  32.733  28.038   2.163
81827W        W47087  33.827  13.171  12.352
81828W        W47088   5.635  29.214  13.825
81829W        W47089  42.204  32.214  14.475
81830W        W47090  13.286   3.942   2.333
81831W        W47091  30.683  25.750   1.422
81832W        W47092  34.670   6.586  13.176
81833W        W47093  19.679  44.297   4.530
81834W        W47094  13.515  39.752  13.085
81835W        W47095  18.604   5.296   4.432
81836W        W47096   3.802  33.077  13.596
81837W        W47097  21.042  27.103   2.200
81838W        W47098  35.442  26.000   3.638
81839W        W47099   0.900  30.511  12.056
81840W        W47100  32.879  23.347  14.771
81841W        W47101  22.122  38.828  13.459
81842W        W47102  28.414  17.851  12.477
81843W        W47103  33.181  18.177   2.215
81844W        W47104  23.014  17.711   3.775
81845W        W47105   6.494  41.407  13.420
81846W        W47106  33.643  22.770  11.631
81847W        W47107  41.863  40.130  10.488
81848W        W47108  15.600  32.789   1.446
81849W        W47109  41.317  32.606   2.200
81850W        W47110  17.268  31.320   0.306
81851W        W47111  41.437  25.470  12.229
81852W        W47112  17.703  36.820  14.051
81853W        W47113  23.564   7.673  14.535
81854W        W47114   3.928   7.248   5.009
81855W        W47115  36.872   0.672   4.028
81856W        W47116   3.084  12.405  14.305
81857W        W47117   4.783  13.902  10.781
81858W        W47118  34.906  15.394  12.409
81859W        W47119  38.087  39.442  12.948
81860W        W47120  17.248  38.766   2.020
81861W        W47121  41.658  10.063   1.146
81862W        W47122  24.168   6.842  14.078
81863W        W47123  39.036  26.587  11.592
81864W        W47124  19.004   1.378  13.488
81865W        W47125   6.246   3.229   4.968
81866W        W47126  19.202  27.613   0.557
81867W        W47127   7.399  35.958   1.782
81868W        W47128   5.657  15.298  13.329
81869W        W47129  30.966  16.148  12.587
81870W        W47130  28.085   6.658  13.859
81871W        W47131  28.957  29.439   1.734
81872W        W47132   7.920  20.219   4.688
81873W        W47133  34.244  37.496  14.009
81874W        W47134  24.285  30.643   5.033
81875W        W47135  30.862  20.793  13.880
81876W        W47136  44.364  31.255   1.136
81877W        W47137   7.455  22.004   1.775
81878W        W47138  32.343  17.658   0.867
81879W        W47139  36.291  36.065  11.169
81880W        W47140  26.769  14.810   2.261
81881W        W47141  29.939  40.955   4.578
81882W        W47142  37.054  16.349   0.868
81883W        W47143  39.775  11.438   0.163
81884W        W47144   5.033  30.102   3.448
81885W        W47145  43.931  24.578   3.677
81886W        W47146  29.817  35.197  11.653
81887W        W47147  31.384  41.860   1.153
81888W        W47148  10.288  32.130   2.122
81889W        W47149  13.139  13.761   0.801
81890W        W47150  24.839  18.895   1.796
81891W        W47151  23.156  19.465   0.226
81892W        W47152   1.659   3.772  12.520
81893W        W47153  38.296  18.021  10.617
81894W        W47154  24.102  42.433   1.444
81895W        W47155   9.321   0.816   0.306
81896W        W47156  12.976   3.365   0.177
81897W        W47157  37.079  32.121  12.241
81898W        W47158  27.937  18.711   0.288
81899W        W47159  33.627  42.899   0.849
81900W        W47160  19.490   3.899   1.053
81901W        W47161  31.146   4.840   3.637
81902W        W47162  38.861  44.617  13.856
81903W        W47163   2.024  21.732  14.351
81904W        W47164  11.330  25.246   4.139
81905W        W47165  32.909  17.342   4.918
81906W        W47166  30.854  34.926  12.625
81907W        W47167  26.696   0.426  12.158
81908W        W47168  29.344  11.202   0.659
81909W        W47169  25.525  14.819  14.825
81910W        W47170  36.956  15.196  10.722
81911W        W47171  17.743   2.705   3.028
81912W        W47172  27.215  17.171  11.850
81913W        W47173   3.166  20.269   5.044
81914W        W47174  16.634  34.939  11.393
81915W        W47175  14.691   3.758  13.855
81916W        W47176  12.741   0.741  11.880
81917W        W47177   2.206  41.174  12.900
81918W        W47178   5.157   6.829   3.307
81919W        W47179  21.775  39.758  14.936
81920W        W47180   2.361  13.566  12.629
81921W        W47181  24.351  13.841   3.728
81922W        W47182  26.019   0.842  12.066
81923W        W47183  13.872  44.850  11.872
81924W        W47184  28.212  14.688  10.474
81925W        W47185  21.143  21.083   3.254
81926W        W47186  25.418  33.423  11.627
81927W        W47187  19.548  14.310   0.440
81928W        W47188  22.594   1.761   3.265
81929W        W47189  31.682  18.108   1.929
81930W        W47190  35.097  40.536   1.889
81931W        W47191  27.712  38.276   4.143
81932W        W47192   2.242   1.944  14.478
81933W        W47193   4.034  17.282   4.095
81934W        W47194  11.115  13.247   3.617
81935W        W47195  15.592  36.610   2.978
81936W        W47196   8.607  24.233   4.558
81937W        W47197  19.338  18.354   1.383
81938W        W47198  42.007  40.204  11.624
81939W        W47199  32.786   0.303   0.159
81940W        W47200  44.247  10.088  10.278
81941W        W47201   6.923  40.194   1.015
81942W        W47202  37.386  29.773   3.407
81943W        W47203  16.105  11.833   1.841
81944W        W47204  25.154  13.574  11.695
81945W        W47205  38.410  20.610  12.637
81946W        W47206  10.893  14.838   1.572
81947W        W47207  43.188  16.500  11.455
81948W        W47208  39.442  18.262  12.084
81949W        W47209  16.583  14.591   0.412
81950W        W47210   8.737   6.231  11.206
81951W        W47211  10.628  38.416   1.166
81952W        W47212   1.901   3.269  12.571
81953W        W47213  14.172  24.047   1.345
81954W        W47214  15.387  29.515   0.056
81955W        W47215  44.224   4.269   4.394
81956W        W47216  30.520   3.261   0.292
81957W        W47217  23.432  26.138   0.486
81958W        W47218  15.725  26.685  14.872
81959W        W47219  24.325  16.916   3.294
81960W        W47220  40.022  25.924   0.724
81961W        W47221  33.311  40.176  14.246
81962W        W47222  13.208  12.673   3.239
81963W        W47223  44.896  41.547  14.236
81964W        W47224  19.020  10.619  11.909
81965W        W47225  38.596  14.366  13.841
81966W        W47226  13.199  27.079  11.157
81967W        W47227  38.601   3.114   2.756
81968W        W47228  24.639  14.743  13.386
81969W        W47229   4.958  38.911   1.697
81970W        W47230   7.343  19.725  12.925
81971W        W47231  12.875  17.661   3.367
81972W        W47232  30.076  16.021  12.476
81973W        W47233  37.221  43.870  14.909
81974W        W47234  28.100   9.281   4.703
81975W        W47235  28.770   9.117  11.623
81976W        W47236  43.213  18.585   4.348
81977W        W47237  32.055  34.728   5.050
81978W        W47238  19.361  20.827  11.123
81979W        W47239   4.455   7.260  14.289
81980W        W47240  13.141  40.023  12.890
81981W        W47241  41.699   4.277   1.269
81982W        W47242  32.050   4.008  11.461
81983W        W47243   7.360  14.415  12.488
81984W        W47244   3.422   7.176   2.319
81985W        W47245  28.890  32.540  11.153
81986W        W47246   5.589  36.037  12.843
81987W        W47247   7.276  18.771   0.814
81988W        W47248  30.106  42.477  12.987
81989W        W47249  14.384  17.275   1.991
81990W        W47250  19.480   8.995  13.378
81991W        W47251  42.329  16.525  14.230
81992W        W47252  23.068  20.742  14.983
81993W        W47253   8.956  21.213   1.734
81994W        W47254  32.900  44.454   1.306
81995W        W47255  21.289  23.971   0.048
81996W        W47256  41.014  24.675  10.731
81997W        W47257  38.989  24.650  11.777
81998W        W47258   3.570  17.200   0.334
81999W        W47259  30.811  37.780   2.620
82000W        W47260  32.156   8.790  14.402
82001W        W47261  35.059   1.865  12.996
82002W        W47262   0.751  27.635   1.744
82003W        W47263  32.492  31.294   2.874
82004W        W47264  21.117  13.758   3.593
82005W        W47265   5.678  21.252   4.165
82006W        W47266   4.611  15.245   1.696
82007W        W47267   5.074   1.523   1.736
82008W        W47268   5.728  34.976  11.537
82009W        W47269  24.217  43.945   3.206
82010W        W47270  14.710   2.792  10.823
82011W        W47271  43.763  14.821   0.903
82012W        W47272  27.536  10.591  13.400
82013W        W47273  32.004  10.265  12.182
82014W        W47274   7.198  25.489   3.288
82015W        W47275  14.684   3.930  11.441
82016W        W47276   0.468   4.866   2.134
82017W        W47277  29.478   7.419  12.551
82018W        W47278  14.825   8.271  11.150
82019W        W47279  21.125   2.993   3.239
82020W        W47280  23.392  15.529   2.830
82021W        W47281  37.877  22.124  13.769
82022W        W47282  28.674  26.115  12.576
82023W        W47283  41.287  20.232   4.096
82024W        W47284  44.044  44.383   0.961
82025W        W47285  35.829  29.538  13.940
82026W        W47286  11.834  41.037   2.399
82027W        W47287  15.409   2.461  10.942
82028W        W47288  40.084  19.749   3.220
82029W        W47289  42.041  28.557  13.990
82030W        W47290  22.711   9.587   2.370
82031W        W47291  19.134  42.934  11.046
82032W        W47292  27.486  25.197  11.178
82033W        W47293  34.965  35.501  12.639
82034W        W47294  15.752   1.734  11.628
82035W        W47295  19.597  25.789  13.024
82036W        W47296  36.369   3.475  13.116
82037W        W47297  10.055  25.578   4.058
82038W        W47298  17.749  27.699   4.800
82039W        W47299  41.296  42.355  12.881
82040W        W47300  14.389  35.808  13.588
82041W        W47301  22.613  36.152  14.913
82042W        W47302   8.310  43.688   1.017
82043W        W47303  21.510  35.316  10.641
82044W        W47304  44.867   8.062   4.941
82045W        W47305  10.375   0.329   2.538
82046W        W47306  25.022  42.964  14.134
82047W        W47307  32.740  37.081  10.741
82048W        W47308  22.665   4.407   3.115
82049W        W47309  28.924  26.543  12.703
82050W        W47310  26.243  13.687   0.228
82051W        W47311  44.904   8.907  13.832
82052W        W47312  30.157   7.710  12.963
82053W        W47313  36.754  35.861   4.644
82054W        W47314  26.312  30.390  12.382
82055W        W47315  23.754   8.684   4.092
82056W        W47316   9.023  41.805  14.402
82057W        W47317   6.177  22.796  13.666
82058W        W47318   5.199  10.433   0.894
82059W        W47319  31.986  34.455  14.399
82060W        W47320   7.802  37.360   9.862
82061W        W47321   4.457  19.189   0.481
82062W        W47322  41.150  30.368   0.992
82063W        W47323   5.437  16.111  14.916
82064W        W47324  41.895  20.534   4.185
82065W        W47325  19.450  29.331   0.757
82066W        W47326  19.998  39.355   3.663
82067W        W47327   9.327  19.289   4.678
82068W        W47328  29.308  32.643   3.131
82069W        W47329  31.935  30.569  10.712
82070W        W47330   9.169  17.617  13.051
82071W        W47331  21.162   2.771  12.510
82072W        W47332  17.991  14.106  14.954
82073W        W47333  28.627  10.094   0.690
82074W        W47334  10.967   6.149   2.741
82075W        W47335  30.626  22.929   1.787
82076W        W47336   5.595  24.429   4.872
82077W        W47337   4.861  11.867  13.929
82078W        W47338   1.884  22.025  13.946
82079W        W47339  23.804   2.313  12.023
82080W        W47340  23.037  17.661   9.840
82081W        W47341   3.262   8.163  10.826
82082W        W47342  44.221  27.447  14.840
82083W        W47343   8.433  29.647  11.569
82084W        W47344   4.457   9.468  14.869
82085W        W47345  41.254  39.100   0.359
82086W        W47346  37.579  37.860   0.372
82087W        W47347  10.088  34.831  10.979
82088W        W47348  33.753  14.094  14.951
82089W        W47349   7.409  23.458  13.226
82090W        W47350  15.765  36.744  12.810
82091W        W47351  17.985   9.746  13.462
82092W        W47352  13.928   0.808  12.053
82093W        W47353   5.919  28.928   4.208
82094W        W47354  20.798   8.211   3.890
82095W        W47355  16.226  23.146  12.946
82096W        W47356   7.871   8.853  10.239
82097W        W47357  42.420  42.431   4.374
82098W        W47358  17.142  18.264  11.160
82099W        W47359  27.577  40.676  11.138
82100W        W47360  11.029  10.716  10.717
82101W        W47361   1.468  22.320  13.858
82102W        W47362   4.330  17.584  11.712
82103W        W47363  18.845  27.134  13.956
82104W        W47364  11.930   3.628   0.960
82105W        W47365   8.281  29.428   0.331
82106W        W47366  28.523  30.382  11.538
82107W        W47367  43.880  29.648  14.368
82108W        W47368   9.727  19.938   4.152
82109W        W47369  13.570  40.959   3.281
82110W        W47370  17.592   4.922   2.749
82111W        W47371  12.495  14.799  13.369
82112W        W47372  19.623  15.298  10.769
82113W        W47373   6.471  11.325  14.664
82114W        W47374  43.295  17.628  10.605
82115W        W47375  36.499  24.599   1.180
82116W        W47376  13.270  41.309   1.795
82117W        W47377  31.521  17.847  13.929
82118W        W47378  26.677  22.593  14.521
82119W        W47379   6.507   7.221   3.822
82120W        W47380   5.960  35.444   0.866
82121W        W47381  18.662   2.603   5.143
82122W        W47382  17.888  12.757  14.900
82123W        W47383  40.019  30.218   3.184
82124W        W47384   6.165  28.919  13.234
82125W        W47385   9.337  34.391   1.890
82126W        W47386   1.884   7.652   1.500
82127W        W47387  29.933  27.701   0.328
82128W        W47388  33.061  40.271   2.687
82129W        W47389  42.353  25.037  10.472
82130W        W47390  27.555  34.589   2.576
82131W        W47391  20.636  24.607   1.781
82132W        W47392  32.652  18.911   4.770
82133W        W47393  23.090  18.645   3.074
82134W        W47394  42.282  12.822   2.197
82135W        W47395  36.358   6.299   0.409
82136W        W47396  26.925  42.630   4.935
82137W        W47397   0.127  11.470   1.810
82138W        W47398  37.036  31.947  10.737
82139W        W47399  29.562  14.229   3.604
82140W        W47400   2.730  43.981   4.610
82141W        W47401  44.517  32.537  11.751
82142W        W47402  42.779  39.168  11.085
82143W        W47403  12.262   1.788   4.400
82144W        W47404   3.266  11.935   4.152
82145W        W47405   9.549  16.592   4.864
82146W        W47406   6.194  25.018   0.973
82147W        W47407  15.778   4.827   3.150
82148W        W47408  25.537  43.097  12.462
82149W        W47409  44.328  43.766  12.144
82150W        W47410  37.500  21.524  13.366
82151W        W47411  23.090  38.767   0.242
82152W        W47412   2.555  27.004  14.463
82153W        W47413   0.877  42.050  12.883
82154W        W47414   8.847  35.097   3.693
82155W        W47415  35.846  14.518  14.807
82156W        W47416  37.009   2.719   2.202
82157W        W47417  26.058  34.658  12.911
82158W        W47418  33.484   4.040   1.327
82159W        W47419  39.398  25.304  12.473
82160W        W47420  25.339   5.519   3.649
82161W        W47421  34.526  28.977  11.070
82162W        W47422  36.628  40.508  14.329
82163W        W47423  12.869  33.722  10.713
82164W        W47424  33.927  15.407   3.184
82165W        W47425  36.291  10.143   3.198
82166W        W47426  17.584  43.765  12.047
82167W        W47427  41.989  32.241  11.473
82168W        W47428  39.583   3.651   1.724
82169W        W47429  11.956  41.902  13.499
82170W        W47430   0.555   1.819  11.581
82171W        W47431  28.682  11.145  10.773
82172W        W47432   9.837   5.893   4.151
82173W        W47433   2.149  41.160   2.466
82174W        W47434  13.661  28.075   0.932
82175W        W47435  21.734  44.418  10.742
82176W        W47436  17.531  39.066   2.327
82177W        W47437  34.911  39.935   2.746
82178W        W47438  33.209   4.554   3.655
82179W        W47439   5.968  26.128  14.495
82180W        W47440   7.748   5.217  14.448
82181W        W47441  36.995  33.143  12.462
82182W        W47442  13.648  12.589  10.593
82183W        W47443  29.978  43.200   4.215
82184W        W47444  34.567  37.987   3.304
82185W        W47445   1.533  29.583   2.834
82186W        W47446  23.636   1.401  14.592
82187W        W47447  25.051  29.652   3.146
82188W        W47448  35.917   4.569   4.607
82189W        W47449  31.004   6.728  11.126
82190W        W47450   6.247   4.433   0.896
82191W        W47451  18.536  36.526   2.141
82192W        W47452  14.328  36.924   1.757
82193W        W47453  19.724  34.444  13.886
82194W        W47454  13.193   3.977  13.294
82195W        W47455  36.378   5.747  14.802
82196W        W47456  28.198  36.278   4.583
82197W        W47457  30.542  35.024   0.351
82198W        W47458  24.459  44.242  14.088
82199W        W47459   1.104  32.246  14.917
82200W        W47460   1.525  19.617   3.611
82201W        W47461  31.961   9.633   3.207
82202W        W47462  41.008   3.451  13.986
82203W        W47463  17.219   8.280   3.983
82204W        W47464   9.161  41.567  10.447
82205W        W47465  43.754  40.555   1.402
82206W        W47466   8.169  11.274   2.976
82207W        W47467  22.268   2.247  13.935
82208W        W47468   3.980  33.844   2.297
82209W        W47469  29.550  38.371  14.014
82210W        W47470  40.549  12.421   3.647
82211W        W47471  19.282  34.197   0.998
82212W        W47472   4.312  35.590   0.661
82213W        W47473   9.656  27.693   4.042
82214W        W47474   0.566  32.137  12.611
82215W        W47475   7.761  25.472  11.446
82216W        W47476  21.044  33.436   3.675
82217W        W47477   0.749  32.358   3.824
82218W        W47478  42.510  22.911  13.433
82219W        W47479   9.602  34.117   4.521
82220W        W47480  26.529  26.731   0.745
82221W        W47481   7.930  15.149  14.299
82222W        W47482  28.706   4.620   3.212
82223W        W47483  15.192   9.899  11.246
82224W        W47484  27.287  36.497   1.485
82225W        W47485   1.687  19.881   4.053
82226W        W47486  10.885  42.400   3.248
82227W        W47487  22.225  25.667   2.369
82228W        W47488   3.235  37.952  13.878
82229W        W47489  44.402  13.441   5.347
82230W        W47490  31.584  34.826   1.427
82231W        W47491   3.440  16.320   0.390
82232W        W47492  43.680  16.052  13.625
82233W        W47493  18.004  33.397  13.341
82234W        W47494  26.961  44.062   1.270
82235W        W47495  29.184  20.683   0.813
82236W        W47496   6.619  21.689  10.704
82237W        W47497  10.207  15.695  10.861
82238W        W47498  42.744   7.721   4.957
82239W        W47499   2.731  37.532  12.954
82240W        W47500   8.626  15.918  13.915
82241W        W47501  18.265  13.665  13.987
82242W        W47502  10.572   3.010  12.120
82243W        W47503  24.150  12.237  11.092
82244W        W47504  15.794  35.036   1.420
82245W        W47505   5.771  17.550   2.722
82246W        W47506  23.907   0.672   0.057
82247W        W47507  33.537  33.864  11.966
82248W        W47508   6.120   0.429  13.594
82249W        W47509  22.779   3.043   3.829
82250W        W47510  42.747  15.640  12.496
82251W        W47511  10.326   3.690   4.216
82252W        W47512  38.110  25.644   1.442
82253W        W47513  36.482   4.757   0.035
82254W        W47514  15.407  25.891  13.986
82255W        W47515  26.907  38.632   0.735
82256W        W47516  12.297  17.258  12.892
82257W        W47517  42.555  32.167   4.248
82258W        W47518  10.142  10.883   1.712
82259W        W47519  17.898  27.061   0.225
82260W        W47520  33.521  41.544   4.483
82261W        W47521  41.405  43.515   2.414
82262W        W47522  43.206  27.101  11.186
82263W        W47523  32.011  42.030  12.869
82264W        W47524  28.288  44.460  14.893
82265W        W47525  43.849  25.247  12.123
82266W        W47526   5.783  35.099   1.250
82267W        W47527  22.644  21.326   4.099
82268W        W47528  35.911   3.266   3.746
82269W        W47529  25.700  37.601   3.734
82270W        W47530   2.954  21.537  12.963
82271W        W47531  28.857  36.714  11.151
82272W        W47532   6.330  18.575   4.576
82273W        W47533  27.017   9.939  10.691
82274W        W47534  40.542  19.142   2.231
82275W        W47535  15.556   6.810  11.488
82276W        W47536  15.817   7.062  13.738
82277W        W47537   1.382  31.219   2.703
82278W        W47538  11.848  40.403  12.384
82279W        W47539  19.512  20.578  13.545
82280W        W47540  25.036  29.714  10.757
82281W        W47541   6.728  32.518   1.832
82282W        W47542  12.850  20.355  13.342
82283W        W47543  38.245  19.702   2.926
82284W        W47544  28.312  36.889   2.521
82285W        W47545  42.848  20.283  13.998
82286W        W47546  33.337   9.453   4.234
82287W        W47547  42.508   9.731   4.290
82288W        W47548  41.403  24.927  11.033
82289W        W47549  35.037  31.603  10.451
82290W        W47550  30.707   8.546  12.842
82291W        W47551  13.452  44.540  10.266
82292W        W47552  19.668  41.772  14.893
82293W        W47553  40.723   6.851   2.857
82294W        W47554  31.169  31.067   2.867
82295W        W47555  36.910  38.070   4.132
82296W        W47556  38.350  26.979   4.152
82297W        W47557   0.926  12.373  14.555
82298W        W47558  34.184  33.026   4.541
82299W        W47559   7.955  31.741  10.295
82300W        W47560  19.143   3.951   3.297
82301W        W47561  42.476  19.765  14.812
82302W        W47562  26.634  32.106  14.516
82303W        W47563  31.644  41.923  11.132
82304W        W47564  40.042   4.425  12.509
82305W        W47565   5.930  23.737  14.827
82306W        W47566  35.654   4.174  14.753
82307W        W47567  15.794   7.708   3.233
82308W        W47568  24.625  30.669  14.988
82309W        W47569  22.760  27.133  11.286
82310W        W47570   5.044  34.371   4.687
82311W        W47571   3.366  21.465  11.296
82312W        W47572  27.693   3.887  12.865
82313W        W47573  27.290  40.271   1.740
82314W        W47574  26.586  21.141  14.409
82315W        W47575  17.275  17.740   1.050
82316W        W47576   9.207  31.903  14.911
82317W        W47577  22.970   9.812  10.493
82318W        W47578  32.496  16.338  10.659
82319W        W47579  42.359   5.438  14.890
82320W        W47580  37.832   5.734  14.869
82321W        W47581  21.716  43.464  10.636
82322W        W47582  13.827  21.457  10.525
82323W        W47583  25.433   3.338   1.738
82324W        W47584  10.926  11.368   1.432
82325W        W47585  29.098  12.095   4.590
82326W        W47586   9.184  28.207  11.969
82327W        W47587  17.561   0.597  14.337
82328W        W47588  35.901   0.558   0.931
82329W        W47589  29.664   0.478   0.728
82330W        W47590  31.003  27.919  13.807
82331W        W47591  19.714  42.883   1.637
82332W        W47592  39.565  35.027  12.834
82333W        W47593   7.777  20.987   1.390
82334W        W47594  14.723  29.122  10.573
82335W        W47595  15.813   6.389   9.982
82336W        W47596   4.603   7.686   1.912
82337W        W47597  37.521  24.462  12.404
82338W        W47598  31.895  13.876  13.463
82339W        W47599  35.028  25.743   4.765
82340W        W47600  13.108  41.220   4.538
82341W        W47601  41.602   9.611  12.129
82342W        W47602   5.461  18.581  14.150
82343W        W47603  23.171  44.928  11.190
82344W        W47604   2.399  44.792   4.846
82345W        W47605  23.132   1.707   3.701
82346W        W47606  21.130  21.741  14.817
82347W        W47607  17.138  28.145   2.364
82348W        W47608  32.866   2.726  12.347
82349W        W47609  21.752   9.169  13.278
82350W        W47610  20.253   7.972   1.123
82351W        W47611  37.337  14.360  11.038
82352W        W47612  29.122   8.623   0.959
82353W        W47613  44.201  35.300  13.453
82354W        W47614  18.354  36.210  14.955
82355W        W47615  43.392  20.406   1.817
82356W        W47616  11.342   5.593  14.327
82357W        W47617  25.123  14.648  10.655
82358W        W47618  36.056  33.991  13.431
82359W        W47619   1.697  25.578   0.881
82360W        W47620  15.694   9.281   4.112
82361W        W47621  41.429  38.631   2.659
82362W        W47622  26.614  34.731  11.723
82363W        W47623  30.502  36.625  12.917
82364W        W47624  29.861  31.460   0.898
82365W        W47625  21.665  11.642   1.766
82366W        W47626  40.889   7.712   2.884
82367W        W47627   3.933   7.186   2.270
82368W        W47628  14.139  33.043   3.144
82369W        W47629  38.610  25.732  11.046
82370W        W47630  35.636   1.866  14.986
82371W        W47631   0.005  44.365  12.890
82372W        W47632  10.234   1.705   0.806
82373W        W47633   5.172  13.159   1.977
82374W        W47634  38.407   4.756   1.801
82375W        W47635  36.531  35.579   3.522
82376W        W47636  32.160   5.555   0.045
82377W        W47637  19.524   7.730   0.641
82378W        W47638   3.910  11.135   4.482
82379W        W47639   8.833  38.282  14.479
82380W        W47640  23.383  20.743   4.023
82381W        W47641  22.116  36.193  14.655
82382W        W47642  18.166  29.453  13.481
82383W        W47643  39.029  36.312   0.358
82384W        W47644  37.928  21.354   4.158
82385W        W47645   2.453  19.383   2.729
82386W        W47646  22.160  13.426   3.705
82387W        W47647  12.562  16.817  11.068
82388W        W47648  25.008   1.683   1.323
82389W        W47649  22.303  35.372   3.006
82390W        W47650   4.636   3.935  11.886
82391W        W47651  14.328   7.754   2.783
82392W        W47652  23.789  16.226   3.178
82393W        W47653  11.625  35.664  10.222
82394W        W47654  17.614  22.969  10.434
82395W        W47655  36.977  37.129   4.653
82396W        W47656  35.371  18.775   1.749
82397W        W47657  17.711  24.155  12.991
82398W        W47658  16.380  17.931   4.020
82399W        W47659   1.686  25.721   4.509
82400W        W47660  20.656  26.406  13.011
82401W        W47661   1.767  11.720   0.936
82402W        W47662   9.389  28.097  13.879
82403W        W47663   6.817  24.641   3.446
82404W        W47664  22.786  11.079  13.547
82405W        W47665  24.050  25.165  14.515
82406W        W47666  10.607  31.285   2.220
82407W        W47667  20.102   5.178  11.566
82408W        W47668  28.394  25.701   4.103
82409W        W47669  26.455  10.826   4.062
82410W        W47670  24.255  10.105   0.457
82411W        W47671   6.674  36.779   3.794
82412W        W47672  40.223  11.371  12.909
82413W        W47673   2.441  37.079   2.295
82414W        W47674   2.267  39.826  13.109
82415W        W47675  44.269   1.157  14.998
82416W        W47676  26.547  37.991  13.955
82417W        W47677   3.119  26.218   1.230
82418W        W47678  40.352  35.787   1.254
82419W        W47679  24.517  20.764  12.504
82420W        W47680  10.751  16.710   3.833
82421W        W47681  10.623  17.107   1.653
82422W        W47682  36.458  35.678  11.466
82423W        W47683  15.088  24.138  11.153
82424W        W47684  35.915  27.922  12.450
82425W        W47685   0.448  24.682   2.733
82426W        W47686  26.096   1.205   1.429
82427W        W47687  23.557  16.231   2.269
82428W        W47688  31.790  25.263   2.238
82429W        W47689  40.807  10.720   3.715
82430W        W47690  22.009  34.228   4.248
82431W        W47691  30.983  10.290  11.548
82432W        W47692   1.844  23.590  11.999
82433W        W47693  19.682   2.442  14.001
82434W        W47694   0.724  19.711   4.160
82435W        W47695  31.002   5.688   1.664
82436W        W47696  32.425  41.497  11.017
82437W        W47697  20.979  20.571   0.863
82438W        W47698   2.001  21.547   0.428
82439W        W47699  31.388  27.532   3.943
82440W        W47700  16.342  41.583   1.135
82441W        W47701  41.859  29.014  14.461
82442W        W47702   7.288  18.030  14.044
82443W        W47703  33.178  36.532   4.210
82444W        W47704   3.786  16.382   1.924
82445W        W47705  40.760   0.805  13.457
82446W        W47706  24.020  23.566  10.791
82447W        W47707  29.665  41.019  13.605
82448W        W47708  31.713  27.770   1.362
82449W        W47709  37.604  23.500  10.981
82450W        W47710  29.888  24.469   2.732
82451W        W47711  19.267  36.039   4.555
82452W        W47712  20.267   3.237  12.584
82453W        W47713   7.206  22.544  13.807
82454W        W47714   6.022   4.937  11.159
82455W        W47715   9.884  13.199  12.613
82456W        W47716  15.581  15.182  10.916
82457W        W47717  24.056  37.866  12.630
82458W        W47718   3.473   3.168   2.414
82459W        W47719  37.964  17.793  13.912
82460W        W47720  36.989   7.352   1.758
82461W        W47721   1.256  23.464  14.320
82462W        W47722  15.139  26.526  12.023
82463W        W47723  27.933  42.210   2.892
82464W        W47724  40.459  40.992   2.267
82465W        W47725  13.175  31.422  12.029
82466W        W47726   3.477  19.477  12.993
82467W        W47727  34.889  31.899   3.615
82468W        W47728   1.369  14.043   3.222
82469W        W47729   0.893  29.905   4.290
82470W        W47730  32.838  44.802   3.294
82471W        W47731  15.626   5.416   2.201
82472W        W47732   5.682  33.818   4.110
82473W        W47733  30.226  31.861  12.317
82474W        W47734  44.725   4.396   2.690
82475W        W47735   3.047   0.853   4.322
82476W        W47736  32.509  11.203   2.872
82477W        W47737  31.294  15.140  12.541
82478W        W47738  29.557  10.654  13.462
82479W        W47739  15.234  31.131  13.906
82480W        W47740  28.180  31.404  12.831
82481W        W47741  34.135  31.014  11.034
82482W        W47742   8.198   4.534   3.511
82483W        W47743   9.753  19.197   0.502
82484W        W47744  23.568  20.740   2.631
82485W        W47745  39.880  22.719  12.998
82486W        W47746  39.543  21.096   1.385
82487W        W47747  15.224   5.888  12.948
82488W        W47748  11.186   6.278   0.343
82489W        W47749  19.842  43.436  12.043
82490W        W47750  24.808  33.771  13.047
82491W        W47751  30.419  41.834  12.775
82492W        W47752  29.641   2.135  11.242
82493W        W47753  19.319  25.515  13.386
82494W        W47754  40.913   8.445  13.814
82495W        W47755  26.463   8.736  12.532
82496W        W47756  12.749  17.099  10.671
82497W        W47757  15.702  38.293   1.234
82498W        W47758  42.523  34.985   0.863
82499W        W47759   9.145  28.169  13.416
82500W        W47760  15.635   0.767  14.626
82501W        W47761   9.688  27.062   0.735
82502W        W47762  33.829  44.898   1.123
82503W        W47763  44.332  10.808   3.719
82504W        W47764  14.056  15.871   2.582
82505W        W47765  14.789  19.268   3.166
82506W        W47766   7.121  16.028  13.887
82507W        W47767   6.414  33.933  13.210
82508W        W47768  29.607  36.369  11.638
82509W        W47769  25.235  39.115  13.110
82510W        W47770  35.579  35.317   3.802
82511W        W47771   9.027   6.814  10.172
82512W        W47772  23.996  43.451  12.545
82513W        W47773  41.453  40.916  14.934
82514W        W47774   3.933   8.453   1.509
82515W        W47775   1.644  18.185  12.958
82516W        W47776  18.141   9.488   3.984
82517W        W47777  36.635  39.027   4.349
82518W        W47778  38.505   4.407   1.419
82519W        W47779   0.361   3.289  12.424
82520W        W47780  29.677  28.380   2.449
82521W        W47781   5.339   6.996  11.610
82522W        W47782  22.387  25.136   2.292
82523W        W47783  20.127  44.680   1.943
82524W        W47784   9.566   7.259  12.034
82525W        W47785   4.649  29.868   0.749
82526W        W47786  21.965  42.383   0.556
82527W        W47787  24.721   5.499  14.852
82528W        W47788  10.810  15.108   1.103
82529W        W47789  35.349   2.871  12.055
82530W        W47790  17.853  35.461  13.812
82531W        W47791  29.794  23.677  13.011
82532W        W47792  40.323  31.142  10.602
82533W        W47793   2.309   4.463  11.064
82534W        W47794  43.087  33.194   1.927
82535W        W47795   8.748  32.767  13.504
82536W        W47796  27.196  37.932   1.667
82537W        W47797   7.774  27.271   0.044
82538W        W47798  39.476   6.576  10.339
82539W        W47799  35.272  38.362  10.870
82540W        W47800  33.536  22.054   3.217
82541W        W47801  16.749  20.271   1.350
82542W        W47802  41.664   9.347   4.951
82543W        W47803   5.721  22.494  12.940
82544W        W47804  34.329  44.976   1.280
82545W        W47805  44.309   3.978   3.584
82546W        W47806  32.845  21.485  13.345
82547W        W47807   0.737  44.429   1.333
82548W        W47808   3.812  31.965   0.849
82549W        W47809  13.748  22.795  13.845
82550W        W47810  29.333  22.979   2.175
82551W        W47811  31.524   0.554  14.733
82552W        W47812  18.469  12.322   1.881
82553W        W47813  30.579  44.373   2.215
82554W        W47814   4.375   2.896  10.463
82555W        W47815  36.905  14.102   2.894
82556W        W47816  20.300   0.632   3.173
82557W        W47817  28.379  39.386  13.899
82558W        W47818  13.251   1.306   1.332
82559W        W47819  17.075   8.892   3.710
82560W        W47820  15.681  32.022  14.055
82561W        W47821  12.275  13.152  12.416
82562W        W47822  26.475   5.442  10.464
82563W        W47823  34.089   1.811  13.926
82564W        W47824  27.964  16.117   0.333
82565W        W47825  44.716   0.008  14.856
82566W        W47826  24.928  37.753   2.384
82567W        W47827   6.770   1.239   1.069
82568W        W47828  21.085  18.795  11.004
82569W        W47829  12.304  34.357   0.895
82570W        W47830  23.712  15.502   3.233
82571W        W47831   3.841  24.220   1.147
82572W        W47832  22.413   1.871   4.092
82573W        W47833  24.131   2.923  13.424
82574W        W47834  44.378  20.360   2.859
82575W        W47835  22.668  18.105   4.551
82576W        W47836  22.989  11.047  14.412
82577W        W47837  27.115  22.469   2.274
82578W        W47838  19.953  20.766   0.178
82579W        W47839  26.913  36.095  13.503
82580W        W47840  38.109  33.520  11.694
82581W        W47841  14.972  15.020  12.486
82582W        W47842  24.274  27.871  10.653
82583W        W47843  13.952  41.486   1.636
82584W        W47844  35.534   0.041  11.945
82585W        W47845   0.495   3.239   2.389
82586W        W47846  19.691  35.605   0.257
82587W        W47847  37.475  27.556   1.881
82588W        W47848  17.576   2.072  10.653
82589W        W47849   9.274  18.207  10.779
82590W        W47850  35.461  37.553  14.042
82591W        W47851  34.820  40.168  10.839
82592W        W47852  15.719  11.282  14.999
82593W        W47853   7.340  33.028   2.128
82594W        W47854  27.762  40.741  13.435
82595W        W47855  38.726  25.352   5.047
82596W        W47856  40.669  22.201   1.702
82597W        W47857  42.324  44.826   2.905
82598W        W47858  42.235  25.908  10.728
82599W        W47859  41.620  25.718  14.545
82600W        W47860  32.440   8.229   2.186
82601W        W47861  17.759  28.478  13.548
82602W        W47862   1.362  20.090   3.703
82603W        W47863  10.695   5.735  11.584
82604W        W47864   8.391  19.429  11.140
82605W        W47865  17.851  39.968   2.749
82606W        W47866   6.878   0.099  11.927
82607W        W47867  22.202  35.842   0.034
82608W        W47868   5.969  11.748   2.874
82609W        W47869  16.633  42.326   1.479
82610W        W47870   7.316  15.583   3.688
82611W        W47871   5.346  31.192   1.969
82612W        W47872   8.000  22.984  12.147
82613W        W47873  33.158   3.682  13.411
82614W        W47874  29.659  33.795  11.586
82615W        W47875  40.235  10.137  13.132
82616W        W47876   8.153  38.356   0.939
82617W        W47877  17.785  11.907   3.963
82618W        W47878  35.080  23.500   2.137
82619W        W47879  29.915  38.932  14.513
82620W        W47880   4.197  30.182  10.730
82621W        W47881  18.273  23.621  12.923
82622W        W47882  19.281  23.019  11.582
82623W        W47883  41.977  12.556   1.345
82624W        W47884  34.969  39.923   1.387
82625W        W47885  37.550   6.538  11.183
82626W        W47886  41.028   8.827   1.278
82627W        W47887  16.555  29.989   4.990
82628W        W47888  23.966  13.140   2.323
82629W        W47889  15.517  22.599   1.880
82630W        W47890  26.998  28.471  10.998
82631W        W47891   4.831  41.522  10.433
82632W        W47892   0.432  13.901  12.826
82633W        W47893   1.889  12.511   9.879
82634W        W47894   5.935   7.252   3.007
82635W        W47895  17.129  30.153  11.277
82636W        W47896  18.502   5.410   3.906
82637W        W47897   5.791   5.182  11.538
82638W        W47898  34.602  23.531  13.917
82639W        W47899   5.687  13.556   3.302
82640W        W47900  30.575   6.980  13.955
82641W        W47901  22.661  30.422   3.680
82642W        W47902  44.188  43.385   2.762
82643W        W47903  32.385  32.237   2.883
82644W        W47904  22.065  26.574   2.322
82645W        W47905  26.507   7.371  11.462
82646W        W47906  25.179   2.910   2.833
82647W        W47907  27.986   1.652  12.161
82648W        W47908  22.659   4.656   0.346
82649W        W47909   2.755   1.099  14.104
82650W        W47910  27.493   9.785   5.019
82651W        W47911  32.686  38.007   3.607
82652W        W47912  30.862  38.886   4.083
82653W        W47913   5.450  16.613  14.954
82654W        W47914  10.232   4.904   3.169
82655W        W47915  43.339  36.000  10.709
82656W        W47916  11.772  34.085   1.748
82657W        W47917  15.162  31.537  11.582
82658W        W47918  28.061  22.285  11.104
82659W        W47919  31.856  21.749   5.383
82660W        W47920  17.823  15.573  13.457
82661W        W47921  27.609  36.264  11.610
82662W        W47922  19.866  27.735   3.146
82663W        W47923  14.106  13.298   4.513
82664W        W47924  35.481  26.473  14.324
82665W        W47925  32.458  24.309   0.419
82666W        W47926  25.630  31.481  12.619
82667W        W47927  21.000  22.497  10.305
82668W        W47928  22.680   3.669   0.984
82669W        W47929  29.164  10.068   4.894
82670W        W47930  40.495  32.497   3.807
82671W        W47931  35.588  31.865   1.273
82672W        W47932  10.250  39.498   0.927
82673W        W47933   7.083  21.051   0.101
82674W        W47934   1.462  18.764   4.553
82675W        W47935  21.192   4.926   0.279
82676W        W47936   3.147   3.222  14.536
82677W        W47937  36.069  25.578  10.718
82678W        W47938  35.946   3.873   2.498
82679W        W47939  39.863  24.692   4.775
82680W        W47940  35.620   9.199   0.297
82681W        W47941  37.966  11.293  14.889
82682W        W47942  35.873  32.122  12.400
82683W        W47943  14.728   3.211   2.344
82684W        W47944  10.583  21.757   3.115
82685W        W47945   8.261   4.886   2.532
82686W        W47946  34.386  24.302  12.654
82687W        W47947  35.433  33.015   0.736
82688W        W47948   5.367   5.855  11.877
82689W        W47949  27.211  27.111   1.305
82690W        W47950   6.022  43.591   1.905
82691W        W47951  24.036  12.414  12.010
82692W        W47952  29.911  41.747  12.630
82693W        W47953  21.754  42.849  10.934
82694W        W47954  14.056  39.481  13.660
82695W        W47955  13.809  24.822   1.019
82696W        W47956   3.773  36.421   2.087
82697W        W47957  44.226  44.835  12.919
82698W        W47958  37.491  30.224  11.267
82699W        W47959  12.209  44.550  10.387
82700W        W47960  26.945  12.984   2.836
82701W        W47961  10.742  10.657   4.963
82702W        W47962  20.260  15.726   0.504
82703W        W47963  24.000   9.056  10.622
82704W        W47964  24.009  37.341   3.671
82705W        W47965   8.442   3.756  11.204
82706W        W47966  22.370  15.922  12.611
82707W        W47967   5.245  29.495  10.398
82708W        W47968   5.665  22.019   2.193
82709W        W47969  18.028  18.810  14.871
82710W        W47970  24.235  41.619  11.642
82711W        W47971   2.236  30.769  10.789
82712W        W47972   2.002  39.898   2.704
82713W        W47973  20.643  11.286  13.383
82714W        W47974  10.755   9.772  12.842
82715W        W47975  41.476  36.569   1.219
82716W        W47976  44.452  15.316   1.307
82717W        W47977   7.792  11.155  10.570
82718W        W47978  28.451  42.004  14.823
82719W        W47979  13.458  34.864  11.929
82720W        W47980   5.659  16.795  11.566
82721W        W47981   1.000  21.937   4.122
82722W        W47982  33.206  18.736   0.912
82723W        W47983  43.008   9.635   4.641
82724W        W47984  36.462   9.920   0.903
82725W        W47985  39.397  44.452   4.102
82726W        W47986   1.830  17.878  13.422
82727W        W47987  40.254  11.064  12.480
82728W        W47988   0.018   7.217  13.891
82729W        W47989  41.271  22.241   2.239
82730W        W47990   3.799  14.287   0.850
82731W        W47991  21.849  44.929  14.363
82732W        W47992   0.497  10.490  12.376
82733W        W47993   8.063  38.478   1.443
82734W        W47994  31.594  23.958   4.590
82735W        W47995  42.355  44.936  14.409
82736W        W47996  17.584  39.361  12.437
82737W        W47997   9.096  40.950  13.046
82738W        W47998   5.700   0.692  13.482
82739W        W47999  34.541  18.605   0.339
82740W        W48000  11.920  12.047   4.944
82741W        W48001  27.378   9.642   2.450
82742W        W48002  30.089  14.693  13.413
82743W        W48003  31.891  43.976  12.003
82744W        W48004  27.083   7.793  12.355
82745W        W48005  39.323  28.012   4.188
82746W        W48006  26.607   6.470   4.711
82747W        W48007  29.401  21.120   3.647
82748W        W48008  29.924  16.559  12.394
82749W        W48009   9.330  36.350   0.423
82750W        W48010  26.553  37.387  12.357
82751W        W48011   7.602  23.130  13.916
82752W        W48012   2.080  29.461  13.242
82753W        W48013  29.031   5.265  14.470
82754W        W48014  43.819   3.478  12.616
82755W        W48015  22.705  39.371  12.950
82756W        W48016  16.685  25.257   2.720
82757W        W48017   7.223  13.528   3.635
82758W        W48018   9.779   5.222  11.458
82759W        W48019  39.579   6.060   4.273
82760W        W48020  43.312  24.114   0.232
82761W        W48021  22.186  30.229   0.410
82762W        W48022  21.631  34.738   2.366
82763W        W48023   5.797   5.409   4.668
82764W        W48024  13.402  25.250   2.749
82765W        W48025  24.632  38.155  13.010
82766W        W48026  16.570  26.661  10.532
82767W        W48027  14.328  19.205  10.312
82768W        W48028  28.626  41.999  13.404
82769W        W48029  36.282  43.734  14.314
82770W        W48030  11.073  18.296  13.930
82771W        W48031   2.427  33.179  13.480
82772W        W48032  30.143  11.742   4.489
82773W        W48033  43.426  33.033   3.868
82774W        W48034  21.546   3.718   4.036
82775W        W48035  42.081  44.197  11.657
82776W        W48036  15.874  33.031  12.020
82777W        W48037  26.070   8.185   4.601
82778W        W48038  20.628  12.024   1.391
82779W        W48039  20.778  20.478   5.187
82780W        W48040   6.786  29.386   0.099
82781W        W48041   9.813  12.908   3.704
82782W        W48042   5.360  41.845  11.004
82783W        W48043   3.413  44.889  14.486
82784W        W48044  39.916  37.073  12.505
82785W        W48045   0.779   7.300   1.355
82786W        W48046  19.131  22.762  11.146
82787W        W48047   8.919  42.937  12.486
82788W        W48048  29.145  34.387  10.693
82789W        W48049  25.162   9.935  11.443
82790W        W48050  40.627   4.640   0.921
82791W        W48051  35.442  30.943   0.794
82792W        W48052   8.451   2.724   4.621
82793W        W48053  10.242  28.749   2.260
82794W        W48054  15.763  18.725   2.274
82795W        W48055  28.077  14.666  13.903
82796W        W48056  36.618  22.204   2.247
82797W        W48057  26.647  10.249   2.348
82798W        W48058  15.842   9.115   0.239
82799W        W48059   5.937  22.999   3.095
82800W        W48060  28.498  33.019   3.104
82801W        W48061   7.166  14.626   2.704
82802W        W48062  30.410  36.577  13.888
82803W        W48063  15.450  14.838  12.527
82804W        W48064  37.132  29.660   0.100
82805W        W48065  11.725   3.261   2.149
82806W        W48066  32.227  23.026   0.320
82807W        W48067  20.567  20.847  13.170
82808W        W48068   3.792  32.005   2.754
82809W        W48069  25.421   8.991   0.890
82810W        W48070   3.810  30.007   0.084
82811W        W48071  26.937   0.593   2.719
82812W        W48072   2.764   1.848   4.523
82813W        W48073   7.233  21.566   1.938
82814W        W48074  20.427  20.968   2.508
82815W        W48075  38.864  21.499  14.648
82816W        W48076  30.159  21.346  10.992
82817W        W48077  16.733  36.234  12.170
82818W        W48078  41.815  14.279  13.858
82819W        W48079  22.635  26.439  12.060
82820W        W48080   2.050  37.105  14.417
82821W        W48081   9.297  36.526  10.531
82822W        W48082  23.163  34.637  10.261
82823W        W48083  14.321  41.294   0.233
82824W        W48084  44.553  15.081  12.460
82825W        W48085   3.252  36.120  14.448
82826W        W48086  33.956  15.249  12.505
82827W        W48087  30.876  28.718   3.839
82828W        W48088  38.157  40.822  10.700
82829W        W48089  23.490  15.413   3.688
82830W        W48090  14.965  32.141  11.411
82831W        W48091  26.065  16.132  11.187
82832W        W48092   1.845   7.735  14.591
82833W        W48093   8.653   3.937  13.241
82834W        W48094  33.967   9.398   1.245
82835W        W48095  38.977  15.642   3.343
82836W        W48096  27.084  31.406   2.312
82837W        W48097  28.633  23.504  12.406
82838W        W48098   4.217  20.209   2.310
82839W        W48099   5.674   1.927   2.321
82840W        W48100  11.512   6.693   3.737
82841W        W48101  36.046  32.035   1.091
82842W        W48102  15.203  38.946   2.007
82843W        W48103   6.841  29.157  13.036
82844W        W48104  35.140  33.059  11.170
82845W        W48105  40.025  10.865  13.806
82846W        W48106  34.286  16.681  14.935
82847W        W48107  39.489   4.252   2.611
82848W        W48108  30.538  33.684   1.867
82849W        W48109  10.960  29.883   4.226
82850W        W48110   9.463  38.899  14.913
82851W        W48111   4.331  30.556   2.260
82852W        W48112   3.356  39.404  11.464
82853W        W48113  39.873  44.774  10.649
82854W        W48114  10.724  28.554  12.867
82855W        W48115  26.070  25.735  13.940
82856W        W48116   4.062   3.825   1.440
82857W        W48117  27.224   3.634   5.030
82858W        W48118  15.551   2.200  11.462
82859W        W48119  25.697  21.063  14.844
82860W        W48120  38.416  38.129  11.168
82861W        W48121   0.813  41.148  12.666
82862W        W48122   7.147  24.484   0.268
82863W        W48123  33.016  31.843  12.405
82864W        W48124  36.042  44.059   1.465
82865W        W48125   5.388  16.132   0.990
82866W        W48126  29.825  16.183   3.276
82867W        W48127  12.624  26.325  10.796
82868W        W48128  26.168   6.427  11.222
82869W        W48129  33.849  25.572  13.384
82870W        W48130  40.976   4.291   3.539
82871W        W48131  32.695  37.780  11.508
82872W        W48132   5.534  28.900  12.505
82873W        W48133   7.191   2.997  13.074
82874W        W48134  29.278  18.249   4.682
82875W        W48135  10.136  22.692   1.319
82876W        W48136  25.101  22.992  12.040
82877W        W48137  13.169  20.741  12.922
82878W        W48138   0.377  32.663   0.466
82879W        W48139  33.608  29.507   2.156
82880W        W48140  43.995  25.770   2.618
82881W        W48141  15.775  41.101  13.294
82882W        W48142  27.968  41.324  10.397
82883W        W48143  18.467  37.145  13.335
82884W        W48144   6.820   7.817  14.617
82885W        W48145  32.162  41.350  14.989
82886W        W48146  31.894  10.894  10.941
82887W        W48147  10.102  21.122   4.412
82888W        W48148   9.254  34.956  14.008
82889W        W48149  23.256  30.927  13.025
82890W        W48150  20.926  28.394  11.070
82891W        W48151  10.978   2.655   4.090
82892W        W48152  11.160  43.992   4.297
82893W        W48153  18.287  43.750  12.738
82894W        W48154  13.991   1.168   3.618
82895W        W48155   1.760   6.570  11.203
82896W        W48156   5.716  35.322   4.383
82897W        W48157   0.384  44.002   3.370
82898W        W48158  22.198  39.559  13.648
82899W        W48159   5.118   9.848  10.825
82900W        W48160  19.355  32.106  14.508
82901W        W48161   4.260  20.935  12.884
82902W        W48162  22.656  32.877   2.556
82903W        W48163  16.959  26.728  13.743
82904W        W48164  37.722  41.057   2.118
82905W        W48165  37.603  39.520  12.824
82906W        W48166  23.039  23.577   1.830
82907W        W48167  34.503  44.791  12.707
82908W        W48168  41.386  15.337  11.185
82909W        W48169   4.145  16.209   1.199
82910W        W48170  24.213  39.230  11.183
82911W        W48171  12.579  34.421  14.198
82912W        W48172  11.227  23.974   0.261
82913W        W48173   1.686  24.864  10.842
82914W        W48174  28.859  10.196  13.353
82915W        W48175  11.906  23.973   1.864
82916W        W48176  42.082  13.828  14.858
82917W        W48177  37.399   1.506  11.246
82918W        W48178  17.010  41.639  13.189
82919W        W48179  10.851  14.857   2.188
82920W        W48180  41.843  29.077  10.646
82921W        W48181   1.540   1.732  10.837
82922W        W48182  15.114  41.093  12.922
82923W        W48183  13.177  31.865  10.118
82924W        W48184   3.912  30.422  12.099
82925W        W48185  21.571  10.208   9.995
82926W        W48186  30.420  18.097   0.703
82927W        W48187   2.409   1.381  14.815
82928W        W48188  11.051  30.221  10.834
82929W        W48189  23.701   0.376   4.608
82930W        W48190  31.194  34.430  10.548
82931W        W48191  23.489  41.751  13.638
82932W        W48192  23.933  32.161   4.327
82933W        W48193  29.358  27.193   4.374
82934W        W48194   0.716   3.301   3.718
82935W        W48195  26.938  35.362   2.910
82936W        W48196  25.560  28.108   1.632
82937W        W48197   3.846  32.970  11.151
82938W        W48198  26.999  23.360   4.028
82939W        W48199  25.236  36.991  13.391
82940W        W48200   0.885  42.695  11.100
82941W        W48201  25.592  40.595   3.722
82942W        W48202  38.161  25.624   3.128
82943W        W48203  35.690  42.862  14.786
82944W        W48204  35.595  10.670   2.187
82945W        W48205  11.180   8.915  14.000
82946W        W48206  28.688  21.142   4.993
82947W        W48207  26.022  22.672   0.680
82948W        W48208  36.016  14.285  13.034
82949W        W48209  14.897   3.426   0.463
82950W        W48210   8.228  28.613   3.815
82951W        W48211   8.304   0.035   2.245
82952W        W48212  33.180  12.688   0.280
82953W        W48213  28.010  17.196   2.352
82954W        W48214   5.773  29.019   0.112
82955W        W48215   8.328  44.158  12.847
82956W        W48216   6.297  35.258   0.511
82957W        W48217  19.031  22.094   0.907
82958W        W48218  37.090  25.091  13.485
82959W        W48219   5.447   3.847  12.154
82960W        W48220  25.409  28.720   0.934
82961W        W48221   3.704   4.164  11.905
82962W        W48222  29.924   0.448  11.429
82963W        W48223  26.478  35.467   2.675
82964W        W48224  29.589  15.190   0.301
82965W        W48225  42.172  15.090  11.154
82966W        W48226   8.709  16.330  12.610
82967W        W48227  35.572  24.150   2.111
82968W        W48228   6.442  30.934   4.045
82969W        W48229  18.163   8.416  13.876
82970W        W48230  26.945  10.677   0.201
82971W        W48231  13.800  30.383   1.479
82972W        W48232   0.874  22.287  12.059
82973W        W48233  13.259   3.020  12.913
82974W        W48234  23.165  34.872  10.707
82975W        W48235  27.534  34.014  10.632
82976W        W48236  16.766   9.092   3.111
82977W        W48237  18.955   4.236   4.764
82978W        W48238   6.425   3.327   2.771
82979W        W48239  27.416  27.811  12.955
82980W        W48240  38.580   7.564   2.455
82981W        W48241  17.612  31.406   2.461
82982W        W48242   7.336   5.438  11.912
82983W        W48243  40.067  26.260   0.309
82984W        W48244  27.132   5.688  13.093
82985W        W48245   1.950  27.580   5.272
82986W        W48246   4.441  14.111  11.606
82987W        W48247  12.844   0.152   3.685
82988W        W48248  10.104  27.412  12.738
82989W        W48249  10.708  17.867  14.372
82990W        W48250  25.492  23.993   4.250
82991W        W48251  15.796  10.895  11.469
82992W        W48252  41.559  24.009  13.027
82993W        W48253  16.837   2.324   5.062
82994W        W48254  34.607  24.102  14.411
82995W        W48255  23.088  29.689   3.944
82996W        W48256  22.685   5.170   0.383
82997W        W48257  12.365  24.069   4.527
82998W        W48258  43.516  22.087   3.429
82999W        W48259   8.795   0.335   0.875
83000W        W48260   2.537  34.194   0.422
83001W        W48261  39.765   9.434   4.615
83002W        W48262   2.368  27.127  11.689
83003W        W48263  41.803  34.504  10.440
83004W        W48264  16.311  36.970  14.465
83005W        W48265  16.488  33.617  12.870
83006W        W48266  14.307   6.348  11.737
83007W        W48267  36.510  27.240  14.941
83008W        W48268   4.292  13.297  14.513
83009W        W48269  16.231   1.449  13.417
83010W        W48270  37.001  15.333   1.570
83011W        W48271  15.338  16.694  11.634
83012W        W48272  31.340  21.483  11.484
83013W        W48273  37.081  40.793  11.895
83014W        W48274   5.834  16.805   3.152
83015W        W48275   5.419  38.388   1.659
83016W        W48276  31.132  41.919   3.656
83017W        W48277  35.804  12.779   3.333
83018W        W48278  31.426   5.063   3.259
83019W        W48279   0.280  43.032  10.710
83020W        W48280  31.440  27.523  14.436
83021W        W48281  38.468  28.475  12.243
83022W        W48282  36.843  38.276   0.309
83023W        W48283  43.401   3.843   4.491
83024W        W48284   8.781  19.709  13.359
83025W        W48285   4.713  29.102  12.016
83026W        W48286  39.917  40.334   3.675
83027W        W48287   7.273   4.179  10.470
83028W        W48288  26.095  34.464   3.307
83029W        W48289  44.339  25.555  11.451
83030W        W48290  14.269  24.541   4.552
83031W        W48291  27.253  26.946   0.802
83032W        W48292  23.013  42.958   0.850
83033W        W48293  29.284  14.645  10.799
83034W        W48294  39.811  10.744   3.519
83035W        W48295  21.614  43.602   0.278
83036W        W48296  30.767   7.781   2.331
83037W        W48297   5.603  20.939  12.092
83038W        W48298   5.766  17.757   0.654
83039W        W48299  26.032  22.109   1.985
83040W        W48300  26.227  43.084  11.175
83041W        W48301  12.228  32.487   1.963
83042W        W48302   7.779   2.122  10.777
83043W        W48303  39.611   4.870  11.068
83044W        W48304  12.637  39.856  11.470
83045W        W48305   1.520  37.059   3.014
83046W        W48306  30.419   5.876   3.154
83047W        W48307  26.813  33.677   2.391
83048W        W48308  43.400  44.123  10.744
83049W        W48309  10.723  15.742   1.701
83050W        W48310  35.072  14.675  10.680
83051W        W48311  21.485  11.375  11.497
83052W        W48312  18.290  23.756   1.925
83053W        W48313   0.272   5.920   0.302
83054W        W48314  17.007  17.264  11.116
83055W        W48315   9.416  39.339  10.529
83056W        W48316   8.606  14.863   1.344
83057W        W48317  31.967   8.428   1.921
83058W        W48318  39.943   1.220   3.854
83059W        W48319  14.607  28.519  13.101
83060W        W48320  17.787  35.265   4.141
83061W        W48321  28.914   3.587  13.513
83062W        W48322   4.466  26.135  14.262
83063W        W48323  31.361  21.596   4.638
83064W        W48324  31.965  43.779  14.775
83065W        W48325  22.107  38.486  14.800
83066W        W48326  26.965  10.636   4.841
83067W        W48327  36.075  19.008   1.862
83068W        W48328  15.681  43.863   0.915
83069W        W48329  29.341   8.570   2.705
83070W        W48330  15.119   6.353  13.479
83071W        W48331  25.336  19.746  10.784
83072W        W48332  33.535  21.776   0.985
83073W        W48333  10.722  30.424  14.842
83074W        W48334  34.114  39.977   0.854
83075W        W48335  20.509  44.233  13.364
83076W        W48336  31.438  30.734  13.918
83077W        W48337  31.223   7.615  11.066
83078W        W48338  29.547   7.880   1.887
83079W        W48339  17.152   3.917   0.016
83080W        W48340  27.766   9.192  10.707
83081W        W48341  40.035  15.754  13.898
83082W        W48342   1.129  43.602   0.724
83083W        W48343   9.858  42.888  10.668
83084W        W48344   6.714  41.250   4.158
83085W        W48345  27.056   5.648   0.371
83086W        W48346  21.018  32.089   3.280
83087W        W48347  13.343  41.843   2.173
83088W        W48348  15.698  12.232  12.477
83089W        W48349  11.544  39.122   1.762
83090W        W48350  40.272  30.962   3.772
83091W        W48351   0.494   1.891  13.459
83092W        W48352  39.441  17.562   0.183
83093W        W48353  26.554  44.760   2.128
83094W        W48354   3.896  38.401   1.788
83095W        W48355  15.249  29.542  10.730
83096W        W48356   4.939  20.846  14.199
83097W        W48357  17.263  37.073  14.308
83098W        W48358  26.247  24.497   3.074
83099W        W48359  29.489   0.194   3.090
83100W        W48360  17.089   1.005  12.100
83101W        W48361  11.774  15.103   3.368
83102W        W48362  22.299  20.019  11.578
83103W        W48363  22.373  11.864  12.581
83104W        W48364   6.492  22.482  13.414
83105W        W48365  39.869  29.170   1.714
83106W        W48366  17.337  25.902   0.218
83107W        W48367  10.691  12.650  14.314
83108W        W48368  38.318  38.037   1.888
83109W        W48369  39.086  39.557  10.185
83110W        W48370  15.036  26.021   0.446
83111W        W48371  32.153  30.450   4.140
83112W        W48372   4.410  40.392   2.434
83113W        W48373  10.716   5.690  10.723
83114W        W48374  28.163   6.224   3.186
83115W        W48375  28.228  35.762   1.421
83116W        W48376  41.245  38.428   1.204
83117W        W48377   5.733  42.511  12.626
83118W        W48378   0.874  22.074  12.568
83119W        W48379  38.943  33.275  10.748
83120W        W48380   8.140  26.060  13.163
83121W        W48381   2.063  32.819  13.380
83122W        W48382   9.215  40.504  12.122
83123W        W48383   5.698  20.277  10.598
83124W        W48384   0.820  38.256  13.260
83125W        W48385  25.662  21.223   5.065
83126W        W48386  27.699  14.676  10.467
83127W        W48387  34.833  10.370  12.923
83128W        W48388  28.233   9.783   0.771
83129W        W48389  43.907  22.071   0.496
83130W        W48390  37.939   4.471  11.526
83131W        W48391  34.893  21.713   4.344
83132W        W48392  41.961  12.008   2.533
83133W        W48393  36.493  30.415   1.259
83134W        W48394  43.246  35.515   2.862
83135W        W48395  39.797  25.164  10.687
83136W        W48396  12.726  43.421  11.485
83137W        W48397  23.117  31.135  11.560
83138W        W48398  36.976  20.715   3.751
83139W        W48399  39.837  13.116   0.948
83140W        W48400  18.333  31.246   1.799
83141W        W48401   3.014   0.014   3.629
83142W        W48402  16.023  21.282  12.430
83143W        W48403  20.303  23.642   3.724
83144W        W48404  24.111  37.454  14.794
83145W        W48405  18.206  10.303  14.329
83146W        W48406  10.217  38.201  11.376
83147W        W48407   4.024  41.856   1.294
83148W        W48408  18.605  25.312   2.345
83149W        W48409   3.690  19.188   4.239
83150W        W48410  29.425  22.777  12.211
83151W        W48411  11.123   3.409   0.948
83152W        W48412  20.115   1.721   2.450
83153W        W48413   2.276   2.944   4.197
83154W        W48414  28.630  30.909   1.340
83155W        W48415  34.904  40.342  12.621
83156W        W48416   7.029  30.185  10.129
83157W        W48417  39.397  35.977  12.320
83158W        W48418  25.646   4.799   5.026
83159W        W48419  20.682  26.882  13.923
83160W        W48420  20.579  36.142  13.006
83161W        W48421  14.593  16.189   3.606
83162W        W48422  42.031   4.736  12.924
83163W        W48423  27.460   5.306  12.008
83164W        W48424  29.046   2.407  14.464
83165W        W48425  14.843   4.228  13.469
83166W        W48426  38.147  19.079   4.718
83167W        W48427  25.154  26.588   0.328
83168W        W48428  42.310  42.871  11.954
83169W        W48429  25.445  13.135  10.924
83170W        W48430  31.125  28.467  14.377
83171W        W48431  39.574  32.379  12.970
83172W        W48432  11.425   4.712  12.306
83173W        W48433  27.050  36.939   1.674
83174W        W48434  18.861   0.297  12.453
83175W        W48435  40.982  31.208  12.359
83176W        W48436   9.584  39.803  10.773
83177W        W48437  43.815  27.103  13.458
83178W        W48438   3.338  29.438  12.991
83179W        W48439   3.688   8.236   0.716
83180W        W48440   7.558  40.133   2.810
83181W        W48441  18.667  33.308   1.911
83182W        W48442   9.952  40.761   3.393
83183W        W48443   1.948  15.404   1.322
83184W        W48444  14.837   0.356   1.892
83185W        W48445  43.510   4.827  13.546
83186W        W48446  40.357  30.393   4.538
83187W        W48447   4.550  35.039   3.497
83188W        W48448  41.243   9.181  12.607
83189W        W48449  25.222   9.637   1.422
83190W        W48450  35.948  31.571  10.945
83191W        W48451   4.706  16.748  10.633
83192W        W48452  43.620  24.483   0.432
83193W        W48453  34.969  19.207   4.651
83194W        W48454   0.404  24.696   0.230
83195W        W48455  15.842  15.662   0.438
83196W        W48456  20.974  30.421  11.123
83197W        W48457  10.022   1.723  11.165
83198W        W48458  22.418  27.101  14.475
83199W        W48459  29.561  30.479  12.038
83200W        W48460  21.696  18.229   0.798
83201W        W48461   5.462   5.536   0.850
83202W        W48462  11.821   4.446  13.705
83203W        W48463  18.262  41.938   0.216
83204W        W48464   7.441  25.964  10.177
83205W        W48465  36.126   6.882   1.737
83206W        W48466  10.306   3.521   0.125
83207W        W48467  29.614  42.731   2.095
83208W        W48468  43.309  23.128   4.549
83209W        W48469  27.426  25.094   2.484
83210W        W48470   8.890  20.727   2.832
83211W        W48471  42.331  20.439   4.492
83212W        W48472  44.283  33.073  11.467
83213W        W48473   4.741  30.910  10.636
83214W        W48474  33.927  43.304  11.086
83215W        W48475  41.514  31.309  11.599
83216W        W48476  42.128  40.008  13.019
83217W        W48477  40.535  31.631  14.471
83218W        W48478  16.414  27.589  12.394
83219W        W48479   6.363   5.891  14.574
83220W        W48480  43.957  28.630  14.284
83221W        W48481  44.744  25.623  11.764
83222W        W48482  40.783   5.182  13.084
83223W        W48483  44.099  28.309  10.645
83224W        W48484   3.542   5.615   1.731
83225W        W48485  29.103  41.510  11.666
83226W        W48486  29.982  43.598   0.871
83227W        W48487  31.602  35.369  12.517
83228W        W48488  29.351  39.809   1.934
83229W        W48489  36.442  20.705   2.188
83230W        W48490   6.536  23.027  13.404
83231W        W48491  44.769  22.488   3.128
83232W        W48492   0.303  14.942   3.333
83233W        W48493   1.016   9.661   1.426
83234W        W48494   8.554  34.499   2.364
83235W        W48495  11.844   4.942   4.169
83236W        W48496  38.302   5.830  12.935
83237W        W48497  17.692  37.930   0.975
83238W        W48498  26.895  41.256   4.583
83239W        W48499  41.823  40.581  11.898
83240W        W48500   8.274   2.493   1.923
83241W        W48501  34.355  35.632   4.082
83242W        W48502  15.843  17.434   3.892
83243W        W48503   5.706  37.039   1.388
83244W        W48504   3.764  18.308   1.706
83245W        W48505   3.285  35.857  10.705
83246W        W48506  29.426  37.715   2.759
83247W        W48507  24.011   8.482   4.569
83248W        W48508  11.364   3.905  11.610
83249W        W48509  33.566  41.015  12.843
83250W        W48510   7.592  36.398   5.127
83251W        W48511  28.241  35.720   4.504
83252W        W48512  29.829  14.821  14.983
83253W        W48513  42.149  43.266   2.904
83254W        W48514  13.783  15.624   4.001
83255W        W48515  24.166  36.431  14.837
83256W        W48516  21.415  23.077  11.971
83257W        W48517  20.186  39.765   3.401
83258W        W48518   4.914  29.271   4.098
83259W        W48519  13.210   5.662   1.786
83260W        W48520  16.182  19.157  10.665
83261W        W48521  43.987   7.672  13.372
83262W        W48522   1.882  37.618   1.222
83263W        W48523  25.868  20.321   0.314
83264W        W48524  20.466  41.362  11.381
83265W        W48525  20.361  43.365   0.463
83266W        W48526  27.741  38.492  13.612
83267W        W48527  12.934  31.958  11.639
83268W        W48528  25.528  30.785  14.012
83269W        W48529  17.046  26.666   4.693
83270W        W48530  35.529  39.580  14.197
83271W        W48531  42.811  23.260   0.053
83272W        W48532  43.360  28.215  12.163
83273W        W48533  13.730  36.474  12.407
83274W        W48534   1.834  35.061  14.843
83275W        W48535  35.922  19.304  13.439
83276W        W48536   6.685  13.693   4.707
83277W        W48537  30.427  37.802   1.634
83278W        W48538   6.321  11.362  13.054
83279W        W48539  30.659   3.287   4.055
83280W        W48540  27.761   2.980   1.337
83281W        W48541  25.864  34.289  11.623
83282W        W48542  29.071  43.884  14.041
83283W        W48543  25.640  37.327   3.306
83284W        W48544   9.171  25.212  13.998
83285W        W48545   5.327  30.484  13.814
83286W        W48546   6.453  33.020   0.685
83287W        W48547   4.400  40.565  11.484
83288W        W48548  27.388  32.617   0.283
83289W        W48549  33.350  21.148   2.729
83290W        W48550   6.608   9.373   0.906
83291W        W48551  25.558   3.491  13.089
83292W        W48552  12.166  26.523   2.839
83293W        W48553  10.229  41.359   1.395
83294W        W48554  39.738  28.607   0.849
83295W        W48555  28.315   9.915  14.403
83296W        W48556  41.554   9.401   2.831
83297W        W48557  21.658  25.296   0.278
83298W        W48558  18.227  13.393   4.905
83299W        W48559  13.479  33.886  14.855
83300W        W48560  20.449   8.875  14.273
83301W        W48561  21.743  20.098  14.969
83302W        W48562  27.902  15.312   0.820
83303W        W48563   2.711   5.823  11.634
83304W        W48564   1.864  25.342  13.976
83305W        W48565  12.514  27.999  13.876
83306W        W48566  34.185  30.798   3.783
83307W        W48567  12.228  31.135   4.552
83308W        W48568   1.648  37.982  13.818
83309W        W48569  22.132  33.573   1.621
83310W        W48570   7.063  37.104   3.663
83311W        W48571  39.261  16.075  10.868
83312W        W48572  29.978  29.630  11.597
83313W        W48573  43.094  43.556   0.474
83314W        W48574  25.108  30.379   1.603
83315W        W48575   5.909  12.114   3.656
83316W        W48576   8.553  38.551  14.800
83317W        W48577  23.945  24.903   9.714
83318W        W48578  43.229   6.725   3.773
83319W        W48579  32.507  13.389  12.053
83320W        W48580  30.855  27.427   2.319
83321W        W48581   5.151  28.482  10.741
83322W        W48582  26.943   7.602  14.777
83323W        W48583   0.780  38.965   3.924
83324W        W48584  13.335  16.494  13.061
83325W        W48585  10.612   3.900   1.485
83326W        W48586  32.129  43.784   4.809
83327W        W48587  11.340  36.338   4.191
83328W        W48588   7.215  33.836   3.276
83329W        W48589  14.282  40.480   4.396
83330W        W48590   3.491   4.455  11.548
83331W        W48591  33.427  43.312  11.956
83332W        W48592   5.379  10.119  11.175
83333W        W48593  20.933  24.101  14.082
83334W        W48594  17.015   3.094   0.161
83335W        W48595  27.252   6.282  14.726
83336W        W48596  11.278  13.894  11.480
83337W        W48597  33.086   1.970  13.155
83338W        W48598  38.543   3.428  12.782
83339W        W48599  28.977  34.922   3.044
83340W        W48600   8.189  23.074   4.742
83341W        W48601   3.101  28.050   4.603
83342W        W48602  16.318  42.140   0.469
83343W        W48603  30.206  37.319   3.131
83344W        W48604  15.907  32.916   0.502
83345W        W48605   9.141  30.272   1.816
83346W        W48606  25.893   2.782  11.239
83347W        W48607   8.632   8.978  11.676
83348W        W48608   8.764  34.304   4.729
83349W        W48609  30.916  12.422  10.701
83350W        W48610  35.678  17.143  10.751
83351W        W48611  33.201  31.700   1.442
83352W        W48612   6.906  30.492   3.379
83353W        W48613   8.817  19.261  11.483
83354W        W48614  29.285  22.284  12.080
83355W        W48615  18.088  17.336   3.625
83356W        W48616  39.172  21.558   2.427
83357W        W48617  24.776  26.175   1.726
83358W        W48618  28.487  33.087   0.268
83359W        W48619  33.349  23.226  13.488
83360W        W48620  14.048   4.408  13.938
83361W        W48621  22.484  12.765   0.680
83362W        W48622  35.432  26.516   3.729
83363W        W48623   3.974  22.737   3.234
83364W        W48624  18.954  37.555  10.965
83365W        W48625  30.152  17.578   1.953
83366W        W48626  19.580  30.395   2.082
83367W        W48627   9.692   1.024   4.465
83368W        W48628   7.214   6.013  13.358
83369W        W48629   9.007  33.323   3.280
83370W        W48630  28.451  42.719  11.068
83371W        W48631   2.258  40.058  12.643
83372W        W48632  10.988  18.783  14.778
83373W        W48633  31.701  35.358   0.503
83374W        W48634  32.846  20.759  10.609
83375W        W48635  36.012   2.476   3.736
83376W        W48636   3.758  18.746  12.564
83377W        W48637  40.538  32.529   4.312
83378W        W48638  15.027   8.857  10.497
83379W        W48639  24.020  36.380  12.100
83380W        W48640  34.139  23.435  12.865
83381W        W48641  14.331   5.503  14.795
83382W        W48642  23.641  18.797  12.143
83383W        W48643  38.290  26.031  13.402
83384W        W48644  38.938  31.954   4.848
83385W        W48645  21.200  27.093  10.731
83386W        W48646  36.438  25.109  10.417
83387W        W48647   6.607   3.588  10.667
83388W        W48648  24.063   7.013  13.410
83389W        W48649   0.906  44.481  13.769
83390W        W48650  12.280   6.739  13.277
83391W        W48651   6.604  29.943  12.638
83392W        W48652  44.244  25.357   1.258
83393W        W48653  42.051   0.363  10.650
83394W        W48654  34.515   7.337  10.755
83395W        W48655  29.814  25.861   0.274
83396W        W48656  33.963  28.253  13.059
83397W        W48657  32.099  16.117  13.932
83398W        W48658  17.325  40.894  12.520
83399W        W48659  21.045   2.296   1.800
83400W        W48660   1.733  14.743  10.760
83401W        W48661  15.639  18.902  12.989
83402W        W48662   0.378  33.985  10.971
83403W        W48663  12.974   0.313  12.089
83404W        W48664   8.445  41.521   2.783
83405W        W48665  17.809  10.313   1.853
83406W        W48666  34.942  37.086   4.962
83407W        W48667   6.350  15.129   0.436
83408W        W48668  34.277  17.984  13.134
83409W        W48669  18.145  24.342   2.951
83410W        W48670  17.803  37.583   1.733
83411W        W48671  29.609  18.248  11.539
83412W        W48672   7.995  14.880  12.097
83413W        W48673  26.222   2.897  10.173
83414W        W48674  16.773   3.943   2.305
83415W        W48675  13.530  12.865   0.001
83416W        W48676   0.902  43.911  10.669
83417W        W48677  37.340   3.540   0.415
83418W        W48678  36.490  27.691  11.013
83419W        W48679  30.918  10.656   1.418
83420W        W48680  24.907  31.498   2.904
83421W        W48681   6.269  18.528   1.204
83422W        W48682  40.075  14.193  14.989
83423W        W48683  37.993   0.913  11.871
83424W        W48684  28.137  43.941  14.436
83425W        W48685  19.686  40.576   2.890
83426W        W48686  36.366  16.104  14.841
83427W        W48687   2.358   5.206   2.173
83428W        W48688  42.671  21.124   2.655
83429W        W48689  32.242  18.680   4.536
83430W        W48690   5.846   7.119  11.536
83431W        W48691  35.841  30.140   4.581
83432W        W48692  23.014  31.028  10.620
83433W        W48693  19.543   7.668  14.791
83434W        W48694   3.241  14.325  10.465
83435W        W48695  44.024  22.668   0.809
83436W        W48696  36.930  11.325  14.989
83437W        W48697  33.939  34.880   4.316
83438W        W48698  10.211  19.039  12.235
83439W        W48699  14.782   6.141   3.224
83440W        W48700  42.230  27.426   4.503
83441W        W48701   4.377   4.013   1.808
83442W        W48702  12.572  29.194   0.322
83443W        W48703   4.235  14.170  12.464
83444W        W48704   4.796  36.330   0.775
83445W        W48705  40.330  15.263   1.202
83446W        W48706  43.458  14.413  14.232
83447W        W48707  37.929   7.782  10.847
83448W        W48708   4.209  12.884  12.067
83449W        W48709  38.510  13.346   3.974
83450W        W48710  44.240  16.394  13.748
83451W        W48711  13.172   1.935  14.318
83452W        W48712   0.914  31.999   3.031
83453W        W48713  43.256  23.263  10.554
83454W        W48714  43.541  22.215  12.549
83455W        W48715  29.415  21.931  13.794
83456W        W48716   7.288  15.340  11.661
83457W        W48717   6.361  33.828   0.334
83458W        W48718  11.897  29.074   0.796
83459W        W48719  33.845  29.142   1.750
83460W        W48720   4.284  18.257   0.049
83461W        W48721  38.005  36.608   1.271
83462W        W48722  44.716  11.824  12.271
83463W        W48723  44.398  40.577   4.632
83464W        W48724  44.843  10.801  14.208
83465W        W48725  28.975  19.215   3.491
83466W        W48726  17.211   1.977  11.276
83467W        W48727   0.256  17.751   2.223
83468W        W48728   9.517  30.420  12.364
83469W        W48729   1.193  31.872   4.359
83470W        W48730  25.703   7.131  10.931
83471W        W48731  17.799  23.192  11.404
83472W        W48732  25.972  11.175   0.425
83473W        W48733  29.096  29.886   2.731
83474W        W48734  32.613   2.914  14.922
83475W        W48735  24.720  30.079   0.710
83476W        W48736  14.816  17.627   2.836
83477W        W48737  44.033  27.115  14.449
83478W        W48738  44.798  35.163   1.685
83479W        W48739  17.674  20.181   2.233
83480W        W48740  26.435  11.816  11.632
83481W        W48741   1.075  38.552   3.699
83482W        W48742  34.528  25.918   2.763
83483W        W48743  32.494  17.757  13.627
83484W        W48744  24.477  10.326  11.088
83485W        W48745   9.183   9.356  13.297
83486W        W48746   4.346  20.453  14.773
83487W        W48747  31.361  35.875   4.059
83488W        W48748  43.956  16.078  12.576
83489W        W48749   9.083   8.735  11.708
83490W        W48750   0.749  23.768  11.242
83491W        W48751   5.962  41.529   2.056
83492W        W48752  26.896  15.025   0.768
83493W        W48753  41.850  24.149   0.199
83494W        W48754  20.586   8.113  10.980
83495W        W48755   0.817   6.871  12.995
83496W        W48756  31.838  25.226   1.378
83497W        W48757  12.167  39.302   2.007
83498W        W48758   6.626  29.282   5.137
83499W        W48759  11.172  26.534   1.771
83500W        W48760  40.210  21.673  11.172
83501W        W48761   0.380  28.647  14.484
83502W        W48762  35.493  38.066   4.357
83503W        W48763  25.097  35.075   1.865
83504W        W48764   6.076  18.466  14.758
83505W        W48765  36.532   3.234  10.835
83506W        W48766  34.818  40.741   2.280
83507W        W48767   4.890  38.864  10.151
83508W        W48768  42.407   8.443   2.497
83509W        W48769  30.646  10.970   1.702
83510W        W48770  13.589   3.510   2.748
83511W        W48771  17.119  37.262   0.888
83512W        W48772  27.048  11.885   0.973
83513W        W48773  13.653  40.842   2.788
83514W        W48774  39.016   2.610   1.901
83515W        W48775  43.822   3.813  11.224
83516W        W48776  20.250   5.654   2.246
83517W        W48777   2.809   0.911  13.101
83518W        W48778  18.600  30.985  10.375
83519W        W48779  31.472   5.947   1.740
83520W        W48780  29.967   6.324   0.226
83521W        W48781  37.413  23.587  12.398
83522W        W48782  10.333   8.880  14.557
83523W        W48783  38.319   4.447   0.917
83524W        W48784  26.519  33.853  12.136
83525W        W48785   3.234  18.324  12.139
83526W        W48786  21.317   8.090  11.049
83527W        W48787  31.927  29.137   0.314
83528W        W48788  30.435   1.512  12.132
83529W        W48789  36.703  29.683  11.205
83530W        W48790  27.502  28.155  13.377
83531W        W48791   0.480  42.535  14.879
83532W        W48792  16.811   0.034   2.782
83533W        W48793  10.250   4.831   3.701
83534W        W48794  16.346  41.684   4.969
83535W        W48795  44.566  10.240   1.434
83536W        W48796  39.422  32.416  14.322
83537W        W48797  14.539  22.637  10.290
83538W        W48798  15.026   2.731   0.490
83539W        W48799  42.419  41.026  14.846
83540W        W48800  42.931  31.469  12.498
83541W        W48801  22.684  28.156   2.321
83542W        W48802  27.964  27.435  14.782
83543W        W48803  28.998  10.723  13.452
83544W        W48804  14.533  42.632   3.172
83545W        W48805   5.825  35.389   4.891
83546W        W48806  34.298   4.336  12.590
83547W        W48807   2.372  29.960   3.381
83548W        W48808   5.109  24.523   0.419
83549W        W48809   2.990   2.503   3.820
83550W        W48810  39.825  38.807  11.984
83551W        W48811  24.255  44.469  13.588
83552W        W48812  14.229  38.821   0.974
83553W        W48813  20.992  30.968  10.775
83554W        W48814  25.565   4.806   0.808
83555W        W48815  29.575   9.619  12.625
83556W        W48816  31.486  21.996  10.225
83557W        W48817   0.496  27.539   0.332
83558W        W48818  15.474  37.962  12.409
83559W        W48819  37.859  16.137  13.588
83560W        W48820  24.151  13.230  12.529
83561W        W48821  16.549  17.955  13.366
83562W        W48822  20.546  10.911   2.232
83563W        W48823   2.108   8.608   5.146
83564W        W48824   1.664  14.254  10.569
83565W        W48825   0.913  15.428  11.112
83566W        W48826   1.376  28.065   0.892
83567W        W48827  42.239  24.795  11.270
83568W        W48828   9.538  29.536  14.799
83569W        W48829   6.476   1.780   4.521
83570W        W48830   7.750  21.020   2.380
83571W        W48831  22.243  25.322   2.766
83572W        W48832  36.659  19.258   2.652
83573W        W48833  16.328   2.248  12.620
83574W        W48834   5.660  29.980   2.879
83575W        W48835  19.773  42.509  14.598
83576W        W48836  37.919  31.313  12.483
83577W        W48837  22.497  29.934   1.910
83578W        W48838  27.927  34.947   1.726
83579W        W48839  13.081  28.768  12.918
83580W        W48840  31.884   5.215  13.158
83581W        W48841  32.415  17.288  11.401
83582W        W48842  14.809  17.518   0.499
83583W        W48843   7.305  28.156   0.577
83584W        W48844  10.807  19.263  14.714
83585W        W48845  29.521  22.042   1.818
83586W        W48846   1.154  16.296  14.889
83587W        W48847   2.373  40.774  13.888
83588W        W48848  26.560  26.553   2.544
83589W        W48849   3.566  22.618   4.069
83590W        W48850  38.964   9.115  14.838
83591W        W48851  16.484  20.700   1.285
83592W        W48852  23.540  44.256   1.358
83593W        W48853  26.455   9.123  13.906
83594W        W48854  26.526  29.969  12.181
83595W        W48855   2.890  23.275   0.341
83596W        W48856   1.851  15.085   1.752
83597W        W48857  23.301  27.991   1.255
83598W        W48858  39.057  26.505  13.399
83599W        W48859   4.149  30.609  11.586
83600W        W48860  35.808  15.802  14.482
83601W        W48861   7.832  18.575   1.626
83602W        W48862   0.891   9.156   3.619
83603W        W48863  11.809   3.446  13.357
83604W        W48864  40.027  17.640  13.591
83605W        W48865  17.827  28.950   3.086
83606W        W48866  21.938  10.455  14.367
83607W        W48867  37.175  20.539   2.839
83608W        W48868  26.277  21.622   1.309
83609W        W48869  14.111   9.428   4.071
83610W        W48870   1.201  19.731   3.212
83611W        W48871  35.433  17.477  12.532
83612W        W48872  34.809   1.497   9.879
83613W        W48873  34.555  36.582   4.391
83614W        W48874  12.538  35.109   2.843
83615W        W48875   2.892  42.360  14.291
83616W        W48876  43.362  32.162   3.144
83617W        W48877  32.454  39.642   3.105
83618W        W48878  10.266  17.312   4.715
83619W        W48879  16.585  14.201  14.506
83620W        W48880  31.258  12.178   0.332
83621W        W48881  39.728  24.856   0.456
83622W        W48882  43.582  14.915  13.279
83623W        W48883  42.215  30.948  10.723
83624W        W48884   7.595  39.206   3.295
83625W        W48885  33.296  30.464  11.005
83626W        W48886  32.888  44.975  11.205
83627W        W48887  24.198  41.313  13.384
83628W        W48888  23.044   1.334   4.581
83629W        W48889  42.740  31.136   0.658
83630W        W48890  44.141   5.875  13.893
83631W        W48891  30.939  41.333   0.653
83632W        W48892  22.179  44.957   1.331
83633W        W48893  26.184  43.888  13.522
83634W        W48894   6.886  35.980  11.089
83635W        W48895  16.249   3.483  14.254
83636W        W48896  44.082  31.466   0.711
83637W        W48897  18.334   0.014   1.238
83638W        W48898  37.870   8.433  12.894
83639W        W48899  33.038  31.082   4.543
83640W        W48900  40.402  29.858  11.648
83641W        W48901  42.072  20.588  10.822
83642W        W48902  15.290   8.377   1.346
83643W        W48903  32.995   5.639  10.591
83644W        W48904  41.388   1.338   3.607
83645W        W48905  42.522   7.825   0.265
83646W        W48906   9.821  40.279  10.700
83647W        W48907  36.515  38.447  14.461
83648W        W48908   0.216  40.783  13.050
83649W        W48909   0.937  41.032  14.024
83650W        W48910  12.176  24.142   0.912
83651W        W48911  41.734   0.868   5.128
83652W        W48912   3.851  37.366   2.204
83653W        W48913  11.216  12.793  11.726
83654W        W48914   6.838  23.588   2.801
83655W        W48915  10.339  33.657  13.820
83656W        W48916  20.279  28.215   2.346
83657W        W48917  11.225  10.884  13.833
83658W        W48918  10.187  35.752  10.233
83659W        W48919  26.161  11.419  11.505
83660W        W48920  24.106  41.376   0.251
83661W        W48921  27.963  27.209  11.504
83662W        W48922  27.279  40.627   0.251
83663W        W48923  22.506   0.747   1.860
83664W        W48924  42.880  36.467  11.060
83665W        W48925  22.687  39.483  10.538
83666W        W48926  15.355  18.706  14.489
83667W        W48927  26.250   8.415   3.244
83668W        W48928   2.512  28.188   0.921
83669W        W48929  39.252   9.822  11.926
83670W        W48930   3.395   1.800   4.874
83671W        W48931  19.171   4.266   2.883
83672W        W48932  11.688  33.522   3.139
83673W        W48933  25.898  37.933  14.304
83674W        W48934  34.415  19.462   2.911
83675W        W48935  38.910  32.473  14.141
83676W        W48936  23.783  42.644   2.200
83677W        W48937  16.589  10.791  13.485
83678W        W48938   9.917  37.816   3.318
83679W        W48939  15.825  37.536  13.771
83680W        W48940  41.209  11.358   2.788
83681W        W48941   0.735  41.885  13.344
83682W        W48942  21.378  25.101  12.965
83683W        W48943  43.478  25.580  11.369
83684W        W48944  33.116   6.652  10.706
83685W        W48945  32.942  42.025   3.655
83686W        W48946  34.548  37.455  13.581
83687W        W48947  18.144  17.722   3.268
83688W        W48948  41.024  34.051  10.375
83689W        W48949  17.129  37.865  14.783
83690W        W48950  35.997  23.699   2.673
83691W        W48951  29.806  31.895   4.308
83692W        W48952  22.285  25.131   1.774
83693W        W48953  24.715   5.942  14.476
83694W        W48954  26.186  22.522  11.083
83695W        W48955  26.035  35.124  12.359
83696W        W48956  29.456   6.901  12.515
83697W        W48957  36.346  13.340   3.810
83698W        W48958   2.247  30.447  13.089
83699W        W48959  22.621  26.143  12.967
83700W        W48960  18.796  33.984   4.607
83701W        W48961  10.665  28.617   4.609
83702W        W48962  38.843  34.549  14.684
83703W        W48963  37.638  13.068   5.011
83704W        W48964  30.172  12.595   2.780
83705W        W48965   0.939  14.718   2.648
83706W        W48966  17.850   6.866   2.798
83707W        W48967  37.113  27.078  11.139
83708W        W48968  30.729  42.992   1.354
83709W        W48969  44.484  22.223  14.507
83710W        W48970  14.485  22.236  14.295
83711W        W48971   2.884  22.740  12.480
83712W        W48972  11.847  29.144  10.746
83713W        W48973   6.342  29.158   3.155
83714W        W48974  12.779  17.784  12.124
83715W        W48975   5.199  44.813   2.791
83716W        W48976   1.906  29.838  12.655
83717W        W48977  28.926  36.814   0.844
83718W        W48978   1.372  39.300  14.568
83719W        W48979  14.159  14.196   3.948
83720W        W48980  38.045  19.799  11.680
83721W        W48981  29.655  41.771   3.749
83722W        W48982  18.497   9.417   3.624
83723W        W48983  21.007  27.561  10.724
83724W        W48984  43.522  15.830   3.074
83725W        W48985  15.701  39.848  10.743
83726W        W48986  38.456   5.712   2.889
83727W        W48987   7.891  25.711  12.617
83728W        W48988  31.411  28.549   1.648
83729W        W48989   0.274  32.562   3.069
83730W        W48990  11.338  31.674  11.580
83731W        W48991  28.869   5.887   2.324
83732W        W48992  22.248  43.504  10.639
83733W        W48993  14.620  42.103   3.145
83734W        W48994  20.231  44.971   4.301
83735W        W48995  36.610  21.272  14.530
83736W        W48996   6.250  11.591   3.835
83737W        W48997  36.796  27.175  13.588
83738W        W48998  31.993  16.113  12.830
83739W        W48999  29.136  31.923  13.546
83740W        W49000  43.009  14.645   2.694
83741W        W49001  10.800  22.699  11.561
83742W        W49002  31.709  20.799   3.362
83743W        W49003  38.569   7.786   1.964
83744W        W49004  44.647   5.416  13.439
83745W        W49005  37.533  42.938   4.798
83746W        W49006  38.971  42.857   1.618
83747W        W49007   5.385   9.864  14.864
83748W        W49008  15.094  24.407   2.281
83749W        W49009  34.624  35.250   4.654
83750W        W49010  23.815  13.890  11.860
83751W        W49011   6.380  43.955   2.209
83752W        W49012  36.902   2.358  10.371
83753W        W49013  12.058  18.198  13.823
83754W        W49014  23.969  10.265   1.784
83755W        W49015  10.043  25.711  13.275
83756W        W49016  17.872   6.772  10.659
83757W        W49017   2.805  38.318  14.810
83758W        W49018  16.324  31.526   1.213
83759W        W49019   4.289   9.634   0.822
83760W        W49020  28.650  25.081  10.628
83761W        W49021  12.229   0.229  12.635
83762W        W49022  42.253  43.738   3.132
83763W        W49023  22.753  20.879  11.989
83764W        W49024  38.897  21.572  11.934
83765W        W49025   0.518  34.048   0.218
83766W        W49026  26.194  16.180  10.697
83767W        W49027  30.609  14.073   1.590
83768W        W49028  36.896   3.779   0.304
83769W        W49029  12.295  21.545  13.793
83770W        W49030  13.752  16.798   1.632
83771W        W49031  11.088  17.108   3.246
83772W        W49032   6.723  19.296  12.815
83773W        W49033  41.809  17.108  11.224
83774W        W49034  38.757  41.880  10.717
83775W        W49035  37.869  14.789  14.996
83776W        W49036  22.134  35.857  13.654
83777W        W49037  34.120   6.410   0.265
83778W        W49038  34.721  10.858   2.760
83779W        W49039  38.288  28.017  11.092
83780W        W49040  28.600  22.071   3.536
83781W        W49041  21.205  30.864  11.218
83782W        W49042  42.177  39.439   4.637
83783W        W49043  28.677  35.113   4.194
83784W        W49044   0.040  34.198   1.104
83785W        W49045   5.336   9.110  12.854
83786W        W49046   1.554  25.654  13.561
83787W        W49047  25.442  32.406  11.596
83788W        W49048   9.747  39.090  13.995
83789W        W49049  26.618  33.573   1.053
83790W        W49050  40.915   7.278   2.609
83791W        W49051  13.409  24.680  11.590
83792W        W49052  30.628   1.766  14.403
83793W        W49053  41.045  19.965  13.245
83794W        W49054  16.343  23.599   0.459
83795W        W49055  25.602  14.803   2.913
83796W        W49056  19.622   9.632   1.339
83797W        W49057  35.792  21.091  12.932
83798W        W49058  12.700   7.905   2.906
83799W        W49059   5.310  39.536   0.486
83800W        W49060  41.016  28.631  13.830
83801W        W49061  12.642  32.216   2.265
83802W        W49062  41.646   4.693  13.328
83803W        W49063  39.978  41.760   4.595
83804W        W49064  19.849  22.435  13.621
83805W        W49065  29.207  20.158  11.114
83806W        W49066  44.519  25.944  12.121
83807W        W49067   5.306  27.166  13.816
83808W        W49068  44.582  27.644   3.671
83809W        W49069   8.309  10.668  12.665
83810W        W49070  33.581  36.135  10.940
83811W        W49071  28.157  31.558  12.278
83812W        W49072  31.381   7.956  14.421
83813W        W49073  25.928   4.284   2.528
83814W        W49074   4.096  14.676  10.724
83815W        W49075   5.935  15.440  14.521
83816W        W49076   3.711  21.818   2.974
83817W        W49077  36.545  29.151   0.918
83818W        W49078   2.946   3.921   4.020
83819W        W49079  31.326  42.338  13.910
83820W        W49080  14.396  10.846  11.631
83821W        W49081  27.792  37.643  11.201
83822W        W49082  22.925  19.045   4.595
83823W        W49083   1.272  29.820  10.156
83824W        W49084  21.466  22.123  10.979
83825W        W49085  26.714  14.506  12.594
83826W        W49086  13.166  33.506   3.407
83827W        W49087  25.006   9.480  14.744
83828W        W49088  38.960   1.905  10.066
83829W        W49089  15.395  41.846   4.447
83830W        W49090  14.677   7.685   1.442
83831W        W49091  31.634  37.607   4.165
83832W        W49092  40.987  27.691  13.638
83833W        W49093  15.763  32.913   4.677
83834W        W49094   3.263  22.663   1.473
83835W        W49095  21.896  22.071  10.126
83836W        W49096   1.859  38.667  10.709
83837W        W49097   0.525  44.446   2.641
83838W        W49098  25.068  20.011  13.113
83839W        W49099  27.183  42.333  14.342
83840W        W49100  12.716  10.389   2.761
83841W        W49101  41.458  25.966  14.018
83842W        W49102  15.103  28.076   1.476
83843W        W49103  40.499   6.668  14.567
83844W        W49104  18.736  36.128   1.837
83845W        W49105   6.215   4.074  11.199
83846W        W49106  19.377   7.604   5.339
83847W        W49107  15.627  23.725   2.157
83848W        W49108  37.606  17.142   4.155
83849W        W49109  34.331  11.271   2.746
83850W        W49110  27.037  21.307   1.468
83851W        W49111  17.930  37.450   0.597
83852W        W49112  29.367  15.188   2.591
83853W        W49113  20.598   9.795  13.635
83854W        W49114  21.185  20.700  11.956
83855W        W49115  21.220  27.523  13.522
83856W        W49116  42.787  30.931  13.073
83857W        W49117   9.336  31.771   2.144
83858W        W49118  28.448   0.682  10.434
83859W        W49119  28.404  25.674   3.212
83860W        W49120  28.495  15.706  14.406
83861W        W49121  13.687  29.330   2.248
83862W        W49122  13.334  22.442  11.751
83863W        W49123  44.233  36.498   4.331
83864W        W49124  11.708  25.606  14.421
83865W        W49125   0.387  33.509   1.978
83866W        W49126  31.532  44.435   3.749
83867W        W49127  37.812  13.353  14.363
83868W        W49128   4.724  26.182  13.386
83869W        W49129  36.112   8.737   2.151
83870W        W49130  10.854  12.238   1.317
83871W        W49131  10.783  34.730   3.540
83872W        W49132   8.180  12.264  12.375
83873W        W49133  16.774  16.163   1.099
83874W        W49134   2.500  43.082  12.119
83875W        W49135  38.864   2.398   5.097
83876W        W49136  25.645  44.431   1.196
83877W        W49137  36.425  21.664  10.549
83878W        W49138   3.834  28.183  12.760
83879W        W49139  24.655  22.202   0.308
83880W        W49140   1.768  21.246  11.090
83881W        W49141  32.647  41.445   0.918
83882W        W49142  23.138  35.568  12.072
83883W        W49143  24.050  34.901   2.657
83884W        W49144   6.697   8.272  14.354
83885W        W49145  36.676   8.634   2.233
83886W        W49146  22.041  38.885   2.258
83887W        W49147   1.094  19.578  10.539
83888W        W49148  37.336  17.585   1.271
83889W        W49149  15.804  10.889   4.139
83890W        W49150  11.453  24.721   1.795
83891W        W49151  16.059  19.458   4.149
83892W        W49152   1.749  15.696  10.387
83893W        W49153  33.619  26.871  14.328
83894W        W49154  42.004  12.659  13.400
83895W        W49155   9.970  39.913   3.699
83896W        W49156   7.522  24.161   0.975
83897W        W49157  32.012  34.084   1.694
83898W        W49158  13.124  17.685   1.871
83899W        W49159   9.828  14.647  10.434
83900W        W49160  44.226  38.350   1.024
83901W        W49161  44.146  30.101  11.134
83902W        W49162  37.617   6.317  13.573
83903W        W49163  14.293   7.430  12.008
83904W        W49164  41.772   2.762   4.863
83905W        W49165  32.880  43.168  14.834
83906W        W49166  27.418  23.109   0.401
83907W        W49167   3.041  29.599  11.361
83908W        W49168  21.600   2.209   2.373
83909W        W49169  17.846  21.905   3.292
83910W        W49170  22.205  23.775  13.713
83911W        W49171   6.125  36.061  13.742
83912W        W49172  37.604  37.464   1.865
83913W        W49173   8.667  21.548   3.987
83914W        W49174  16.733  15.285  12.103
83915W        W49175   0.456   0.832   4.794
83916W        W49176   0.728  15.391   9.819
83917W        W49177  39.341  19.466   2.850
83918W        W49178  30.925  11.096  12.109
83919W        W49179  41.503  17.078  14.271
83920W        W49180   4.548   3.933   1.294
83921W        W49181  11.641  41.323   4.641
83922W        W49182  27.633  38.310   0.418
83923W        W49183  10.872   6.520  12.475
83924W        W49184  23.640  33.484   3.758
83925W        W49185  14.662  20.176   3.320
83926W        W49186  11.724   0.870   2.690
83927W        W49187  31.920  37.457  14.274
83928W        W49188   9.203  38.632  14.511
83929W        W49189   5.517  27.605  10.346
83930W        W49190  34.971  18.254  13.299
83931W        W49191   8.642  26.398  13.810
83932W        W49192   7.274  24.067  14.043
83933W        W49193   5.345  32.947   1.783
83934W        W49194  20.323  18.261  13.657
83935W        W49195  40.730   5.060   2.932
83936W        W49196  21.173  26.636   2.410
83937W        W49197  31.044  18.680   3.248
83938W        W49198  33.732  11.931   5.186
83939W        W49199  19.775  19.096   0.093
83940W        W49200  36.614  13.284   0.758
83941W        W49201   6.258  39.601   2.594
83942W        W49202  41.304  27.004   3.160
83943W        W49203  36.723  43.942  14.953
83944W        W49204  34.067  32.887   2.348
83945W        W49205  32.310  29.619  13.059
83946W        W49206   7.879  31.523   1.825
83947W        W49207  10.676  15.240  12.392
83948W        W49208  31.479  25.355   2.628
83949W        W49209  39.652  43.379   1.288
83950W        W49210  44.807  30.534   1.164
83951W        W49211  27.226  27.562  11.530
83952W        W49212   0.096   2.805   3.219
83953W        W49213   6.919  18.214   3.013
83954W        W49214  37.505   9.329   4.094
83955W        W49215   5.121  33.571   3.056
83956W        W49216   2.241  36.488   0.582
83957W        W49217  42.525  32.257  14.064
83958W        W49218  39.717  24.604   1.706
83959W        W49219  34.075  26.615  13.658
83960W        W49220  38.031  33.425   2.768
83961W        W49221  17.167  14.638   2.086
83962W        W49222  31.015  37.812  13.911
83963W        W49223  33.521   4.669  14.345
83964W        W49224  18.594  10.293   3.697
83965W        W49225  36.129  44.796  11.107
83966W        W49226  15.402  31.090  10.696
83967W        W49227  13.206  42.082   1.386
83968W        W49228  17.474  44.902   3.208
83969W        W49229  39.020  38.033  13.279
83970W        W49230  30.009  32.344   4.571
83971W        W49231  18.077  43.263   4.560
83972W        W49232  23.007  37.843   1.157
83973W        W49233  32.852  14.797   0.841
83974W        W49234   7.715   1.951  14.032
83975W        W49235  37.939   9.557   2.716
83976W        W49236   6.449  10.387   1.650
83977W        W49237   9.000  18.073   3.081
83978W        W49238  19.208  40.317   1.734
83979W        W49239  41.032  10.078   2.340
83980W        W49240  26.647  21.062   0.389
83981W        W49241  21.077  25.244  11.654
83982W        W49242  26.542  21.961   9.615
83983W        W49243  11.887  28.455  11.521
83984W        W49244  42.922  11.892  11.989
83985W        W49245  26.136  39.420  14.464
83986W        W49246   0.084  30.398  12.347
83987W        W49247  29.520  42.592   2.825
83988W        W49248   1.371  10.340   2.745
83989W        W49249  19.922   0.260  11.167
83990W        W49250  27.619  13.658   4.636
83991W        W49251  34.901  30.273  14.390
83992W        W49252  42.916  33.709   4.763
83993W        W49253  39.934   3.918  11.125
83994W        W49254  30.471  19.552   0.758
83995W        W49255   0.916  14.839   2.149
83996W        W49256   8.827  25.805   0.984
83997W        W49257  27.594  41.831   1.892
83998W        W49258  20.151  27.497   0.514
83999W        W49259  26.006  37.013  14.857
84000W        W49260  19.331   4.159  14.360
84001W        W49261  39.686  14.643  11.576
84002W        W49262  20.305  41.233   3.567
84003W        W49263  22.984  23.525   3.693
84004W        W49264  27.145  16.854  14.652
84005W        W49265  20.973  39.908  10.728
84006W        W49266  26.125  11.395   2.356
84007W        W49267  36.144  39.994  11.889
84008W        W49268  17.660  44.682  13.824
84009W        W49269  41.522  25.288  10.705
84010W        W49270  42.850  20.581   1.801
84011W        W49271  30.006   9.936  12.986
84012W        W49272  10.360  44.502   2.818
84013W        W49273   1.845  22.722   1.737
84014W        W49274  18.161  41.224  11.016
84015W        W49275   9.081  32.434   4.185
84016W        W49276  15.728  11.359   0.524
84017W        W49277  16.663  25.392   1.375
84018W        W49278   7.821  15.057   3.330
84019W        W49279  37.829  14.269  14.765
84020W        W49280  26.742   0.332   2.257
84021W        W49281  28.046  27.144   4.286
84022W        W49282  42.907  24.213  10.736
84023W        W49283   5.920  17.948  13.531
84024W        W49284  33.702  30.616   0.690
84025W        W49285  21.470  37.931  14.001
84026W        W49286  18.703  22.481   1.943
84027W        W49287   2.174  42.880   3.570
84028W        W49288   0.552  10.590   5.114
84029W        W49289   8.165  22.556  11.881
84030W        W49290  25.629  24.111  14.787
84031W        W49291  34.071  33.410   2.219
84032W        W49292  39.776  19.500  12.891
84033W        W49293  32.540   3.243   3.266
84034W        W49294  19.635  36.366   2.909
84035W        W49295  17.681   1.626  14.057
84036W        W49296  18.928   7.853   2.745
84037W        W49297  21.562   6.709  13.973
84038W        W49298  15.757  31.554  10.521
84039W        W49299  12.624   2.306   1.806
84040W        W49300  41.278  25.527  13.588
84041W        W49301  35.089  15.887  13.301
84042W        W49302  15.850  42.449   1.881
84043W        W49303   7.920  32.047   0.933
84044W        W49304  29.243  14.669   2.766
84045W        W49305  44.841  22.580  11.360
84046W        W49306  42.404  15.524   0.282
84047W        W49307  10.063  34.188   4.730
84048W        W49308  30.401  11.596   3.692
84049W        W49309  25.621  11.357  14.855
84050W        W49310  43.480  40.992   4.945
84051W        W49311  24.078  32.381   2.226
84052W        W49312  27.144   6.318  13.767
84053W        W49313   1.443  13.776   0.445
84054W        W49314  21.017  14.713   1.824
84055W        W49315   5.564   5.385  11.931
84056W        W49316  34.101  41.683   0.710
84057W        W49317  29.657  21.218   0.331
84058W        W49318  26.979   3.918   1.554
84059W        W49319  18.110  14.223   3.794
84060W        W49320   7.880   8.444  11.135
84061W        W49321  11.387  28.049   2.730
84062W        W49322   1.874  11.736   3.795
84063W        W49323  18.596   8.739  10.713
84064W        W49324   5.894  11.097  11.955
84065W        W49325  36.881  41.459  14.739
84066W        W49326   7.676  39.038  11.622
84067W        W49327   2.763  36.570  10.680
84068W        W49328  13.992  32.046  12.948
84069W        W49329  11.134  42.774   4.962
84070W        W49330  12.687  33.924  14.344
84071W        W49331  42.651   8.225  12.455
84072W        W49332   5.254   8.570   3.675
84073W        W49333  13.171  22.234   0.330
84074W        W49334  43.883   8.549  12.631
84075W        W49335  15.016  31.346  13.474
84076W        W49336  25.259  16.277  13.864
84077W        W49337   6.337  35.152  14.143
84078W        W49338   9.022  42.751   1.132
84079W        W49339  25.741  29.833   4.143
84080W        W49340  38.864  27.016   4.298
84081W        W49341  18.854  35.579  12.299
84082W        W49342  24.991   7.999   2.691
84083W        W49343   2.509  41.752  13.741
84084W        W49344  43.904  12.603   3.080
84085W        W49345  36.395  14.822   0.684
84086W        W49346  42.067  43.924   3.931
84087W        W49347  41.442  20.776  14.766
84088W        W49348  26.958  16.379   0.343
84089W        W49349  22.149  18.051   3.278
84090W        W49350  17.545  34.309   1.254
84091W        W49351  42.852   5.398   3.693
84092W        W49352   8.796  34.934   0.182
84093W        W49353   8.952  12.930   5.053
84094W        W49354  19.791  31.455  14.756
84095W        W49355  26.660  30.050   2.250
84096W        W49356  23.683  31.965   3.207
84097W        W49357  43.782  29.529   2.280
84098W        W49358   6.418  26.750  10.896
84099W        W49359  43.076  43.743  12.511
84100W        W49360  42.279   2.197  14.781
84101W        W49361  14.060  20.126  10.683
84102W        W49362  11.713  32.848   0.324
84103W        W49363  41.466   3.729  12.046
84104W        W49364  24.628   1.318  10.311
84105W        W49365   8.055  28.236   3.499
84106W        W49366  29.189  31.610  12.064
84107W        W49367  20.094  37.686   0.971
84108W        W49368   2.153  12.691   1.506
84109W        W49369   9.533  27.720   4.873
84110W        W49370   4.016  31.007   1.220
84111W        W49371  16.396  17.021   3.251
84112W        W49372  20.589  44.977  11.565
84113W        W49373  17.872  39.017  10.941
84114W        W49374  41.956  44.031   3.448
84115W        W49375  22.724  33.915   3.697
84116W        W49376  25.565  10.176   4.567
84117W        W49377  21.519  29.696  14.556
84118W        W49378   2.402   7.900  11.008
84119W        W49379  29.708   9.111  12.507
84120W        W49380  19.212  29.166   4.474
84121W        W49381  37.941  11.440   2.874
84122W        W49382  23.597  36.861  14.425
84123W        W49383  23.047  27.174  12.677
84124W        W49384   1.994  44.216   1.055
84125W        W49385  38.494  41.501  12.827
84126W        W49386  12.837  32.997   2.817
84127W        W49387  17.162  21.584   0.340
84128W        W49388  11.717  42.319  14.419
84129W        W49389  26.025  39.849   3.681
84130W        W49390   7.191   9.686   1.259
84131W        W49391  23.729  34.338   5.165
84132W        W49392  34.525   7.808  11.647
84133W        W49393  32.526  33.076  11.004
84134W        W49394  12.428  18.817   0.337
84135W        W49395   2.723  29.958  11.199
84136W        W49396  44.859  37.876   4.777
84137W        W49397  25.977  20.079  14.248
84138W        W49398   8.191  33.369   1.292
84139W        W49399  33.607  31.475  13.716
84140W        W49400  43.396  19.052   2.854
84141W        W49401  18.404  19.667   1.796
84142W        W49402   3.760  37.075   1.424
84143W        W49403   9.218  24.919   0.354
84144W        W49404  29.982   3.700  10.762
84145W        W49405  10.772  29.986   1.936
84146W        W49406  31.867  36.155  11.676
84147W        W49407  39.022  21.617   4.612
84148W        W49408  38.610   3.520  12.267
84149W        W49409  23.562  36.619  12.022
84150W        W49410   4.952  18.339   0.836
84151W        W49411   2.828  27.882  10.185
84152W        W49412  39.376  28.715  12.850
84153W        W49413  36.510  20.361   2.591
84154W        W49414  23.712  31.998   4.858
84155W        W49415  39.825  28.060  12.893
84156W        W49416  35.265  10.814  14.081
84157W        W49417  13.186  30.290   4.942
84158W        W49418   5.741  26.432   9.746
84159W        W49419  16.959  24.513   1.267
84160W        W49420  21.691  34.311   3.719
84161W        W49421  19.190  33.832   0.063
84162W        W49422  37.218   4.139  11.954
84163W        W49423  20.785  17.153   4.764
84164W        W49424   7.907  23.907   4.210
84165W        W49425  28.249  37.920  12.091
84166W        W49426  17.112  35.076   4.558
84167W        W49427  40.583   9.705   0.279
84168W        W49428   2.072  32.910   0.935
84169W        W49429  44.847  27.010  14.918
84170W        W49430  26.881  15.012  12.603
84171W        W49431  36.864   4.955   3.603
84172W        W49432  14.634   2.362  14.002
84173W        W49433  33.977  31.725   2.016
84174W        W49434   9.314  42.611  12.394
84175W        W49435  38.889  22.620  14.803
84176W        W49436   4.970  16.328   0.701
84177W        W49437  11.776   5.432   1.891
84178W        W49438   2.814  10.885  13.819
84179W        W49439  24.588  23.650  11.122
84180W        W49440  28.646  16.810   0.325
84181W        W49441  14.721  38.496   1.313
84182W        W49442  40.290   1.037  13.432
84183W        W49443  18.608  18.701  13.559
84184W        W49444  39.822  22.165   2.008
84185W        W49445  15.486  32.539  14.641
84186W        W49446   5.655  36.883   3.726
84187W        W49447  21.296  16.234   4.601
84188W        W49448  32.509  23.936   2.210
84189W        W49449   9.295   0.250   3.847
84190W        W49450  32.472   5.664   4.149
84191W        W49451  20.939  24.616  11.108
84192W        W49452   9.897  10.700  11.673
84193W        W49453  11.634  16.283   2.810
84194W        W49454  12.577   5.514   2.769
84195W        W49455  19.626   9.167  10.563
84196W        W49456  23.075  23.147   4.479
84197W        W49457  13.604  18.645   1.712
84198W        W49458   3.820  10.791  14.473
84199W        W49459  11.606  31.631  10.611
84200W        W49460  36.568   1.485   2.474
84201W        W49461  32.388  36.797   1.923
84202W        W49462  36.313  32.762  13.053
84203W        W49463   7.111  35.012  12.782
84204W        W49464  11.232  36.065  13.033
84205W        W49465  19.030  23.460   5.084
84206W        W49466  29.686  14.653   4.392
84207W        W49467   8.312  33.691   3.678
84208W        W49468  21.790  17.201   0.768
84209W        W49469  39.050  19.100   4.354
84210W        W49470  44.817  12.134  11.044
84211W        W49471  41.718  19.682  14.243
84212W        W49472  28.758  15.131  13.008
84213W        W49473  31.100  44.478  12.035
84214W        W49474   7.600   1.483   0.387
84215W        W49475  31.019  35.437  13.899
84216W        W49476  40.290   2.275   0.454
84217W        W49477   6.474  37.488  14.759
84218W        W49478  35.610  17.033  11.665
84219W        W49479  17.090  34.450   1.464
84220W        W49480  29.503  10.404   3.276
84221W        W49481   3.907  40.140  12.941
84222W        W49482  15.284  15.805   1.292
84223W        W49483  37.872  15.760  10.354
84224W        W49484  18.570   3.844  14.881
84225W        W49485  33.368  14.331   0.783
84226W        W49486  38.041   6.155  14.662
84227W        W49487  23.507  33.315   1.932
84228W        W49488  31.360  16.628   3.653
84229W        W49489  26.494  39.311  14.079
84230W        W49490  40.032  39.987  11.653
84231W        W49491  16.001  22.517  14.564
84232W        W49492   2.202  43.700  13.471
84233W        W49493   7.447   6.621   4.708
84234W        W49494  18.137   7.223   4.168
84235W        W49495   0.648  16.343  13.122
84236W        W49496  11.308  28.012   4.195
84237W        W49497  15.251  39.845  14.995
84238W        W49498  41.891  14.238   4.096
84239W        W49499   4.575  23.910   1.577
84240W        W49500   1.739  38.016   3.730
84241W        W49501   1.952  41.784  11.999
84242W        W49502   0.638   2.793  13.908
84243W        W49503  34.072  36.898   0.840
84244W        W49504  33.362  36.226   3.779
84245W        W49505  41.256   9.778  11.057
84246W        W49506   0.925  13.789   0.483
84247W        W49507  37.992  40.790  14.859
84248W        W49508   8.179  26.714   1.672
84249W        W49509  25.378  18.639  11.196
84250W        W49510   3.740  17.643  10.458
84251W        W49511   5.369  11.065  12.049
84252W        W49512  11.682  40.895  12.305
84253W        W49513  19.645  19.630  14.227
84254W        W49514  36.533  39.605  14.022
84255W        W49515   4.786  20.268   0.281
84256W        W49516  25.958  14.136  11.756
84257W        W49517  18.045   9.715  10.696
84258W        W49518  27.221   3.870   4.207
84259W        W49519  40.115  31.476  12.104
84260W        W49520  18.256  23.695  10.699
84261W        W49521  12.419  43.324   1.420
84262W        W49522  24.171  13.708  12.760
84263W        W49523   0.903   9.323  10.666
84264W        W49524  40.142   7.203   4.558
84265W        W49525   3.169  20.568   4.592
84266W        W49526   4.392  19.758   0.913
84267W        W49527  24.052  32.300   3.378
84268W        W49528  14.000  36.046  12.237
84269W        W49529  25.291  21.676  14.702
84270W        W49530  31.426  35.125   2.350
84271W        W49531  14.399  38.097  12.884
84272W        W49532  23.074   5.887   2.568
84273W        W49533  17.573  30.326   1.929
84274W        W49534  19.266  42.948   1.366
84275W        W49535  41.120  40.317  11.248
84276W        W49536  44.452  33.612   0.485
84277W        W49537  41.050  34.485   2.342
84278W        W49538  37.607  40.367   1.422
84279W        W49539  25.587  29.607   0.421
84280W        W49540   2.397  30.817  10.300
84281W        W49541   2.910  28.983   0.752
84282W        W49542   9.813  38.407  11.067
84283W        W49543   3.420  34.341  14.116
84284W        W49544  11.451  19.599   4.119
84285W        W49545  11.370  40.110  12.061
84286W        W49546  23.597  21.823   1.006
84287W        W49547  32.488  26.253  14.001
84288W        W49548  44.761  15.248  12.906
84289W        W49549  15.035  20.758   2.771
84290W        W49550  31.424  30.133  13.453
84291W        W49551  24.160   9.635   0.247
84292W        W49552  30.002  35.364  14.049
84293W        W49553  35.131  18.101   4.147
84294W        W49554  26.272  40.559  13.365
84295W        W49555  31.024  14.760  11.136
84296W        W49556  37.355  12.547  14.824
84297W        W49557  32.487  33.630   2.978
84298W        W49558  22.938  31.440   1.826
84299W        W49559  24.501   3.415  12.578
84300W        W49560  41.725  41.703  13.427
84301W        W49561  23.235  23.624   3.251
84302W        W49562  19.938  42.005   1.761
84303W        W49563   5.860  37.816   4.540
84304W        W49564   3.051   6.263  11.399
84305W        W49565   3.908  10.737   3.099
84306W        W49566  30.668  42.305   2.363
84307W        W49567  32.244   6.862  14.738
84308W        W49568  28.766  14.064   1.877
84309W        W49569  39.713  35.439  12.113
84310W        W49570  17.059  22.759  13.767
84311W        W49571  41.505  27.399   4.080
84312W        W49572  34.572  26.233   3.225
84313W        W49573  19.893  35.909  13.883
84314W        W49574  31.418  14.225   3.764
84315W        W49575  10.783  17.244  13.762
84316W        W49576  37.869  33.085  11.474
84317W        W49577  17.978  17.066  12.057
84318W        W49578   8.959  41.407   0.993
84319W        W49579   3.720   1.931   4.261
84320W        W49580  11.367  33.081   4.882
84321W        W49581  40.979  14.782   0.223
84322W        W49582  19.752  14.817  10.673
84323W        W49583   8.592  25.415  11.272
84324W        W49584   3.236  20.599  13.655
84325W        W49585   7.903  34.099   1.933
84326W        W49586  39.068  33.521   5.095
84327W        W49587  37.611  14.857   0.456
84328W        W49588  28.017  32.368  12.451
84329W        W49589   2.839   1.361   3.014
84330W        W49590  28.726  29.856  12.648
84331W        W49591  24.995  36.180   3.084
84332W        W49592  33.576   3.237   1.710
84333W        W49593   9.965  11.110   1.176
84334W        W49594  12.060  12.533  13.857
84335W        W49595  10.445  15.724  12.421
84336W        W49596  17.718  17.971  14.311
84337W        W49597  30.372  13.356   4.144
84338W        W49598  14.585  24.249   4.154
84339W        W49599  40.295   7.219  11.702
84340W        W49600  31.431  10.274  13.525
84341W        W49601  14.269  34.173  13.815
84342W        W49602  23.968   8.790   0.708
84343W        W49603   0.818  15.571  13.525
84344W        W49604  42.577  30.591   2.885
84345W        W49605  15.658  12.032  14.406
84346W        W49606  44.873  15.876   0.856
84347W        W49607  19.076   8.225  13.847
84348W        W49608  20.292  21.491   1.893
84349W        W49609  43.074  43.403   1.895
84350W        W49610  41.590  41.952  12.827
84351W        W49611  15.528  43.062  12.334
84352W        W49612  25.686  39.551   1.373
84353W        W49613  10.644  36.006   1.435
84354W        W49614   6.194  18.080   1.399
84355W        W49615   4.521  29.536  14.397
84356W        W49616  26.783  19.480   4.662
84357W        W49617   5.935  10.129  11.112
84358W        W49618   8.731  39.348   3.969
84359W        W49619  29.671   4.569   4.103
84360W        W49620  26.716  11.654  14.049
84361W        W49621  27.055  23.719  13.326
84362W        W49622   8.700  19.171   0.451
84363W        W49623   4.158  38.315   2.342
84364W        W49624  15.607  39.014  14.786
84365W        W49625  10.047  19.102   0.095
84366W        W49626  11.308   8.743   4.007
84367W        W49627  35.598  41.051  12.352
84368W        W49628   4.141  43.869   4.578
84369W        W49629   4.791  17.838   3.115
84370W        W49630   3.934  27.740   1.295
84371W        W49631  11.896  15.648  10.681
84372W        W49632   6.308   6.698   0.885
84373W        W49633  14.131  42.530  11.712
84374W        W49634  37.400  26.118   1.880
84375W        W49635  36.390  35.971  14.895
84376W        W49636  25.583  31.112   0.820
84377W        W49637  10.193  38.705  11.243
84378W        W49638  43.893  11.575   2.831
84379W        W49639  15.794  23.127  10.706
84380W        W49640  28.738  40.603  11.987
84381W        W49641  35.463   6.210  12.509
84382W        W49642  16.360  25.357   4.126
84383W        W49643   9.730   2.036   2.316
84384W        W49644  20.622  17.055  12.255
84385W        W49645  22.069  29.106  10.403
84386W        W49646  33.924  12.249  11.949
84387W        W49647  23.794  44.937   2.299
84388W        W49648  22.559  39.481   1.907
84389W        W49649  14.244   0.676  14.869
84390W        W49650  37.440  18.382  12.418
84391W        W49651  10.307  17.564   0.444
84392W        W49652  19.533  23.100   1.365
84393W        W49653  12.782  33.533  13.070
84394W        W49654  41.500  18.154   4.534
84395W        W49655  35.380  40.909  14.294
84396W        W49656  25.793  24.264   2.918
84397W        W49657   0.185  35.965  11.114
84398W        W49658   1.338  23.606   1.801
84399W        W49659  16.148  32.882   1.962
84400W        W49660  15.103  29.482  14.102
84401W        W49661  42.284  25.747   4.784
84402W        W49662   8.194   6.713   5.524
84403W        W49663  15.657   9.397  14.284
84404W        W49664   9.508   9.868   2.895
84405W        W49665  31.546  33.356   1.934
84406W        W49666   8.506  42.820   1.016
84407W        W49667  31.604  10.287   5.021
84408W        W49668  42.575  33.031   0.101
84409W        W49669   3.792   4.258   4.717
84410W        W49670  43.137  25.179  14.688
84411W        W49671  44.589  34.601   4.209
84412W        W49672   0.803  15.569  14.868
84413W        W49673  28.753  23.418   2.785
84414W        W49674  30.162  39.313  12.365
84415W        W49675  20.185  37.512  13.931
84416W        W49676  19.310  16.717   4.962
84417W        W49677  42.405   6.740   0.342
84418W        W49678  25.432  33.861   3.492
84419W        W49679  30.039  10.315   1.885
84420W        W49680  36.489  37.311   1.818
84421W        W49681   2.293  42.990  14.389
84422W        W49682  12.744  25.712   0.804
84423W        W49683  40.723  25.533   0.700
84424W        W49684  36.786  40.646   2.419
84425W        W49685   8.858  30.496  14.529
84426W        W49686   7.330   9.695  13.393
84427W        W49687  31.959  22.047   4.963
84428W        W49688  10.098  41.306  14.956
84429W        W49689  20.737  42.884   2.928
84430W        W49690  34.013   1.496  13.322
84431W        W49691   9.797  44.548   4.584
84432W        W49692  43.962  42.922   2.722
84433W        W49693  13.065  12.576  11.941
84434W        W49694  41.300  22.636   1.308
84435W        W49695  43.367  37.302   1.011
84436W        W49696  26.980   3.765   0.535
84437W        W49697  18.304  40.473  12.993
84438W        W49698  27.603  11.814  13.301
84439W        W49699  38.824   8.139  13.194
84440W        W49700  29.434  22.275  14.238
84441W        W49701  43.153  32.855   2.431
84442W        W49702  44.012  13.864  11.161
84443W        W49703  29.268  18.683  14.445
84444W        W49704   5.013  25.650   4.618
84445W        W49705  40.263   0.000   3.625
84446W        W49706  14.288  44.497   1.147
84447W        W49707   0.191  24.294   3.982
84448W        W49708  40.510  24.941  14.768
84449W        W49709  22.286  16.121  13.470
84450W        W49710   2.704   7.479  10.924
84451W        W49711   9.830  34.379   0.079
84452W        W49712  39.299  20.664   1.539
84453W        W49713  23.459   5.961  12.867
84454W        W49714  20.587  31.402   3.976
84455W        W49715  22.256  39.371   1.487
84456W        W49716  19.683  18.950   1.926
84457W        W49717  17.565   2.371  14.803
84458W        W49718  12.265   5.238  13.736
84459W        W49719  25.109   0.460   4.499
84460W        W49720  14.341  21.507  10.604
84461W        W49721  15.234  43.575  13.061
84462W        W49722  27.195  22.289   4.060
84463W        W49723  21.784   4.173   0.838
84464W        W49724  23.165   3.755   3.412
84465W        W49725  27.183  25.906   1.753
84466W        W49726   6.595  35.814   1.362
84467W        W49727  31.224   5.126   0.211
84468W        W49728  42.834  37.750  13.560
84469W        W49729  13.887  13.797  11.637
84470W        W49730  44.231  25.062   5.000
84471W        W49731  13.341  28.497   0.969
84472W        W49732  18.272  39.599   0.846
84473W        W49733  29.438  35.044   2.288
84474W        W49734  30.540  24.163   2.837
84475W        W49735  11.751   6.801   1.021
84476W        W49736  20.684  44.510   1.864
84477W        W49737  13.263  20.981  14.943
84478W        W49738  23.977  24.048   3.147
84479W        W49739  18.293   1.170   4.095
84480W        W49740  37.565  15.246  14.314
84481W        W49741  41.928  37.427  12.510
84482W        W49742  43.243   5.639  10.977
84483W        W49743  34.964   4.010   2.907
84484W        W49744  43.587   3.365   1.220
84485W        W49745  18.585   5.492   3.383
84486W        W49746  44.283  19.154   2.281
84487W        W49747  32.250  39.060  13.955
84488W        W49748  10.865  41.917  12.613
84489W        W49749  18.677   7.281   1.026
84490W        W49750  18.409  27.780   4.279
84491W        W49751  17.139  32.475  11.096
84492W        W49752  44.248  22.493   2.325
84493W        W49753  33.454  15.619   3.103
84494W        W49754  43.302  31.423   2.273
84495W        W49755  15.369  18.628  12.431
84496W        W49756   5.370  35.678  14.414
84497W        W49757  10.256  10.577  13.574
84498W        W49758  10.415  13.714  14.952
84499W        W49759  28.450  34.034  10.560
84500W        W49760  27.716  33.126  13.403
84501W        W49761  28.061   0.348   4.751
84502W        W49762  39.183   3.033  10.725
84503W        W49763   4.945  39.462   1.791
84504W        W49764  10.775  42.972  13.783
84505W        W49765   8.165   3.098  12.483
84506W        W49766  28.869   7.375   0.397
84507W        W49767  34.832   6.120  11.119
84508W        W49768   4.395  22.517  12.949
84509W        W49769  22.704  42.593  13.473
84510W        W49770  16.660  43.450  13.842
84511W        W49771  13.770  36.397   4.584
84512W        W49772  36.046   5.928   1.276
84513W        W49773  42.830  42.721   3.049
84514W        W49774   0.748  28.345  11.879
84515W        W49775  43.091  38.205  10.078
84516W        W49776  18.297  38.040  10.689
84517W        W49777  28.361   5.895   2.424
84518W        W49778   8.784  35.103  13.648
84519W        W49779  25.112  11.504  14.877
84520W        W49780  35.270  30.538  12.452
84521W        W49781  20.052  38.159  14.018
84522W        W49782  33.527  30.139   0.473
84523W        W49783   5.217  37.066   1.178
84524W        W49784  31.038  37.349  13.033
84525W        W49785  15.736  28.972   0.892
84526W        W49786  37.856  10.734   4.558
84527W        W49787  13.200  43.605   1.799
84528W        W49788  41.696  12.409   5.583
84529W        W49789  42.280  26.173  13.146
84530W        W49790  24.939  40.501  11.342
84531W        W49791  27.042  15.500   4.432
84532W        W49792  22.414   9.927  10.478
84533W        W49793  36.444  26.632   1.335
84534W        W49794   5.185   4.419  10.783
84535W        W49795  27.946  12.767  11.565
84536W        W49796  42.380  36.199   3.158
84537W        W49797   7.607  12.153  14.068
84538W        W49798  28.132  15.873   4.796
84539W        W49799  42.098   0.732  14.108
84540W        W49800  26.640   3.557   1.404
84541W        W49801  16.606  35.272   3.669
84542W        W49802  21.986   2.317  10.308
84543W        W49803  39.144  23.009  14.483
84544W        W49804  11.119   0.411   2.014
84545W        W49805  34.130  29.469   4.045
84546W        W49806  30.289  38.232  13.418
84547W        W49807  15.086  25.081   0.475
84548W        W49808  32.857   9.832   1.787
84549W        W49809   5.747  14.612   4.209
84550W        W49810   2.430   0.314  10.848
84551W        W49811  42.205   6.394  10.724
84552W        W49812   4.564  31.348   4.623
84553W        W49813  21.644  44.052  12.477
84554W        W49814  22.994  29.357   2.562
84555W        W49815   2.306  26.996   3.281
84556W        W49816  26.326   7.507   0.418
84557W        W49817   3.179  16.171  13.960
84558W        W49818  27.488  14.614  14.443
84559W        W49819  43.919  27.125   2.263
84560W        W49820  34.047  43.869  14.562
84561W        W49821  11.914  37.700   1.837
84562W        W49822  36.333   7.880  14.870
84563W        W49823  32.503  39.352  11.112
84564W        W49824  31.422  34.479  13.294
84565W        W49825  15.543   8.946  11.411
84566W        W49826  22.998  39.067  13.471
84567W        W49827   4.507  12.175   4.163
84568W        W49828  19.254  39.327   4.231
84569W        W49829  18.724  20.258  10.198
84570W        W49830  20.493  14.209  10.682
84571W        W49831  12.188   0.701  11.034
84572W        W49832  18.616  30.709   3.746
84573W        W49833  34.740  39.410   2.876
84574W        W49834  14.383  34.459  10.678
84575W        W49835  27.024  25.419  14.954
84576W        W49836  20.482  22.904   0.918
84577W        W49837  37.478  40.750  14.643
84578W        W49838  36.572  37.329  12.689
84579W        W49839   1.903   4.755   3.152
84580W        W49840  42.159  43.284  12.656
84581W        W49841  17.221  38.331   2.397
84582W        W49842  37.088   1.136   3.957
84583W        W49843  10.642  22.947   0.092
84584W        W49844  14.606  31.352  11.202
84585W        W49845  13.766  26.745  13.778
84586W        W49846   2.680  38.876  13.894
84587W        W49847  13.351   1.867   0.224
84588W        W49848  17.355  12.630   5.042
84589W        W49849   1.524   8.883  11.565
84590W        W49850   4.790  12.701  14.995
84591W        W49851  16.286  24.353   2.044
84592W        W49852   3.947  29.710  11.654
84593W        W49853  10.878  24.586  10.959
84594W        W49854  14.174  11.770   1.771
84595W        W49855   3.496   2.481  10.773
84596W        W49856  23.697  29.406  11.087
84597W        W49857   8.978  16.292   3.248
84598W        W49858  11.862  16.019   2.304
84599W        W49859  34.877  23.460  13.484
84600W        W49860  23.083  23.596  12.563
84601W        W49861   8.685  27.917  11.088
84602W        W49862  39.496  10.396   1.010
84603W        W49863  36.246   3.424   3.300
84604W        W49864   5.107  14.840   3.253
84605W        W49865   0.834  17.173  14.043
84606W        W49866   4.820  28.153   2.067
84607W        W49867  36.094  40.839   0.930
84608W        W49868  14.763  39.438  14.448
84609W        W49869  21.072  29.907  14.405
84610W        W49870  18.286  17.691   4.303
84611W        W49871  40.559   0.924   4.935
84612W        W49872  29.820   6.995   4.518
84613W        W49873  38.345  11.951   2.727
84614W        W49874  29.021  37.480  13.462
84615W        W49875  13.688   6.618  11.078
84616W        W49876  42.739   8.228  14.939
84617W        W49877  19.170   5.960  12.894
84618W        W49878  41.476   5.728  14.806
84619W        W49879  23.037  20.511   4.330
84620W        W49880  18.483   1.889   3.997
84621W        W49881   5.030  33.018  11.080
84622W        W49882  44.504  40.735   2.999
84623W        W49883  42.782   7.682  12.551
84624W        W49884  25.505  34.902  14.079
84625W        W49885  13.202  31.568  14.635
84626W        W49886  30.032  23.058   0.682
84627W        W49887   8.563  33.768  12.931
84628W        W49888  27.492  42.344   4.430
84629W        W49889  11.796   4.291   0.246
84630W        W49890  24.957  17.753   5.363
84631W        W49891  44.483  31.223   0.373
84632W        W49892  25.748  18.043   2.663
84633W        W49893   2.378  27.308   5.142
84634W        W49894  23.052  41.915  11.364
84635W        W49895  31.418  33.792  12.728
84636W        W49896  17.271   8.587  12.004
84637W        W49897  17.835   0.122   1.932
84638W        W49898  34.584  32.925   3.223
84639W        W49899   3.438  31.936  10.139
84640W        W49900  18.684  18.628  10.759
84641W        W49901  35.805  36.515   0.328
84642W        W49902  34.151   2.930   3.767
84643W        W49903   1.666  12.648  14.003
84644W        W49904  12.684  12.966  14.443
84645W        W49905  18.040  32.543  14.906
84646W        W49906   6.099  28.142   3.640
84647W        W49907  20.813  15.881   1.379
84648W        W49908   8.906   6.118  14.391
84649W        W49909  20.267  43.285  13.607
84650W        W49910  42.693  29.651   4.573
84651W        W49911  33.394  38.392   1.289
84652W        W49912   0.537  19.834  12.351
84653W        W49913   5.843  11.499  12.871
84654W        W49914   1.363  36.022   4.190
84655W        W49915  12.858  10.406  14.033
84656W        W49916  27.028  21.723  11.201
84657W        W49917  27.909   6.836   4.071
84658W        W49918  21.029   2.471   0.355
84659W        W49919  42.923  42.491  13.602
84660W        W49920  35.335  33.914   0.221
84661W        W49921   1.271   1.397   0.531
84662W        W49922  15.998   4.046   0.403
84663W        W49923   7.388  20.040  12.081
84664W        W49924   7.501  26.863  12.955
84665W        W49925   5.611  21.137   1.209
84666W        W49926  39.100  22.362  14.400
84667W        W49927   9.550  40.984   3.157
84668W        W49928  30.855  43.488   2.093
84669W        W49929  22.945  23.667  14.394
84670W        W49930  29.944  16.773  10.439
84671W        W49931   0.484  23.773   2.746
84672W        W49932   7.676  16.747  10.720
84673W        W49933  25.529  34.183   0.868
84674W        W49934  29.747  37.345   5.039
84675W        W49935  44.694  40.880  12.253
84676W        W49936  41.343  36.886  13.747
84677W        W49937  41.466  21.260  12.254
84678W        W49938  32.451  14.110  10.403
84679W        W49939  17.351  42.255  13.687
84680W        W49940  14.177  14.332   4.940
84681W        W49941  11.639  13.378  14.402
84682W        W49942   3.675  39.385  12.457
84683W        W49943   4.404  19.235   4.591
84684W        W49944   5.243  28.318  10.266
84685W        W49945  38.352   2.817   0.811
84686W        W49946  32.058  13.081  13.086
84687W        W49947  10.327  22.570  12.537
84688W        W49948  11.468  17.111   0.350
84689W        W49949  42.974  10.161  11.098
84690W        W49950  32.240  28.218   0.863
84691W        W49951  19.281  20.970  14.441
84692W        W49952  34.185  25.365   1.460
84693W        W49953  19.761  36.143   4.404
84694W        W49954   6.291  22.574   2.087
84695W        W49955  36.355  12.012   2.038
84696W        W49956  29.111   8.651   4.602
84697W        W49957   8.654  24.089   1.895
84698W        W49958  19.103  12.693   2.765
84699W        W49959  30.325   2.905  10.742
84700W        W49960  25.922  33.041   0.610
84701W        W49961  10.461  24.936   3.674
84702W        W49962  32.159  32.831   0.983
84703W        W49963  26.891  35.132   4.795
84704W        W49964   2.533  26.602   3.538
84705W        W49965   8.844  36.041   1.733
84706W        W49966  12.477  12.781  14.012
84707W        W49967   1.975  26.238  14.086
84708W        W49968  30.422   8.389  13.964
84709W        W49969  39.431  38.135  10.401
84710W        W49970  44.576  32.645   0.339
84711W        W49971  39.509  33.112  11.225
84712W        W49972  18.644   6.180  14.060
84713W        W49973  15.662  19.970   3.774
84714W        W49974  12.170  10.004  14.387
84715W        W49975  12.612   4.184  13.920
84716W        W49976   2.296  17.239   0.760
84717W        W49977   2.310   9.955  14.457
84718W        W49978  17.707   5.949  12.092
84719W        W49979  10.385  32.611   0.731
84720W        W49980  44.738  32.283   3.727
84721W        W49981  16.049  17.754  13.152
84722W        W49982  30.006  13.086  14.003
84723W        W49983  12.106  23.474  13.515
84724W        W49984  20.576  16.610  12.517
84725W        W49985  31.122  32.524  11.617
84726W        W49986  30.529  19.945  13.925
84727W        W49987  38.636  10.093   5.111
84728W        W49988  24.807  29.153   0.293
84729W        W49989  10.751   4.307   3.290
84730W        W49990  34.948   2.069   4.671
84731W        W49991  40.506  38.952   2.282
84732W        W49992  28.639  16.303   0.468
84733W        W49993  42.304  21.302  13.037
84734W        W49994  17.183  27.570   0.333
84735W        W49995  12.414  35.865  14.912
84736W        W49996   9.684  30.663  13.405
84737W        W49997  42.147   2.111  14.311
84738W        W49998  11.086  10.227  12.543
84739W        W49999  39.887  21.522  12.684
84740W        W50000  12.214  12.175   0.910
84741W        W50001  18.147  14.090   2.372
84742W        W50002  25.918  35.444  11.100
84743W        W50003  40.083   0.333   2.181
84744W        W50004  44.433   2.702   2.806
84745W        W50005   0.325  21.459   2.600
84746W        W50006  43.902  42.555  14.787
84747W        W50007  40.004   6.286  12.456
84748W        W50008  31.979  21.824   1.314
84749W        W50009   7.154  40.285  14.910
84750W        W50010  24.201  33.913  13.055
84751W        W50011   6.591  31.201   3.259
84752W        W50012  17.691  34.005  13.667
84753W        W50013  24.699  30.692  13.087
84754W        W50014  42.612  37.996   4.017
84755W        W50015  33.176   1.487   3.288
84756W        W50016  26.177  35.024  10.924
84757W        W50017  16.080  17.025   3.653
84758W        W50018  23.569  24.533  14.990
84759W        W50019  25.207  12.213  12.386
84760W        W50020  21.036  22.275   4.074
84761W        W50021  10.162  26.927  11.892
84762W        W50022  11.430   0.919   4.158
84763W        W50023  21.229  32.856  13.267
84764W        W50024  38.903  22.554   3.606
84765W        W50025  27.944  37.406  10.454
84766W        W50026   8.191  26.787  13.864
84767W        W50027  28.857  13.457   3.654
84768W        W50028   8.813   3.698  10.837
84769W        W50029  28.157  33.185  10.049
84770W        W50030   1.906  40.710   3.628
84771W        W50031  28.278   0.169  11.813
84772W        W50032  11.251  36.415   3.340
84773W        W50033  40.841   9.264  10.751
84774W        W50034  40.940  19.543  11.145
84775W        W50035  28.650  19.386  12.999
84776W        W50036  39.984  37.567  12.365
84777W        W50037  33.945  15.036  14.060
84778W        W50038  18.294  33.589   2.131
84779W        W50039  31.463  24.731  10.645
84780W        W50040  11.692  40.434   3.077
84781W        W50041  22.318  30.935   4.731
84782W        W50042   6.380  13.701   4.264
84783W        W50043  42.095  29.357  12.976
84784W        W50044  43.177  25.578  11.779
84785W        W50045  14.147  18.965   1.344
84786W        W50046  22.898   5.870   4.377
84787W        W50047   3.906   4.258  12.357
84788W        W50048  12.784  28.165  14.679
84789W        W50049   5.358  37.082   4.845
84790W        W50050  18.608  20.981   0.781
84791W        W50051  36.404   4.371  13.093
84792W        W50052   2.850  37.405   2.386
84793W        W50053  44.422   8.804   2.837
84794W        W50054  36.497  28.221   2.132
84795W        W50055  39.579  14.758   2.640
84796W        W50056  28.503  13.596  11.167
84797W        W50057  41.039  41.265  12.583
84798W        W50058  20.612  37.777  13.918
84799W        W50059   7.372  34.660   3.597
84800W        W50060  21.720  33.425  14.318
84801W        W50061   7.757  34.275  12.316
84802W        W50062  41.277  35.025  12.952
84803W        W50063   6.765  10.125  12.999
84804W        W50064  39.318  39.417  10.670
84805W        W50065  38.839  36.174  12.677
84806W        W50066  11.765  18.994  14.279
84807W        W50067  40.496   0.195  13.982
84808W        W50068   5.377  13.377  11.278
84809W        W50069  20.342   1.139   3.135
84810W        W50070  20.819  12.145  10.621
84811W        W50071  13.328  34.077  14.394
84812W        W50072  42.470  28.286   4.507
84813W        W50073  18.238  43.869  10.940
84814W        W50074  43.987  39.046   3.742
84815W        W50075  21.771  28.482  13.320
84816W        W50076   6.959   7.047   4.555
84817W        W50077  37.130  24.942   4.989
84818W        W50078  12.054  35.548  13.579
84819W        W50079  37.291  30.973   2.736
84820W        W50080  20.638  35.911  11.182
84821W        W50081   1.508  27.205   0.477
84822W        W50082  31.215  41.994  12.471
84823W        W50083   0.171   9.649  11.041
84824W        W50084  10.434  25.030  11.687
84825W        W50085  27.597  43.520  11.773
84826W        W50086  44.880  25.547   9.583
84827W        W50087  31.022  21.562   0.359
84828W        W50088  13.653  18.700   3.594
84829W        W50089  43.329  44.422   4.995
84830W        W50090  11.214   0.448   4.209
84831W        W50091  14.421  16.098  13.336
84832W        W50092  43.357  35.571  14.893
84833W        W50093  17.687  35.545  13.328
84834W        W50094   9.928   3.372   4.213
84835W        W50095  29.910   8.387   0.441
84836W        W50096  40.019   0.314  14.867
84837W        W50097  33.846  11.857   1.554
84838W        W50098  21.757  20.318  12.687
84839W        W50099  37.444  24.756   0.024
84840W        W50100  18.684  39.341  10.956
84841W        W50101  28.162  40.268   1.335
84842W        W50102  29.586  16.569  11.202
84843W        W50103  34.346   8.753  11.531
84844W        W50104  28.402  15.813   0.338
84845W        W50105  14.455  21.351  10.123
84846W        W50106  21.778   8.890  14.870
84847W        W50107   0.998  15.232   5.229
84848W        W50108  43.846   8.276  11.138
84849W        W50109  24.075   3.788   3.161
84850W        W50110  12.535  21.238  12.524
84851W        W50111  12.361   1.645  12.982
84852W        W50112   5.889   0.982   2.600
84853W        W50113  34.324  10.232  12.217
84854W        W50114  29.659  39.690  11.603
84855W        W50115  31.742  13.607   4.141
84856W        W50116  35.935  32.821   1.503
84857W        W50117  14.732  29.165   3.449
84858W        W50118  37.355  27.095   4.299
84859W        W50119  30.019   2.899  13.600
84860W        W50120  24.171   1.302   5.012
84861W        W50121   9.802  38.407   3.957
84862W        W50122  29.176   0.668  14.012
84863W        W50123  32.940  26.114  10.758
84864W        W50124  17.576   4.069  14.807
84865W        W50125  35.611  22.473  12.990
84866W        W50126   4.786  10.380   3.798
84867W        W50127  21.078  20.157   3.302
84868W        W50128   1.699  38.530   2.623
84869W        W50129  30.497  27.417  14.950
84870W        W50130  40.471  39.278   5.017
84871W        W50131  36.429   5.754  10.733
84872W        W50132  30.180  42.296   3.129
84873W        W50133   4.712   8.797  12.984
84874W        W50134   3.151  14.854  13.042
84875W        W50135  17.830  30.374   3.305
84876W        W50136  27.178  43.252   4.277
84877W        W50137  20.797  24.964  13.813
84878W        W50138  15.109  20.063  12.179
84879W        W50139  35.290  15.010   1.060
84880W        W50140  38.050  41.003   3.608
84881W        W50141  18.633   8.412   2.184
84882W        W50142   2.744  15.268  14.859
84883W        W50143  24.725  10.222   1.271
84884W        W50144  30.906   2.157  14.195
84885W        W50145  33.946   6.295  12.837
84886W        W50146  40.929  29.466  13.571
84887W        W50147   9.286  33.611   3.866
84888W        W50148  38.582  13.317  12.280
84889W        W50149  26.607   8.441  10.631
84890W        W50150  40.586  42.562  11.610
84891W        W50151  42.379  27.192  12.570
84892W        W50152  44.452  22.920   3.270
84893W        W50153   4.648  32.559  14.884
84894W        W50154  11.007  36.818   2.327
84895W        W50155  39.542  19.159   1.172
84896W        W50156  26.465   4.334   3.113
84897W        W50157  11.425  11.233  14.354
84898W        W50158  17.110  27.408   2.127
84899W        W50159  14.807  38.286   0.379
84900W        W50160   9.800  25.026   3.146
84901W        W50161  43.086   8.317  10.678
84902W        W50162   5.876   5.906   1.288
84903W        W50163  29.443   0.553   4.880
84904W        W50164  44.123   9.776  14.509
84905W        W50165  42.926  36.633  14.488
84906W        W50166  12.381   3.432  12.524
84907W        W50167   0.682  20.807   4.973
84908W        W50168   3.911   6.190  12.437
84909W        W50169  11.847  11.061  14.647
84910W        W50170   4.744  31.522  12.472
84911W        W50171  19.138  25.811   1.862
84912W        W50172  27.248  15.819  10.701
84913W        W50173  28.660   6.841   1.405
84914W        W50174  13.177  23.697   3.989
84915W        W50175  43.234  21.133   0.914
84916W        W50176   7.007  16.235  14.361
84917W        W50177   4.577  16.595   2.445
84918W        W50178   2.287  38.330  13.536
84919W        W50179  18.016   5.918   2.785
84920W        W50180  44.417  10.366   5.514
84921W        W50181  39.561  43.112  12.200
84922W        W50182  15.735  42.414   0.907
84923W        W50183  34.620  27.453  14.366
84924W        W50184  42.678  23.762   0.620
84925W        W50185   7.929  16.832  12.876
84926W        W50186  42.767  13.766   0.356
84927W        W50187  16.265  19.740  14.489
84928W        W50188  19.545  21.176   0.721
84929W        W50189  26.909  24.298  12.045
84930W        W50190   1.835   6.738   3.906
84931W        W50191  35.501   6.615   1.342
84932W        W50192  23.469   6.157   2.288
84933W        W50193  16.763  19.887  14.964
84934W        W50194  25.153  30.972   4.544
84935W        W50195  29.562   5.736  12.879
84936W        W50196  43.711  29.437  13.916
84937W        W50197  43.976   5.302  14.592
84938W        W50198   8.309   6.911   0.442
84939W        W50199   6.433  33.922   2.715
84940W        W50200   7.188  11.457   2.277
84941W        W50201  36.012   1.263  13.798
84942W        W50202  12.652  18.687   3.270
84943W        W50203  18.842  41.320  14.964
84944W        W50204  10.180  44.788   4.842
84945W        W50205  26.132  43.514  13.168
84946W        W50206  22.151  18.592   4.157
84947W        W50207  26.784  38.515  11.458
84948W        W50208   3.069  44.861  10.583
84949W        W50209  28.126  42.487   3.281
84950W        W50210  20.004  37.503  13.448
84951W        W50211  24.686  27.767   2.767
84952W        W50212  17.473  10.280  11.073
84953W        W50213  39.953  32.603   1.845
84954W        W50214  30.734  18.490  12.107
84955W        W50215  33.689  22.155   1.822
84956W        W50216  25.484  25.716  12.753
84957W        W50217  34.514  23.589   2.830
84958W        W50218   8.918  11.111   0.672
84959W        W50219  30.959  28.131   1.861
84960W        W50220  16.302  38.379  12.533
84961W        W50221   3.248  16.818   0.403
84962W        W50222  38.966  40.890   3.600
84963W        W50223  17.516  10.711  12.028
84964W        W50224  26.369   6.257  10.748
84965W        W50225   8.878  21.033  10.483
84966W        W50226  12.787  36.548  14.358
84967W        W50227  10.025  17.765   2.633
84968W        W50228  25.110   8.174  14.425
84969W        W50229  12.992  33.116  12.375
84970W        W50230  32.200   1.724  14.367
84971W        W50231  23.697  17.608  11.037
84972W        W50232  12.244  33.778   0.903
84973W        W50233  16.063  21.580  11.974
84974W        W50234   7.982   5.796  10.334
84975W        W50235  18.058   1.195  14.475
84976W        W50236  11.309   4.885  10.634
84977W        W50237  38.939  32.092   1.447
84978W        W50238   7.870  31.868   2.231
84979W        W50239   7.636   6.597   1.909
84980W        W50240  30.830  18.019  14.335
84981W        W50241  18.920   0.715   3.607
84982W        W50242   2.975  42.388  14.818
84983W        W50243  27.112  34.358  12.072
84984W        W50244  36.932  35.469  13.064
84985W        W50245  44.701  43.525   1.291
84986W        W50246  35.586  37.201   2.764
84987W        W50247  16.576   1.463   4.674
84988W        W50248  39.952  12.757  13.443
84989W        W50249   5.320  30.917   4.801
84990W        W50250   3.446  20.033  11.962
84991W        W50251  35.826  18.035  12.956
84992W        W50252  42.067  44.987   1.822
84993W        W50253  21.948  38.302  11.177
84994W        W50254  14.309   6.648  11.324
84995W        W50255  10.914   5.364   3.484
84996W        W50256  24.599  39.603  11.164
84997W        W50257  22.079  23.740  12.836
84998W        W50258  44.723  33.888  12.890
84999W        W50259  15.267  12.689  10.976
85000W        W50260  38.219  41.838   4.231
85001W        W50261  30.192   7.890   4.879
85002W        W50262  20.495  26.447  14.860
85003W        W50263   5.899  28.539   2.698
85004W        W50264  13.756   1.228   2.648
85005W        W50265  32.396  10.371   4.384
85006W        W50266   7.276   2.431  14.977
85007W        W50267   1.151   3.999  12.646
85008W        W50268  41.844  34.637   0.425
85009W        W50269  17.695   7.795  14.790
85010W        W50270  29.523  41.999   2.000
85011W        W50271  23.918  34.522   3.321
85012W        W50272  12.641  40.017  14.552
85013W        W50273  21.185  10.597  11.454
85014W        W50274  42.317  33.848   3.307
85015W        W50275  14.822  11.334   4.080
85016W        W50276  16.181   7.411   3.020
85017W        W50277  22.684  38.413   2.806
85018W        W50278  42.486  29.634  13.170
85019W        W50279  44.592  38.855  12.937
85020W        W50280   2.795  14.234  14.297
85021W        W50281  41.578  23.201   2.827
85022W        W50282  20.291  37.034  11.978
85023W        W50283  20.644   3.784   2.170
85024W        W50284  18.571   3.299   1.673
85025W        W50285   0.447  41.851   0.431
85026W        W50286  31.395  10.341  14.088
85027W        W50287  24.699   3.488   1.296
85028W        W50288  12.768  18.615  10.994
85029W        W50289  22.549  17.751   4.110
85030W        W50290  36.854  10.355   1.757
85031W        W50291  42.587   1.769  14.923
85032W        W50292   0.417   5.420   0.351
85033W        W50293  27.998  41.425   2.322
85034W        W50294  23.644  16.761   2.115
85035W        W50295  38.466  26.604  10.734
85036W        W50296   3.867  16.775  13.049
85037W        W50297  10.916  15.800  12.632
85038W        W50298  16.559   7.862   4.378
85039W        W50299  11.315  21.140   0.067
85040W        W50300   8.727  26.410   3.159
85041W        W50301  18.767  13.526   0.734
85042W        W50302  40.822  11.370   3.171
85043W        W50303  26.698  17.692   2.283
85044W        W50304  17.185   7.089   1.884
85045W        W50305  22.937   0.489  11.972
85046W        W50306  12.814   2.292  11.416
85047W        W50307   6.203  13.819  13.988
85048W        W50308  43.581   8.422  11.557
85049W        W50309  22.658  26.288  13.923
85050W        W50310  36.386  11.716  10.706
85051W        W50311  34.988  18.021  13.751
85052W        W50312   8.319   0.757   4.902
85053W        W50313  18.800   0.568   4.301
85054W        W50314   4.217  11.808   3.806
85055W        W50315  39.895  22.301  11.643
85056W        W50316   9.881   5.361   0.900
85057W        W50317   4.478  28.046   1.679
85058W        W50318   9.265  18.219   4.876
85059W        W50319   4.874   7.167   0.583
85060W        W50320  21.367   4.522   1.235
85061W        W50321   3.359  36.909   3.715
85062W        W50322  15.176   9.091   1.934
85063W        W50323  39.392   4.826  11.836
85064W        W50324  34.869  37.488   9.768
85065W        W50325   7.142  44.501  11.175
85066W        W50326  42.980  41.322  12.485
85067W        W50327  36.828   7.717  14.943
85068W        W50328  43.571  27.816  14.079
85069W        W50329  33.910  42.816   2.034
85070W        W50330   3.505  27.472   0.336
85071W        W50331  28.698  10.140  12.407
85072W        W50332   8.604   6.303  14.805
85073W        W50333  16.339  35.467   0.613
85074W        W50334   0.157  24.108   3.508
85075W        W50335   0.406  13.867   0.983
85076W        W50336  13.957  16.268   1.778
85077W        W50337  41.341  33.056   2.545
85078W        W50338  40.016  36.897   3.703
85079W        W50339  20.149  14.316  14.898
85080W        W50340  38.990  30.051  14.063
85081W        W50341  22.936  10.715   3.624
85082W        W50342  21.205  23.049  13.344
85083W        W50343  38.416  35.822  11.094
85084W        W50344  20.672  19.993  12.104
85085W        W50345  42.863  36.421   4.045
85086W        W50346  25.445  27.187  12.483
85087W        W50347  35.579  25.130  12.625
85088W        W50348  22.117  40.948  12.409
85089W        W50349  40.207  13.270   0.592
85090W        W50350   5.176   3.544  13.502
85091W        W50351  27.908  32.310  11.969
85092W        W50352  30.437  36.924   0.788
85093W        W50353  14.121  31.979   0.615
85094W        W50354  39.412   0.462  10.700
85095W        W50355  22.118  16.389   1.388
85096W        W50356  35.104   6.337   2.960
85097W        W50357  43.231  31.284  14.432
85098W        W50358  42.013  31.424   3.319
85099W        W50359  42.913  42.203   0.540
85100W        W50360  13.728  12.744   3.148
85101W        W50361  33.823  43.535   3.221
85102W        W50362  43.587   4.912  12.088
85103W        W50363   2.592  12.732   0.595
85104W        W50364  19.223  21.246  12.376
85105W        W50365   2.332  23.806   1.733
85106W        W50366  24.431   0.202   2.831
85107W        W50367  36.520  31.465  12.208
85108W        W50368   2.467   5.175   4.391
85109W        W50369  17.898  12.987   4.060
85110W        W50370   2.703   1.309   3.503
85111W        W50371  19.121   2.366   0.793
85112W        W50372  26.608  24.640  14.236
85113W        W50373  20.796  27.146   2.676
85114W        W50374  36.023  30.332  13.113
85115W        W50375   4.522   1.765  11.179
85116W        W50376   4.390   9.918   1.259
85117W        W50377  26.616  12.688   4.388
85118W        W50378  10.802  26.977  13.340
85119W        W50379  24.856  20.178   4.856
85120W        W50380  39.017   0.941  14.017
85121W        W50381  11.568  31.077  13.534
85122W        W50382   5.120  32.433  14.725
85123W        W50383   8.250  34.567  11.676
85124W        W50384   0.609  20.956   1.889
85125W        W50385  35.376   0.034   3.647
85126W        W50386  36.998  31.678   1.394
85127W        W50387  26.145   9.207  12.538
85128W        W50388  43.860  42.315  12.931
85129W        W50389  34.984   9.911  13.653
85130W        W50390   2.404  33.384  13.012
85131W        W50391  36.923  39.107   3.213
85132W        W50392  29.867  18.320   2.146
85133W        W50393  18.068  12.708  10.722
85134W        W50394  31.609  42.835   3.267
85135W        W50395  37.825  24.456   2.311
85136W        W50396  24.727  22.801  11.098
85137W        W50397  31.130   0.915  14.633
85138W        W50398  14.177   5.381  11.113
85139W        W50399  35.302   8.883   1.814
85140W        W50400  17.244  30.836  12.624
85141W        W50401  40.398  32.656  12.558
85142W        W50402  44.581  13.425   4.469
85143W        W50403  20.797  23.512   4.585
85144W        W50404   9.042  33.864   1.269
85145W        W50405  25.728  43.790   3.291
85146W        W50406  37.946  35.381   1.799
85147W        W50407  24.631  17.094   1.799
85148W        W50408   1.851  17.070   1.633
85149W        W50409  41.998   0.092  13.369
85150W        W50410  44.210  25.659   0.208
85151W        W50411  11.724   1.488  13.567
85152W        W50412  28.408  44.479  11.147
85153W        W50413  12.806  29.491   9.734
85154W        W50414   5.262  16.871  11.872
85155W        W50415   0.367   2.330  14.848
85156W        W50416   7.852  27.515  14.022
85157W        W50417  35.381  19.151  13.507
85158W        W50418   5.240   5.042  12.160
85159W        W50419   8.581  39.892  14.005
85160W        W50420  22.632  13.475  10.481
85161W        W50421  25.696  41.397   4.141
85162W        W50422   8.630  41.272   0.003
85163W        W50423  11.185  38.275   2.364
85164W        W50424  24.795  30.198   0.168
85165W        W50425  16.064  43.265  11.105
85166W        W50426  43.333  37.592  13.632
85167W        W50427  34.607  20.708   2.231
85168W        W50428   5.699  31.666   2.596
85169W        W50429  20.758  36.190   5.354
85170W        W50430  27.159  43.852   2.214
85171W        W50431  42.413  21.075   0.273
85172W        W50432  18.452  34.479  14.808
85173W        W50433  17.407  32.682   4.073
85174W        W50434  41.997  20.226   2.944
85175W        W50435   2.733   8.086  12.567
85176W        W50436  15.225  43.346  14.725
85177W        W50437  32.194  29.679  11.152
85178W        W50438  23.696  40.354   3.050
85179W        W50439   0.374  18.537   0.777
85180W        W50440   4.253  28.935  12.914
85181W        W50441  30.283   2.936   4.143
85182W        W50442  37.313  41.010   2.416
85183W        W50443   2.340  11.352  14.460
85184W        W50444  10.423  36.947   1.436
85185W        W50445  39.332  21.100  14.901
85186W        W50446   1.686  14.151   2.639
85187W        W50447   1.686  21.137   0.500
85188W        W50448   5.987  27.188   2.641
85189W        W50449  21.313  26.112  14.036
85190W        W50450  16.141   9.466   0.466
85191W        W50451  30.346   5.146  11.093
85192W        W50452   3.785   3.287  12.333
85193W        W50453   7.120  22.167  12.909
85194W        W50454  27.399  38.538   2.240
85195W        W50455  28.165  41.850   2.613
85196W        W50456  18.185  38.283  11.129
85197W        W50457   7.204  27.662   4.124
85198W        W50458   7.808  32.628   0.998
85199W        W50459  12.422  34.422  12.682
85200W        W50460   0.505  20.953  11.796
85201W        W50461  39.033  40.960  14.924
85202W        W50462  34.151  21.720  12.011
85203W        W50463  15.274  40.545   2.374
85204W        W50464   6.480  22.178   1.783
85205W        W50465  34.588  36.214  12.620
85206W        W50466   2.139  31.603  14.245
85207W        W50467  18.773  28.843  12.262
85208W        W50468   4.263  41.092   3.206
85209W        W50469  39.269  41.358   3.313
85210W        W50470  12.242  35.942   4.386
85211W        W50471  33.604  33.072  11.050
85212W        W50472   5.266  40.919  12.038
85213W        W50473  20.097  34.772  10.933
85214W        W50474  31.391  14.326   2.448
85215W        W50475  30.648  38.931   2.154
85216W        W50476   3.960  37.309   0.365
85217W        W50477  23.457  26.194  14.329
85218W        W50478  11.232  18.018   3.249
85219W        W50479   4.719  11.397   1.221
85220W        W50480  41.286  41.814  11.464
85221W        W50481  24.603  12.295   4.171
85222W        W50482   2.574  31.670  14.546
85223W        W50483  26.571   3.021   0.390
85224W        W50484   7.488  28.970   0.049
85225W        W50485   5.847   5.207   2.853
85226W        W50486   7.430  12.089  11.912
85227W        W50487   5.409  39.573   1.006
85228W        W50488  24.701  28.511   4.247
85229W        W50489   3.126  24.990  14.904
85230W        W50490  29.506  40.550  13.621
85231W        W50491  20.523  30.581  13.444
85232W        W50492  32.694  14.939   4.384
85233W        W50493  37.859  21.422   4.683
85234W        W50494  41.987  25.400  14.771
85235W        W50495  44.806  31.655   0.223
85236W        W50496  28.467  23.637  12.866
85237W        W50497  37.986  39.312   3.134
85238W        W50498  31.556   3.726   1.231
85239W        W50499  15.371  25.691   2.348
85240W        W50500   0.623  40.026   4.925
85241W        W50501  12.709  10.137   0.758
85242W        W50502  21.158  31.286  14.369
85243W        W50503  15.028  33.382   3.608
85244W        W50504  44.978   4.736  14.609
85245W        W50505  36.091  16.591  11.225
85246W        W50506  25.653   9.185  14.995
85247W        W50507  25.632   3.116  14.459
85248W        W50508  13.808  19.390   0.457
85249W        W50509  21.985  33.879  11.135
85250W        W50510   1.813  10.623  11.830
85251W        W50511  11.697   8.237  13.012
85252W        W50512  16.781  10.537   0.291
85253W        W50513  16.632   3.474   0.010
85254W        W50514  42.713  25.557   2.181
85255W        W50515  37.965  10.274  12.451
85256W        W50516   0.477  24.269   0.503
85257W        W50517  34.115  17.520  14.044
85258W        W50518  26.051  37.912   3.494
85259W        W50519   1.830  38.263   2.101
85260W        W50520  19.751   2.206   4.500
85261W        W50521  40.327   6.870   3.234
85262W        W50522  31.885   9.078   1.418
85263W        W50523  43.244   3.748  10.662
85264W        W50524   3.862  20.633  14.918
85265W        W50525  17.644  15.075   1.564
85266W        W50526   8.427  33.761  12.438
85267W        W50527  39.489   4.965   1.246
85268W        W50528  26.534  23.147   1.272
85269W        W50529  13.391  41.446  10.732
85270W        W50530  30.553  39.294   4.701
85271W        W50531  32.908  17.229  10.656
85272W        W50532  28.605   0.203  12.761
85273W        W50533   1.615  22.231   1.680
85274W        W50534  11.207  16.809   3.631
85275W        W50535  19.114  41.705   4.179
85276W        W50536  16.640  13.811   4.578
85277W        W50537   5.231  39.913   1.847
85278W        W50538  38.287  38.637   3.911
85279W        W50539  37.346   0.413  14.309
85280W        W50540  14.840   4.652  12.046
85281W        W50541   2.789  18.370   0.727
85282W        W50542  29.914   4.214   4.548
85283W        W50543  31.666  10.888   4.157
85284W        W50544  26.331  29.461   2.079
85285W        W50545  33.795  15.271  13.103
85286W        W50546  41.157  13.749  11.294
85287W        W50547  37.753  17.536   2.239
85288W        W50548  14.079   3.856   0.377
85289W        W50549  30.052   3.351  13.878
85290W        W50550  41.713  31.091   4.664
85291W        W50551   4.187  35.559   2.276
85292W        W50552   4.884  32.311  13.629
85293W        W50553  31.414  41.347   0.209
85294W        W50554  42.280  24.604  14.743
85295W        W50555  39.409  34.017   1.255
85296W        W50556  14.609  10.183   2.663
85297W        W50557  21.663  11.276  13.028
85298W        W50558   1.965  37.273   2.348
85299W        W50559  39.823  30.409   3.687
85300W        W50560  15.842  31.105  14.935
85301W        W50561  30.066  34.216  12.376
85302W        W50562   7.634   8.575   3.435
85303W        W50563  38.275  10.755   2.403
85304W        W50564  38.881  25.593  11.486
85305W        W50565  14.622  43.264   2.365
85306W        W50566  17.134   2.626  14.410
85307W        W50567   9.244  27.966   1.856
85308W        W50568  44.134  37.916   2.172
85309W        W50569   1.501  41.026  12.003
85310W        W50570  42.905  44.570  12.917
85311W        W50571  20.068  33.956   0.435
85312W        W50572  30.736  14.121  11.854
85313W        W50573  39.049  13.106  12.211
85314W        W50574  14.739  34.475   3.871
85315W        W50575  27.815  29.899  14.579
85316W        W50576  40.779  16.256  12.756
85317W        W50577  23.363  28.524   1.048
85318W        W50578  20.393  15.789  13.810
85319W        W50579  38.335  28.032   1.176
85320W        W50580  25.480  42.903   1.537
85321W        W50581  36.155  16.156   0.707
85322W        W50582  25.109  18.771   0.487
85323W        W50583  14.224  44.471  10.915
85324W        W50584  27.105  27.451   0.907
85325W        W50585  24.981  44.532   0.418
85326W        W50586  17.873  33.596  10.772
85327W        W50587  10.773  43.884  10.948
85328W        W50588  32.941   9.157   4.094
85329W        W50589  23.754  29.521   3.777
85330W        W50590  23.510   2.227   0.066
85331W        W50591  19.162   0.467  13.861
85332W        W50592  27.354  30.913   0.946
85333W        W50593  20.788  32.437   2.507
85334W        W50594  27.114  20.217  14.418
85335W        W50595  22.252  35.833  12.201
85336W        W50596  17.807  22.589  12.620
85337W        W50597   5.281   1.219  13.138
85338W        W50598   5.110  15.674   4.087
85339W        W50599   5.299  22.321   3.462
85340W        W50600  33.625  10.731   1.937
85341W        W50601  32.989  30.188  10.245
85342W        W50602   6.994  16.902  14.102
85343W        W50603  17.298  19.156  14.837
85344W        W50604  25.761  29.136   3.294
85345W        W50605  33.862  29.945  11.519
85346W        W50606  12.238  11.331   4.583
85347W        W50607  38.602   3.755   4.065
85348W        W50608  11.640  15.198  10.632
85349W        W50609  38.890  31.905   2.492
85350W        W50610  30.209  41.333   3.596
85351W        W50611   0.205   4.743  10.779
85352W        W50612   4.391  16.304  10.621
85353W        W50613   8.261  36.433   2.419
85354W        W50614  17.684  23.940  10.715
85355W        W50615  37.070  37.571   3.181
85356W        W50616  44.449  18.584   0.806
85357W        W50617   9.169  24.501   1.248
85358W        W50618  14.384  18.147   4.489
85359W        W50619  32.444  15.760   4.055
85360W        W50620   3.112  38.498   2.081
85361W        W50621  24.658   8.794   9.698
85362W        W50622  24.970  42.475  11.232
85363W        W50623  34.665  16.536   2.813
85364W        W50624  29.475  43.365   0.011
85365W        W50625  12.841  39.375   2.112
85366W        W50626  40.595  11.224   1.792
85367W        W50627  24.371  38.331   3.539
85368W        W50628  37.396  17.104   5.006
85369W        W50629  34.392  31.847  13.535
85370W        W50630  37.846  37.826   4.120
85371W        W50631   3.912  38.601  12.005
85372W        W50632  43.815  36.105   2.054
85373W        W50633  43.052   4.288  14.390
85374W        W50634  13.837  21.958  10.570
85375W        W50635   8.717  18.596   2.149
85376W        W50636  40.939  25.295   0.312
85377W        W50637   6.749   4.756  14.363
85378W        W50638  36.185  17.283   4.198
85379W        W50639  11.124  44.960   3.299
85380W        W50640   4.425  11.181   2.780
85381W        W50641  21.516  44.827   3.915
85382W        W50642  41.851  26.523   2.155
85383W        W50643  41.307   6.805  10.817
85384W        W50644  21.034  13.984   4.453
85385W        W50645  39.457  30.593  13.379
85386W        W50646  10.410  29.867   4.369
85387W        W50647  40.777   3.497  12.992
85388W        W50648  27.943  36.795   2.860
85389W        W50649  44.977  19.646  13.577
85390W        W50650  22.735  38.571  10.694
85391W        W50651  15.238   2.328  11.854
85392W        W50652   9.338   1.143   0.818
85393W        W50653  37.111  13.655   2.721
85394W        W50654  40.341  38.737   0.788
85395W        W50655  11.705  30.831   1.337
85396W        W50656  13.680  43.789   2.186
85397W        W50657  36.108  28.552   4.048
85398W        W50658  37.566  39.039   4.690
85399W        W50659  41.920  17.260   0.772
85400W        W50660  16.007  44.006  14.132
85401W        W50661   9.442  29.111   4.606
85402W        W50662  10.270  36.397   0.577
85403W        W50663  19.245  21.442   4.648
85404W        W50664  21.785  28.629   3.680
85405W        W50665   9.726   0.058   4.553
85406W        W50666   1.718  26.118   2.743
85407W        W50667  20.565  32.385   1.039
85408W        W50668  17.539   3.135   3.244
85409W        W50669  42.411  21.981   4.788
85410W        W50670  16.266   5.213   2.803
85411W        W50671   8.734  20.006  12.909
85412W        W50672  25.393  13.063   4.849
85413W        W50673  29.644  41.809   4.530
85414W        W50674  33.370  24.690   3.213
85415W        W50675   3.270  21.543   1.795
85416W        W50676   4.385   4.021   3.824
85417W        W50677  29.202  10.401   3.745
85418W        W50678   2.247  42.040   4.167
85419W        W50679  12.858   2.237   2.261
85420W        W50680   4.644  22.687   1.953
85421W        W50681  26.977  25.640  12.490
85422W        W50682   7.381  24.750   1.635
85423W        W50683  24.741   7.002  11.472
85424W        W50684  23.282  35.035   3.157
85425W        W50685  32.990  25.757  13.816
85426W        W50686  36.978  41.006   4.759
85427W        W50687  42.417   2.033   3.656
85428W        W50688  41.425  25.945  12.494
85429W        W50689   1.059  13.479  11.010
85430W        W50690  40.009  40.806   2.471
85431W        W50691  22.697  37.114  13.651
85432W        W50692   2.914  39.955   3.819
85433W        W50693  23.145  13.501  12.552
85434W        W50694  28.679  34.549   3.284
85435W        W50695  42.224  36.859  13.043
85436W        W50696  44.929  23.016  11.619
85437W        W50697   8.597  17.733  10.623
85438W        W50698   7.724   8.197   4.158
85439W        W50699   7.499   3.221  12.005
85440W        W50700   9.957   5.322  14.283
85441W        W50701   8.012  43.925  10.421
85442W        W50702   3.657  34.995  14.891
85443W        W50703  35.576  44.965  12.839
85444W        W50704   4.469   2.901  12.339
85445W        W50705   4.712  35.394   3.112
85446W        W50706  39.397  12.658  10.943
85447W        W50707   4.247  27.133   1.676
85448W        W50708  23.824   0.757  13.859
85449W        W50709  35.571  36.549  12.360
85450W        W50710  38.328  32.699  11.028
85451W        W50711  39.306  15.253   4.330
85452W        W50712  22.029   8.648  13.098
85453W        W50713  29.460   9.348   0.828
85454W        W50714   0.419   7.891  14.423
85455W        W50715  41.209  36.412   3.650
85456W        W50716  25.982  17.017   1.324
85457W        W50717  13.116  36.378  14.879
85458W        W50718   2.701  12.697  13.038
85459W        W50719  39.892   0.818  14.527
85460W        W50720  11.080  34.827  13.074
85461W        W50721   9.818   7.128   3.531
85462W        W50722  29.707  14.905   2.891
85463W        W50723  14.227  26.412  10.677
85464W        W50724  32.493  10.722   2.628
85465W        W50725  40.910   6.191  13.410
85466W        W50726  18.153  21.251   2.737
85467W        W50727   3.863  29.656   3.134
85468W        W50728  18.537  24.609  14.051
85469W        W50729  19.109  33.471   0.429
85470W        W50730  29.383  19.984   1.872
85471W        W50731  17.522   1.978   2.321
85472W        W50732  32.458  36.143   1.190
85473W        W50733  13.170  37.605   2.371
85474W        W50734  20.201  39.039  14.464
85475W        W50735  18.029  12.728  11.644
85476W        W50736  24.040  38.939  14.980
85477W        W50737  31.526  41.462  10.893
85478W        W50738   5.375  12.332   4.373
85479W        W50739  26.699  37.095   5.266
85480W        W50740  34.225   6.329  13.320
85481W        W50741  14.223  33.870  14.265
85482W        W50742  40.937  14.312  14.997
85483W        W50743  31.853  16.224   2.424
85484W        W50744  36.393  35.176   3.773
85485W        W50745  39.879  35.069   3.717
85486W        W50746   1.635  19.024   2.509
85487W        W50747  17.629  11.679  10.623
85488W        W50748  25.257   6.385  13.830
85489W        W50749  15.381  18.719   1.879
85490W        W50750  41.238  12.144  11.640
85491W        W50751  32.970  39.709   0.933
85492W        W50752  31.481  25.416  14.326
85493W        W50753  18.266  20.620  12.587
85494W        W50754  22.136  29.252  12.214
85495W        W50755  35.510  14.579  12.540
85496W        W50756  32.505   5.682   0.737
85497W        W50757  17.628  23.993   4.094
85498W        W50758  12.729  19.680  11.576
85499W        W50759  33.189  41.421   3.190
85500W        W50760  15.352  30.905  14.912
85501W        W50761  17.778  33.312   1.392
85502W        W50762  44.328  23.110   1.289
85503W        W50763  38.347  44.864   3.603
85504W        W50764  34.942   6.699   3.348
85505W        W50765  40.486  15.488   0.701
85506W        W50766  14.400   1.797  13.597
85507W        W50767  31.991  21.584   0.313
85508W        W50768  20.988  38.973  10.947
85509W        W50769  10.610  17.663  13.493
85510W        W50770  25.324  15.973   4.917
85511W        W50771   1.127  35.128   0.804
85512W        W50772  40.331   0.727   4.098
85513W        W50773   3.878  20.296   0.305
85514W        W50774  15.217  40.403  13.103
85515W        W50775  15.027  20.125  14.547
85516W        W50776   8.395  20.169   0.351
85517W        W50777  18.221  31.974   1.246
85518W        W50778  43.803  20.583   3.494
85519W        W50779  33.491  23.139   2.661
85520W        W50780  18.866  32.658   0.272
85521W        W50781  16.170   8.421  13.393
85522W        W50782  18.155  30.797  14.376
85523W        W50783  24.186   6.303  12.262
85524W        W50784  27.420  41.808   4.520
85525W        W50785  13.200  24.941   1.816
85526W        W50786  12.853  16.554  10.627
85527W        W50787  14.256  16.880  13.431
85528W        W50788  32.375  17.353   2.623
85529W        W50789  34.710  41.765  12.979
85530W        W50790  43.542  26.546  14.800
85531W        W50791  13.231  31.986   0.534
85532W        W50792   3.933  41.370  13.543
85533W        W50793  25.988   5.188   3.316
85534W        W50794   8.350  23.990   5.350
85535W        W50795  16.650  23.453  10.751
85536W        W50796  44.430  11.835  11.801
85537W        W50797  26.135  27.721  14.437
85538W        W50798  32.999  19.139   0.405
85539W        W50799  17.175  44.481   4.285
85540W        W50800  17.753  16.564   3.176
85541W        W50801  28.783  28.556   1.236
85542W        W50802  11.268   7.317   0.026
85543W        W50803  41.762  37.657  12.944
85544W        W50804   8.301  40.024  12.059
85545W        W50805  28.672  40.346   1.446
85546W        W50806  16.657  23.797  14.816
85547W        W50807   1.814  43.996  13.605
85548W        W50808  34.423   0.734  13.357
85549W        W50809  24.753   8.492   5.389
85550W        W50810  14.393  10.142   0.608
85551W        W50811  35.989  38.393   5.002
85552W        W50812  43.238  25.253  12.922
85553W        W50813  27.392  39.455   3.647
85554W        W50814   9.829  10.519   2.815
85555W        W50815   3.747  37.900  12.696
85556W        W50816  40.834  23.272  14.586
85557W        W50817  31.566  41.085  11.258
85558W        W50818  19.075  36.502   0.419
85559W        W50819  44.600  17.547   0.571
85560W        W50820  21.219  21.091   2.336
85561W        W50821  25.702   9.154   2.451
85562W        W50822  10.051  15.357  11.546
85563W        W50823  12.282  40.573  12.614
85564W        W50824  20.371  37.858  13.098
85565W        W50825  40.622  26.873  11.030
85566W        W50826  34.963   8.251   4.202
85567W        W50827  19.691  23.556   4.706
85568W        W50828  27.066  32.047   0.417
85569W        W50829  13.281  31.683   1.862
85570W        W50830  44.394  13.576   0.290
85571W        W50831  18.044  22.001  11.338
85572W        W50832  13.257  34.214   1.774
85573W        W50833  31.904  18.973  12.044
85574W        W50834  29.956  15.842   5.024
85575W        W50835   1.354  22.333   0.290
85576W        W50836  32.348   4.692  12.019
85577W        W50837  30.146  24.715  11.204
85578W        W50838  34.270  39.047   4.565
85579W        W50839  40.174  38.603   4.356
85580W        W50840  11.414  21.195   4.943
85581W        W50841   1.793  31.994   3.588
85582W        W50842   5.913  18.083  11.732
85583W        W50843  16.006  39.657  12.186
85584W        W50844   9.838   8.693  14.592
85585W        W50845  36.055  20.558  14.784
85586W        W50846   4.672   9.801   0.471
85587W        W50847   3.337  18.845  10.774
85588W        W50848   1.171  28.454   4.550
85589W        W50849  34.354  24.149  13.946
85590W        W50850  41.021  15.565   3.492
85591W        W50851  44.256  30.345  13.876
85592W        W50852  14.543  41.985   0.941
85593W        W50853  15.131  29.736   4.226
85594W        W50854  23.503  44.770  11.968
85595W        W50855   0.849  37.843   2.050
85596W        W50856  31.522  32.381   3.713
85597W        W50857  13.551  17.538   2.685
85598W        W50858   9.670  36.566   3.409
85599W        W50859  42.100  31.033   1.726
85600W        W50860  32.921  33.673   3.685
85601W        W50861  13.070  29.074  12.459
85602W        W50862  20.302  34.469   2.156
85603W        W50863  31.200  36.805  12.060
85604W        W50864  20.621  42.260  14.843
85605W        W50865  32.939   2.352   3.586
85606W        W50866  44.486   4.158  13.061
85607W        W50867  17.203   4.128   0.463
85608W        W50868  32.189  27.978  11.484
85609W        W50869  24.255  28.549  14.823
85610W        W50870  17.445  33.930  14.129
85611W        W50871   4.142  35.102  12.409
85612W        W50872   9.320  33.954  13.461
85613W        W50873  18.989   7.301  10.347
85614W        W50874  21.486   2.092  11.233
85615W        W50875  11.110  39.972  10.725
85616W        W50876  35.472  32.502  14.971
85617W        W50877   9.868  14.799  14.384
85618W        W50878  36.953  10.954  13.895
85619W        W50879  20.094  24.094   2.705
85620W        W50880  30.460   0.949  14.884
85621W        W50881   6.265  10.611   3.740
85622W        W50882  17.294  35.385   1.032
85623W        W50883   7.112  18.703  13.726
85624W        W50884  12.251  20.582   3.636
85625W        W50885  27.974  29.092  12.584
85626W        W50886  38.456  31.041   0.439
85627W        W50887  31.602   9.320   4.102
85628W        W50888   6.749  19.681   2.916
85629W        W50889  24.423  18.590   1.661
85630W        W50890  13.623  42.298  14.149
85631W        W50891   0.499   0.955  13.576
85632W        W50892   5.831  20.525  11.521
85633W        W50893  42.361  39.479  13.146
85634W        W50894  39.769  30.202   1.702
85635W        W50895   9.932  41.803  14.967
85636W        W50896  36.000  31.572   4.412
85637W        W50897   7.238  34.056  11.621
85638W        W50898  41.465  11.864   2.369
85639W        W50899   3.571  31.461   0.957
85640W        W50900  21.384  15.040   3.124
85641W        W50901  32.574  34.668  13.993
85642W        W50902  42.728   5.233   4.181
85643W        W50903  22.647  14.895  12.691
85644W        W50904  27.204  25.554  12.946
85645W        W50905  30.962  18.467  11.141
85646W        W50906   0.300  28.362   1.811
85647W        W50907  19.970  23.708   0.324
85648W        W50908  22.497  41.471   3.588
85649W        W50909   7.136  40.710   0.909
85650W        W50910   1.534   7.739  10.703
85651W        W50911   0.429  19.969   2.767
85652W        W50912  42.528   1.369  14.384
85653W        W50913  30.074  28.124   3.642
85654W        W50914  15.466  21.039   1.714
85655W        W50915  25.234  41.892   2.425
85656W        W50916  17.484   5.142  12.426
85657W        W50917  24.657   5.864   0.908
85658W        W50918  13.165  24.534   2.139
85659W        W50919  16.566  35.800   3.776
85660W        W50920  19.007  34.982   0.356
85661W        W50921  31.832  18.247   3.207
85662W        W50922  20.703  30.680  11.663
85663W        W50923  26.411  16.579   4.319
85664W        W50924  44.308  22.313  13.067
85665W        W50925  38.030  30.339  14.952
85666W        W50926  33.935  31.161  13.035
85667W        W50927  13.925  17.284   0.284
85668W        W50928  32.469   1.291  12.056
85669W        W50929  39.799  31.609  14.012
85670W        W50930   3.455  32.040   4.540
85671W        W50931   4.996  22.478  14.613
85672W        W50932   2.389   7.463  13.526
85673W        W50933  37.115  25.706  11.972
85674W        W50934  34.149  36.143  12.884
85675W        W50935  39.455  18.475   0.505
85676W        W50936  28.986  31.483  11.149
85677W        W50937   3.558   6.742  14.400
85678W        W50938  42.111  22.935  12.449
85679W        W50939  39.976  15.227  13.161
85680W        W50940  34.985  41.057   1.884
85681W        W50941  24.125  32.572   1.203
85682W        W50942  28.551  12.215   3.704
85683W        W50943  29.476  34.783  11.701
85684W        W50944  31.474  23.257   1.309
85685W        W50945  33.378  44.666  11.908
85686W        W50946  39.307  36.400   4.341
85687W        W50947  25.557   4.972  13.865
85688W        W50948  38.914  19.820  10.625
85689W        W50949  10.656  11.759  13.206
85690W        W50950  27.601  41.983  10.706
85691W        W50951  31.775  22.218  14.325
85692W        W50952  12.702  17.772   4.201
85693W        W50953  18.055  32.403  12.331
85694W        W50954   9.625  30.877   2.357
85695W        W50955  34.417  34.382  11.887
85696W        W50956  42.412   6.548  12.055
85697W        W50957   3.478  42.936  11.601
85698W        W50958  18.242  24.982  13.310
85699W        W50959  37.400  37.729   0.833
85700W        W50960   8.644   6.910   1.805
85701W        W50961  11.608   6.666  11.091
85702W        W50962  31.297  43.550  13.417
85703W        W50963  43.808  29.961   2.744
85704W        W50964  35.577   6.804   0.439
85705W        W50965  38.186   2.197   2.695
85706W        W50966  34.002  43.132  13.936
85707W        W50967   7.189  20.566  13.962
85708W        W50968  35.254  21.737  12.848
85709W        W50969  11.444  19.976  10.509
85710W        W50970  16.246  26.803   2.813
85711W        W50971  21.656  37.150   2.819
85712W        W50972  41.431  11.678  12.566
85713W        W50973  10.782   8.408   2.886
85714W        W50974   7.962   3.513   0.182
85715W        W50975  41.181   2.339  11.934
85716W        W50976  26.775  39.996  14.336
85717W        W50977  34.531   2.215   4.141
85718W        W50978  26.944  14.331   0.022
85719W        W50979  40.775   8.273   0.258
85720W        W50980  23.274  39.102  11.943
85721W        W50981  12.789  35.006  11.249
85722W        W50982  37.837   5.644  12.539
85723W        W50983  32.589  37.578   2.675
85724W        W50984  36.121   7.198   0.893
85725W        W50985  12.770  24.026  13.377
85726W        W50986  32.687  36.977  12.001
85727W        W50987  28.376  32.538   3.293
85728W        W50988  43.253  25.136   3.602
85729W        W50989  37.878  21.282  11.071
85730W        W50990  21.123  25.194   1.496
85731W        W50991   5.335   3.646  11.145
85732W        W50992  11.172   9.504   1.310
85733W        W50993   0.223  24.654   1.296
85734W        W50994  22.430  25.024   1.235
85735W        W50995  16.697   9.599  14.003
85736W        W50996  30.939   1.141  12.024
85737W        W50997  11.883  27.057   4.950
85738W        W50998  14.032  22.541   0.844
85739W        W50999  14.306  19.496   4.138
85740W        W51000  39.829  25.962  14.963
85741W        W51001  34.845  38.384  11.139
85742W        W51002  35.079  18.674   3.202
85743W        W51003  39.571  34.523  13.624
85744W        W51004  24.527  32.397   3.159
85745W        W51005   9.131   0.864   2.764
85746W        W51006  14.533  26.553  11.616
85747W        W51007  39.151   1.500   3.129
85748W        W51008  32.603  17.627   0.056
85749W        W51009  17.530  37.772  10.575
85750W        W51010  20.583  10.527   1.314
85751W        W51011   4.745   0.531   1.914
85752W        W51012  15.426  18.111   0.683
85753W        W51013  39.640  38.469   4.287
85754W        W51014   2.279  43.851  12.393
85755W        W51015  44.424  20.622  13.318
85756W        W51016  37.526  39.068  11.515
85757W        W51017  31.452  19.744   3.110
85758W        W51018  41.031  25.467  12.544
85759W        W51019   0.746  28.960   1.335
85760W        W51020  41.658  43.172   2.753
85761W        W51021  11.696   1.839  10.299
85762W        W51022  12.755  20.075  14.781
85763W        W51023  43.687  43.815   1.208
85764W        W51024   4.813  12.680  10.253
85765W        W51025  38.882   3.423   1.465
85766W        W51026  43.328  20.827  12.037
85767W        W51027   0.765   5.326   2.984
85768W        W51028  17.369  20.574  12.513
85769W        W51029  39.505  31.325   4.122
85770W        W51030  20.236  43.797   3.725
85771W        W51031  44.799  13.115  12.682
85772W        W51032   1.945  38.395  13.919
85773W        W51033  25.758  15.663  14.977
85774W        W51034   2.539  32.607  13.528
85775W        W51035  16.204  27.363  14.476
85776W        W51036  32.375  27.527   2.104
85777W        W51037  23.505  16.659   3.183
85778W        W51038  24.518   2.924  14.239
85779W        W51039   4.171  18.685   1.806
85780W        W51040  30.914  30.954   0.472
85781W        W51041  39.116  22.180  10.479
85782W        W51042  13.397  40.130   3.218
85783W        W51043  28.256  18.112   4.670
85784W        W51044  37.000  27.446   1.681
85785W        W51045   9.880  29.668   1.434
85786W        W51046  15.615  30.358   4.612
85787W        W51047  20.288   6.902  12.523
85788W        W51048  42.901  32.409   1.842
85789W        W51049  21.297  41.526   1.885
85790W        W51050  39.776  36.276  11.872
85791W        W51051  24.398  14.127   0.136
85792W        W51052  25.469  39.679   3.256
85793W        W51053  36.067  23.955   4.044
85794W        W51054  38.549  19.161   3.761
85795W        W51055  31.113   3.510  13.004
85796W        W51056   5.366  12.191  10.626
85797W        W51057  12.242  25.447  13.566
85798W        W51058  24.098  20.801   3.316
85799W        W51059  20.776  33.652  13.858
85800W        W51060  10.338  17.211  13.509
85801W        W51061  43.905  31.396  11.037
85802W        W51062   4.906  16.209  11.621
85803W        W51063  33.338   5.976  11.960
85804W        W51064  12.332   4.323   1.415
85805W        W51065  26.052   9.240   0.403
85806W        W51066   7.292  14.311  10.584
85807W        W51067  27.598  44.513  13.609
85808W        W51068   3.257  43.407  11.633
85809W        W51069  40.200  21.656   2.796
85810W        W51070   4.980  24.959  12.068
85811W        W51071  19.973  14.354  12.647
85812W        W51072  11.383  22.693   3.676
85813W        W51073   0.746   2.747   0.378
85814W        W51074  43.287  32.299   1.485
85815W        W51075  11.212   5.730  12.364
85816W        W51076  41.757   6.295  13.040
85817W        W51077  18.073  35.193  13.419
85818W        W51078  35.470  20.765  14.947
85819W        W51079   4.139  37.131  10.999
85820W        W51080   1.703  22.522   1.281
85821W        W51081   6.677   3.306   0.994
85822W        W51082  32.002  35.037   4.135
85823W        W51083  35.827   7.792  13.956
85824W        W51084   3.740  29.371   1.842
85825W        W51085  21.093  35.407   2.390
85826W        W51086  40.392  16.185   2.486
85827W        W51087  18.439  37.395  10.979
85828W        W51088  35.459  34.904   2.090
85829W        W51089  33.596  43.765   3.642
85830W        W51090   2.301  10.462  10.625
85831W        W51091   1.644   6.589   3.005
85832W        W51092   4.250  28.478   3.314
85833W        W51093  19.229  11.281  13.064
85834W        W51094  19.625  30.818   4.727
85835W        W51095   3.249  37.020  14.384
85836W        W51096  12.321   8.508   5.314
85837W        W51097  43.913  28.074  13.017
85838W        W51098  21.811   9.293   0.235
85839W        W51099  41.831  16.292  13.128
85840W        W51100  44.999   3.092  13.466
85841W        W51101  33.067   0.746  11.592
85842W        W51102  22.993  37.120   3.070
85843W        W51103  35.822  14.153   1.920
85844W        W51104   4.493  18.100  12.521
85845W        W51105  41.230   2.362   1.223
85846W        W51106  24.083  10.448  14.595
85847W        W51107   6.062  24.087   1.024
85848W        W51108   0.804   4.489   0.406
85849W        W51109  21.757  15.854   0.353
85850W        W51110  43.929  15.615   4.453
85851W        W51111   8.377   1.490   0.840
85852W        W51112   2.269  38.613   4.082
85853W        W51113  41.431   9.807   4.958
85854W        W51114  33.618   4.281   2.204
85855W        W51115  36.035  18.454   4.145
85856W        W51116  12.061  16.812  11.022
85857W        W51117  19.139  13.076   4.169
85858W        W51118   1.252  44.446   1.356
85859W        W51119  42.537  40.345  13.078
85860W        W51120  30.481  26.117   3.267
85861W        W51121  11.296  37.816  14.524
85862W        W51122  26.172  26.495   3.884
85863W        W51123   1.838   3.483  12.115
85864W        W51124   4.174   3.676  11.564
85865W        W51125  32.436  43.451   3.218
85866W        W51126   2.468  42.477   4.401
85867W        W51127  22.751  32.143   3.356
85868W        W51128  34.884  27.100  13.846
85869W        W51129  28.116  23.308  12.679
85870W        W51130  29.573  39.032   3.383
85871W        W51131  21.212  35.066  12.462
85872W        W51132  23.078  12.146   0.623
85873W        W51133  34.690  43.190   0.194
85874W        W51134   5.790  28.265   1.714
85875W        W51135  33.212  31.905  10.570
85876W        W51136  33.644   5.849  12.774
85877W        W51137  42.777  25.478   1.294
85878W        W51138  15.180   1.918  14.710
85879W        W51139  36.300  25.866   2.730
85880W        W51140  43.516  36.370   1.413
85881W        W51141  22.566   1.503   2.816
85882W        W51142  44.298  28.179  14.931
85883W        W51143   2.496  23.740   1.220
85884W        W51144  22.208  10.253  11.760
85885W        W51145  10.606  23.706   4.149
85886W        W51146  20.250  31.573   3.585
85887W        W51147  26.269   8.264  12.504
85888W        W51148   4.216  38.133   2.821
85889W        W51149   4.867  16.142   4.153
85890W        W51150  24.668   0.981   1.347
85891W        W51151  28.844  31.291   0.967
85892W        W51152  19.289  11.649  11.248
85893W        W51153  34.071  40.387   0.352
85894W        W51154  31.649   4.212   1.388
85895W        W51155  23.026  29.476  12.511
85896W        W51156  37.487  10.744  11.949
85897W        W51157  36.959  31.211  12.335
85898W        W51158   6.970  44.710   2.327
85899W        W51159  35.136  35.920   1.733
85900W        W51160  31.456  28.881   2.064
85901W        W51161  39.600  23.940  13.940
85902W        W51162  10.235  27.619  14.878
85903W        W51163  28.625  41.264   0.512
85904W        W51164  38.725  25.636   0.959
85905W        W51165   2.038  21.284  13.486
85906W        W51166  21.563  33.470   3.780
85907W        W51167   4.717  13.484  12.343
85908W        W51168  35.840   7.136   3.881
85909W        W51169  27.096  23.392  14.850
85910W        W51170  30.192  38.527  13.002
85911W        W51171  10.479  31.194  14.341
85912W        W51172  14.239  15.166  10.557
85913W        W51173   1.799  44.910  11.849
85914W        W51174   2.294  21.615   2.128
85915W        W51175  17.558   2.740  12.600
85916W        W51176  42.659  17.691  14.380
85917W        W51177  18.727  23.767   2.240
85918W        W51178  12.137  17.850   2.241
85919W        W51179   6.915  33.615  11.582
85920W        W51180  21.340  12.966   2.179
85921W        W51181  39.421  44.624  10.458
85922W        W51182   4.220  17.978   0.476
85923W        W51183  15.951   1.715   0.171
85924W        W51184   0.864  27.535   3.089
85925W        W51185  17.156   3.376   0.913
85926W        W51186   4.241  17.262  11.123
85927W        W51187  31.337   3.414  13.533
85928W        W51188  32.937  25.603   1.613
85929W        W51189  26.672   7.892   3.127
85930W        W51190   8.262  30.034   4.772
85931W        W51191  21.405  25.912   4.085
85932W        W51192  15.813  27.500   3.629
85933W        W51193  41.858  22.792  11.552
85934W        W51194  34.690   5.739   4.562
85935W        W51195  13.749  25.875   0.293
85936W        W51196  28.425   1.551  11.174
85937W        W51197  36.338   7.526  14.489
85938W        W51198   6.695  19.098   0.324
85939W        W51199  38.487  13.049   0.968
85940W        W51200   0.839  17.951  13.521
85941W        W51201  43.484  16.142  12.371
85942W        W51202  36.274  25.739  11.192
85943W        W51203  27.276  15.626  13.333
85944W        W51204   1.237  11.774   0.933
85945W        W51205  41.405  42.884  12.944
85946W        W51206  15.135  30.078   0.341
85947W        W51207  11.285  20.441   4.201
85948W        W51208  21.608  44.414   4.205
85949W        W51209   1.832  25.867  13.157
85950W        W51210  40.114  27.642   4.202
85951W        W51211  44.984  37.278   2.682
85952W        W51212   2.186  15.165   0.804
85953W        W51213   5.137  18.794   0.946
85954W        W51214  35.356   3.646  12.785
85955W        W51215   1.718  27.588  12.060
85956W        W51216  12.893  36.528   4.000
85957W        W51217  17.591   4.472   0.503
85958W        W51218  37.940  30.458  13.947
85959W        W51219  17.396  38.913  13.228
85960W        W51220   6.593  31.617   2.761
85961W        W51221  42.259   5.023   4.365
85962W        W51222  33.506  19.557  10.435
85963W        W51223  18.687  16.097   1.911
85964W        W51224   1.838   6.142   3.155
85965W        W51225   2.088  20.039   3.261
85966W        W51226  18.253  21.262  14.310
85967W        W51227  41.882   2.425   0.054
85968W        W51228  37.120  18.624   0.689
85969W        W51229   5.324   8.972   2.413
85970W        W51230  38.905  16.558  13.071
85971W        W51231  33.440  29.274  10.205
85972W        W51232  33.466  44.716   0.752
85973W        W51233  44.369  14.765   1.814
85974W        W51234   4.563  11.923   4.610
85975W        W51235  42.199  25.636  11.573
85976W        W51236  24.705  35.312   2.227
85977W        W51237  16.722   3.904   0.300
85978W        W51238  33.825   9.603  11.682
85979W        W51239  16.730  15.414   4.609
85980W        W51240  14.372  44.251  14.761
85981W        W51241   3.750  34.709  13.914
85982W        W51242  24.158   9.868  11.919
85983W        W51243  29.962   9.894   0.457
85984W        W51244   6.142  37.096  14.944
85985W        W51245  35.048  30.546  13.942
85986W        W51246   4.380   3.841   2.985
85987W        W51247  12.413  13.284  11.941
85988W        W51248  33.583  41.798  14.522
85989W        W51249  29.625  34.261  14.860
85990W        W51250  16.220  35.090  11.688
85991W        W51251   6.374  28.299  12.072
85992W        W51252  44.225  30.503  12.069
85993W        W51253  20.733  27.499   3.632
85994W        W51254  24.396  25.092   2.239
85995W        W51255  31.017  18.470   4.997
85996W        W51256  42.691  15.698   0.720
85997W        W51257  33.709  28.701   4.025
85998W        W51258  29.301   6.132   3.575
85999W        W51259  39.892  42.507  14.513
86000W        W51260   1.396  26.553  12.980
86001W        W51261  37.472  39.902  14.742
86002W        W51262  33.050  34.580   3.872
86003W        W51263   8.753  40.072  11.784
86004W        W51264  25.500  14.242   1.621
86005W        W51265  19.101   9.628   4.665
86006W        W51266  29.985  27.261  11.004
86007W        W51267   5.312   5.644  14.476
86008W        W51268  29.256  42.499  12.604
86009W        W51269  26.021  28.028  12.443
86010W        W51270   2.091  12.405   3.184
86011W        W51271  18.589  19.751  13.397
86012W        W51272  10.986   4.233  10.714
86013W        W51273  18.504  13.752  12.537
86014W        W51274  27.908  42.923   3.395
86015W        W51275   8.745  43.544   4.373
86016W        W51276  12.621  16.125  11.443
86017W        W51277   2.010   5.830  12.502
86018W        W51278  39.811   9.042  12.058
86019W        W51279  41.479  31.467   3.415
86020W        W51280  39.824  24.665   3.768
86021W        W51281  10.312   4.749  10.735
86022W        W51282   8.943  44.870   4.046
86023W        W51283  15.860   0.140  11.146
86024W        W51284   6.350   8.431   1.182
86025W        W51285  20.724  26.380  10.350
86026W        W51286   0.144  39.813  11.160
86027W        W51287  17.349   0.972  11.480
86028W        W51288  11.371   6.786   0.645
86029W        W51289   5.377  20.693  13.197
86030W        W51290  24.956  33.552  11.169
86031W        W51291  39.146  43.723   3.192
86032W        W51292  21.632  27.183   3.568
86033W        W51293  43.770  30.350   4.300
86034W        W51294   7.518  30.669   0.751
86035W        W51295   4.354  28.338  13.988
86036W        W51296   9.411  22.933   1.377
86037W        W51297  39.003  41.894   4.637
86038W        W51298   2.912   4.013  12.585
86039W        W51299  29.930  36.838   0.013
86040W        W51300  27.484  19.331  11.650
86041W        W51301  27.537  18.689   3.722
86042W        W51302   8.138  33.787   5.053
86043W        W51303  13.397  40.312   4.179
86044W        W51304   7.482  41.255   2.911
86045W        W51305  18.356  21.737  12.584
86046W        W51306  32.197  30.536   0.930
86047W        W51307  33.530  13.862   4.781
86048W        W51308  14.602  10.933  13.738
86049W        W51309   1.442  35.527   1.530
86050W        W51310  23.155  38.593   3.447
86051W        W51311   4.283  16.302  13.578
86052W        W51312  37.537  24.726   4.794
86053W        W51313  30.012   6.386   2.161
86054W        W51314  25.029  44.505  12.144
86055W        W51315  41.654  44.493  11.606
86056W        W51316  15.238  19.764  13.257
86057W        W51317  38.541  14.059  11.546
86058W        W51318  10.930  31.489  12.478
86059W        W51319  29.004  42.522  14.427
86060W        W51320   2.781   7.408   0.030
86061W        W51321  23.112   6.204  10.748
86062W        W51322  13.888   6.872   1.779
86063W        W51323   1.545   5.245   1.273
86064W        W51324  18.776   7.787   0.824
86065W        W51325  35.846  24.479   4.656
86066W        W51326  29.150  24.000  14.288
86067W        W51327  33.038  32.135  11.660
86068W        W51328  42.550  31.859   5.029
86069W        W51329  13.729  31.639  10.643
86070W        W51330   8.719   2.983  14.895
86071W        W51331  29.649   1.393   3.688
86072W        W51332  37.445  44.642   4.081
86073W        W51333  41.696   0.795   3.625
86074W        W51334  42.256  13.075  13.195
86075W        W51335  34.189  15.321  14.882
86076W        W51336  21.538  33.449  14.891
86077W        W51337   2.748  30.455  10.509
86078W        W51338  29.049  16.789  11.014
86079W        W51339  32.914  13.771   3.600
86080W        W51340  39.428   4.796  10.588
86081W        W51341  29.404  20.505  12.279
86082W        W51342  10.184  35.001   3.318
86083W        W51343  22.016   4.369   1.812
86084W        W51344  27.026   4.297  14.290
86085W        W51345  24.514  30.599  11.103
86086W        W51346  25.691  41.497  12.518
86087W        W51347  23.037  16.938  11.076
86088W        W51348  17.148  12.571   3.706
86089W        W51349  30.862  27.416  12.908
86090W        W51350  38.115  32.544   3.652
86091W        W51351   6.592   0.389  13.454
86092W        W51352  27.042  32.212   2.860
86093W        W51353  31.546   3.843  11.476
86094W        W51354  17.567  42.802   4.100
86095W        W51355  41.516   4.839   2.202
86096W        W51356  42.516  34.022  11.035
86097W        W51357  38.130  24.055  13.948
86098W        W51358  37.568  43.166   4.112
86099W        W51359  31.227   5.845   2.204
86100W        W51360  29.020  41.406   2.667
86101W        W51361  35.100  22.601  13.924
86102W        W51362  11.394   9.096   1.712
86103W        W51363  29.567  20.080  13.575
86104W        W51364   3.739   5.116   4.201
86105W        W51365  19.830  11.296  13.975
86106W        W51366  36.096  32.395   3.493
86107W        W51367  21.553  24.985   1.279
86108W        W51368  43.538  25.211  11.719
86109W        W51369  39.800  42.860   2.166
86110W        W51370  32.466   6.406  14.496
86111W        W51371  19.196  37.070  13.952
86112W        W51372   2.227   1.498   0.806
86113W        W51373  33.282  20.231   2.775
86114W        W51374  12.811   3.163   3.160
86115W        W51375   6.319  20.472  13.661
86116W        W51376   2.485  29.427  14.923
86117W        W51377   3.804  21.392  12.689
86118W        W51378  16.312  24.316  10.726
86119W        W51379   3.730  30.758  13.042
86120W        W51380  27.138  30.898   2.257
86121W        W51381  10.330  30.748  10.568
86122W        W51382  41.392  12.416   0.316
86123W        W51383   0.426  38.502  13.998
86124W        W51384  37.432   3.825   0.838
86125W        W51385   8.710   0.778  11.416
86126W        W51386  28.033  30.410  13.016
86127W        W51387  25.293   5.938   5.047
86128W        W51388  42.945  29.437  12.399
86129W        W51389   6.237  22.524   2.592
86130W        W51390  19.452  30.190  12.991
86131W        W51391  30.877   6.303   0.840
86132W        W51392  10.608  41.535   4.526
86133W        W51393  36.667   3.926   1.916
86134W        W51394   0.502  19.760  13.639
86135W        W51395  40.410  11.840  10.273
86136W        W51396  23.096   6.989   4.884
86137W        W51397  17.498  24.286   4.987
86138W        W51398   5.260  10.787  13.421
86139W        W51399   2.848   8.456   1.990
86140W        W51400  21.038  19.082  12.321
86141W        W51401  43.344   7.869   1.741
86142W        W51402  18.490  15.986   3.232
86143W        W51403   1.526   2.325  12.943
86144W        W51404  15.233  17.778   0.291
86145W        W51405  22.127  32.268  10.214
86146W        W51406  13.874  26.567  11.062
86147W        W51407  11.088   6.029  10.679
86148W        W51408  25.177  30.923  13.060
86149W        W51409  10.255  35.981  13.637
86150W        W51410  19.241  31.038  11.196
86151W        W51411  35.851  27.051   0.359
86152W        W51412  35.928  23.955  13.974
86153W        W51413   9.333  20.962   1.966
86154W        W51414  43.871  10.132   3.330
86155W        W51415   4.446  38.870   1.331
86156W        W51416  15.853  27.625  11.267
86157W        W51417  19.228  39.904  14.565
86158W        W51418  44.205   6.863  12.491
86159W        W51419  41.785  36.681  12.801
86160W        W51420  11.226  38.165  10.712
86161W        W51421   6.616  35.413  13.796
86162W        W51422  10.005   0.536  14.525
86163W        W51423  34.726  37.577   4.546
86164W        W51424  43.484  12.932  14.423
86165W        W51425  17.218  18.112   3.653
86166W        W51426  24.378  10.815   2.984
86167W        W51427  34.415   3.923  14.434
86168W        W51428  12.128  38.392   1.523
86169W        W51429  34.545   3.468  13.493
86170W        W51430  21.137  15.187   0.386
86171W        W51431   6.191  15.314   0.916
86172W        W51432  32.649  37.401   3.350
86173W        W51433  29.520  25.290   3.677
86174W        W51434   0.472  44.911   4.828
86175W        W51435  11.081  44.316  11.870
86176W        W51436  43.050  11.243  14.984
86177W        W51437   9.368  39.505   3.225
86178W        W51438  25.722   5.637  14.345
86179W        W51439  27.985  37.042   0.713
86180W        W51440  16.548  16.738   4.199
86181W        W51441  32.101  34.494  12.551
86182W        W51442  20.721  28.643   3.692
86183W        W51443  36.735  32.878   2.812
86184W        W51444  33.343   5.939   0.531
86185W        W51445   5.265   6.523  14.242
86186W        W51446  16.824  28.901   3.406
86187W        W51447   6.236  39.325   0.240
86188W        W51448   6.978  30.564  10.990
86189W        W51449  12.780  28.317  12.920
86190W        W51450  33.288  17.615  14.288
86191W        W51451  16.208   2.365  12.125
86192W        W51452  39.467   5.825  11.422
86193W        W51453  38.250  33.619  13.446
86194W        W51454  24.986  23.082   3.111
86195W        W51455  41.307  44.438  11.974
86196W        W51456  39.247  40.771   1.748
86197W        W51457  34.490  42.600  12.430
86198W        W51458  19.725  29.380   0.319
86199W        W51459  41.305  17.372  14.663
86200W        W51460  32.737  27.190   3.123
86201W        W51461  30.022   8.115  11.166
86202W        W51462  39.929  35.703  12.975
86203W        W51463  28.002   0.758   2.126
86204W        W51464  17.553  34.155  12.904
86205W        W51465  24.667  11.287   0.998
86206W        W51466  35.202   2.046  11.432
86207W        W51467  27.691  17.650   2.083
86208W        W51468   3.986  31.097  11.644
86209W        W51469   1.374  12.783  13.135
86210W        W51470  32.994  11.171   4.239
86211W        W51471   7.892   3.811   1.953
86212W        W51472  28.885  19.564   1.289
86213W        W51473  22.548  38.083   1.247
86214W        W51474  37.459   9.395  11.501
86215W        W51475  39.047  17.126   4.552
86216W        W51476   2.642  10.181  10.373
86217W        W51477   9.681  38.506   2.582
86218W        W51478  41.740   4.325   0.757
86219W        W51479  43.289  23.482  14.360
86220W        W51480  39.015   3.290  12.920
86221W        W51481   0.679  26.383  13.545
86222W        W51482  44.923  18.046   3.797
86223W        W51483  29.536   1.786  12.642
86224W        W51484  11.900   8.427  13.836
86225W        W51485   2.961  26.987   1.672
86226W        W51486  31.166  36.988   1.275
86227W        W51487  10.787   4.404  13.690
86228W        W51488  27.110   8.410  10.451
86229W        W51489  23.461   9.724  10.610
86230W        W51490  38.156   4.002   3.826
86231W        W51491   8.455  18.977   0.900
86232W        W51492  29.912  14.154   0.581
86233W        W51493  16.708  32.138  14.882
86234W        W51494  43.414  26.954   2.380
86235W        W51495  41.598  19.455   1.786
86236W        W51496   2.573  35.396  12.848
86237W        W51497  11.209  19.041  11.124
86238W        W51498  29.982   0.938   0.100
86239W        W51499  10.897  34.399  14.334
86240W        W51500  24.027  14.333   2.799
86241W        W51501   8.849  32.763  12.995
86242W        W51502  42.002  21.987   3.911
86243W        W51503  32.981   0.287  13.484
86244W        W51504  28.672  39.536   0.857
86245W        W51505   4.477   4.836  13.868
86246W        W51506  11.359  32.087  11.961
86247W        W51507  25.621  22.697  13.470
86248W        W51508  43.930  25.546  10.573
86249W        W51509  39.659  16.207  14.087
86250W        W51510  11.884   9.698   3.314
86251W        W51511   2.001  27.112  13.519
86252W        W51512  30.647   6.277   2.872
86253W        W51513  19.738  36.984   1.514
86254W        W51514  34.044  41.522   1.697
86255W        W51515  32.191  27.084   0.388
86256W        W51516  18.608  37.616  13.482
86257W        W51517  39.780  12.641   1.852
86258W        W51518  25.163  31.766   4.626
86259W        W51519   6.159  29.741  12.798
86260W        W51520  32.383  25.002  14.640
86261W        W51521  34.442  22.741  14.591
86262W        W51522  38.915  22.744  14.113
86263W        W51523  15.550  44.974  12.543
86264W        W51524  33.481  14.120   4.266
86265W        W51525  23.235  32.800   1.727
86266W        W51526  13.641  44.983   0.830
86267W        W51527  44.940  41.471   0.658
86268W        W51528  16.088  35.698  12.545
86269W        W51529  22.689  41.886   3.058
86270W        W51530   7.365  11.128   4.157
86271W        W51531  31.981  33.671   2.013
86272W        W51532  14.266  34.575   4.093
86273W        W51533   9.207  41.090  14.421
86274W        W51534  27.995  16.280  11.217
86275W        W51535  42.015  15.086   0.919
86276W        W51536  27.475  25.980  13.509
86277W        W51537   3.178  16.381   1.266
86278W        W51538  34.478  42.277   4.143
86279W        W51539  30.134  27.998  11.540
86280W        W51540  10.733  35.771   3.289
86281W        W51541  13.648  26.025  11.682
86282W        W51542  29.490  30.914   3.269
86283W        W51543  20.576  10.832   2.750
86284W        W51544  10.329  20.952   1.740
86285W        W51545  38.028  43.027   3.997
86286W        W51546   7.756  42.481  14.017
86287W        W51547  43.732  35.491  12.011
86288W        W51548  12.313  44.444   2.666
86289W        W51549  14.183  29.500   5.270
86290W        W51550  18.755  15.260   0.165
86291W        W51551   2.518  23.568   4.021
86292W        W51552   4.140  11.898  12.096
86293W        W51553   7.213  16.619  13.075
86294W        W51554  37.626  43.939   1.760
86295W        W51555  43.782  20.585  12.522
86296W        W51556   7.324  42.502  10.597
86297W        W51557  20.078  34.752  11.965
86298W        W51558  15.397   1.422  10.777
86299W        W51559  14.372   1.839  11.161
86300W        W51560  36.436  15.315   4.572
86301W        W51561  28.557   9.326   4.450
86302W        W51562   1.568  30.394   3.651
86303W        W51563  26.407   4.891   4.544
86304W        W51564   4.441  10.435   4.221
86305W        W51565  22.995  17.719  14.496
86306W        W51566   2.661  18.761   1.930
86307W        W51567  33.884  10.157  13.354
86308W        W51568   4.943  31.222  11.974
86309W        W51569  39.829  43.849  10.406
86310W        W51570   9.308  15.304  14.224
86311W        W51571   3.700  39.973   4.892
86312W        W51572  13.739  13.225   2.940
86313W        W51573  25.458  41.872   2.877
86314W        W51574  33.425  44.039   1.846
86315W        W51575  32.850  15.874   3.727
86316W        W51576  18.436   4.120   3.252
86317W        W51577  21.304  22.148  13.535
86318W        W51578  10.804  36.886  11.184
86319W        W51579  30.194  11.369   0.430
86320W        W51580  25.106  28.976  13.978
86321W        W51581  34.944  37.920   1.427
86322W        W51582  26.878  43.111   0.990
86323W        W51583  29.135  44.681   2.298
86324W        W51584  33.541  32.325   0.811
86325W        W51585   2.797  12.330  13.380
86326W        W51586   9.393  43.559   3.751
86327W        W51587  43.877  24.106  11.554
86328W        W51588  17.277  33.974   1.666
86329W        W51589  20.726  37.106   3.754
86330W        W51590   3.881  34.386   0.452
86331W        W51591   9.270  44.918  11.029
86332W        W51592  27.509  31.492  11.660
86333W        W51593  28.173  33.632   4.969
86334W        W51594   8.654  39.780   2.230
86335W        W51595  35.311  16.724  14.877
86336W        W51596  42.471  22.754  12.911
86337W        W51597  38.023  11.799   4.206
86338W        W51598   8.295  31.282   3.513
86339W        W51599  32.201  25.232   3.583
86340W        W51600  30.573  13.279   2.463
86341W        W51601  42.057  34.816  10.851
86342W        W51602   0.800  23.570  10.778
86343W        W51603  22.086  34.512   2.241
86344W        W51604  38.985   5.495   1.346
86345W        W51605  25.003  29.766  13.587
86346W        W51606  43.996  10.164   4.234
86347W        W51607  24.322  25.719   4.057
86348W        W51608  19.790  37.419  14.857
86349W        W51609  13.802  27.540   0.118
86350W        W51610  14.851  42.799   2.782
86351W        W51611   3.981  30.107   4.375
86352W        W51612  40.040  41.240  12.518
86353W        W51613  10.842  34.885   3.043
86354W        W51614  16.724  11.373   0.859
86355W        W51615  30.482   3.844  13.264
86356W        W51616  17.675   8.242  11.931
86357W        W51617  29.390  41.550   4.149
86358W        W51618  11.113  44.980   2.348
86359W        W51619  37.615  13.833   0.456
86360W        W51620  12.648  10.465  13.550
86361W        W51621  34.052  39.541   4.620
86362W        W51622  34.421  19.360  11.602
86363W        W51623  25.154  30.953   4.031
86364W        W51624  34.511  26.763  10.757
86365W        W51625   6.175   3.182  12.391
86366W        W51626  10.758  30.010  13.000
86367W        W51627  27.019  32.095   9.945
86368W        W51628  43.079  17.091  14.778
86369W        W51629  29.699  29.667   3.556
86370W        W51630  44.719  16.132  10.091
86371W        W51631  29.158  22.176  13.393
86372W        W51632  40.872   9.467   0.658
86373W        W51633  36.113  36.470  14.866
86374W        W51634  18.382  15.734  11.574
86375W        W51635  31.159   4.631   0.331
86376W        W51636   5.726  22.650   0.309
86377W        W51637  18.820   9.910  11.178
86378W        W51638   4.409  15.322  12.019
86379W        W51639  43.928  28.545  13.371
86380W        W51640  14.697  43.631  11.060
86381W        W51641  39.053  11.735   4.051
86382W        W51642  26.523  21.296   4.616
86383W        W51643  29.025  24.851   2.058
86384W        W51644  14.168  31.795  13.351
86385W        W51645  28.109  36.771  12.619
86386W        W51646  43.936  31.047  11.431
86387W        W51647  12.710   8.403  12.418
86388W        W51648  15.657  28.727  13.073
86389W        W51649  20.629  25.508  11.551
86390W        W51650  32.554  31.526  10.028
86391W        W51651  42.218  19.938   1.233
86392W        W51652  16.748  10.030   0.327
86393W        W51653  19.742  13.196   1.864
86394W        W51654  12.321  27.816  10.988
86395W        W51655  43.312  11.616  14.727
86396W        W51656  30.556  23.606   0.276
86397W        W51657  29.061   1.767   0.389
86398W        W51658  42.911   8.757  13.757
86399W        W51659  12.707  19.344   1.408
86400W        W51660  24.602   6.312   4.122
86401W        W51661  38.396  44.170   3.267
86402W        W51662  34.920  32.519   1.741
86403W        W51663  25.044  11.874   1.814
86404W        W51664  40.915  20.726   2.719
86405W        W51665  25.095  24.507   1.351
86406W        W51666  19.389  11.276   0.260
86407W        W51667  10.088  43.990   0.368
86408W        W51668  20.694   5.717   2.586
86409W        W51669   3.656  37.041  12.667
86410W        W51670   5.441  37.036   4.337
86411W        W51671  36.834  42.958  10.811
86412W        W51672   7.868   6.572  10.721
86413W        W51673  42.412  16.050  13.940
86414W        W51674  43.519  30.775   2.152
86415W        W51675  24.168  24.890  11.560
86416W        W51676   5.385  12.161   0.435
86417W        W51677  37.836   7.983   4.215
86418W        W51678   5.411  13.799  10.996
86419W        W51679  18.813   0.961   1.826
86420W        W51680  26.067  39.045   1.467
86421W        W51681   9.439   5.242  13.479
86422W        W51682  40.737  41.501   4.886
86423W        W51683   4.787  16.692  13.201
86424W        W51684  27.611  10.350   1.824
86425W        W51685   4.191   8.987   4.236
86426W        W51686  25.296  24.401  10.998
86427W        W51687  38.083  35.592  14.121
86428W        W51688   7.226  27.104   5.638
86429W        W51689  29.727  31.401   4.141
86430W        W51690   0.377   3.216  14.903
86431W        W51691  38.832   7.139   3.655
86432W        W51692  34.316  17.145  14.412
86433W        W51693  17.005  24.690  13.852
86434W        W51694  30.378  36.292   4.321
86435W        W51695  42.512  19.620   0.303
86436W        W51696  29.044  10.329  12.736
86437W        W51697   6.179  24.830  11.933
86438W        W51698  26.550  13.591   4.059
86439W        W51699   6.098   8.949  12.915
86440W        W51700  41.386  32.104   3.732
86441W        W51701  28.393  30.195   0.458
86442W        W51702  23.546  34.828  14.322
86443W        W51703  12.983  30.707  12.695
86444W        W51704  18.284  14.818  13.470
86445W        W51705  31.373  20.488  12.986
86446W        W51706  32.182  22.953  12.443
86447W        W51707  15.102  30.923  12.471
86448W        W51708  28.470  35.292  11.207
86449W        W51709   6.387  15.257  11.583
86450W        W51710  31.968  36.853   2.394
86451W        W51711  23.934  22.770  14.298
86452W        W51712  25.051  17.876  12.024
86453W        W51713  22.239   4.920   0.500
86454W        W51714   0.755  42.012   1.713
86455W        W51715  19.881  28.001  10.265
86456W        W51716  30.612   4.778   3.638
86457W        W51717  22.197  16.683   2.760
86458W        W51718  12.589  36.054   0.367
86459W        W51719  14.734  27.031  13.083
86460W        W51720  19.838   0.703   4.937
86461W        W51721   3.490   2.808  11.926
86462W        W51722  42.522  27.988   5.024
86463W        W51723  19.267  20.277   2.619
86464W        W51724  40.633   2.758  14.825
86465W        W51725  32.454  10.691  14.445
86466W        W51726  44.832  36.584  13.357
86467W        W51727  37.033  44.362  15.000
86468W        W51728   3.910  25.550   1.399
86469W        W51729  11.269  34.415   3.588
86470W        W51730   2.004  36.907  12.062
86471W        W51731  19.545  41.995  13.401
86472W        W51732   5.956  17.146  11.311
86473W        W51733  41.826  14.994  10.256
86474W        W51734   4.130  15.497   1.591
86475W        W51735  40.985   1.399   1.959
86476W        W51736   3.986  32.878  14.594
86477W        W51737   3.021   1.945  14.901
86478W        W51738  30.968  13.245   2.832
86479W        W51739  24.214   8.451   4.112
86480W        W51740  39.542   0.807   4.962
86481W        W51741  17.386  20.163  11.689
86482W        W51742   8.261  41.494   4.181
86483W        W51743  41.290  28.408  14.227
86484W        W51744  10.301  40.572  12.374
86485W        W51745   1.018  16.367   2.104
86486W        W51746  23.750  29.029  12.453
86487W        W51747  20.994  39.279   0.817
86488W        W51748  18.508  12.825  13.515
86489W        W51749   2.503  34.852  12.869
86490W        W51750  37.396  29.740   4.297
86491W        W51751  20.299  30.381   0.231
86492W        W51752   4.930   9.639   2.818
86493W        W51753   2.785  33.681   1.015
86494W        W51754   6.708   9.809  11.528
86495W        W51755  28.113  11.997  10.875
86496W        W51756  17.153  21.631   1.710
86497W        W51757   7.273  23.256   2.790
86498W        W51758  44.710  44.525  12.481
86499W        W51759  39.264  44.284  13.183
86500W        W51760  19.777  11.657  12.048
86501W        W51761   7.203  10.719  11.953
86502W        W51762  43.380   2.582   0.832
86503W        W51763  35.934  10.145   0.279
86504W        W51764  28.997  32.323   0.903
86505W        W51765  17.780  35.588   1.147
86506W        W51766  41.748   9.179   0.343
86507W        W51767  39.461   2.444   2.170
86508W        W51768  35.336  15.331  11.623
86509W        W51769  11.035   4.355  11.579
86510W        W51770  32.163  25.599   3.959
86511W        W51771  35.853  29.267  14.926
86512W        W51772  34.086   9.661   2.329
86513W        W51773  36.793  25.578   3.467
86514W        W51774  23.377   3.576   0.478
86515W        W51775  35.709  43.496  14.344
86516W        W51776  41.093  35.333   4.033
86517W        W51777   9.401  39.000   2.326
86518W        W51778  17.727  22.665  11.273
86519W        W51779  21.762   2.340  12.084
86520W        W51780  20.720   4.521   4.976
86521W        W51781  42.764  21.056   4.093
86522W        W51782  30.130  40.266   3.749
86523W        W51783  11.759   1.002  13.413
86524W        W51784  26.146   8.022  14.272
86525W        W51785  38.796  32.855  10.015
86526W        W51786  28.202  36.479  13.509
86527W        W51787   9.597  13.232  13.060
86528W        W51788   3.500  43.370  14.506
86529W        W51789  29.705   3.433   2.178
86530W        W51790  15.517  20.157   9.681
86531W        W51791  18.238  23.909  11.178
86532W        W51792   9.510  21.365   1.712
86533W        W51793  11.827  15.803   0.319
86534W        W51794   4.927   0.797   0.293
86535W        W51795  44.155  14.310   1.869
86536W        W51796   7.277   7.106   3.200
86537W        W51797  23.713   8.994   1.842
86538W        W51798  40.930  15.711   0.836
86539W        W51799  24.517  28.046  11.457
86540W        W51800  19.258   7.769  12.806
86541W        W51801  16.317  27.957   4.200
86542W        W51802  22.238  10.452  12.238
86543W        W51803   3.284  33.334  14.926
86544W        W51804  21.872  43.291  12.109
86545W        W51805  14.253  20.804  13.464
86546W        W51806   4.648  15.775   3.329
86547W        W51807   2.511  31.150  14.502
86548W        W51808  44.392   7.575   4.519
86549W        W51809  14.786  13.508  13.414
86550W        W51810  37.446  31.098   4.603
86551W        W51811  16.173   9.360  13.367
86552W        W51812  40.971  30.039   2.311
86553W        W51813  10.882  34.611   1.688
86554W        W51814   2.092   3.905   3.725
86555W        W51815   2.142   4.271  12.999
86556W        W51816  24.348  15.789  12.417
86557W        W51817   5.377  32.426  10.503
86558W        W51818  27.220  34.335  13.972
86559W        W51819  36.739   3.960  11.108
86560W        W51820  25.759  33.286  12.542
86561W        W51821  20.138  26.646  12.746
86562W        W51822  43.425  21.485  13.637
86563W        W51823   9.320  32.548   1.925
86564W        W51824   3.877  21.331  13.212
86565W        W51825  11.789  41.307   4.141
86566W        W51826  16.022  17.538  14.067
86567W        W51827  24.152  14.895  11.904
86568W        W51828  10.228  31.156   0.564
86569W        W51829   2.789  12.470   1.338
86570W        W51830  34.649  35.809  12.984
86571W        W51831  41.774  33.180   0.317
86572W        W51832  25.467  39.947  13.534
86573W        W51833  39.301  17.313   1.516
86574W        W51834   8.684   9.308  12.626
86575W        W51835  25.126   9.936   1.838
86576W        W51836  24.383  40.974   1.874
86577W        W51837  32.096  32.387  10.730
86578W        W51838   1.303  32.203  10.174
86579W        W51839  28.122   6.759  11.953
86580W        W51840   8.344   7.293  10.837
86581W        W51841  16.021  17.706  11.625
86582W        W51842  10.790   5.168   4.500
86583W        W51843   7.971  21.791   2.721
86584W        W51844  40.654  26.673   2.940
86585W        W51845  41.264   7.894  12.996
86586W        W51846  19.245  39.079   0.766
86587W        W51847  29.100  10.244   1.494
86588W        W51848  30.584  12.434  11.109
86589W        W51849   4.169  11.415  11.573
86590W        W51850   0.759   2.328  14.220
86591W        W51851  14.836  35.677  13.326
86592W        W51852  36.146  38.622   1.671
86593W        W51853   7.776  21.735  12.646
86594W        W51854   8.933  15.772   4.559
86595W        W51855   2.499  20.159   0.018
86596W        W51856  36.090   2.637  14.829
86597W        W51857  14.183  40.325  12.050
86598W        W51858  22.026  40.108   2.825
86599W        W51859  33.068  34.382  10.536
86600W        W51860  12.180  16.844   0.798
86601W        W51861  26.476  26.042  11.798
86602W        W51862  19.607  10.353   3.816
86603W        W51863  28.154  19.755  11.892
86604W        W51864   6.509  35.416  13.300
86605W        W51865  42.522  34.560   4.655
86606W        W51866  16.677  38.089  14.967
86607W        W51867   8.343  40.842   1.747
86608W        W51868  12.954  19.808   1.420
86609W        W51869  44.568  36.390  10.647
86610W        W51870  20.439  10.414   9.972
86611W        W51871   1.013   3.902   3.972
86612W        W51872  39.698  30.483   2.224
86613W        W51873  24.251  32.987  11.190
86614W        W51874  33.479  29.011  12.654
86615W        W51875   0.733  36.164  12.403
86616W        W51876   4.816  34.900   2.262
86617W        W51877  18.452  44.488   3.171
86618W        W51878  21.158   3.942  12.068
86619W        W51879  21.944   4.224  13.033
86620W        W51880   1.271  24.283   0.220
86621W        W51881  32.473   3.395  10.879
86622W        W51882  34.578   1.306   1.355
86623W        W51883  31.905  37.568  12.527
86624W        W51884  32.529   7.174   0.839
86625W        W51885   2.809   5.864  14.941
86626W        W51886   9.619   3.355   2.788
86627W        W51887  38.958  23.140  12.831
86628W        W51888  30.639  25.454  12.966
86629W        W51889  19.900  22.152   1.388
86630W        W51890  23.696  22.523  12.907
86631W        W51891  31.891  16.195   4.212
86632W        W51892  33.835  20.132  12.167
86633W        W51893  18.818   1.426   0.992
86634W        W51894  39.698  39.128   2.808
86635W        W51895  19.326  10.392  14.822
86636W        W51896  36.412  39.746  14.935
86637W        W51897  44.354  12.656  10.275
86638W        W51898  42.401  35.874  14.822
86639W        W51899  37.887  40.561  13.462
86640W        W51900  32.585  44.782  14.288
86641W        W51901  20.212   5.697  11.627
86642W        W51902  23.580  43.915  11.393
86643W        W51903  28.539   9.251   1.577
86644W        W51904   4.203  18.108   4.261
86645W        W51905   9.536  29.481  13.856
86646W        W51906  44.384  38.060   4.993
86647W        W51907  14.215  22.475   3.646
86648W        W51908   0.510  26.594  13.981
86649W        W51909  28.037   1.015   4.448
86650W        W51910   8.288  30.993   4.398
86651W        W51911  14.358  22.944  13.047
86652W        W51912  33.426  19.730   2.790
86653W        W51913  23.589  29.409   0.457
86654W        W51914  44.739  40.290   2.918
86655W        W51915  31.018  19.218   3.252
86656W        W51916  31.597  12.103  10.505
86657W        W51917  32.052   7.418  11.221
86658W        W51918  23.185  34.506  14.071
86659W        W51919  10.653  13.442  11.097
86660W        W51920   8.325  30.958   4.923
86661W        W51921  40.453  44.763   5.067
86662W        W51922  29.861  41.211  12.638
86663W        W51923  16.718  27.449  14.605
86664W        W51924  26.101  42.600   3.761
86665W        W51925  12.458   6.081  10.573
86666W        W51926   2.862   3.423  11.494
86667W        W51927   9.499  22.271   1.684
86668W        W51928   4.490  20.552   1.269
86669W        W51929  35.872  29.471  10.897
86670W        W51930  13.176  24.409  12.057
86671W        W51931  11.735  39.437   1.360
86672W        W51932   5.394  37.658  14.220
86673W        W51933  18.604  42.538  13.847
86674W        W51934  24.180  24.999   1.712
86675W        W51935  18.310  16.166  13.143
86676W        W51936  22.937  34.996   4.968
86677W        W51937   4.019  39.505   1.900
86678W        W51938  32.007   4.352  10.542
86679W        W51939  29.583  11.636  14.880
86680W        W51940  33.689   6.113   2.221
86681W        W51941  10.677  37.363  11.037
86682W        W51942  13.738   7.662   0.408
86683W        W51943  23.972  39.415  12.383
86684W        W51944  27.283   8.322   1.008
86685W        W51945  16.555  40.991  10.692
86686W        W51946   9.256  38.844  10.318
86687W        W51947   4.339   1.640   1.054
86688W        W51948   2.499  43.814  11.473
86689W        W51949  39.110  28.088  14.166
86690W        W51950  33.358   9.169  12.912
86691W        W51951  36.717  22.052   4.858
86692W        W51952  41.016   2.953   3.115
86693W        W51953   1.974  19.064  11.627
86694W        W51954  34.581   3.824  14.934
86695W        W51955  25.066  43.454   4.287
86696W        W51956  28.077  30.404   2.271
86697W        W51957  33.769   0.581  14.547
86698W        W51958  40.737  33.951  14.123
86699W        W51959  25.595   2.469   2.313
86700W        W51960  44.300   4.669   2.816
86701W        W51961  39.302  36.769   3.351
86702W        W51962  25.030  37.629  12.433
86703W        W51963  12.256  30.395   2.090
86704W        W51964  33.333   2.252  10.173
86705W        W51965  13.232  19.691  11.550
86706W        W51966   7.633  17.075  14.794
86707W        W51967  29.337   5.341  11.195
86708W        W51968   3.207  34.016  10.469
86709W        W51969  14.745   9.192  13.740
86710W        W51970  21.181  14.152  13.355
86711W        W51971  35.928  17.293  12.554
86712W        W51972   0.561  12.243  11.757
86713W        W51973  44.466  23.326   0.348
86714W        W51974  38.601  32.504  14.542
86715W        W51975  30.974   5.598   0.143
86716W        W51976  24.501   5.659   2.703
86717W        W51977   6.314  22.108  11.671
86718W        W51978   5.906   8.457   4.079
86719W        W51979  40.397  21.019  10.484
86720W        W51980  34.067  29.367  11.548
86721W        W51981  37.349   3.889  10.770
86722W        W51982  25.006   5.652  13.879
86723W        W51983  29.552  29.528   1.039
86724W        W51984  31.915  30.570   3.198
86725W        W51985  14.689   0.792   2.408
86726W        W51986  17.268  10.464   0.074
86727W        W51987  35.865  42.249   0.406
86728W        W51988   1.676  26.707  13.395
86729W        W51989  16.528   0.756   2.163
86730W        W51990   4.949  11.318  13.984
86731W        W51991   1.252  22.983   5.129
86732W        W51992  42.991  28.630  12.019
86733W        W51993  44.943   5.204  14.413
86734W        W51994  22.375  16.774   5.012
86735W        W51995  29.348  36.109   5.020
86736W        W51996  29.962  27.698  11.926
86737W        W51997  39.804  44.134   5.155
86738W        W51998  19.903  44.232   4.062
86739W        W51999  18.592  24.149   3.073
86740W        W52000  42.859   8.381   3.660
86741W        W52001   1.353  44.559  14.022
86742W        W52002  26.599  29.924  11.686
86743W        W52003  42.472  13.294   2.823
86744W        W52004  31.990  24.565   0.286
86745W        W52005  11.425  22.298  10.704
86746W        W52006   0.394  38.760  12.385
86747W        W52007  38.519  36.559  10.656
86748W        W52008  29.825   9.122  13.291
86749W        W52009  16.732  26.778   2.614
86750W        W52010  21.608  28.661   1.159
86751W        W52011   1.473  25.261   1.413
86752W        W52012   5.323  16.706  12.381
86753W        W52013   4.363  32.869   1.693
86754W        W52014  44.789  41.131   0.281
86755W        W52015  30.438  42.082   1.975
86756W        W52016  41.231  34.008   4.590
86757W        W52017   7.940  19.598  14.567
86758W        W52018   6.179   7.690   3.183
86759W        W52019   3.635  16.545   4.019
86760W        W52020  26.356   5.487  13.411
86761W        W52021  28.551  37.032   4.615
86762W        W52022  25.870   2.680   0.955
86763W        W52023  24.689  13.013   3.527
86764W        W52024   2.327  14.829  12.019
86765W        W52025  38.474  21.207   1.022
86766W        W52026  39.115  31.415   0.787
86767W        W52027  42.630   1.318   1.918
86768W        W52028  22.728   7.275  12.203
86769W        W52029  36.787  31.712  13.093
86770W        W52030  16.801  42.037   2.871
86771W        W52031  40.635  23.715   1.365
86772W        W52032  25.566  16.362   4.596
86773W        W52033  30.529  37.453   0.557
86774W        W52034  24.386  32.887   4.918
86775W        W52035   4.225   2.200  11.241
86776W        W52036   9.400  24.210  11.445
86777W        W52037  18.416   8.971   2.894
86778W        W52038  41.337   3.050   4.658
86779W        W52039  42.458  20.178   2.078
86780W        W52040   8.115   6.524  13.073
86781W        W52041  33.937   0.902   3.202
86782W        W52042  15.513  24.591  14.349
86783W        W52043  15.829   3.234   1.351
86784W        W52044  41.724  27.289  13.893
86785W        W52045  36.608  39.929  11.680
86786W        W52046  44.012  11.172   3.192
86787W        W52047  43.277  11.349   0.451
86788W        W52048  28.465  42.245   2.807
86789W        W52049  13.200  34.539   0.404
86790W        W52050  43.940  25.581  14.771
86791W        W52051   4.192   8.724  12.892
86792W        W52052  13.557  44.356  14.397
86793W        W52053   3.233   6.356  14.497
86794W        W52054  37.386  13.704   0.907
86795W        W52055   3.247  37.284  14.824
86796W        W52056  24.506  11.084  12.228
86797W        W52057   8.710  40.328   1.401
86798W        W52058   5.167  30.786  12.291
86799W        W52059  35.406  20.432  10.699
86800W        W52060  19.774  28.422  14.668
86801W        W52061   9.395   0.767   1.834
86802W        W52062   6.818  39.740   3.446
86803W        W52063  18.000  29.189  11.401
86804W        W52064   1.179  36.474  13.101
86805W        W52065  21.141  21.429   1.621
86806W        W52066  16.765  39.344   3.117
86807W        W52067  13.987  32.709   4.744
86808W        W52068  39.516   3.658  10.879
86809W        W52069  43.023  30.937   2.267
86810W        W52070  29.139  17.140   1.198
86811W        W52071  20.250   2.403   3.655
86812W        W52072  19.064  18.248  14.363
86813W        W52073  41.296  14.380   1.382
86814W        W52074  40.952  32.592  14.877
86815W        W52075  36.029  22.475   2.661
86816W        W52076   7.092   9.162   0.344
86817W        W52077  29.700  33.444  12.741
86818W        W52078  10.358  31.432   2.647
86819W        W52079  23.101  29.620   4.477
86820W        W52080  18.221  12.185   3.847
86821W        W52081   6.786   1.718   1.252
86822W        W52082  17.746  34.660   0.218
86823W        W52083  33.931  43.318   0.874
86824W        W52084   6.957  19.364  14.919
86825W        W52085   1.000  36.026  13.687
86826W        W52086  10.739  41.064  13.536
86827W        W52087  12.567  22.495   2.567
86828W        W52088  32.897  26.149  11.709
86829W        W52089  41.069  19.947  12.359
86830W        W52090  25.977  27.834  10.780
86831W        W52091   2.031  25.663   2.823
86832W        W52092   1.016  33.808   4.506
86833W        W52093  26.589   2.805  13.533
86834W        W52094  25.045  25.738  13.892
86835W        W52095  18.896  26.775   1.120
86836W        W52096   3.334  24.660  12.388
86837W        W52097   8.761  13.150   2.309
86838W        W52098   3.442   1.247  13.751
86839W        W52099  43.780  28.450   3.229
86840W        W52100  13.413  38.420   0.731
86841W        W52101  30.137  33.051   3.015
86842W        W52102  38.788  20.066   1.315
86843W        W52103   0.143  27.098   3.221
86844W        W52104  10.685   3.468  10.648
86845W        W52105  20.178  14.821  12.713
86846W        W52106  34.916  27.234  11.569
86847W        W52107   7.353  38.379   3.345
86848W        W52108  38.361  11.023  10.864
86849W        W52109  40.550  27.914  14.390
86850W        W52110  25.199  20.739   1.310
86851W        W52111   8.490  35.248   1.588
86852W        W52112  41.568  42.461  14.753
86853W        W52113  28.970  41.276  13.807
86854W        W52114  15.286   6.860  10.548
86855W        W52115  11.413   5.930   3.178
86856W        W52116   3.793  13.997   0.413
86857W        W52117  44.341   7.664   5.010
86858W        W52118  31.395  39.352   4.647
86859W        W52119  30.427  13.661   0.696
86860W        W52120  10.704  15.882   2.755
86861W        W52121   7.229  41.234  14.745
86862W        W52122  19.104  24.983  14.388
86863W        W52123  27.714  24.451  13.472
86864W        W52124  31.880  40.009   2.586
86865W        W52125   1.950  43.034  13.982
86866W        W52126  44.954  12.583  11.304
86867W        W52127  11.686  38.964  14.331
86868W        W52128  19.491  11.158  12.599
86869W        W52129  39.358  15.637   1.657
86870W        W52130  23.970  42.779   0.366
86871W        W52131  38.876  33.507   3.385
86872W        W52132  37.841   2.796  12.733
86873W        W52133  17.541   4.322   3.670
86874W        W52134  18.314  24.080  12.011
86875W        W52135   5.910  21.274   0.200
86876W        W52136  20.522   3.335  13.014
86877W        W52137  37.321   5.506  10.520
86878W        W52138  24.519  13.065  13.990
86879W        W52139  40.350  14.750   1.407
86880W        W52140  39.017  41.575   2.404
86881W        W52141   5.066  19.347  13.019
86882W        W52142  24.143  33.297   2.347
86883W        W52143  23.646   2.377  13.549
86884W        W52144  26.733  40.015   2.290
86885W        W52145  13.518  11.005   2.754
86886W        W52146  12.754  15.272   0.397
86887W        W52147  17.318   2.079   0.197
86888W        W52148   7.437  29.031   2.714
86889W        W52149  11.819  36.045   4.675
86890W        W52150   5.625  44.358  12.335
86891W        W52151  22.703  42.806  14.204
86892W        W52152   5.332  40.836  11.512
86893W        W52153   3.808  39.616  11.190
86894W        W52154  39.445   1.795   0.817
86895W        W52155  16.106  17.230  11.834
86896W        W52156  19.026   5.571   4.553
86897W        W52157  20.522   5.735   0.754
86898W        W52158  25.166  20.219   1.205
86899W        W52159  16.989  26.970  12.014
86900W        W52160  30.602  35.835  13.484
86901W        W52161  33.842  38.058  13.577
86902W        W52162  43.363  41.241  13.412
86903W        W52163  40.782  25.066   1.397
86904W        W52164  23.050  17.174   3.767
86905W        W52165  10.271  26.597  12.692
86906W        W52166  42.088  18.516  14.768
86907W        W52167   8.644   2.214  14.482
86908W        W52168  27.947  41.923  13.909
86909W        W52169  33.571  24.586  13.928
86910W        W52170  30.142  44.606  12.304
86911W        W52171  43.323  35.327  14.385
86912W        W52172  20.283   2.042   2.827
86913W        W52173  39.937   8.655   2.706
86914W        W52174   1.964  30.365  12.641
86915W        W52175   1.312  34.639   4.643
86916W        W52176  15.031   6.421   1.366
86917W        W52177  16.046   3.241  12.509
86918W        W52178  17.217  28.052   0.089
86919W        W52179   6.255   1.946  14.489
86920W        W52180  33.449  29.511  14.824
86921W        W52181  23.209  17.499  14.036
86922W        W52182  22.143  33.676   2.968
86923W        W52183   3.976  39.907  14.692
86924W        W52184  19.017  42.476  10.856
86925W        W52185  29.904   7.774  13.887
86926W        W52186  29.038  20.970  11.549
86927W        W52187  31.577   7.647   0.964
86928W        W52188  41.488  16.610  12.922
86929W        W52189  26.586  38.753  11.903
86930W        W52190  13.564  24.911   1.469
86931W        W52191  36.824  42.528  10.522
86932W        W52192   8.131  43.059  11.383
86933W        W52193  17.715   0.862  13.362
86934W        W52194  10.001  18.141  14.933
86935W        W52195  34.618   0.601  13.808
86936W        W52196  24.268  22.981  13.506
86937W        W52197  39.976  18.099  12.943
86938W        W52198  29.519   5.277   2.274
86939W        W52199   5.265  31.078   0.914
86940W        W52200   6.209  39.279  12.368
86941W        W52201  14.949  21.610   4.638
86942W        W52202  15.380  17.255   0.974
86943W        W52203  34.844  11.237   4.031
86944W        W52204  23.519  26.996   3.595
86945W        W52205  38.331  24.959   2.709
86946W        W52206  29.592  28.547   3.925
86947W        W52207  12.323  42.154  12.536
86948W        W52208  34.558  24.264  13.261
86949W        W52209   6.848  33.298   4.740
86950W        W52210   0.793  12.879   4.276
86951W        W52211  43.946  15.583  12.904
86952W        W52212  26.704  44.778  10.778
86953W        W52213  39.041  34.115  14.907
86954W        W52214  19.603  40.825  14.921
86955W        W52215   2.006  29.625  11.908
86956W        W52216  42.941  28.668   2.783
86957W        W52217  34.996  41.213   2.377
86958W        W52218   1.212  17.366  11.753
86959W        W52219  29.870   0.875  14.611
86960W        W52220  20.529  25.683   1.676
86961W        W52221  37.723   4.468  10.273
86962W        W52222  30.861  19.094  14.044
86963W        W52223  20.727  35.387  13.370
86964W        W52224   8.154  21.275   2.701
86965W        W52225   8.141  39.142  12.504
86966W        W52226  20.153  37.281  12.499
86967W        W52227  11.088  15.346   1.531
86968W        W52228  27.602   1.443   2.298
86969W        W52229   7.646  18.804  13.891
86970W        W52230  16.660   0.680  14.264
86971W        W52231  17.263  39.480   4.569
86972W        W52232   2.182   9.420  13.179
86973W        W52233  43.942  41.613  14.567
86974W        W52234   7.020  35.024   1.618
86975W        W52235  16.626   3.683   1.852
86976W        W52236  30.846   3.262  13.429
86977W        W52237  21.151  16.824  14.282
86978W        W52238   3.905  44.043   2.328
86979W        W52239  25.776  13.499  11.105
86980W        W52240  34.972  39.064  11.556
86981W        W52241  26.605  15.538   1.818
86982W        W52242  36.397   4.806  11.236
86983W        W52243   4.112  38.790   0.488
86984W        W52244  28.027  28.110   4.566
86985W        W52245   9.222  21.661  10.529
86986W        W52246  12.677  42.032   2.697
86987W        W52247  32.394  27.566   0.280
86988W        W52248  30.867  29.987  12.582
86989W        W52249  28.073  20.223   2.335
86990W        W52250  40.029   2.853  11.043
86991W        W52251  35.907  30.664  11.293
86992W        W52252  25.855  38.361   2.550
86993W        W52253  31.689   2.442  12.687
86994W        W52254  22.025  41.149   2.167
86995W        W52255  22.228   5.291  12.603
86996W        W52256  15.693  15.281   1.196
86997W        W52257  35.432   1.512  13.187
86998W        W52258  42.306  38.402   3.391
86999W        W52259  21.220  43.916   2.713
87000W        W52260   7.286   6.230  12.877
87001W        W52261  24.710  23.116  10.668
87002W        W52262   1.896  15.175  13.982
87003W        W52263   1.433   1.171   0.964
87004W        W52264   2.153  34.151  14.439
87005W        W52265  15.142  21.777   1.806
87006W        W52266  34.064  18.087  11.978
87007W        W52267  13.514  24.471   1.753
87008W        W52268   3.938  38.064   3.945
87009W        W52269   3.823  35.396  13.368
87010W        W52270   6.649   4.895   0.374
87011W        W52271  26.265   8.214  14.885
87012W        W52272  16.286  34.889  12.853
87013W        W52273  11.174  32.177  11.493
87014W        W52274   2.791   9.636   4.131
87015W        W52275  39.295  44.878   0.933
87016W        W52276   0.287  22.788   0.364
87017W        W52277   5.420  36.784  13.829
87018W        W52278  14.367  24.324  11.587
87019W        W52279  12.325  29.349  11.424
87020W        W52280   4.806  19.819  11.574
87021W        W52281  38.426  19.766  13.013
87022W        W52282  44.247  40.284   2.768
87023W        W52283   6.472   0.286   2.026
87024W        W52284   2.405  23.779  12.125
87025W        W52285   0.944  25.393   1.362
87026W        W52286  43.932  26.878   0.281
87027W        W52287  21.997  39.356  11.721
87028W        W52288   5.536  22.762  14.838
87029W        W52289  17.779  37.034   1.857
87030W        W52290  10.399  30.183  10.975
87031W        W52291   9.622   0.291  11.215
87032W        W52292   5.903   4.493  13.870
87033W        W52293  37.307  11.650  12.904
87034W        W52294  26.919  32.034  13.049
87035W        W52295  31.619  22.724  14.557
87036W        W52296  37.662  20.269   1.903
87037W        W52297  35.439  32.223   1.786
87038W        W52298   8.228  11.603   0.356
87039W        W52299  27.647  10.204   4.626
87040W        W52300  12.161   1.153   4.606
87041W        W52301  30.737  38.042  11.637
87042W        W52302  31.443  27.743   3.162
87043W        W52303  24.541  11.737   2.854
87044W        W52304  30.266  30.072   1.586
87045W        W52305   1.287  43.971  12.245
87046W        W52306   5.527  41.355   0.298
87047W        W52307  23.905  14.359  13.955
87048W        W52308   0.429  26.135   0.256
87049W        W52309  41.359  29.055  10.443
87050W        W52310   8.785  27.971   3.974
87051W        W52311   4.337  29.929   2.248
87052W        W52312  34.186  29.115  13.193
87053W        W52313  11.661  29.080   2.401
87054W        W52314  42.303  33.125   2.541
87055W        W52315  38.538  11.808   4.092
87056W        W52316   0.340  10.733   4.280
87057W        W52317  18.867  21.519   4.291
87058W        W52318   3.205  13.309  13.495
87059W        W52319   0.851  22.210   4.543
87060W        W52320  31.027  34.363  14.264
87061W        W52321  10.651  11.107   1.800
87062W        W52322  39.264   1.429  14.875
87063W        W52323  28.544  33.473   0.844
87064W        W52324  36.004  33.931   3.199
87065W        W52325   7.156   7.413  14.851
87066W        W52326   2.460  17.375   3.083
87067W        W52327  22.136  41.758   3.810
87068W        W52328  36.560  43.032  13.911
87069W        W52329  40.539  19.009  12.985
87070W        W52330  38.890  41.890  13.521
87071W        W52331  15.705  40.818   3.081
87072W        W52332  26.419  35.795   3.061
87073W        W52333  32.449  31.586   0.463
87074W        W52334  36.062   8.567   0.326
87075W        W52335   0.401  28.027  13.842
87076W        W52336  23.102  13.321  10.746
87077W        W52337  33.214  25.559   3.007
87078W        W52338  32.524   6.276  12.606
87079W        W52339  13.038  28.185  10.272
87080W        W52340   1.044  12.638  10.363
87081W        W52341  14.778   6.470  11.149
87082W        W52342  42.312  25.053  14.991
87083W        W52343  37.532   2.703   4.787
87084W        W52344  40.442  15.169   2.718
87085W        W52345  43.247  19.038  11.460
87086W        W52346  12.347  33.449  13.333
87087W        W52347  18.000  27.011  11.954
87088W        W52348  30.429  12.547  12.349
87089W        W52349   9.637  12.259  13.799
87090W        W52350  28.382  44.713  12.615
87091W        W52351  20.275  22.744  10.882
87092W        W52352   6.992  18.333  14.954
87093W        W52353  43.329  32.599  13.906
87094W        W52354  27.576  14.081  11.137
87095W        W52355  15.483  39.336   4.578
87096W        W52356   0.056   3.272   0.350
87097W        W52357   4.425  13.847  12.102
87098W        W52358  35.909  43.767  13.930
87099W        W52359  18.028  43.660  12.313
87100W        W52360   5.837  42.065  12.007
87101W        W52361   3.122  40.382   4.097
87102W        W52362  39.354  32.120  11.113
87103W        W52363  41.013  42.223   3.147
87104W        W52364  12.125  20.001   0.724
87105W        W52365   2.860  39.460   3.615
87106W        W52366  10.336  35.168   4.536
87107W        W52367  33.120  13.197   4.349
87108W        W52368  19.649   7.249   0.931
87109W        W52369   3.662  11.452  11.546
87110W        W52370  28.680  27.017  14.976
87111W        W52371  32.579  12.897  11.138
87112W        W52372  18.617   1.409   0.492
87113W        W52373  19.341   4.652  14.890
87114W        W52374  18.616  14.082  10.889
87115W        W52375  43.071  22.720  10.642
87116W        W52376  25.261   7.748   0.726
87117W        W52377   1.287  40.617  10.785
87118W        W52378  28.564   9.327   4.999
87119W        W52379   7.194  35.686  14.372
87120W        W52380  37.537  21.226  10.598
87121W        W52381   4.415  10.917   2.213
87122W        W52382   5.812  28.076   0.439
87123W        W52383   0.564  14.279   1.809
87124W        W52384  42.270   8.606   4.163
87125W        W52385  24.032  30.609  13.400
87126W        W52386  15.507  41.977   1.007
87127W        W52387  39.827   8.162   0.734
87128W        W52388  34.679   2.688   2.811
87129W        W52389  14.097  20.654   1.676
87130W        W52390  20.101  22.557   2.876
87131W        W52391  27.532   4.857   1.729
87132W        W52392   4.619  39.504   0.044
87133W        W52393  34.868  18.237   0.485
87134W        W52394  19.774  28.098   4.614
87135W        W52395  22.766  16.308  12.626
87136W        W52396  36.588   2.247   0.022
87137W        W52397  31.774  24.352  12.924
87138W        W52398  31.382   9.041   2.202
87139W        W52399  42.328   4.935  11.437
87140W        W52400  40.821  42.040   0.894
87141W        W52401  28.697   9.184  14.790
87142W        W52402  42.939  28.103  11.873
87143W        W52403  38.474   0.168   2.834
87144W        W52404   5.761  20.496   2.786
87145W        W52405  41.389  24.763  13.442
87146W        W52406  15.361  26.397  12.560
87147W        W52407  44.187   0.509  11.724
87148W        W52408  37.948  26.061   4.880
87149W        W52409  10.685  29.418  10.499
87150W        W52410   3.959  41.892  10.660
87151W        W52411  20.542  21.714   4.556
87152W        W52412  10.733   3.308   0.297
87153W        W52413  10.347  38.617  12.826
87154W        W52414   2.611  24.038  14.771
87155W        W52415   9.318   0.203   1.911
87156W        W52416  23.040  20.222   2.247
87157W        W52417  13.309  11.953   2.256
87158W        W52418  35.648  32.463  10.739
87159W        W52419  11.464  21.355  13.920
87160W        W52420  32.145  11.876  10.022
87161W        W52421  16.281  32.034  12.804
87162W        W52422  27.375  10.631   4.523
87163W        W52423  26.593  11.743   4.512
87164W        W52424   1.327  42.728   4.140
87165W        W52425  42.833  14.855  10.698
87166W        W52426  43.481   1.259  10.399
87167W        W52427  24.694  44.442   3.947
87168W        W52428  31.623  23.474  11.015
87169W        W52429  26.769  29.441  11.909
87170W        W52430  12.457  15.086  14.574
87171W        W52431   3.816  13.768   0.956
87172W        W52432  44.492   5.343  14.606
87173W        W52433  31.212  17.639   2.806
87174W        W52434  15.842  43.950   2.724
87175W        W52435   7.441  13.228   1.840
87176W        W52436   9.631  10.150   0.180
87177W        W52437  42.250   6.698   0.877
87178W        W52438  17.709  30.445   4.142
87179W        W52439  13.920   7.979   2.377
87180W        W52440  39.816  32.435  13.987
87181W        W52441  10.702  19.112  10.382
87182W        W52442  17.184   3.858   3.005
87183W        W52443  22.205  19.489  12.199
87184W        W52444  24.235   5.892  14.254
87185W        W52445  32.987   8.742  10.925
87186W        W52446  22.605  33.505   4.085
87187W        W52447   2.838  12.589   2.323
87188W        W52448  22.202  23.136  12.519
87189W        W52449  25.765   7.607   0.519
87190W        W52450  11.307  17.327   1.030
87191W        W52451  16.981   1.333   3.660
87192W        W52452   2.372  33.574   3.976
87193W        W52453  21.742   7.113  12.061
87194W        W52454  23.959  27.442   4.144
87195W        W52455  21.610   3.443  11.923
87196W        W52456  17.435  38.243  14.018
87197W        W52457  34.087  26.027  13.542
87198W        W52458  18.083  40.951  14.872
87199W        W52459  11.931   7.279   1.716
87200W        W52460  43.340  10.854   2.772
87201W        W52461  42.362  37.114  12.582
87202W        W52462  26.170   5.181   0.556
87203W        W52463  39.310  39.876   0.795
87204W        W52464  13.871  14.417   3.199
87205W        W52465  42.091  25.595   4.252
87206W        W52466  42.186  10.459   0.290
87207W        W52467  22.773   4.960   2.228
87208W        W52468   5.543  39.325  13.996
87209W        W52469  12.063   3.420  14.260
87210W        W52470   5.558  13.471   1.223
87211W        W52471  44.379  42.806   4.632
87212W        W52472  29.353  16.941   3.683
87213W        W52473   2.877  10.746   3.790
87214W        W52474  43.351  23.258  12.919
87215W        W52475  35.575  16.334   3.399
87216W        W52476  24.482   5.371   0.345
87217W        W52477  18.143  11.699  10.700
87218W        W52478   4.408   7.717  11.522
87219W        W52479   3.073   9.425   5.083
87220W        W52480   4.130  11.644  14.362
87221W        W52481  31.957   0.452  14.140
87222W        W52482  14.205   7.780   1.727
87223W        W52483  40.311  37.745   2.928
87224W        W52484   6.878   1.632   0.739
87225W        W52485  41.036  13.246   0.338
87226W        W52486  16.100  30.968   2.287
87227W        W52487   8.668   5.190  12.025
87228W        W52488  34.127  26.473   3.049
87229W        W52489  17.477  18.504  11.956
87230W        W52490  14.351  39.364   1.733
87231W        W52491  33.217  15.608   3.998
87232W        W52492  24.652  43.360   3.452
87233W        W52493   1.496  11.406   4.577
87234W        W52494  40.976  17.470   1.331
87235W        W52495   4.411  25.309  11.493
87236W        W52496  12.437  16.969   1.395
87237W        W52497   7.351  43.805   0.856
87238W        W52498  21.601  19.496  10.602
87239W        W52499   6.280  32.328  10.679
87240W        W52500  30.038   7.376   0.261
87241W        W52501  17.488   2.137   4.132
87242W        W52502  23.139  13.723   0.282
87243W        W52503  10.785  31.601   3.688
87244W        W52504   9.918  12.285  12.104
87245W        W52505  40.803  27.700  11.063
87246W        W52506  27.909  43.680   2.737
87247W        W52507  21.479  14.783   4.514
87248W        W52508  18.680   6.636   3.654
87249W        W52509  40.876  20.857  10.603
87250W        W52510  30.161  40.500   3.260
87251W        W52511  27.393  32.761  14.297
87252W        W52512   5.344  42.507   2.937
87253W        W52513   8.348  44.973  14.910
87254W        W52514   2.227  39.452  14.520
87255W        W52515  44.799  11.813  13.342
87256W        W52516   1.814   5.945  13.766
87257W        W52517  43.272  33.129   2.858
87258W        W52518  36.314  31.945   2.763
87259W        W52519   4.355  23.004  13.973
87260W        W52520  13.658  42.375  13.637
87261W        W52521  22.706  27.719   0.262
87262W        W52522  41.003   8.793   4.578
87263W        W52523  34.343   3.311  14.796
87264W        W52524  16.182  11.108   4.448
87265W        W52525  37.931  10.317  14.911
87266W        W52526   6.147  37.735  13.474
87267W        W52527  23.651  32.164   3.686
87268W        W52528  10.043  20.037  13.438
87269W        W52529  29.698  14.071   4.068
87270W        W52530   4.125  16.050   1.688
87271W        W52531   5.356   4.519   1.597
87272W        W52532   7.918   9.478  11.087
87273W        W52533  20.057  43.865   2.334
87274W        W52534   4.400  25.750   1.281
87275W        W52535   8.045  23.503   4.477
87276W        W52536   0.413  10.517   1.277
87277W        W52537  33.111  37.758   3.749
87278W        W52538  43.771  29.798  12.476
87279W        W52539  25.725  40.585   4.649
87280W        W52540   9.246  17.341   3.595
87281W        W52541  19.927  16.842  11.107
87282W        W52542   1.702  29.984   2.185
87283W        W52543  13.887   2.724  12.190
87284W        W52544  36.535  22.199  10.769
87285W        W52545  21.054  19.926   0.425
87286W        W52546  29.721  38.914   1.213
87287W        W52547  10.914  24.520   0.931
87288W        W52548   9.162   3.471  14.398
87289W        W52549  22.107   6.990   2.865
87290W        W52550   2.465   0.832   3.640
87291W        W52551  24.972   6.239   2.331
87292W        W52552  37.930   1.952   9.820
87293W        W52553   2.041  13.912   3.720
87294W        W52554  34.020   1.260  10.646
87295W        W52555   1.163  42.468  12.541
87296W        W52556   3.601  27.695  14.841
87297W        W52557   9.629  44.266   0.869
87298W        W52558  16.459  21.260  14.109
87299W        W52559  15.599   3.280  10.253
87300W        W52560  10.779  42.115   1.327
87301W        W52561  32.409  22.718   4.816
87302W        W52562   8.170   3.496   2.317
87303W        W52563   9.104  41.930  11.196
87304W        W52564   4.760   7.626  12.091
87305W        W52565  19.277  14.629   3.130
87306W        W52566  25.023   0.894  10.885
87307W        W52567   4.885  18.731   0.465
87308W        W52568   5.725   6.620  11.607
87309W        W52569   4.937  35.992  14.438
87310W        W52570   6.377  24.602  12.409
87311W        W52571  29.039  28.579  14.412
87312W        W52572  21.306   0.301  13.704
87313W        W52573  43.581  22.479  11.450
87314W        W52574  34.975  32.008   4.498
87315W        W52575  17.763  30.363  11.645
87316W        W52576  44.851  41.854   2.084
87317W        W52577  10.298  15.540   1.335
87318W        W52578   8.896   5.454   2.823
87319W        W52579  11.941   3.656  10.247
87320W        W52580  35.516   2.426  14.160
87321W        W52581  33.530  26.020   1.878
87322W        W52582  13.779  31.484  11.221
87323W        W52583  11.567  36.178   0.321
87324W        W52584  16.827   5.939  12.028
87325W        W52585  30.552   3.738   2.349
87326W        W52586  11.980  14.007  10.748
87327W        W52587  22.502  17.262   4.851
87328W        W52588  21.163   7.789  13.986
87329W        W52589  20.808  16.102   1.832
87330W        W52590  37.924   2.925   5.748
87331W        W52591  15.505  16.147   3.636
87332W        W52592  12.079  18.117   4.128
87333W        W52593  28.295  26.298   4.904
87334W        W52594   0.566  33.498  13.079
87335W        W52595  16.815   9.388   4.188
87336W        W52596   3.164  31.937   4.087
87337W        W52597  39.429  43.268   3.264
87338W        W52598  25.000  37.929  14.061
87339W        W52599  24.794  42.917   4.911
87340W        W52600  14.169  35.158  10.764
87341W        W52601   7.711  24.959  13.695
87342W        W52602   6.939  41.067   4.813
87343W        W52603  19.244   3.305  11.130
87344W        W52604  30.891  39.938   0.291
87345W        W52605  34.992   0.279  13.940
87346W        W52606  11.080  37.101  14.761
87347W        W52607  27.994  16.749   0.855
87348W        W52608  14.565   4.234   1.389
87349W        W52609  25.833  17.185  13.541
87350W        W52610  16.256   3.847   3.214
87351W        W52611  37.413  36.375  14.899
87352W        W52612  24.975  40.134   3.385
87353W        W52613  21.195  24.077  12.326
87354W        W52614  19.180  14.643  12.542
87355W        W52615  28.130  23.305   4.141
87356W        W52616  19.027  17.670   0.948
87357W        W52617   1.230  33.975   0.925
87358W        W52618  38.945   3.024   0.029
87359W        W52619  15.049  31.940   4.012
87360W        W52620  22.687  37.033   1.366
87361W        W52621  19.015  37.078   3.308
87362W        W52622  29.581  11.516  13.311
87363W        W52623  40.159  20.450  14.560
87364W        W52624  23.581  21.616   3.537
87365W        W52625  38.891  21.816   3.210
87366W        W52626  19.129  24.108   2.243
87367W        W52627  34.622   1.018   3.634
87368W        W52628  44.765   3.828  11.146
87369W        W52629   9.972  37.437  13.030
87370W        W52630  24.053   9.363  13.328
87371W        W52631  11.246  44.473  12.429
87372W        W52632  43.326  10.950   9.830
87373W        W52633  31.969  25.590  14.858
87374W        W52634  23.623  14.075  13.602
87375W        W52635  14.733  34.760  11.797
87376W        W52636  20.872  21.709   4.136
87377W        W52637  40.606  38.471  13.537
87378W        W52638   8.987  24.259  11.831
87379W        W52639  41.800  41.076  11.928
87380W        W52640  16.529   8.818  10.658
87381W        W52641  39.951   0.931  12.556
87382W        W52642   3.268  12.403   3.568
87383W        W52643  31.418   7.783   3.148
87384W        W52644  11.291  41.894  10.771
87385W        W52645  40.450  36.869  10.602
87386W        W52646  37.981  20.509   2.665
87387W        W52647  44.255  12.103  12.213
87388W        W52648  24.789  32.165  10.704
87389W        W52649   0.846  14.229  13.456
87390W        W52650  13.818   7.798   2.879
87391W        W52651  21.559  19.507   4.587
87392W        W52652  15.329  31.914  12.334
87393W        W52653  31.065  16.540  11.928
87394W        W52654   5.733   7.394  14.047
87395W        W52655  15.373  20.197  14.920
87396W        W52656  25.660  32.278   1.630
87397W        W52657  43.015   6.974  11.693
87398W        W52658  19.318  24.107   0.722
87399W        W52659   9.328  17.243  13.673
87400W        W52660  25.921  43.866  13.955
87401W        W52661  23.803  20.017  12.453
87402W        W52662  12.669  28.269  11.045
87403W        W52663   8.900   0.048   3.562
87404W        W52664  28.090  11.165  13.758
87405W        W52665  35.285  28.452  11.208
87406W        W52666  22.552  41.571  12.644
87407W        W52667  40.498  10.369   0.911
87408W        W52668  13.916   6.791   3.139
87409W        W52669  36.100   7.783  12.905
87410W        W52670  39.808  36.819  11.885
87411W        W52671   7.839   9.711  11.527
87412W        W52672   7.456  24.074   3.173
87413W        W52673   8.351  20.116   4.421
87414W        W52674  13.737   3.450  13.578
87415W        W52675  44.679  18.559   1.918
87416W        W52676  15.739  13.844   4.753
87417W        W52677  11.994  43.399   2.364
87418W        W52678  15.157  15.489  14.863
87419W        W52679  29.708  13.300  14.595
87420W        W52680  21.824  42.994   3.360
87421W        W52681  27.080   7.146   4.089
87422W        W52682  20.300  37.437   0.054
87423W        W52683  36.590  40.963  12.537
87424W        W52684  36.130  26.428   1.707
87425W        W52685  32.240  14.651  11.200
87426W        W52686  43.240  26.208   2.774
87427W        W52687  39.852  12.610   0.865
87428W        W52688  29.520  10.113  14.698
87429W        W52689  10.965  40.897  11.609
87430W        W52690  13.323   3.661  14.770
87431W        W52691   6.024  34.326  12.476
87432W        W52692  31.153  38.732   9.916
87433W        W52693  17.167   5.666   0.425
87434W        W52694   8.670  34.773  11.973
87435W        W52695   0.030   9.731   4.619
87436W        W52696  25.452  34.517  10.712
87437W        W52697   9.508  39.560   2.291
87438W        W52698  11.263  33.481   0.746
87439W        W52699  35.915   9.760   4.812
87440W        W52700  14.869  43.489  13.453
87441W        W52701  19.014  26.196   2.750
87442W        W52702  28.511  31.587   3.736
87443W        W52703   3.071  13.347  11.810
87444W        W52704  17.583  19.032   1.637
87445W        W52705   2.810   7.169   1.504
87446W        W52706  33.355  39.804   2.720
87447W        W52707  29.976  29.852   4.004
87448W        W52708  38.790  44.848   0.779
87449W        W52709  31.336  19.827  12.865
87450W        W52710  18.661  17.063  10.624
87451W        W52711  11.640  10.602  12.135
87452W        W52712  26.957   6.175  12.981
87453W        W52713  32.027  29.590   1.167
87454W        W52714  27.053   5.778   4.079
87455W        W52715  26.026  31.188   1.166
87456W        W52716   0.388  12.655  13.113
87457W        W52717   7.739  37.573  14.327
87458W        W52718  44.510  21.179  14.325
87459W        W52719  35.787   3.741   3.996
87460W        W52720  31.998  17.587   4.613
87461W        W52721  16.265  20.337   1.684
87462W        W52722  22.150  40.719   4.532
87463W        W52723  40.791   3.104  11.744
87464W        W52724   0.222   0.071  14.009
87465W        W52725  38.498  12.922  14.058
87466W        W52726  29.025  13.131  12.834
87467W        W52727  18.189   7.149   1.198
87468W        W52728  28.454  17.946  14.314
87469W        W52729  15.384  32.643   3.226
87470W        W52730  33.378  17.735  10.989
87471W        W52731  17.056  31.918  11.692
87472W        W52732   1.233  22.761   3.275
87473W        W52733  17.217  29.638   0.199
87474W        W52734  22.678  25.631   0.454
87475W        W52735   9.663  22.111  11.163
87476W        W52736  43.955  20.760  11.497
87477W        W52737  39.504   5.351  13.642
87478W        W52738  42.277  16.585   3.171
87479W        W52739  17.312  23.989  11.093
87480W        W52740  20.863  21.510  11.061
87481W        W52741  15.155  19.311  10.614
87482W        W52742   2.649  12.144   2.185
87483W        W52743  31.508  12.854   0.403
87484W        W52744  15.134   4.246   0.855
87485W        W52745   2.974  18.568   4.808
87486W        W52746  13.665   2.379   0.096
87487W        W52747   9.177  27.754  14.577
87488W        W52748  29.504  32.972   2.721
87489W        W52749  12.856  20.484  11.370
87490W        W52750  43.541  19.965  14.610
87491W        W52751  31.523  36.829  14.908
87492W        W52752   1.405  16.570  12.010
87493W        W52753  10.746  41.582   1.330
87494W        W52754  25.252  43.159  12.917
87495W        W52755  20.790  12.309   2.292
87496W        W52756  20.486  16.372  11.736
87497W        W52757  30.382  24.870  12.110
87498W        W52758   5.656  25.582  11.349
87499W        W52759  29.120   7.425   4.063
87500W        W52760  22.096  42.379   4.221
87501W        W52761  25.632   3.718   3.692
87502W        W52762   9.258  34.022  14.505
87503W        W52763  23.735  25.787   3.455
87504W        W52764   9.930  32.102  13.511
87505W        W52765  11.658  16.148  12.386
87506W        W52766  13.630   6.394   3.290
87507W        W52767  23.107   3.862   1.236
87508W        W52768   1.468  21.018   1.788
87509W        W52769   2.997   5.253  13.067
87510W        W52770  24.353   6.833   0.765
87511W        W52771  14.834  18.191   0.799
87512W        W52772   8.232   6.000  11.988
87513W        W52773   9.919   0.446  10.747
87514W        W52774  28.070  12.505  10.746
87515W        W52775   4.017  22.457   2.181
87516W        W52776  41.788   2.025  14.716
87517W        W52777   2.136  36.487   3.737
87518W        W52778   4.284  36.349  10.715
87519W        W52779  41.768  40.894  12.833
87520W        W52780   4.865   1.706  14.785
87521W        W52781  15.053  31.096   0.297
87522W        W52782  33.309  19.519   1.267
87523W        W52783  30.199  31.148  14.914
87524W        W52784  41.964  28.018  13.120
87525W        W52785  34.341  10.445  10.744
87526W        W52786  37.436  38.415   2.421
87527W        W52787  41.923   9.231   3.175
87528W        W52788  39.831  37.082   1.379
87529W        W52789  42.073   8.867   2.342
87530W        W52790  44.684   5.097   9.871
87531W        W52791  27.522  13.150   4.758
87532W        W52792  42.916  15.706   1.186
87533W        W52793  18.372  40.481  14.951
87534W        W52794  10.778  34.997  12.467
87535W        W52795  38.269  29.394   0.321
87536W        W52796  39.350   6.578  10.840
87537W        W52797  21.565  15.950   9.879
87538W        W52798  38.530  13.188   4.464
87539W        W52799  44.825  19.468  11.039
87540W        W52800  39.861   6.782  12.677
87541W        W52801  35.246  12.697  12.945
87542W        W52802  36.965  14.547   4.702
87543W        W52803  21.771  19.787  10.210
87544W        W52804  21.010   9.146   3.676
87545W        W52805  29.952  42.265   2.121
87546W        W52806  44.056  19.081   3.684
87547W        W52807  22.542  10.914  10.670
87548W        W52808  21.922   8.196  13.953
87549W        W52809  31.938  14.537  12.152
87550W        W52810   6.780  27.517   2.781
87551W        W52811   6.932   4.739   1.846
87552W        W52812  23.732  42.347   1.788
87553W        W52813   2.922  30.957   0.412
87554W        W52814  30.598  32.381   1.352
87555W        W52815   7.120  43.843   1.848
87556W        W52816  31.290  35.948  10.322
87557W        W52817  40.121   0.414  11.215
87558W        W52818  11.667  26.493   2.965
87559W        W52819  15.872   9.309  13.823
87560W        W52820  25.073  42.092   3.226
87561W        W52821  30.028  27.859  12.404
87562W        W52822  32.013   2.660  11.899
87563W        W52823   7.325  37.373  12.184
87564W        W52824  10.813  26.701   3.054
87565W        W52825   8.819  39.973   0.468
87566W        W52826  17.592  34.273   4.234
87567W        W52827  26.570  44.543   4.033
87568W        W52828  20.470  20.205  11.662
87569W        W52829  31.856   4.846  14.510
87570W        W52830   6.216  20.319   3.762
87571W        W52831  27.494  29.806  11.905
87572W        W52832  29.975  28.796  11.185
87573W        W52833  34.845   1.555   2.328
87574W        W52834   1.531  17.516   0.384
87575W        W52835  34.194  30.788   1.764
87576W        W52836   4.358  33.467  13.956
87577W        W52837   2.274  44.003  11.019
87578W        W52838  19.787  30.452   2.550
87579W        W52839   6.969   7.489  11.226
87580W        W52840   5.834  41.583   0.705
87581W        W52841  33.289  30.589  10.066
87582W        W52842  13.238   5.126   0.909
87583W        W52843  41.864  14.595   1.002
87584W        W52844  18.702  28.465   0.308
87585W        W52845  30.811   9.725   2.694
87586W        W52846  18.155  20.855   4.487
87587W        W52847   7.818   0.469   0.990
87588W        W52848   4.969  29.593  13.476
87589W        W52849  37.604  24.416   0.377
87590W        W52850  11.292  11.101   3.635
87591W        W52851  20.011  12.291   2.952
87592W        W52852  16.296  30.815  13.455
87593W        W52853   1.243  16.254   3.348
87594W        W52854  32.549  27.194   4.051
87595W        W52855  12.243  35.838   1.913
87596W        W52856  10.180  14.244   1.884
87597W        W52857  22.105  14.297  14.662
87598W        W52858  11.571  20.960   2.320
87599W        W52859   1.767   1.370  12.920
87600W        W52860   5.025   1.929  11.162
87601W        W52861  40.456   4.479   0.438
87602W        W52862   7.920  35.551   0.742
87603W        W52863   6.165  11.158  10.860
87604W        W52864  19.755  31.739   3.744
87605W        W52865  20.167  31.490  14.381
87606W        W52866   7.488  12.345  13.187
87607W        W52867   3.208  29.079   1.419
87608W        W52868   8.314  16.760  13.838
87609W        W52869  16.958  18.432  11.974
87610W        W52870  23.670  39.829  12.923
87611W        W52871  34.079   8.159  13.588
87612W        W52872   7.015  29.038  13.870
87613W        W52873  29.519  33.421   3.534
87614W        W52874  37.945  35.965  13.787
87615W        W52875  30.670  28.176  12.402
87616W        W52876  37.366  14.660   3.105
87617W        W52877  28.824  17.777  13.425
87618W        W52878   5.398  43.816  10.766
87619W        W52879  34.111   8.643  13.835
87620W        W52880  12.876  19.788   0.227
87621W        W52881   4.308  13.188   4.393
87622W        W52882  20.549  25.457  13.951
87623W        W52883  22.746   2.553   9.841
87624W        W52884  28.177  43.475   0.853
87625W        W52885  40.783  42.760  13.366
87626W        W52886  27.062  31.526   4.607
87627W        W52887  31.901  38.036   4.111
87628W        W52888  15.571  40.754   0.400
87629W        W52889   1.212  36.405   0.042
87630W        W52890   3.999  15.823  12.895
87631W        W52891  35.963  37.838  13.811
87632W        W52892  34.395  27.944  14.404
87633W        W52893  27.254  11.041  13.437
87634W        W52894  11.133  38.817  14.461
87635W        W52895  36.421  43.850   4.810
87636W        W52896  41.363  15.022  10.779
87637W        W52897  21.035  25.234   2.000
87638W        W52898  13.270   5.205   4.097
87639W        W52899  16.278  34.544  14.443
87640W        W52900   4.837   8.972   4.976
87641W        W52901  29.904  16.194   1.750
87642W        W52902  14.669  19.626   9.762
87643W        W52903   8.174  36.374   0.401
87644W        W52904   1.748   0.984  10.515
87645W        W52905   4.355  25.658  13.495
87646W        W52906  44.350  24.653  11.603
87647W        W52907  40.843  35.637  12.733
87648W        W52908  40.397  30.805  10.221
87649W        W52909  16.178  25.157   2.665
87650W        W52910  26.262  36.827   2.637
87651W        W52911  31.591  42.432  10.922
87652W        W52912  29.510  20.565  13.826
87653W        W52913  28.741   9.241  13.430
87654W        W52914  13.253  20.617  11.056
87655W        W52915  17.179  25.484  12.108
87656W        W52916  43.547  17.579  14.819
87657W        W52917   6.960  36.594  13.384
87658W        W52918  11.885  39.545   2.369
87659W        W52919  34.339   7.826   0.936
87660W        W52920  29.474  10.340  11.869
87661W        W52921  31.849  21.545   4.892
87662W        W52922  24.213  29.312   1.707
87663W        W52923  23.758  10.846  11.084
87664W        W52924  30.580  13.175   0.824
87665W        W52925   3.455   6.143   0.782
87666W        W52926  19.163   6.397  11.076
87667W        W52927  15.717  27.663   2.670
87668W        W52928   4.361  23.423  14.396
87669W        W52929  20.151  39.301   4.174
87670W        W52930  24.067  35.422  13.484
87671W        W52931  35.687   7.613  14.424
87672W        W52932  28.968   4.919   9.920
87673W        W52933  41.965   5.875   0.979
87674W        W52934   1.882  11.324   5.534
87675W        W52935  10.904   1.573   2.323
87676W        W52936  31.041  44.397   3.606
87677W        W52937   2.807  40.475   3.683
87678W        W52938  19.987  43.083  13.989
87679W        W52939  23.005  26.386  10.722
87680W        W52940  14.321  14.428  11.222
87681W        W52941  26.985   9.350   0.555
87682W        W52942  26.555  41.510  12.446
87683W        W52943  11.533   9.262   0.829
87684W        W52944  43.930   7.587  10.539
87685W        W52945  12.537  11.635  11.139
87686W        W52946  33.257  27.452   3.660
87687W        W52947  22.150  27.390  14.105
87688W        W52948  11.889  16.274   1.770
87689W        W52949  31.705  44.525  10.823
87690W        W52950  39.122  40.285  12.019
87691W        W52951   4.516  36.525   4.803
87692W        W52952   6.232  15.834   1.717
87693W        W52953   5.814  34.932  14.293
87694W        W52954  17.107   2.043   1.147
87695W        W52955  37.419  34.388  13.833
87696W        W52956  40.967   5.950  10.757
87697W        W52957  32.127  11.802   4.147
87698W        W52958  13.880  34.932  14.467
87699W        W52959   9.047   6.180   3.232
87700W        W52960  12.012   5.067   0.048
87701W        W52961   7.555  31.920  14.112
87702W        W52962  35.387   9.483   0.946
87703W        W52963  41.878  39.996   2.608
87704W        W52964  20.223  42.116   3.188
87705W        W52965  31.000  37.613  11.616
87706W        W52966  36.015  13.584   1.213
87707W        W52967  16.864  15.510  14.340
87708W        W52968  33.896  36.453  11.968
87709W        W52969  19.036  15.651  13.583
87710W        W52970  12.761  26.366   9.871
87711W        W52971  34.465  11.860   3.649
87712W        W52972  20.239   1.470   0.453
87713W        W52973  17.211  36.297  11.988
87714W        W52974  39.125   4.698  11.039
87715W        W52975  23.695   9.213   3.687
87716W        W52976  40.351  39.123   0.417
87717W        W52977   8.012  24.633  13.960
87718W        W52978  42.295  14.193  12.188
87719W        W52979  21.666  34.943  11.505
87720W        W52980   1.475  43.281   0.918
87721W        W52981   7.459  31.865  11.963
87722W        W52982  13.778  11.279  13.506
87723W        W52983  20.542  21.330  11.427
87724W        W52984   7.411  25.946   3.156
87725W        W52985  32.187  39.991   1.303
87726W        W52986   1.090  39.214   4.257
87727W        W52987   3.445   0.173  10.387
87728W        W52988   1.270  13.823   2.722
87729W        W52989  36.263  16.776  13.636
87730W        W52990  17.195   1.440  13.332
87731W        W52991  30.173  14.099  11.132
87732W        W52992  15.192  35.894   3.803
87733W        W52993  22.545  20.476   0.941
87734W        W52994  21.920   2.505   4.053
87735W        W52995  27.180  36.531  13.492
87736W        W52996  28.606   3.061   2.564
87737W        W52997   1.780   0.759  12.647
87738W        W52998  11.140  21.063   3.228
87739W        W52999  21.198   5.837  13.364
87740W        W53000  34.496  22.238  10.679
87741W        W53001  37.400  22.709   3.099
87742W        W53002  44.553  24.675   1.837
87743W        W53003  30.509  22.423   1.760
87744W        W53004  27.261  38.314  11.438
87745W        W53005  19.267  43.771   0.850
87746W        W53006  26.140  15.539  11.768
87747W        W53007  44.850   3.211  12.476
87748W        W53008  33.951  14.338   1.683
87749W        W53009   0.532  35.568   4.159
87750W        W53010  25.024   5.343   0.249
87751W        W53011   0.329  30.838  12.980
87752W        W53012  22.519  11.631   2.279
87753W        W53013  23.667   6.365   4.483
87754W        W53014  23.988  14.418  12.059
87755W        W53015  13.227  28.585  12.441
87756W        W53016  36.964  20.127   2.534
87757W        W53017  28.598   3.711  12.613
87758W        W53018  16.340  39.502   1.912
87759W        W53019  24.697  31.419   3.375
87760W        W53020   0.816   8.215   4.923
87761W        W53021  36.364  12.808  12.304
87762W        W53022   6.082   4.815   2.047
87763W        W53023   7.441  10.709  12.814
87764W        W53024  41.730   4.927   1.711
87765W        W53025  18.961  26.811   3.198
87766W        W53026  16.244  38.993   1.110
87767W        W53027   8.817  28.434   3.201
87768W        W53028  34.365   2.871  13.394
87769W        W53029   7.659  25.438   1.510
87770W        W53030  31.204   7.248  12.373
87771W        W53031  31.899  40.961   1.182
87772W        W53032  17.769   3.686   2.147
87773W        W53033   3.241  22.676  13.772
87774W        W53034  44.152  42.267  10.677
87775W        W53035  38.739  37.800  11.448
87776W        W53036  20.108  30.090  14.860
87777W        W53037   7.878  27.734   0.922
87778W        W53038   4.640  44.444   4.062
87779W        W53039  17.625  18.671  14.020
87780W        W53040  27.253  44.469  12.798
87781W        W53041  19.237  24.262   1.726
87782W        W53042  32.074  44.888  13.428
87783W        W53043  14.667  29.437  11.908
87784W        W53044  26.494   2.420   3.110
87785W        W53045   6.946  25.928  11.165
87786W        W53046  16.391  15.928  11.903
87787W        W53047  18.302  16.481   0.716
87788W        W53048  42.359  44.484  10.172
87789W        W53049   2.045  17.504   0.366
87790W        W53050  42.932  42.725  13.026
87791W        W53051  21.057  24.143  14.612
87792W        W53052  23.054   8.919   4.621
87793W        W53053  28.270  10.420   1.376
87794W        W53054  24.939  33.082   3.498
87795W        W53055   3.362  39.752   4.579
87796W        W53056  16.952   5.662   3.732
87797W        W53057  20.047   9.366   1.451
87798W        W53058  36.493  44.205  10.742
87799W        W53059  20.631  14.946  11.831
87800W        W53060  20.756   2.856  14.521
87801W        W53061  21.153  32.169   2.795
87802W        W53062  28.017   6.893  10.516
87803W        W53063  11.521  17.336   4.204
87804W        W53064  42.587  13.736  12.486
87805W        W53065  21.645  40.984   3.859
87806W        W53066  40.734  11.349   0.312
87807W        W53067  28.087   0.780  13.732
87808W        W53068   0.977  11.158   4.448
87809W        W53069  16.110  28.984  11.129
87810W        W53070  41.580  38.836   0.712
87811W        W53071  18.189  22.624  12.975
87812W        W53072  19.306  15.043   4.404
87813W        W53073  32.983  24.140   2.138
87814W        W53074  14.234   3.342   2.098
87815W        W53075  30.531  14.760   3.967
87816W        W53076  18.541  32.086   4.617
87817W        W53077  42.102  25.916  12.009
87818W        W53078  35.313  32.568  11.124
87819W        W53079  24.083  33.662  11.517
87820W        W53080  13.043  10.853  11.812
87821W        W53081   1.184  28.319   1.324
87822W        W53082   5.437  43.845   3.268
87823W        W53083   7.071  22.488  11.175
87824W        W53084  22.065   9.094   1.044
87825W        W53085  30.256  38.556   2.426
87826W        W53086   5.379   9.328  12.356
87827W        W53087   6.173  23.036   3.845
87828W        W53088  27.989  42.729   2.802
87829W        W53089  36.683  37.447   2.277
87830W        W53090  36.533  19.201  14.894
87831W        W53091  10.845  31.792  11.491
87832W        W53092  30.469  11.355   4.664
87833W        W53093  32.281  42.007   5.021
87834W        W53094   1.959   0.455   0.442
87835W        W53095  16.012   1.528   5.072
87836W        W53096  34.051  30.628   3.288
87837W        W53097  20.908  25.225   3.625
87838W        W53098  25.475  21.189   1.324
87839W        W53099  32.356  16.220  13.349
87840W        W53100  32.611   4.671  13.366
87841W        W53101  37.016  15.702  10.827
87842W        W53102  26.490  24.518   0.218
87843W        W53103   6.725  37.870  11.635
87844W        W53104  31.078  19.575  14.388
87845W        W53105  34.958  31.160   1.356
87846W        W53106  10.266  43.493   0.306
87847W        W53107  37.421   7.809   4.904
87848W        W53108  32.469  26.872  14.982
87849W        W53109  32.997   8.640  13.402
87850W        W53110  42.929  38.884  14.225
87851W        W53111  44.453   9.721   0.517
87852W        W53112  29.017  18.365  10.762
87853W        W53113  29.857  15.130  12.343
87854W        W53114   9.656  23.852  12.604
87855W        W53115  35.138  39.859   0.902
87856W        W53116  38.059   3.023  13.596
87857W        W53117  16.183  38.908   1.626
87858W        W53118  10.938   8.880   3.585
87859W        W53119   7.214   8.908   2.643
87860W        W53120  34.134  37.869   3.577
87861W        W53121  17.188  39.446   1.339
87862W        W53122  44.179  38.315  10.617
87863W        W53123  24.711   5.655  11.987
87864W        W53124  22.616  20.369  11.082
87865W        W53125  32.706  23.759   1.751
87866W        W53126  13.538  35.005   1.988
87867W        W53127   0.514   7.731   1.473
87868W        W53128  38.449   2.816   4.666
87869W        W53129  42.698  31.167   4.612
87870W        W53130  13.756   8.149   0.207
87871W        W53131  24.403  20.851   0.216
87872W        W53132  30.991  24.798  10.351
87873W        W53133   1.909  19.995   0.342
87874W        W53134  10.649  38.889  12.026
87875W        W53135  31.525  31.529  10.484
87876W        W53136  15.553  13.250  12.051
87877W        W53137  34.121  17.521   1.047
87878W        W53138  21.547  19.113   0.363
87879W        W53139  12.176  31.643  14.988
87880W        W53140  37.768   9.258  14.069
87881W        W53141  21.315  35.469  14.027
87882W        W53142  39.239  29.266  13.507
87883W        W53143  29.650  32.004  11.418
87884W        W53144   6.271   9.867  14.900
87885W        W53145  43.338   4.337   2.163
87886W        W53146  39.774  23.637   4.932
87887W        W53147   1.550  24.786  14.574
87888W        W53148  24.504  23.937  13.772
87889W        W53149  32.225  18.557   3.098
87890W        W53150  20.229  44.250   1.678
87891W        W53151  20.133  31.177   2.278
87892W        W53152  35.492  36.022   1.356
87893W        W53153  29.952  16.899  10.946
87894W        W53154  15.810  41.535  10.547
87895W        W53155  34.257  37.537   4.310
87896W        W53156   4.743   0.246  12.836
87897W        W53157  15.229  39.573   2.338
87898W        W53158  14.430   0.115  13.888
87899W        W53159  38.170  43.408  11.104
87900W        W53160   1.726  10.929   4.186
87901W        W53161  39.812  11.727   3.679
87902W        W53162   4.939   4.332  14.451
87903W        W53163  28.950  16.733  13.887
87904W        W53164  10.381  29.042   3.132
87905W        W53165  44.383   7.593   0.393
87906W        W53166  44.954  22.650   2.669
87907W        W53167  26.975  21.095   2.352
87908W        W53168  17.598  16.100   1.635
87909W        W53169  17.346  22.208  14.455
87910W        W53170  14.590  24.071  13.847
87911W        W53171  18.717  17.095  14.471
87912W        W53172  39.793   8.792   4.125
87913W        W53173   2.464  19.792   0.750
87914W        W53174  25.199  16.641   2.566
87915W        W53175  44.904  25.316   0.731
87916W        W53176  28.155  25.616  14.921
87917W        W53177  16.153   6.219   3.778
87918W        W53178  29.452  11.747   3.633
87919W        W53179  24.279  41.082   3.299
87920W        W53180  37.819  31.334   3.818
87921W        W53181  13.623   5.187  11.917
87922W        W53182   6.736  23.639   0.283
87923W        W53183  29.249   8.016  14.734
87924W        W53184  36.461  29.041  10.656
87925W        W53185  29.621  27.979  13.326
87926W        W53186  42.884  41.044   1.965
87927W        W53187   5.461  43.441   2.672
87928W        W53188  12.874   0.921   1.376
87929W        W53189  44.307   8.641  12.000
87930W        W53190  23.569   1.415  13.068
87931W        W53191   7.387   0.535  12.889
87932W        W53192  12.841  27.549  11.752
87933W        W53193  42.189  41.923   3.311
87934W        W53194  39.426  29.049   4.756
87935W        W53195  35.360   8.315  12.046
87936W        W53196  44.026   7.929   3.878
87937W        W53197  21.942  27.456   2.276
87938W        W53198   9.487   2.180   4.070
87939W        W53199   0.272   5.337   1.918
87940W        W53200   4.669  19.804   0.486
87941W        W53201  24.748   0.497   1.976
87942W        W53202   6.587  42.892   1.505
87943W        W53203  17.490   3.296   0.195
87944W        W53204  43.449  28.508  13.583
87945W        W53205  44.331  32.070   4.090
87946W        W53206   1.137  35.667  11.983
87947W        W53207  16.291  43.165  11.597
87948W        W53208  20.466  32.024   1.715
87949W        W53209  16.784  15.738   2.632
87950W        W53210  35.140  16.316  12.966
87951W        W53211  29.654  12.929  12.093
87952W        W53212   9.668  18.776   0.210
87953W        W53213  40.297  27.419  14.367
87954W        W53214  14.150  19.291  12.471
87955W        W53215  35.568  20.024  12.509
87956W        W53216  33.166  34.616   3.169
87957W        W53217   3.952  13.650   2.412
87958W        W53218  26.781  22.631   4.187
87959W        W53219   9.205  18.401   4.380
87960W        W53220  38.780  34.325   4.493
87961W        W53221  15.386   7.267  14.407
87962W        W53222  34.842  10.351  13.443
87963W        W53223  32.506   1.054  14.787
87964W        W53224  40.967  38.787   2.863
87965W        W53225  15.601   3.141   2.898
87966W        W53226  25.151  11.210   1.194
87967W        W53227  26.551  38.240  11.984
87968W        W53228  44.424  19.192  11.194
87969W        W53229  10.129  26.927  14.901
87970W        W53230   0.353   6.799  13.839
87971W        W53231  10.216  32.863  12.389
87972W        W53232   1.174  32.884  11.276
87973W        W53233  40.897  20.795   4.045
87974W        W53234  28.114   7.406  10.551
87975W        W53235  23.478   8.210   3.783
87976W        W53236  42.558   2.435  14.347
87977W        W53237  14.764  43.384  12.940
87978W        W53238  30.118  27.453   1.846
87979W        W53239   6.257  35.427   3.704
87980W        W53240  35.328   4.215   1.732
87981W        W53241  29.492  43.846  11.129
87982W        W53242  38.982  19.796   2.632
87983W        W53243  14.190  29.937   0.355
87984W        W53244   0.105  22.337  14.795
87985W        W53245  21.768  22.491   0.863
87986W        W53246  38.972  35.815  11.716
87987W        W53247  12.710  25.738  13.532
87988W        W53248  15.210   6.985  13.903
87989W        W53249   7.582  31.160  14.865
87990W        W53250  30.874  11.746   3.724
87991W        W53251  40.897   6.171   3.788
87992W        W53252  31.874  12.236   4.300
87993W        W53253  11.897  36.843   3.630
87994W        W53254  13.915  37.331   0.723
87995W        W53255  28.015   2.301  11.622
87996W        W53256  44.913  10.320  14.569
87997W        W53257   6.891  28.646  12.893
87998W        W53258  30.210  25.655   3.176
87999W        W53259  11.264  13.839  12.403
88000W        W53260  27.445  33.847   2.126
88001W        W53261  32.694  28.952  13.593
88002W        W53262  41.329  11.282  13.423
88003W        W53263  32.250   9.666  11.645
88004W        W53264  20.404   7.514   4.444
88005W        W53265  41.810  16.334   0.471
88006W        W53266  19.776  15.000   4.684
88007W        W53267   3.374  28.156  14.977
88008W        W53268  31.626  33.494  14.148
88009W        W53269  30.124  27.707   2.741
88010W        W53270  12.773  33.779  12.081
88011W        W53271  15.288  37.555   2.502
88012W        W53272  22.037  32.630   3.576
88013W        W53273  35.878  26.959   3.083
88014W        W53274  43.471  15.354  12.896
88015W        W53275   0.987  42.475  14.947
88016W        W53276  31.100  24.025   1.601
88017W        W53277  29.181  28.989   0.913
88018W        W53278  20.356  41.357  12.495
88019W        W53279  22.826   4.406   1.466
88020W        W53280  27.192  14.883   3.627
88021W        W53281  21.025  10.796   0.175
88022W        W53282  36.888   6.280   0.445
88023W        W53283   2.156  30.378   5.052
88024W        W53284   6.313  33.393  11.533
88025W        W53285  29.012  22.998   2.679
88026W        W53286   0.872  38.619   0.901
88027W        W53287  10.067  20.498  14.679
88028W        W53288   7.655  37.316   3.104
88029W        W53289  23.249  29.457  13.883
88030W        W53290  16.154  15.258  12.983
88031W        W53291  11.629  42.795  12.488
88032W        W53292  26.510  28.705  14.728
88033W        W53293  31.007  30.945   1.909
88034W        W53294  25.672   1.680   3.654
88035W        W53295  36.199  34.942   5.025
88036W        W53296   8.459  14.337  11.362
88037W        W53297  41.961  16.494   2.758
88038W        W53298  30.528  32.165   1.827
88039W        W53299  18.531  21.116   4.217
88040W        W53300  29.126  21.805  11.975
88041W        W53301  38.589  20.748   0.816
88042W        W53302  18.154  41.808  14.719
88043W        W53303  40.689  13.163   0.738
88044W        W53304  19.673  44.430   1.866
88045W        W53305   3.222  44.537   0.353
88046W        W53306   0.343  41.948   4.897
88047W        W53307  39.110  20.650  11.096
88048W        W53308   0.245  36.636  14.469
88049W        W53309  20.592   1.345  13.458
88050W        W53310  35.597  31.052  11.602
88051W        W53311  29.288  15.746  10.274
88052W        W53312  16.729  32.062  12.501
88053W        W53313  13.098  38.316   1.120
88054W        W53314  12.702  10.364   4.748
88055W        W53315  15.339   1.378  13.440
88056W        W53316  12.739  21.110  11.660
88057W        W53317  19.549  12.907   3.641
88058W        W53318   8.529  33.005   1.495
88059W        W53319  36.554   8.920  13.558
88060W        W53320  25.873  37.915   4.545
88061W        W53321  14.736  15.898   4.379
88062W        W53322  12.820  20.042  10.665
88063W        W53323   7.100   3.116  11.132
88064W        W53324  28.988  40.424  14.509
88065W        W53325  11.985  19.078   0.221
88066W        W53326  22.268  20.184  12.563
88067W        W53327  31.293  34.894  11.606
88068W        W53328   8.170   1.322  11.516
88069W        W53329  17.616  34.640   1.665
88070W        W53330  28.276   0.465   9.971
88071W        W53331  28.153  17.703   0.416
88072W        W53332  28.474  18.316   1.875
88073W        W53333   6.196  43.433  14.532
88074W        W53334  18.142   1.741   0.240
88075W        W53335  42.264  39.134   0.408
88076W        W53336   5.596  19.130   4.620
88077W        W53337  23.196  22.464  13.028
88078W        W53338  19.044  30.154  13.329
88079W        W53339  26.646  16.658  13.508
88080W        W53340  32.836  36.153  11.679
88081W        W53341  36.374  38.011  12.104
88082W        W53342  26.271  33.873   3.687
88083W        W53343  42.892  43.223  11.648
88084W        W53344  40.947  30.084   4.713
88085W        W53345  27.644  10.887   3.214
88086W        W53346  35.567   8.205   1.627
88087W        W53347  23.569  28.076  14.602
88088W        W53348  41.603  23.897   3.821
88089W        W53349  38.699  32.486  11.332
88090W        W53350   6.755  39.059   1.814
88091W        W53351  19.719  28.222   3.158
88092W        W53352  14.254  24.032   4.782
88093W        W53353   7.845  39.125  10.298
88094W        W53354  44.749  18.159  14.355
88095W        W53355  21.064   1.916  10.329
88096W        W53356  30.669   1.342  10.701
88097W        W53357  39.928  27.066  11.838
88098W        W53358  10.076  34.175   0.480
88099W        W53359  11.352  30.820   1.733
88100W        W53360  12.429   4.736  12.516
88101W        W53361  13.301  36.828   4.714
88102W        W53362  14.599  33.506   0.424
88103W        W53363  35.113  29.188   0.994
88104W        W53364  14.910  20.063   2.660
88105W        W53365  28.463  18.680   4.053
88106W        W53366  27.185   7.805  11.132
88107W        W53367  24.258  14.569   0.387
88108W        W53368  21.734   9.623  13.522
88109W        W53369  42.958   9.587   2.295
88110W        W53370  22.723  24.015   1.880
88111W        W53371  44.447  20.678   0.663
88112W        W53372  18.761  30.124  11.001
88113W        W53373   8.767  44.947  13.491
88114W        W53374  13.232  35.470   0.402
88115W        W53375  37.631  37.536  10.813
88116W        W53376   8.675   8.440  14.852
88117W        W53377  23.619  18.328   2.255
88118W        W53378  43.173  10.869  10.657
88119W        W53379  23.285  27.076   2.422
88120W        W53380   4.906  37.113   4.296
88121W        W53381  18.670  19.124  14.725
88122W        W53382  19.279   6.428  11.633
88123W        W53383  22.198   7.048  11.464
88124W        W53384  13.222  23.912  12.003
88125W        W53385  36.307  13.302   2.113
88126W        W53386  11.867  22.745  12.404
88127W        W53387  12.253  40.513  13.492
88128W        W53388  18.609  23.512   0.935
88129W        W53389  31.032  22.006   2.860
88130W        W53390  33.929  26.928  11.610
88131W        W53391  42.767  18.602   1.202
88132W        W53392  18.677  36.463  11.716
88133W        W53393  23.723  31.382   4.239
88134W        W53394  40.891  41.998  11.166
88135W        W53395  42.502  26.485  13.522
88136W        W53396  41.027  22.868  14.331
88137W        W53397  33.017  19.694   3.280
88138W        W53398  11.710  24.249   2.656
88139W        W53399  21.592  31.938   0.504
88140W        W53400  40.093  32.014  13.846
88141W        W53401  39.359   3.440   1.269
88142W        W53402   4.466  35.240   1.011
88143W        W53403   8.814  21.952  14.352
88144W        W53404  34.640  25.116   1.608
88145W        W53405  39.312  19.505   2.345
88146W        W53406   7.231  12.645  12.851
88147W        W53407  23.159  31.156   4.515
88148W        W53408  17.465  23.731  11.936
88149W        W53409  10.871  23.915  14.858
88150W        W53410  14.901  13.838  12.987
88151W        W53411   3.223  12.722   2.673
88152W        W53412  44.266  42.253  11.192
88153W        W53413  20.228  20.706   1.346
88154W        W53414  24.197  27.749  11.169
88155W        W53415   2.367  12.741   4.157
88156W        W53416  32.858  39.937   3.810
88157W        W53417  28.750   8.891  12.097
88158W        W53418   0.933  42.007  11.603
88159W        W53419  12.884   2.780  11.093
88160W        W53420  14.403  40.772   2.434
88161W        W53421  26.646  22.052  10.611
88162W        W53422  26.142  12.790  11.595
88163W        W53423   6.482  18.748   2.243
88164W        W53424  22.490  37.987  12.606
88165W        W53425  21.736   7.718  13.999
88166W        W53426  12.711  42.975   2.657
88167W        W53427   3.148  43.615  11.169
88168W        W53428   5.172  30.658  14.297
88169W        W53429  12.072   3.582   4.943
88170W        W53430  21.436  31.543  13.981
88171W        W53431   3.538   8.264  14.322
88172W        W53432   9.191  40.341   2.090
88173W        W53433  10.498  22.088  14.079
88174W        W53434  18.953   2.264   0.249
88175W        W53435  38.939  28.151   3.538
88176W        W53436   9.109  13.388  13.887
88177W        W53437   2.231  20.491   3.499
88178W        W53438  38.828  24.274   0.736
88179W        W53439  18.572  16.660  12.758
88180W        W53440  37.367  22.189  11.179
88181W        W53441  28.192  26.284  12.521
88182W        W53442  44.020   9.698   0.831
88183W        W53443  35.187  15.443   4.108
88184W        W53444   4.944  41.341  11.588
88185W        W53445  20.141  41.582  12.942
88186W        W53446  34.083  20.598  12.924
88187W        W53447  23.665   8.001   3.325
88188W        W53448  16.029  14.718   2.727
88189W        W53449  41.980  22.054  12.037
88190W        W53450  17.520  29.152  11.236
88191W        W53451  17.098  17.953   1.519
88192W        W53452  40.765  33.922  13.604
88193W        W53453  36.591  23.544  12.030
88194W        W53454  10.102  25.487  11.001
88195W        W53455  31.575  40.830  12.756
88196W        W53456   5.437  26.536   4.887
88197W        W53457  36.374  29.604   0.739
88198W        W53458  19.207  10.784  12.384
88199W        W53459  13.772   8.398   0.658
88200W        W53460   8.238   2.327   2.418
88201W        W53461  26.081  18.254  13.512
88202W        W53462  28.354   0.956   4.873
88203W        W53463  23.110  21.774   3.411
88204W        W53464  44.370  32.600   1.892
88205W        W53465  33.508  18.737  11.977
88206W        W53466  34.985   8.407   1.487
88207W        W53467  31.184  42.116   4.831
88208W        W53468  35.153  14.101  14.558
88209W        W53469   8.447  37.376   2.726
88210W        W53470   0.952  17.381   5.028
88211W        W53471  13.297  33.077   4.202
88212W        W53472  36.431   1.230   0.896
88213W        W53473  24.951  39.352  14.747
88214W        W53474  16.803  30.389   3.194
88215W        W53475  11.826  30.122   3.210
88216W        W53476  32.182   1.237   1.014
88217W        W53477  14.067   5.842   0.093
88218W        W53478  12.341  20.330  10.669
88219W        W53479  22.056  32.660   2.789
88220W        W53480  28.486  40.346  13.879
88221W        W53481  41.982   3.891   2.989
88222W        W53482  26.075   2.869   0.463
88223W        W53483  44.816  29.982   1.278
88224W        W53484  38.999   0.417  13.963
88225W        W53485   2.349  22.104  13.657
88226W        W53486  24.021  19.083   0.423
88227W        W53487  22.287  32.867   3.192
88228W        W53488  23.800  24.702   4.858
88229W        W53489  16.355   9.240  13.914
88230W        W53490  35.169   9.224  10.635
88231W        W53491  29.148  42.358  11.233
88232W        W53492  26.678   5.305   2.203
88233W        W53493  25.358  23.595   1.825
88234W        W53494  18.722  32.897  11.539
88235W        W53495   6.217  27.152  14.526
88236W        W53496  42.270  39.769   3.767
88237W        W53497   9.477   5.232   4.061
88238W        W53498   3.361  32.515   3.269
88239W        W53499  14.615  37.062   1.324
88240W        W53500  16.090  40.654   3.926
88241W        W53501  16.591  29.864   2.380
88242W        W53502  22.540   2.719  13.862
88243W        W53503  33.352  31.773  10.065
88244W        W53504  19.511  13.085  13.807
88245W        W53505  15.102  22.982  12.073
88246W        W53506  18.737  27.764  12.888
88247W        W53507  25.009  40.455  14.808
88248W        W53508  29.096  36.518  10.735
88249W        W53509  24.523   0.496   1.484
88250W        W53510  37.996   8.777  10.958
88251W        W53511  16.658  36.495   2.034
88252W        W53512  42.352  34.371   3.204
88253W        W53513  32.365  14.885   2.615
88254W        W53514  19.087  27.602  12.152
88255W        W53515  37.494  17.103   2.384
88256W        W53516  26.448   8.408  14.456
88257W        W53517  14.964  11.795  14.809
88258W        W53518  24.536  14.956   0.631
88259W        W53519  26.714  42.901   0.519
88260W        W53520  30.543  10.402   2.811
88261W        W53521  43.765   9.245   0.781
88262W        W53522   3.421  27.088   1.384
88263W        W53523  39.911  39.923  14.457
88264W        W53524   4.662  12.761  11.850
88265W        W53525  14.335  41.006  13.785
88266W        W53526   0.076   1.425   2.166
88267W        W53527   2.352  38.484  14.608
88268W        W53528  24.640  26.056   1.214
88269W        W53529   7.770  28.171  13.040
88270W        W53530  34.966  26.898  12.511
88271W        W53531  29.799   4.946   0.803
88272W        W53532  33.742   5.161  14.372
88273W        W53533  39.620   9.760   0.280
88274W        W53534  38.430  31.696  11.182
88275W        W53535   7.690   4.211  11.151
88276W        W53536  10.899  11.896   4.611
88277W        W53537  11.315   1.266  13.330
88278W        W53538  28.958  18.097   0.231
88279W        W53539  36.283  14.337  11.136
88280W        W53540   0.364   6.597   2.366
88281W        W53541  31.675  10.503   1.277
88282W        W53542  18.552  27.281  12.974
88283W        W53543  21.931   9.899  14.447
88284W        W53544  33.621  41.936   0.041
88285W        W53545  30.006  40.436  10.538
88286W        W53546  29.427  43.931  13.107
88287W        W53547  40.524  40.520   1.330
88288W        W53548   2.442   8.293   3.741
88289W        W53549  16.101  22.409   3.593
88290W        W53550  17.640  42.855   0.739
88291W        W53551  10.918  15.244  13.954
88292W        W53552  15.112  41.300   2.835
88293W        W53553   5.012  42.483  12.061
88294W        W53554  26.896  22.604   1.798
88295W        W53555  31.993   3.045   2.422
88296W        W53556  38.441  12.624   0.004
88297W        W53557  39.666   2.465  12.092
88298W        W53558  43.263  44.684   0.411
88299W        W53559  27.898  41.476   4.537
88300W        W53560   9.572  36.493  14.533
88301W        W53561  41.277  24.437  11.115
88302W        W53562   7.368   9.216   3.030
88303W        W53563  26.684   7.424   2.879
88304W        W53564  20.721  17.061  14.500
88305W        W53565  31.105  17.951  11.160
88306W        W53566   9.842  13.811   0.818
88307W        W53567  36.007  41.073  12.685
88308W        W53568  32.900  43.696  12.597
88309W        W53569  30.960  15.634   3.634
88310W        W53570  22.575  24.426  12.448
88311W        W53571  26.937   9.268   3.114
88312W        W53572  41.493   2.760   2.871
88313W        W53573   6.376   4.653  14.003
88314W        W53574  27.286   1.839   3.395
88315W        W53575  19.932  44.377  12.841
88316W        W53576  26.520   3.859   4.581
88317W        W53577   1.225  39.161  11.616
88318W        W53578   9.057   2.421   4.223
88319W        W53579  36.966  28.365   2.867
88320W        W53580  23.188  20.984   0.442
88321W        W53581  41.458   6.000   0.253
88322W        W53582  26.045  38.811   0.974
88323W        W53583  35.789  44.519  12.960
88324W        W53584  39.460  11.584  13.517
88325W        W53585  30.465  18.361  11.684
88326W        W53586  26.420   7.142  11.913
88327W        W53587  27.199  22.530  11.973
88328W        W53588  38.086  27.200  14.756
88329W        W53589  40.595  28.630  12.508
88330W        W53590  25.553  23.703  14.448
88331W        W53591   5.949   2.947   3.371
88332W        W53592  17.516  42.389   0.280
88333W        W53593  11.468  41.499   0.194
88334W        W53594   2.138   7.070  11.906
88335W        W53595  17.985  22.740   4.545
88336W        W53596   7.646  38.961  12.474
88337W        W53597  37.859  44.669  12.140
88338W        W53598   4.476   9.319   4.558
88339W        W53599   0.733  22.999   0.581
88340W        W53600  30.733   6.199  13.021
88341W        W53601   8.205   1.684   1.298
88342W        W53602  15.644  29.518  13.375
88343W        W53603   3.592   2.660   2.579
88344W        W53604  33.707  41.961  11.532
88345W        W53605  31.421  31.331  12.604
88346W        W53606  28.003  28.135  12.454
88347W        W53607  21.065   3.541   4.239
88348W        W53608  23.560  19.750  14.020
88349W        W53609  36.279  18.763  14.370
88350W        W53610  34.255  25.203  13.930
88351W        W53611  30.953  43.411   0.012
88352W        W53612  34.963  35.889   2.759
88353W        W53613   8.104  35.629  10.707
88354W        W53614  14.134   7.205  13.592
88355W        W53615   0.405  27.944   0.734
88356W        W53616  33.129   0.696  10.777
88357W        W53617   7.726  15.265  12.860
88358W        W53618  32.613  14.519   3.209
88359W        W53619  32.481   6.958   3.744
88360W        W53620  39.608  27.982   2.076
88361W        W53621  40.538  28.758  14.066
88362W        W53622  44.744  18.755  12.805
88363W        W53623  28.446  31.182   3.206
88364W        W53624  11.841  16.817  13.749
88365W        W53625  26.959   4.844   1.337
88366W        W53626  39.525   8.182  11.534
88367W        W53627   7.887  19.749   4.883
88368W        W53628   9.682  37.066  14.835
88369W        W53629  40.509  23.663  10.549
88370W        W53630   7.660  43.830   1.779
88371W        W53631   3.229   7.763   3.391
88372W        W53632   4.991  19.245   1.829
88373W        W53633  11.357  11.273  10.025
88374W        W53634   8.987  19.660  14.428
88375W        W53635   3.308   4.303  13.638
88376W        W53636  24.004  37.874   1.363
88377W        W53637  39.322   8.403   2.416
88378W        W53638   3.453   4.698   2.522
88379W        W53639  40.531   6.727   1.309
88380W        W53640  31.243  33.408   0.536
88381W        W53641   3.497  19.610   1.982
88382W        W53642  13.189  31.206   4.719
88383W        W53643  25.558  35.278  11.601
88384W        W53644  14.827  12.375   3.135
88385W        W53645  14.087  41.251  14.760
88386W        W53646  44.630   9.498   1.308
88387W        W53647  22.577  12.769   2.626
88388W        W53648  32.080   0.933   1.441
88389W        W53649  26.784  40.997  10.587
88390W        W53650  36.445  40.873   2.778
88391W        W53651  36.402   4.801   0.925
88392W        W53652  28.726   1.973  11.117
88393W        W53653  35.874  25.230   2.881
88394W        W53654   5.155  43.428   3.180
88395W        W53655  33.484   8.381   3.205
88396W        W53656  42.101  40.324   4.464
88397W        W53657  43.588  44.452   2.804
88398W        W53658  21.635  22.015  13.972
88399W        W53659   0.434   0.532  14.528
88400W        W53660   4.308   2.687  11.320
88401W        W53661  28.704  14.554   3.868
88402W        W53662   6.257  20.323  11.301
88403W        W53663  11.273  21.653   0.259
88404W        W53664  41.815  29.970  14.346
88405W        W53665  37.899  15.153   4.079
88406W        W53666  11.749  19.777  14.740
88407W        W53667  22.062  18.303  14.474
88408W        W53668  16.597  36.386   2.948
88409W        W53669   2.406  27.443   4.648
88410W        W53670  22.630  17.073   2.668
88411W        W53671  40.423  43.476  13.441
88412W        W53672  18.819  36.973   0.290
88413W        W53673   8.851  38.035  12.593
88414W        W53674   8.850  26.562  12.957
88415W        W53675  18.815  32.448  12.524
88416W        W53676  13.319  36.658  13.190
88417W        W53677  25.030  17.845  14.701
88418W        W53678  21.787  15.886  14.532
88419W        W53679   4.206  33.170   0.805
88420W        W53680  37.930  44.413  11.669
88421W        W53681   0.884  16.342  11.152
88422W        W53682  11.707  34.387   1.271
88423W        W53683  32.641  13.177  13.949
88424W        W53684  27.502  14.832   1.949
88425W        W53685  33.058  30.617  10.539
88426W        W53686   2.848   5.467  10.785
88427W        W53687  32.252   6.224   3.604
88428W        W53688  29.921  44.640  11.108
88429W        W53689  32.338  31.598  11.918
88430W        W53690  18.746  10.397  11.026
88431W        W53691  10.918  43.004  12.029
88432W        W53692  14.040  25.122  12.838
88433W        W53693  27.046   9.742   2.857
88434W        W53694  44.672  38.190   1.189
88435W        W53695  31.576  37.078  13.854
88436W        W53696  16.214   9.739  13.757
88437W        W53697  23.167  33.806   4.969
88438W        W53698  30.369  11.632   2.726
88439W        W53699  19.979  24.961  14.293
88440W        W53700  29.011  33.571  11.082
88441W        W53701  42.897  33.480   0.743
88442W        W53702  32.474  22.775  13.322
88443W        W53703   6.685  22.761  13.817
88444W        W53704  41.562   0.390  11.606
88445W        W53705  40.348   3.286  11.938
88446W        W53706   8.384   7.685   0.834
88447W        W53707   2.735   3.618   4.373
88448W        W53708   0.368   0.502  11.607
88449W        W53709   4.779  25.733  14.830
88450W        W53710  34.662  36.404  14.489
88451W        W53711  34.475  16.287  11.155
88452W        W53712  23.235  17.254  14.966
88453W        W53713  40.229  38.171   3.701
88454W        W53714  15.588  12.352   4.870
88455W        W53715   4.030  19.421  11.029
88456W        W53716  31.905  13.372  13.530
88457W        W53717  26.597  43.298   4.629
88458W        W53718  17.035  35.629  14.055
88459W        W53719   4.191   5.023   4.442
88460W        W53720  41.156   1.509  14.805
88461W        W53721  19.272  36.129   3.234
88462W        W53722  37.485  34.013   2.272
88463W        W53723  29.817  15.723  10.239
88464W        W53724  17.795  12.214  12.841
88465W        W53725  39.930   1.995  11.212
88466W        W53726  22.521  16.231  13.908
88467W        W53727  42.742  38.451  11.992
88468W        W53728  16.853  34.898   1.350
88469W        W53729  25.100  35.847  13.197
88470W        W53730   6.128   7.414  13.292
88471W        W53731   0.252  39.509  11.956
88472W        W53732   3.993  41.809  12.569
88473W        W53733   6.724  19.228   2.228
88474W        W53734   2.060  44.944  10.705
88475W        W53735   1.032  27.051   3.613
88476W        W53736   7.911  36.124   2.167
88477W        W53737  31.413  11.796  11.188
88478W        W53738  33.286  13.294   1.427
88479W        W53739  16.131  33.759  11.570
88480W        W53740   7.091  21.856  14.267
88481W        W53741  29.456  26.475  14.936
88482W        W53742  28.105  41.647   5.045
88483W        W53743  27.463   9.878   4.272
88484W        W53744  20.090  40.623  12.016
88485W        W53745  10.716  34.612   0.148
88486W        W53746   8.525  17.799   2.764
88487W        W53747  38.263  42.900   2.921
88488W        W53748  20.568   8.830   3.118
88489W        W53749  44.940  22.238  13.004
88490W        W53750  43.868  16.077   1.261
88491W        W53751  25.689  26.950  11.046
88492W        W53752  39.280  14.841   3.061
88493W        W53753  25.973  28.155   3.911
88494W        W53754  27.357   0.397   4.405
88495W        W53755  14.164   0.178  14.990
88496W        W53756  22.178   0.169  13.018
88497W        W53757   7.866  42.271   4.783
88498W        W53758   6.989   0.802   0.875
88499W        W53759  26.835  25.984  14.633
88500W        W53760  25.303   7.351  14.812
88501W        W53761  34.611  16.249  14.760
88502W        W53762  34.683  27.144  11.087
88503W        W53763   6.377   0.774   1.857
88504W        W53764  22.313  36.306   0.320
88505W        W53765  30.683  15.365  13.420
88506W        W53766  43.528  29.363  11.197
88507W        W53767  19.623  34.903  12.544
88508W        W53768   2.427  43.829   0.458
88509W        W53769  10.795  13.217  13.396
88510W        W53770  44.824  38.811   1.889
88511W        W53771   8.831  28.686   3.635
88512W        W53772  31.575  15.046   1.847
88513W        W53773  28.685   5.679  10.717
88514W        W53774   2.931  23.913  12.031
88515W        W53775  29.007  28.958   1.488
88516W        W53776  42.570  19.548  12.503
88517W        W53777  29.578  15.773  13.554
88518W        W53778  37.027  19.046  14.819
88519W        W53779   1.527  40.387  11.177
88520W        W53780  28.451  37.129  13.451
88521W        W53781  13.832  25.578  11.865
88522W        W53782   5.223  20.707  13.722
88523W        W53783   1.912  28.191   4.101
88524W        W53784  26.601   0.059   3.093
88525W        W53785  15.456  22.296  11.651
88526W        W53786  17.791   4.765   3.687
88527W        W53787  26.540   2.965  14.039
88528W        W53788  34.829  18.287  10.784
88529W        W53789  30.505   5.898   4.297
88530W        W53790   6.237  18.582   1.749
88531W        W53791  44.012   4.843  12.320
88532W        W53792  11.063   9.556   3.642
88533W        W53793  18.710  39.488   4.168
88534W        W53794  26.233   6.710  10.501
88535W        W53795   5.737  40.600  13.911
88536W        W53796   9.574  20.510  14.864
88537W        W53797  44.446  19.092   0.921
88538W        W53798  27.593   7.233  12.828
88539W        W53799  44.759   1.798   2.975
88540W        W53800  19.660   4.220  14.802
88541W        W53801  43.788  26.610  11.830
88542W        W53802  11.208   5.697   2.622
88543W        W53803  29.590  32.703  13.131
88544W        W53804  35.466  22.789   0.700
88545W        W53805  32.090  35.256  13.070
88546W        W53806  43.279  30.052  13.048
88547W        W53807  27.388  36.564   0.214
88548W        W53808  38.979  13.146   4.116
88549W        W53809  33.707  18.855  14.603
88550W        W53810  42.036  26.972  12.936
88551W        W53811   0.780  23.791  12.146
88552W        W53812   3.347  21.473   0.870
88553W        W53813  11.773   1.976  13.858
88554W        W53814  33.808   9.170  12.656
88555W        W53815   2.802  14.409  10.749
88556W        W53816  13.548  21.746   2.309
88557W        W53817  36.140  21.147   4.221
88558W        W53818  42.673  33.565   4.238
88559W        W53819  27.501   6.397   4.576
88560W        W53820  15.002  13.544   1.073
88561W        W53821  17.152  11.095   0.898
88562W        W53822  29.381   4.717   0.587
88563W        W53823  30.619  25.273  14.310
88564W        W53824  42.509  36.527  10.653
88565W        W53825  43.064   8.472  11.513
88566W        W53826  31.974  42.264   3.651
88567W        W53827  20.963  41.847  14.637
88568W        W53828   8.599   9.630   3.222
88569W        W53829  16.192  37.121   0.838
88570W        W53830   8.428  33.829  13.473
88571W        W53831   2.930   2.901  11.548
88572W        W53832  32.400  17.705  14.140
88573W        W53833  11.409   0.960  11.247
88574W        W53834   8.103  23.138  13.814
88575W        W53835  44.307   6.591   5.298
88576W        W53836   5.910  39.495   0.873
88577W        W53837  11.541  30.256  13.437
88578W        W53838  43.783  14.888  12.082
88579W        W53839  16.211  43.395   4.256
88580W        W53840   0.454  26.664   1.418
88581W        W53841  41.055  16.367   1.775
88582W        W53842   2.423  11.069  10.987
88583W        W53843   8.628  13.649   2.224
88584W        W53844   3.353   6.762   1.969
88585W        W53845  33.586   7.663   2.973
88586W        W53846  31.669  29.704  14.109
88587W        W53847  23.565  32.914  14.313
88588W        W53848  15.079  21.087  11.191
88589W        W53849   8.628  16.276   1.513
88590W        W53850  24.979   0.933   2.740
88591W        W53851   2.850  28.650   4.146
88592W        W53852  23.758  32.948   2.234
88593W        W53853  28.946  24.229  11.171
88594W        W53854  21.750  30.961   0.833
88595W        W53855  33.356  42.809   0.015
88596W        W53856  41.308  17.724   3.121
88597W        W53857  21.550  13.816  12.009
88598W        W53858   8.738  30.980   3.712
88599W        W53859  20.270   0.285  13.407
88600W        W53860  28.871  44.747  12.784
88601W        W53861  38.081  13.437   1.942
88602W        W53862  43.001   8.108   0.401
88603W        W53863  12.169  44.852  14.545
88604W        W53864  31.507  11.157   2.254
88605W        W53865  34.425  38.002  11.647
88606W        W53866   3.329  12.679   2.147
88607W        W53867  19.764  12.203  12.829
88608W        W53868  15.585  23.693   2.667
88609W        W53869  34.201  42.068  11.727
88610W        W53870  32.598   4.730  11.532
88611W        W53871  18.913  17.045   4.145
88612W        W53872   2.121  38.653   2.350
88613W        W53873   9.418  24.266   4.130
88614W        W53874  10.152  44.737  10.752
88615W        W53875  29.348  37.797  14.805
88616W        W53876  35.996  27.929   0.208
88617W        W53877  20.138  37.204   4.146
88618W        W53878  35.295  10.752  10.742
88619W        W53879  43.197  21.283  14.049
88620W        W53880  10.143  30.996   2.839
88621W        W53881   8.175   9.083   2.394
88622W        W53882  33.823  33.988  14.147
88623W        W53883  12.922  43.453   1.364
88624W        W53884   3.372  40.652   3.736
88625W        W53885   3.552  31.163   2.209
88626W        W53886  21.200  19.201   1.890
88627W        W53887   8.500  17.184  13.600
88628W        W53888   5.291  11.236  12.645
88629W        W53889  39.390  24.932   4.648
88630W        W53890  18.896  44.522   4.141
88631W        W53891  38.941  39.276  14.437
88632W        W53892  27.803   5.112  11.135
88633W        W53893  32.101   3.378   0.317
88634W        W53894  33.395   7.296   0.872
88635W        W53895   2.231  22.607  13.842
88636W        W53896  44.885  37.778  11.098
88637W        W53897  33.190  41.031   3.791
88638W        W53898   7.495  43.881  10.536
88639W        W53899  29.550  23.068  14.377
88640W        W53900  30.666  18.771  14.476
88641W        W53901  10.502  31.076   4.988
88642W        W53902  34.581  11.505  14.476
88643W        W53903  22.948  13.663   0.949
88644W        W53904   7.610  21.222  14.945
88645W        W53905  18.111  38.463   3.895
88646W        W53906  21.104  44.851  14.869
88647W        W53907  34.553  24.888   3.606
88648W        W53908  11.746  34.609   3.519
88649W        W53909  26.711  32.158   0.025
88650W        W53910  34.397  16.831   3.638
88651W        W53911   3.330  34.091  11.646
88652W        W53912  24.812  41.736  13.778
88653W        W53913  32.847   5.390  14.975
88654W        W53914  29.012  27.360  13.387
88655W        W53915  12.911  13.795  13.972
88656W        W53916  24.639  38.374  13.475
88657W        W53917  29.394  31.567  14.957
88658W        W53918  37.009  44.674  13.334
88659W        W53919   1.849  38.386   3.144
88660W        W53920  44.305  43.893  14.773
88661W        W53921  41.187  28.485   3.220
88662W        W53922  20.615   7.597  14.302
88663W        W53923  43.016  17.558   1.449
88664W        W53924  28.925  30.048  14.519
88665W        W53925  44.593  12.196  10.215
88666W        W53926  26.572  16.215   2.885
88667W        W53927  21.373  28.700  10.848
88668W        W53928  27.212   2.490   0.869
88669W        W53929  20.191   6.555   4.026
88670W        W53930  14.127  24.235   2.398
88671W        W53931  17.260   9.205   1.272
88672W        W53932  41.952  28.488  14.936
88673W        W53933  14.027  23.896   3.425
88674W        W53934  43.378  31.843  13.650
88675W        W53935   2.277  42.861   1.027
88676W        W53936   6.527  28.912  14.014
88677W        W53937  44.713   8.900   0.842
88678W        W53938  13.345  38.783   1.114
88679W        W53939   2.511  18.916   4.682
88680W        W53940  11.390   6.926   2.266
88681W        W53941  25.956   5.394  13.078
88682W        W53942  22.983  17.102  13.309
88683W        W53943  36.651  36.639   2.627
88684W        W53944  43.398  37.005  11.547
88685W        W53945   4.472  12.227   3.657
88686W        W53946  32.490  21.765   4.175
88687W        W53947  28.955   9.740   0.575
88688W        W53948  41.529  22.783   0.206
88689W        W53949  25.064  30.245  13.798
88690W        W53950  31.061  27.941  12.875
88691W        W53951  21.550  21.678  13.586
88692W        W53952  11.182  36.785   4.404
88693W        W53953  23.169  14.646  14.392
88694W        W53954  37.848  22.034   1.200
88695W        W53955  11.812  15.909   4.005
88696W        W53956  35.404  18.302   3.720
88697W        W53957  41.130   2.350  14.354
88698W        W53958  26.479  11.736   3.083
88699W        W53959  20.027  27.375  13.777
88700W        W53960  22.225   1.780   9.582
88701W        W53961  27.591   9.737   1.684
88702W        W53962  14.646   0.415   2.873
88703W        W53963  13.534  33.796   1.304
88704W        W53964   3.858   3.396   1.239
88705W        W53965   1.412  23.655  10.061
88706W        W53966  19.586  40.239   1.309
88707W        W53967  10.879  40.680   2.358
88708W        W53968  13.187  37.542  13.590
88709W        W53969   4.207  30.890  13.186
88710W        W53970  30.555  30.341  11.949
88711W        W53971  30.945  41.244  11.331
88712W        W53972  11.989  31.131   2.281
88713W        W53973  21.282  43.871   2.207
88714W        W53974  31.928  17.242  11.607
88715W        W53975  31.715  32.165   3.272
88716W        W53976  12.781  28.333  12.396
88717W        W53977   3.928  22.983   4.037
88718W        W53978   7.342  43.985   4.449
88719W        W53979  19.125   9.130  13.853
88720W        W53980   8.162  40.949   3.577
88721W        W53981   4.570   7.276   0.151
88722W        W53982  28.489  14.384   3.401
88723W        W53983  33.952  10.559   4.237
88724W        W53984  14.105   8.458   3.305
88725W        W53985  17.311   0.802  10.709
88726W        W53986  10.474   9.350   0.911
88727W        W53987  17.506  42.697  14.439
88728W        W53988   2.158  10.402  13.463
88729W        W53989  42.349  28.956   4.569
88730W        W53990  44.039   0.576   3.596
88731W        W53991  36.047  42.544   2.885
88732W        W53992  37.188  18.064  14.646
88733W        W53993   8.434   1.155  12.145
88734W        W53994   1.305  16.780   3.302
88735W        W53995  36.887  22.638  13.381
88736W        W53996  36.833   4.113   4.054
88737W        W53997  31.582  22.539   2.270
88738W        W53998  32.595  23.548  11.512
88739W        W53999  41.869  24.252  12.427
88740W        W54000  10.434  19.151  13.683
88741W        W54001  16.639   6.240  12.438
88742W        W54002  10.704   8.234  14.366
88743W        W54003  41.964   2.210  12.614
88744W        W54004  32.697  41.930  11.203
88745W        W54005  43.850   7.912  14.042
88746W        W54006  19.572   8.111  11.623
88747W        W54007  41.229  28.032   2.889
88748W        W54008  26.030   1.962   1.020
88749W        W54009  32.620  14.130   2.268
88750W        W54010   5.419  25.380   0.854
88751W        W54011  18.479  37.882  14.819
88752W        W54012  17.563  15.871   4.061
88753W        W54013  19.021  18.402  11.087
88754W        W54014  27.056  35.778  10.207
88755W        W54015  12.286   5.178   4.257
88756W        W54016   1.789   0.927  12.128
88757W        W54017  19.452  34.868  14.784
88758W        W54018  12.236  13.157   4.259
88759W        W54019   6.764  34.884   2.071
88760W        W54020  12.680   7.895   0.840
88761W        W54021  39.993   7.701   2.231
88762W        W54022  23.163  18.715  12.403
88763W        W54023  42.786  14.767  12.885
88764W        W54024  24.799  10.821   0.828
88765W        W54025  40.790  25.930   4.612
88766W        W54026  15.708   6.478   3.583
88767W        W54027  21.640  28.911   4.544
88768W        W54028  27.091  22.648  11.061
88769W        W54029  40.029  19.158   2.399
88770W        W54030  43.850  24.926   0.269
88771W        W54031  42.956  39.754   3.230
88772W        W54032   4.925  34.916   3.166
88773W        W54033  18.851  13.740  14.841
88774W        W54034  40.779  17.462  12.094
88775W        W54035   2.339  42.110  11.909
88776W        W54036  14.716  16.210  14.732
88777W        W54037   1.394  35.762   2.568
88778W        W54038  17.227  14.038  12.019
88779W        W54039  19.437  40.053   0.458
88780W        W54040  30.507  23.850   1.118
88781W        W54041  32.950  10.528  14.432
88782W        W54042  24.534  41.477   4.535
88783W        W54043  28.547  26.246   0.296
88784W        W54044  22.639   7.877  12.819
88785W        W54045   7.122  32.855  12.031
88786W        W54046  35.815  21.189  14.981
88787W        W54047  30.945  30.528  10.278
88788W        W54048   8.367  23.647   1.791
88789W        W54049  13.183  16.424  14.066
88790W        W54050  27.868  31.752  13.085
88791W        W54051  12.782  40.946   2.915
88792W        W54052  38.906  27.614  14.166
88793W        W54053  29.259  44.885   1.427
88794W        W54054  22.994  39.777  12.611
88795W        W54055  34.964   3.863  14.341
88796W        W54056  12.253  36.057   0.926
88797W        W54057  22.790  41.369   3.184
88798W        W54058  36.619  11.836  13.410
88799W        W54059  29.990  16.728   1.589
88800W        W54060   3.586  17.182   5.131
88801W        W54061   2.451  31.418   3.138
88802W        W54062  25.396  44.458  10.935
88803W        W54063  10.293  20.679   3.672
88804W        W54064  21.493   1.909   3.722
88805W        W54065  11.765  31.193   3.157
88806W        W54066  30.889  13.644  11.671
88807W        W54067  29.458  44.071  14.318
88808W        W54068  44.504  24.922   1.352
88809W        W54069  34.698  17.597  12.539
88810W        W54070  38.703   4.126   1.047
88811W        W54071  14.622  26.550   1.342
88812W        W54072   3.915  21.803  12.999
88813W        W54073  25.678  12.628   2.725
88814W        W54074  28.596  25.247  12.596
88815W        W54075   4.147  23.511  11.242
88816W        W54076   8.919  12.665  10.778
88817W        W54077  41.706   0.013   0.357
88818W        W54078  42.980  36.328  10.533
88819W        W54079  41.273   4.409   2.493
88820W        W54080  12.172   1.169  12.819
88821W        W54081  21.293  23.050   2.322
88822W        W54082  11.264   4.407   3.150
88823W        W54083  11.237  31.202   2.752
88824W        W54084  16.565  39.093  11.280
88825W        W54085  43.589  31.622  11.360
88826W        W54086  41.822  13.503   2.580
88827W        W54087  40.465  18.580  10.725
88828W        W54088  44.453  15.410  12.069
88829W        W54089  44.094  43.580  13.363
88830W        W54090  18.272  44.348   2.247
88831W        W54091  31.859  30.458   2.328
88832W        W54092  21.463   2.316  12.489
88833W        W54093   4.703  22.616  12.160
88834W        W54094  33.475  28.405   2.706
88835W        W54095  26.102   9.847   4.602
88836W        W54096  19.259  31.654   1.754
88837W        W54097  38.103  11.218   1.670
88838W        W54098  19.980  40.458   2.255
88839W        W54099  23.830  20.206   1.837
88840W        W54100   5.236  35.639  11.197
88841W        W54101  21.658  34.172  13.953
88842W        W54102  34.632  12.650   2.356
88843W        W54103  17.747  33.082  12.579
88844W        W54104   2.744  24.640   3.190
88845W        W54105  35.249  16.227  10.472
88846W        W54106   9.189  27.709   3.697
88847W        W54107   9.214  14.069  13.032
88848W        W54108  25.982  15.417  14.336
88849W        W54109  29.649  15.804   0.861
88850W        W54110  38.348  17.513  10.777
88851W        W54111  44.709  41.407  11.987
88852W        W54112  14.554   1.175   0.341
88853W        W54113  36.769  30.457   4.525
88854W        W54114  28.475  38.870   0.711
88855W        W54115   5.266   6.831   2.778
88856W        W54116  20.268  16.037   1.809
88857W        W54117  22.997  21.596  13.388
88858W        W54118   1.488   3.037   3.678
88859W        W54119   6.611  12.223  14.850
88860W        W54120  34.731   4.445  14.763
88861W        W54121  28.651   1.297  10.786
88862W        W54122  12.434  12.076   0.425
88863W        W54123  10.136  39.821  14.281
88864W        W54124  13.861  24.565   0.583
88865W        W54125  23.154  22.311   0.003
88866W        W54126  13.838  44.281   2.852
88867W        W54127  18.008  37.327  14.324
88868W        W54128  15.250  42.557  13.182
88869W        W54129  13.392  10.450  12.626
88870W        W54130  37.309   2.434   3.183
88871W        W54131  44.995  26.881   1.438
88872W        W54132  40.943  21.503   2.127
88873W        W54133  28.967  28.363  13.325
88874W        W54134  39.881   4.364   3.779
88875W        W54135   8.727   8.888   4.543
88876W        W54136  31.246   5.824  13.992
88877W        W54137  18.830  40.199   1.370
88878W        W54138  39.392   0.758   3.924
88879W        W54139  20.493   1.423   1.458
88880W        W54140   2.592  37.947  10.502
88881W        W54141  19.554  31.939   1.155
88882W        W54142   7.867   0.390   4.894
88883W        W54143   9.214  18.208  11.312
88884W        W54144  34.130  28.028  12.329
88885W        W54145  16.220  11.799  13.329
88886W        W54146  19.578   8.276  14.072
88887W        W54147  39.066   7.747   0.037
88888W        W54148  29.693   7.561   2.926
88889W        W54149  37.898   7.439  14.442
88890W        W54150  10.559   1.749  11.083
88891W        W54151   2.884   5.531   4.802
88892W        W54152  11.694  12.122   0.357
88893W        W54153   6.496  28.925   4.595
88894W        W54154   0.656   4.962   0.231
88895W        W54155  27.856  31.614  13.994
88896W        W54156  38.346  34.463  14.735
88897W        W54157  37.251  10.792  11.481
88898W        W54158  24.614  25.613   2.261
88899W        W54159   4.218  13.645  11.674
88900W        W54160  31.252  31.236   4.663
88901W        W54161  25.744  13.126   0.522
88902W        W54162  21.123   6.794  10.759
88903W        W54163   2.819  33.533   1.532
88904W        W54164   5.980  42.388  14.386
88905W        W54165   1.671  28.940  12.389
88906W        W54166   3.934  32.877  12.599
88907W        W54167   7.313  18.014  12.099
88908W        W54168   2.666  16.600   1.286
88909W        W54169  26.437  39.854   1.896
88910W        W54170  39.278   5.156   0.357
88911W        W54171  23.021  20.620  12.552
88912W        W54172  30.194  43.483  14.493
88913W        W54173   3.839   0.783  11.856
88914W        W54174  23.538  11.509  13.886
88915W        W54175  29.449  38.006  11.839
88916W        W54176  34.767  40.274   4.742
88917W        W54177   8.725   6.937   2.819
88918W        W54178  18.027  29.053  13.797
88919W        W54179  12.241  44.944  14.045
88920W        W54180  20.570  36.236   0.219
88921W        W54181  34.937  42.563  11.640
88922W        W54182  25.095  32.595  13.781
88923W        W54183  15.682  28.725  10.686
88924W        W54184   0.550  16.673   0.979
88925W        W54185  40.407  35.417  12.955
88926W        W54186   4.341  34.962   2.450
88927W        W54187  32.939  33.469   4.836
88928W        W54188  40.087  13.249  12.068
88929W        W54189  13.435  38.594   4.718
88930W        W54190  20.613  16.694   2.324
88931W        W54191  30.636   0.850  12.865
88932W        W54192  42.776  26.586  11.971
88933W        W54193  31.527  32.897   3.810
88934W        W54194  37.029  19.863   4.966
88935W        W54195  11.784   5.704   2.343
88936W        W54196  22.239  21.131   3.137
88937W        W54197   2.869  29.618   1.955
88938W        W54198  19.668  38.519   4.132
88939W        W54199   2.207  33.511  11.046
88940W        W54200  37.417  34.728  12.091
88941W        W54201   5.586  34.522  11.778
88942W        W54202  11.862  42.228  13.915
88943W        W54203  18.709   2.871   0.878
88944W        W54204   8.790  33.183  14.223
88945W        W54205  29.073  26.978   3.284
88946W        W54206  17.166  19.504  13.365
88947W        W54207  41.320   3.475   4.335
88948W        W54208  21.993  13.203   1.215
88949W        W54209  32.071  43.309  14.486
88950W        W54210  14.371  13.995   0.478
88951W        W54211  10.721  36.295   3.304
88952W        W54212  11.535  37.116  12.056
88953W        W54213  39.295  10.764   3.575
88954W        W54214   7.049  16.432   3.629
88955W        W54215   2.224   1.290   3.698
88956W        W54216  19.076  22.682   0.727
88957W        W54217  41.283  19.633  14.524
88958W        W54218  15.544   7.283  11.308
88959W        W54219  35.606  44.495   0.368
88960W        W54220   2.792  27.307  14.796
88961W        W54221  41.747  12.637  10.458
88962W        W54222   2.014  28.328   0.786
88963W        W54223  27.236   3.810  12.622
88964W        W54224  37.652   8.865  14.460
88965W        W54225  35.511  29.411  11.959
88966W        W54226  16.432   3.413   2.625
88967W        W54227  31.206  28.545   4.201
88968W        W54228  36.557  42.243   1.330
88969W        W54229  16.246  30.556  11.442
88970W        W54230   2.021  42.222  14.716
88971W        W54231  24.739  44.913   2.510
88972W        W54232   3.235  10.752   0.931
88973W        W54233   0.399   2.780  13.401
88974W        W54234  21.125   0.311   0.657
88975W        W54235   7.076  20.225  12.941
88976W        W54236  21.273   0.876  14.601
88977W        W54237  22.393  17.373   2.252
88978W        W54238  18.199  26.226  10.709
88979W        W54239  25.696  18.963   0.022
88980W        W54240  11.435   4.355   4.681
88981W        W54241  30.872  26.602   0.308
88982W        W54242  22.223   4.329  13.897
88983W        W54243   8.007  21.049   0.523
88984W        W54244  39.554  15.150  12.301
88985W        W54245   0.054  41.856  13.848
88986W        W54246  23.470  37.613  13.447
88987W        W54247  22.465  10.860   2.747
88988W        W54248   3.106  44.324   5.069
88989W        W54249  35.125  28.874  13.533
88990W        W54250  15.917  26.529   4.457
88991W        W54251  31.024  40.637   4.294
88992W        W54252  33.023  16.662  12.620
88993W        W54253  29.956   5.691   3.371
88994W        W54254  36.058  28.166   1.735
88995W        W54255  43.560  33.024   2.095
88996W        W54256  31.063  13.788  13.951
88997W        W54257  38.004  22.118   0.311
88998W        W54258   7.890  23.478   3.911
88999W        W54259  43.507  30.463  13.247
89000W        W54260   5.118   5.287   3.067
89001W        W54261   3.933  19.786  11.925
89002W        W54262   7.833  14.041   4.036
89003W        W54263  41.439  27.078   2.677
89004W        W54264  41.567   7.469  11.198
89005W        W54265  37.075   1.724  13.473
89006W        W54266  19.512  25.625  13.871
89007W        W54267  10.826  17.333   1.247
89008W        W54268  42.874  35.056  14.441
89009W        W54269   0.446   5.858   4.731
89010W        W54270  38.041  39.740   1.995
89011W        W54271  36.019  40.455  10.564
89012W        W54272   3.602  30.972   2.699
89013W        W54273  12.780   5.953   1.813
89014W        W54274  31.398  23.238   0.431
89015W        W54275  37.047   1.976  14.920
89016W        W54276  15.731   5.852  12.794
89017W        W54277   2.925  17.075  13.554
89018W        W54278  27.755  17.208   4.199
89019W        W54279  15.929  38.399  11.151
89020W        W54280  22.202  39.425   4.124
89021W        W54281  35.559  27.088  12.534
89022W        W54282  13.296  12.202   1.804
89023W        W54283  25.766  22.746   4.126
89024W        W54284  23.499   3.070  10.344
89025W        W54285  22.722  25.131   2.888
89026W        W54286  33.625  40.502  12.026
89027W        W54287  35.817  19.017  14.353
89028W        W54288  30.718  24.864  10.788
89029W        W54289   7.430  44.820  13.885
89030W        W54290   2.232  31.434   1.385
89031W        W54291  26.879  19.538   0.977
89032W        W54292  31.483  38.901   0.097
89033W        W54293   8.765   7.016  10.591
89034W        W54294   1.486  26.465   0.982
89035W        W54295  35.425  34.235  11.466
89036W        W54296  13.672  27.705  10.628
89037W        W54297  41.775  27.584   1.787
89038W        W54298  42.943  10.340  13.070
89039W        W54299  35.172  43.296   0.304
89040W        W54300  35.605   6.500   2.735
89041W        W54301   2.796  34.708  11.087
89042W        W54302  24.937  41.821   4.569
89043W        W54303  30.063   1.979   1.325
89044W        W54304   5.393  22.968  11.067
89045W        W54305   5.471  26.005  14.534
89046W        W54306   4.797  28.653   1.958
89047W        W54307  20.536  43.915  11.615
89048W        W54308   5.582  42.755   1.516
89049W        W54309   0.455   9.443  14.409
89050W        W54310  13.772  28.199  14.439
89051W        W54311  29.213  26.582  13.137
89052W        W54312  27.411   8.827   4.653
89053W        W54313  38.494  27.117   1.183
89054W        W54314  41.099  37.474  10.563
89055W        W54315  15.739  15.265  10.440
89056W        W54316   4.761  17.781   0.379
89057W        W54317  11.476   3.863   0.891
89058W        W54318  33.123  23.589  13.788
89059W        W54319  14.222  14.933   2.572
89060W        W54320  39.610   7.693   1.863
89061W        W54321  26.119  35.182   0.273
89062W        W54322   7.206   9.970   0.782
89063W        W54323   2.008  18.660   2.813
89064W        W54324  32.608  21.214   3.252
89065W        W54325  10.715   4.533   3.751
89066W        W54326   9.224  18.868   2.882
89067W        W54327  24.038  19.218   2.759
89068W        W54328  42.551  39.162   0.860
89069W        W54329   7.201  25.175  10.789
89070W        W54330  23.976  37.955  11.668
89071W        W54331  41.428  27.445  13.498
89072W        W54332  18.552  40.887  13.261
89073W        W54333  43.562  40.838  14.890
89074W        W54334  35.345  34.482  11.897
89075W        W54335  15.592   6.187  13.689
89076W        W54336  21.270  22.651  10.718
89077W        W54337  37.525  22.784   2.566
89078W        W54338   6.723  11.818  10.795
89079W        W54339  22.170  42.272   3.693
89080W        W54340  25.464  39.430  13.473
89081W        W54341  44.381  44.537  14.035
89082W        W54342  36.045  25.635   0.537
89083W        W54343  35.045  15.617   3.113
89084W        W54344  34.871  43.151  13.246
89085W        W54345  10.453   5.391  13.329
89086W        W54346  34.651  38.319   1.656
89087W        W54347  18.191  30.950  11.226
89088W        W54348  43.372  39.549   1.211
89089W        W54349  32.019  23.551   1.023
89090W        W54350  12.737  26.729   0.834
89091W        W54351   2.673  34.121  12.619
89092W        W54352  42.592  36.867  12.159
89093W        W54353   5.790   0.446  14.296
89094W        W54354   9.654  29.578   3.220
89095W        W54355   1.187  37.895   1.678
89096W        W54356  26.303   5.212   3.725
89097W        W54357   0.856   5.746  10.547
89098W        W54358  20.430  25.481  14.869
89099W        W54359  33.099  25.215  12.904
89100W        W54360  14.236  43.283  12.995
89101W        W54361  36.916  10.697  14.351
89102W        W54362   6.638   7.792  14.137
89103W        W54363   6.434  13.274  10.763
89104W        W54364   3.194  40.868  10.722
89105W        W54365   0.438  19.784   3.684
89106W        W54366  28.049  39.584  10.237
89107W        W54367  18.611  20.075   1.140
89108W        W54368  23.689   0.436   1.912
89109W        W54369  29.721  29.548   2.723
89110W        W54370  17.319  38.944   0.023
89111W        W54371  26.127  24.450   4.708
89112W        W54372  14.968  10.260   2.287
89113W        W54373   7.353  42.953   1.829
89114W        W54374  24.588  15.216  12.925
89115W        W54375  13.466  42.751   5.237
89116W        W54376  27.448  26.584  10.941
89117W        W54377  35.548  18.650   4.068
89118W        W54378   4.582  35.883  13.047
89119W        W54379  24.625  29.426  12.660
89120W        W54380  37.392   4.301  14.924
89121W        W54381  31.040  39.349  12.216
89122W        W54382  33.918   8.194   4.078
89123W        W54383  43.073   1.965   2.232
89124W        W54384  32.648  35.155  13.713
89125W        W54385  38.618  18.062  14.382
89126W        W54386   3.569  34.169   2.395
89127W        W54387  27.964  14.770   0.855
89128W        W54388  25.636  17.305   0.991
89129W        W54389  23.221   8.981   1.655
89130W        W54390   6.219  37.014  12.713
89131W        W54391  34.380   2.812   3.253
89132W        W54392  17.568  16.157  14.569
89133W        W54393  28.534  25.189   4.084
89134W        W54394  27.976   6.025  13.483
89135W        W54395  27.918  10.273  14.390
89136W        W54396  13.916  38.136   2.737
89137W        W54397  21.114   5.638   2.873
89138W        W54398   7.236  12.769   3.965
89139W        W54399  25.724  25.215   9.810
89140W        W54400  30.667   4.809  13.918
89141W        W54401   1.288   9.333  13.022
89142W        W54402  27.545  42.808  11.079
89143W        W54403   6.606   1.758  13.056
89144W        W54404  36.899   2.629  12.256
89145W        W54405  34.590  26.974   4.679
89146W        W54406  28.076   9.680   3.144
89147W        W54407  21.009   4.249   4.680
89148W        W54408  44.768   8.331   3.406
89149W        W54409   0.724  22.625   2.039
89150W        W54410  16.299  26.028   3.803
89151W        W54411  15.553   1.946  10.795
89152W        W54412  28.609   0.271   1.811
89153W        W54413  17.800  27.121  13.830
89154W        W54414   1.471  13.267  11.906
89155W        W54415  42.664  27.127   3.033
89156W        W54416  31.092  42.901  11.655
89157W        W54417  11.749  41.528   1.370
89158W        W54418  26.175  36.583  12.002
89159W        W54419  28.769  16.619  11.408
89160W        W54420  19.422  12.420  10.785
89161W        W54421  38.042  43.450  14.306
89162W        W54422   9.402  12.761   3.397
89163W        W54423   4.212  28.229   1.244
89164W        W54424  14.131  29.529  11.092
89165W        W54425  26.237  37.349   2.629
89166W        W54426  17.098  25.458   0.370
89167W        W54427  25.842  19.980   0.703
89168W        W54428  22.116   9.932  12.186
89169W        W54429   6.188  44.415   2.403
89170W        W54430  30.192  44.000   4.521
89171W        W54431  25.824  33.600   4.476
89172W        W54432   3.431  21.442  13.565
89173W        W54433  15.817   6.031   1.223
89174W        W54434  40.441  22.908   4.753
89175W        W54435  10.276  28.647   1.344
89176W        W54436   7.438  10.369   1.939
89177W        W54437  25.893  41.510   1.309
89178W        W54438  37.260  25.699  13.488
89179W        W54439  37.416  28.061  10.879
89180W        W54440  37.011  32.187   1.405
89181W        W54441  14.402  12.603   2.867
89182W        W54442  42.973  17.834  12.467
89183W        W54443  13.433  10.068   4.367
89184W        W54444  17.668  41.779  14.517
89185W        W54445   9.680  41.165  11.899
89186W        W54446  44.562  21.822  11.152
89187W        W54447  25.506  36.146   2.879
89188W        W54448  18.104  23.545  11.617
89189W        W54449   0.578  37.027   2.745
89190W        W54450   0.826  35.456  11.568
89191W        W54451  16.093  40.561   3.422
89192W        W54452  26.511  41.283   0.264
89193W        W54453  19.348   2.472  13.042
89194W        W54454  36.955  11.475   1.452
89195W        W54455  32.537   2.414  10.702
89196W        W54456  43.792  34.892   3.297
89197W        W54457  44.701   7.170   2.254
89198W        W54458   3.924  43.388   4.591
89199W        W54459  34.592  31.562   1.242
89200W        W54460   2.678  32.989  11.708
89201W        W54461  44.156  10.086  14.081
89202W        W54462  24.170  23.021   0.812
89203W        W54463  17.578  30.451  13.388
89204W        W54464  34.380  44.530   0.867
89205W        W54465  34.493  35.395  14.390
89206W        W54466  28.007  30.674   1.827
89207W        W54467  31.674   5.937   0.801
89208W        W54468   2.838  25.220  13.823
89209W        W54469   5.375   8.346   4.142
89210W        W54470  13.803  31.167  10.806
89211W        W54471   1.277   4.914   0.987
89212W        W54472   6.679  39.112  12.606
89213W        W54473  31.893  20.840   2.874
89214W        W54474  16.196  12.262  12.429
89215W        W54475   2.388  40.879   3.775
89216W        W54476  38.757   6.641   3.276
89217W        W54477   3.421   4.792  12.943
89218W        W54478  33.486  28.847   4.527
89219W        W54479  25.571   9.633   3.833
89220W        W54480   9.115  32.078   1.745
89221W        W54481   8.738  39.725  12.164
89222W        W54482  31.899  35.272  13.924
89223W        W54483  16.525  25.499   3.644
89224W        W54484  14.135  40.531   4.884
89225W        W54485  40.806  43.986  11.111
89226W        W54486   1.960  10.761  10.841
89227W        W54487  16.642  15.105  13.108
89228W        W54488   3.940   5.883   1.894
89229W        W54489  23.714  26.692  12.966
89230W        W54490  20.025  10.305   2.369
89231W        W54491  34.121   3.822  12.778
89232W        W54492  40.542   6.434   3.473
89233W        W54493  36.424  37.501  10.769
89234W        W54494  10.082  39.922   1.484
89235W        W54495   8.844  22.965   1.332
89236W        W54496   8.887  31.618   9.789
89237W        W54497  22.495   1.342  10.482
89238W        W54498  24.069  10.258  13.575
89239W        W54499   7.454   7.126  14.497
89240W        W54500  31.059  18.256   1.227
89241W        W54501  20.264  38.129   3.190
89242W        W54502  27.212  14.756  14.856
89243W        W54503  25.752   6.742  11.273
89244W        W54504  38.171  24.728  11.038
89245W        W54505  13.132   8.225   2.894
89246W        W54506   6.989  42.191   0.292
89247W        W54507  41.471  33.554  11.784
89248W        W54508  30.015  35.446  12.801
89249W        W54509   3.078  40.388   1.189
89250W        W54510  23.754  40.949   1.026
89251W        W54511   8.485  19.829  12.441
89252W        W54512  36.850  33.526  12.132
89253W        W54513   9.424   2.183  14.814
89254W        W54514  30.341  12.670   4.541
89255W        W54515  15.700  26.788  10.015
89256W        W54516  26.423   9.662   0.387
89257W        W54517  19.080   3.227   4.611
89258W        W54518  13.935  36.344   0.829
89259W        W54519   5.397  32.050   1.978
89260W        W54520  23.310  12.651   1.266
89261W        W54521  23.627  37.261   1.171
89262W        W54522  23.646  21.073  13.515
89263W        W54523   4.550  37.538  13.489
89264W        W54524  12.530  20.159  11.606
89265W        W54525  34.306  13.088   1.271
89266W        W54526   0.060  19.271   1.109
89267W        W54527  26.894  13.768  14.277
89268W        W54528   4.808  22.688  12.650
89269W        W54529   9.338  22.188  10.773
89270W        W54530  21.498  13.129   4.299
89271W        W54531  33.540  10.126   2.837
89272W        W54532  27.936  15.257  12.400
89273W        W54533  38.881   5.687   2.265
89274W        W54534  40.045  11.271  14.742
89275W        W54535  43.790  29.663   3.206
89276W        W54536  11.609  15.574   3.228
89277W        W54537  28.218  31.025  10.190
89278W        W54538  21.152   7.871  11.991
89279W        W54539  17.992  36.273  11.126
89280W        W54540  26.236   3.384   0.619
89281W        W54541  16.358  39.547   3.348
89282W        W54542  11.676  14.622  12.396
89283W        W54543  38.050  24.759   4.320
89284W        W54544  43.718  17.700  12.785
89285W        W54545  16.722   8.271   4.122
89286W        W54546  33.568   0.046   1.610
89287W        W54547  23.978  15.852  12.063
89288W        W54548  20.146   9.878   1.482
89289W        W54549   4.750  34.851   0.844
89290W        W54550  25.920  16.026   2.185
89291W        W54551  38.433   3.861  11.930
89292W        W54552  20.546  27.712   4.053
89293W        W54553  23.522  44.890   3.682
89294W        W54554  39.417  12.082  13.455
89295W        W54555  12.261  21.878  13.011
89296W        W54556  25.162  18.603  13.522
89297W        W54557  11.686  17.810  11.624
89298W        W54558  38.266  32.564   4.497
89299W        W54559  44.462   9.389  12.377
89300W        W54560  29.427  10.900  14.334
89301W        W54561   8.792  14.382   1.256
89302W        W54562  16.582  12.391   2.173
89303W        W54563   3.565   4.137   2.505
89304W        W54564  27.500  16.596   1.006
89305W        W54565  25.028  22.055  11.951
89306W        W54566  27.757  23.674   2.824
89307W        W54567  35.041  19.520  12.231
89308W        W54568   9.877   3.918   0.989
89309W        W54569  14.734  17.870   3.325
89310W        W54570   1.841   3.190  14.482
89311W        W54571   7.362   0.032   1.352
89312W        W54572  32.209  18.809   3.565
89313W        W54573  28.309   4.731  13.009
89314W        W54574  25.331  24.199   4.701
89315W        W54575  31.643  31.749  13.488
89316W        W54576  29.660  40.892   5.018
89317W        W54577  21.712  44.143   2.174
89318W        W54578  12.848  43.064  11.860
89319W        W54579  26.600  23.134   1.807
89320W        W54580  12.664  13.444   1.841
89321W        W54581  30.557   7.307   0.297
89322W        W54582   1.111   6.822   0.197
89323W        W54583  33.704   8.239  10.400
89324W        W54584  29.831   9.854   2.644
89325W        W54585  10.288  14.733   4.624
89326W        W54586   7.212  43.209   3.379
89327W        W54587  18.285  42.804   4.827
89328W        W54588  13.220   6.236  14.225
89329W        W54589  41.287  10.182  10.615
89330W        W54590  29.868  19.744  11.557
89331W        W54591   9.430  31.062   0.699
89332W        W54592  30.653  41.599   3.593
89333W        W54593  11.655  43.857   0.403
89334W        W54594  29.060   2.205  13.910
89335W        W54595  43.059   1.345  10.690
89336W        W54596   9.975  23.467   3.120
89337W        W54597   0.458  11.182   0.317
89338W        W54598   6.667  27.131  11.592
89339W        W54599  44.709  14.196   2.565
89340W        W54600  34.560   8.830   2.352
89341W        W54601  19.078  12.183   4.448
89342W        W54602  26.862   7.744  11.532
89343W        W54603  35.830   3.822  11.029
89344W        W54604   8.183   2.448  10.855
89345W        W54605  20.499  32.638  11.906
89346W        W54606  40.855  35.887  14.489
89347W        W54607  31.982   1.276  13.550
89348W        W54608  11.142  10.873   2.302
89349W        W54609   0.726   1.435  13.562
89350W        W54610  28.067  16.080   4.318
89351W        W54611  26.639  18.523  11.421
89352W        W54612   0.864  42.707   4.336
89353W        W54613  39.130   0.922   1.298
89354W        W54614  25.994  40.870   3.550
89355W        W54615   5.361  23.194  10.608
89356W        W54616   8.344  19.594   4.571
89357W        W54617  28.214   9.320  12.533
89358W        W54618  26.999  11.037   1.284
89359W        W54619  44.778  22.109  13.971
89360W        W54620   3.514  23.618   1.428
89361W        W54621  19.759   4.915   2.735
89362W        W54622   1.300  15.132  10.939
89363W        W54623  26.093  40.315   0.816
89364W        W54624  34.322  42.295   3.640
89365W        W54625  34.917  35.471  13.626
89366W        W54626  44.960  15.285  13.366
89367W        W54627  10.374   7.422  14.939
89368W        W54628  23.318  11.102   0.345
89369W        W54629  16.554   0.007  14.853
89370W        W54630  44.862  17.675  12.838
89371W        W54631  11.902  16.322  11.067
89372W        W54632  32.167  37.739  11.589
89373W        W54633  43.031  12.706   3.231
89374W        W54634  10.434  42.886  10.095
89375W        W54635  30.268  10.814  13.101
89376W        W54636  33.961  40.877   4.124
89377W        W54637  43.153  29.407  14.987
89378W        W54638   7.191  42.354   3.557
89379W        W54639   3.389  21.801  13.936
89380W        W54640  36.387  35.428  11.948
89381W        W54641  25.119  22.971   0.473
89382W        W54642  13.585  22.676  14.344
89383W        W54643  36.015  36.987   0.335
89384W        W54644   6.495  32.163   3.102
89385W        W54645  35.433  41.979   0.402
89386W        W54646  35.641  41.917   1.361
89387W        W54647  25.126  31.993   0.495
89388W        W54648  37.022  37.402   0.689
89389W        W54649  31.018   7.231   2.400
89390W        W54650  14.216  20.531  13.017
89391W        W54651   2.818  30.016   1.594
89392W        W54652  24.617  35.103  13.043
89393W        W54653  11.960   0.672   5.050
89394W        W54654  19.746  15.998   4.597
89395W        W54655  11.598  37.831   3.659
89396W        W54656  20.447  31.200   0.460
89397W        W54657  41.365  20.724  10.822
89398W        W54658  23.208  32.933   4.168
89399W        W54659  36.907  32.988  10.622
89400W        W54660   7.209  33.576   1.426
89401W        W54661  18.066  39.067  12.473
89402W        W54662  37.059  44.967   1.235
89403W        W54663  39.691  22.793  11.496
89404W        W54664  24.770  25.064   0.025
89405W        W54665  23.119   9.659  11.098
89406W        W54666  27.598  35.561   3.825
89407W        W54667  36.833  15.014  12.952
89408W        W54668  18.451  43.097   2.627
89409W        W54669  43.195  30.649  11.469
89410W        W54670  21.553  34.150  11.989
89411W        W54671  31.707   4.679  14.038
89412W        W54672   5.261   9.802   1.153
89413W        W54673  36.044  31.232  14.401
89414W        W54674  15.784  36.445   1.504
89415W        W54675  10.001  18.588   3.060
89416W        W54676  15.991  20.570   1.282
89417W        W54677   9.365  38.248   1.692
89418W        W54678  11.080  16.787   1.765
89419W        W54679  24.653  36.081   1.384
89420W        W54680  37.973   2.867  12.254
89421W        W54681   3.360  17.793   4.572
89422W        W54682  34.334  42.047   1.031
89423W        W54683  30.484   1.880  12.483
89424W        W54684  19.520  26.255   4.061
89425W        W54685  30.604  40.631   4.009
89426W        W54686  41.823   9.074  11.067
89427W        W54687  23.371  28.174  10.680
89428W        W54688  34.433  10.322   1.741
89429W        W54689   1.351   3.763  14.788
89430W        W54690  30.687   0.177   4.450
89431W        W54691  21.527  11.711   3.767
89432W        W54692   3.630  43.846   4.622
89433W        W54693  30.010  43.476   3.184
89434W        W54694   4.819  18.525   1.316
89435W        W54695   4.942  28.891  10.477
89436W        W54696  11.208  21.181  12.398
89437W        W54697  37.983  12.811  10.760
89438W        W54698  11.965  30.388  12.475
89439W        W54699   6.763  17.210   4.147
89440W        W54700  42.706  12.315  13.215
89441W        W54701   8.832  35.538   1.875
89442W        W54702  34.514  18.986   3.077
89443W        W54703  25.948   9.380  13.127
89444W        W54704  28.584  25.172  11.649
89445W        W54705  13.497  11.236   5.052
89446W        W54706  25.628  29.022  12.621
89447W        W54707  34.921   2.537  11.334
89448W        W54708  10.817  18.278   0.317
89449W        W54709  34.622  31.227  11.002
89450W        W54710   7.287  16.803   0.432
89451W        W54711   5.451  37.394   1.976
89452W        W54712  36.910   1.704  12.533
89453W        W54713  17.272  12.146   4.854
89454W        W54714  35.399  25.423   2.966
89455W        W54715   0.421  33.273  13.512
89456W        W54716  16.657  19.865  12.581
89457W        W54717  41.043  33.579  14.862
89458W        W54718   6.593   9.246   0.404
89459W        W54719  12.285   6.783  12.320
89460W        W54720   4.881  30.418   0.026
89461W        W54721  14.820  41.393   3.794
89462W        W54722  16.917   7.096  14.956
89463W        W54723  25.998  30.505   2.914
89464W        W54724  15.733  31.372   3.526
89465W        W54725   2.833  11.832   1.820
89466W        W54726  22.720  11.789  13.011
89467W        W54727  27.484  11.421  12.283
89468W        W54728  17.309  41.105  11.689
89469W        W54729  12.483  10.262   5.223
89470W        W54730   0.668  29.279   2.597
89471W        W54731   9.046  31.127  12.966
89472W        W54732  38.347  41.479   0.681
89473W        W54733  24.134  10.611   4.949
89474W        W54734  20.253  26.426   2.805
89475W        W54735  19.088  22.585   2.300
89476W        W54736  22.321  38.122   0.763
89477W        W54737  41.351  18.675   2.336
89478W        W54738  21.830  28.961   4.071
89479W        W54739  32.828   4.374   1.919
89480W        W54740  12.277  28.763   0.961
89481W        W54741  35.252  26.079  12.629
89482W        W54742  21.709  33.224   2.218
89483W        W54743   5.663   1.793   0.744
89484W        W54744  10.735  18.786   0.419
89485W        W54745  42.417  28.794   2.728
89486W        W54746  30.562  36.847   3.714
89487W        W54747   1.494  35.974  14.373
89488W        W54748  20.123  13.847  13.388
89489W        W54749  19.729  37.842  11.930
89490W        W54750  19.514   7.441   4.853
89491W        W54751  21.997   8.227   4.655
89492W        W54752  31.005  38.454  11.547
89493W        W54753   1.310  18.888  14.906
89494W        W54754   5.948  40.018  14.829
89495W        W54755  44.280  44.733  14.718
89496W        W54756  21.081  20.526  12.665
89497W        W54757  39.717  18.294  12.521
89498W        W54758  24.663  38.978   1.236
89499W        W54759  27.325   5.535  12.554
89500W        W54760  20.819  22.123   4.685
89501W        W54761  28.062   8.602   1.991
89502W        W54762   6.195  25.748   0.104
89503W        W54763  31.397   9.992  11.578
89504W        W54764  26.288  15.146   2.440
89505W        W54765  21.598  10.748   3.431
89506W        W54766  27.216   6.266   4.054
89507W        W54767  17.779  14.651  10.964
89508W        W54768  19.052  42.310   2.751
89509W        W54769  38.372  28.936  11.458
89510W        W54770  20.721  34.163   2.278
89511W        W54771   3.654   5.807   3.854
89512W        W54772   3.656  42.975   3.820
89513W        W54773  13.184  32.625  12.331
89514W        W54774  41.747   4.359   2.274
89515W        W54775  10.940   6.683   2.213
89516W        W54776   3.084  37.297  11.987
89517W        W54777  26.872  24.895   0.925
89518W        W54778  25.067  35.872   2.677
89519W        W54779  31.024   8.605   0.600
89520W        W54780  40.424  23.712  10.021
89521W        W54781  31.936  42.253   2.712
89522W        W54782   9.314   5.853   4.252
89523W        W54783  26.746  22.082  14.431
89524W        W54784  44.112  26.939   1.228
89525W        W54785  25.170  28.954  13.175
89526W        W54786   9.736  37.105   2.685
89527W        W54787  10.505  44.721  14.129
89528W        W54788  31.580  30.254  11.399
89529W        W54789   2.485   6.925   0.268
89530W        W54790   5.988  10.328   1.440
89531W        W54791  39.277  13.351  13.005
89532W        W54792  15.196   7.877  10.561
89533W        W54793  15.249  38.634   1.253
89534W        W54794   9.315  25.715   0.837
89535W        W54795   0.863   1.903   4.125
89536W        W54796   7.860  27.751  14.866
89537W        W54797  32.678  17.774  12.096
89538W        W54798  14.673  44.655  13.516
89539W        W54799  29.437   7.179  14.427
89540W        W54800  11.834  19.221  14.747
89541W        W54801  31.503  40.966  10.745
89542W        W54802  33.959  15.552  13.992
89543W        W54803  21.290   6.933  14.414
89544W        W54804   0.487  14.709   4.551
89545W        W54805  38.151  14.677   1.356
89546W        W54806   5.374  20.782   3.720
89547W        W54807  32.909  28.979   2.220
89548W        W54808   8.368  41.765   3.237
89549W        W54809  11.660  15.102   2.447
89550W        W54810  40.863   5.177   3.945
89551W        W54811   0.238  21.831  14.805
89552W        W54812  36.547  41.307  13.394
89553W        W54813   1.321  26.978   1.867
89554W        W54814  41.482  37.487   4.481
89555W        W54815   9.670  23.664   0.422
89556W        W54816  21.721  20.824   4.920
89557W        W54817   5.467  24.460  12.863
89558W        W54818  39.811  36.276   2.533
89559W        W54819  17.038  44.031   4.076
89560W        W54820  34.570   1.227  12.501
89561W        W54821   8.278  36.552  14.545
89562W        W54822  19.524  16.081   4.127
89563W        W54823  16.789  43.995  10.933
89564W        W54824  22.763  23.295  13.539
89565W        W54825  17.296  37.025   3.749
89566W        W54826   6.000   2.481   2.172
89567W        W54827  19.830  29.024   2.227
89568W        W54828   6.327  22.763   1.043
89569W        W54829  34.463   1.357   4.527
89570W        W54830  22.152  13.559  11.241
89571W        W54831  24.162  10.331   2.309
89572W        W54832  27.683  23.102   0.868
89573W        W54833  12.316  10.897  13.213
89574W        W54834   2.932  38.089  14.341
89575W        W54835  44.032  14.709  10.812
89576W        W54836   5.789  21.735   4.438
89577W        W54837  10.752   9.962   2.719
89578W        W54838  40.278  17.237  12.036
89579W        W54839  44.869  10.638   4.099
89580W        W54840  13.241  44.328  11.433
89581W        W54841   7.690  25.803  13.109
89582W        W54842  44.251  10.629  12.114
89583W        W54843  29.760  28.102   9.978
89584W        W54844  43.916  43.040   4.653
89585W        W54845  40.223   8.932   3.851
89586W        W54846  14.813  35.542  12.030
89587W        W54847  25.370  20.485   0.342
89588W        W54848  27.605  39.923   3.542
89589W        W54849  35.129  27.424  11.124
89590W        W54850  12.656  35.591   2.701
89591W        W54851  31.040  31.697   4.535
89592W        W54852  39.990   2.692   2.727
89593W        W54853  32.030  29.447  13.815
89594W        W54854  18.907  10.226  11.576
89595W        W54855  40.824  34.724   1.239
89596W        W54856  16.069  25.027  11.185
89597W        W54857   3.503  22.745  10.707
89598W        W54858  36.352   8.912   0.742
89599W        W54859  34.919  35.526  14.137
89600W        W54860   7.258  25.597   4.087
89601W        W54861  33.487  23.685   2.756
89602W        W54862  28.054  12.774   1.849
89603W        W54863   1.910   6.387  14.919
89604W        W54864  37.005  13.896   1.298
89605W        W54865  22.642  43.880   2.161
89606W        W54866   6.847  24.976  12.123
89607W        W54867  39.186  11.353  10.265
89608W        W54868   1.944  33.644  13.140
89609W        W54869  18.133  40.451  14.468
89610W        W54870  26.041  38.784   3.846
89611W        W54871   6.442  30.431  12.851
89612W        W54872   1.045  11.291   2.553
89613W        W54873  36.020  28.048   4.672
89614W        W54874  13.431  30.267  13.856
89615W        W54875  37.586  25.707  13.101
89616W        W54876  16.325  35.616   3.314
89617W        W54877  15.395   3.977  14.687
89618W        W54878  17.838   7.784   1.874
89619W        W54879  43.203  19.281  12.321
89620W        W54880  11.661   0.377   1.912
89621W        W54881  12.384  14.277  13.441
89622W        W54882  17.302   0.831   4.369
89623W        W54883  24.506  42.945   3.740
89624W        W54884  19.830   8.646   1.298
89625W        W54885  15.597  30.874   1.411
89626W        W54886  18.144  16.531  11.197
89627W        W54887  21.370  22.030   2.744
89628W        W54888  41.864   9.226   1.893
89629W        W54889  33.953  10.460  12.931
89630W        W54890  37.081   0.488  11.759
89631W        W54891   8.620  27.075  14.996
89632W        W54892  26.740  44.343  12.909
89633W        W54893  33.394  11.592  11.637
89634W        W54894  43.248  40.434  14.801
89635W        W54895   1.244   2.761   1.643
89636W        W54896  14.759  22.685   5.021
89637W        W54897  32.535  30.254  14.783
89638W        W54898   9.225  16.259   2.405
89639W        W54899  26.558  26.685  11.025
89640W        W54900  35.820  11.203  13.401
89641W        W54901  18.529  23.687   0.450
89642W        W54902   4.243  21.656   1.846
89643W        W54903  23.738   2.608   1.368
89644W        W54904   5.668   4.864  12.519
89645W        W54905   7.651  39.876  14.348
89646W        W54906  31.327  22.498   4.475
89647W        W54907  37.814  40.070   0.741
89648W        W54908  34.585  12.231  13.313
89649W        W54909   3.444  18.315  13.467
89650W        W54910  30.384  16.834   1.222
89651W        W54911  41.918  31.391  13.735
89652W        W54912  17.324  36.465  11.507
89653W        W54913  22.114  23.538   3.362
89654W        W54914   5.741  40.253   0.311
89655W        W54915  44.471  34.028  10.384
89656W        W54916   4.880   8.746   0.774
89657W        W54917  21.160  39.360   4.229
89658W        W54918  44.291  12.893  10.745
89659W        W54919  41.347  23.263   0.375
89660W        W54920   1.728  16.118  13.985
89661W        W54921  26.740  34.819   0.740
89662W        W54922   6.289  28.838   5.066
89663W        W54923  38.921  10.430  12.527
89664W        W54924  41.692  28.159  14.012
89665W        W54925  30.830  37.602   3.742
89666W        W54926  31.468   5.923  12.040
89667W        W54927   7.903   7.269   2.750
89668W        W54928  31.617  18.686  11.067
89669W        W54929  25.783  30.096   2.629
89670W        W54930  44.930  32.156   3.222
89671W        W54931  25.340  18.144  11.335
89672W        W54932  43.882  35.335  13.021
89673W        W54933   6.463  11.377   0.885
89674W        W54934  28.708  40.727   4.277
89675W        W54935  19.180  27.987  11.505
89676W        W54936   7.793  33.544   2.795
89677W        W54937  36.370   2.984  12.440
89678W        W54938  14.156  19.208  11.500
89679W        W54939   9.185  44.127  12.504
89680W        W54940  15.539  20.677  13.618
89681W        W54941  31.119  17.057   0.970
89682W        W54942   0.842  42.882  13.461
89683W        W54943  39.906  21.499  12.106
89684W        W54944  39.859   6.747  14.505
89685W        W54945  12.665  36.346   2.162
89686W        W54946  10.189   1.880  10.669
89687W        W54947   4.866  22.056   3.550
89688W        W54948  22.180  38.054   3.261
89689W        W54949  18.052  31.898  12.088
89690W        W54950  28.465   6.572  11.650
89691W        W54951  11.438  23.652   0.818
89692W        W54952  33.149  22.660  12.000
89693W        W54953   9.256  15.737  12.989
89694W        W54954  36.528  29.149  14.887
89695W        W54955  23.779  31.422  12.670
89696W        W54956  32.138  31.057  12.966
89697W        W54957  18.176  13.841   1.346
89698W        W54958  27.404  43.019   0.942
89699W        W54959  20.168  12.564  12.828
89700W        W54960   0.326  40.398  11.624
89701W        W54961  19.473  13.174  12.886
89702W        W54962  14.518  40.278   1.220
89703W        W54963   2.063  13.306   1.123
89704W        W54964  11.192  44.529  14.753
89705W        W54965  29.562  17.418   2.457
89706W        W54966  26.896  35.549  11.454
89707W        W54967  43.220  35.763  11.149
89708W        W54968  32.146  31.275  14.715
89709W        W54969  33.534  28.337   4.368
89710W        W54970   8.910  32.033   2.767
89711W        W54971   3.198  38.727  10.724
89712W        W54972  13.520  21.039  13.174
89713W        W54973   7.818  16.328  12.828
89714W        W54974  37.859  28.538  14.674
89715W        W54975  13.758  33.678  14.379
89716W        W54976   3.505  38.184  14.851
89717W        W54977  31.542   3.855  11.986
89718W        W54978   4.433   8.013  12.132
89719W        W54979  14.229   0.942   2.160
89720W        W54980  40.965   4.779   2.216
89721W        W54981  14.454   6.198   2.410
89722W        W54982  28.173  16.165  12.982
89723W        W54983  10.374  20.012  11.484
89724W        W54984  40.028   6.748   1.282
89725W        W54985  44.465  14.877  10.550
89726W        W54986  27.482  29.143   1.292
89727W        W54987   7.468   9.228   4.459
89728W        W54988  22.927  40.472   4.175
89729W        W54989  31.806  14.828  12.564
89730W        W54990  44.513  23.347  10.147
89731W        W54991   2.820   6.009   4.580
89732W        W54992  32.924   4.336   0.025
89733W        W54993  20.139  12.805   4.290
89734W        W54994  29.449  38.477  12.590
89735W        W54995  35.933  28.642  13.011
89736W        W54996   8.297  33.000   0.497
89737W        W54997  16.819  37.313   1.316
89738W        W54998  32.037  28.194  12.768
89739W        W54999  44.072  21.377   5.102
89740W        W55000  18.780  10.695  11.468
89741W        W55001  36.834  44.766  11.537
89742W        W55002   8.339  25.146   0.240
89743W        W55003  11.110  26.026   1.228
89744W        W55004   1.814  30.933   2.731
89745W        W55005  42.026  13.778   2.183
89746W        W55006  14.723  30.162  10.652
89747W        W55007  21.718  33.435  11.644
89748W        W55008  16.105  19.032   0.169
89749W        W55009  19.026   0.701   2.221
89750W        W55010   8.501  18.049   1.021
89751W        W55011  27.471  24.018  11.204
89752W        W55012  42.393  38.337  12.866
89753W        W55013  12.145  11.540   0.794
89754W        W55014  35.458  41.868   2.818
89755W        W55015  27.945   4.542   1.617
89756W        W55016   5.250  16.042  13.928
89757W        W55017  32.183  23.244   3.650
89758W        W55018  15.648  33.222  14.874
89759W        W55019   7.103  42.953   2.407
89760W        W55020  16.453  42.400  10.694
89761W        W55021  44.036  33.095  14.926
89762W        W55022  43.563  14.088  12.870
89763W        W55023  21.061  26.657  12.043
89764W        W55024   4.180  44.806   2.816
89765W        W55025  15.213  22.532   3.680
89766W        W55026  31.596  40.960   3.758
89767W        W55027   0.415  27.093  11.602
89768W        W55028  20.734  20.781   1.278
89769W        W55029  40.927  18.763   4.452
89770W        W55030  25.999   3.853   0.711
89771W        W55031  24.507  18.072  12.580
89772W        W55032  15.472  15.239   3.709
89773W        W55033  11.272  30.654  11.650
89774W        W55034  25.551  33.137  10.379
89775W        W55035   2.672  36.945  11.076
89776W        W55036  18.148  12.850   2.810
89777W        W55037   6.282  14.744   1.822
89778W        W55038  21.521  16.583   4.905
89779W        W55039  44.242  23.681  14.374
89780W        W55040   7.705  39.493   2.450
89781W        W55041  32.950   9.520  12.030
89782W        W55042  35.184  15.094   1.929
89783W        W55043   9.344  19.775   2.986
89784W        W55044  10.347  23.246   4.603
89785W        W55045  42.594  18.390   5.078
89786W        W55046  40.978  21.449   0.325
89787W        W55047   0.883   8.796   0.338
89788W        W55048  37.832   6.836   0.785
89789W        W55049  40.283  44.419  11.579
89790W        W55050  17.998  37.841  13.634
89791W        W55051  11.280  39.288  14.318
89792W        W55052   2.652  33.432   2.418
89793W        W55053  41.382  14.430   0.319
89794W        W55054  44.262  44.623  10.773
89795W        W55055  17.271  19.660  14.697
89796W        W55056   4.162  26.471   3.092
89797W        W55057   2.233  18.618   3.287
89798W        W55058  26.496  10.334  12.237
89799W        W55059  38.503  41.742  14.527
89800W        W55060  32.476  10.327  14.055
89801W        W55061   6.174  21.027  12.941
89802W        W55062   1.746  39.688  12.372
89803W        W55063  37.847  17.560   1.190
89804W        W55064  34.073  28.569  14.927
89805W        W55065  32.595  28.157   4.050
89806W        W55066  23.044  30.673  13.443
89807W        W55067   7.651  37.834  13.868
89808W        W55068  40.779  22.698   2.907
89809W        W55069  15.268   7.951  13.999
89810W        W55070  27.235  38.518   4.104
89811W        W55071   0.341   8.732   2.360
89812W        W55072  38.540  31.194  14.419
89813W        W55073  14.728  31.509   3.793
89814W        W55074  23.034  19.300   1.732
89815W        W55075  44.959  31.481  11.441
89816W        W55076  44.075  14.701   4.597
89817W        W55077  43.000  44.721  14.941
89818W        W55078   5.308   5.282  14.058
89819W        W55079   1.823  29.132   0.346
89820W        W55080  14.710  21.756   5.107
89821W        W55081  20.970  36.909   3.253
89822W        W55082  25.788  25.184   0.990
89823W        W55083  42.457  31.654   4.207
89824W        W55084  12.864  10.815   0.847
89825W        W55085   5.346  14.380  13.738
89826W        W55086  41.722  28.955   3.741
89827W        W55087  18.833  25.553   4.890
89828W        W55088   4.814  27.124   3.326
89829W        W55089  44.381  36.008   1.340
89830W        W55090  43.843  22.966   1.410
89831W        W55091   5.010  43.672  13.465
89832W        W55092  34.329  17.239  12.613
89833W        W55093  16.321  43.068  13.873
89834W        W55094  15.261  25.076  14.478
89835W        W55095  24.013  43.518  12.028
89836W        W55096  43.749  14.262   2.174
89837W        W55097  32.674  22.061  12.417
89838W        W55098  32.767   5.698   3.086
89839W        W55099  28.793  12.925   3.730
89840W        W55100  28.961  43.457   3.578
89841W        W55101  23.076  12.631   2.631
89842W        W55102  19.086  28.950  11.418
89843W        W55103  40.625  27.173   2.156
89844W        W55104  34.026  43.446  13.505
89845W        W55105  20.684  12.601   1.344
89846W        W55106  38.937  21.630   1.877
89847W        W55107  29.609   3.335  10.094
89848W        W55108  42.303  16.898   1.179
89849W        W55109  30.026  15.311   2.936
89850W        W55110  39.613   8.408  11.069
89851W        W55111  31.537  31.037  13.056
89852W        W55112  15.501  31.356   1.633
89853W        W55113  25.019  39.583   9.372
89854W        W55114   4.788   6.224   0.024
89855W        W55115  12.920  20.083   0.936
89856W        W55116  34.513  18.548   4.568
89857W        W55117  35.969  19.014  12.057
89858W        W55118  34.654  27.654  14.873
89859W        W55119  41.804  11.293   4.542
89860W        W55120  41.397  21.741   2.219
89861W        W55121  11.093  35.380   2.113
89862W        W55122  44.526  28.115  10.843
89863W        W55123  26.989  13.409  14.627
89864W        W55124   5.279  12.359  11.128
89865W        W55125  28.652  15.439   3.066
89866W        W55126  21.139   8.786   4.616
89867W        W55127  39.930   4.673  10.696
89868W        W55128  41.026  13.223   3.650
89869W        W55129  41.323   2.316   2.645
89870W        W55130  12.119   6.999   1.318
89871W        W55131  26.516  42.986  14.479
89872W        W55132  27.528  26.694   4.604
89873W        W55133  24.738  15.479  13.879
89874W        W55134  37.835  12.835  12.780
89875W        W55135  32.672  20.845   0.433
89876W        W55136  25.402  25.706  11.870
89877W        W55137   4.798  34.525  11.866
89878W        W55138   1.733   8.786   4.174
89879W        W55139   5.259   9.929  13.334
89880W        W55140  30.205  19.031  11.116
89881W        W55141  31.169   6.230  11.764
89882W        W55142  14.254  28.373  13.810
89883W        W55143  42.295  34.040  14.761
89884W        W55144  34.082   5.784   1.298
89885W        W55145  27.637  25.759  14.187
89886W        W55146  34.440   9.884   0.843
89887W        W55147   4.186  41.955  14.403
89888W        W55148  36.952  23.108  13.961
89889W        W55149  26.971  34.078   3.216
89890W        W55150  28.863  28.937   4.921
89891W        W55151  23.492  12.885   0.217
89892W        W55152   4.349  32.752   0.530
89893W        W55153   3.368  20.092   0.424
89894W        W55154   4.335  14.731   4.179
89895W        W55155  16.106   6.294  10.557
89896W        W55156  28.280   6.813   2.393
89897W        W55157   8.777   4.659  12.899
89898W        W55158  40.469  37.391  12.447
89899W        W55159  16.731   7.200  13.561
89900W        W55160  30.560  43.731  11.858
89901W        W55161  41.500  14.779   3.883
89902W        W55162  25.622   0.881  13.964
89903W        W55163  24.652  23.521  14.073
89904W        W55164  15.126   0.460  13.066
89905W        W55165  27.456  12.445  12.441
89906W        W55166  16.678  36.603  14.544
89907W        W55167   6.669  38.582  12.512
89908W        W55168  10.245  21.025   2.914
89909W        W55169  10.783  28.053   0.843
89910W        W55170   0.818   9.382   1.044
89911W        W55171  42.513  42.289  14.361
89912W        W55172  35.365  32.888  11.610
89913W        W55173  28.124  44.718   0.338
89914W        W55174   1.801   2.198   4.085
89915W        W55175   7.198  40.098   2.135
89916W        W55176  22.689  43.371  11.708
89917W        W55177  27.374  25.475   4.134
89918W        W55178  32.460  27.891   1.747
89919W        W55179   7.382  20.748  12.781
89920W        W55180  33.835  14.303  11.183
89921W        W55181  38.905   7.269  13.455
89922W        W55182  30.347   4.306  14.954
89923W        W55183  35.433  40.439  12.816
89924W        W55184   6.069  28.110  12.871
89925W        W55185  33.629  19.059   3.077
89926W        W55186  10.095   0.117  12.020
89927W        W55187  23.072   1.172  14.939
89928W        W55188  17.711  28.398  10.609
89929W        W55189  18.133  14.873  11.597
89930W        W55190   9.650  12.810  14.352
89931W        W55191   1.638  36.723   0.714
89932W        W55192   8.715  40.943  11.458
89933W        W55193  44.485  43.687  13.052
89934W        W55194  11.112  18.587   4.036
89935W        W55195   3.368  10.886   3.643
89936W        W55196   8.494  11.798   2.486
89937W        W55197  42.910  42.775  14.054
89938W        W55198  25.375  36.169  13.495
89939W        W55199  23.693  21.245   1.732
89940W        W55200  32.232   9.918  14.255
89941W        W55201  39.618   5.171  12.159
89942W        W55202  13.260  34.621  13.068
89943W        W55203  36.877  39.702   0.801
89944W        W55204  11.430  27.757   2.242
89945W        W55205   8.144  30.251  13.329
89946W        W55206  36.278  28.247  14.891
89947W        W55207  25.492  18.312   2.266
89948W        W55208  29.464  30.131   3.354
89949W        W55209  13.198  11.649   3.206
89950W        W55210  40.252  25.477   0.887
89951W        W55211  11.929  21.528   1.240
89952W        W55212  33.923  35.528  13.419
89953W        W55213  34.539  34.528  10.524
89954W        W55214  39.952  30.801   0.948
89955W        W55215  30.205  21.668  14.031
89956W        W55216   7.942  11.552   0.784
89957W        W55217  34.436  29.648   2.047
89958W        W55218  36.967   2.231  12.637
89959W        W55219  28.089  21.400   1.604
89960W        W55220  30.192  32.128   3.376
89961W        W55221  21.549  37.052  13.469
89962W        W55222  28.156  17.975  11.891
89963W        W55223  27.729   5.568  13.638
89964W        W55224   9.181   3.809   2.383
89965W        W55225  28.525  17.351  13.605
89966W        W55226  33.336  26.460   2.721
89967W        W55227  29.183  27.642   3.571
89968W        W55228   7.493   0.817   0.812
89969W        W55229  30.994  17.631   3.277
89970W        W55230  44.976  13.347   2.227
89971W        W55231  29.982  15.346   4.784
89972W        W55232   1.471  44.027  12.716
89973W        W55233  22.243   7.427   2.632
89974W        W55234  13.567  28.984  12.395
89975W        W55235  40.967  14.823   4.631
89976W        W55236   2.762   0.230   3.218
89977W        W55237   1.967  40.245  13.022
89978W        W55238  37.034  35.414   4.618
89979W        W55239  15.429  42.471  10.703
89980W        W55240  34.365  36.568   3.914
89981W        W55241  10.388  40.367   2.274
89982W        W55242  40.044  13.124   1.939
89983W        W55243  17.471   1.252  12.366
89984W        W55244  15.121   3.466  12.703
89985W        W55245  35.348  37.821  11.982
89986W        W55246  26.568  12.133   1.744
89987W        W55247  16.011   5.800  14.207
89988W        W55248  30.456  38.854   4.440
89989W        W55249  17.299  25.568   2.158
89990W        W55250  34.356   0.604   3.074
89991W        W55251  26.372  37.817  11.049
89992W        W55252   2.238  43.276  11.178
89993W        W55253  16.707  41.335   4.844
89994W        W55254   0.966  27.263   2.660
89995W        W55255  19.708  19.597  12.018
89996W        W55256  37.923  12.454  12.087
89997W        W55257  29.088   0.434  10.416
89998W        W55258  43.892   9.367  11.702
89999W        W55259  44.486  38.320   4.149
90000W        W55260  43.899   5.718  10.423
90001W        W55261   8.080  15.784   1.564
90002W        W55262   6.741  44.341   4.215
90003W        W55263   3.430  19.065   2.497
90004W        W55264  21.155  39.311  14.409
90005W        W55265  12.871  29.272   4.119
90006W        W55266  29.147   4.406  10.897
90007W        W55267  39.921  42.033   4.145
90008W        W55268   7.758  15.301   3.780
90009W        W55269  25.475  33.666  14.392
90010W        W55270  41.505  23.739   2.687
90011W        W55271  34.619  11.367  11.181
90012W        W55272  26.124   0.691  14.053
90013W        W55273  10.275  12.400  11.734
90014W        W55274  13.032  20.156  11.716
90015W        W55275  35.979   4.983  12.951
90016W        W55276  24.581   1.451  12.940
90017W        W55277  26.443   8.091  12.041
90018W        W55278  18.005  42.302   3.233
90019W        W55279  31.304   8.633   1.856
90020W        W55280  19.902  27.704  14.381
90021W        W55281  40.376   9.354   2.386
90022W        W55282   7.390   9.017   3.496
90023W        W55283  27.276  27.530   3.654
90024W        W55284  41.373  28.516  11.956
90025W        W55285  19.798  21.681  14.318
90026W        W55286  21.643  10.431  10.980
90027W        W55287  34.282  22.467   2.066
90028W        W55288  37.802  14.900   4.891
90029W        W55289  26.622   4.970   2.587
90030W        W55290   4.961  32.748  12.352
90031W        W55291   9.885  33.410   4.547
90032W        W55292   5.396  24.732  14.729
90033W        W55293  30.636  21.103   3.200
90034W        W55294  18.690  43.845  11.191
90035W        W55295  19.184  21.627   2.313
90036W        W55296  29.292  18.651   0.341
90037W        W55297  27.818  13.369   5.253
90038W        W55298   7.596  29.872  14.267
90039W        W55299  26.570  39.774  13.015
90040W        W55300  44.240  29.464  14.721
90041W        W55301  15.589   5.752   2.850
90042W        W55302   7.484  28.529   0.959
90043W        W55303  40.505  44.555   3.558
90044W        W55304   6.828  41.378   2.410
90045W        W55305   7.226  40.547  13.922
90046W        W55306  43.033   2.440   2.826
90047W        W55307  28.088   5.272   1.477
90048W        W55308  18.182  30.939   1.407
90049W        W55309  17.100  25.919  13.458
90050W        W55310  30.220  22.746   3.803
90051W        W55311  19.285   7.388  10.772
90052W        W55312  40.198   0.039   2.612
90053W        W55313  20.355  21.700  11.083
90054W        W55314  26.124  37.604   3.066
90055W        W55315  28.482  25.909   0.793
90056W        W55316  13.979  29.674   3.787
90057W        W55317  34.934  26.275  14.015
90058W        W55318  32.581  38.473   3.801
90059W        W55319  43.947   5.212   0.522
90060W        W55320  44.913  18.353   0.959
90061W        W55321  23.278  34.940   4.006
90062W        W55322  28.274  18.867  12.001
90063W        W55323  15.880   8.910  13.364
90064W        W55324  32.900  35.508  13.271
90065W        W55325  12.536  36.956   0.252
90066W        W55326  32.198  24.300   2.438
90067W        W55327   3.050  42.846   1.701
90068W        W55328  27.969   5.693  11.188
90069W        W55329  19.095  35.001  14.425
90070W        W55330  19.762   1.745   4.216
90071W        W55331   7.364  40.075   1.248
90072W        W55332  17.203   2.458   4.698
90073W        W55333  35.310   6.929  14.854
90074W        W55334  12.686  29.819  14.192
90075W        W55335  10.577   6.130   1.234
90076W        W55336  43.022  34.874   0.744
90077W        W55337  33.527  40.368  11.133
90078W        W55338   2.322  10.451   1.748
90079W        W55339  19.296  33.707  11.196
90080W        W55340  43.463  10.421  10.680
90081W        W55341  43.579  30.027  14.583
90082W        W55342  18.817  44.317   0.906
90083W        W55343   3.400  17.033   2.879
90084W        W55344  42.264  43.942   0.809
90085W        W55345  24.902  13.144  11.516
90086W        W55346  40.373  35.560  14.842
90087W        W55347  16.581  30.003  11.415
90088W        W55348  22.723   7.867   0.004
90089W        W55349   3.183  29.175  13.949
90090W        W55350  19.808  23.979   0.931
90091W        W55351  13.718  43.475   3.399
90092W        W55352   0.366   4.504   1.329
90093W        W55353  13.309  26.478  13.873
90094W        W55354   5.438  41.395   3.726
90095W        W55355  35.484   0.584  12.210
90096W        W55356   3.678  18.277   4.285
90097W        W55357  33.256  29.613   2.521
90098W        W55358  32.601  31.944   2.331
90099W        W55359  10.890   3.877  11.412
90100W        W55360  35.373  28.403   4.361
90101W        W55361   2.268  24.226   5.220
90102W        W55362  31.933  30.366  13.551
90103W        W55363  17.938  29.580  13.962
90104W        W55364   0.191  38.775  11.078
90105W        W55365   8.061   1.709  10.594
90106W        W55366  38.853  36.274   2.582
90107W        W55367  39.066  24.992   3.305
90108W        W55368  10.760  13.339  14.762
90109W        W55369   0.178   1.894  13.907
90110W        W55370  34.432  17.834   3.891
90111W        W55371   6.926  23.755  12.426
90112W        W55372   4.767  35.390   0.552
90113W        W55373  31.883  27.031   2.828
90114W        W55374  37.004  27.025   0.847
90115W        W55375   6.288   6.170   5.067
90116W        W55376  39.509  15.749  13.902
90117W        W55377  36.047  31.668  13.501
90118W        W55378  20.640  43.471   3.727
90119W        W55379   1.996  36.582   1.089
90120W        W55380  27.908  17.567   0.846
90121W        W55381  28.993   3.753  12.276
90122W        W55382  42.894   1.999  11.193
90123W        W55383  16.810  41.846   4.254
90124W        W55384   0.619  40.340   0.362
90125W        W55385  27.955  16.223  13.814
90126W        W55386   8.124  10.173  10.660
90127W        W55387  43.889  26.871  12.618
90128W        W55388  20.774  16.297   4.520
90129W        W55389  20.226   2.554   4.347
90130W        W55390   1.234   6.229   1.252
90131W        W55391  11.925  41.865  12.414
90132W        W55392  27.153  25.601  11.216
90133W        W55393  39.974  20.730   4.566
90134W        W55394  32.483  39.044   0.441
90135W        W55395   0.374  38.909  14.739
90136W        W55396  26.499  26.197  10.832
90137W        W55397   9.974  29.906  10.863
90138W        W55398   5.809  44.849  12.960
90139W        W55399  12.126   1.504  14.402
90140W        W55400  28.097  32.852   2.513
90141W        W55401  31.087  34.663   3.231
90142W        W55402  30.588  41.910  13.774
90143W        W55403  37.866  35.890  13.293
90144W        W55404  22.530  35.283   0.775
90145W        W55405  37.761  33.666  13.224
90146W        W55406  31.780  44.387   0.518
90147W        W55407   7.458  23.127   0.411
90148W        W55408  12.981  12.763  14.081
90149W        W55409  11.340  32.082  10.596
90150W        W55410  42.379   0.560   0.754
90151W        W55411  25.675  25.078  11.428
90152W        W55412  11.389  31.571  13.417
90153W        W55413  23.130   3.874  12.457
90154W        W55414   5.014  25.243  12.525
90155W        W55415  31.543   2.259   1.951
90156W        W55416  27.363  37.594   3.682
90157W        W55417  22.232  11.259  11.905
90158W        W55418  35.332  23.058   1.117
90159W        W55419  10.323  20.275   1.272
90160W        W55420  20.722  44.935  12.512
90161W        W55421  35.460  40.488   3.593
90162W        W55422  21.948  43.937   4.623
90163W        W55423  22.306  31.153   4.253
90164W        W55424  17.645  30.285  10.330
90165W        W55425  18.691  44.664  11.135
90166W        W55426  37.412  43.366   0.100
90167W        W55427  16.589  24.453  14.390
90168W        W55428  38.949  14.016   0.527
90169W        W55429  29.992  23.714   2.291
90170W        W55430  30.411  15.622   4.973
90171W        W55431  28.270  32.588  11.735
90172W        W55432   7.214  25.623  11.564
90173W        W55433   1.669   2.788   1.298
90174W        W55434   9.328  18.714  11.299
90175W        W55435  35.984  42.002   1.835
90176W        W55436  43.138   9.737  12.482
90177W        W55437  34.339  16.265  14.279
90178W        W55438  26.495  24.704  11.748
90179W        W55439  14.349  42.657   1.535
90180W        W55440  41.928  39.046  12.024
90181W        W55441  29.176  29.131  11.661
90182W        W55442  40.710  29.924  12.063
90183W        W55443  38.983  10.868   1.707
90184W        W55444  13.899   7.022   5.145
90185W        W55445  34.880  17.321  13.258
90186W        W55446   7.849  33.525   9.665
90187W        W55447  10.469  32.319  10.265
90188W        W55448  17.254  26.552  14.479
90189W        W55449   1.858  20.818  14.794
90190W        W55450  41.162  15.201   5.153
90191W        W55451   3.971  15.693   2.603
90192W        W55452  36.878  40.933   1.602
90193W        W55453  32.739  24.208  14.004
90194W        W55454  16.260  31.087   3.801
90195W        W55455  41.261  33.906  13.471
90196W        W55456   0.658   3.429  10.291
90197W        W55457  35.314  36.938  13.496
90198W        W55458  31.837  16.214  13.480
90199W        W55459  44.835  30.668   3.216
90200W        W55460  14.983   1.369  11.595
90201W        W55461  35.095  27.215   1.045
90202W        W55462  37.060  36.612  13.492
90203W        W55463  31.582  43.078  14.446
90204W        W55464  12.710  19.353   4.636
90205W        W55465  25.044  25.627   0.836
90206W        W55466  40.836  29.046  14.949
90207W        W55467  38.976  37.241  11.909
90208W        W55468   0.030  39.570  12.447
90209W        W55469  24.207  43.386   2.583
90210W        W55470  10.375  15.795  13.451
90211W        W55471  36.853   5.510   1.819
90212W        W55472  27.644  15.961   4.932
90213W        W55473  14.766  17.337  14.191
90214W        W55474  43.610  28.963   4.169
90215W        W55475  43.962   9.270   3.879
90216W        W55476  18.626  16.652   0.309
90217W        W55477  43.587  30.689  10.484
90218W        W55478   0.226  43.748   2.133
90219W        W55479  33.842  31.665  14.513
90220W        W55480  40.869   1.439  12.109
90221W        W55481  15.180   6.438  10.835
90222W        W55482  35.026  42.793  11.204
90223W        W55483  29.282  24.966   0.305
90224W        W55484  38.056  31.477  12.969
90225W        W55485   3.213  19.123  13.894
90226W        W55486  37.893  29.791   4.186
90227W        W55487   0.318  43.397   4.382
90228W        W55488  16.839  21.575  12.435
90229W        W55489   7.760  34.317  12.831
90230W        W55490  21.152  15.370  10.471
90231W        W55491  37.292  14.916   4.946
90232W        W55492  15.542  16.138  11.939
90233W        W55493  13.126  28.116  11.182
90234W        W55494  23.620  35.646  14.039
90235W        W55495  20.241   0.341  10.762
90236W        W55496  36.585  43.392   4.963
90237W        W55497  18.520  13.842  11.690
90238W        W55498   3.088  26.958  14.516
90239W        W55499  42.189   6.891  13.466
90240W        W55500   9.235  28.516   0.230
90241W        W55501  13.026  12.826   0.190
90242W        W55502  33.945  42.350   4.785
90243W        W55503  43.867  33.828  11.105
90244W        W55504  30.678  18.115   4.290
90245W        W55505  32.636  17.380  12.786
90246W        W55506  18.242   7.353  14.252
90247W        W55507   6.612   8.655  12.146
90248W        W55508  20.652   5.792  10.176
90249W        W55509  43.012  14.238  14.449
90250W        W55510  10.784  11.796  14.746
90251W        W55511  42.238  20.604  13.516
90252W        W55512  39.594  18.851  11.242
90253W        W55513   2.152  32.435   1.115
90254W        W55514  15.585  23.172  11.162
90255W        W55515  40.548  36.062   4.085
90256W        W55516  18.246   8.208   0.242
90257W        W55517  17.193  36.930   4.253
90258W        W55518  42.923  42.527   1.540
90259W        W55519  31.953  12.118   1.203
90260W        W55520  37.457  22.662  10.813
90261W        W55521  34.509  36.089  12.129
90262W        W55522  14.333  42.701  14.753
90263W        W55523   3.693   7.923   2.197
90264W        W55524  12.135  37.277   3.768
90265W        W55525  43.012   6.415   0.341
90266W        W55526   4.023  18.037  11.725
90267W        W55527  10.261  25.112   0.474
90268W        W55528   6.223  11.266   3.177
90269W        W55529  33.002   5.422   4.561
90270W        W55530   0.742  42.168  12.433
90271W        W55531  19.215   2.271   2.736
90272W        W55532   7.558  34.272   2.335
90273W        W55533   1.750  39.740  13.835
90274W        W55534  33.923  39.464   0.763
90275W        W55535   8.206  36.085  14.812
90276W        W55536  34.540   4.607   1.172
90277W        W55537  13.170  18.024   4.226
90278W        W55538  26.713   9.855   4.417
90279W        W55539  24.958  13.540  12.945
90280W        W55540   5.750  38.675  13.325
90281W        W55541  12.788   6.436  14.042
90282W        W55542  23.553  36.850  11.536
90283W        W55543   7.337   6.381   2.747
90284W        W55544  42.249  28.459  13.178
90285W        W55545  34.987  39.825  12.569
90286W        W55546  34.043  38.334  12.300
90287W        W55547  16.776  39.936  14.317
90288W        W55548  23.235  32.204   2.244
90289W        W55549   3.444  19.764  10.713
90290W        W55550  12.609   7.023   3.119
90291W        W55551  44.343  25.414  12.034
90292W        W55552  15.562  30.481   0.757
90293W        W55553   0.843  34.300  13.562
90294W        W55554  37.560  41.114  13.964
90295W        W55555  34.625  15.676  14.482
90296W        W55556   5.170   9.256   4.112
90297W        W55557   0.027  21.382  12.438
90298W        W55558   0.205   2.700   4.092
90299W        W55559  38.467  28.057   3.761
90300W        W55560  39.885  37.602   1.476
90301W        W55561  41.939  24.998   0.523
90302W        W55562  13.753  22.463  10.500
90303W        W55563  20.467  11.593  14.668
90304W        W55564  18.754  23.628  13.085
90305W        W55565  33.125  26.265  11.255
90306W        W55566   7.153  34.857   4.070
90307W        W55567  19.096  29.836   0.021
90308W        W55568   6.662   3.079   1.851
90309W        W55569   8.941  10.646   3.127
90310W        W55570  28.938  26.201   2.825
90311W        W55571  12.797  15.551   5.068
90312W        W55572  43.016  15.504   2.429
90313W        W55573   2.294  18.207  10.704
90314W        W55574  39.642   7.099  13.022
90315W        W55575   5.323  30.841  11.794
90316W        W55576  32.923  35.618  14.271
90317W        W55577  24.597   0.918   4.421
90318W        W55578  10.082   8.255   0.167
90319W        W55579  23.114  27.469  13.641
90320W        W55580  28.618  39.005  12.351
90321W        W55581  21.343   1.174   1.218
90322W        W55582   7.686   6.686  13.841
90323W        W55583  16.992  20.743   1.285
90324W        W55584  37.119   6.357  13.433
90325W        W55585  26.525  28.499  11.898
90326W        W55586   5.362  19.212  12.583
90327W        W55587  24.578  41.060   0.978
90328W        W55588  23.574  37.141   5.155
90329W        W55589  20.112   0.200   0.373
90330W        W55590  28.528  18.842   5.040
90331W        W55591   9.275  13.254  10.820
90332W        W55592  18.042  37.777   1.305
90333W        W55593  37.836  24.006  13.491
90334W        W55594   6.633  24.794  11.684
90335W        W55595  32.147  36.798   2.871
90336W        W55596  12.254  28.489  11.185
90337W        W55597  19.832  24.224   4.187
90338W        W55598  14.740   6.848  14.205
90339W        W55599  15.649  40.603  13.398
90340W        W55600  39.807   8.702  10.047
90341W        W55601  31.167  21.851   0.785
90342W        W55602  32.026   3.236   3.325
90343W        W55603  30.097   3.888   1.343
90344W        W55604  44.471  39.976   3.413
90345W        W55605  21.871  11.682  11.681
90346W        W55606  10.795  33.125   2.837
90347W        W55607   6.574  22.999  12.909
90348W        W55608   9.763  27.705  12.457
90349W        W55609  22.486  29.436  11.236
90350W        W55610  10.860  15.999   0.859
90351W        W55611   3.499  25.371  13.427
90352W        W55612  44.518  15.513   0.810
90353W        W55613  25.102  27.487   2.805
90354W        W55614  15.662  41.575  14.919
90355W        W55615   9.387  36.446   4.285
90356W        W55616  19.577  21.716  13.865
90357W        W55617  29.659   7.653   2.405
90358W        W55618  29.912  21.183   1.914
90359W        W55619  25.197  43.056  12.038
90360W        W55620  25.925   5.277  13.602
90361W        W55621  24.544  14.120  14.642
90362W        W55622  30.973  11.398   4.524
90363W        W55623  31.153   6.457  13.251
90364W        W55624  34.882  21.103   0.191
90365W        W55625  27.367  29.002   0.322
90366W        W55626  21.470  25.666  11.180
90367W        W55627   0.186  29.676  14.476
90368W        W55628  26.337  13.889   0.714
90369W        W55629  23.763   6.015   3.198
90370W        W55630   3.928  37.455  12.545
90371W        W55631  34.533  21.104  13.434
90372W        W55632  40.820  10.072   0.007
90373W        W55633  39.794  38.413   3.806
90374W        W55634  34.834  44.988   3.560
90375W        W55635  18.187  30.440   0.607
90376W        W55636  18.663   8.921  13.376
90377W        W55637  20.303  27.102  12.542
90378W        W55638  12.254  28.516   2.835
90379W        W55639  36.586  10.380   4.559
90380W        W55640  30.308  14.451   1.368
90381W        W55641  16.036   3.881  13.956
90382W        W55642  27.537  15.499  12.886
90383W        W55643   3.931  32.474   3.225
90384W        W55644   2.302  33.406   4.462
90385W        W55645  19.247  13.262   4.667
90386W        W55646   0.933   7.348  14.980
90387W        W55647  29.428   4.163   2.901
90388W        W55648  41.006   3.072   4.161
90389W        W55649  24.547  12.380  10.474
90390W        W55650   1.145  10.816   1.931
90391W        W55651  16.084   0.006   1.478
90392W        W55652  27.680  11.888  13.800
90393W        W55653  15.141   1.799   0.233
90394W        W55654   8.820  14.078  11.064
90395W        W55655  41.997  42.569  13.367
90396W        W55656  29.364   6.709   4.500
90397W        W55657  13.175  37.868   0.819
90398W        W55658   9.781  20.573   0.341
90399W        W55659  29.121   1.250  13.483
90400W        W55660  13.526  38.435  12.938
90401W        W55661  39.426  39.915   4.867
90402W        W55662  19.133   7.787   4.916
90403W        W55663  22.044  24.893   4.123
90404W        W55664  25.048  14.080  14.830
90405W        W55665  15.224  34.150   3.257
90406W        W55666  15.863  32.403  11.575
90407W        W55667  29.143  30.178  11.934
90408W        W55668  15.297  14.747   1.191
90409W        W55669  19.407  25.020   4.480
90410W        W55670  14.856  43.337  14.366
90411W        W55671  24.957  28.720   1.900
90412W        W55672   6.050  27.774  11.195
90413W        W55673  33.371  39.376   2.420
90414W        W55674  11.918  19.031  11.214
90415W        W55675  10.864   2.824  12.943
90416W        W55676   1.704  35.170  14.331
90417W        W55677  26.903  25.131  12.019
90418W        W55678  35.446  29.317   4.266
90419W        W55679  32.687   7.849   2.425
90420W        W55680  40.523  15.795  10.999
90421W        W55681   2.374   0.705   1.287
90422W        W55682  14.278  16.583   4.735
90423W        W55683  42.569  25.494   0.828
90424W        W55684  23.056  27.973   2.650
90425W        W55685  13.599   8.273   2.649
90426W        W55686  23.405  43.865   2.821
90427W        W55687  32.563   9.564   1.414
90428W        W55688  35.476  44.806   4.138
90429W        W55689  11.171  42.418   4.567
90430W        W55690  31.652   0.045   1.604
90431W        W55691  17.224  44.207  12.132
90432W        W55692  38.857  39.277  11.490
90433W        W55693  39.371  12.837  12.962
90434W        W55694  15.692  28.057  14.278
90435W        W55695  10.356  30.514   2.975
90436W        W55696  43.507  27.532  13.638
90437W        W55697  13.785   3.746   2.334
90438W        W55698   3.837  15.260   4.929
90439W        W55699  29.968  11.184  12.072
90440W        W55700  12.746   3.846  13.543
90441W        W55701  13.910  32.406   0.821
90442W        W55702  23.196  40.523  14.104
90443W        W55703   1.352  44.276   4.767
90444W        W55704   0.019  29.963  12.610
90445W        W55705  36.944  23.511  13.320
90446W        W55706  30.384  21.533  13.492
90447W        W55707  15.147  34.868   1.123
90448W        W55708   3.189  12.976  10.253
90449W        W55709  25.735  41.567  10.812
90450W        W55710   6.791  38.497   1.701
90451W        W55711  12.034  13.299  12.874
90452W        W55712  33.415  12.628  13.950
90453W        W55713   7.708  32.410   4.530
90454W        W55714  43.850  42.974   0.854
90455W        W55715  30.250  18.134   4.551
90456W        W55716  38.564  24.514   2.606
90457W        W55717  43.202  41.763   0.698
90458W        W55718  43.507  32.462   3.584
90459W        W55719  32.651  28.937   4.571
90460W        W55720  23.085  30.041  10.698
90461W        W55721  43.544   9.618  12.798
90462W        W55722  22.075  37.061  14.673
90463W        W55723   2.381  35.662   4.246
90464W        W55724  26.250  10.801   1.668
90465W        W55725  32.468  34.172   3.066
90466W        W55726  43.583  32.127   1.874
90467W        W55727  38.458  18.134   2.172
90468W        W55728   1.553  36.358  12.511
90469W        W55729  28.015   6.609   4.537
90470W        W55730   4.460  11.533  13.989
90471W        W55731  39.563  37.643  10.579
90472W        W55732  17.669  36.847   4.075
90473W        W55733   5.946  36.417   3.690
90474W        W55734   0.742  29.588   4.649
90475W        W55735  31.613   3.843  14.877
90476W        W55736  28.926  10.200  10.970
90477W        W55737  22.476  31.184   1.815
90478W        W55738  42.342  16.364  13.062
90479W        W55739  22.338  37.840  11.320
90480W        W55740  28.669  12.275   2.391
90481W        W55741  43.951   3.913  12.241
90482W        W55742  18.376   6.969   2.792
90483W        W55743   7.763  26.182  14.470
90484W        W55744   1.369  30.252   5.605
90485W        W55745  11.294   8.985   4.465
90486W        W55746   1.579   3.426  10.902
90487W        W55747  28.411  44.099  11.494
90488W        W55748  42.809   4.717  14.591
90489W        W55749  13.636   6.742   2.230
90490W        W55750  44.278  21.690  13.451
90491W        W55751   0.580  27.653   2.584
90492W        W55752  14.578  25.157   2.211
90493W        W55753  23.149  24.510  13.818
90494W        W55754  25.239  41.470  10.717
90495W        W55755  11.823  37.936   2.688
90496W        W55756   6.495   0.870  14.269
90497W        W55757  39.990  29.946  12.586
90498W        W55758   5.852  13.488  11.036
90499W        W55759  25.188  34.029  11.144
90500W        W55760  22.560  43.763  13.065
90501W        W55761   0.878   1.683   2.141
90502W        W55762  32.280  26.702   2.697
90503W        W55763  29.579   3.326   2.667
90504W        W55764  16.695   8.684   1.846
90505W        W55765  30.202  35.677   0.313
90506W        W55766  22.237  16.460   3.217
90507W        W55767  40.067  38.930   3.113
90508W        W55768  40.296  15.777   1.163
90509W        W55769  16.875  23.592   1.372
90510W        W55770  37.535  18.043  12.027
90511W        W55771   9.560  42.104  11.375
90512W        W55772  14.353   2.947   3.845
90513W        W55773  22.773   2.246  12.103
90514W        W55774  25.520  20.312  11.860
90515W        W55775   5.878   2.780   4.368
90516W        W55776  44.170  18.577   3.304
90517W        W55777  31.657   6.488  13.408
90518W        W55778  13.266  34.793   2.411
90519W        W55779  30.476  39.520   1.328
90520W        W55780   0.412  21.077  12.309
90521W        W55781   2.278  43.757   2.845
90522W        W55782  40.961  11.582  12.049
90523W        W55783  38.919   0.885   4.012
90524W        W55784  14.811  10.923  10.560
90525W        W55785  24.966  12.063  10.979
90526W        W55786  17.393  27.131   0.170
90527W        W55787  37.499  34.366   1.326
90528W        W55788  14.681  33.918  14.031
90529W        W55789  16.106  20.988  12.865
90530W        W55790   8.831  32.035   3.746
90531W        W55791  43.376  32.410   4.600
90532W        W55792  14.627  15.760  14.959
90533W        W55793   9.798  38.766   1.031
90534W        W55794   2.061  34.115   2.200
90535W        W55795  33.103   7.863   2.843
90536W        W55796  15.672   1.924   3.851
90537W        W55797  18.917  43.366  11.168
90538W        W55798  11.126   3.475   3.726
90539W        W55799  37.004  20.154  11.037
90540W        W55800  16.244  20.440  13.744
90541W        W55801  19.252   1.889  13.481
90542W        W55802  42.938   0.292   1.338
90543W        W55803  44.357  36.579  13.950
90544W        W55804   5.875  24.814  12.398
90545W        W55805  38.087  29.969   0.845
90546W        W55806  18.258  11.869  11.167
90547W        W55807  12.022  37.038   0.178
90548W        W55808   6.950  20.257  11.897
90549W        W55809   2.295   2.074   4.040
90550W        W55810  30.993  22.482   1.944
90551W        W55811  32.570  33.519  14.523
90552W        W55812  40.723   9.842  12.410
90553W        W55813  38.750  15.373  10.203
90554W        W55814  44.901   9.934  14.951
90555W        W55815  38.080  38.753  14.034
90556W        W55816  38.659  42.994   0.059
90557W        W55817  40.699  22.649  12.186
90558W        W55818  35.018  10.781   3.187
90559W        W55819  31.593  44.293  13.802
90560W        W55820  40.802   0.568   3.335
90561W        W55821   0.886  37.017   4.173
90562W        W55822   4.009  31.692  13.378
90563W        W55823   5.933  23.628   0.753
90564W        W55824   5.405   6.733  12.941
90565W        W55825  13.687  17.636   0.578
90566W        W55826  39.100  13.392   1.692
90567W        W55827  34.654   7.972   3.896
90568W        W55828  30.928   6.155   1.370
90569W        W55829  31.661  42.717   4.346
90570W        W55830  37.542  21.041  14.335
90571W        W55831   6.288   1.073   2.299
90572W        W55832  31.068  22.052   4.304
90573W        W55833  17.851  17.147   3.188
90574W        W55834  23.109  23.108  12.390
90575W        W55835   8.205  22.730   4.077
90576W        W55836  32.932  24.104  10.877
90577W        W55837  14.082   1.047   1.197
90578W        W55838  17.517  14.874   3.764
90579W        W55839  21.519  39.342  12.208
90580W        W55840   8.409  27.748  13.534
90581W        W55841  31.990  16.731  14.529
90582W        W55842  32.820   9.730   4.462
90583W        W55843   5.921  31.356  10.744
90584W        W55844  21.814  16.840  12.964
90585W        W55845  31.466  27.248  11.070
90586W        W55846   2.064  16.137   0.350
90587W        W55847  19.588  42.744  12.985
90588W        W55848  28.561  37.545  14.156
90589W        W55849  38.372  29.418   3.352
90590W        W55850  23.900  27.629  12.083
90591W        W55851  43.382  15.239   0.378
90592W        W55852  21.733  27.612  13.236
90593W        W55853   6.713  27.656   3.255
90594W        W55854  44.369  34.812  14.483
90595W        W55855  40.164   1.336  12.828
90596W        W55856   6.658  17.201   2.804
90597W        W55857  15.740  44.350   4.469
90598W        W55858   1.080  41.438  14.534
90599W        W55859   5.839  26.540  12.647
90600W        W55860  36.427  38.367   4.085
90601W        W55861  28.600   3.497   1.475
90602W        W55862  35.264  20.926   2.206
90603W        W55863  20.796  10.264  10.322
90604W        W55864  37.125  24.312   1.281
90605W        W55865  28.156  33.963  11.287
90606W        W55866  41.883  26.958   0.751
90607W        W55867  31.188   8.296   4.182
90608W        W55868  34.068   3.596  13.242
90609W        W55869  28.658  15.496  13.963
90610W        W55870  28.506  14.072   4.379
90611W        W55871  21.970  28.709  13.834
90612W        W55872   6.937  10.897  12.559
90613W        W55873   7.315   2.944   2.413
90614W        W55874   0.434  23.753   0.385
90615W        W55875   3.902  16.207   2.895
90616W        W55876  24.269  15.207   1.903
90617W        W55877  27.586  43.265  14.267
90618W        W55878  29.785  23.048   1.893
90619W        W55879  31.037  14.395   1.651
90620W        W55880  29.079  32.111   4.094
90621W        W55881  37.364  35.150   5.553
90622W        W55882   1.307  28.627   0.597
90623W        W55883  43.289  14.360   3.007
90624W        W55884  27.198   3.376   0.874
90625W        W55885  25.607  26.649  10.583
90626W        W55886  34.173  29.844   2.638
90627W        W55887  16.748   4.749   3.829
90628W        W55888  23.015  34.056  11.981
90629W        W55889  15.534   0.970   1.045
90630W        W55890  14.321  20.625  14.313
90631W        W55891   2.220  32.572   0.557
90632W        W55892  22.816  36.321   0.347
90633W        W55893  13.303  37.045   1.504
90634W        W55894  20.040   5.888   2.652
90635W        W55895  16.597  24.028   4.080
90636W        W55896  25.436  31.264   1.747
90637W        W55897  10.738  36.854   1.880
90638W        W55898  36.983  24.508   0.042
90639W        W55899  42.361  40.142  10.666
90640W        W55900  30.796  11.186  13.607
90641W        W55901  26.130  38.571  12.087
90642W        W55902  38.401  21.571   3.418
90643W        W55903  13.188  19.924  14.008
90644W        W55904  21.075   5.419   2.311
90645W        W55905   3.081  37.340   3.795
90646W        W55906   7.866  40.318   0.373
90647W        W55907  34.856  29.967   4.592
90648W        W55908  18.618   4.862  14.539
90649W        W55909  39.336  27.810  13.066
90650W        W55910  40.762  14.752  14.301
90651W        W55911  29.226  33.528  14.369
90652W        W55912  31.180  35.083   1.130
90653W        W55913  27.047  28.469  11.928
90654W        W55914  39.324   4.660   4.128
90655W        W55915  25.432   0.566  11.567
90656W        W55916  13.938   7.989   9.816
90657W        W55917  24.433   9.131  13.059
90658W        W55918  40.024  19.739  13.280
90659W        W55919   0.342  44.037  10.721
90660W        W55920  38.032   6.220  13.883
90661W        W55921  41.858  33.131  13.000
90662W        W55922  18.991  14.877   2.780
90663W        W55923  18.501  40.375  13.463
90664W        W55924   4.117   3.847   0.513
90665W        W55925  22.990  16.480   3.873
90666W        W55926  43.299  37.185   3.146
90667W        W55927   9.165  28.574   4.010
90668W        W55928   0.773  24.272   0.075
90669W        W55929  16.663  31.902   3.541
90670W        W55930  12.808   7.499   3.220
90671W        W55931  24.333   6.650   4.934
90672W        W55932  17.629  14.533   4.186
90673W        W55933  42.783  36.392   0.844
90674W        W55934   5.431  36.534  14.953
90675W        W55935  40.917  28.639  12.942
90676W        W55936   5.875  43.262   4.185
90677W        W55937   4.143   2.624   4.187
90678W        W55938  38.213  43.676  14.973
90679W        W55939  29.640  40.043  10.602
90680W        W55940   8.353   8.332  14.432
90681W        W55941  36.950  29.050   2.387
90682W        W55942  33.249   5.866   3.065
90683W        W55943   1.561  15.239   5.098
90684W        W55944  18.819  15.554   1.333
90685W        W55945   4.973  20.037  11.123
90686W        W55946  21.292  43.537  13.596
90687W        W55947  20.691  26.051  12.649
90688W        W55948   4.415  31.538  10.619
90689W        W55949  35.983  16.304   2.719
90690W        W55950  38.382  26.122   4.600
90691W        W55951  25.092  37.945   4.180
90692W        W55952  22.500   8.137  10.726
90693W        W55953  25.634  31.495   4.653
90694W        W55954  21.767  33.452   3.249
90695W        W55955  27.069  11.636  12.511
90696W        W55956  23.285  30.106   1.495
90697W        W55957  32.956  37.518  11.960
90698W        W55958   7.423   6.834   2.354
90699W        W55959  27.877  10.678   4.711
90700W        W55960  22.909  35.408   1.763
90701W        W55961  30.965  39.924   3.030
90702W        W55962  22.445  16.649   0.236
90703W        W55963  42.899   0.980  14.483
90704W        W55964  24.028  14.222   1.376
90705W        W55965  34.858   8.344   0.903
90706W        W55966   7.726  16.162  11.990
90707W        W55967  41.896  39.830  12.527
90708W        W55968   1.481  17.367   2.904
90709W        W55969  23.306  14.252  10.446
90710W        W55970  41.859  37.249   4.180
90711W        W55971  34.770  19.080   0.964
90712W        W55972  37.865  37.708  13.908
90713W        W55973  17.688  15.763  11.575
90714W        W55974  19.589  23.919   3.846
90715W        W55975   4.810  21.451  13.369
90716W        W55976  15.154  18.100   1.197
90717W        W55977  18.934  44.378  13.785
90718W        W55978  26.634   5.467   2.741
90719W        W55979  27.939  24.558  13.937
90720W        W55980   3.262  23.577   2.904
90721W        W55981  24.138  19.987   0.533
90722W        W55982  17.230  23.305  10.273
90723W        W55983  21.778  29.631  10.704
90724W        W55984   0.773   3.270  12.725
90725W        W55985  17.035  36.996  10.434
90726W        W55986  44.553  24.039   0.723
90727W        W55987   8.317  13.838  13.506
90728W        W55988   9.963   0.687  11.189
90729W        W55989   9.467  24.566  10.310
90730W        W55990   2.259   4.952   1.741
90731W        W55991  40.931  30.699   3.302
90732W        W55992  38.517  25.665  14.995
90733W        W55993  16.240  13.163   0.471
90734W        W55994   7.670  37.303   1.243
90735W        W55995  34.963  28.735  14.711
90736W        W55996  13.499  26.548  13.362
90737W        W55997  30.682  12.348  11.967
90738W        W55998  30.914   1.539   2.362
90739W        W55999  42.804  22.862   0.496
90740W        W56000  16.828  32.056  11.149
90741W        W56001  19.592  27.571  10.379
90742W        W56002  29.880  24.208  14.735
90743W        W56003  43.678   1.935   4.831
90744W        W56004   9.259   7.281  13.993
90745W        W56005   6.938   2.381  13.871
90746W        W56006  40.636  20.181  13.499
90747W        W56007  31.372   4.393   4.371
90748W        W56008   7.267  17.249   4.102
90749W        W56009  14.247  40.454   3.870
90750W        W56010  21.713  37.144  10.237
90751W        W56011  21.607  36.524   2.730
90752W        W56012  20.506  14.249  13.926
90753W        W56013   7.742  30.343  14.118
90754W        W56014  19.926   5.266   4.610
90755W        W56015  38.308  24.228   3.388
90756W        W56016  31.116   1.471   1.377
90757W        W56017  44.302  33.215   2.827
90758W        W56018   3.218  22.794   0.310
90759W        W56019  16.174  26.411  14.109
90760W        W56020   3.348  30.115   4.294
90761W        W56021  24.663  44.426  13.249
90762W        W56022  12.698  15.685  13.964
90763W        W56023  33.660  41.872  12.893
90764W        W56024   9.743  39.596  14.045
90765W        W56025  25.911  38.139   1.285
90766W        W56026  10.433   3.158  11.404
90767W        W56027  39.837  31.443   2.600
90768W        W56028  36.867  32.963   3.837
90769W        W56029  40.489  17.571  10.331
90770W        W56030  14.176  10.354   3.591
90771W        W56031  12.518  43.212   0.409
90772W        W56032  34.275  41.270   0.394
90773W        W56033  37.495  31.640   2.684
90774W        W56034  41.571  42.241  13.325
90775W        W56035  14.083  13.187   4.005
90776W        W56036  30.102  35.956  10.995
90777W        W56037  34.259  10.372   0.252
90778W        W56038   1.309  14.229  13.266
90779W        W56039   0.082   8.603   1.068
90780W        W56040  29.924   4.165   2.658
90781W        W56041  25.036  20.684  12.546
90782W        W56042  36.410   2.595  10.266
90783W        W56043  22.729  20.293  13.334
90784W        W56044   7.558  14.259   3.660
90785W        W56045  30.062  29.408  12.663
90786W        W56046  13.197  35.719   4.557
90787W        W56047  42.745  18.117   0.390
90788W        W56048  25.938  13.142  10.714
90789W        W56049  38.887  18.781  12.323
90790W        W56050  27.540  40.139  12.019
90791W        W56051  14.333  35.896  14.495
90792W        W56052  22.817   1.850  14.327
90793W        W56053   6.609   6.323   4.481
90794W        W56054  22.775  24.289   2.337
90795W        W56055  12.698  32.661   3.712
90796W        W56056  11.562  28.140  14.286
90797W        W56057  30.766  23.429  11.612
90798W        W56058  23.064   2.956   1.256
90799W        W56059   3.451  21.119  10.902
90800W        W56060   6.832   6.874  13.749
90801W        W56061   1.387  18.726   0.529
90802W        W56062  12.189  24.021  11.626
90803W        W56063  41.183  36.024  14.095
90804W        W56064   9.213  23.197   1.971
90805W        W56065   4.095   9.165   0.892
90806W        W56066  32.384  40.242  11.651
90807W        W56067   9.584  30.096   0.487
90808W        W56068  27.625  31.073  13.781
90809W        W56069  28.678   6.381  12.890
90810W        W56070  13.464  27.051   0.430
90811W        W56071  10.057  20.522   1.655
90812W        W56072  16.863   9.170  14.276
90813W        W56073  18.437   3.223   1.145
90814W        W56074  16.142  33.512  12.031
90815W        W56075  24.363  21.793  12.990
90816W        W56076   0.644  44.906   3.934
90817W        W56077  13.123  42.411   2.806
90818W        W56078  22.630  15.292   1.713
90819W        W56079  23.914   1.407   0.544
90820W        W56080  24.169  43.728  10.692
90821W        W56081   6.188  13.714  10.652
90822W        W56082  31.582  40.184   1.732
90823W        W56083  43.123   2.005   3.162
90824W        W56084  39.556  31.977  12.439
90825W        W56085  22.017  17.606   1.900
90826W        W56086  44.058  42.738   1.274
90827W        W56087  26.683  19.798   1.756
90828W        W56088  37.951  15.532   1.675
90829W        W56089  10.170  44.426   9.802
90830W        W56090  41.897  12.657  14.482
90831W        W56091   8.362  19.966   4.908
90832W        W56092   1.455  20.279   0.344
90833W        W56093  34.639  39.119   0.807
90834W        W56094   2.361  30.857   3.625
90835W        W56095  13.601   0.551  11.142
90836W        W56096  42.636  39.872  12.906
90837W        W56097  22.102   6.392   3.537
90838W        W56098  22.663  39.918   4.721
90839W        W56099   9.170  31.546  12.251
90840W        W56100   1.457  42.039   1.309
90841W        W56101  40.886  26.447  10.613
90842W        W56102  21.509   3.243   4.215
90843W        W56103  21.383  23.798  14.030
90844W        W56104   6.306  33.896   1.200
90845W        W56105   7.440  27.730  11.570
90846W        W56106  16.818  43.522  14.831
90847W        W56107  39.270  26.103   2.861
90848W        W56108  37.835  44.847   1.852
90849W        W56109  20.837   9.227   1.046
90850W        W56110  28.758  20.635  14.487
90851W        W56111  10.851  33.000   1.458
90852W        W56112  11.295   0.807  10.766
90853W        W56113  38.410  21.824   1.904
90854W        W56114   0.413  15.179   4.785
90855W        W56115  41.428  23.228  12.157
90856W        W56116  28.569  26.241   1.775
90857W        W56117  37.120  28.410  12.382
90858W        W56118  27.893  16.020  12.575
90859W        W56119  34.098  43.272   1.881
90860W        W56120  33.565  21.975   4.428
90861W        W56121  11.212  21.321  10.613
90862W        W56122  20.207  10.363  12.097
90863W        W56123   8.161  42.002   3.638
90864W        W56124  29.531  10.554  12.452
90865W        W56125   2.315   7.358   1.358
90866W        W56126  40.393  10.833   2.159
90867W        W56127  19.783   0.192  12.019
90868W        W56128  27.212  34.413   4.331
90869W        W56129  28.577  32.639  10.628
90870W        W56130  25.782  13.046  14.290
90871W        W56131   9.797   5.464   2.689
90872W        W56132  13.449   7.842   9.983
90873W        W56133  17.629  27.167  11.601
90874W        W56134  11.959  41.910   4.889
90875W        W56135  41.184  26.010  12.969
90876W        W56136  21.297  26.193  14.543
90877W        W56137  37.449  22.542   2.070
90878W        W56138  13.020  31.317   0.043
90879W        W56139  36.017  16.181   1.206
90880W        W56140  41.590   4.955  12.884
90881W        W56141   1.211  20.196   4.708
90882W        W56142  31.001  19.452   2.790
90883W        W56143  15.251  22.136   2.819
90884W        W56144  12.950  17.216   1.255
90885W        W56145  24.973  26.732  13.649
90886W        W56146  20.788  38.876  11.425
90887W        W56147  42.228  29.054   3.704
90888W        W56148  39.570  13.331   4.496
90889W        W56149  19.508   9.590   2.243
90890W        W56150  41.024  43.377   0.961
90891W        W56151  37.874  20.616  14.406
90892W        W56152   8.276  42.051   2.826
90893W        W56153  20.097   1.781  13.930
90894W        W56154  37.578  27.077  14.917
90895W        W56155  42.934  29.873  14.723
90896W        W56156  12.080  12.129   1.828
90897W        W56157  30.597  21.095   2.570
90898W        W56158  29.027  37.634   4.415
90899W        W56159  41.298  12.755   1.856
90900W        W56160  36.064  24.434  13.898
90901W        W56161  20.414  44.306   3.189
90902W        W56162   9.567  21.384   3.993
90903W        W56163  36.032  21.267  12.507
90904W        W56164   5.514   4.863  14.797
90905W        W56165  13.626   9.430  13.241
90906W        W56166  43.458  19.186   1.917
90907W        W56167  35.361  34.632   0.433
90908W        W56168  32.918  17.818   0.865
90909W        W56169  28.190  11.400   3.461
90910W        W56170  11.247  29.195  12.612
90911W        W56171   4.343  26.643  12.448
90912W        W56172  38.750  33.617  13.603
90913W        W56173  20.693  19.135   1.866
90914W        W56174  44.307  21.434  14.830
90915W        W56175  23.378  12.393  11.202
90916W        W56176  10.122   4.907   0.904
90917W        W56177  10.075   3.692   4.677
90918W        W56178  28.071  10.704  14.087
90919W        W56179  36.904  17.967   2.397
90920W        W56180  41.294  17.350  11.258
90921W        W56181   6.236  26.626   4.945
90922W        W56182  16.852  11.093  11.831
90923W        W56183   3.350  18.319  13.981
90924W        W56184  20.817  43.586   4.202
90925W        W56185   5.223  33.405   4.348
90926W        W56186   2.060  44.462   2.366
90927W        W56187   1.176  30.594  11.640
90928W        W56188  19.517  26.025  11.058
90929W        W56189  14.294   6.177   0.690
90930W        W56190  40.129  35.378   2.752
90931W        W56191  14.194   2.934   2.419
90932W        W56192  26.284  36.121  11.407
90933W        W56193  29.041  17.186   4.602
90934W        W56194  43.135  30.074  14.303
90935W        W56195  39.885  32.556   3.142
90936W        W56196  21.046  15.025   1.347
90937W        W56197  41.128  40.489   2.632
90938W        W56198   7.114   6.228   1.120
90939W        W56199  41.986  19.724  12.422
90940W        W56200  13.579  11.756   4.352
90941W        W56201   4.593  30.145  11.087
90942W        W56202  29.612  43.004  12.590
90943W        W56203  36.100   4.478  11.516
90944W        W56204  24.705   1.728  12.494
90945W        W56205  36.475  14.564   3.238
90946W        W56206  28.440  42.422  12.418
90947W        W56207  38.940   1.735   0.951
90948W        W56208  27.000  10.632   2.380
90949W        W56209  19.631  38.323  12.055
90950W        W56210   0.757  35.367   4.576
90951W        W56211  11.197   5.684  10.280
90952W        W56212  43.545  37.598   3.836
90953W        W56213   8.683  18.167   4.409
90954W        W56214   6.925  34.398   3.774
90955W        W56215   5.919  32.165  13.918
90956W        W56216  34.849   4.868   4.658
90957W        W56217   7.255  21.588   0.452
90958W        W56218  40.322  19.805  12.172
90959W        W56219  11.663  11.774   1.463
90960W        W56220  17.641  39.124   9.989
90961W        W56221   5.153   6.339   3.122
90962W        W56222  22.142  10.300  11.242
90963W        W56223  44.018   6.334   2.205
90964W        W56224  43.992   1.759  12.521
90965W        W56225  20.289  40.830  13.755
90966W        W56226   7.915   2.329   3.592
90967W        W56227   5.846  22.138   0.393
90968W        W56228  25.172  30.622  10.389
90969W        W56229  31.113  13.140  12.020
90970W        W56230  31.045  43.760   1.687
90971W        W56231  41.834  35.991   2.913
90972W        W56232  18.514  28.506   3.034
90973W        W56233  38.840  39.451   1.275
90974W        W56234  26.167  12.257   2.364
90975W        W56235  23.200  32.809   3.301
90976W        W56236  27.771  16.896   0.047
90977W        W56237   6.626  13.175   3.146
90978W        W56238   9.098  39.809   4.585
90979W        W56239   4.812  18.792   4.590
90980W        W56240  30.104  35.705  12.367
90981W        W56241  32.893  40.262  12.892
90982W        W56242  16.318   6.894   1.514
90983W        W56243  31.694  34.668  12.314
90984W        W56244  41.582  27.419   3.260
90985W        W56245  25.206  40.947   1.414
90986W        W56246  22.153  22.657  11.240
90987W        W56247  32.987  13.484   3.017
90988W        W56248  13.330  17.146  11.918
90989W        W56249  33.626   8.820  13.864
90990W        W56250  11.711   9.666  14.455
90991W        W56251   8.274  44.691  12.958
90992W        W56252  18.219  14.900  12.533
90993W        W56253  35.354  30.004   3.243
90994W        W56254  28.501   8.215   1.865
90995W        W56255  17.525  23.593  14.216
90996W        W56256  23.206   0.663  11.477
90997W        W56257  29.367  25.803   9.608
90998W        W56258  40.888  43.961   0.397
90999W        W56259  35.638  31.495   2.332
91000W        W56260   5.440  14.789  14.618
91001W        W56261  26.620  37.331   0.433
91002W        W56262  19.234  39.875   1.457
91003W        W56263   8.657  30.832  12.398
91004W        W56264   1.472  30.591   4.122
91005W        W56265  14.207  25.882   0.005
91006W        W56266  37.594   3.758   3.183
91007W        W56267  34.459  28.563   1.758
91008W        W56268  14.113  25.579  14.436
91009W        W56269   8.549   0.617  12.426
91010W        W56270   4.251  24.299  11.585
91011W        W56271  18.247  34.355   3.573
91012W        W56272  25.847   9.958   2.095
91013W        W56273  13.161  35.029   1.136
91014W        W56274   7.379  12.153  12.728
91015W        W56275  36.457  28.499  13.627
91016W        W56276  38.114  38.903  14.940
91017W        W56277  43.078  29.866   4.254
91018W        W56278  26.651  24.730  12.230
91019W        W56279   1.633  34.385  12.871
91020W        W56280  24.853  17.020   2.816
91021W        W56281  35.163  35.958   3.241
91022W        W56282  14.258  28.147   1.843
91023W        W56283  18.020  40.887   3.543
91024W        W56284   3.914  33.339   2.390
91025W        W56285  31.207  18.003   1.665
91026W        W56286  31.649  22.196  13.389
91027W        W56287  19.265   1.780  10.465
91028W        W56288  14.817  35.178  13.422
91029W        W56289  17.310   5.503  10.740
91030W        W56290  21.823  26.071  11.102
91031W        W56291  36.593   0.024  11.167
91032W        W56292  10.704  36.356   0.293
91033W        W56293   0.840   3.236  14.089
91034W        W56294   0.701  25.423   3.057
91035W        W56295  22.954  15.218   1.297
91036W        W56296  44.381   9.576  13.486
91037W        W56297  13.057  24.905   4.139
91038W        W56298   7.203  38.546   2.315
91039W        W56299   5.637  31.354  11.189
91040W        W56300  37.601  41.813   2.818
91041W        W56301  34.090  17.172   9.944
91042W        W56302   9.226  17.831   0.970
91043W        W56303  42.092   3.968   2.100
91044W        W56304  10.640  38.964  14.410
91045W        W56305   5.467  24.523  10.208
91046W        W56306  18.675   1.433  13.013
91047W        W56307  32.982  12.864  14.824
91048W        W56308   2.272  33.382   2.805
91049W        W56309  31.744   9.649  11.745
91050W        W56310  34.100   9.680   4.096
91051W        W56311  13.561   9.335   3.330
91052W        W56312  31.957  13.711  14.967
91053W        W56313  38.547  24.221   4.307
91054W        W56314  16.759  17.529  13.573
91055W        W56315  12.558  44.507  14.408
91056W        W56316  21.813  22.289   2.862
91057W        W56317  32.199  10.527   0.419
91058W        W56318  11.794   0.989  13.946
91059W        W56319  41.971  22.448  12.369
91060W        W56320   4.546  32.594  12.102
91061W        W56321   1.481   1.135   2.367
91062W        W56322  29.666  28.433  14.374
91063W        W56323   6.770   6.134   4.948
91064W        W56324   3.489  33.170   2.137
91065W        W56325  12.683   8.693   0.378
91066W        W56326  22.538  44.080   0.400
91067W        W56327  21.123  34.141   4.127
91068W        W56328   1.535  30.145  12.413
91069W        W56329  11.948  44.285   0.301
91070W        W56330  17.631  29.870   0.782
91071W        W56331   6.001  25.832  11.056
91072W        W56332  20.182   5.027  12.444
91073W        W56333  30.754   2.044  12.879
91074W        W56334  38.026  11.672   2.424
91075W        W56335  30.181  16.702  14.395
91076W        W56336  15.090   1.155   2.657
91077W        W56337  11.985  34.378  12.327
91078W        W56338  16.128   7.545  13.012
91079W        W56339   9.329  31.210   5.407
91080W        W56340   4.347  39.060   0.081
91081W        W56341  32.052   0.275  11.700
91082W        W56342  25.274  23.553  14.890
91083W        W56343  16.334  29.746  14.734
91084W        W56344   1.916  24.961   2.279
91085W        W56345  33.655  42.349  13.539
91086W        W56346   6.349  41.967   1.453
91087W        W56347  42.838   3.306  14.920
91088W        W56348  23.064  14.567   1.901
91089W        W56349  13.804  18.612  14.093
91090W        W56350  41.907  24.079   1.641
91091W        W56351  20.137  41.479   0.481
91092W        W56352  31.074   3.923  13.880
91093W        W56353  44.747   7.387   1.343
91094W        W56354  15.024  38.379   4.677
91095W        W56355  14.170  13.905   2.720
91096W        W56356  11.666  33.557  14.953
91097W        W56357   9.476  11.376  14.735
91098W        W56358  34.410  20.666  13.977
91099W        W56359   9.873  29.123   3.318
91100W        W56360  10.793  10.922   3.721
91101W        W56361  22.692  16.572   2.599
91102W        W56362  15.111  20.298  10.635
91103W        W56363  43.347   6.650  11.984
91104W        W56364   2.338   4.793  12.995
91105W        W56365   9.401  25.604   2.307
91106W        W56366  18.475  38.038   2.459
91107W        W56367  37.126  12.457   1.326
91108W        W56368  11.801   8.837   0.227
91109W        W56369  11.341  18.025  13.573
91110W        W56370   9.644  35.212   0.264
91111W        W56371   3.065  24.265   4.937
91112W        W56372   6.284   3.255   4.086
91113W        W56373   6.342   9.966   2.986
91114W        W56374  16.112   6.092  13.533
91115W        W56375  41.106  25.257   3.696
91116W        W56376  35.985   1.253  14.300
91117W        W56377  21.767   4.181   1.371
91118W        W56378  15.091  43.338   1.235
91119W        W56379  22.538  12.268  12.960
91120W        W56380   2.455   5.420   3.946
91121W        W56381  27.599  38.135  11.073
91122W        W56382  32.962   3.326  10.649
91123W        W56383  16.895  33.329  14.563
91124W        W56384   2.827  20.421   3.794
91125W        W56385  39.724  24.544  14.825
91126W        W56386  38.082  14.408   0.620
91127W        W56387  18.127  11.159  10.683
91128W        W56388  14.541  21.754   9.787
91129W        W56389  34.364  10.861  10.439
91130W        W56390  43.846  39.666   4.541
91131W        W56391  11.349  28.663  12.569
91132W        W56392  24.156  38.495  14.737
91133W        W56393  44.121  44.367  10.320
91134W        W56394   4.207  23.297  12.474
91135W        W56395  12.152  34.085   1.320
91136W        W56396  11.248   2.262  10.745
91137W        W56397  13.627  35.412   4.565
91138W        W56398  24.937  27.954   5.022
91139W        W56399  31.108  43.709   3.183
91140W        W56400   5.448  37.444   3.532
91141W        W56401   0.216  35.575   2.477
91142W        W56402   7.343  40.078   4.081
91143W        W56403  40.907  10.822  14.001
91144W        W56404   2.374  25.499   3.784
91145W        W56405  10.349  27.400  10.141
91146W        W56406  26.219  37.285  13.055
91147W        W56407  34.497  13.904  11.470
91148W        W56408   5.527   7.678   3.774
91149W        W56409   7.449  39.529  12.805
91150W        W56410  13.759  25.643  11.346
91151W        W56411  18.027  27.564  14.731
91152W        W56412  23.996  27.216   3.641
91153W        W56413   9.328  23.675   0.990
91154W        W56414  38.628  25.244  14.713
91155W        W56415  38.312  31.039  12.169
91156W        W56416  35.530  41.769  10.737
91157W        W56417  35.912  10.146   2.786
91158W        W56418   3.180  18.723   0.763
91159W        W56419  24.953  38.992   3.308
91160W        W56420  38.952  15.658  13.882
91161W        W56421  21.097   0.519  11.008
91162W        W56422  39.132  38.415  10.731
91163W        W56423  10.314  33.248   1.459
91164W        W56424  36.606  20.568  14.837
91165W        W56425  27.130  21.284  14.102
91166W        W56426   5.782  24.126  14.139
91167W        W56427  22.635   2.563  11.256
91168W        W56428  44.689  36.994   1.007
91169W        W56429  14.653  31.408  12.603
91170W        W56430  17.530  29.673  12.764
91171W        W56431  25.111   4.251   5.176
91172W        W56432   3.343  26.659   1.679
91173W        W56433  26.511  23.623  14.542
91174W        W56434   0.310  18.967   2.769
91175W        W56435  21.765   8.914  12.309
91176W        W56436  19.687  26.402   2.283
91177W        W56437  11.281  28.984   2.749
91178W        W56438  22.740   9.862   2.795
91179W        W56439  39.321  30.826   0.358
91180W        W56440  34.331  25.141  14.746
91181W        W56441   4.736  11.730   3.640
91182W        W56442  22.387  42.696   3.947
91183W        W56443   3.299  37.078   2.608
91184W        W56444  36.876  30.606   2.524
91185W        W56445  41.425  15.534  10.708
91186W        W56446  12.775  16.139   3.602
91187W        W56447   7.940  19.463   2.601
91188W        W56448   1.762  35.991  11.192
91189W        W56449   1.199  25.541   0.704
91190W        W56450   3.810  37.861   2.984
91191W        W56451  29.184  35.726  13.964
91192W        W56452  22.742  37.842  13.047
91193W        W56453  30.156  25.186  14.521
91194W        W56454  25.369   3.780   4.476
91195W        W56455   0.450  37.284   3.906
91196W        W56456  41.992  21.201  10.791
91197W        W56457  25.270  20.202   2.400
91198W        W56458  12.093  10.532  11.914
91199W        W56459   8.770  12.329  14.064
91200W        W56460  37.459  25.077  14.351
91201W        W56461  17.460  24.020  14.511
91202W        W56462   0.334  33.126   3.700
91203W        W56463  14.790   1.755  11.966
91204W        W56464   3.941  37.899   4.447
91205W        W56465  21.906  12.345   4.414
91206W        W56466   8.299   0.396  13.826
91207W        W56467  43.853   3.580  13.940
91208W        W56468  23.308   3.344  13.793
91209W        W56469  41.466  19.375   2.876
91210W        W56470   8.446  36.045  13.808
91211W        W56471  21.608   9.294   4.571
91212W        W56472  15.255  18.703   1.373
91213W        W56473  40.305  35.790  13.908
91214W        W56474  17.514   9.777   0.731
91215W        W56475  13.177  27.635  11.371
91216W        W56476  21.520  22.065   4.013
91217W        W56477  16.850  35.128  14.330
91218W        W56478  27.991  37.099   3.271
91219W        W56479  26.924   3.759   2.369
91220W        W56480  40.292   5.826  13.920
91221W        W56481  32.162  16.686   4.092
91222W        W56482  29.998  10.279  12.083
91223W        W56483  23.161   7.202  10.728
91224W        W56484  39.026   9.416   4.154
91225W        W56485   4.779  44.916  10.777
91226W        W56486  43.888  42.959   3.261
91227W        W56487  21.033  21.982  11.233
91228W        W56488  43.149  37.664  10.231
91229W        W56489  38.951  38.847   0.276
91230W        W56490  30.243  23.269   1.666
91231W        W56491  12.327   0.311   0.804
91232W        W56492  20.527   0.036   1.171
91233W        W56493   2.736  21.031  10.695
91234W        W56494  14.398  41.525  10.508
91235W        W56495  10.872  20.790  12.560
91236W        W56496  10.391  30.972   3.285
91237W        W56497  12.636  40.952  14.373
91238W        W56498  34.238   0.948   2.692
91239W        W56499  13.746  11.203  14.581
91240W        W56500   7.028  19.604  12.538
91241W        W56501  15.786  12.987   3.667
91242W        W56502  27.368  31.425   0.970
91243W        W56503  28.169  13.241  11.452
91244W        W56504  41.217  27.015   1.345
91245W        W56505  40.534  38.508  11.690
91246W        W56506  32.208  20.226   1.420
91247W        W56507  20.832  25.679  13.579
91248W        W56508  24.265  10.742  14.971
91249W        W56509   1.744  24.339  10.845
91250W        W56510  16.683  12.663  12.076
91251W        W56511  36.940  39.455   1.699
91252W        W56512  32.613  16.186   1.838
91253W        W56513  18.535  40.414  12.498
91254W        W56514  43.847  35.095  10.629
91255W        W56515  42.412  13.778   2.616
91256W        W56516  16.726  13.829  10.719
91257W        W56517   1.834   7.776  11.160
91258W        W56518  41.279  25.943   4.815
91259W        W56519  37.214  15.588   1.174
91260W        W56520  11.187  34.011  14.143
91261W        W56521   9.269  32.016  10.647
91262W        W56522  33.947  35.507   1.734
91263W        W56523  37.377  43.468  11.644
91264W        W56524  33.560  30.378   2.784
91265W        W56525  28.139   4.193   2.609
91266W        W56526  12.697  24.140  10.856
91267W        W56527   2.352  25.174   1.662
91268W        W56528  40.467  27.157  10.601
91269W        W56529  37.799  31.866   1.792
91270W        W56530   8.410  32.759  12.736
91271W        W56531  28.084  44.000  14.980
91272W        W56532  29.337   9.093   2.721
91273W        W56533  29.177  31.119  14.783
91274W        W56534  43.996  42.147  12.180
91275W        W56535  14.372   6.526  14.925
91276W        W56536  31.061  34.482   1.787
91277W        W56537   1.073  22.888   2.320
91278W        W56538  37.885  42.267   2.796
91279W        W56539  33.929  35.017   0.957
91280W        W56540   4.093  12.649   0.324
91281W        W56541  18.927  26.953   0.585
91282W        W56542  16.752  41.073   3.168
91283W        W56543   4.467  38.167  10.999
91284W        W56544  39.935  34.768   0.331
91285W        W56545  16.567  21.606  11.996
91286W        W56546  17.276  43.291   0.688
91287W        W56547   8.789  19.832   1.751
91288W        W56548  44.030  13.498  13.975
91289W        W56549  22.227  39.371  12.700
91290W        W56550  43.060  14.754  14.371
91291W        W56551   0.733  14.416  11.387
91292W        W56552  34.141   4.245   3.577
91293W        W56553   7.421  26.953  12.083
91294W        W56554  30.424  42.891  12.892
91295W        W56555  36.823  42.863  13.466
91296W        W56556   2.752  31.201   3.778
91297W        W56557  19.603  42.272  11.421
91298W        W56558  39.053  39.073  11.055
91299W        W56559  40.966  42.101  14.082
91300W        W56560  21.245  28.840   0.260
91301W        W56561  32.433   7.137  11.021
91302W        W56562  37.960  19.040  12.020
91303W        W56563  12.941   3.233  13.846
91304W        W56564  29.726  17.282  14.762
91305W        W56565  40.293  14.706  14.589
91306W        W56566  26.462  32.909   1.378
91307W        W56567  25.247  32.393   3.708
91308W        W56568   0.331  25.114  12.938
91309W        W56569  10.074  24.331   2.216
91310W        W56570   3.309  40.373   5.050
91311W        W56571  10.143  19.110  14.562
91312W        W56572   1.115  11.855  12.572
91313W        W56573  32.472  24.130  13.558
91314W        W56574   0.398  43.133  13.388
91315W        W56575   7.657  32.102  13.581
91316W        W56576   6.632  23.808   1.961
91317W        W56577  25.443  14.363   1.126
91318W        W56578  40.016   6.900  14.015
91319W        W56579   5.383  31.494   4.213
91320W        W56580   2.116  36.890  12.939
91321W        W56581  42.761  41.599   2.690
91322W        W56582  23.290   9.704   0.208
91323W        W56583   5.767   0.022  10.921
91324W        W56584  37.566  35.483   4.590
91325W        W56585  23.256  22.737   0.271
91326W        W56586  24.848  28.266  14.403
91327W        W56587  31.902  39.111   2.707
91328W        W56588  31.076  43.404   4.103
91329W        W56589  19.488   3.308  14.380
91330W        W56590  20.152   7.030  14.860
91331W        W56591  11.930  22.745   3.750
91332W        W56592  21.207   8.831   1.235
91333W        W56593   0.615  24.653  14.761
91334W        W56594  31.278  35.482  11.140
91335W        W56595  14.768   5.207  14.747
91336W        W56596  44.020  27.711   3.669
91337W        W56597  44.045  43.495  14.499
91338W        W56598  36.323   3.678   2.853
91339W        W56599  19.148   9.285  12.018
91340W        W56600  37.862  11.306  12.620
91341W        W56601  39.296  37.010   1.354
91342W        W56602  23.115  13.109  14.452
91343W        W56603   0.617  41.096  12.211
91344W        W56604  23.227  37.559  11.153
91345W        W56605   3.024  41.746  10.827
91346W        W56606   2.274  19.594   0.291
91347W        W56607  10.219  40.038  11.600
91348W        W56608  32.431  17.036   2.220
91349W        W56609  12.653  20.223   1.359
91350W        W56610  38.038  13.778  13.584
91351W        W56611  19.534  20.801  14.021
91352W        W56612   2.881  29.986  11.684
91353W        W56613  36.088  21.484   3.809
91354W        W56614  38.849  20.437  13.481
91355W        W56615   3.582  14.837   4.762
91356W        W56616  40.481   9.368   3.230
91357W        W56617  39.815  11.782   1.776
91358W        W56618  28.838   6.690   4.539
91359W        W56619  20.048  19.164  12.763
91360W        W56620   5.002   1.524  12.424
91361W        W56621  42.031  19.250   4.714
91362W        W56622  44.308  40.800   3.894
91363W        W56623  31.168  17.555   1.904
91364W        W56624  14.568  29.874   2.681
91365W        W56625  24.099  44.999  10.746
91366W        W56626   4.009  25.225  11.803
91367W        W56627  25.687   6.241   4.843
91368W        W56628  21.697  11.637   2.887
91369W        W56629  19.140  21.174   1.907
91370W        W56630   9.903  14.155   3.278
91371W        W56631  18.787   0.568   1.011
91372W        W56632  35.803  42.876   2.214
91373W        W56633  21.751  19.694  11.967
91374W        W56634   3.912  19.276  13.548
91375W        W56635  32.284  12.638  10.760
91376W        W56636  11.479  29.086   4.271
91377W        W56637  17.177  23.756   0.975
91378W        W56638  24.903  13.789  13.477
91379W        W56639  28.923   9.666   4.633
91380W        W56640  35.942  32.108  12.911
91381W        W56641   0.908  19.484   1.416
91382W        W56642  43.352  24.248   1.996
91383W        W56643  25.933  34.949   3.351
91384W        W56644  26.783  25.392   1.343
91385W        W56645  33.762  37.948   2.111
91386W        W56646  33.797  15.588   2.695
91387W        W56647  41.902  22.473  14.891
91388W        W56648  40.730  29.556   4.105
91389W        W56649  24.873  12.660  12.689
91390W        W56650   7.637  30.817   1.274
91391W        W56651  21.495  26.663  14.217
91392W        W56652   0.441   5.008   1.139
91393W        W56653  22.626   7.216   0.325
91394W        W56654  33.128   2.518  14.276
91395W        W56655  39.589   8.928   4.594
91396W        W56656  38.825   6.193   0.280
91397W        W56657   7.458   9.367  10.842
91398W        W56658  41.798  27.484   2.732
91399W        W56659   4.183  36.053   2.108
91400W        W56660  18.794  25.630   0.940
91401W        W56661  11.245  12.042  14.791
91402W        W56662  38.577   9.339  10.741
91403W        W56663  44.967   1.345   4.177
91404W        W56664   1.030  33.112   5.013
91405W        W56665  24.218  26.102   2.893
91406W        W56666  18.769  14.701   0.762
91407W        W56667   9.815  21.650  12.399
91408W        W56668   7.603  14.833   2.886
91409W        W56669   8.261  35.994   3.332
91410W        W56670  43.707   8.842  11.138
91411W        W56671   3.243  10.332   4.586
91412W        W56672   0.750  24.572   1.280
91413W        W56673  35.024  33.285  14.250
91414W        W56674  34.491  43.608  14.772
91415W        W56675  16.067  25.690  12.557
91416W        W56676  25.609  22.073   0.664
91417W        W56677   0.357  36.320   2.904
91418W        W56678  16.322  28.153   2.797
91419W        W56679   7.999  40.472  13.525
91420W        W56680  23.852  13.937   3.672
91421W        W56681  29.166   5.166   0.428
91422W        W56682  22.687   1.366  11.095
91423W        W56683  31.488  31.828  11.109
91424W        W56684  24.489   4.452   3.086
91425W        W56685  15.611  37.254  12.861
91426W        W56686  10.659   9.255  14.942
91427W        W56687  44.358  40.984  13.118
91428W        W56688  40.304  11.128   4.163
91429W        W56689  16.903  40.091   3.498
91430W        W56690  12.945  31.505   2.629
91431W        W56691  12.182  19.604  14.990
91432W        W56692  32.627   2.894   2.891
91433W        W56693  43.260  10.325  13.482
91434W        W56694   9.730  24.217   2.603
91435W        W56695  12.024  38.272   4.201
91436W        W56696  42.063  41.334  11.258
91437W        W56697  19.754   4.696   4.585
91438W        W56698  41.372  43.291   4.430
91439W        W56699   5.719  15.507   0.788
91440W        W56700  11.492  41.288   3.706
91441W        W56701  31.313  23.405  14.959
91442W        W56702  26.171  44.883  12.103
91443W        W56703   3.251  23.340   2.443
91444W        W56704  29.034  17.867   4.936
91445W        W56705  16.669  27.579   4.357
91446W        W56706  15.914  37.069  12.417
91447W        W56707  23.718  37.042  13.475
91448W        W56708  24.616   9.984   4.607
91449W        W56709   6.426  30.057   4.071
91450W        W56710  15.284  38.002   4.214
91451W        W56711  29.875  36.120  14.487
91452W        W56712  27.065  44.057   0.752
91453W        W56713  35.382   8.123  14.053
91454W        W56714   4.116  37.425  12.076
91455W        W56715  26.169   9.873   3.061
91456W        W56716  15.782  39.959   0.781
91457W        W56717  43.296  39.110  13.931
91458W        W56718  43.312   1.272  14.296
91459W        W56719  11.118  44.939  12.913
91460W        W56720  21.573   8.495   1.437
91461W        W56721  12.696   9.840   3.052
91462W        W56722   1.938   0.415  12.043
91463W        W56723  41.741  14.225   3.198
91464W        W56724  22.120   3.329   1.834
91465W        W56725   8.904   5.154   4.957
91466W        W56726   3.193  13.707   2.867
91467W        W56727  30.159   5.229  13.479
91468W        W56728  14.840  25.969  13.196
91469W        W56729  34.454  36.123   4.188
91470W        W56730   2.267   6.205  11.903
91471W        W56731   3.346   5.137  14.943
91472W        W56732  30.202  35.933   2.880
91473W        W56733  26.584   0.058   4.059
91474W        W56734  25.708  11.051   4.822
91475W        W56735  35.567  11.856   4.128
91476W        W56736   1.932  10.428   3.362
91477W        W56737  16.195  41.338   4.624
91478W        W56738  22.725  41.602   1.558
91479W        W56739   2.480   2.818   0.481
91480W        W56740  17.997  20.201   3.230
91481W        W56741  30.929   9.529   3.802
91482W        W56742  14.603   9.910   1.756
91483W        W56743  10.835  24.492  12.684
91484W        W56744   5.404  32.042  14.943
91485W        W56745  39.284  12.191   2.384
91486W        W56746  38.450   3.057  12.426
91487W        W56747  30.530  20.996  11.151
91488W        W56748  29.589  22.748   9.952
91489W        W56749  17.289  42.423   2.177
91490W        W56750  26.667  31.627  14.341
91491W        W56751   7.422  30.208   2.131
91492W        W56752   7.587  35.628  10.650
91493W        W56753  10.213  12.823  10.803
91494W        W56754  40.556  16.375   4.465
91495W        W56755  27.131   7.134  10.346
91496W        W56756   4.157  42.007  13.028
91497W        W56757  14.532  11.026  14.278
91498W        W56758  30.818  12.429   4.125
91499W        W56759  21.278  43.942  14.410
91500W        W56760   9.624  23.119  13.842
91501W        W56761  20.724  43.344   0.844
91502W        W56762  28.385  41.583   0.136
91503W        W56763  28.135  16.726  10.990
91504W        W56764  35.349  34.141  14.309
91505W        W56765   1.651  31.832  11.550
91506W        W56766  21.744  14.798  10.819
91507W        W56767  42.936  40.913  13.528
91508W        W56768   0.054  27.901   3.741
91509W        W56769  28.492  15.476   1.242
91510W        W56770  15.729  35.903  14.198
91511W        W56771  16.646  44.527   0.310
91512W        W56772   4.432  20.776  14.266
91513W        W56773  32.474  14.069   3.454
91514W        W56774   9.923  17.175  14.554
91515W        W56775  40.442  12.308  12.068
91516W        W56776   8.131  15.209   0.713
91517W        W56777  31.434   2.224   1.450
91518W        W56778  43.667   9.868  12.358
91519W        W56779   7.851  31.765   1.357
91520W        W56780   5.427  10.133   3.619
91521W        W56781  43.302  15.043   4.750
91522W        W56782   7.561  24.476  12.421
91523W        W56783  18.248   4.342  10.611
91524W        W56784  35.753  25.611  11.125
91525W        W56785  41.399   5.341  13.785
91526W        W56786   5.949  22.620  14.520
91527W        W56787  10.632   6.000  14.101
91528W        W56788   0.805  31.593   0.372
91529W        W56789  30.971  16.215   1.424
91530W        W56790  25.510   6.450   3.861
91531W        W56791  38.122   9.863   4.489
91532W        W56792  28.984  17.883   0.980
91533W        W56793  25.606  19.295  10.050
91534W        W56794  38.618  36.426   4.540
91535W        W56795  44.877   8.784   0.356
91536W        W56796  15.289  18.749  11.927
91537W        W56797  25.399  34.556   3.772
91538W        W56798   3.980  44.949   0.702
91539W        W56799   0.016  30.754  11.155
91540W        W56800  22.037  20.525  14.895
91541W        W56801  19.308  13.433  12.117
91542W        W56802  43.981  16.009   0.318
91543W        W56803  43.713  18.618   3.019
91544W        W56804  26.097  43.714   2.270
91545W        W56805  19.545  31.999   3.177
91546W        W56806  30.266  21.771   4.395
91547W        W56807   2.808  10.467   1.022
91548W        W56808  44.195  32.302  12.998
91549W        W56809  35.221   7.450  14.934
91550W        W56810   2.362  14.308   3.677
91551W        W56811  16.716  27.369  12.773
91552W        W56812  14.470  35.737   3.281
91553W        W56813  18.074   3.582   1.107
91554W        W56814  15.344  11.930  13.056
91555W        W56815  44.408  39.000  10.705
91556W        W56816  30.471  15.515  12.898
91557W        W56817  36.479  41.060  13.944
91558W        W56818  29.048  35.951   1.285
91559W        W56819  18.780  24.016   1.801
91560W        W56820  33.880  33.991  12.364
91561W        W56821  21.131  44.002  10.274
91562W        W56822  13.613   9.253   0.392
91563W        W56823  41.264   9.683   3.716
91564W        W56824   6.817  16.055   0.292
91565W        W56825  30.247   2.756  11.643
91566W        W56826   9.868   2.995  13.549
91567W        W56827  35.568  40.598   4.535
91568W        W56828  24.256  26.937   0.288
91569W        W56829   2.048   6.402  12.909
91570W        W56830   0.302  22.096  10.587
91571W        W56831  16.657  32.945   4.555
91572W        W56832   2.866  25.087  14.372
91573W        W56833  10.916  13.796  14.927
91574W        W56834  21.834  28.950   3.148
91575W        W56835   4.861  44.350   0.162
91576W        W56836  37.009  40.683   1.141
91577W        W56837  13.652  42.349   2.694
91578W        W56838  23.999  35.137   0.883
91579W        W56839  12.534   5.583  10.659
91580W        W56840  28.870  20.705   2.180
91581W        W56841  20.428  30.024   4.111
91582W        W56842  37.427   4.465   1.322
91583W        W56843  17.732  22.920   4.962
91584W        W56844  11.136  43.828  11.711
91585W        W56845  19.356  22.506   3.383
91586W        W56846  33.924  43.438   1.407
91587W        W56847  20.748  29.577   2.024
91588W        W56848  33.131  11.025  14.453
91589W        W56849   2.130  42.787   4.664
91590W        W56850  37.597  15.328  12.448
91591W        W56851  39.351   0.378  11.634
91592W        W56852   8.881  43.220  14.000
91593W        W56853  33.352  36.940   1.949
91594W        W56854  38.900  39.447   2.155
91595W        W56855  19.058   4.422  12.864
91596W        W56856  20.257  44.945   2.384
91597W        W56857  41.355  27.642  10.384
91598W        W56858   8.709   9.387  14.534
91599W        W56859  18.748   3.342  14.905
91600W        W56860  44.660  11.753   1.785
91601W        W56861   6.828   0.550   3.732
91602W        W56862  22.112  18.145  13.963
91603W        W56863  31.574  23.765   0.313
91604W        W56864   5.624  19.744   3.768
91605W        W56865   3.459  20.983  12.513
91606W        W56866   9.605  30.859  10.320
91607W        W56867  25.861   8.383   0.205
91608W        W56868  23.253  24.988   3.646
91609W        W56869  10.685  16.502   4.788
91610W        W56870   2.474  40.017  14.523
91611W        W56871   3.583  26.363   5.358
91612W        W56872   8.394  41.346   1.914
91613W        W56873   3.190  41.088   2.287
91614W        W56874  12.116  16.810  13.269
91615W        W56875  41.889  34.707  13.718
91616W        W56876  32.005  38.719  11.283
91617W        W56877  44.241   9.855  11.646
91618W        W56878  12.151  36.211  14.528
91619W        W56879  39.324  24.933  10.989
91620W        W56880   2.162  26.239  13.011
91621W        W56881   1.141  11.257   4.925
91622W        W56882   4.187  32.451  12.411
91623W        W56883   0.202   9.210   3.226
91624W        W56884  29.736  18.588  14.234
91625W        W56885  23.628   2.930  11.204
91626W        W56886  20.290  22.420  11.537
91627W        W56887   2.341  24.383  14.460
91628W        W56888  23.382   3.269   9.885
91629W        W56889  41.048   2.158  11.458
91630W        W56890  22.654  23.632  13.929
91631W        W56891  40.740   1.517   2.382
91632W        W56892  11.264   5.193   2.673
91633W        W56893  17.141  38.996   1.052
91634W        W56894   7.732   4.140  12.039
91635W        W56895  38.248   6.455  10.694
91636W        W56896  44.391  35.922  12.433
91637W        W56897   3.876   1.286  11.623
91638W        W56898  31.625  11.566   0.049
91639W        W56899   1.977   1.946   0.807
91640W        W56900  38.501  28.680  13.967
91641W        W56901  18.241  30.534  10.334
91642W        W56902   4.902  21.674   0.656
91643W        W56903  38.420  29.875  12.479
91644W        W56904  22.946  42.378  11.129
91645W        W56905  37.345  35.681   2.473
91646W        W56906  33.110  12.062   3.696
91647W        W56907  19.928   4.058   0.242
91648W        W56908  33.883  21.134   3.571
91649W        W56909  43.693   6.542   3.433
91650W        W56910   8.150  22.612   0.767
91651W        W56911   0.978   9.901   0.938
91652W        W56912  30.381  14.079   4.567
91653W        W56913  35.436  32.229   2.831
91654W        W56914  34.344  33.849   4.073
91655W        W56915  44.867  13.847  13.371
91656W        W56916   8.622   4.123   0.210
91657W        W56917  11.045  15.892   4.455
91658W        W56918  30.595  14.668   0.379
91659W        W56919   1.280   8.439  14.386
91660W        W56920   3.717  20.085  13.917
91661W        W56921  42.434   5.987  14.803
91662W        W56922  37.329  37.433  11.221
91663W        W56923   5.138  16.020  14.450
91664W        W56924  32.398  38.881  13.484
91665W        W56925  40.975  17.165  14.288
91666W        W56926  41.941  25.344   4.687
91667W        W56927   8.842  23.293  10.092
91668W        W56928   1.794  32.176   3.077
91669W        W56929   0.885  30.949   1.204
91670W        W56930  23.340   8.341  10.992
91671W        W56931  40.550  24.224  13.710
91672W        W56932  39.301   9.596   0.733
91673W        W56933  17.084  22.376   1.704
91674W        W56934  40.907  23.769  14.530
91675W        W56935  33.334  29.758  12.178
91676W        W56936   0.320  37.802   4.053
91677W        W56937  40.712  26.212   4.184
91678W        W56938   5.950  25.291  12.655
91679W        W56939   5.200  11.204   0.010
91680W        W56940  35.724   2.045   9.734
91681W        W56941  13.678  28.882   4.099
91682W        W56942  14.166  14.595  12.106
91683W        W56943  19.542  35.097   0.240
91684W        W56944  29.582  33.866   3.779
91685W        W56945  20.294   8.659   1.525
91686W        W56946  43.979  37.732   5.075
91687W        W56947   3.926  11.292  13.949
91688W        W56948  31.108  31.925  14.416
91689W        W56949  21.983   3.702   3.638
91690W        W56950  16.830  32.832  14.466
91691W        W56951  39.419   6.108  11.014
91692W        W56952  15.933  33.975  12.003
91693W        W56953  41.497  37.012  11.512
91694W        W56954  12.131  15.541   3.318
91695W        W56955  32.381  33.528   1.333
91696W        W56956   2.957  29.482  10.472
91697W        W56957   9.595  24.951  14.927
91698W        W56958  29.986  40.018   3.284
91699W        W56959   1.207   3.080   4.119
91700W        W56960  28.464  27.244  12.801
91701W        W56961  38.503  18.534  10.698
91702W        W56962  21.026  17.550   0.611
91703W        W56963  41.005  25.951   0.737
91704W        W56964  34.430  25.003   5.169
91705W        W56965  42.714  19.710  12.993
91706W        W56966   4.573  34.942   5.244
91707W        W56967  44.321  18.248   4.231
91708W        W56968   8.160   0.462   4.201
91709W        W56969  40.543  41.310  11.615
91710W        W56970  39.951  27.719   2.658
91711W        W56971  12.479  28.262  10.239
91712W        W56972  16.151  13.071   4.683
91713W        W56973  12.522  41.319  12.993
91714W        W56974  30.439  25.132  11.152
91715W        W56975   5.458  30.682   5.275
91716W        W56976  20.119   4.132  10.617
91717W        W56977  30.351  20.513  11.169
91718W        W56978  35.294  23.297  12.715
91719W        W56979   6.307   3.269  14.580
91720W        W56980  31.912  37.340   9.933
91721W        W56981  30.526  34.544  14.381
91722W        W56982  36.442  23.111   2.227
91723W        W56983  44.721  23.026  12.092
91724W        W56984  43.458  15.130  12.419
91725W        W56985  37.571  28.592  11.240
91726W        W56986  44.907  43.993   1.163
91727W        W56987  35.998  18.616   1.202
91728W        W56988   6.797  14.667  13.168
91729W        W56989  11.777  16.310  13.967
91730W        W56990  38.534  33.078  12.831
91731W        W56991   8.615  17.286   3.365
91732W        W56992  25.021  13.160   2.197
91733W        W56993   5.906   3.233   4.573
91734W        W56994  27.053  43.132   4.881
91735W        W56995  15.999  35.281   0.973
91736W        W56996  15.690  34.390   3.138
91737W        W56997   4.899  26.573  14.353
91738W        W56998  41.122  43.757  11.655
91739W        W56999  27.561  30.734  12.323
91740W        W57000  13.099  34.496  12.044
91741W        W57001  41.922  21.624   0.777
91742W        W57002  21.752  43.770  13.721
91743W        W57003  33.135  29.390  14.378
91744W        W57004  41.929   3.425   2.316
91745W        W57005   2.691   2.159  11.100
91746W        W57006  31.220   1.230   0.915
91747W        W57007  30.209  31.969  10.981
91748W        W57008  40.268  23.508  12.787
91749W        W57009  38.733   1.845  11.072
91750W        W57010  44.283  16.687  10.671
91751W        W57011  41.786  35.003   2.242
91752W        W57012  17.793  33.798   2.152
91753W        W57013  18.317   6.410   1.623
91754W        W57014   7.207  17.743   3.174
91755W        W57015  13.783  43.116  10.642
91756W        W57016  30.704   5.408   4.315
91757W        W57017  20.785  37.794   4.194
91758W        W57018  11.392  33.265   0.289
91759W        W57019  18.227  22.142   4.979
91760W        W57020  26.868  36.540  10.576
91761W        W57021  34.979  29.529   4.050
91762W        W57022  25.128  41.384   0.264
91763W        W57023  43.548  10.976   3.264
91764W        W57024  32.088   0.102   3.520
91765W        W57025  33.955  41.317  12.020
91766W        W57026  13.141  26.441   3.243
91767W        W57027  22.549  14.402  14.894
91768W        W57028  31.473  40.049  13.433
91769W        W57029  17.328   9.646  12.263
91770W        W57030  15.234  42.446   1.283
91771W        W57031  38.740  15.036  11.658
91772W        W57032  38.346  35.760   0.885
91773W        W57033  40.393  24.141   0.167
91774W        W57034  19.501  43.768  10.778
91775W        W57035  11.783  26.602   1.493
91776W        W57036  14.176  25.477   5.104
91777W        W57037  18.594  37.802   4.437
91778W        W57038  28.564   3.477  12.130
91779W        W57039   5.418  29.755   0.327
91780W        W57040   0.671  24.209   1.944
91781W        W57041  37.357   5.186  11.298
91782W        W57042   1.408   2.842  12.198
91783W        W57043  30.188  42.369   1.641
91784W        W57044  10.850  26.014  14.478
91785W        W57045  33.218  33.192   0.614
91786W        W57046  39.022  24.249   1.896
91787W        W57047  25.034   0.510   3.090
91788W        W57048  38.597  24.085   3.800
91789W        W57049  36.877  29.309  10.896
91790W        W57050  15.210  40.519   4.941
91791W        W57051  10.563  30.386   1.694
91792W        W57052   5.219  21.056   0.831
91793W        W57053  15.123  19.739  11.764
91794W        W57054   8.365   3.443  10.779
91795W        W57055  23.565  28.880  11.112
91796W        W57056   3.230   8.221  12.626
91797W        W57057   7.218  10.815  14.240
91798W        W57058  30.399  33.078  13.808
91799W        W57059  14.182   8.451   0.313
91800W        W57060  30.989  38.849  12.001
91801W        W57061  37.074  21.029  10.752
91802W        W57062  18.318  34.895  13.051
91803W        W57063  32.209  14.179  11.381
91804W        W57064  21.221  28.928   1.374
91805W        W57065   0.268   7.048  10.722
91806W        W57066  16.348   3.968   4.758
91807W        W57067  32.024  19.211   1.431
91808W        W57068   3.598  33.963   4.832
91809W        W57069   3.421   5.952  11.205
91810W        W57070   2.277  43.863   3.774
91811W        W57071  15.486  13.181  11.145
91812W        W57072  33.007   0.586   2.494
91813W        W57073  24.139  19.229  14.555
91814W        W57074   3.240  29.207   2.777
91815W        W57075  15.407  39.527   1.813
91816W        W57076  15.021   5.589  14.400
91817W        W57077  29.108  44.292  11.527
91818W        W57078  32.908  35.080   3.889
91819W        W57079  27.956  17.932   3.150
91820W        W57080  36.365  14.822  11.259
91821W        W57081  16.541   4.222  12.120
91822W        W57082  11.772  35.110   4.634
91823W        W57083  17.653  32.452  13.971
91824W        W57084  40.356  43.055  10.766
91825W        W57085  15.591  37.442   3.773
91826W        W57086  20.230  12.309   1.201
91827W        W57087  32.076  42.879  14.210
91828W        W57088  25.234  41.595   3.247
91829W        W57089   9.643  21.590   1.247
91830W        W57090  36.793   2.928  13.896
91831W        W57091  30.876  24.021   5.027
91832W        W57092  15.875  17.947  14.482
91833W        W57093  43.716  32.484  12.071
91834W        W57094   9.193  14.257  13.547
91835W        W57095  33.547  12.376  11.169
91836W        W57096  11.764   1.688   1.924
91837W        W57097  41.553  14.926   0.741
91838W        W57098  25.613   4.246  12.166
91839W        W57099   8.212  12.659  14.462
91840W        W57100  23.232  30.149  13.486
91841W        W57101  10.517  37.391  11.927
91842W        W57102   6.319  39.753   3.279
91843W        W57103  29.328  42.852   1.678
91844W        W57104  18.637  37.770   4.981
91845W        W57105  12.193   9.393  11.053
91846W        W57106  34.168   3.740   2.431
91847W        W57107  19.703  28.311  13.786
91848W        W57108   1.930   4.864  13.945
91849W        W57109  30.912  12.663  12.968
91850W        W57110  16.005  18.687  10.806
91851W        W57111  24.541  39.840  12.019
91852W        W57112   6.791   9.724   0.588
91853W        W57113  13.516   4.837  11.123
91854W        W57114  24.739  15.762  13.429
91855W        W57115  12.179  30.863  12.591
91856W        W57116  12.101  10.106  14.889
91857W        W57117  38.851  13.114   3.623
91858W        W57118   8.798  22.495   3.195
91859W        W57119  39.508  28.499  14.790
91860W        W57120  31.127  40.943   0.373
91861W        W57121   0.547  24.420  12.049
91862W        W57122  14.039   7.056   9.596
91863W        W57123   1.735  26.002   0.092
91864W        W57124  33.933  40.617  14.908
91865W        W57125  14.129  27.528  13.632
91866W        W57126   9.157  23.611   0.495
91867W        W57127  39.282  38.437   3.156
91868W        W57128  17.623  41.400  13.758
91869W        W57129   7.907  39.887   1.699
91870W        W57130  35.478   7.146  12.369
91871W        W57131  30.623  37.850   0.261
91872W        W57132   8.395  14.726  14.937
91873W        W57133   0.956  15.631   1.699
91874W        W57134  16.115  22.890   3.773
91875W        W57135  25.694  23.807  12.368
91876W        W57136  11.222  11.904  12.150
91877W        W57137  29.974  24.717  13.034
91878W        W57138   8.650  24.740   4.561
91879W        W57139  21.347  25.797   5.006
91880W        W57140  14.909   3.869  14.852
91881W        W57141  18.123   3.305   1.983
91882W        W57142  10.585  28.543  13.786
91883W        W57143  24.615  30.552   1.508
91884W        W57144   6.879  24.650   2.939
91885W        W57145  18.503  40.025   0.193
91886W        W57146  38.592   2.894   1.727
91887W        W57147   8.728  11.775   0.371
91888W        W57148  30.693  13.152  12.978
91889W        W57149  41.920  11.177   3.080
91890W        W57150  16.789  10.776  14.299
91891W        W57151  27.580  44.064   2.816
91892W        W57152  37.300  26.402   9.414
91893W        W57153  28.778   0.988   4.593
91894W        W57154   4.926  43.316   2.704
91895W        W57155  23.857  30.568   4.719
91896W        W57156  14.495   2.399   2.911
91897W        W57157   0.291  11.202  13.077
91898W        W57158  20.597   6.499   2.190
91899W        W57159  23.169   7.076  13.877
91900W        W57160  27.947  35.139   2.277
91901W        W57161  15.602  18.392   3.648
91902W        W57162  44.644  24.823  11.215
91903W        W57163  21.031  38.520  11.712
91904W        W57164  25.214  14.493  12.853
91905W        W57165  27.463  12.773  11.720
91906W        W57166  12.760  39.548  11.046
91907W        W57167  24.775  12.216   2.775
91908W        W57168  23.539  44.230  14.586
91909W        W57169  18.037  40.370  12.397
91910W        W57170  33.858   2.499   4.544
91911W        W57171  28.098   3.714  12.045
91912W        W57172  38.966  38.297   0.273
91913W        W57173   5.289  34.562   3.204
91914W        W57174  33.828  29.678   4.419
91915W        W57175  17.293   2.152   1.841
91916W        W57176  39.904  44.491   0.221
91917W        W57177  30.995  16.111  11.605
91918W        W57178  43.823  43.284  11.554
91919W        W57179  44.450  18.215   1.165
91920W        W57180   7.965  18.640   3.596
91921W        W57181  29.975   1.670   2.705
91922W        W57182  28.148  42.904  14.928
91923W        W57183  13.748  30.035  14.568
91924W        W57184  44.256  31.977   4.599
91925W        W57185  16.766  12.976  13.913
91926W        W57186   8.891  23.121  13.338
91927W        W57187   8.883  37.969   4.100
91928W        W57188   8.860  25.748   4.518
91929W        W57189  24.643  32.146  14.392
91930W        W57190  26.882  34.995  12.898
91931W        W57191   5.899   2.296  13.834
91932W        W57192  32.389  42.505  14.944
91933W        W57193  20.720  19.360  10.196
91934W        W57194  26.263  29.528  12.687
91935W        W57195   5.847   1.630   0.122
91936W        W57196  14.114  44.929  14.272
91937W        W57197  21.848  22.225   3.652
91938W        W57198   7.848  40.099   4.169
91939W        W57199  26.094  29.600  14.193
91940W        W57200  12.125  21.074   1.415
91941W        W57201   4.182  30.570   4.289
91942W        W57202  20.676  27.434  11.955
91943W        W57203  22.979  38.102  11.627
91944W        W57204  10.054  11.290   2.616
91945W        W57205  25.520   1.873  12.958
91946W        W57206  31.073   0.848  11.613
91947W        W57207   8.491  30.372  12.571
91948W        W57208  19.294   8.234  13.365
91949W        W57209   8.399  18.029  12.554
91950W        W57210  30.689   3.592   0.892
91951W        W57211  36.437  20.246   0.741
91952W        W57212   5.884   1.504   2.629
91953W        W57213  30.987  26.985  11.092
91954W        W57214   0.217  17.040   0.251
91955W        W57215  29.994   3.891  14.105
91956W        W57216  29.116  27.897  14.709
91957W        W57217  35.013  34.627   1.328
91958W        W57218  15.827   0.958   0.629
91959W        W57219  35.821  44.796   3.771
91960W        W57220  27.660  27.434  10.695
91961W        W57221  28.201  22.402   1.874
91962W        W57222  19.678   8.894   0.866
91963W        W57223  29.026   5.479   3.287
91964W        W57224  24.253  14.476  11.609
91965W        W57225   3.456   4.662  12.438
91966W        W57226  26.900  15.221  13.991
91967W        W57227  35.727   9.796  14.946
91968W        W57228  22.982  26.243   3.230
91969W        W57229  36.760  41.613  11.953
91970W        W57230  24.551  30.202   4.118
91971W        W57231  40.992  15.845   4.519
91972W        W57232  32.117  32.659   2.250
91973W        W57233   7.298  34.955   1.164
91974W        W57234  14.552  38.723  10.571
91975W        W57235  36.563  37.419   0.936
91976W        W57236   3.936  15.047   0.407
91977W        W57237  38.539  38.972   4.229
91978W        W57238  33.049  37.801   2.853
91979W        W57239  22.677  26.505   0.210
91980W        W57240  34.559  14.451  11.378
91981W        W57241  34.326  12.241  12.281
91982W        W57242  44.068  24.221   0.807
91983W        W57243   4.621   9.692  10.876
91984W        W57244  15.664   1.399   3.865
91985W        W57245  42.699  21.181  13.917
91986W        W57246  32.404  20.135  13.334
91987W        W57247  39.462  17.484   3.214
91988W        W57248   7.273  16.416   1.798
91989W        W57249  22.691  32.998   4.170
91990W        W57250  26.075  30.401  13.058
91991W        W57251  44.823  26.115   2.928
91992W        W57252   6.405   2.046   1.400
91993W        W57253  18.084  11.839   4.660
91994W        W57254  40.610  31.365  12.026
91995W        W57255  35.063   2.336  12.169
91996W        W57256   5.791  22.180   4.187
91997W        W57257  30.926   4.191   1.780
91998W        W57258  35.135  22.030  12.206
91999W        W57259  21.741  30.082   0.207
92000W        W57260  19.106  21.133   5.045
92001W        W57261  43.594  36.528  11.996
92002W        W57262  38.725  19.503   2.975
92003W        W57263  35.141  27.419  14.190
92004W        W57264  35.459  26.387   2.910
92005W        W57265  15.165  20.553  11.928
92006W        W57266   7.447   6.451  12.423
92007W        W57267  17.367   6.755   0.409
92008W        W57268   0.817  33.252  13.844
92009W        W57269   2.724  42.572   0.263
92010W        W57270  11.259   3.140   2.375
92011W        W57271   2.560  26.159   0.399
92012W        W57272   0.053  38.645   3.641
92013W        W57273  41.273  16.113   1.378
92014W        W57274  24.011  29.585  11.567
92015W        W57275  31.561  15.904  11.427
92016W        W57276  42.728  10.239  13.536
92017W        W57277  41.406  32.524   4.839
92018W        W57278   5.049  30.884  14.804
92019W        W57279  36.907  18.724   3.295
92020W        W57280   8.968  10.797  10.780
92021W        W57281  27.498  39.272  14.396
92022W        W57282  44.949  44.948   4.731
92023W        W57283   7.940  13.593  11.145
92024W        W57284  27.835  26.378  13.525
92025W        W57285   0.214  42.099   3.921
92026W        W57286  27.588   1.845   1.955
92027W        W57287  43.571   4.711   1.325
92028W        W57288   3.556  42.802   1.636
92029W        W57289  34.316   4.305   1.660
92030W        W57290  22.640  13.095  12.170
92031W        W57291   2.873  15.359   3.978
92032W        W57292  14.762  37.577   2.866
92033W        W57293  19.797  23.035  14.498
92034W        W57294   8.911  29.295   1.938
92035W        W57295  25.652  43.278  11.979
92036W        W57296   0.056  16.996   2.704
92037W        W57297  25.229  13.640   0.513
92038W        W57298   6.726  27.969  10.816
92039W        W57299  15.793  10.387   4.306
92040W        W57300  40.443   4.307   3.653
92041W        W57301  26.973  42.739  13.347
92042W        W57302  11.808  42.722  13.798
92043W        W57303   7.470   0.203   1.852
92044W        W57304  38.787  31.974  11.997
92045W        W57305   5.781  19.510  13.642
92046W        W57306  29.861   0.801   2.329
92047W        W57307  37.905  43.166   5.053
92048W        W57308  11.250  25.761   3.233
92049W        W57309   9.179  37.666  11.466
92050W        W57310   7.217   0.477   4.078
92051W        W57311  19.100  30.679  13.508
92052W        W57312   4.017  22.397  10.402
92053W        W57313  40.051  25.062  12.074
92054W        W57314  37.862  26.335  14.595
92055W        W57315  42.418  15.317   1.181
92056W        W57316  26.117  30.577   3.801
92057W        W57317  44.352  31.428  10.809
92058W        W57318   8.187   9.341   1.957
92059W        W57319  23.786  30.807  12.168
92060W        W57320  14.826  30.457  12.470
92061W        W57321  12.833  13.224  13.799
92062W        W57322  25.958  18.986  11.831
92063W        W57323   7.361  14.849  12.885
92064W        W57324  13.152  27.173  12.151
92065W        W57325   3.365  29.075  10.743
92066W        W57326  10.445  14.727   1.869
92067W        W57327  33.326  11.217   2.766
92068W        W57328  14.078  27.753   0.878
92069W        W57329  14.330  20.436  12.298
92070W        W57330   6.461   9.276   2.650
92071W        W57331  30.270  34.601   4.443
92072W        W57332  31.122   2.735  14.274
92073W        W57333  13.142  11.292  11.581
92074W        W57334  38.975  39.319   3.838
92075W        W57335  29.107  38.394  13.349
92076W        W57336  39.968  15.242   2.505
92077W        W57337  37.609  27.731   0.716
92078W        W57338  18.195  21.605  14.708
92079W        W57339  20.714  16.775   1.263
92080W        W57340  44.627  39.440  14.408
92081W        W57341  24.867  24.436   4.755
92082W        W57342  40.814  33.173   1.826
92083W        W57343  40.076  12.145   2.775
92084W        W57344  10.833  29.900  14.779
92085W        W57345   0.290   1.336   3.774
92086W        W57346   8.238  32.195  11.576
92087W        W57347  29.620  24.283  13.427
92088W        W57348   3.343  33.862   3.350
92089W        W57349   0.413   0.726  12.079
92090W        W57350  37.345  21.827   2.732
92091W        W57351  17.632  27.024   3.620
92092W        W57352  25.184   2.247   2.094
92093W        W57353  31.160   3.016  12.868
92094W        W57354  33.498  42.428   2.422
92095W        W57355  37.267  36.908   3.347
92096W        W57356   2.402  30.653  12.630
92097W        W57357  33.942   8.303  14.605
92098W        W57358  34.131  39.398   2.903
92099W        W57359  35.596  27.110  14.872
92100W        W57360  11.313  13.332  10.610
92101W        W57361  42.874   2.459   0.419
92102W        W57362   2.178  15.614   0.325
92103W        W57363  28.970  16.644   1.186
92104W        W57364   6.708   9.861   1.084
92105W        W57365  19.004  32.399  14.216
92106W        W57366  26.500  20.135  13.321
92107W        W57367  17.840  31.522  12.473
92108W        W57368  41.276  21.451   1.706
92109W        W57369  19.020  38.476   3.846
92110W        W57370  33.608  40.333   3.365
92111W        W57371  25.594   1.956   2.285
92112W        W57372  22.545  36.003   2.772
92113W        W57373  12.926  35.900  14.988
92114W        W57374   0.970   8.274   0.385
92115W        W57375  43.360   6.902   3.294
92116W        W57376   7.606  32.475  12.574
92117W        W57377   2.045  41.081   3.272
92118W        W57378  29.980  22.818  11.375
92119W        W57379  12.141   2.182  11.215
92120W        W57380  20.112  22.353  12.281
92121W        W57381  40.343  40.479   2.206
92122W        W57382  26.153  16.973   5.075
92123W        W57383   5.930  35.762   2.840
92124W        W57384  13.565   1.338  13.792
92125W        W57385  32.858  11.749  13.897
92126W        W57386  13.282  15.064  12.934
92127W        W57387  31.033   5.934   2.823
92128W        W57388  29.047  19.248   4.472
92129W        W57389  30.231  17.733  11.141
92130W        W57390  36.106  28.463  14.451
92131W        W57391  43.467  36.506  10.685
92132W        W57392   1.245   6.632  11.272
92133W        W57393  22.003  34.686   1.232
92134W        W57394  26.989  20.746  10.935
92135W        W57395  44.394  30.166  11.608
92136W        W57396  31.558  14.635   1.513
92137W        W57397   7.632  35.595   3.866
92138W        W57398  21.531  36.601   1.440
92139W        W57399  43.965   4.344  10.484
92140W        W57400  15.183   9.495  12.807
92141W        W57401   4.424  38.795   2.213
92142W        W57402  26.093  30.155   1.353
92143W        W57403  22.636  42.350  13.946
92144W        W57404  34.926  13.150   3.066
92145W        W57405   0.137  25.596   1.901
92146W        W57406   7.335  24.753  11.405
92147W        W57407  35.644  39.324  13.762
92148W        W57408  19.043   4.478  11.140
92149W        W57409  18.410  10.986   2.635
92150W        W57410   8.250   7.764  14.442
92151W        W57411  31.404  13.239   4.215
92152W        W57412  32.933  40.237  10.641
92153W        W57413  12.756  43.026  14.680
92154W        W57414  12.339   0.884   3.256
92155W        W57415  23.060  31.938  12.895
92156W        W57416  22.641  31.759  11.351
92157W        W57417  17.620   4.535  14.986
92158W        W57418  28.964  44.316   3.235
92159W        W57419   2.047   7.670  10.707
92160W        W57420  39.500  28.869   2.062
92161W        W57421   6.791  33.017   3.388
92162W        W57422  34.170  15.859  12.365
92163W        W57423  25.249  28.570  11.673
92164W        W57424   4.035  25.013  11.038
92165W        W57425   7.979  18.025   0.939
92166W        W57426  25.264  31.852   2.764
92167W        W57427   6.870  22.674   3.314
92168W        W57428  35.449   2.846   2.199
92169W        W57429  30.034  27.968   1.794
92170W        W57430   5.569   2.831  11.109
92171W        W57431  17.779  26.529   2.212
92172W        W57432  23.059  31.108  12.498
92173W        W57433  21.155  16.607   1.016
92174W        W57434  31.987   0.984   3.294
92175W        W57435  19.758  32.294  12.501
92176W        W57436  27.413  41.234   4.500
92177W        W57437   3.422  19.788   4.987
92178W        W57438  40.320  14.140   4.481
92179W        W57439  35.971  44.259   3.213
92180W        W57440  39.991  18.800   2.004
92181W        W57441  12.357  42.045   3.155
92182W        W57442  31.133  15.076  14.150
92183W        W57443  22.256  44.858   4.662
92184W        W57444  22.308  44.391  11.500
92185W        W57445  32.542  21.514   3.697
92186W        W57446  44.869  15.037  12.062
92187W        W57447   5.499   8.185  12.899
92188W        W57448  17.685  28.853   4.047
92189W        W57449   0.218  38.504   1.732
92190W        W57450  30.990  38.988   4.560
92191W        W57451  26.533   8.432   2.332
92192W        W57452  21.021  27.710   4.723
92193W        W57453  13.724  20.779  14.852
92194W        W57454  24.183  27.991   2.079
92195W        W57455   1.702  20.466   4.107
92196W        W57456  18.204   9.952   2.638
92197W        W57457   2.619  36.395   4.554
92198W        W57458  31.512  17.787  13.010
92199W        W57459   2.449  30.380  14.890
92200W        W57460  40.670   2.164   5.021
92201W        W57461  35.454   3.506  11.322
92202W        W57462   2.420  21.107  12.592
92203W        W57463  12.039  16.704   3.695
92204W        W57464  20.019   7.496  11.133
92205W        W57465  41.962  28.391  11.387
92206W        W57466  33.605  18.646   0.089
92207W        W57467   3.263  35.112  14.466
92208W        W57468  13.847  19.805  12.343
92209W        W57469  36.914  20.655   2.428
92210W        W57470   5.488  15.872   4.667
92211W        W57471  34.968  16.799  13.154
92212W        W57472  44.983  39.076  12.354
92213W        W57473  13.182  20.363   3.754
92214W        W57474  37.052  19.692   3.813
92215W        W57475  15.770  35.800  12.948
92216W        W57476  39.403  36.444  13.505
92217W        W57477  17.208  42.795   0.425
92218W        W57478  26.587  40.679  10.929
92219W        W57479   4.157   0.254   1.079
92220W        W57480   6.429   1.553  10.223
92221W        W57481  14.616  36.485   2.609
92222W        W57482  39.306  41.849  10.644
92223W        W57483  26.073  40.959  13.041
92224W        W57484   0.795   6.231   4.562
92225W        W57485  11.643  37.311  12.538
92226W        W57486  21.278  15.633  13.995
92227W        W57487  24.269  24.148  14.345
92228W        W57488  10.649  20.222   2.842
92229W        W57489  22.260  32.195   3.676
92230W        W57490  40.999  42.444   2.678
92231W        W57491  29.627  38.228  11.107
92232W        W57492  23.093  27.428   0.040
92233W        W57493   4.877   8.743   9.563
92234W        W57494  34.009  22.539  10.708
92235W        W57495  41.284  31.769  11.523
92236W        W57496  15.658  33.370  12.916
92237W        W57497  25.611  15.561   0.451
92238W        W57498  16.392  14.805   3.090
92239W        W57499   1.979   5.913   1.871
92240W        W57500  43.734  27.938  10.647
92241W        W57501   9.716  26.588   1.391
92242W        W57502  19.759  33.853  10.755
92243W        W57503  12.214  44.694  10.904
92244W        W57504  17.291  26.447   4.299
92245W        W57505  14.025  44.857   1.839
92246W        W57506  41.368  29.297   4.636
92247W        W57507  22.935   3.692  11.977
92248W        W57508  35.753  34.630  11.137
92249W        W57509  31.915  23.954   4.181
92250W        W57510  18.341  28.975   3.217
92251W        W57511  20.783   6.135  13.242
92252W        W57512  44.802   4.210   3.640
92253W        W57513  17.558   3.922   1.736
92254W        W57514  37.596   4.015  14.538
92255W        W57515  41.888  30.699  12.001
92256W        W57516  38.153   2.914   4.231
92257W        W57517  39.074  32.119   3.853
92258W        W57518  31.636  37.136  12.056
92259W        W57519  28.748   4.399  13.967
92260W        W57520  21.826  38.913  14.841
92261W        W57521   3.434  42.912  10.729
92262W        W57522   1.618  22.313  10.263
92263W        W57523   3.827  19.607   3.809
92264W        W57524  18.276  38.787  11.153
92265W        W57525  13.140  14.775  13.843
92266W        W57526  12.251   7.990  11.285
92267W        W57527  15.924  31.169  10.805
92268W        W57528  25.443   9.786  14.949
92269W        W57529  27.140  16.358  14.834
92270W        W57530  44.558  26.565   1.354
92271W        W57531  11.679  43.345   1.950
92272W        W57532  29.831  19.784  12.862
92273W        W57533  38.460  26.557   0.503
92274W        W57534   0.908  22.598  13.407
92275W        W57535  39.269   6.686   3.220
92276W        W57536  30.224   2.452   4.621
92277W        W57537  44.754  36.976  12.726
92278W        W57538  21.047   3.496   3.334
92279W        W57539  13.802  35.810  14.376
92280W        W57540  40.319  20.655  11.509
92281W        W57541  41.831  32.132   0.318
92282W        W57542  39.288  26.415   3.306
92283W        W57543  13.972  25.431  10.929
92284W        W57544  30.003   5.766  11.021
92285W        W57545   5.825   2.970  12.085
92286W        W57546  40.127   1.484   1.938
92287W        W57547  14.874  39.946   2.413
92288W        W57548   9.805  23.349  12.596
92289W        W57549  32.686  12.421  14.787
92290W        W57550  14.529  31.536  13.627
92291W        W57551  25.393  41.330  12.894
92292W        W57552  35.037  17.575  14.234
92293W        W57553  13.734   1.530  11.173
92294W        W57554  41.302  11.691   5.064
92295W        W57555  41.372  33.605   1.896
92296W        W57556  42.320  18.074   2.348
92297W        W57557  37.239  33.685  13.063
92298W        W57558  15.329  44.904  11.618
92299W        W57559  13.980  15.836   3.108
92300W        W57560  19.481  43.860   4.053
92301W        W57561   6.171   4.092   1.774
92302W        W57562  40.094  43.245   2.356
92303W        W57563  27.607   4.788   0.790
92304W        W57564   3.938  44.554   2.253
92305W        W57565  35.133  24.481  12.531
92306W        W57566  37.010   0.946  14.786
92307W        W57567  37.016  15.378   3.284
92308W        W57568  21.459  40.534   4.132
92309W        W57569  28.562  24.701  14.445
92310W        W57570  37.581  36.051   4.332
92311W        W57571  18.053  15.814  12.532
92312W        W57572  11.633  16.455   3.464
92313W        W57573   9.693  17.614   0.814
92314W        W57574  34.641   5.668  13.702
92315W        W57575  38.928  34.114   1.857
92316W        W57576  26.160  18.700   1.326
92317W        W57577  14.350  23.091   4.405
92318W        W57578  25.460   2.203  14.727
92319W        W57579   9.370   5.942   2.306
92320W        W57580  20.602  37.271   3.280
92321W        W57581  43.709  42.526   1.705
92322W        W57582  29.215  15.206  13.285
92323W        W57583  29.048  15.133  13.787
92324W        W57584  16.322  33.606   0.276
92325W        W57585   4.055  14.700   4.614
92326W        W57586  12.861   3.114   2.295
92327W        W57587  10.203  40.484  11.874
92328W        W57588   3.940  26.547  13.966
92329W        W57589   7.416   4.194   4.434
92330W        W57590  31.477  13.094  14.931
92331W        W57591  14.782   0.734  11.944
92332W        W57592  13.842  20.099   2.766
92333W        W57593  20.675   0.472   0.433
92334W        W57594   5.511   4.942   0.745
92335W        W57595   5.841  29.170   1.227
92336W        W57596   8.284  44.310  13.779
92337W        W57597   8.432  26.918  12.136
92338W        W57598  40.516  34.828  10.756
92339W        W57599   7.928  19.135  13.613
92340W        W57600   8.757   9.793  11.724
92341W        W57601   7.397  29.232   4.516
92342W        W57602  25.392   6.448  13.222
92343W        W57603  43.423  11.450  12.905
92344W        W57604  33.776  44.045  13.697
92345W        W57605  43.428  35.596  13.030
92346W        W57606  44.367  40.704  11.885
92347W        W57607  43.457  23.687   2.600
92348W        W57608   9.284  15.920  10.773
92349W        W57609  20.177  32.366   1.399
92350W        W57610  28.613  21.823  11.883
92351W        W57611  18.712  18.377  10.290
92352W        W57612  11.746  12.475  10.658
92353W        W57613  22.523  26.000  12.374
92354W        W57614  28.449   7.402  13.026
92355W        W57615  28.934  22.028  12.400
92356W        W57616  29.208  18.037   2.865
92357W        W57617  30.070  36.580  10.763
92358W        W57618   2.531  19.739  11.913
92359W        W57619   8.936   4.412  13.875
92360W        W57620  21.472  10.792   0.462
92361W        W57621   0.447  26.578   3.949
92362W        W57622   0.907   9.632   2.787
92363W        W57623  28.265  39.352  12.517
92364W        W57624  41.799   4.808   4.516
92365W        W57625   0.000  25.685  12.213
92366W        W57626  13.099  19.524   2.769
92367W        W57627  31.391  18.939   3.714
92368W        W57628  37.766   9.908  12.801
92369W        W57629  18.686  35.044   2.603
92370W        W57630   3.435  38.464   3.402
92371W        W57631  23.195  28.213   1.687
92372W        W57632   6.624   7.450   2.542
92373W        W57633  32.055  43.791  10.247
92374W        W57634  14.356  14.717  10.798
92375W        W57635  21.499  14.844   0.201
92376W        W57636  33.884  24.595   3.091
92377W        W57637  38.058  27.174  12.041
92378W        W57638  31.867  42.329  11.382
92379W        W57639   0.747  26.808  13.277
92380W        W57640  31.916  28.459  12.326
92381W        W57641  36.491   3.742  14.895
92382W        W57642  38.945  15.566   4.556
92383W        W57643   8.804  29.492   2.962
92384W        W57644  31.825  28.086   4.710
92385W        W57645  21.758  10.083  13.743
92386W        W57646   5.887   0.382   2.681
92387W        W57647  36.100  43.647   0.370
92388W        W57648  30.426  14.217  10.683
92389W        W57649  37.440   3.262  14.970
92390W        W57650  33.851  40.764   1.329
92391W        W57651  37.073  29.211  14.582
92392W        W57652  20.004  28.421  10.667
92393W        W57653  32.677  23.714   5.044
92394W        W57654  23.866  16.697   3.985
92395W        W57655   8.851   1.782   4.901
92396W        W57656  12.267   0.817   2.744
92397W        W57657   7.126  18.520   1.247
92398W        W57658  27.688  16.189   3.624
92399W        W57659  23.385  33.029  11.588
92400W        W57660   1.829  32.958   3.933
92401W        W57661   2.266  38.298  10.749
92402W        W57662   7.143  15.754  12.911
92403W        W57663   6.187  15.131  11.108
92404W        W57664  20.155  10.838   1.293
92405W        W57665  27.377  35.018  13.029
92406W        W57666   8.348  31.677  11.422
92407W        W57667   7.782  29.568   1.470
92408W        W57668  35.571  21.623  13.573
92409W        W57669  41.958  35.273   1.842
92410W        W57670  39.001  41.500   0.004
92411W        W57671   7.677  38.506  11.521
92412W        W57672  22.252  38.581  12.460
92413W        W57673  22.068  23.536   3.921
92414W        W57674  17.230  38.785   2.651
92415W        W57675  20.655  33.500   1.832
92416W        W57676  30.673  17.315   4.959
92417W        W57677  38.493  40.959   3.334
92418W        W57678  24.444  18.042  11.697
92419W        W57679  39.442  15.175  12.793
92420W        W57680  36.873  29.479   0.665
92421W        W57681  34.136  33.340   0.544
92422W        W57682   9.811  24.444   3.175
92423W        W57683  16.327  35.302   0.121
92424W        W57684  20.661  44.474   0.834
92425W        W57685   4.699  25.721  11.539
92426W        W57686   0.083  44.888  13.555
92427W        W57687  11.641   6.328   1.293
92428W        W57688   9.289  18.493   0.424
92429W        W57689  37.416   1.153   1.876
92430W        W57690   2.003  26.078   4.728
92431W        W57691  40.522   7.799   0.273
92432W        W57692  32.648  30.857   3.637
92433W        W57693  25.294  39.949  11.523
92434W        W57694  22.873  30.739  14.384
92435W        W57695  30.460  32.327  12.515
92436W        W57696  32.103  13.173  11.734
92437W        W57697  40.791  15.778  14.403
92438W        W57698  41.592  22.307   4.237
92439W        W57699  27.700  35.975  13.834
92440W        W57700  43.581  22.864   0.960
92441W        W57701   1.223   5.489  10.914
92442W        W57702  34.196  37.547  11.278
92443W        W57703  18.949  10.396  12.661
92444W        W57704  37.293  39.259  14.444
92445W        W57705   3.967  35.313   0.938
92446W        W57706  41.267  21.306   0.766
92447W        W57707  22.621  39.033   0.249
92448W        W57708  24.120   4.219  12.655
92449W        W57709  23.112  35.067   1.176
92450W        W57710   7.262  17.809  11.635
92451W        W57711  33.967  16.110  11.566
92452W        W57712  43.604  20.739  11.113
92453W        W57713  12.739  11.237   1.125
92454W        W57714  32.350   3.475   1.186
92455W        W57715  17.031   5.473   4.563
92456W        W57716  44.784   6.781   0.432
92457W        W57717  27.151  22.726   3.200
92458W        W57718  35.272  43.051   1.285
92459W        W57719  21.169  26.257  12.987
92460W        W57720  23.048  28.571   4.542
92461W        W57721   6.780   9.854   2.709
92462W        W57722  18.702   7.965  11.078
92463W        W57723  11.407  23.967  11.217
92464W        W57724  13.668   5.309  11.012
92465W        W57725  13.701  26.594   1.700
92466W        W57726  23.997   0.263   1.306
92467W        W57727   4.416  10.867   3.192
92468W        W57728  41.367  20.405   2.817
92469W        W57729  37.958  32.200  13.598
92470W        W57730  43.522  21.709   0.485
92471W        W57731  18.797   1.016  11.527
92472W        W57732   6.885  22.773  12.554
92473W        W57733  29.006   4.286   2.611
92474W        W57734  42.155  17.152   4.041
92475W        W57735  40.111  39.895  13.466
92476W        W57736  27.159  18.195   3.717
92477W        W57737  25.117   0.920   0.685
92478W        W57738  41.091  40.012   1.863
92479W        W57739   7.465  38.355   2.804
92480W        W57740  18.355  14.181  11.317
92481W        W57741  38.378  40.012  11.191
92482W        W57742  31.524  34.804  10.713
92483W        W57743   2.959   8.090  13.055
92484W        W57744   3.804   8.180  14.856
92485W        W57745  10.013  40.827  12.792
92486W        W57746   1.777  29.848  10.980
92487W        W57747   2.560  30.915   3.106
92488W        W57748  28.604  30.725  10.630
92489W        W57749  20.264  24.628   1.308
92490W        W57750  21.688  25.818   0.387
92491W        W57751  32.970  40.326   0.234
92492W        W57752  21.601  20.330  10.911
92493W        W57753   3.456  34.117   2.906
92494W        W57754  37.270   6.108  11.190
92495W        W57755   9.403  17.525   0.367
92496W        W57756   3.636  43.468   4.144
92497W        W57757  16.350  40.968  11.505
92498W        W57758   8.781   3.781   0.997
92499W        W57759   6.351  34.701  11.104
92500W        W57760  41.087   3.959   4.263
92501W        W57761   8.093  15.388   9.829
92502W        W57762  27.625  40.055  14.931
92503W        W57763  20.573   7.808   3.597
92504W        W57764  17.624  11.675  11.934
92505W        W57765  20.139  10.753  10.852
92506W        W57766  17.551  11.174  10.682
92507W        W57767  41.501   2.307   5.118
92508W        W57768  40.243  42.704  10.405
92509W        W57769   4.672  12.028  13.329
92510W        W57770  28.320  25.195  14.581
92511W        W57771  20.834  18.299   3.796
92512W        W57772  44.037  35.118  12.587
92513W        W57773  26.099  43.095   4.635
92514W        W57774  22.622  21.444  14.366
92515W        W57775  21.163  34.990  13.871
92516W        W57776   0.777  20.701  12.179
92517W        W57777  21.314  18.675  12.942
92518W        W57778  33.307  39.500  10.716
92519W        W57779  25.152   4.907  13.536
92520W        W57780  15.203  18.830   2.852
92521W        W57781  23.349  35.894   3.542
92522W        W57782  34.861   0.960  14.458
92523W        W57783  14.397  30.062  11.233
92524W        W57784  41.963  36.567   0.313
92525W        W57785  22.324   2.966   0.279
92526W        W57786   9.848  40.866  14.722
92527W        W57787  37.647  44.503   2.455
92528W        W57788  40.724  30.184   2.748
92529W        W57789  26.706   4.177   2.178
92530W        W57790  31.169  28.120  12.407
92531W        W57791   1.738  35.201   3.290
92532W        W57792   5.824  14.620  13.903
92533W        W57793  25.189  35.545   0.413
92534W        W57794  10.469  42.806  11.630
92535W        W57795   8.236  30.645   2.857
92536W        W57796   0.658   0.888  10.615
92537W        W57797  25.514  26.290   0.060
92538W        W57798   2.444  17.344   1.862
92539W        W57799  29.041  26.143  14.949
92540W        W57800  38.127  27.445   0.246
92541W        W57801  39.563  19.090  12.509
92542W        W57802  31.986   4.052  13.507
92543W        W57803   8.474  28.986  14.765
92544W        W57804  28.088  30.102  10.428
92545W        W57805   1.005   7.874   1.321
92546W        W57806  11.685  10.691  14.025
92547W        W57807  38.838  39.287  10.619
92548W        W57808  32.442  19.223  11.243
92549W        W57809  38.940  29.841  13.358
92550W        W57810  30.432  38.953   3.809
92551W        W57811  16.998   0.059   3.280
92552W        W57812  15.061  17.257  13.352
92553W        W57813  26.945   2.160  13.894
92554W        W57814  33.335  32.629   2.899
92555W        W57815  28.596   2.458  13.994
92556W        W57816  15.893   1.130   1.380
92557W        W57817   7.619  43.479  14.303
92558W        W57818  36.801  16.300   0.012
92559W        W57819  21.464  39.598   3.878
92560W        W57820  30.476   1.396   2.044
92561W        W57821  20.139   2.288  13.787
92562W        W57822  12.578   5.252   3.228
92563W        W57823   1.514   6.859  14.374
92564W        W57824  36.469  25.417  14.397
92565W        W57825   4.134  27.586   0.841
92566W        W57826  42.519   9.705  13.423
92567W        W57827  30.051   7.225   3.174
92568W        W57828  44.032  31.439  12.085
92569W        W57829  21.665   4.245  11.536
92570W        W57830  26.137   1.458   0.920
92571W        W57831  40.832  12.512  13.391
92572W        W57832  24.379  22.972   5.035
92573W        W57833  35.938  29.149   2.660
92574W        W57834  20.579  27.732   1.737
92575W        W57835  36.783   0.108   0.088
92576W        W57836  30.390   8.209  11.694
92577W        W57837  22.116   6.229  12.576
92578W        W57838  27.235  24.453   0.855
92579W        W57839  38.832  29.939   2.115
92580W        W57840  24.662  28.934  12.454
92581W        W57841  44.335  22.618   2.836
92582W        W57842  41.130   1.559  13.130
92583W        W57843  33.595  12.814   4.661
92584W        W57844  31.634  31.680   2.414
92585W        W57845  41.819  34.370  10.922
92586W        W57846  27.016  30.663   2.716
92587W        W57847  31.452  19.034  12.304
92588W        W57848   3.002  14.702   2.651
92589W        W57849  25.663  15.836   4.521
92590W        W57850  41.101   0.128   0.874
92591W        W57851  17.170  31.085   2.293
92592W        W57852   8.748   4.341   1.901
92593W        W57853  39.779  29.678   1.699
92594W        W57854   3.896  20.063  13.019
92595W        W57855  16.713  11.241  12.822
92596W        W57856  34.822  29.601  13.779
92597W        W57857  25.557  26.602   1.666
92598W        W57858  13.352  31.549   4.367
92599W        W57859  35.027  19.202   0.535
92600W        W57860  16.639  11.742  14.521
92601W        W57861   7.391   4.960  13.159
92602W        W57862   6.317  37.929  14.514
92603W        W57863  30.758  13.884  10.445
92604W        W57864  14.812   9.094  14.251
92605W        W57865   5.787  23.715   4.828
92606W        W57866  18.128   4.685   4.919
92607W        W57867  24.739   9.277  11.755
92608W        W57868  31.109  28.845  13.970
92609W        W57869  14.874  35.608  10.662
92610W        W57870  13.184  20.476  14.956
92611W        W57871  33.654  16.470  10.251
92612W        W57872   2.958   6.797  11.996
92613W        W57873  14.267  16.237  11.149
92614W        W57874   8.228   0.195  10.313
92615W        W57875  30.646  41.079   3.712
92616W        W57876  43.334  27.768   0.320
92617W        W57877  24.822  13.308  14.317
92618W        W57878  44.767  17.732   2.931
92619W        W57879  23.172  43.649   4.495
92620W        W57880  13.329  36.604   0.345
92621W        W57881  22.585  34.314  13.905
92622W        W57882  39.874  23.145  13.405
92623W        W57883  28.230  29.537   2.688
92624W        W57884  15.721  25.092  11.576
92625W        W57885  12.807  44.497   0.305
92626W        W57886  12.182  15.635  11.962
92627W        W57887   1.036   9.955   2.421
92628W        W57888   0.889   7.752   3.729
92629W        W57889  40.975  25.064  13.315
92630W        W57890  22.175  37.799  13.032
92631W        W57891  12.319  32.834  10.802
92632W        W57892  31.409  13.793  14.399
92633W        W57893  19.243  24.779   1.794
92634W        W57894  25.453  32.371  14.776
92635W        W57895   7.652  38.825   0.335
92636W        W57896  34.450  22.864   3.612
92637W        W57897  38.274  32.995   0.346
92638W        W57898   5.406  37.994  10.956
92639W        W57899  39.762   0.367   3.163
92640W        W57900  34.885  23.059  14.800
92641W        W57901  18.671   9.048   1.165
92642W        W57902   9.017  13.164  12.326
92643W        W57903  24.366  26.285  11.189
92644W        W57904  38.291  44.064   1.386
92645W        W57905  34.521  35.570   1.075
92646W        W57906  18.226   5.828   4.149
92647W        W57907  28.087  16.790  14.251
92648W        W57908   3.403  25.431   0.006
92649W        W57909  12.395  35.016  11.612
92650W        W57910  29.365  24.972   5.041
92651W        W57911  32.500  13.880  12.102
92652W        W57912  24.509  39.071  14.848
92653W        W57913   6.809   9.780  13.380
92654W        W57914  41.037  42.358  14.524
92655W        W57915  12.254  37.841   4.383
92656W        W57916  16.238  23.078  12.001
92657W        W57917  15.950  21.275  10.797
92658W        W57918   9.938  21.868  11.520
92659W        W57919   0.981  19.523   0.137
92660W        W57920  44.459  28.899   2.265
92661W        W57921  12.147  37.878   0.481
92662W        W57922  15.514   8.236   9.759
92663W        W57923   6.212  13.396   2.386
92664W        W57924  43.840  42.466   0.776
92665W        W57925  35.577  14.709  14.389
92666W        W57926  42.615  17.631   1.771
92667W        W57927  29.423  39.350   1.583
92668W        W57928  14.958  24.216  12.998
92669W        W57929  20.313  28.495   2.783
92670W        W57930  14.276  27.083  11.936
92671W        W57931  27.234  42.802   0.488
92672W        W57932  36.032  29.667   4.680
92673W        W57933  39.599  17.871  13.409
92674W        W57934  22.745   1.776  12.440
92675W        W57935   3.861   0.677  11.261
92676W        W57936  22.034  39.885   0.369
92677W        W57937  23.161  25.235   4.465
92678W        W57938  20.504  29.919   3.219
92679W        W57939   3.246  36.529  11.561
92680W        W57940  40.911  25.979  12.476
92681W        W57941  33.915  27.476   2.374
92682W        W57942  24.710  13.248   4.374
92683W        W57943  18.497  22.239  12.106
92684W        W57944   1.738  27.249   1.796
92685W        W57945  40.510  32.140  12.532
92686W        W57946  44.825   2.766  14.315
92687W        W57947  40.815  13.229   1.230
92688W        W57948  39.464   4.792   4.597
92689W        W57949  11.555  10.906   3.210
92690W        W57950   1.305  17.542  12.330
92691W        W57951   7.652  21.361   2.828
92692W        W57952   3.477   8.409  12.227
92693W        W57953  15.771  39.277  14.345
92694W        W57954  13.656  37.090   3.236
92695W        W57955   2.483  17.602   1.313
92696W        W57956   2.881  14.796   1.653
92697W        W57957   5.398  25.537  13.498
92698W        W57958  21.706  22.894  12.468
92699W        W57959  27.581  20.377  11.578
92700W        W57960  40.003   5.274   3.863
92701W        W57961   3.056  25.487   0.799
92702W        W57962  44.160  10.455   2.302
92703W        W57963   3.831  41.372   1.337
92704W        W57964  35.798  26.659  13.834
92705W        W57965  21.900  44.723   0.965
92706W        W57966  17.998   5.689   4.588
92707W        W57967  10.282  10.730   0.898
92708W        W57968  39.032   0.535  14.834
92709W        W57969   9.762   7.236  14.261
92710W        W57970  32.191  27.886   9.837
92711W        W57971  13.668  37.567   0.330
92712W        W57972   8.314   9.602   2.384
92713W        W57973   9.663   4.974   4.576
92714W        W57974  41.700  43.342  12.954
92715W        W57975  27.066  31.702   2.872
92716W        W57976  37.928   6.567  12.917
92717W        W57977  24.972  20.184   0.261
92718W        W57978  33.811  31.137   0.295
92719W        W57979  38.560  15.975   2.217
92720W        W57980  21.124  23.020   0.507
92721W        W57981  25.011  42.107   4.128
92722W        W57982   0.457  12.349  12.266
92723W        W57983   3.659  17.757  11.998
92724W        W57984  35.289   4.327   1.215
92725W        W57985  42.762  19.209   3.128
92726W        W57986   1.779  30.871  10.562
92727W        W57987  11.385  35.344  14.374
92728W        W57988   5.911  26.683   2.699
92729W        W57989   8.919  32.981   1.846
92730W        W57990  37.981  16.492   2.703
92731W        W57991   6.164   3.843  13.359
92732W        W57992  20.724  23.226  11.595
92733W        W57993  32.981   9.624  14.864
92734W        W57994  14.146   2.638   4.211
92735W        W57995  26.096  20.517   2.564
92736W        W57996   6.715  22.099   2.242
92737W        W57997  44.557  29.030   3.118
92738W        W57998  18.091   1.750  11.145
92739W        W57999  36.926  36.740  10.839
92740W        W58000   4.006   3.563  14.279
92741W        W58001   2.883  29.498   0.882
92742W        W58002  17.946   4.205   0.259
92743W        W58003  25.562  28.932  12.118
92744W        W58004   1.306  44.965  12.557
92745W        W58005   3.795  42.514  14.734
92746W        W58006   5.702  27.016  14.519
92747W        W58007  34.087  27.179   1.964
92748W        W58008  10.576   1.461   1.554
92749W        W58009   7.970  44.449   2.612
92750W        W58010   9.942  23.488  14.999
92751W        W58011  38.982  42.012  14.398
92752W        W58012  14.652  30.152   0.502
92753W        W58013  11.145   2.051  12.469
92754W        W58014   3.017  18.795   1.544
92755W        W58015  12.580  34.081   4.447
92756W        W58016   5.929  37.059   4.131
92757W        W58017  15.751  22.237   2.705
92758W        W58018   5.172  32.471   1.741
92759W        W58019   0.437  31.198   3.786
92760W        W58020  15.776  27.672   4.105
92761W        W58021   5.205  17.658   3.391
92762W        W58022  16.703   1.348   4.115
92763W        W58023   8.257  35.976  11.803
92764W        W58024  42.295  34.844   2.890
92765W        W58025  20.513  42.978  14.801
92766W        W58026  14.962   9.882  10.437
92767W        W58027  41.350  32.049   4.249
92768W        W58028   3.994   4.185  10.700
92769W        W58029   9.282   6.479   2.335
92770W        W58030  18.684  25.188  11.615
92771W        W58031  14.831  36.899   4.748
92772W        W58032   2.792   4.659  11.180
92773W        W58033  23.355  24.416   4.541
92774W        W58034   1.298  12.277  13.872
92775W        W58035  18.055   3.223   1.479
92776W        W58036   6.540  15.632   0.208
92777W        W58037  33.217  28.696   4.095
92778W        W58038   9.347  13.120   4.773
92779W        W58039  16.632  25.514  11.518
92780W        W58040  24.286  20.230   1.394
92781W        W58041   0.479  43.256  14.343
92782W        W58042  35.101  36.956   2.763
92783W        W58043   5.995  39.583  13.972
92784W        W58044  17.390  34.120  14.955
92785W        W58045  29.441  10.158  13.324
92786W        W58046  32.556   3.475  14.005
92787W        W58047  17.081  27.424   1.572
92788W        W58048  37.414  35.853  12.097
92789W        W58049  30.604   4.713   4.451
92790W        W58050   9.385  43.878  11.130
92791W        W58051   2.831  13.289  10.778
92792W        W58052   6.963   5.729   4.691
92793W        W58053  26.366  22.784  14.891
92794W        W58054   4.814  19.514  13.445
92795W        W58055  42.285   1.993  10.995
92796W        W58056  42.492  25.280   4.694
92797W        W58057   6.977  13.723  13.496
92798W        W58058   6.735  22.657   1.858
92799W        W58059  27.527  42.689   3.640
92800W        W58060  40.355   7.660   4.587
92801W        W58061  34.385  32.478   1.420
92802W        W58062   0.490   6.576  10.741
92803W        W58063   8.374  28.130   3.114
92804W        W58064   1.651  30.485  11.723
92805W        W58065   6.172  15.817  10.746
92806W        W58066  18.027  21.763   1.640
92807W        W58067  34.935  11.639   3.653
92808W        W58068  28.393  13.321   4.370
92809W        W58069  22.347   6.295  12.126
92810W        W58070  36.417   2.571  11.656
92811W        W58071   5.693  30.629   0.328
92812W        W58072  35.480   9.997  12.465
92813W        W58073  26.084  41.077  11.217
92814W        W58074  17.628  43.243  11.573
92815W        W58075   9.496  17.261  13.175
92816W        W58076  36.032   5.654  14.290
92817W        W58077   4.242  10.681  10.564
92818W        W58078   6.203   9.796  11.515
92819W        W58079  29.365  41.808  10.761
92820W        W58080  23.712  14.458   3.627
92821W        W58081  32.597  12.188   3.393
92822W        W58082  44.829  27.728  13.349
92823W        W58083  37.412  28.221   2.155
92824W        W58084  24.071  36.921  14.717
92825W        W58085   1.243  30.334  14.298
92826W        W58086  26.531  41.729  11.955
92827W        W58087  11.681  36.022  14.362
92828W        W58088  27.844   5.198   2.803
92829W        W58089  14.723  23.473  14.781
92830W        W58090   0.198  28.674   1.300
92831W        W58091  32.005  26.561   1.146
92832W        W58092  26.176  13.559  10.519
92833W        W58093   8.799  33.108   2.378
92834W        W58094  40.457   6.396   0.429
92835W        W58095  10.315  40.039   3.305
92836W        W58096  14.791   8.325  11.682
92837W        W58097   7.245   5.497   2.451
92838W        W58098  42.469   2.274   2.751
92839W        W58099  39.020  10.240  13.440
92840W        W58100  36.044  40.758   4.646
92841W        W58101  33.200   4.083   0.475
92842W        W58102  44.960   1.867   1.899
92843W        W58103   8.606  40.965  13.206
92844W        W58104  42.289  14.212   2.255
92845W        W58105  39.929  13.297   1.465
92846W        W58106  41.054   1.975   4.120
92847W        W58107  32.910  33.116   0.141
92848W        W58108  18.519  44.803   2.253
92849W        W58109  36.164   0.404  14.404
92850W        W58110  38.724  16.977  12.830
92851W        W58111  42.026  30.300  10.259
92852W        W58112   4.711  42.012  10.603
92853W        W58113  18.781  10.692  13.028
92854W        W58114  23.424  23.723   2.374
92855W        W58115  36.517  25.873   0.536
92856W        W58116  36.791  13.824   2.021
92857W        W58117   7.865   7.950  12.002
92858W        W58118  22.577  24.456   3.575
92859W        W58119  29.017  21.076   1.192
92860W        W58120  21.147  30.994   2.311
92861W        W58121  27.577  26.997   2.339
92862W        W58122  19.308  31.635  14.711
92863W        W58123  36.644   6.241  13.668
92864W        W58124   7.306  22.438  12.477
92865W        W58125   8.109   7.418  12.582
92866W        W58126   5.430   0.940  10.643
92867W        W58127   3.179  19.953   2.343
92868W        W58128  18.005  19.058  14.106
92869W        W58129  30.476  14.376  14.411
92870W        W58130  25.302  30.108  13.354
92871W        W58131  22.740   8.257  14.547
92872W        W58132   7.142  13.186   3.131
92873W        W58133  18.146  42.744  13.870
92874W        W58134  25.154  19.280   3.071
92875W        W58135  28.525  12.272   0.152
92876W        W58136  43.841  14.104   2.662
92877W        W58137  41.788   2.485  10.685
92878W        W58138  20.672  18.761   0.955
92879W        W58139  14.044  20.673   2.210
92880W        W58140   2.988  18.782  12.115
92881W        W58141  37.109  43.329  13.480
92882W        W58142  16.295  16.552   3.788
92883W        W58143  14.655  38.114  11.950
92884W        W58144  21.141   4.312  11.584
92885W        W58145  23.985  18.694   2.838
92886W        W58146   7.771  20.475   2.263
92887W        W58147  11.000  34.604   3.991
92888W        W58148  21.955   0.320   4.564
92889W        W58149  11.198  24.203  12.997
92890W        W58150   4.851  43.185  13.308
92891W        W58151  26.035  22.472   4.556
92892W        W58152  44.860  26.627   3.257
92893W        W58153  39.053  35.103   4.168
92894W        W58154   4.667  13.591   3.715
92895W        W58155   6.347  17.796  11.622
92896W        W58156  41.872  17.834   2.185
92897W        W58157  20.738  39.324   1.289
92898W        W58158  23.006  22.569  10.671
92899W        W58159   9.488  31.107  14.363
92900W        W58160  33.122   4.212   2.318
92901W        W58161  13.888  13.902  11.135
92902W        W58162  18.774  11.128   2.243
92903W        W58163  29.177  18.589  12.531
92904W        W58164  17.080  19.259   2.941
92905W        W58165  10.615  25.323  10.336
92906W        W58166   9.115  33.902  10.629
92907W        W58167   1.655  42.523   4.703
92908W        W58168  41.703   0.496  13.496
92909W        W58169  11.201   8.336   2.038
92910W        W58170   5.684  10.477  10.229
92911W        W58171   4.975  29.297   4.884
92912W        W58172  22.976   2.020  14.809
92913W        W58173  20.032  17.765   2.565
92914W        W58174  38.478  16.378  12.822
92915W        W58175   1.283  35.528  12.894
92916W        W58176  34.899  23.004  12.115
92917W        W58177   1.325  23.985   5.441
92918W        W58178   1.484  29.556   1.793
92919W        W58179  38.384  21.409  10.965
92920W        W58180  39.531   3.947   2.160
92921W        W58181  19.062  34.428   2.725
92922W        W58182  15.249  23.665  14.761
92923W        W58183   5.242  43.283   4.911
92924W        W58184  43.542  27.166   3.750
92925W        W58185  40.041  10.120  10.940
92926W        W58186  16.350   2.717   2.666
92927W        W58187  41.532  30.989   1.846
92928W        W58188  42.818  25.594   4.998
92929W        W58189  37.818  34.832   3.693
92930W        W58190   2.210  40.432  13.519
92931W        W58191   7.686  19.447   0.435
92932W        W58192  33.681  15.289   0.010
92933W        W58193  28.133   6.959   0.329
92934W        W58194  11.260   8.388  12.416
92935W        W58195   7.383  30.635   2.394
92936W        W58196  15.253  37.474  12.493
92937W        W58197  11.450  39.932  11.098
92938W        W58198  13.452  29.547   1.073
92939W        W58199  26.166  32.984  11.687
92940W        W58200  16.638  34.845   4.555
92941W        W58201  26.208  40.803   2.197
92942W        W58202  13.553  16.019  12.918
92943W        W58203   2.238  38.405   2.793
92944W        W58204  38.473  28.516   2.888
92945W        W58205  30.187  41.767   4.615
92946W        W58206   9.744  27.200  11.767
92947W        W58207  22.500  38.195   3.729
92948W        W58208  19.793  25.960  12.273
92949W        W58209  20.315  28.143  13.814
92950W        W58210  37.609  35.981   3.184
92951W        W58211   2.764  33.706   3.296
92952W        W58212   7.806   5.778   1.183
92953W        W58213  16.695  28.990   2.905
92954W        W58214  26.640  24.346   4.771
92955W        W58215   3.098  14.535  14.601
92956W        W58216   4.967   0.875   4.583
92957W        W58217  21.328   4.076  13.581
92958W        W58218   7.699  10.925   1.665
92959W        W58219  34.874  36.907   1.828
92960W        W58220  34.507  34.091  12.627
92961W        W58221  14.395  26.754  12.385
92962W        W58222  44.721   1.310   4.626
92963W        W58223   4.626   9.211   0.806
92964W        W58224  28.401  27.457   0.042
92965W        W58225  28.670  33.378  10.738
92966W        W58226  26.305  18.371  14.752
92967W        W58227  27.546  35.108  12.556
92968W        W58228  22.159  33.168  11.655
92969W        W58229  11.971   0.281  11.925
92970W        W58230  19.636   4.720   3.207
92971W        W58231   1.139  10.721  10.235
92972W        W58232  40.751  24.287   3.790
92973W        W58233   4.366  20.884   3.997
92974W        W58234  31.702   5.452  11.373
92975W        W58235  35.480  28.853   3.273
92976W        W58236   6.375  24.531   0.741
92977W        W58237  43.960  37.466  11.259
92978W        W58238   7.815   4.412   0.289
92979W        W58239  17.548  26.075  12.077
92980W        W58240   2.008  20.128  14.522
92981W        W58241  28.567  37.429   4.278
92982W        W58242  43.885   7.879   4.822
92983W        W58243  11.555   3.924  10.493
92984W        W58244  14.440  33.885  11.020
92985W        W58245  40.343   1.511   3.741
92986W        W58246  39.450  33.125   5.026
92987W        W58247   1.833  15.221  13.065
92988W        W58248  23.015  40.913   4.424
92989W        W58249  16.979  23.778   3.274
92990W        W58250  38.076   3.442   3.840
92991W        W58251  21.762  18.560  12.530
92992W        W58252  34.594  40.351   0.359
92993W        W58253   8.156   2.978   0.955
92994W        W58254  41.879  27.009  11.377
92995W        W58255  29.957  29.655  10.578
92996W        W58256  36.904  27.972  11.651
92997W        W58257  29.641   6.038  13.706
92998W        W58258  10.743  13.095  11.489
92999W        W58259  40.594  39.337  12.125
93000W        W58260  14.071  21.244  12.578
93001W        W58261  28.476  42.068   0.388
93002W        W58262  18.757  43.305  14.514
93003W        W58263  24.681  23.175  11.742
93004W        W58264   9.620  16.196  11.881
93005W        W58265  33.986  40.323  12.393
93006W        W58266  25.143   5.946   4.297
93007W        W58267  34.552  26.985  13.397
93008W        W58268  14.847  28.615  12.639
93009W        W58269   7.165  28.477   1.946
93010W        W58270  38.027  14.040   2.058
93011W        W58271   4.240  26.076  12.017
93012W        W58272  20.031   9.131  12.981
93013W        W58273  29.464   0.749  11.473
93014W        W58274  35.997  39.378   4.382
93015W        W58275  20.569  30.526   4.903
93016W        W58276  35.322  35.613   0.431
93017W        W58277   7.177  12.974  11.090
93018W        W58278  44.632  38.384  12.725
93019W        W58279  24.942  26.120   0.579
93020W        W58280   6.773  13.740   1.413
93021W        W58281  15.696  39.002   0.811
93022W        W58282  40.829  20.996  14.459
93023W        W58283  29.944   2.023   3.121
93024W        W58284  11.360  21.255   0.953
93025W        W58285  25.829  40.052   5.059
93026W        W58286   7.494  20.049  11.028
93027W        W58287   0.906  33.463   1.206
93028W        W58288  30.916  38.086  10.750
93029W        W58289  32.153  34.611   2.322
93030W        W58290  11.539  44.285   2.194
93031W        W58291   6.254  27.217   0.392
93032W        W58292  18.089  15.521  13.900
93033W        W58293  13.146  16.589   3.808
93034W        W58294  11.116  38.309  14.498
93035W        W58295  30.420  39.789  14.380
93036W        W58296  33.449  36.570   0.675
93037W        W58297  42.550   4.933   2.213
93038W        W58298  17.507  32.250   0.469
93039W        W58299  12.680   5.623   3.565
93040W        W58300   3.097  21.502   4.617
93041W        W58301  10.548  27.115  12.879
93042W        W58302  15.815  33.382  10.762
93043W        W58303   3.450  41.978  12.106
93044W        W58304   3.338  43.678  14.906
93045W        W58305  15.520   5.351  13.472
93046W        W58306  14.255   0.284  12.546
93047W        W58307  24.612  28.903  14.015
93048W        W58308   7.774   7.181   9.944
93049W        W58309  27.574  27.210   4.499
93050W        W58310  20.538  20.131  13.036
93051W        W58311   6.241   8.866   3.599
93052W        W58312  25.066  39.852   2.975
93053W        W58313  31.123  38.899  11.376
93054W        W58314  36.202  42.273   0.937
93055W        W58315  10.425  32.744   1.419
93056W        W58316  23.556   6.969   5.126
93057W        W58317   8.825  19.541   4.314
93058W        W58318  31.534  42.525   4.840
93059W        W58319   1.319  31.035   3.823
93060W        W58320  15.639  27.567  11.961
93061W        W58321  19.082  17.749   2.971
93062W        W58322  24.252   1.839   2.743
93063W        W58323  15.032   5.679   1.790
93064W        W58324  43.040   9.430  10.661
93065W        W58325  17.875  27.179   4.814
93066W        W58326  21.578   7.828   3.021
93067W        W58327  17.184  25.750  10.937
93068W        W58328  29.783  39.218  11.414
93069W        W58329  13.019  39.963   4.175
93070W        W58330  36.843   9.277  14.162
93071W        W58331  40.386  15.321   2.211
93072W        W58332  13.804  17.157  11.538
93073W        W58333   5.799  20.025  13.557
93074W        W58334  19.745  10.113   0.069
93075W        W58335  20.540  42.861   0.732
93076W        W58336  10.182  24.559  14.540
93077W        W58337  32.532  31.128   4.527
93078W        W58338   2.941   0.031   1.654
93079W        W58339  38.457  19.861   0.966
93080W        W58340  23.648  36.738  13.050
93081W        W58341   5.292  26.992   5.081
93082W        W58342  43.226   8.969   4.232
93083W        W58343  20.257  39.118   1.510
93084W        W58344  37.588   8.800   3.224
93085W        W58345   9.193  28.738  14.381
93086W        W58346   5.192  25.646  13.986
93087W        W58347  19.600  42.665   3.574
93088W        W58348  38.065  29.787   2.853
93089W        W58349  40.874  37.853  13.038
93090W        W58350  39.625  33.603  11.354
93091W        W58351  40.258  32.384  12.129
93092W        W58352  31.920  28.225  11.121
93093W        W58353  32.656   2.428  13.942
93094W        W58354   5.049  22.693   4.664
93095W        W58355   6.620   0.710  14.815
93096W        W58356  17.263  16.774  14.881
93097W        W58357   6.654  16.221   3.387
93098W        W58358  34.475  14.886  14.746
93099W        W58359  22.869  13.203   3.160
93100W        W58360  21.564   6.920   1.414
93101W        W58361  31.474  26.150   2.269
93102W        W58362  10.861  20.553   0.044
93103W        W58363   1.234   1.483   0.032
93104W        W58364  12.120   8.924   5.090
93105W        W58365  26.550  38.372   1.882
93106W        W58366   0.629  18.810   4.270
93107W        W58367  43.569  11.221   0.006
93108W        W58368  23.642  42.793  14.919
93109W        W58369  30.103  31.472   1.392
93110W        W58370  20.706  25.970   3.421
93111W        W58371  13.560   2.720   1.824
93112W        W58372  25.075  13.034  13.010
93113W        W58373  36.358   9.290   3.399
93114W        W58374  16.587  22.671  12.076
93115W        W58375  29.101  13.549  14.691
93116W        W58376   9.851  23.500   4.580
93117W        W58377  26.084  26.482  11.672
93118W        W58378  32.591  20.164  10.697
93119W        W58379  44.038  17.476   1.298
93120W        W58380   1.449  42.976   3.170
93121W        W58381  42.398  15.848   1.121
93122W        W58382  41.827   6.413   3.151
93123W        W58383  30.478  29.076   0.370
93124W        W58384  15.291  41.482   2.385
93125W        W58385   7.199   4.925  11.625
93126W        W58386  38.916  16.700  11.548
93127W        W58387  38.388  42.045  11.560
93128W        W58388  39.986  33.741  11.682
93129W        W58389  20.426  41.859  14.594
93130W        W58390  34.367  35.377   3.259
93131W        W58391  12.658   1.716  12.304
93132W        W58392  38.042   3.331  13.999
93133W        W58393  23.614  15.634  13.006
93134W        W58394  43.735  26.485  12.320
93135W        W58395  29.554  40.513  10.775
93136W        W58396  11.582  24.733   2.670
93137W        W58397  20.076  13.662  10.735
93138W        W58398  32.027  10.150  14.990
93139W        W58399  30.780  11.818  13.830
93140W        W58400   1.436   7.162  14.952
93141W        W58401  15.097  26.145   2.343
93142W        W58402  15.653  18.069  13.251
93143W        W58403  25.190  32.899   0.503
93144W        W58404   7.855  36.036   4.074
93145W        W58405  37.569  14.647   3.576
93146W        W58406  21.977  12.462  12.674
93147W        W58407  11.228  31.470   0.319
93148W        W58408   9.391  13.585  14.869
93149W        W58409  12.046  20.121   3.702
93150W        W58410  15.033   7.456   2.267
93151W        W58411  25.405   8.155  12.024
93152W        W58412   1.450  24.801   3.721
93153W        W58413  28.268  43.038   2.200
93154W        W58414  17.177  40.268  13.602
93155W        W58415  44.907  39.881   2.647
93156W        W58416   3.875   6.663  14.005
93157W        W58417   7.787  36.587  10.799
93158W        W58418  30.106  24.433  13.442
93159W        W58419   0.979  44.040  14.750
93160W        W58420  34.902   2.973   4.147
93161W        W58421  14.697   2.917  13.257
93162W        W58422  17.965  23.694  12.099
93163W        W58423  42.736  27.614   2.837
93164W        W58424  36.070  30.209  11.007
93165W        W58425   6.295  20.736   2.087
93166W        W58426  10.183  41.740   2.211
93167W        W58427  28.537   7.344   4.439
93168W        W58428  40.009  23.772  10.766
93169W        W58429  14.428  34.416  11.543
93170W        W58430  27.986   0.523   2.614
93171W        W58431   0.170   9.838  12.838
93172W        W58432  20.847  28.652  11.550
93173W        W58433   7.862  29.447   0.989
93174W        W58434   3.874  21.655  14.066
93175W        W58435  10.882  29.908   2.877
93176W        W58436  13.804  34.071   3.131
93177W        W58437  22.471  34.420   1.345
93178W        W58438  35.906   2.751   2.931
93179W        W58439   8.673  14.722   2.834
93180W        W58440  11.309  35.512  10.711
93181W        W58441  11.451  31.613  12.530
93182W        W58442  37.898  19.635  14.359
93183W        W58443  37.146   0.295   3.782
93184W        W58444   7.146  32.549   2.764
93185W        W58445  25.178  11.104   4.487
93186W        W58446   5.232   7.748  11.003
93187W        W58447  15.775  40.300   3.119
93188W        W58448  30.362   2.446  12.822
93189W        W58449   4.187  29.718  13.959
93190W        W58450   5.789  21.323   1.668
93191W        W58451  12.454  20.665  11.629
93192W        W58452  11.919   3.252  13.810
93193W        W58453  27.476  10.584   0.334
93194W        W58454  15.881  39.387  11.638
93195W        W58455   3.918  43.760  11.957
93196W        W58456  16.836  30.628  10.635
93197W        W58457  24.341  25.226   4.712
93198W        W58458   5.707  11.331  12.381
93199W        W58459  18.152  27.433  11.733
93200W        W58460  32.835  18.574  14.476
93201W        W58461   4.490   9.976   0.002
93202W        W58462  18.367  29.503   3.216
93203W        W58463   1.882  19.971  10.737
93204W        W58464  35.036  32.367   0.255
93205W        W58465  22.624  35.912   1.050
93206W        W58466  23.480  12.376  12.057
93207W        W58467  44.847  19.149  11.462
93208W        W58468  32.628  26.125  11.168
93209W        W58469  11.741  32.329   5.018
93210W        W58470   9.730  33.378   3.975
93211W        W58471   1.276  34.431   2.317
93212W        W58472  10.182  25.869  11.558
93213W        W58473  16.445  37.377   1.728
93214W        W58474  18.174  44.765  11.091
93215W        W58475  28.392  24.945   0.363
93216W        W58476  42.951  38.793   0.115
93217W        W58477  40.428  16.684  10.605
93218W        W58478  38.900  28.696   4.118
93219W        W58479  42.544   8.477   1.302
93220W        W58480   1.432  23.183  10.292
93221W        W58481   6.706  18.252   4.693
93222W        W58482  15.536  17.178  13.545
93223W        W58483  44.915  16.814  14.819
93224W        W58484  13.124  31.194  11.560
93225W        W58485  11.649  40.824   4.921
93226W        W58486  24.763   2.606   3.761
93227W        W58487  22.551  34.374   3.554
93228W        W58488  18.979  21.224   2.579
93229W        W58489   5.239  39.538  13.466
93230W        W58490  15.609  10.104  12.895
93231W        W58491  27.960  24.657   1.327
93232W        W58492   8.292  42.058   0.083
93233W        W58493   4.078  23.118  13.200
93234W        W58494   2.872   1.352   4.403
93235W        W58495  11.717  31.717   3.137
93236W        W58496  28.136  18.351   3.846
93237W        W58497   8.954  20.071  12.432
93238W        W58498  23.103   7.592  14.781
93239W        W58499   7.801   6.415  14.354
93240W        W58500  42.495  36.577   1.225
93241W        W58501  38.487  41.567   0.138
93242W        W58502  30.704  40.115   1.693
93243W        W58503  14.619  19.612  13.893
93244W        W58504  42.879   1.989   1.371
93245W        W58505  43.312  40.253   0.758
93246W        W58506  30.865   6.840  13.471
93247W        W58507  35.416  21.599  11.998
93248W        W58508  18.134  30.974  10.605
93249W        W58509  41.832   1.751   0.826
93250W        W58510  10.441  26.400   1.704
93251W        W58511   6.418  14.737   4.158
93252W        W58512  31.652  40.271   3.102
93253W        W58513  13.573  28.073   1.451
93254W        W58514  21.136  21.829  13.921
93255W        W58515   7.315  28.380   1.455
93256W        W58516  21.734  42.273  11.612
93257W        W58517  28.056  26.461   0.321
93258W        W58518  24.033  14.892   0.741
93259W        W58519  18.065   2.780   1.769
93260W        W58520  23.248  17.141   2.149
93261W        W58521   2.868  18.375   1.242
93262W        W58522   1.505  38.383  11.216
93263W        W58523  41.332  29.698  13.788
93264W        W58524  44.596  23.474  11.507
93265W        W58525  13.747  10.704  13.855
93266W        W58526  39.404  27.467  10.607
93267W        W58527   0.230  24.460   4.456
93268W        W58528  33.138  31.601  13.527
93269W        W58529  25.480  13.599  12.973
93270W        W58530   7.491  36.451  12.157
93271W        W58531   5.895  26.668  12.149
93272W        W58532  22.093  38.318   0.322
93273W        W58533  13.623   7.714  12.482
93274W        W58534  42.416  24.226   3.941
93275W        W58535  32.431  16.814  12.033
93276W        W58536  43.981  37.491   2.437
93277W        W58537  22.010   3.531   2.313
93278W        W58538  27.749  22.717  14.493
93279W        W58539   1.796   4.630  12.899
93280W        W58540  15.870  19.321  14.770
93281W        W58541  14.470  28.649   1.210
93282W        W58542   4.021  14.278   2.938
93283W        W58543  31.006  31.520   3.052
93284W        W58544  10.170  34.016  13.439
93285W        W58545   2.375   6.121   3.284
93286W        W58546  39.517  39.373  11.157
93287W        W58547  44.584  39.760   0.847
93288W        W58548  14.047  18.605   3.215
93289W        W58549   4.466  25.512   3.908
93290W        W58550  23.097  40.553   1.984
93291W        W58551  33.012  30.125  14.960
93292W        W58552  19.226  41.067   2.145
93293W        W58553  35.835  24.716   2.922
93294W        W58554  20.259  11.584  14.071
93295W        W58555  40.513  33.539   4.505
93296W        W58556  36.696   2.765  10.672
93297W        W58557  24.157   1.038   3.073
93298W        W58558  27.014   6.077  10.357
93299W        W58559  21.851   7.156  11.096
93300W        W58560  10.404  18.302  12.440
93301W        W58561  15.286   0.819   4.520
93302W        W58562   3.193  23.069  12.694
93303W        W58563  44.633  11.304  11.596
93304W        W58564  31.022  21.013   0.271
93305W        W58565  17.540   2.900   3.723
93306W        W58566  16.044  30.226  12.123
93307W        W58567  34.201   0.353   4.261
93308W        W58568  31.401  43.819  12.915
93309W        W58569  19.680  27.580   4.527
93310W        W58570   3.612  30.453  10.359
93311W        W58571  41.078  40.023   3.194
93312W        W58572   7.198  15.370   2.089
93313W        W58573   5.615   5.235  13.565
93314W        W58574  40.935  10.423   4.660
93315W        W58575  35.923  16.553  14.068
93316W        W58576   0.196   8.721  14.950
93317W        W58577  43.775  27.575   2.455
93318W        W58578  42.749  27.415   1.286
93319W        W58579  16.518  12.863  11.625
93320W        W58580   9.067  16.796   2.308
93321W        W58581  22.463  14.162   2.662
93322W        W58582  20.753  13.810   2.292
93323W        W58583  16.670  20.109  13.042
93324W        W58584  12.230   3.810  13.944
93325W        W58585  17.973  13.231  11.178
93326W        W58586  33.254  18.224  10.747
93327W        W58587  16.604  26.139   0.791
93328W        W58588  12.469  30.708   4.086
93329W        W58589   2.051  22.696  14.977
93330W        W58590   4.844  40.527  12.608
93331W        W58591  36.398  21.978  14.967
93332W        W58592  10.852  12.287  11.987
93333W        W58593  42.345  34.135  11.546
93334W        W58594  44.808   6.882  10.935
93335W        W58595   0.437   2.507  11.109
93336W        W58596  35.521   5.806  11.363
93337W        W58597  38.697  15.865  14.414
93338W        W58598   9.834  33.095  14.466
93339W        W58599  33.983  18.786   0.768
93340W        W58600  32.966  26.773  13.048
93341W        W58601  44.700  20.453  12.529
93342W        W58602  28.979  16.197  14.494
93343W        W58603  30.135  16.726   3.127
93344W        W58604  44.133  35.535  10.722
93345W        W58605  29.940  13.753  11.471
93346W        W58606   9.419  31.319  12.624
93347W        W58607  16.270   3.147   0.227
93348W        W58608  34.046  23.998   0.257
93349W        W58609   5.675  22.163  14.020
93350W        W58610   7.096  25.337  13.380
93351W        W58611  15.334  25.407  13.876
93352W        W58612  17.990  36.331   0.327
93353W        W58613  35.078  20.585   4.641
93354W        W58614  31.223  13.911   3.391
93355W        W58615  21.494  22.605  13.389
93356W        W58616   0.348  36.486  12.506
93357W        W58617  31.118  12.270  11.585
93358W        W58618   1.360  42.413  14.000
93359W        W58619  30.503  18.473  10.456
93360W        W58620   0.949  19.253   4.585
93361W        W58621   2.028  42.597  12.934
93362W        W58622   3.412  42.014   0.439
93363W        W58623  31.496  18.277   4.939
93364W        W58624  40.771   8.356   2.174
93365W        W58625  22.082   3.512  13.527
93366W        W58626  24.972  31.947   3.679
93367W        W58627  22.737  24.914   1.629
93368W        W58628  25.061   9.191  13.426
93369W        W58629  12.188  18.060  14.830
93370W        W58630  20.551  26.424   1.239
93371W        W58631   9.410  19.376   0.860
93372W        W58632  12.047  43.726   4.009
93373W        W58633  22.912  35.512  14.421
93374W        W58634  25.710   8.209  10.160
93375W        W58635   9.925   7.412  12.881
93376W        W58636  40.231  37.966   2.050
93377W        W58637  20.990  38.294   4.101
93378W        W58638  36.987   5.952  14.686
93379W        W58639  26.558  33.682   1.546
93380W        W58640  34.825  36.516   3.686
93381W        W58641  38.573  28.969   1.215
93382W        W58642  26.372  26.112  14.804
93383W        W58643  39.502  11.766   1.332
93384W        W58644  28.687  35.069   1.267
93385W        W58645  40.934   2.253   4.556
93386W        W58646   9.093  14.320   0.826
93387W        W58647  26.179  21.024   2.673
93388W        W58648  15.713  23.051   3.122
93389W        W58649  19.745  35.923   3.167
93390W        W58650   4.271  36.853   3.667
93391W        W58651  21.086   4.382   2.522
93392W        W58652   5.173  12.886  11.083
93393W        W58653  13.689   8.288  10.187
93394W        W58654  24.106  24.911  10.626
93395W        W58655  22.095   3.342  14.400
93396W        W58656  10.587   1.186   0.360
93397W        W58657  29.986  22.532  14.957
93398W        W58658  34.414  40.419  12.828
93399W        W58659  14.699  39.917  11.818
93400W        W58660   5.697  28.463   1.211
93401W        W58661   5.883  16.295   2.171
93402W        W58662  43.736  44.637   2.351
93403W        W58663  16.859  22.704  12.544
93404W        W58664  40.457  37.903  12.338
93405W        W58665   3.750  13.211  13.065
93406W        W58666  10.854  18.324  11.543
93407W        W58667  21.870  17.858  13.092
93408W        W58668  43.260  12.825   0.378
93409W        W58669   8.296  22.800  10.624
93410W        W58670  22.053  31.147   2.882
93411W        W58671  35.032  26.295  14.513
93412W        W58672  43.923  28.649   1.825
93413W        W58673  17.765   9.780  12.909
93414W        W58674   6.166  14.934  10.598
93415W        W58675  19.595  13.575  12.537
93416W        W58676   7.213  31.827  13.752
93417W        W58677  22.087  16.852  11.225
93418W        W58678  18.582  17.368  12.575
93419W        W58679  25.096  40.600   4.287
93420W        W58680  24.573  12.792   4.551
93421W        W58681  35.627  39.814   3.847
93422W        W58682  21.076  17.211  12.449
93423W        W58683   4.433  29.563  13.464
93424W        W58684  10.736  25.415   2.168
93425W        W58685  22.704  18.867  12.226
93426W        W58686   4.161  43.523   4.126
93427W        W58687   3.692  29.903  11.236
93428W        W58688  12.641  27.538  14.049
93429W        W58689  31.791  15.099   1.318
93430W        W58690  18.624  13.317   2.476
93431W        W58691   1.259  20.039   1.332
93432W        W58692  24.680   7.987   1.942
93433W        W58693  28.391  43.321  12.087
93434W        W58694  14.773  30.954   1.841
93435W        W58695  20.177  44.075   1.191
93436W        W58696  11.674   2.490   0.894
93437W        W58697   1.168  27.489  12.215
93438W        W58698  25.574  34.469   0.411
93439W        W58699  24.420  17.720   0.544
93440W        W58700   0.317  37.523   1.640
93441W        W58701   5.660  37.523   4.092
93442W        W58702   8.704  34.468   3.856
93443W        W58703   8.590  11.206  13.508
93444W        W58704   9.920  16.195   0.785
93445W        W58705  33.331  13.802   0.827
93446W        W58706  36.926   3.246   0.315
93447W        W58707  20.584  28.256   4.055
93448W        W58708  28.700   2.441  14.897
93449W        W58709  35.939  31.164  10.631
93450W        W58710  43.238  31.361   0.399
93451W        W58711  41.440  36.621   0.387
93452W        W58712  22.023  21.665   4.860
93453W        W58713  22.749  27.629  13.314
93454W        W58714  29.167   6.816   1.221
93455W        W58715  39.481  15.634  12.479
93456W        W58716  39.676  43.009  14.857
93457W        W58717  35.642  41.207   4.197
93458W        W58718  34.868   2.892   0.250
93459W        W58719  21.590  37.968   1.255
93460W        W58720  32.067  44.909   0.418
93461W        W58721  14.606   4.359  14.532
93462W        W58722  22.597  37.683   0.874
93463W        W58723  16.230  40.587  10.701
93464W        W58724  37.764   9.252   3.066
93465W        W58725  34.013  41.032   1.860
93466W        W58726   0.232  29.039  11.568
93467W        W58727  28.442  21.784  10.750
93468W        W58728  32.901  33.009  14.070
93469W        W58729  21.125  21.104   9.742
93470W        W58730  22.350   2.908  11.514
93471W        W58731   6.750   7.373  13.858
93472W        W58732  34.963  34.996  13.408
93473W        W58733  26.023  10.492  11.653
93474W        W58734  41.406  43.911   3.258
93475W        W58735  29.477  21.514   1.805
93476W        W58736  19.362  20.956   2.349
93477W        W58737  17.853  18.703   4.079
93478W        W58738  27.645   9.179   1.800
93479W        W58739  18.032  40.334   3.836
93480W        W58740  32.234  27.092   3.241
93481W        W58741  17.228  39.458   3.281
93482W        W58742  15.690  40.536   5.171
93483W        W58743  29.692  12.418   0.369
93484W        W58744  28.477  20.242   3.623
93485W        W58745   5.884  43.821   0.419
93486W        W58746  14.782  23.642   0.296
93487W        W58747  18.763  23.778   2.757
93488W        W58748   0.635   9.433  11.109
93489W        W58749  15.288  20.588  14.574
93490W        W58750  30.431   7.061   2.848
93491W        W58751  27.779  13.515   2.702
93492W        W58752  31.026  16.549  13.866
93493W        W58753  11.395  15.256   2.891
93494W        W58754   6.854  21.089   3.556
93495W        W58755  34.722  39.786  12.093
93496W        W58756  44.894  24.687   2.815
93497W        W58757  13.809  22.103   2.613
93498W        W58758   3.844  40.536   0.510
93499W        W58759  19.154  33.878   3.614
93500W        W58760  23.246   2.691  13.380
93501W        W58761  38.813  14.322   1.853
93502W        W58762  35.966  37.525  11.433
93503W        W58763  37.229  21.482   1.130
93504W        W58764  39.765  22.086   1.508
93505W        W58765  12.970   9.149   0.775
93506W        W58766   1.499  28.512  10.218
93507W        W58767   8.594  20.297   2.801
93508W        W58768  24.539  13.704   4.201
93509W        W58769  23.743   1.673  10.021
93510W        W58770   2.474  29.551  11.401
93511W        W58771   6.157  16.770  11.616
93512W        W58772  39.489  44.533  13.574
93513W        W58773  10.877  37.058  13.608
93514W        W58774  41.051  24.081  12.908
93515W        W58775  43.817   9.364  11.200
93516W        W58776  43.184  36.412  11.643
93517W        W58777  41.426   3.613   1.807
93518W        W58778  21.002  17.810  14.296
93519W        W58779  35.842   0.057   0.794
93520W        W58780  34.801  43.183   3.583
93521W        W58781  41.900  15.833  12.490
93522W        W58782   8.701  16.423  13.822
93523W        W58783  33.525  17.486   0.874
93524W        W58784  22.055  32.144  11.484
93525W        W58785  13.157  25.718   4.572
93526W        W58786   9.699  41.910   3.334
93527W        W58787  23.066  17.667   0.906
93528W        W58788  41.292  19.161   3.322
93529W        W58789  42.015  37.359  14.765
93530W        W58790   0.699  38.813  11.122
93531W        W58791  37.236   0.146   4.961
93532W        W58792   7.268  16.690  14.509
93533W        W58793  29.887  36.037   3.742
93534W        W58794  11.621  11.626  13.604
93535W        W58795  35.183  33.061   4.600
93536W        W58796  44.907  41.972   0.516
93537W        W58797   9.673  17.788  13.830
93538W        W58798  40.547   1.003  10.308
93539W        W58799  41.561   9.297  13.998
93540W        W58800   5.360  11.314   1.877
93541W        W58801  14.865  32.771   4.254
93542W        W58802  30.201  18.647   1.837
93543W        W58803  26.982  17.266   4.912
93544W        W58804  30.604  11.624  14.824
93545W        W58805  23.939   0.732   1.573
93546W        W58806  30.084  24.392  14.282
93547W        W58807  44.431  44.766  12.061
93548W        W58808   5.345  26.515  11.518
93549W        W58809  25.559  12.901  13.841
93550W        W58810  15.701  21.574  14.482
93551W        W58811  33.585  14.812   4.478
93552W        W58812  22.084  16.080  14.161
93553W        W58813  14.717  26.833   4.884
93554W        W58814  35.630  21.218   3.629
93555W        W58815   4.953  23.672  10.197
93556W        W58816  41.228  27.623  14.606
93557W        W58817  37.970  36.910   4.143
93558W        W58818  11.961   7.629  11.034
93559W        W58819   2.255   5.289  12.361
93560W        W58820  11.696  14.027  10.297
93561W        W58821   9.591  26.160   1.726
93562W        W58822  39.792   1.628   1.199
93563W        W58823   0.138   2.533   2.764
93564W        W58824  21.510  32.318   4.028
93565W        W58825  23.978   1.382   2.728
93566W        W58826  31.466  39.098  11.989
93567W        W58827  42.557  15.616  12.982
93568W        W58828  39.069  38.929   4.144
93569W        W58829  34.947   9.702   0.766
93570W        W58830   1.366   7.596   2.203
93571W        W58831  41.507  11.765  13.468
93572W        W58832  26.742  15.677  14.819
93573W        W58833  12.401  13.137   1.135
93574W        W58834  39.435  37.823   1.658
93575W        W58835  37.785  24.381   3.370
93576W        W58836   2.927  14.352   1.909
93577W        W58837   8.900   3.283   0.272
93578W        W58838  12.386  11.193  14.560
93579W        W58839  37.911  22.624  13.830
93580W        W58840   5.897  20.587  13.031
93581W        W58841  22.225  36.398  13.879
93582W        W58842   8.550  16.826  14.631
93583W        W58843   1.058   0.931  10.935
93584W        W58844   1.195   2.754   1.115
93585W        W58845  44.369  36.551   1.699
93586W        W58846   3.057  33.929   4.878
93587W        W58847   8.719   6.586   0.443
93588W        W58848  26.361  35.874  13.548
93589W        W58849  17.296  25.262  12.581
93590W        W58850  36.101  44.177   0.494
93591W        W58851  33.798  27.110   0.675
93592W        W58852  12.884  36.217  12.442
93593W        W58853   0.927  36.106   1.812
93594W        W58854  25.647   6.892  14.374
93595W        W58855  36.868  44.929  12.056
93596W        W58856   2.230  29.889  14.936
93597W        W58857  33.944  11.320   4.810
93598W        W58858  36.827  34.140   4.460
93599W        W58859  36.131  26.327   3.675
93600W        W58860  23.432  37.227  13.092
93601W        W58861  36.214  19.674   4.879
93602W        W58862  19.278  44.740  14.221
93603W        W58863   1.943  11.511   2.370
93604W        W58864  29.030  26.548   4.148
93605W        W58865  43.882  44.826   3.310
93606W        W58866  41.393  37.675   2.632
93607W        W58867  26.040  32.452  10.941
93608W        W58868  41.114  14.230  11.483
93609W        W58869  21.535  34.446   4.184
93610W        W58870  27.143  33.840   3.666
93611W        W58871  12.749  16.785   4.105
93612W        W58872   7.431  23.650   0.922
93613W        W58873  18.539  36.985  14.827
93614W        W58874   9.848  34.069  12.766
93615W        W58875  35.619  21.718   3.744
93616W        W58876  19.604  42.274   0.050
93617W        W58877  10.439  22.267   1.328
93618W        W58878   9.168  26.444  12.140
93619W        W58879  20.525   1.890   1.956
93620W        W58880  25.876   9.666   0.203
93621W        W58881  38.913  41.878  12.216
93622W        W58882  29.837   4.417   3.099
93623W        W58883  42.985  15.960   2.149
93624W        W58884   2.519  15.834  14.028
93625W        W58885  31.135  29.934   3.165
93626W        W58886  18.363  43.859  13.244
93627W        W58887  20.939  42.281   3.718
93628W        W58888  34.651  30.738   1.527
93629W        W58889  35.592   2.025   0.881
93630W        W58890  38.012  39.935   3.613
93631W        W58891  33.118  10.836   1.670
93632W        W58892  27.274   4.566   2.123
93633W        W58893  37.558  13.541  13.491
93634W        W58894  29.942   5.939   2.917
93635W        W58895  11.494  13.347   2.650
93636W        W58896  39.869   0.716  13.583
93637W        W58897  34.041  42.266   0.658
93638W        W58898  15.437  38.589  11.137
93639W        W58899  16.226  29.248  14.703
93640W        W58900  35.469  12.237   2.120
93641W        W58901  20.352  27.608  14.151
93642W        W58902  24.299   9.826   4.212
93643W        W58903  13.704  38.446  14.995
93644W        W58904  33.508  30.015  13.454
93645W        W58905  38.474  27.483  11.508
93646W        W58906  21.782   3.570   2.766
93647W        W58907  30.579  22.151   4.588
93648W        W58908  22.502  10.580   3.262
93649W        W58909  17.189   9.450  13.959
93650W        W58910   2.378  22.442   0.300
93651W        W58911  39.313  25.736  12.756
93652W        W58912  15.272  31.169   3.315
93653W        W58913  22.529   1.375   0.818
93654W        W58914  34.838  40.424   1.453
93655W        W58915   1.748  41.574   2.404
93656W        W58916  23.485  33.542   4.241
93657W        W58917  26.875  26.956  14.403
93658W        W58918  10.225   8.093   0.639
93659W        W58919  44.829  14.272   4.913
93660W        W58920   7.816  22.551  10.694
93661W        W58921  33.958  32.420   1.125
93662W        W58922   9.701  33.124   0.338
93663W        W58923   0.281  37.861  12.351
93664W        W58924  27.875  29.383  14.338
93665W        W58925  40.800  35.078   0.568
93666W        W58926   9.149  34.911   3.143
93667W        W58927  42.319  21.138   1.312
93668W        W58928   5.674   8.635  14.774
93669W        W58929  35.080  35.994   9.969
93670W        W58930  14.664   7.646   5.460
93671W        W58931  42.456  35.370   1.752
93672W        W58932  27.450   2.739  13.251
93673W        W58933  22.361  35.062   4.147
93674W        W58934  10.561  40.190  11.197
93675W        W58935  16.596  40.388   4.789
93676W        W58936  12.621  18.991  10.619
93677W        W58937   0.288  27.842   1.751
93678W        W58938  39.743  10.158   4.199
93679W        W58939   8.428   6.837   2.280
93680W        W58940  31.967   3.225   0.920
93681W        W58941   2.543  42.808   1.867
93682W        W58942  30.001  21.388   1.408
93683W        W58943  13.149  37.300  14.035
93684W        W58944   2.747  28.373  14.541
93685W        W58945  32.517   4.769   4.124
93686W        W58946  32.056  27.483  11.605
93687W        W58947  41.776  29.541   4.368
93688W        W58948  35.217  39.536   2.674
93689W        W58949  40.021  14.878  10.639
93690W        W58950  23.931  20.589   1.425
93691W        W58951  27.221  26.196   0.402
93692W        W58952  16.136  10.522   3.733
93693W        W58953   5.226  21.047   2.386
93694W        W58954  19.162   8.906  14.606
93695W        W58955   0.342  41.554  13.430
93696W        W58956  14.696  27.173  12.558
93697W        W58957   1.376  40.024  12.174
93698W        W58958  11.584  10.346  12.723
93699W        W58959  13.367  23.241   1.424
93700W        W58960  23.667  16.240   0.880
93701W        W58961  11.569  24.937   3.127
93702W        W58962  33.641  12.139  13.997
93703W        W58963  29.635  13.812   0.273
93704W        W58964   6.280  38.397   3.202
93705W        W58965  36.823  44.301  14.403
93706W        W58966  30.039  20.799   3.839
93707W        W58967   5.479  27.122  14.974
93708W        W58968   2.522  37.026  11.566
93709W        W58969  21.149  39.050  11.977
93710W        W58970  42.352   3.261   4.160
93711W        W58971  43.376  40.470  10.664
93712W        W58972  42.878  28.211   3.699
93713W        W58973   8.923  25.034  12.013
93714W        W58974  37.264  39.498  11.445
93715W        W58975  42.360  33.068  11.669
93716W        W58976  16.560  16.000   0.225
93717W        W58977   6.465   0.812   0.834
93718W        W58978  16.039  37.828   0.353
93719W        W58979  18.400  35.706   1.862
93720W        W58980  19.918  14.166   4.017
93721W        W58981  34.975  26.773   3.590
93722W        W58982  31.424  10.930  11.141
93723W        W58983  39.338  33.751   4.705
93724W        W58984  11.551  14.937   0.333
93725W        W58985  44.060  24.594  13.405
93726W        W58986  25.167  44.849   2.825
93727W        W58987   5.399  22.145  12.630
93728W        W58988  16.827  14.599  12.979
93729W        W58989  23.596  35.121  14.789
93730W        W58990  44.263  14.707  13.055
93731W        W58991  14.070  30.924  12.081
93732W        W58992  21.784  18.980   3.140
93733W        W58993   8.003   5.281   4.115
93734W        W58994  27.493  37.861  11.581
93735W        W58995   3.357  22.294  12.047
93736W        W58996   7.847  39.766   0.233
93737W        W58997  39.262  39.722   3.670
93738W        W58998   3.244  42.923  14.484
93739W        W58999  32.003  21.072   0.238
93740W        W59000  24.639   4.822  13.546
93741W        W59001   9.646  31.348  10.527
93742W        W59002  18.733  28.580   1.371
93743W        W59003  18.548  32.331  14.492
93744W        W59004  22.672  37.653   4.329
93745W        W59005  39.940  36.040   3.121
93746W        W59006  41.250   0.707   1.981
93747W        W59007  28.643  19.736   1.719
93748W        W59008  14.391  17.178   0.552
93749W        W59009  11.684  37.630  11.219
93750W        W59010   2.232  27.777   0.795
93751W        W59011  20.921  27.987   0.335
93752W        W59012  14.877  42.255  11.911
93753W        W59013  28.049   8.141   4.660
93754W        W59014   2.829  40.466  10.734
93755W        W59015  14.629  30.632  13.071
93756W        W59016  33.007  22.221  11.187
93757W        W59017   2.753  19.998  10.730
93758W        W59018  33.845   6.288  11.063
93759W        W59019   7.876  10.110  12.112
93760W        W59020  42.287  30.518   4.310
93761W        W59021  29.479  37.945  10.679
93762W        W59022  25.659  15.064   4.061
93763W        W59023  14.143   2.787   4.696
93764W        W59024  26.716  20.316  11.141
93765W        W59025  31.644  43.466  11.407
93766W        W59026  26.804   9.117   0.971
93767W        W59027  29.714  35.212  14.822
93768W        W59028  19.048  17.027  10.997
93769W        W59029   8.900  31.658  10.322
93770W        W59030  20.161  27.719   4.701
93771W        W59031  19.209  43.255   1.770
93772W        W59032  44.252   9.607   5.137
93773W        W59033   0.396  37.639   2.135
93774W        W59034   6.975  11.226   3.794
93775W        W59035   7.939  18.962   0.882
93776W        W59036   3.971   5.678  12.169
93777W        W59037  16.817   9.477   1.224
93778W        W59038   8.883   4.976   0.066
93779W        W59039  39.576  15.091  11.804
93780W        W59040  12.972  34.155  13.981
93781W        W59041  21.333   1.374  11.146
93782W        W59042  12.418  16.300  11.021
93783W        W59043  36.436  38.343  14.983
93784W        W59044  26.141  42.267   4.208
93785W        W59045  11.931  39.777  10.966
93786W        W59046  32.418  30.627  12.882
93787W        W59047  41.023   1.300  14.358
93788W        W59048   5.837  37.454   2.309
93789W        W59049  16.101  44.522  13.271
93790W        W59050  26.946  34.022   4.126
93791W        W59051  18.333  11.776  13.403
93792W        W59052  23.952  34.546   3.826
93793W        W59053  21.841  16.683  11.650
93794W        W59054  12.656  16.220  12.708
93795W        W59055   7.293  21.993  14.719
93796W        W59056  35.817  21.776  11.601
93797W        W59057  17.212  25.044  13.058
93798W        W59058  23.848  44.209  12.800
93799W        W59059   5.985  44.985   4.107
93800W        W59060  44.477  22.931  13.977
93801W        W59061   3.558  43.552  13.209
93802W        W59062  17.227  16.543   0.468
93803W        W59063  27.412  28.602  14.984
93804W        W59064  18.290  21.092   3.224
93805W        W59065  26.070   1.712   1.461
93806W        W59066  20.621  40.120   2.765
93807W        W59067  31.706  22.643  13.032
93808W        W59068  30.072   6.818   0.435
93809W        W59069  17.491  20.654   2.331
93810W        W59070  15.385  24.740   1.719
93811W        W59071  20.453  34.475  12.406
93812W        W59072  39.382   5.255   2.575
93813W        W59073  21.698  14.218   0.921
93814W        W59074  43.907  20.154   2.616
93815W        W59075  27.967  29.337  13.550
93816W        W59076   0.033  26.622  12.046
93817W        W59077  21.068   8.915   2.822
93818W        W59078   8.168  24.584  11.481
93819W        W59079   7.542  10.716   3.223
93820W        W59080  19.683  12.629  12.120
93821W        W59081  31.079  32.921  14.241
93822W        W59082  36.579  20.850  12.008
93823W        W59083   7.791  23.274   0.799
93824W        W59084  44.374  22.835  11.140
93825W        W59085  15.866   4.026   2.274
93826W        W59086  37.907   9.120  13.597
93827W        W59087   5.777  30.481   2.998
93828W        W59088  35.587   7.830  12.951
93829W        W59089  31.225  38.859   1.955
93830W        W59090  10.445   4.186  12.400
93831W        W59091   7.715   7.387   3.222
93832W        W59092   0.492   6.900   1.494
93833W        W59093  32.363  10.174  11.546
93834W        W59094  15.140   3.536  14.548
93835W        W59095  22.736  25.784   3.255
93836W        W59096   0.968  40.930  11.836
93837W        W59097  19.710  17.620  12.072
93838W        W59098  14.373  20.196  11.090
93839W        W59099  27.949  43.000   0.944
93840W        W59100  42.923  39.708   2.532
93841W        W59101  34.303  34.621   1.834
93842W        W59102   5.372  32.067  12.961
93843W        W59103  31.454  43.709   4.318
93844W        W59104  16.240  20.443   0.826
93845W        W59105  20.294  34.806   2.559
93846W        W59106  31.659  34.961   4.596
93847W        W59107  34.999   6.199   1.605
93848W        W59108  15.433  42.846   3.925
93849W        W59109  28.033  38.536   1.759
93850W        W59110  40.506   4.237  13.427
93851W        W59111  44.716  27.369   0.749
93852W        W59112  42.409  14.647   1.944
93853W        W59113  10.052  16.629  12.600
93854W        W59114   9.879   6.137   3.684
93855W        W59115  29.734  37.866   3.718
93856W        W59116   5.927  13.757   2.874
93857W        W59117   4.032  37.487  14.445
93858W        W59118  41.015  29.739   1.864
93859W        W59119  13.928  17.040  14.380
93860W        W59120  39.467  28.153   0.569
93861W        W59121  12.676  16.064   0.796
93862W        W59122  21.812  27.177   2.685
93863W        W59123  22.728   6.148   0.058
93864W        W59124  26.220   0.214  12.922
93865W        W59125  20.080  38.794  13.271
93866W        W59126  20.634  11.609  12.326
93867W        W59127  36.615  41.990   1.842
93868W        W59128  23.741  31.703  11.485
93869W        W59129  33.379   9.201   3.774
93870W        W59130  20.738  30.815   3.580
93871W        W59131  37.943  26.716  11.779
93872W        W59132  41.162   8.241  13.367
93873W        W59133  15.371  21.395  13.491
93874W        W59134  38.572  12.196   0.780
93875W        W59135  30.614  26.573  13.932
93876W        W59136  35.288   7.872   1.924
93877W        W59137  23.196  36.503   0.941
93878W        W59138  15.347  26.113   4.304
93879W        W59139   7.803   7.145   0.552
93880W        W59140  36.575  12.436  11.466
93881W        W59141  23.948  38.737  13.136
93882W        W59142  42.012  34.412   4.569
93883W        W59143  31.108  41.606  10.482
93884W        W59144  31.142  11.340  12.492
93885W        W59145  30.083  40.093  10.918
93886W        W59146   0.080  35.161  13.377
93887W        W59147  16.475  30.167   0.029
93888W        W59148   1.885  28.489  14.238
93889W        W59149  35.466  11.285  14.212
93890W        W59150   9.467   8.492  11.467
93891W        W59151  35.834   3.769   2.978
93892W        W59152  24.041  43.452  14.770
93893W        W59153  16.163  11.655  10.672
93894W        W59154  20.056  34.820  10.428
93895W        W59155  43.536  28.786  13.998
93896W        W59156  26.504  41.093   3.785
93897W        W59157  20.496  24.663   0.006
93898W        W59158  18.189  31.057   2.283
93899W        W59159  38.545  21.142   2.776
93900W        W59160  33.494  10.566   1.446
93901W        W59161   6.720  27.027   5.536
93902W        W59162  12.222  36.368   4.765
93903W        W59163  17.517   9.990   2.827
93904W        W59164  16.099  41.106  13.973
93905W        W59165  13.135  34.107  11.336
93906W        W59166  14.457  15.809   2.926
93907W        W59167  32.407  21.747  13.206
93908W        W59168   6.385  12.293   3.742
93909W        W59169  34.005  22.022  10.684
93910W        W59170  20.297  18.033   3.870
93911W        W59171  31.157  33.453   4.121
93912W        W59172  42.932  36.069   3.671
93913W        W59173   9.278  34.899   0.546
93914W        W59174  14.414  29.414   2.475
93915W        W59175   4.845  20.122   2.636
93916W        W59176  15.284  20.212  13.552
93917W        W59177  36.114  23.621  12.959
93918W        W59178  37.582   7.596   1.335
93919W        W59179  31.635  43.950  12.476
93920W        W59180  21.445  14.327   0.207
93921W        W59181  24.387  15.257  12.430
93922W        W59182  18.081  39.012   2.191
93923W        W59183  41.571   1.815   4.147
93924W        W59184  31.376  13.214  13.581
93925W        W59185  14.050  43.968   1.813
93926W        W59186  35.563  27.631  10.912
93927W        W59187  35.663  29.852  11.203
93928W        W59188  21.154   5.022   1.157
93929W        W59189  14.851  27.700  12.424
93930W        W59190  12.801   5.384   0.920
93931W        W59191  10.773  14.852  14.273
93932W        W59192   7.172  24.258   2.795
93933W        W59193  17.032  11.904  13.370
93934W        W59194   2.566  16.035   0.417
93935W        W59195  25.229  29.209  11.162
93936W        W59196  44.472  17.169  14.268
93937W        W59197  19.339  15.187  11.167
93938W        W59198   6.733  15.277   1.640
93939W        W59199  13.652   4.260   3.385
93940W        W59200  15.589   9.159  10.944
93941W        W59201  44.933  29.470  14.063
93942W        W59202  25.241  38.438  11.425
93943W        W59203  11.328   1.828  12.054
93944W        W59204  18.542  22.728  11.967
93945W        W59205  34.379  37.002  13.735
93946W        W59206  10.726  43.184  12.952
93947W        W59207   1.302   6.177   3.194
93948W        W59208  41.989  42.301  12.481
93949W        W59209  28.180  43.924   2.375
93950W        W59210   2.347   1.432   3.127
93951W        W59211   9.949  39.073  14.720
93952W        W59212  19.726  39.820   3.647
93953W        W59213  10.908  38.460   3.495
93954W        W59214   5.275  29.236   1.231
93955W        W59215  32.042  25.774  13.026
93956W        W59216  17.059  38.010  10.631
93957W        W59217   9.345  12.565  14.724
93958W        W59218  16.909  21.318   3.264
93959W        W59219  39.795  27.830   0.328
93960W        W59220  29.626  36.033  11.195
93961W        W59221   2.773  12.476  14.746
93962W        W59222  28.767  11.084  12.412
93963W        W59223   5.411   8.320   3.249
93964W        W59224   1.839  18.541   0.736
93965W        W59225   3.823  26.607  12.508
93966W        W59226  20.641  12.722  13.010
93967W        W59227  27.253   9.198  10.728
93968W        W59228  34.544  13.598  12.570
93969W        W59229   4.838   3.836  10.575
93970W        W59230  13.558  30.880  12.015
93971W        W59231  29.008   2.767  10.917
93972W        W59232   8.112  24.620   3.687
93973W        W59233  16.748  33.415   1.303
93974W        W59234  14.290  34.420  13.337
93975W        W59235   5.440  31.599  12.006
93976W        W59236  37.302  21.751  14.895
93977W        W59237  19.153  41.918  13.053
93978W        W59238   6.959  12.447   0.172
93979W        W59239  21.291  12.105   2.442
93980W        W59240  26.077  19.304  10.402
93981W        W59241  16.075   4.390  12.988
93982W        W59242  44.976   0.403  12.711
93983W        W59243  36.614   3.329  14.568
93984W        W59244  16.851  37.420  13.877
93985W        W59245   6.672  11.959   1.717
93986W        W59246   3.476  26.439  10.339
93987W        W59247   4.931  23.749  11.188
93988W        W59248  24.074  20.307   4.179
93989W        W59249   3.312  30.512  14.556
93990W        W59250  11.547  41.466  10.980
93991W        W59251  20.080  14.836  14.996
93992W        W59252  36.917  44.826   4.685
93993W        W59253  28.610  22.293  12.059
93994W        W59254  15.526  37.690   3.341
93995W        W59255  33.625  38.301   0.018
93996W        W59256  14.039   4.515   4.270
93997W        W59257  43.855   0.304  13.961
93998W        W59258  34.098  27.182  14.387
93999W        W59259  12.324  30.852  14.795
94000W        W59260  21.905  42.538  12.015
94001W        W59261  41.804  39.479   3.336
94002W        W59262  11.940  27.520   5.170
94003W        W59263   9.099  23.167  13.807
94004W        W59264  33.776  14.149  14.442
94005W        W59265  36.332   0.218   0.898
94006W        W59266  27.538  34.180  14.494
94007W        W59267  34.351  31.572   4.418
94008W        W59268  31.374  21.758  12.392
94009W        W59269  13.689  20.798  11.914
94010W        W59270  25.497  30.768  14.874
94011W        W59271  14.609  14.499   5.142
94012W        W59272  10.649  39.836  14.340
94013W        W59273  27.689  33.935  12.865
94014W        W59274  19.722  29.082   4.724
94015W        W59275  37.278  41.666   4.952
94016W        W59276  35.827  16.442  12.057
94017W        W59277  43.512   8.091  14.452
94018W        W59278  31.564   8.134  11.210
94019W        W59279   2.907  36.854   3.450
94020W        W59280  17.259   0.462  13.491
94021W        W59281  19.901   7.398   0.514
94022W        W59282   0.736  38.277  11.649
94023W        W59283  29.179  33.399  10.623
94024W        W59284   6.387   3.790   4.102
94025W        W59285  26.224  31.491   3.502
94026W        W59286  16.865  21.616   2.124
94027W        W59287  16.080  25.806  14.874
94028W        W59288  35.315  10.368   4.000
94029W        W59289  19.154  44.679   3.723
94030W        W59290  23.242  13.752   1.361
94031W        W59291  22.715  17.181   0.688
94032W        W59292  18.756  15.692   0.468
94033W        W59293  41.863   5.662  11.118
94034W        W59294   4.818  32.602   0.387
94035W        W59295  31.409  24.810   5.621
94036W        W59296  18.735  30.616  12.473
94037W        W59297   1.990  41.835  12.494
94038W        W59298   2.886   6.883   0.799
94039W        W59299  36.905  17.260  11.721
94040W        W59300  15.747  40.483   0.810
94041W        W59301   4.192   6.976  12.197
94042W        W59302  41.224  15.308   0.782
94043W        W59303  37.146   0.577  10.759
94044W        W59304  23.466  17.757  10.592
94045W        W59305   7.617  22.179  12.893
94046W        W59306   1.000  40.512  13.918
94047W        W59307   8.097   1.851  11.499
94048W        W59308  38.942   4.735   4.714
94049W        W59309   1.941  39.370   0.325
94050W        W59310  17.598   1.064   1.041
94051W        W59311  15.799  25.841   1.649
94052W        W59312  33.991  24.653   4.054
94053W        W59313  10.488  13.162   1.775
94054W        W59314  34.542  29.041   0.264
94055W        W59315  24.037  15.483  10.703
94056W        W59316  29.140  11.682   0.606
94057W        W59317  10.123   8.475   3.946
94058W        W59318  30.594  40.788   0.312
94059W        W59319  17.695   0.297   3.417
94060W        W59320  12.089  32.113  11.247
94061W        W59321   5.498  28.662  12.977
94062W        W59322  43.050   7.792  10.671
94063W        W59323  11.158   4.274   3.637
94064W        W59324  32.149   4.736   0.907
94065W        W59325  34.653  31.187  12.463
94066W        W59326  22.232   7.526   0.419
94067W        W59327   7.927   1.743   0.726
94068W        W59328   7.938  19.276   0.011
94069W        W59329  42.351  36.930   0.824
94070W        W59330  17.993  11.826  11.611
94071W        W59331   8.217  44.039  11.283
94072W        W59332  35.412   5.687   0.861
94073W        W59333  33.991  30.432  11.565
94074W        W59334  11.126  23.907  11.647
94075W        W59335  21.106  24.977   1.023
94076W        W59336  30.462   1.880  13.785
94077W        W59337  36.979   9.317  13.150
94078W        W59338  20.601   0.490  11.677
94079W        W59339  33.091  33.812   2.309
94080W        W59340  37.418  10.763  12.883
94081W        W59341   2.853   9.116   1.281
94082W        W59342   8.650  15.334   4.575
94083W        W59343  27.108  12.592   0.170
94084W        W59344  10.153  32.071   3.242
94085W        W59345  15.178  21.655   4.086
94086W        W59346  14.444   3.289  10.190
94087W        W59347  11.603  30.361  14.303
94088W        W59348   9.518  19.671  14.449
94089W        W59349  34.656   2.463  14.306
94090W        W59350  35.868   6.337   4.252
94091W        W59351  29.593  16.620  13.556
94092W        W59352  28.451  29.029  12.979
94093W        W59353  25.249  25.866  13.442
94094W        W59354   6.907  23.104  12.134
94095W        W59355  39.829  20.084   1.137
94096W        W59356  19.244   7.941   1.010
94097W        W59357  28.541  28.878   4.538
94098W        W59358  23.195  24.949  12.988
94099W        W59359  29.517  28.031  12.459
94100W        W59360   7.209  40.359  11.629
94101W        W59361  28.888   6.727  10.779
94102W        W59362  26.966   8.857   3.426
94103W        W59363  18.296  12.762  11.211
94104W        W59364  20.674  29.887  12.426
94105W        W59365   1.208  31.493   2.291
94106W        W59366  32.931   9.799  10.702
94107W        W59367   8.155  18.227   4.521
94108W        W59368  14.713   4.865   1.240
94109W        W59369  11.222  18.787  13.810
94110W        W59370  21.841  26.720   3.558
94111W        W59371  44.287  44.993   2.742
94112W        W59372  38.311   3.099  14.410
94113W        W59373   9.742  43.387  10.754
94114W        W59374  10.789  42.501  11.230
94115W        W59375  10.856  13.118   1.430
94116W        W59376  32.166  37.306   3.181
94117W        W59377  12.279  19.129  14.372
94118W        W59378  23.666  42.991   9.942
94119W        W59379   8.760  41.861   2.341
94120W        W59380  42.005  23.591   2.399
94121W        W59381  10.098  21.587  14.137
94122W        W59382  22.043  25.641   1.790
94123W        W59383   5.679  11.325   2.299
94124W        W59384  30.016  29.980   4.501
94125W        W59385  17.701  13.117   1.146
94126W        W59386  36.440  14.651   1.733
94127W        W59387  37.139  23.012  14.462
94128W        W59388   0.303   7.896   0.728
94129W        W59389   5.047  16.964  14.894
94130W        W59390  10.716  38.018  10.660
94131W        W59391  23.523  37.831   2.349
94132W        W59392   8.378  14.377   3.163
94133W        W59393  33.347   0.996  11.190
94134W        W59394  12.862  10.638  11.381
94135W        W59395  40.953  42.506  11.177
94136W        W59396   4.486  43.010  11.931
94137W        W59397  20.712  12.156   0.397
94138W        W59398  39.538  19.614  14.789
94139W        W59399  29.241  13.169   5.022
94140W        W59400  19.526   5.767  13.855
94141W        W59401  10.419  18.848   1.247
94142W        W59402  30.800  24.568   1.836
94143W        W59403  38.415  15.696  14.015
94144W        W59404  30.339  37.769   2.880
94145W        W59405  13.774   0.982   0.807
94146W        W59406  35.358  11.824  13.132
94147W        W59407  15.192  21.207  13.032
94148W        W59408  23.645   1.866  12.777
94149W        W59409  26.138   0.691   1.481
94150W        W59410  11.717  12.994  10.647
94151W        W59411  27.213  19.201   2.235
94152W        W59412  24.559  12.286  12.851
94153W        W59413  14.421  34.841   3.151
94154W        W59414  43.926  36.406  13.092
94155W        W59415  25.004  23.773   4.581
94156W        W59416  37.023  29.301  12.407
94157W        W59417  27.635   2.195   0.203
94158W        W59418  23.443  24.748  14.498
94159W        W59419   9.109  16.604   2.786
94160W        W59420   5.394   6.067   1.062
94161W        W59421  17.550   2.768  12.098
94162W        W59422  41.520  12.170  13.907
94163W        W59423  20.803  17.501  13.115
94164W        W59424  39.862  37.332  11.920
94165W        W59425  41.941  13.076   1.368
94166W        W59426   3.857  21.193  13.713
94167W        W59427  22.223  41.718  11.938
94168W        W59428  16.761  26.173   4.563
94169W        W59429  36.531  22.497  14.978
94170W        W59430  37.631   2.818   4.299
94171W        W59431  43.831  17.623  13.265
94172W        W59432   5.272  16.834   2.901
94173W        W59433  37.908  32.989  14.939
94174W        W59434  26.875   6.660   4.124
94175W        W59435  31.384  39.812  13.994
94176W        W59436  30.817  38.563   1.801
94177W        W59437  29.454  44.364  11.121
94178W        W59438   0.767  27.509  11.626
94179W        W59439  31.981  36.019   1.396
94180W        W59440  37.503   8.662  12.013
94181W        W59441  44.535   5.799  14.851
94182W        W59442   6.642  16.670   2.189
94183W        W59443  34.566  16.693  14.508
94184W        W59444  33.908  11.580   1.989
94185W        W59445  34.003  37.048  11.172
94186W        W59446  36.909  11.888   2.749
94187W        W59447  44.065  15.689  13.531
94188W        W59448  40.617  31.967  13.884
94189W        W59449  37.483  17.864   1.937
94190W        W59450  30.764  22.277  13.006
94191W        W59451  27.083  15.191   4.023
94192W        W59452  17.579   0.043   4.864
94193W        W59453  34.026   7.130  10.664
94194W        W59454  38.196  26.974   3.643
94195W        W59455   3.620  23.166   2.769
94196W        W59456  16.572  40.379   0.402
94197W        W59457   0.673  19.253   1.838
94198W        W59458  18.299  24.910  14.824
94199W        W59459   0.685  27.326  12.103
94200W        W59460  24.151  17.352  12.892
94201W        W59461  22.874   7.351  11.125
94202W        W59462   6.179  10.645  11.061
94203W        W59463  20.975  37.533  11.511
94204W        W59464  42.319   8.826   1.902
94205W        W59465  12.306   7.767  14.222
94206W        W59466  13.461  43.983  11.104
94207W        W59467  21.358  16.179   0.794
94208W        W59468   5.816  39.443  12.649
94209W        W59469  44.512  18.586  12.376
94210W        W59470   1.138  29.332  14.546
94211W        W59471   7.242   3.503  11.636
94212W        W59472   0.655  17.251  12.863
94213W        W59473  18.187   6.490  13.328
94214W        W59474   9.868   7.826   0.927
94215W        W59475  34.947  34.932  11.445
94216W        W59476  38.161   6.637   1.601
94217W        W59477  32.978  24.760   4.581
94218W        W59478  39.826  10.971   0.423
94219W        W59479  32.047  10.377  14.506
94220W        W59480  44.160  42.304   4.840
94221W        W59481  27.326  35.847   4.263
94222W        W59482   7.412  29.898   1.250
94223W        W59483   2.854  27.930  13.578
94224W        W59484   6.814  32.453  14.478
94225W        W59485   4.321  23.637   4.110
94226W        W59486  33.049  16.297   0.902
94227W        W59487  42.105   0.002   3.771
94228W        W59488  39.892  44.444   1.838
94229W        W59489  34.400  27.687   2.118
94230W        W59490   3.771   1.241  12.879
94231W        W59491   2.278  11.432  10.638
94232W        W59492  21.629  32.001  14.080
94233W        W59493   7.663  24.546   1.270
94234W        W59494  15.235  10.703  14.547
94235W        W59495   5.210  31.602  11.048
94236W        W59496   5.977  24.571  13.939
94237W        W59497  35.170  39.788   2.193
94238W        W59498  15.892   6.751   4.775
94239W        W59499  36.958  16.345  11.657
94240W        W59500  43.339   3.172  11.517
94241W        W59501  17.300  36.882   3.215
94242W        W59502  11.647   8.917  11.598
94243W        W59503  24.683  11.817  13.030
94244W        W59504  21.471  17.642   2.408
94245W        W59505  19.610  38.408  13.936
94246W        W59506  27.579  12.344   0.317
94247W        W59507  41.300  27.536   2.842
94248W        W59508  37.863   9.432  13.169
94249W        W59509  21.508   2.794   3.866
94250W        W59510  24.815  18.286   2.902
94251W        W59511  38.911  27.167   0.763
94252W        W59512  31.445  32.171  13.709
94253W        W59513   4.815  22.785  13.151
94254W        W59514  13.913   3.464  14.908
94255W        W59515  31.864  31.480  12.840
94256W        W59516   2.794  14.469  13.186
94257W        W59517  33.115  40.348  14.721
94258W        W59518   3.536  18.616   5.172
94259W        W59519  37.971  31.597   2.872
94260W        W59520  22.133  31.346   2.409
94261W        W59521  38.848  18.156  13.926
94262W        W59522   7.415  19.708   2.161
94263W        W59523   7.832  11.563  14.261
94264W        W59524  32.159  42.115   3.182
94265W        W59525  33.417  15.746  11.962
94266W        W59526  17.136  14.013   4.545
94267W        W59527   4.668   6.241  12.903
94268W        W59528  35.594  36.055   0.442
94269W        W59529   1.845   7.650   2.875
94270W        W59530  36.708  42.996  10.295
94271W        W59531  15.564  34.055   2.766
94272W        W59532  17.596  44.428   3.076
94273W        W59533  13.615  27.065   3.945
94274W        W59534  30.092  18.679  10.763
94275W        W59535   3.212  33.601  11.078
94276W        W59536  14.698  21.169   4.547
94277W        W59537   8.650  27.144   0.800
94278W        W59538  34.976  17.667   1.194
94279W        W59539  35.265  25.919   5.581
94280W        W59540  40.222  35.355  12.143
94281W        W59541  11.685  37.116  10.338
94282W        W59542  37.362  44.980   1.660
94283W        W59543  22.796   0.017  14.494
94284W        W59544  42.512  13.923  11.276
94285W        W59545  21.501  41.312   3.235
94286W        W59546  36.470  14.674  14.808
94287W        W59547  37.604  27.662  10.605
94288W        W59548  15.240  23.113   2.866
94289W        W59549  43.939  26.659   4.839
94290W        W59550  40.107  28.291  13.270
94291W        W59551  29.171   7.855   2.301
94292W        W59552  24.953  10.222   3.420
94293W        W59553  36.350  22.756   3.268
94294W        W59554  43.449  30.601   1.650
94295W        W59555  32.689  23.829   0.409
94296W        W59556  15.552  26.056  10.953
94297W        W59557   1.931   4.401   4.653
94298W        W59558   3.340   3.328  12.609
94299W        W59559  18.822   5.081  12.812
94300W        W59560  22.466  31.168  13.430
94301W        W59561   2.174  18.904   1.929
94302W        W59562  37.512   2.450   1.271
94303W        W59563  35.391  42.547  10.905
94304W        W59564  24.110  17.094  11.536
94305W        W59565  40.749  31.212   0.043
94306W        W59566  11.154   3.983  14.878
94307W        W59567  27.923  11.247  12.079
94308W        W59568  27.245  43.406   1.778
94309W        W59569  38.723  12.346  12.526
94310W        W59570  18.188  41.370   4.363
94311W        W59571  36.544  13.800   3.710
94312W        W59572  26.925  14.692   4.095
94313W        W59573  35.516  32.700   4.329
94314W        W59574   4.966  14.952  13.286
94315W        W59575   7.231  15.316  12.177
94316W        W59576   1.193  38.401  14.486
94317W        W59577  38.871  13.113   2.371
94318W        W59578  13.913  23.294  13.735
94319W        W59579  27.807  41.653  14.314
94320W        W59580  34.849  13.646  13.967
94321W        W59581  31.943  25.693   1.770
94322W        W59582  10.273  25.117  10.698
94323W        W59583  42.047  25.642   2.632
94324W        W59584   6.355  40.567  11.614
94325W        W59585  44.221  16.814  13.443
94326W        W59586  44.500   0.516  11.300
94327W        W59587  22.000   6.421  14.485
94328W        W59588  17.313  35.445  11.838
94329W        W59589   9.307  23.972  11.007
94330W        W59590   6.978   5.431  13.814
94331W        W59591   5.595  35.859   0.996
94332W        W59592  17.144  33.095   2.010
94333W        W59593  22.609  26.906   1.896
94334W        W59594  13.658  11.252   0.974
94335W        W59595  29.135  15.378   0.483
94336W        W59596  41.802   1.303   4.841
94337W        W59597  13.204  35.049  10.947
94338W        W59598  12.668  15.332  12.566
94339W        W59599  21.484  11.028   0.944
94340W        W59600   0.318  18.012   0.775
94341W        W59601  39.724  38.066  11.500
94342W        W59602  18.082  39.573  14.047
94343W        W59603  24.435  41.390  13.870
94344W        W59604  39.627   9.036   1.338
94345W        W59605  36.956  43.773  14.456
94346W        W59606  29.140   4.670   2.910
94347W        W59607   1.369  37.914  11.422
94348W        W59608  25.579   7.665   2.140
94349W        W59609   9.652  15.243   0.900
94350W        W59610  32.399  36.169   4.056
94351W        W59611  36.834  42.845   4.015
94352W        W59612  16.098  25.381  13.374
94353W        W59613  25.296   0.524  13.074
94354W        W59614  42.280  34.075   1.216
94355W        W59615  28.759  36.487   2.920
94356W        W59616  22.709   4.182  13.993
94357W        W59617  26.291  21.759   4.558
94358W        W59618  11.407  27.590  11.475
94359W        W59619  34.556  37.974   0.185
94360W        W59620   9.665  15.200   4.619
94361W        W59621  29.104  37.337  14.884
94362W        W59622  27.686   8.367  11.721
94363W        W59623   5.324  24.829   0.767
94364W        W59624  35.410  39.427  14.667
94365W        W59625  23.605   3.441  11.359
94366W        W59626   1.152  17.123  13.287
94367W        W59627  11.741  43.484  14.422
94368W        W59628  25.118  19.220   0.767
94369W        W59629  38.975  20.583   4.562
94370W        W59630  30.946  18.764   1.271
94371W        W59631  39.036  29.950  11.050
94372W        W59632  11.512  11.844   3.297
94373W        W59633  34.311  14.152  11.074
94374W        W59634   8.594   9.585  13.044
94375W        W59635  12.270   0.721  12.516
94376W        W59636  21.327  42.038  10.714
94377W        W59637  24.839   7.304  14.541
94378W        W59638  30.203  30.983   1.234
94379W        W59639   3.510  41.868   1.247
94380W        W59640  16.524  28.206  10.869
94381W        W59641  25.561  36.519   2.293
94382W        W59642  38.862  31.707   3.595
94383W        W59643   3.923   1.829   4.781
94384W        W59644  42.371  34.899  13.556
94385W        W59645  15.318  11.411  13.051
94386W        W59646  43.263  22.197  13.040
94387W        W59647  25.493   8.441  11.041
94388W        W59648  34.597  41.068   4.893
94389W        W59649   5.207  41.552  13.992
94390W        W59650   2.495  32.190  11.282
94391W        W59651  44.900   4.244   3.146
94392W        W59652  29.010  43.944   2.866
94393W        W59653  23.184   1.360   1.932
94394W        W59654  22.069   8.454   1.689
94395W        W59655  28.173  28.492   4.202
94396W        W59656  25.738   0.801  10.210
94397W        W59657  40.185   7.933  11.470
94398W        W59658   7.101  26.047  10.572
94399W        W59659  35.334  33.981   2.389
94400W        W59660  23.228  39.436   2.373
94401W        W59661  28.244  13.734  12.576
94402W        W59662  34.212  32.517   4.439
94403W        W59663  34.295  13.097  12.573
94404W        W59664  33.257  37.117   2.417
94405W        W59665  33.890  27.522   0.391
94406W        W59666  21.173  28.377   0.019
94407W        W59667  39.051  44.029  14.166
94408W        W59668  30.433   7.259  13.034
94409W        W59669  25.270   9.850  10.946
94410W        W59670  39.896  11.709  10.213
94411W        W59671   1.881   0.491  13.512
94412W        W59672  33.858   3.228  11.387
94413W        W59673  35.798  24.613  10.227
94414W        W59674  33.889  23.092   1.425
94415W        W59675  34.040  28.425   1.457
94416W        W59676  25.042  24.801   1.770
94417W        W59677   7.105  16.648   4.121
94418W        W59678  31.371   2.756   0.292
94419W        W59679  16.724  36.471  13.104
94420W        W59680  10.349  21.558   2.692
94421W        W59681  11.730  25.728  11.101
94422W        W59682   7.188  18.694  12.051
94423W        W59683   9.204  15.400  12.327
94424W        W59684  34.596  40.231  13.315
94425W        W59685  24.590  19.940   4.067
94426W        W59686  34.122  32.176   3.210
94427W        W59687  44.718  26.859   0.594
94428W        W59688  26.719  27.061  13.855
94429W        W59689  14.341  29.993   3.960
94430W        W59690   4.398  16.976  13.850
94431W        W59691   5.798  23.229   1.653
94432W        W59692  32.226   7.795   4.656
94433W        W59693   5.371  31.604   0.219
94434W        W59694  31.087  27.903   2.300
94435W        W59695   3.539  35.651  11.113
94436W        W59696  22.529   9.995   4.151
94437W        W59697  25.272   6.906  11.406
94438W        W59698  35.552  16.476  12.486
94439W        W59699  29.603  36.461   2.185
94440W        W59700  42.061  41.919   3.822
94441W        W59701   2.362  44.035  11.917
94442W        W59702  33.581   8.091  13.843
94443W        W59703  21.377  25.319   3.824
94444W        W59704  10.521  10.627  10.852
94445W        W59705   8.667  41.488  10.598
94446W        W59706  28.035   4.744  13.519
94447W        W59707  29.027   4.550  14.762
94448W        W59708  36.598  17.320   0.751
94449W        W59709   4.573  36.834  10.867
94450W        W59710   0.694   8.262  13.564
94451W        W59711  16.117   7.207  12.012
94452W        W59712   0.765  21.459   4.155
94453W        W59713   5.235  39.842   4.532
94454W        W59714   4.400  28.573   2.280
94455W        W59715  16.577  44.757  14.356
94456W        W59716  12.236  16.987  11.953
94457W        W59717  22.710   0.589   0.446
94458W        W59718  19.886  41.363   3.835
94459W        W59719  15.026  13.944   1.878
94460W        W59720  44.019  40.109   1.469
94461W        W59721  10.122   8.338  10.224
94462W        W59722  44.289  18.201   2.371
94463W        W59723  18.955  38.073   4.195
94464W        W59724  23.463  33.602  13.062
94465W        W59725   2.748  28.442   4.600
94466W        W59726  39.310   9.417   3.700
94467W        W59727  38.321  27.894  13.429
94468W        W59728  40.282  21.491  13.029
94469W        W59729  35.061  28.402  14.323
94470W        W59730  21.480   4.911  13.693
94471W        W59731  40.508  25.974   0.931
94472W        W59732   1.424  26.995   0.956
94473W        W59733  44.054  29.999   2.286
94474W        W59734  44.475  33.147   0.209
94475W        W59735   2.434  30.349   3.746
94476W        W59736   4.935  43.431   1.762
94477W        W59737  39.558  14.137   0.198
94478W        W59738  30.184  24.953  10.729
94479W        W59739  38.766  32.471   0.045
94480W        W59740  16.116  41.602   3.608
94481W        W59741  24.106  15.735   1.314
94482W        W59742  28.980  20.044   4.482
94483W        W59743  35.536   1.502  13.741
94484W        W59744  29.353  20.651  11.282
94485W        W59745  13.337   8.211  14.867
94486W        W59746   1.945  18.151   2.669
94487W        W59747  35.039  17.977   2.457
94488W        W59748  12.428  32.516  11.190
94489W        W59749  19.165  23.622   4.611
94490W        W59750  25.290  21.946   4.638
94491W        W59751   1.366   4.974  10.980
94492W        W59752  13.733  44.388  11.667
94493W        W59753  31.621  27.277   4.328
94494W        W59754  41.255  38.514   1.710
94495W        W59755  20.572  37.853  11.353
94496W        W59756   8.291  13.565  13.062
94497W        W59757  17.257  10.320  13.575
94498W        W59758  11.318  33.828   1.705
94499W        W59759  11.476   7.331  12.541
94500W        W59760   9.184   8.440   4.767
94501W        W59761   1.249  13.280   3.609
94502W        W59762   7.680  14.352  13.889
94503W        W59763   6.319  13.879   3.227
94504W        W59764  37.634   2.422   3.602
94505W        W59765  32.453  30.418   1.362
94506W        W59766   9.433  30.576  11.557
94507W        W59767  26.000   5.702  13.886
94508W        W59768   1.058  22.261   3.265
94509W        W59769  34.464  14.777  11.742
94510W        W59770   7.489   3.477  11.184
94511W        W59771  22.516  22.609  10.461
94512W        W59772  27.222  44.915   4.284
94513W        W59773   2.842  20.499  14.861
94514W        W59774   7.687  39.920   2.165
94515W        W59775  12.544  27.040  13.998
94516W        W59776  37.941  43.857  13.528
94517W        W59777  12.244  12.700  14.477
94518W        W59778  27.446  17.695   1.400
94519W        W59779   1.306  26.458  10.150
94520W        W59780   4.722  27.679   4.570
94521W        W59781  24.555  21.213  10.725
94522W        W59782  34.937  10.372   1.909
94523W        W59783  25.687  42.865  12.905
94524W        W59784  11.743  39.491   4.685
94525W        W59785  10.871  39.463   2.580
94526W        W59786   2.480  15.194   1.278
94527W        W59787  26.171   5.955  13.445
94528W        W59788  36.648  22.288   0.429
94529W        W59789  25.984  35.485  13.515
94530W        W59790  19.283  38.454  13.554
94531W        W59791  20.722  11.084  11.128
94532W        W59792  27.833  11.159   0.794
94533W        W59793  39.962  33.707  14.286
94534W        W59794  17.637  23.023  14.759
94535W        W59795  10.577  37.586   4.529
94536W        W59796   9.151  29.637  14.189
94537W        W59797  15.804  16.068   3.162
94538W        W59798   3.321  18.548   1.917
94539W        W59799   7.880  14.111  13.435
94540W        W59800  11.956  21.668  14.807
94541W        W59801  15.782  35.839   4.492
94542W        W59802  24.626  14.826  10.721
94543W        W59803  28.390  15.984   1.226
94544W        W59804   8.039  24.327  12.430
94545W        W59805  37.288  13.632  10.652
94546W        W59806  37.821  23.198   4.466
94547W        W59807  38.958  36.779   4.365
94548W        W59808   8.244  16.651   1.448
94549W        W59809  36.466  37.934   2.237
94550W        W59810  38.359  43.258  10.627
94551W        W59811  15.073  40.781   2.954
94552W        W59812   4.904   6.772   0.973
94553W        W59813  32.371  25.142   1.416
94554W        W59814  23.037  34.896  11.640
94555W        W59815   1.693   3.364   2.876
94556W        W59816  36.585  36.385   1.721
94557W        W59817  43.992  19.628  12.898
94558W        W59818  39.465  44.152   3.335
94559W        W59819   8.159  41.580   1.532
94560W        W59820  22.682  34.128  14.791
94561W        W59821  15.313  35.344  10.733
94562W        W59822  27.683  29.426   0.878
94563W        W59823  40.411  27.152   4.116
94564W        W59824   2.772  41.913  13.314
94565W        W59825  32.913  20.117  13.410
94566W        W59826  11.754  13.181  12.385
94567W        W59827  23.060  29.912  14.058
94568W        W59828  33.140  11.269   0.362
94569W        W59829  31.196  33.016  13.370
94570W        W59830  20.301  15.132  13.942
94571W        W59831  12.272  20.866   4.059
94572W        W59832  32.459  30.791  13.847
94573W        W59833  21.564  18.743   0.921
94574W        W59834  32.487   8.661  10.774
94575W        W59835  21.799  24.628  12.043
94576W        W59836   4.273   5.374   4.072
94577W        W59837  30.927  29.397   2.239
94578W        W59838   9.328  13.820   0.776
94579W        W59839  38.398  20.458   2.331
94580W        W59840  19.578   0.238  12.929
94581W        W59841  21.019  35.396  11.959
94582W        W59842  34.102  38.846   2.321
94583W        W59843   4.879  32.356   3.934
94584W        W59844  42.294  27.363   2.719
94585W        W59845  26.538  32.910  11.340
94586W        W59846  22.914  27.355   4.101
94587W        W59847  43.019  33.093  12.980
94588W        W59848  20.929  26.081   4.260
94589W        W59849  35.023   1.699  13.787
94590W        W59850   8.621  38.021   4.546
94591W        W59851  35.655  19.682   3.560
94592W        W59852  23.738   9.654   3.406
94593W        W59853  19.189  44.519   4.573
94594W        W59854  14.074   5.948   2.659
94595W        W59855  28.943  40.002   3.060
94596W        W59856  19.618  40.161  10.767
94597W        W59857  43.090  30.482   2.009
94598W        W59858  26.542  36.832   0.491
94599W        W59859  13.675  30.667   3.875
94600W        W59860   4.927  12.598  11.436
94601W        W59861  35.086  10.622   2.348
94602W        W59862   3.644  42.131  13.001
94603W        W59863  35.168   5.587  14.532
94604W        W59864  23.202  11.111  12.648
94605W        W59865  23.645  29.906  11.904
94606W        W59866  17.774  37.233  11.555
94607W        W59867  26.040  31.834   2.099
94608W        W59868   6.241  21.701   1.733
94609W        W59869  28.398  16.412  14.004
94610W        W59870  12.282   3.481   9.875
94611W        W59871   1.539  25.214  12.410
94612W        W59872  25.886  27.440  11.109
94613W        W59873  35.086  26.339   1.241
94614W        W59874  17.625  15.587   1.582
94615W        W59875   1.375  32.073   0.830
94616W        W59876  32.355   6.663   4.177
94617W        W59877  24.763  17.191  10.361
94618W        W59878   3.127  23.755   3.400
94619W        W59879  43.857  40.949   3.169
94620W        W59880  41.598  26.100  11.112
94621W        W59881  29.148  18.249  13.929
94622W        W59882  14.331   0.853  11.707
94623W        W59883  42.481   4.139  13.068
94624W        W59884  29.579   5.648  14.023
94625W        W59885  13.587   0.833  10.682
94626W        W59886  26.911  20.768   4.148
94627W        W59887  29.396   8.377   0.501
94628W        W59888  12.916  31.134  13.016
94629W        W59889  20.573   1.262  12.122
94630W        W59890  36.085  11.298   2.687
94631W        W59891  41.916  16.325  10.740
94632W        W59892  36.530   8.290   4.887
94633W        W59893  12.654  14.177  14.788
94634W        W59894   7.138  23.917   1.940
94635W        W59895  33.161   4.681  12.678
94636W        W59896  42.421   7.835  14.760
94637W        W59897  27.455  14.305  14.884
94638W        W59898  15.478  18.060  11.416
94639W        W59899  24.651  34.417  14.081
94640W        W59900  41.921  35.400   4.522
94641W        W59901  30.149  10.746  11.839
94642W        W59902   1.244  28.922   1.175
94643W        W59903  12.563   1.501  14.696
94644W        W59904  17.825  25.654   4.009
94645W        W59905  36.921  30.790  10.445
94646W        W59906  15.503  16.628  12.103
94647W        W59907   7.812  26.238   0.962
94648W        W59908  18.732   6.449   2.741
94649W        W59909  28.666   4.242   4.091
94650W        W59910  19.680   2.198   2.152
94651W        W59911  17.846   6.462   1.859
94652W        W59912  35.232   4.426  14.579
94653W        W59913  17.494  38.812   1.399
94654W        W59914  32.336  30.182   4.587
94655W        W59915  22.399   7.784  12.372
94656W        W59916  21.105  31.445  13.597
94657W        W59917  30.666  12.876  12.041
94658W        W59918   6.908  39.304  13.056
94659W        W59919  21.011  19.310   5.592
94660W        W59920  19.832  43.047  13.411
94661W        W59921   2.407  39.863   3.714
94662W        W59922   5.187  24.463  11.984
94663W        W59923   8.250  41.737  13.417
94664W        W59924  39.144   7.164  13.014
94665W        W59925   5.309  32.817  11.510
94666W        W59926  38.482  40.859   2.336
94667W        W59927  30.838  37.133   3.323
94668W        W59928  17.672  40.784   3.097
94669W        W59929  31.925   7.743  12.067
94670W        W59930  30.061  30.263   2.726
94671W        W59931  43.902  36.343  13.990
94672W        W59932  37.974  23.609  14.223
94673W        W59933  15.729  40.310  12.965
94674W        W59934  40.986  37.030  11.540
94675W        W59935  10.284  29.364  14.309
94676W        W59936  30.071  30.943   2.202
94677W        W59937  10.694  35.945  14.428
94678W        W59938   4.955  25.681   2.820
94679W        W59939  40.531  18.740  12.529
94680W        W59940  25.176  22.112   0.386
94681W        W59941  26.123  43.850   2.768
94682W        W59942  25.308   4.102  11.688
94683W        W59943  25.527   1.707  14.885
94684W        W59944   4.795  43.625   9.957
94685W        W59945  14.440   0.495  10.842
94686W        W59946  13.631  12.621   4.592
94687W        W59947  37.877  34.354   2.933
94688W        W59948  44.995  22.704   3.968
94689W        W59949  29.360  28.068  13.771
94690W        W59950  34.538   7.883  13.569
94691W        W59951  15.504  38.539  12.822
94692W        W59952   6.407  17.943  13.925
94693W        W59953  42.774   0.662   1.690
94694W        W59954  39.620   9.358  14.034
94695W        W59955  21.794  12.087   2.621
94696W        W59956  40.426  28.894   0.871
94697W        W59957   4.337  41.610   3.159
94698W        W59958  27.189   8.882  12.862
94699W        W59959  37.424  21.720  10.720
94700W        W59960  32.670  31.596   3.253
94701W        W59961  20.707   3.704   1.647
94702W        W59962  41.038  15.582  12.139
94703W        W59963   8.755  34.061   0.293
94704W        W59964   9.906   1.283   3.186
94705W        W59965  44.217  15.541  11.624
94706W        W59966   4.775  30.357  10.653
94707W        W59967  40.869  20.081   0.261
94708W        W59968  15.925  11.108  11.912
94709W        W59969  43.375  18.965  14.367
94710W        W59970  23.581  32.569  12.465
94711W        W59971  12.276  28.133  12.978
94712W        W59972  34.360   0.114   2.886
94713W        W59973  19.231  42.086  12.095
94714W        W59974  28.738  11.732  12.011
94715W        W59975  39.029  41.827   3.589
94716W        W59976  19.736   0.418  10.712
94717W        W59977   2.384  19.926   2.803
94718W        W59978  23.732   5.275   2.752
94719W        W59979   1.244  43.502  13.044
94720W        W59980  35.334  43.415  11.418
94721W        W59981  20.558  36.513   4.607
94722W        W59982  34.853  25.064  14.713
94723W        W59983  42.624   1.227  14.894
94724W        W59984   0.512  35.163  11.844
94725W        W59985  24.030  13.176  14.055
94726W        W59986  41.290  34.041   0.961
94727W        W59987  22.734  18.067   0.733
94728W        W59988  31.363  14.871  11.602
94729W        W59989  22.996  20.392  13.773
94730W        W59990  26.140  20.152   2.940
94731W        W59991  19.681  17.123   0.378
94732W        W59992   3.816  27.065  14.060
94733W        W59993  13.315  16.542   2.327
94734W        W59994  23.240  17.348   1.271
94735W        W59995  22.769  18.501   9.906
94736W        W59996  10.836  34.509   1.190
94737W        W59997   3.643  34.097  14.539
94738W        W59998  13.873  25.783  14.004
94739W        W59999  13.811  12.920   1.361
94740W        W60000   5.007  41.077   3.655
94741W        W60001  15.164  11.567  11.701
94742W        W60002   3.140   3.681  12.275
94743W        W60003   7.674  22.581  12.049
94744W        W60004  42.507  10.821   0.466
94745W        W60005   4.460  42.041  11.806
94746W        W60006  25.391  27.553  12.125
94747W        W60007  23.076   4.378   0.162
94748W        W60008  27.423  23.292   2.721
94749W        W60009  24.255  16.712   1.875
94750W        W60010   2.757  33.640  12.400
94751W        W60011   1.003  23.952  14.297
94752W        W60012  33.505   4.949  13.908
94753W        W60013   9.759  28.596   1.387
94754W        W60014   2.791  29.951  10.707
94755W        W60015  13.155  37.458   1.203
94756W        W60016  37.654  12.592  13.250
94757W        W60017  40.731  21.673   1.682
94758W        W60018  21.547  41.009   0.121
94759W        W60019  15.319  10.366   1.913
94760W        W60020  41.098  37.420   3.615
94761W        W60021  21.163  13.317   0.837
94762W        W60022  21.207  22.352  14.005
94763W        W60023   6.406  43.765   1.213
94764W        W60024  19.765  24.053   4.972
94765W        W60025  36.487   0.022   4.483
94766W        W60026  25.155  37.475  11.439
94767W        W60027  25.127  16.983  10.034
94768W        W60028  12.682  27.993  10.620
94769W        W60029  11.610   2.415   3.954
94770W        W60030  20.814  27.494  14.805
94771W        W60031  35.052   5.229   3.869
94772W        W60032  25.164  24.099   3.856
94773W        W60033  35.932  31.014  14.862
94774W        W60034  26.360  17.820  14.735
94775W        W60035  29.102   3.956   4.067
94776W        W60036   0.723  25.613   0.926
94777W        W60037  26.533  16.079   4.306
94778W        W60038  25.034  24.697   0.873
94779W        W60039  33.171  11.758  12.558
94780W        W60040  11.266  28.020  13.292
94781W        W60041  31.923  40.831   3.300
94782W        W60042  31.071  37.856  13.076
94783W        W60043  25.547   4.859   5.550
94784W        W60044  29.161  43.397  11.517
94785W        W60045  19.585  18.610  14.983
94786W        W60046  26.984  31.701   1.902
94787W        W60047   7.580  38.520  10.819
94788W        W60048  14.828   6.337  11.637
94789W        W60049  18.093   4.973   2.832
94790W        W60050   6.117   9.150  11.194
94791W        W60051  25.439   3.008   0.896
94792W        W60052  23.534  15.214  12.709
94793W        W60053  17.519   8.346   4.822
94794W        W60054  28.958  29.240  12.162
94795W        W60055   8.826  35.384  10.769
94796W        W60056  36.089  16.283  11.630
94797W        W60057   4.181  37.627   9.857
94798W        W60058   8.422  33.020   4.627
94799W        W60059  37.012  14.113  12.885
94800W        W60060   4.708  16.742  14.424
94801W        W60061  43.950  22.602  13.294
94802W        W60062  23.301  28.094   4.536
94803W        W60063  26.998  14.797  13.082
94804W        W60064  12.136  14.020  12.590
94805W        W60065  32.185  27.874  14.906
94806W        W60066   9.887  10.321  12.894
94807W        W60067  20.116   1.177  10.780
94808W        W60068   1.807  18.508   1.802
94809W        W60069  27.625  26.229  13.073
94810W        W60070   5.644  42.776   2.155
94811W        W60071  29.646  11.178  10.744
94812W        W60072  11.654  33.495   2.612
94813W        W60073   9.845  25.911   3.482
94814W        W60074  15.278  15.847  10.339
94815W        W60075  23.455  36.804   9.836
94816W        W60076  33.433  37.545   4.626
94817W        W60077  39.197  24.583  13.039
94818W        W60078   0.676  18.318  12.068
94819W        W60079   8.318  29.608   0.836
94820W        W60080  44.471  11.240   1.706
94821W        W60081  36.095  41.345   4.001
94822W        W60082  41.835  12.789   0.904
94823W        W60083   9.815  25.545  10.154
94824W        W60084   0.674  16.089  14.889
94825W        W60085  40.486  11.338  11.131
94826W        W60086  31.065   7.860   2.748
94827W        W60087  16.267   8.931  14.886
94828W        W60088  18.058  12.327  11.060
94829W        W60089   5.767  35.272   0.371
94830W        W60090  42.589  34.889  12.097
94831W        W60091  22.274  24.941  13.064
94832W        W60092   5.014  19.938  12.501
94833W        W60093   0.008  22.243   4.167
94834W        W60094  20.035  29.078   2.695
94835W        W60095   3.168   4.338  12.893
94836W        W60096  37.556  17.077   3.289
94837W        W60097  30.512   3.682  11.344
94838W        W60098  14.212   6.742  10.830
94839W        W60099  38.060  20.007  13.441
94840W        W60100  24.053  27.444  13.067
94841W        W60101   7.444  22.979  13.435
94842W        W60102  24.634  32.557  10.427
94843W        W60103  41.782  38.048   3.649
94844W        W60104  31.436   8.297  13.982
94845W        W60105  12.641  35.002  10.750
94846W        W60106  11.029  22.633  12.042
94847W        W60107  18.987  17.085  11.962
94848W        W60108  18.014  21.967  12.880
94849W        W60109  35.557   5.663  10.852
94850W        W60110  21.555  19.475   3.206
94851W        W60111  14.699   5.390   2.768
94852W        W60112  16.115  12.796  13.370
94853W        W60113  25.408  26.081   3.663
94854W        W60114  37.348  33.642   1.790
94855W        W60115  14.054   2.176   4.002
94856W        W60116   5.835   5.883   0.770
94857W        W60117  40.781  20.716  13.468
94858W        W60118  15.179   7.358  10.973
94859W        W60119   8.812  34.359  10.738
94860W        W60120  12.848  22.268  11.641
94861W        W60121  18.331  27.948   5.049
94862W        W60122  43.931   8.848  13.054
94863W        W60123   7.375  34.154   1.856
94864W        W60124  36.448   5.250   4.640
94865W        W60125  32.434  33.259   0.882
94866W        W60126  21.795  30.058   1.417
94867W        W60127  18.514   2.452  10.689
94868W        W60128   6.638  44.549   1.034
94869W        W60129  35.477  38.294  12.415
94870W        W60130   8.293  23.465  13.443
94871W        W60131  20.989  39.363   3.240
94872W        W60132  36.576  33.067  12.170
94873W        W60133   6.885  26.541  14.063
94874W        W60134  43.409  19.805   0.515
94875W        W60135  33.267  16.161  10.427
94876W        W60136  24.024   2.305   2.846
94877W        W60137   4.888  26.423   5.040
94878W        W60138   2.083  12.771   0.706
94879W        W60139   7.140  18.062   4.506
94880W        W60140  39.923  15.396  12.656
94881W        W60141  14.833   1.829  13.937
94882W        W60142  26.902  17.607  12.522
94883W        W60143  29.402  27.584  13.053
94884W        W60144  28.499  30.757   4.006
94885W        W60145  44.523  19.332   3.679
94886W        W60146   5.187  44.907  14.921
94887W        W60147   9.734  14.871   2.341
94888W        W60148  36.811  37.873  12.347
94889W        W60149  20.496   6.205   1.687
94890W        W60150  10.935  20.473   3.378
94891W        W60151   4.333  26.146  13.752
94892W        W60152  43.682   5.504   0.919
94893W        W60153   0.714  36.919  12.554
94894W        W60154   4.550  25.898  12.869
94895W        W60155  42.056  10.148   3.823
94896W        W60156   0.585  16.549  13.613
94897W        W60157   7.739  21.963   1.349
94898W        W60158  18.907  31.411  11.088
94899W        W60159  30.850  11.087   2.149
94900W        W60160  30.616  35.132   2.818
94901W        W60161   7.235  26.028   1.158
94902W        W60162  12.301  19.265  12.440
94903W        W60163  41.424   9.119   1.500
94904W        W60164  29.633  12.193   2.882
94905W        W60165  18.285  11.100  11.952
94906W        W60166  34.521  41.116  10.375
94907W        W60167   1.460  24.537  12.060
94908W        W60168  43.340  41.854  10.849
94909W        W60169  41.604  20.351  11.129
94910W        W60170  36.025  11.138  14.922
94911W        W60171  36.259  35.700   4.629
94912W        W60172  23.155  10.268  10.639
94913W        W60173   9.293  22.008  13.502
94914W        W60174   9.251  24.033  12.310
94915W        W60175  13.257  13.682  12.656
94916W        W60176  15.052  42.085   1.822
94917W        W60177  16.600  34.958   2.733
94918W        W60178  33.470  19.307  14.532
94919W        W60179  31.483  29.595  13.647
94920W        W60180  36.532  15.577   3.292
94921W        W60181  34.459  35.907   0.069
94922W        W60182   9.187  43.522  14.772
94923W        W60183  25.166  26.409   1.369
94924W        W60184  39.937  43.888  14.569
94925W        W60185  20.480  30.695  12.138
94926W        W60186  12.695   8.937  12.567
94927W        W60187  29.796   8.611   3.680
94928W        W60188   3.763  23.637  13.843
94929W        W60189   1.559  39.258  13.544
94930W        W60190  28.964  18.307   4.126
94931W        W60191  17.682  41.822  10.625
94932W        W60192   7.729  42.023  11.754
94933W        W60193  11.639  20.133  12.130
94934W        W60194   7.089  36.387   1.797
94935W        W60195   6.948  36.113  10.597
94936W        W60196  12.661   7.457   2.307
94937W        W60197  21.875   3.742   0.575
94938W        W60198   1.743  14.574  14.961
94939W        W60199  25.065  15.803  10.462
94940W        W60200  42.348  29.154  14.851
94941W        W60201   6.834  18.025  11.382
94942W        W60202   3.563  32.553  11.789
94943W        W60203  13.852  30.879  11.564
94944W        W60204  29.712  31.982  10.917
94945W        W60205  22.699  36.253  14.046
94946W        W60206  38.585  19.912   3.281
94947W        W60207  41.667  20.985  13.869
94948W        W60208  12.165  11.743   2.230
94949W        W60209  43.353  27.524   4.115
94950W        W60210  26.961  27.532   0.256
94951W        W60211  25.739   0.341  12.915
94952W        W60212   3.192  29.368   0.481
94953W        W60213  43.966  23.844   4.466
94954W        W60214  34.050  34.393   0.788
94955W        W60215  12.629  25.482  11.237
94956W        W60216   8.261  32.774   2.451
94957W        W60217   6.186  19.103   0.413
94958W        W60218  27.258  13.630  12.438
94959W        W60219  15.448  15.321   2.184
94960W        W60220   3.030  21.157  13.425
94961W        W60221  34.034  25.516  12.105
94962W        W60222  34.444  35.077  11.107
94963W        W60223   1.504  13.140  12.390
94964W        W60224  29.930  24.718  10.321
94965W        W60225  11.883   3.141   3.162
94966W        W60226  25.171  44.519   4.197
94967W        W60227  39.958  28.681   1.824
94968W        W60228  32.071  32.823  12.082
94969W        W60229  18.389  37.314  10.202
94970W        W60230  22.499  40.920   3.696
94971W        W60231  11.081  44.901   1.843
94972W        W60232  27.626  20.336   0.034
94973W        W60233  14.204  18.137  11.693
94974W        W60234  32.678  26.064   1.686
94975W        W60235   5.565  32.062   5.004
94976W        W60236  18.296   1.311   0.984
94977W        W60237  10.058  18.344  10.183
94978W        W60238   5.816  34.579  12.875
94979W        W60239   7.503  23.749  14.977
94980W        W60240  27.572   4.965  14.308
94981W        W60241  20.294   8.324  14.921
94982W        W60242  13.684   9.343  14.078
94983W        W60243  20.633   5.400  11.634
94984W        W60244   6.915   4.906   3.666
94985W        W60245   0.930   2.368  13.757
94986W        W60246  23.636   8.706  12.157
94987W        W60247  38.075  39.121  14.437
94988W        W60248   7.295  43.892   1.361
94989W        W60249  32.464  11.178   2.366
94990W        W60250  10.749   9.407   2.743
94991W        W60251  13.726   0.408  12.565
94992W        W60252  14.543  31.149   2.264
94993W        W60253  35.218  17.015   3.321
94994W        W60254  30.778   4.427   1.348
94995W        W60255  28.206  36.304   0.810
94996W        W60256   5.323  27.964  12.555
94997W        W60257  24.258   0.957   3.570
94998W        W60258   5.672  35.770   0.467
94999W        W60259  40.652   1.359  14.719
95000W        W60260  35.147   2.976   1.785
95001W        W60261  41.805  35.438  10.537
95002W        W60262  34.067  24.524   1.111
95003W        W60263  27.901  40.611   4.075
95004W        W60264   5.861  38.379  14.346
95005W        W60265   2.877   6.213  13.134
95006W        W60266  42.320  24.642   3.601
95007W        W60267  41.290   3.481  12.915
95008W        W60268  14.430  38.753  14.688
95009W        W60269  25.300  15.206   0.713
95010W        W60270  14.347   8.437  11.134
95011W        W60271  27.019   5.607   3.064
95012W        W60272   5.105   9.681  12.078
95013W        W60273  24.539  11.174  11.228
95014W        W60274  41.463   2.435  14.739
95015W        W60275  35.069   0.263  12.041
95016W        W60276  25.975  39.478   4.647
95017W        W60277  11.083  30.050   0.194
95018W        W60278  27.777  35.468   4.292
95019W        W60279  15.122  14.987  14.925
95020W        W60280   5.944  34.046  12.963
95021W        W60281  41.842  18.146  13.169
95022W        W60282   6.259   5.745   2.392
95023W        W60283  38.058  29.118  14.485
95024W        W60284  32.381  22.510   0.672
95025W        W60285  33.131  29.204  13.440
95026W        W60286   9.434  19.948   1.142
95027W        W60287  40.288  36.588   4.549
95028W        W60288  12.656  25.908  13.033
95029W        W60289  18.966  13.319  12.931
95030W        W60290  33.189  41.984   3.203
95031W        W60291  22.694   0.536  11.547
95032W        W60292  37.304  10.370  14.480
95033W        W60293  31.416   7.818   4.239
95034W        W60294   9.275  42.838  12.854
95035W        W60295  19.589  35.707   1.221
95036W        W60296  27.671   0.162  14.859
95037W        W60297  38.399   6.250   0.568
95038W        W60298  22.062  36.042   1.334
95039W        W60299  42.021   2.050   2.248
95040W        W60300  21.583  40.998  11.213
95041W        W60301  12.593  38.337   1.291
95042W        W60302  39.922  36.413  11.402
95043W        W60303  20.348   0.756  14.180
95044W        W60304  11.420  17.789   3.665
95045W        W60305  27.569  14.480   1.101
95046W        W60306  39.261  28.392   1.368
95047W        W60307  11.322  35.373   4.655
95048W        W60308  22.111  26.983  12.405
95049W        W60309  25.275  44.002   4.225
95050W        W60310   4.210   6.710   3.209
95051W        W60311   5.822  30.087   0.323
95052W        W60312  31.579  33.673   2.383
95053W        W60313   4.376  11.879   1.722
95054W        W60314  19.615  37.366  12.543
95055W        W60315  15.873  39.314   1.756
95056W        W60316   9.269   6.679  11.834
95057W        W60317  41.556  31.548  11.132
95058W        W60318  19.611   6.703   1.846
95059W        W60319  38.688  44.412   1.456
95060W        W60320  10.698  29.906  10.661
95061W        W60321  26.698  23.633   2.019
95062W        W60322  43.879  40.777  12.635
95063W        W60323  18.289  38.298  14.550
95064W        W60324  21.496  42.072   1.854
95065W        W60325  44.907  13.504   0.530
95066W        W60326  37.599  11.195  12.192
95067W        W60327  18.833  17.882  11.157
95068W        W60328  34.614   8.384   3.602
95069W        W60329  43.337  38.767   1.350
95070W        W60330   1.029  39.643   0.749
95071W        W60331  44.289   9.262  14.430
95072W        W60332  39.970  18.494   4.734
95073W        W60333  43.280  36.727   4.155
95074W        W60334  42.603   3.448   1.342
95075W        W60335  41.698  17.750   0.806
95076W        W60336   7.770  37.681  13.039
95077W        W60337  34.173  27.514  14.944
95078W        W60338  33.141  15.745  11.529
95079W        W60339   8.572  44.527   4.157
95080W        W60340  28.633  15.200  14.402
95081W        W60341  21.810  19.914   1.919
95082W        W60342  14.332  16.633  12.943
95083W        W60343  29.815  11.859   4.973
95084W        W60344  31.929  23.679  13.574
95085W        W60345  22.131  13.399  14.917
95086W        W60346  14.503  27.557  13.271
95087W        W60347   0.468  16.565  11.541
95088W        W60348   0.368  15.076  11.034
95089W        W60349  10.652   9.819   1.783
95090W        W60350   8.166  40.356   1.778
95091W        W60351  26.578  20.714   2.389
95092W        W60352   4.638  39.462   4.139
95093W        W60353  10.427  39.325   2.308
95094W        W60354  43.246  28.552  12.581
95095W        W60355   5.423   2.035  13.784
95096W        W60356   3.390  37.805  11.143
95097W        W60357   4.608  32.014  13.952
95098W        W60358  41.193  38.791  10.272
95099W        W60359  25.526  34.975  13.148
95100W        W60360  21.538  22.550   3.214
95101W        W60361  18.588  26.115   3.657
95102W        W60362  10.392   4.698   2.699
95103W        W60363   3.260  14.743   3.838
95104W        W60364  20.579  44.569   1.377
95105W        W60365  30.657   1.966   2.139
95106W        W60366   8.157  34.857   1.502
95107W        W60367  26.168  18.563  11.631
95108W        W60368  22.776   8.503   4.256
95109W        W60369  15.774  40.545  14.970
95110W        W60370  22.686  28.603   0.002
95111W        W60371  28.392   7.920  12.940
95112W        W60372  17.530  10.058  12.541
95113W        W60373  11.299  35.042   2.880
95114W        W60374  14.988  17.976   1.852
95115W        W60375  28.986  34.135  11.100
95116W        W60376  33.242  43.382   3.610
95117W        W60377  14.838  20.369   4.214
95118W        W60378  27.419  10.164  14.520
95119W        W60379  37.444  19.567  13.058
95120W        W60380  43.769   2.338  11.708
95121W        W60381  12.604  35.059   4.284
95122W        W60382   3.876  44.315   4.787
95123W        W60383  12.194  39.827  14.185
95124W        W60384  14.268  30.140  14.502
95125W        W60385  20.252  17.214  10.389
95126W        W60386  17.297  39.280   1.870
95127W        W60387  11.735  24.209  10.913
95128W        W60388  23.171  32.235   1.450
95129W        W60389  20.430  38.452  10.240
95130W        W60390  16.296   6.182  11.052
95131W        W60391  12.481  21.611  14.778
95132W        W60392   2.672   0.688  14.910
95133W        W60393  30.349   3.425   4.423
95134W        W60394  30.942  27.889  12.006
95135W        W60395  16.413  44.851  10.353
95136W        W60396  40.319  44.602  10.480
95137W        W60397  14.016  42.999  14.410
95138W        W60398  33.919  16.139   1.567
95139W        W60399  11.450  28.582  14.043
95140W        W60400   4.162   1.212   1.353
95141W        W60401  18.046   6.747   4.315
95142W        W60402  35.947  25.840   3.709
95143W        W60403   6.803  41.498  12.477
95144W        W60404  27.452  28.085   0.458
95145W        W60405  40.849  15.522  12.619
95146W        W60406  13.969  14.559   1.329
95147W        W60407  23.650  25.957  12.578
95148W        W60408  37.891   8.911  13.119
95149W        W60409   1.787   8.925  14.679
95150W        W60410  18.251  35.437   1.369
95151W        W60411   5.445  42.320  12.255
95152W        W60412  24.268  13.659   1.335
95153W        W60413  22.127   1.727   2.633
95154W        W60414  37.060  35.952  12.896
95155W        W60415  42.020   0.556   2.411
95156W        W60416  28.146  31.518   1.402
95157W        W60417  15.079   5.440  13.190
95158W        W60418  43.238  13.344  11.825
95159W        W60419  16.759  28.651  13.226
95160W        W60420  24.278  19.864  11.633
95161W        W60421  19.501  25.104   0.924
95162W        W60422   0.870  38.920  12.507
95163W        W60423   0.326   4.895  14.231
95164W        W60424  42.537   1.449  12.578
95165W        W60425   5.193  24.245   2.181
95166W        W60426  10.103  39.798  10.765
95167W        W60427  20.904  14.192   3.006
95168W        W60428  31.482  14.866  12.967
95169W        W60429  33.326  40.633  11.536
95170W        W60430   0.933   2.923   2.905
95171W        W60431  13.457  24.269   0.443
95172W        W60432  35.809  24.310   5.209
95173W        W60433  39.952   7.692   3.689
95174W        W60434  30.114  20.251  12.815
95175W        W60435  12.601   4.451   2.746
95176W        W60436  16.329   3.534   4.443
95177W        W60437  14.867  32.383  12.689
95178W        W60438  22.593  44.720  11.786
95179W        W60439  39.051  39.917   2.026
95180W        W60440  30.178  43.455  13.109
95181W        W60441  26.528   0.667  10.640
95182W        W60442   3.787  43.292  10.774
95183W        W60443  31.213  20.945   4.156
95184W        W60444  33.620   1.676  14.387
95185W        W60445  25.207  26.064  12.450
95186W        W60446   9.766  34.721  10.575
95187W        W60447  36.674   4.884   3.123
95188W        W60448  35.083  29.179  13.941
95189W        W60449   4.552  30.866  13.585
95190W        W60450   3.682  24.981   0.309
95191W        W60451  37.814   2.935   5.201
95192W        W60452  26.949  39.745  13.365
95193W        W60453  16.385  28.053   3.290
95194W        W60454   6.964  20.202   4.113
95195W        W60455  35.896   9.218   0.750
95196W        W60456  31.974  17.869   4.168
95197W        W60457   0.481   5.499   3.396
95198W        W60458  12.748  43.456   3.315
95199W        W60459  28.514  26.883  14.072
95200W        W60460  27.695  40.566  14.931
95201W        W60461  29.199   2.130   0.767
95202W        W60462  43.957  21.609   2.757
95203W        W60463   2.478   3.848  12.854
95204W        W60464  15.751  40.386  11.450
95205W        W60465  41.278  30.793   4.560
95206W        W60466  21.155  24.581  12.477
95207W        W60467  42.068  10.226  12.552
95208W        W60468  18.578  43.542  14.068
95209W        W60469  35.795  15.149   0.954
95210W        W60470  26.215  41.769  14.156
95211W        W60471  18.054  12.376  12.429
95212W        W60472  19.680  30.587  10.699
95213W        W60473  26.684  26.985   2.252
95214W        W60474   5.340  10.315   3.133
95215W        W60475  16.242  40.941   3.115
95216W        W60476  23.516  11.734   1.441
95217W        W60477  15.217  32.549  10.704
95218W        W60478  24.177  18.188  13.044
95219W        W60479  27.483   4.556   1.291
95220W        W60480   0.694  30.501   1.356
95221W        W60481   3.177   7.474  14.675
95222W        W60482   8.942  19.619  11.138
95223W        W60483  43.120  39.524  14.427
95224W        W60484   2.680   1.437   1.048
95225W        W60485  35.806   7.361  13.631
95226W        W60486   8.202  41.488   3.660
95227W        W60487   7.068  17.656  14.389
95228W        W60488  21.737  41.986   3.549
95229W        W60489  43.787  33.171   2.784
95230W        W60490  19.799   1.256   3.231
95231W        W60491  13.542  38.885   3.609
95232W        W60492   8.554  13.654   2.764
95233W        W60493  44.002  35.636  12.594
95234W        W60494  13.845  43.127   4.564
95235W        W60495  33.960   0.787   4.084
95236W        W60496  17.030  33.047   2.529
95237W        W60497  18.628   9.847   3.951
95238W        W60498   6.906  10.891   0.472
95239W        W60499   4.016  19.469  13.068
95240W        W60500   3.987   0.270   0.264
95241W        W60501  37.354   1.420   0.292
95242W        W60502   5.453   7.779  14.279
95243W        W60503  44.067  13.852   2.147
95244W        W60504   0.767  27.200  14.998
95245W        W60505  38.347  28.624   0.867
95246W        W60506  33.964   5.651  14.922
95247W        W60507  12.852   5.349   0.009
95248W        W60508  31.638  22.753   1.323
95249W        W60509  27.781  32.561   2.212
95250W        W60510  29.638  18.573  13.245
95251W        W60511  30.492  13.545  13.246
95252W        W60512   7.151  40.447   2.826
95253W        W60513   4.936  22.595   4.168
95254W        W60514  11.361   8.474   1.172
95255W        W60515  11.320  26.970  13.394
95256W        W60516  14.647  13.296  13.898
95257W        W60517   8.484   0.743   1.025
95258W        W60518  20.732   4.721  13.073
95259W        W60519  18.437  27.432  11.319
95260W        W60520   3.600  15.634  11.692
95261W        W60521  41.442  42.689   2.739
95262W        W60522   7.974   1.824   4.724
95263W        W60523   6.684  31.457   4.603
95264W        W60524  12.174   7.692   1.900
95265W        W60525  28.885  40.883   1.401
95266W        W60526  39.463  22.405  12.866
95267W        W60527  14.594  18.968  11.610
95268W        W60528  42.258  25.959  14.127
95269W        W60529  33.666  24.622  11.162
95270W        W60530  10.353  34.168  12.973
95271W        W60531  43.318  40.247  13.442
95272W        W60532   1.075  27.808   2.656
95273W        W60533  24.855  10.202  14.336
95274W        W60534  42.978  35.536   1.928
95275W        W60535   8.794  13.176  14.743
95276W        W60536  13.821  21.782  14.822
95277W        W60537  13.377  21.680  10.563
95278W        W60538   7.418  27.779  13.915
95279W        W60539  31.038   1.502  13.488
95280W        W60540  14.937   7.278   9.865
95281W        W60541  25.216  22.599  11.120
95282W        W60542  16.193  33.159   4.526
95283W        W60543  23.731   9.187   4.195
95284W        W60544   8.732  10.859   4.677
95285W        W60545   2.095  12.256  14.250
95286W        W60546  35.399  44.323  11.459
95287W        W60547  38.499  40.963   3.853
95288W        W60548   0.359  39.502   1.446
95289W        W60549   3.062  25.112  12.354
95290W        W60550  42.915  41.970  13.630
95291W        W60551  39.424   3.934  12.388
95292W        W60552  31.098  40.255  11.392
95293W        W60553  37.756   5.486   0.780
95294W        W60554  43.984  18.967  11.052
95295W        W60555  14.188  17.811  13.336
95296W        W60556   7.633  44.345  11.136
95297W        W60557  20.425  31.463   4.478
95298W        W60558  27.227  13.328  13.118
95299W        W60559  29.012  29.812  13.769
95300W        W60560  16.774  26.576   4.260
95301W        W60561  10.123   0.130   2.024
95302W        W60562  17.065  11.215  11.376
95303W        W60563   0.956   5.842  12.391
95304W        W60564  35.597  21.551   3.223
95305W        W60565   2.435  13.143  11.071
95306W        W60566  37.772  27.603  14.914
95307W        W60567  31.445  22.994  13.286
95308W        W60568   9.779   1.818   1.833
95309W        W60569  15.542  14.189   4.120
95310W        W60570   8.773  31.191  10.104
95311W        W60571  10.903   5.214   0.804
95312W        W60572  26.586  12.103   2.656
95313W        W60573  17.608   0.170  14.010
95314W        W60574  20.130  29.969   3.680
95315W        W60575  42.017   2.795   1.491
95316W        W60576  33.821  11.786   4.672
95317W        W60577  10.516   4.187  11.562
95318W        W60578   9.626  20.159   2.799
95319W        W60579  23.393  38.367   3.866
95320W        W60580  36.407  30.584   2.722
95321W        W60581  12.706   0.419  12.538
95322W        W60582  44.438  24.055  12.556
95323W        W60583  14.319  29.154  12.152
95324W        W60584  12.798  17.771   0.059
95325W        W60585   3.248  28.960  11.654
95326W        W60586   3.130  29.070  12.146
95327W        W60587  39.463  28.995   4.106
95328W        W60588  21.686   2.974   1.927
95329W        W60589   8.863  40.435   4.146
95330W        W60590  16.128   7.239   1.173
95331W        W60591  19.460  33.901   4.054
95332W        W60592   6.550  19.753  12.604
95333W        W60593  24.550  22.675  11.552
95334W        W60594   2.254  11.860   1.876
95335W        W60595  14.871  38.789  12.461
95336W        W60596  10.420  23.774   0.876
95337W        W60597  28.619  27.458   0.921
95338W        W60598  38.285  27.049  12.496
95339W        W60599  27.451   3.301  14.315
95340W        W60600  13.269  36.479  12.201
95341W        W60601  40.277  16.171  12.868
95342W        W60602  38.658   2.749   4.188
95343W        W60603  12.376  37.861   2.017
95344W        W60604  11.055  44.485   2.168
95345W        W60605  24.566  17.572  14.652
95346W        W60606   0.249  13.107  14.886
95347W        W60607   8.959  14.040   2.335
95348W        W60608  19.229  11.257   0.855
95349W        W60609   6.224  30.670   1.187
95350W        W60610  10.211  38.615  14.635
95351W        W60611  19.676  43.609   2.794
95352W        W60612  42.365  14.281   2.780
95353W        W60613  40.231  17.117  12.902
95354W        W60614  25.186   2.187   4.447
95355W        W60615  26.418  35.942   0.865
95356W        W60616  15.560  28.993  11.928
95357W        W60617  39.963  11.658  11.910
95358W        W60618  26.374  23.008   0.381
95359W        W60619  35.891  38.407   4.473
95360W        W60620  13.759  43.753   0.421
95361W        W60621   3.278  25.301   2.573
95362W        W60622   6.790  15.156  14.339
95363W        W60623   6.287   1.753  14.006
95364W        W60624  39.812  26.194   3.263
95365W        W60625  31.137  22.977   1.853
95366W        W60626  43.876  22.391   3.617
95367W        W60627  21.976  26.014   3.918
95368W        W60628  28.215  19.506   4.602
95369W        W60629  12.866  36.557   4.514
95370W        W60630  39.417  38.582   1.219
95371W        W60631  13.848  28.761   0.894
95372W        W60632  42.289  27.409   3.995
95373W        W60633  40.263   0.118  10.385
95374W        W60634  18.698   4.189   1.255
95375W        W60635  14.090   2.319  12.528
95376W        W60636   4.441  25.702   2.849
95377W        W60637   1.405  35.387   4.356
95378W        W60638   3.825  13.543  10.395
95379W        W60639  11.863  35.562   4.964
95380W        W60640  43.080  29.588   1.758
95381W        W60641   6.877  23.471   3.639
95382W        W60642  20.770   7.787   1.177
95383W        W60643  37.008  17.552  10.884
95384W        W60644   9.150  32.460   2.915
95385W        W60645  30.833  21.227   1.355
95386W        W60646  42.293   8.577  12.274
95387W        W60647  43.298   0.264   2.881
95388W        W60648   9.234  35.917   3.995
95389W        W60649   5.192  21.180  14.505
95390W        W60650  13.069  34.192  10.810
95391W        W60651  20.010   3.851   1.899
95392W        W60652  26.133   9.749   1.716
95393W        W60653   1.520  25.992   1.842
95394W        W60654  36.589  19.805  11.041
95395W        W60655  44.247  24.506  14.468
95396W        W60656  11.814  31.719   9.912
95397W        W60657   7.429   7.894   2.688
95398W        W60658   0.896  31.944   3.531
95399W        W60659  27.049  22.068   4.533
95400W        W60660  31.011  36.127  14.683
95401W        W60661  26.314  25.474  14.338
95402W        W60662  37.577  28.738   3.415
95403W        W60663  18.683  35.361   1.116
95404W        W60664  40.516  14.561  13.283
95405W        W60665  28.386  31.817  11.730
95406W        W60666   2.148  35.377  11.967
95407W        W60667  44.286  36.431   2.818
95408W        W60668   6.256   7.917  11.664
95409W        W60669  26.033  44.375   0.427
95410W        W60670  14.475  26.767  10.106
95411W        W60671  34.098  28.844   0.911
95412W        W60672   4.211  31.259  13.572
95413W        W60673  17.516  19.185  13.925
95414W        W60674   1.339  18.140   2.361
95415W        W60675  40.558  33.180   0.320
95416W        W60676  29.975  22.936  12.302
95417W        W60677  15.856  11.899   5.028
95418W        W60678   8.134  22.359   1.391
95419W        W60679  40.850  25.864  11.567
95420W        W60680   4.198  43.295   2.280
95421W        W60681   3.349  16.841  12.914
95422W        W60682   4.435   8.803  12.433
95423W        W60683  13.644  25.741   4.707
95424W        W60684  17.649   8.292   0.089
95425W        W60685  39.468  13.134  12.561
95426W        W60686  15.659  42.270  10.201
95427W        W60687  41.387  30.593  13.392
95428W        W60688  24.667   1.394   4.231
95429W        W60689   5.512  17.796  11.929
95430W        W60690  43.474   7.293   0.946
95431W        W60691  24.630  36.000   1.902
95432W        W60692  23.047  44.888   2.232
95433W        W60693   2.340   3.683  14.674
95434W        W60694  33.955   6.741   3.280
95435W        W60695  38.638  40.841  11.259
95436W        W60696  37.491   7.099   4.184
95437W        W60697  19.218  36.560   0.946
95438W        W60698   4.429   0.447  11.495
95439W        W60699  26.748  19.311   1.968
95440W        W60700   4.373  29.709  14.870
95441W        W60701   6.314  15.098  14.518
95442W        W60702  21.988  24.866   1.040
95443W        W60703   3.734  37.620   0.717
95444W        W60704  30.673   1.522  14.891
95445W        W60705   1.838  14.064  14.945
95446W        W60706  26.210  31.866  10.301
95447W        W60707  42.406  41.061   4.249
95448W        W60708  36.987  26.684  13.436
95449W        W60709   1.979  18.049  12.534
95450W        W60710  18.246  19.674  14.279
95451W        W60711  23.919  20.204   2.469
95452W        W60712  26.592   7.926   1.425
95453W        W60713  41.299  44.433   3.120
95454W        W60714  42.630  33.074   4.903
95455W        W60715  32.121  15.782  13.501
95456W        W60716  42.427   1.357  13.095
95457W        W60717  28.050  29.841  13.412
95458W        W60718  30.661  30.871   0.944
95459W        W60719  37.999  32.673   2.275
95460W        W60720  15.042  21.096  11.705
95461W        W60721  32.691  23.104   3.077
95462W        W60722  26.737  42.104   0.884
95463W        W60723  28.101  28.971   3.413
95464W        W60724  22.214  34.686  11.576
95465W        W60725  44.851  39.248   2.198
95466W        W60726  20.181  35.555  12.150
95467W        W60727  30.131   3.789  13.625
95468W        W60728  15.162   7.712   1.822
95469W        W60729  36.960  12.217   1.748
95470W        W60730  31.641  35.048   0.908
95471W        W60731  18.751   1.854  13.314
95472W        W60732  22.255   8.836   2.042
95473W        W60733  23.700   9.444   0.409
95474W        W60734  37.907  40.030  11.015
95475W        W60735  37.046  19.090  12.962
95476W        W60736  36.473  12.834  10.041
95477W        W60737  27.047  36.200   0.449
95478W        W60738  32.202  22.647  12.875
95479W        W60739  38.863  10.963   0.379
95480W        W60740  28.218   8.948  12.178
95481W        W60741  10.822  36.593   4.734
95482W        W60742  18.363  35.369  13.862
95483W        W60743  35.116  20.518  14.592
95484W        W60744   1.440  36.587  10.917
95485W        W60745   7.281  19.519   4.053
95486W        W60746  11.708   9.018   5.361
95487W        W60747  17.956  37.031   0.920
95488W        W60748  19.887  15.329   5.071
95489W        W60749  10.504  41.382   3.427
95490W        W60750  40.065  16.233  11.846
95491W        W60751  33.013  12.648   0.782
95492W        W60752   9.394  18.006   0.534
95493W        W60753  23.563  17.007  12.622
95494W        W60754  30.707  29.671   1.836
95495W        W60755  42.751   2.689  12.598
95496W        W60756  11.803  19.884  11.212
95497W        W60757  39.634  44.058   3.868
95498W        W60758  20.504  26.002   2.694
95499W        W60759  28.714  23.259   0.771
95500W        W60760  31.744  20.231   2.204
95501W        W60761  44.521  33.825  14.693
95502W        W60762   9.901  44.776   4.134
95503W        W60763   1.954   1.689   4.167
95504W        W60764  21.284  13.218   1.727
95505W        W60765  23.074  14.613  11.540
95506W        W60766  13.129  42.915  14.309
95507W        W60767  14.173  20.604  10.854
95508W        W60768  18.694  16.797  10.189
95509W        W60769  39.845   9.561   0.744
95510W        W60770  13.875  41.264   3.587
95511W        W60771  24.162  23.709  14.066
95512W        W60772  43.280  36.808   2.252
95513W        W60773  32.191   7.355  13.435
95514W        W60774  25.680  27.955   0.713
95515W        W60775  38.349   6.311  12.084
95516W        W60776  27.558  33.593  12.485
95517W        W60777  43.560   8.476  10.771
95518W        W60778   4.999  39.422  13.904
95519W        W60779  24.105  19.599   2.132
95520W        W60780   4.935   6.654   4.283
95521W        W60781  44.740  23.716  14.545
95522W        W60782   7.605   4.662   4.204
95523W        W60783  13.483  11.189   4.144
95524W        W60784   2.305  22.071  14.934
95525W        W60785  34.852   8.349  12.973
95526W        W60786  42.938  11.172   0.925
95527W        W60787   5.121  43.950  14.806
95528W        W60788  34.008  31.274   3.719
95529W        W60789  41.860  30.155  13.879
95530W        W60790  20.551   7.412  14.963
95531W        W60791  29.252  13.041  14.676
95532W        W60792   5.783  33.155  13.842
95533W        W60793  31.059  16.338   2.797
95534W        W60794   0.645  38.468   1.382
95535W        W60795   9.668  32.445   4.170
95536W        W60796  39.895  18.228   0.710
95537W        W60797  24.491  31.937  13.918
95538W        W60798  22.087  44.774  13.917
95539W        W60799  10.959  39.033  10.741
95540W        W60800  19.639  31.074  10.893
95541W        W60801  21.252  36.425   1.032
95542W        W60802  29.556   8.774   0.226
95543W        W60803  13.360  27.044  13.142
95544W        W60804  33.901  42.978   2.518
95545W        W60805  12.257  25.965  10.952
95546W        W60806   2.740  13.025  12.037
95547W        W60807  34.988  11.692  13.788
95548W        W60808  38.111  39.244  13.883
95549W        W60809  31.352  28.239   3.276
95550W        W60810  41.498  21.215  10.851
95551W        W60811  32.977  28.669  11.502
95552W        W60812  20.240  15.460  10.943
95553W        W60813  30.927   5.109  12.122
95554W        W60814  37.908  15.232  14.706
95555W        W60815   0.659   7.012  11.187
95556W        W60816  14.288  13.631   1.334
95557W        W60817  33.954   8.207   4.585
95558W        W60818  20.819   9.815  11.645
95559W        W60819   5.885  26.409   4.286
95560W        W60820  13.224  17.035   4.046
95561W        W60821  35.850  42.358  11.142
95562W        W60822   6.793  22.062  10.995
95563W        W60823  29.160   1.019   4.925
95564W        W60824  43.458  10.367  13.976
95565W        W60825  27.053  42.762   4.449
95566W        W60826  15.725  36.937   0.286
95567W        W60827  40.974  12.131  13.806
95568W        W60828  15.845  18.979   1.824
95569W        W60829  40.414  32.952  12.134
95570W        W60830  34.298  33.575  13.436
95571W        W60831  19.244  31.947   3.889
95572W        W60832  27.012  36.760   4.634
95573W        W60833   6.842  39.792  11.890
95574W        W60834  28.520  10.633  12.473
95575W        W60835  25.027  18.160  12.521
95576W        W60836  24.896  13.228   0.354
95577W        W60837  12.173  36.671  14.817
95578W        W60838  32.396   3.724  13.562
95579W        W60839  40.254   4.125  10.598
95580W        W60840   8.813  38.868  11.182
95581W        W60841  17.922  24.737   3.215
95582W        W60842  39.326  15.294  13.772
95583W        W60843  12.809   4.951  11.628
95584W        W60844   8.850  43.336  11.989
95585W        W60845   2.696   2.401  11.933
95586W        W60846  29.292   1.932  10.891
95587W        W60847  44.978  17.507   1.370
95588W        W60848  13.204  34.270  10.301
95589W        W60849  26.098   2.234   1.482
95590W        W60850  32.679  42.771  12.900
95591W        W60851  31.451  42.107  11.602
95592W        W60852  14.871  41.682  11.106
95593W        W60853  17.810  22.052   1.276
95594W        W60854  33.394  12.904   1.054
95595W        W60855  16.497   6.210  11.660
95596W        W60856  24.847  38.052   0.897
95597W        W60857   2.138  29.636  14.484
95598W        W60858  11.862   6.220  11.075
95599W        W60859   2.246  25.196  14.768
95600W        W60860  43.951  22.488   1.839
95601W        W60861   6.132   2.249   3.668
95602W        W60862   6.414  36.312  12.994
95603W        W60863  29.881  40.310   0.898
95604W        W60864  43.712  43.596   2.649
95605W        W60865  21.938  32.596  14.271
95606W        W60866  21.175  18.066   0.667
95607W        W60867  44.501   3.918   1.302
95608W        W60868  20.193   7.788   4.878
95609W        W60869  40.340  11.705   2.814
95610W        W60870  43.460  10.534   0.757
95611W        W60871  16.769   1.162   1.396
95612W        W60872  36.427  12.430   2.430
95613W        W60873  23.962  31.466  11.094
95614W        W60874   5.671   2.196  13.361
95615W        W60875  25.481  13.555   3.286
95616W        W60876  18.659  20.151   1.750
95617W        W60877   0.301  21.375  11.037
95618W        W60878  43.898  12.436   1.864
95619W        W60879  20.266  14.812   4.607
95620W        W60880   6.631   3.709   1.307
95621W        W60881  13.197   6.170   3.126
95622W        W60882  21.608  34.871   0.913
95623W        W60883  36.536  28.649  14.646
95624W        W60884  11.102  35.273  13.316
95625W        W60885   3.339  42.445  10.517
95626W        W60886  31.005  25.449   2.795
95627W        W60887  33.892  27.551   4.240
95628W        W60888   6.165  20.008   0.361
95629W        W60889  34.131  18.767  14.873
95630W        W60890  15.250  40.597   3.883
95631W        W60891  10.857  13.933  11.131
95632W        W60892   7.595   9.855   3.347
95633W        W60893   8.299  19.170  14.008
95634W        W60894  33.855   5.195   1.804
95635W        W60895   6.820  26.222  10.185
95636W        W60896  16.654  11.416   4.080
95637W        W60897  27.494  32.945   1.647
95638W        W60898  44.359   0.040  11.085
95639W        W60899  40.382  19.622   4.044
95640W        W60900  17.055  18.702  14.985
95641W        W60901  41.478  26.771   1.732
95642W        W60902  33.335   9.677   2.883
95643W        W60903  20.141  31.116  11.061
95644W        W60904  37.247  17.580   2.396
95645W        W60905  40.284  37.169  12.873
95646W        W60906  20.961  31.868   4.601
95647W        W60907   5.683   1.436  11.888
95648W        W60908  26.261  27.646   4.142
95649W        W60909  21.307  16.619   1.507
95650W        W60910  44.355  19.482  10.451
95651W        W60911  23.500  15.178   0.377
95652W        W60912  10.539  16.269   3.634
95653W        W60913  39.880  40.376   1.219
95654W        W60914  39.460  39.102   0.292
95655W        W60915   7.979   1.506  13.998
95656W        W60916  41.110  31.929  12.011
95657W        W60917  32.939  35.091  10.879
95658W        W60918  33.591  13.697   1.347
95659W        W60919  41.776  12.173  10.142
95660W        W60920  25.023  25.750   1.920
95661W        W60921  16.341  33.506   3.729
95662W        W60922  21.757  12.867  12.398
95663W        W60923   8.488  35.144   2.774
95664W        W60924   6.430  26.161   0.309
95665W        W60925  14.755  24.680   0.324
95666W        W60926  34.858  14.621   2.773
95667W        W60927  13.921  17.408  14.764
95668W        W60928  17.743  28.342   4.130
95669W        W60929  44.274   3.256  11.630
95670W        W60930  39.633  34.978   0.803
95671W        W60931  18.560  26.285  13.323
95672W        W60932   4.590  28.528   4.596
95673W        W60933  15.548   7.776   4.182
95674W        W60934  41.912  33.593   3.089
95675W        W60935  19.799  14.602   3.175
95676W        W60936  24.559   2.665  10.859
95677W        W60937   1.323  27.248   3.235
95678W        W60938  27.035   8.779   2.314
95679W        W60939  17.270  29.583   1.393
95680W        W60940  41.044   8.172   3.095
95681W        W60941  27.501   5.499  11.043
95682W        W60942  44.809  43.756  14.947
95683W        W60943   2.272  32.408  13.137
95684W        W60944  26.638   0.780   3.680
95685W        W60945  17.597   1.242  13.715
95686W        W60946  38.867  14.612  11.936
95687W        W60947  23.677  24.715   4.294
95688W        W60948   6.405  26.494  13.789
95689W        W60949  39.868   2.764   2.225
95690W        W60950  30.523  30.667  13.126
95691W        W60951   3.464  12.210   1.844
95692W        W60952   6.125   1.795   0.530
95693W        W60953  23.924  36.518   1.806
95694W        W60954  32.569  37.094   2.895
95695W        W60955  42.689  37.865  10.073
95696W        W60956  38.252  12.109   2.236
95697W        W60957  24.153  31.243  11.564
95698W        W60958  25.719  11.976   4.704
95699W        W60959   8.282  32.608   3.409
95700W        W60960  25.278  44.420   0.830
95701W        W60961  13.306  16.493  11.354
95702W        W60962  14.549  38.601   2.662
95703W        W60963  30.510  35.984   3.764
95704W        W60964  18.504  13.143   1.501
95705W        W60965   7.140  38.944  13.406
95706W        W60966  18.885   1.839   4.348
95707W        W60967  10.224  40.601   5.064
95708W        W60968  44.299  34.933  11.875
95709W        W60969  43.373  34.893  11.494
95710W        W60970  37.630  24.907  11.576
95711W        W60971  18.069  39.799   0.378
95712W        W60972  44.924  30.012  11.601
95713W        W60973  43.580  21.170  10.417
95714W        W60974  37.468   6.751   1.150
95715W        W60975  31.738  31.095  14.369
95716W        W60976  36.989  32.422   2.951
95717W        W60977  13.062  40.023  14.257
95718W        W60978  32.042  18.880  14.437
95719W        W60979  20.193  20.244   3.891
95720W        W60980   7.390  11.909   4.585
95721W        W60981  21.773   6.318  11.614
95722W        W60982  20.937  19.616   0.839
95723W        W60983   1.561  24.035   3.657
95724W        W60984   1.266   8.708   3.822
95725W        W60985   0.271  42.996  12.898
95726W        W60986  21.484  39.560   1.929
95727W        W60987  18.793  10.112  13.892
95728W        W60988  39.804  15.780   3.278
95729W        W60989  44.313  26.093  10.662
95730W        W60990   3.005  17.585   2.604
95731W        W60991  15.466  13.650   1.985
95732W        W60992  31.504  36.964  11.058
95733W        W60993   0.825  21.992  10.707
95734W        W60994   0.230   0.832   3.806
95735W        W60995   0.411  39.970   1.183
95736W        W60996   8.880  35.975  11.002
95737W        W60997  21.707   5.787   3.547
95738W        W60998  33.106  22.260   2.919
95739W        W60999  32.628   7.142   3.247
95740W        W61000  33.306  44.254  14.264
95741W        W61001  13.102   8.399   3.874
95742W        W61002   4.669  39.058   0.862
95743W        W61003  40.606  16.588  11.535
95744W        W61004   1.337  41.460   2.700
95745W        W61005   9.625   3.206   3.703
95746W        W61006  25.777  35.259  14.870
95747W        W61007  33.444   0.535   1.408
95748W        W61008  29.091   3.791   2.750
95749W        W61009  20.200  15.325   4.578
95750W        W61010  23.032  12.360   3.531
95751W        W61011   3.682  32.175   1.893
95752W        W61012  14.074  11.719  13.565
95753W        W61013  19.231  36.992  12.622
95754W        W61014   2.858   8.746  14.952
95755W        W61015  25.771  27.090   2.414
95756W        W61016   8.978  28.944   4.748
95757W        W61017  19.072   1.205   3.635
95758W        W61018  40.348  20.225  13.934
95759W        W61019  33.942   5.624   4.247
95760W        W61020   8.647  21.480   3.223
95761W        W61021  34.835  37.749  11.910
95762W        W61022  34.964  41.817   0.516
95763W        W61023   3.801  44.361   0.327
95764W        W61024  29.229  44.922  11.986
95765W        W61025  18.128  33.567   0.732
95766W        W61026  18.532  25.145   4.971
95767W        W61027  28.720  36.335   0.705
95768W        W61028   6.144  15.260   4.112
95769W        W61029  16.872  37.095  12.478
95770W        W61030  27.462  22.006   2.213
95771W        W61031   9.279  42.254  14.443
95772W        W61032  30.539  16.154   4.552
95773W        W61033  22.198   1.295   1.703
95774W        W61034  24.754  15.681  11.421
95775W        W61035  27.035   3.269  14.861
95776W        W61036  23.570  22.133   3.393
95777W        W61037   5.389   5.832   1.530
95778W        W61038  18.683  34.158   3.742
95779W        W61039   0.128  33.185   1.139
95780W        W61040   0.605  42.997   2.610
95781W        W61041  10.207  37.945   1.012
95782W        W61042  14.525  17.696  10.191
95783W        W61043  37.412   9.862  12.406
95784W        W61044   9.955   1.032  13.316
95785W        W61045  42.472  31.436   1.745
95786W        W61046  16.660  27.653   2.020
95787W        W61047  21.959  42.700   4.594
95788W        W61048  11.034  12.473  13.904
95789W        W61049  11.383  12.210   1.291
95790W        W61050  32.168  20.062  13.775
95791W        W61051  35.091  33.573   1.399
95792W        W61052   4.475  43.863  11.214
95793W        W61053  28.180  27.212   0.986
95794W        W61054  21.847  42.092  10.772
95795W        W61055  18.467  16.723   3.701
95796W        W61056  38.853  34.327  10.802
95797W        W61057  25.732   4.119  13.521
95798W        W61058  21.645  30.899   2.693
95799W        W61059  21.182  24.629  12.975
95800W        W61060   8.735  40.486   1.879
95801W        W61061   2.737  11.831   3.426
95802W        W61062  23.918  26.126  12.064
95803W        W61063   5.128  24.477   2.632
95804W        W61064  23.099   5.868   2.061
95805W        W61065  42.158  37.009  11.346
95806W        W61066   7.212  37.584   4.831
95807W        W61067   9.346   1.892   0.289
95808W        W61068  22.034  37.466  13.902
95809W        W61069  12.202  33.439   4.835
95810W        W61070  26.040  10.321   3.302
95811W        W61071  38.656   2.696  14.414
95812W        W61072  41.595  33.007   4.631
95813W        W61073  25.293  11.438   4.119
95814W        W61074  10.339  41.318   4.133
95815W        W61075  41.468  42.223  14.264
95816W        W61076  19.558  25.260  14.325
95817W        W61077  27.230   2.285  11.764
95818W        W61078   8.638  17.160   0.019
95819W        W61079  43.835  29.021   1.423
95820W        W61080  19.758   0.744   3.207
95821W        W61081  11.807  18.292   1.402
95822W        W61082  19.856  24.283   3.264
95823W        W61083  15.523  16.532   3.267
95824W        W61084   6.216  21.705   3.654
95825W        W61085  10.773   5.940   0.479
95826W        W61086  43.066  40.516   2.020
95827W        W61087  23.703   8.195  14.480
95828W        W61088  26.454  15.734  10.818
95829W        W61089  35.986   7.394   4.307
95830W        W61090  12.191   3.084   4.981
95831W        W61091  28.940  11.070  13.857
95832W        W61092  40.217   7.886   5.023
95833W        W61093  31.362  39.000  13.511
95834W        W61094   1.955  18.827   1.443
95835W        W61095   6.814  22.224  14.965
95836W        W61096  33.854  17.722  13.029
95837W        W61097  39.768  13.359   0.359
95838W        W61098  11.763   5.780   4.462
95839W        W61099  36.892  17.098   4.768
95840W        W61100  34.368   9.794  12.524
95841W        W61101   4.733  15.492   3.789
95842W        W61102  14.658  27.523  13.809
95843W        W61103  12.150  29.659   3.339
95844W        W61104  11.201  10.698  12.387
95845W        W61105  10.176  19.962  14.803
95846W        W61106   8.766  31.376  11.573
95847W        W61107  19.392  38.026  13.312
95848W        W61108  10.732  25.214   0.697
95849W        W61109  36.923  44.717   0.384
95850W        W61110   9.845  35.424  13.044
95851W        W61111  18.928  11.398   0.460
95852W        W61112  42.873  32.157  11.854
95853W        W61113  23.232  44.147  12.536
95854W        W61114  34.393  28.825   4.605
95855W        W61115  11.854  40.074   1.763
95856W        W61116  44.809  22.661   1.657
95857W        W61117  18.268   8.094   1.960
95858W        W61118  19.933   4.365  12.297
95859W        W61119  13.704  34.454   4.792
95860W        W61120   4.498  17.110  11.533
95861W        W61121  42.476   6.786   2.181
95862W        W61122   8.202  18.500   0.898
95863W        W61123   8.125  28.146   4.018
95864W        W61124   6.944   3.568  13.270
95865W        W61125  16.550  17.591   4.556
95866W        W61126  33.179   7.578  12.483
95867W        W61127  12.639  13.953   1.914
95868W        W61128  11.244  41.360   1.288
95869W        W61129  10.864   1.059  14.491
95870W        W61130   6.683   3.406   3.212
95871W        W61131  30.220   1.383  11.492
95872W        W61132  13.846  44.795   1.319
95873W        W61133  27.905  24.249  10.964
95874W        W61134  29.198  36.043  11.509
95875W        W61135  44.749  34.706  11.949
95876W        W61136  25.989  29.386   0.165
95877W        W61137  35.837   5.086  10.413
95878W        W61138  41.114   6.806  14.140
95879W        W61139  18.316  19.776   0.797
95880W        W61140  10.134   5.681   3.758
95881W        W61141   9.559  37.325  11.625
95882W        W61142  14.929  16.508   0.818
95883W        W61143  29.331  24.479  10.858
95884W        W61144   4.990  34.755  11.180
95885W        W61145  24.179  21.331  12.906
95886W        W61146  14.564  13.297  12.184
95887W        W61147  44.728  27.932   0.080
95888W        W61148  25.202  20.793  10.804
95889W        W61149  34.694  14.313  14.685
95890W        W61150  42.411   3.873   1.136
95891W        W61151  36.110   3.937  11.451
95892W        W61152  32.958  22.736  14.132
95893W        W61153  17.067   8.216  13.330
95894W        W61154  39.491  25.579  14.795
95895W        W61155   6.891  14.427   3.090
95896W        W61156  42.885  29.166   4.601
95897W        W61157  37.202  22.862   1.522
95898W        W61158  17.908  22.947   3.204
95899W        W61159  34.406  35.610  11.070
95900W        W61160  32.429   8.221   1.174
95901W        W61161  18.162  27.661  12.191
95902W        W61162  41.869  34.627  12.674
95903W        W61163  23.594  40.919  13.350
95904W        W61164  11.145  28.614   1.906
95905W        W61165  17.345  17.989   9.873
95906W        W61166   1.935  32.890  12.439
95907W        W61167  43.910  25.580  10.036
95908W        W61168  39.860  11.901   0.394
95909W        W61169  26.025  38.985   3.374
95910W        W61170  12.401  29.539  10.057
95911W        W61171  16.890  22.909  14.255
95912W        W61172  18.433   2.720   3.430
95913W        W61173   1.999  30.451   2.544
95914W        W61174  40.095  38.291   0.681
95915W        W61175  20.723  29.100   1.349
95916W        W61176  15.237  28.795  11.489
95917W        W61177  37.416   1.880   1.261
95918W        W61178  22.640  29.414   3.758
95919W        W61179  11.443  26.331   4.101
95920W        W61180   9.027  23.863   4.584
95921W        W61181  15.535  13.647   1.041
95922W        W61182  26.358  27.069   2.642
95923W        W61183  15.211  36.461  14.791
95924W        W61184  34.445   2.730   4.157
95925W        W61185  15.736  31.619   1.991
95926W        W61186  39.379  38.911   0.763
95927W        W61187  15.330  34.768   5.014
95928W        W61188  44.033  11.156  14.734
95929W        W61189  43.328  41.408  13.904
95930W        W61190  39.394  40.861   3.256
95931W        W61191  13.553  34.875   1.460
95932W        W61192  17.230  44.762  10.778
95933W        W61193  13.311  39.848   4.573
95934W        W61194  21.199   7.382   0.789
95935W        W61195  14.674  32.921  13.787
95936W        W61196  40.078  15.452   2.958
95937W        W61197  42.091   1.726   4.195
95938W        W61198  37.386   2.363  10.978
95939W        W61199  32.472  36.486   4.776
95940W        W61200  26.640   1.031   4.167
95941W        W61201  28.510  43.785  11.892
95942W        W61202  26.999  35.167  12.428
95943W        W61203  31.914   7.011   4.193
95944W        W61204  19.111  39.356  10.577
95945W        W61205  32.588  18.177   3.076
95946W        W61206  36.479   9.133  11.897
95947W        W61207  31.610  23.652  11.482
95948W        W61208   7.008  36.406  11.880
95949W        W61209  28.238  16.276   0.803
95950W        W61210  34.524   7.528   3.655
95951W        W61211  37.854  15.812  12.244
95952W        W61212  30.388  21.620  11.576
95953W        W61213  24.869   0.439   2.609
95954W        W61214  31.025  36.328   0.156
95955W        W61215  43.379   6.704  14.682
95956W        W61216  16.759  37.823   3.688
95957W        W61217   6.700   5.362  12.872
95958W        W61218  42.364   5.280   3.536
95959W        W61219  18.522  28.906   2.687
95960W        W61220   8.402  19.066   4.796
95961W        W61221  23.132   8.692  12.829
95962W        W61222   8.725  28.836   1.717
95963W        W61223  28.521  33.643   2.635
95964W        W61224   0.003  33.739  14.803
95965W        W61225  20.544  34.530   3.566
95966W        W61226  22.046  30.231   1.855
95967W        W61227  19.112  38.767   2.113
95968W        W61228  43.364  38.029   2.689
95969W        W61229  39.767  39.068  10.744
95970W        W61230  37.572  34.842  11.617
95971W        W61231  25.833   1.152  12.436
95972W        W61232  21.849  28.688   2.645
95973W        W61233  24.476  10.634  10.602
95974W        W61234  27.981  36.582   0.433
95975W        W61235  43.215  22.293   2.655
95976W        W61236  43.534  10.458   4.203
95977W        W61237  12.621  40.435   2.887
95978W        W61238  22.819  34.807   4.211
95979W        W61239  33.093  37.425  12.457
95980W        W61240   9.379  17.819  14.543
95981W        W61241  35.107   4.858  11.537
95982W        W61242  42.492   6.056  10.467
95983W        W61243  15.290  22.614  12.431
95984W        W61244  37.504   8.293   2.260
95985W        W61245  20.727  42.725  13.547
95986W        W61246  19.441  38.088   2.710
95987W        W61247  38.905  16.052  12.984
95988W        W61248   4.351  22.138   1.991
95989W        W61249  12.238   1.643   2.142
95990W        W61250  30.532  40.307   2.480
95991W        W61251  17.513   4.481   1.817
95992W        W61252  34.920   2.529   1.933
95993W        W61253  12.705  32.493   2.758
95994W        W61254  36.613  23.135   3.496
95995W        W61255  24.500   6.738  13.408
95996W        W61256  33.940  13.679   2.609
95997W        W61257  26.470  35.225  11.599
95998W        W61258  15.611  25.551   0.785
95999W        W61259  38.048   2.499  13.719
96000W        W61260  21.804  23.950   2.255
96001W        W61261   6.682   4.651  13.433
96002W        W61262  44.647  30.800  12.001
96003W        W61263  29.915  42.066  11.327
96004W        W61264   8.955  11.043  13.833
96005W        W61265  39.692  38.036   2.075
96006W        W61266  35.724  10.546   3.735
96007W        W61267  24.641  33.538  13.936
96008W        W61268  18.769  15.154   1.665
96009W        W61269   0.419  29.856  11.674
96010W        W61270   0.571  11.664   0.087
96011W        W61271  36.998   2.473   0.863
96012W        W61272  14.610  43.220   3.826
96013W        W61273   4.400  10.403  11.007
96014W        W61274  36.110   7.637   0.249
96015W        W61275   6.090  25.215   4.562
96016W        W61276  15.261  23.260  11.571
96017W        W61277  22.012  28.018  14.734
96018W        W61278  11.658  23.287   2.920
96019W        W61279   3.355  33.112  11.058
96020W        W61280  28.062  27.096  10.613
96021W        W61281  40.840  17.998  12.093
96022W        W61282  10.703  39.420   3.638
96023W        W61283   7.573   4.650  13.872
96024W        W61284  27.225   5.076  11.019
96025W        W61285  38.124  41.283  14.888
96026W        W61286  28.715  18.736  12.337
96027W        W61287  15.648  39.527  14.823
96028W        W61288   8.630  19.077   3.095
96029W        W61289  11.742  16.289  13.444
96030W        W61290  32.055  30.041   0.325
96031W        W61291  11.296  21.814   3.649
96032W        W61292  26.650   3.010  13.033
96033W        W61293  31.628  24.382   2.179
96034W        W61294  44.421  39.207   4.029
96035W        W61295  14.304  20.021  13.885
96036W        W61296  14.565  27.975   2.257
96037W        W61297  17.717  33.681   0.450
96038W        W61298   4.664  42.606   4.576
96039W        W61299  40.809  23.488  10.977
96040W        W61300  43.499  25.754  10.355
96041W        W61301  36.958   6.788   4.509
96042W        W61302  36.338  22.721  12.488
96043W        W61303  15.053  11.956   1.381
96044W        W61304  18.669  29.279   0.723
96045W        W61305   8.940   2.820   3.112
96046W        W61306   4.860  15.982   5.014
96047W        W61307  33.436  32.238   2.158
96048W        W61308  21.766  28.051  12.950
96049W        W61309  32.629  40.932   4.656
96050W        W61310  27.546  33.641  13.262
96051W        W61311  13.632   7.665   3.752
96052W        W61312  26.655  25.596  12.086
96053W        W61313  33.642  37.602   3.147
96054W        W61314  12.306  34.684  13.160
96055W        W61315  25.544  44.707   4.769
96056W        W61316  36.567   9.799   2.686
96057W        W61317  22.187  18.001   0.005
96058W        W61318  26.632   5.952  10.049
96059W        W61319  32.425  44.485   1.143
96060W        W61320  42.971  31.876   4.120
96061W        W61321  36.473   5.783   4.007
96062W        W61322  30.080   2.172  12.435
96063W        W61323  27.024  18.334  14.453
96064W        W61324  11.786  27.516  13.037
96065W        W61325  43.966  19.991  13.927
96066W        W61326  18.837   9.380   0.308
96067W        W61327  38.467  25.094  10.423
96068W        W61328  30.625  41.437   1.402
96069W        W61329  37.304   8.269  10.766
96070W        W61330  27.529  38.292   1.772
96071W        W61331  10.377  39.660   1.845
96072W        W61332  41.730  19.493   5.051
96073W        W61333   3.253  44.770  12.468
96074W        W61334  12.058  29.230   0.333
96075W        W61335  10.762  29.178  14.390
96076W        W61336  15.840   3.756  14.457
96077W        W61337  41.403  12.355   2.155
96078W        W61338  33.477  38.631  14.370
96079W        W61339  19.027   8.414  11.583
96080W        W61340   4.742  39.767  11.870
96081W        W61341   5.352  30.514   0.763
96082W        W61342  34.933  37.144  14.864
96083W        W61343   1.968  11.098  11.668
96084W        W61344  16.404   3.228  12.882
96085W        W61345  44.792  13.556   2.689
96086W        W61346   3.214  24.052   1.983
96087W        W61347   9.750  29.809  13.536
96088W        W61348  35.400  42.581  12.419
96089W        W61349  25.169  42.802  14.589
96090W        W61350   8.720  32.520   1.664
96091W        W61351  42.321  41.305   1.357
96092W        W61352   1.500  18.073   0.346
96093W        W61353   0.836   9.670   3.575
96094W        W61354  33.421   0.459   4.617
96095W        W61355  44.217  39.515   4.856
96096W        W61356  43.996   5.202  10.458
96097W        W61357  10.837   4.273   1.899
96098W        W61358   0.217  11.944  12.099
96099W        W61359  39.466  36.612  11.545
96100W        W61360  43.041  38.809   3.731
96101W        W61361  37.297  36.461   4.137
96102W        W61362  41.156  17.772   4.582
96103W        W61363  32.183  13.648  12.567
96104W        W61364  21.994  21.226   2.612
96105W        W61365   1.773   7.244  10.610
96106W        W61366  22.572  19.328   0.296
96107W        W61367  17.786   1.269   3.190
96108W        W61368  42.030   8.729   0.462
96109W        W61369   9.247  19.077  14.049
96110W        W61370   5.359  29.208   3.849
96111W        W61371  34.092  24.068  14.417
96112W        W61372   5.780  14.404  14.497
96113W        W61373  20.812  31.552  11.732
96114W        W61374  28.957  33.873  10.656
96115W        W61375   2.327  30.037   1.354
96116W        W61376  16.012  31.902  11.512
96117W        W61377  15.833  40.356  10.936
96118W        W61378  32.899  31.348   0.435
96119W        W61379  27.064  12.858   1.933
96120W        W61380  40.483  40.896   4.255
96121W        W61381  22.913  39.918  10.766
96122W        W61382  30.412  16.409   1.527
96123W        W61383  20.005  32.053   3.401
96124W        W61384  29.035  11.148   3.284
96125W        W61385  41.679   6.451   1.813
96126W        W61386   3.981  37.811   2.472
96127W        W61387  26.701   6.073   3.854
96128W        W61388  44.802   2.748   1.392
96129W        W61389  23.718  34.237   5.700
96130W        W61390  34.914   6.991  10.802
96131W        W61391  44.770   0.883   4.011
96132W        W61392   0.463   8.339   2.725
96133W        W61393   6.298   4.213   2.290
96134W        W61394   5.848  14.714   2.141
96135W        W61395  14.172  14.872  14.440
96136W        W61396  22.353  23.940   2.243
96137W        W61397  32.910  43.326  10.714
96138W        W61398   6.907  12.982   0.102
96139W        W61399  30.719  21.048   4.178
96140W        W61400  23.559  29.482  12.558
96141W        W61401  19.198  20.417  13.931
96142W        W61402  35.127  37.476   0.378
96143W        W61403   0.871  25.241  13.946
96144W        W61404   3.298  39.864  10.555
96145W        W61405   7.962  32.584  13.384
96146W        W61406  35.144   9.402   3.022
96147W        W61407  32.234  43.010   1.213
96148W        W61408  10.283  30.516   5.055
96149W        W61409  16.389  14.838  12.749
96150W        W61410   1.984  21.288   0.906
96151W        W61411  31.869  34.949  14.341
96152W        W61412   1.439   2.265   3.715
96153W        W61413  31.584  16.381  13.911
96154W        W61414  14.852  29.941  14.042
96155W        W61415  12.145   7.246   3.207
96156W        W61416  28.664  42.906  13.732
96157W        W61417  15.995  15.234   0.175
96158W        W61418   8.108  30.158   1.665
96159W        W61419   5.401  41.024   3.325
96160W        W61420   0.719   1.429  14.845
96161W        W61421   4.125  10.347   0.021
96162W        W61422  33.568  11.433   3.198
96163W        W61423   5.884  18.121  14.004
96164W        W61424  33.959  41.854   3.563
96165W        W61425   1.927  13.123  13.950
96166W        W61426   2.841  16.106  12.652
96167W        W61427   7.700  31.045  10.931
96168W        W61428  23.457  26.485  14.755
96169W        W61429  23.471   9.742  12.013
96170W        W61430  14.341  36.066   1.969
96171W        W61431  39.522   9.265   4.190
96172W        W61432  36.891  31.505  14.499
96173W        W61433   2.699  19.625  12.448
96174W        W61434  29.704  12.026  11.987
96175W        W61435  40.965  37.095   1.214
96176W        W61436  23.594  32.921   2.724
96177W        W61437  25.776  23.631  14.948
96178W        W61438  10.220   3.812  13.983
96179W        W61439  14.774  44.135  14.396
96180W        W61440   5.897  43.084   1.797
96181W        W61441   2.517   1.110   4.094
96182W        W61442  12.362  21.582   1.797
96183W        W61443  40.987  34.883  13.358
96184W        W61444  10.658  10.414   3.624
96185W        W61445   6.226  11.590  11.707
96186W        W61446  39.815  20.135   2.053
96187W        W61447  40.857  42.583  12.047
96188W        W61448   1.087  24.276   3.705
96189W        W61449  41.704  11.432  10.624
96190W        W61450   2.803  20.948   3.782
96191W        W61451   1.905  24.130  13.515
96192W        W61452  28.614   5.323   1.707
96193W        W61453  24.241  27.532   1.832
96194W        W61454  13.834  22.542   2.328
96195W        W61455  42.495  22.405  13.479
96196W        W61456  22.665  43.079   3.647
96197W        W61457  20.696  32.470   1.528
96198W        W61458  36.392  43.753   4.309
96199W        W61459  21.132   4.232  10.713
96200W        W61460  19.826  38.356  13.464
96201W        W61461  25.454   6.125  10.600
96202W        W61462  26.930  22.400  14.931
96203W        W61463  36.500  14.141  14.753
96204W        W61464  33.611  19.979  10.714
96205W        W61465  21.927  38.535   4.135
96206W        W61466  25.796  39.270  12.585
96207W        W61467   2.152  23.999   2.207
96208W        W61468  16.606  42.319   4.778
96209W        W61469   6.451   7.854  13.650
96210W        W61470  30.316  14.351   3.285
96211W        W61471  30.367  13.216   1.595
96212W        W61472  11.681  33.656   3.646
96213W        W61473  25.779  23.590   3.240
96214W        W61474  25.471  44.915  12.837
96215W        W61475  26.904  14.032  12.483
96216W        W61476  10.595  18.093  12.919
96217W        W61477  38.358  35.470   2.121
96218W        W61478  37.270  44.801   0.793
96219W        W61479  18.660  40.488  13.958
96220W        W61480   6.753  23.344  11.014
96221W        W61481  44.544  23.431   2.402
96222W        W61482  27.160  38.102   2.152
96223W        W61483  21.622   7.846  11.511
96224W        W61484  26.213  21.051  14.899
96225W        W61485  31.657  15.701  10.693
96226W        W61486  38.545  37.153   3.818
96227W        W61487   4.296  18.301  12.075
96228W        W61488  17.834  18.209  13.796
96229W        W61489   4.460  17.529   2.302
96230W        W61490  16.913  33.071  11.992
96231W        W61491  15.512   3.877  11.386
96232W        W61492  12.173   1.700  12.495
96233W        W61493  16.083  29.212   0.577
96234W        W61494  39.536  22.245  14.700
96235W        W61495  35.878  37.979  14.748
96236W        W61496  31.030  10.270   4.193
96237W        W61497  28.008   8.681   4.520
96238W        W61498  15.377  28.217  12.233
96239W        W61499  41.691  13.580  11.446
96240W        W61500   8.571  13.294   5.024
96241W        W61501  13.070  40.456  13.236
96242W        W61502  26.427  39.282  11.022
96243W        W61503  18.983  37.400  14.295
96244W        W61504  37.488  37.335   0.426
96245W        W61505  42.087  43.298  12.153
96246W        W61506  42.055  31.909  14.904
96247W        W61507  15.997  12.353   1.953
96248W        W61508  14.727  40.389  11.429
96249W        W61509  15.501  11.812   4.620
96250W        W61510   8.772  43.330   4.958
96251W        W61511  37.499  38.106  11.688
96252W        W61512  29.965  37.791   0.759
96253W        W61513   4.200  44.998  14.819
96254W        W61514  23.697  12.268  10.799
96255W        W61515  39.571   9.950   1.797
96256W        W61516  39.143   7.010   1.375
96257W        W61517  18.186  31.190   0.931
96258W        W61518  42.822  44.974   2.368
96259W        W61519  30.973   0.337   2.673
96260W        W61520   2.143  33.111  11.615
96261W        W61521  37.926  25.278   2.761
96262W        W61522   8.740  43.881   1.801
96263W        W61523  39.531  41.456  13.815
96264W        W61524  27.054  27.785  14.801
96265W        W61525  43.229   7.446  12.375
96266W        W61526   4.069  11.815  13.373
96267W        W61527  17.702  20.724  11.522
96268W        W61528   3.023  16.705  14.944
96269W        W61529  30.621   4.828  13.025
96270W        W61530   8.153  33.627  10.660
96271W        W61531  36.082   0.397   0.480
96272W        W61532  11.284  23.287  10.590
96273W        W61533  32.177  10.398  13.640
96274W        W61534  21.599  31.738   3.161
96275W        W61535  17.542  26.082   2.166
96276W        W61536  28.733   2.427   0.784
96277W        W61537  23.747  20.878  13.987
96278W        W61538  19.524   4.460  13.063
96279W        W61539  19.568   1.019   3.626
96280W        W61540   3.777  33.576  12.306
96281W        W61541  36.865  22.753   3.208
96282W        W61542  33.365  31.674  12.043
96283W        W61543  29.555  32.665   1.321
96284W        W61544  36.357  27.094  13.098
96285W        W61545  32.363  33.887  11.604
96286W        W61546   0.316   7.613  12.992
96287W        W61547   8.466   2.786  11.190
96288W        W61548  19.423  18.310   9.823
96289W        W61549   7.912  34.497   4.508
96290W        W61550  32.020  24.708   2.172
96291W        W61551  23.665  10.713   1.830
96292W        W61552  32.858  30.974   4.080
96293W        W61553   1.974  18.799  12.070
96294W        W61554  24.546  23.155  12.711
96295W        W61555  38.020  28.513  11.486
96296W        W61556  12.512  20.392   0.841
96297W        W61557  20.619   9.256   1.956
96298W        W61558  24.899  18.313  14.905
96299W        W61559  20.784  35.928  14.264
96300W        W61560  39.949  14.371  10.683
96301W        W61561  19.190  27.808   1.915
96302W        W61562  12.723  19.987  14.231
96303W        W61563  27.539  44.989   3.134
96304W        W61564  33.121   8.117   2.335
96305W        W61565  31.171  19.662   4.560
96306W        W61566  13.760  40.491   3.224
96307W        W61567  30.574  37.258  10.475
96308W        W61568  42.292   1.894   0.598
96309W        W61569  12.598   9.115  13.671
96310W        W61570  17.226  36.795  14.757
96311W        W61571  18.717   0.081   0.888
96312W        W61572  41.109  29.952  13.383
96313W        W61573  43.963   5.202  13.084
96314W        W61574  22.614   5.720   0.877
96315W        W61575  27.506   0.919   4.605
96316W        W61576  30.003  32.888   0.264
96317W        W61577   1.238  28.437  11.952
96318W        W61578  14.755   0.968  14.895
96319W        W61579  24.021  18.053   0.909
96320W        W61580  40.092  11.850   2.333
96321W        W61581  30.738  11.237   3.853
96322W        W61582  29.030  38.340  12.293
96323W        W61583  28.975  39.844  11.997
96324W        W61584  31.071  13.756   2.904
96325W        W61585  38.301  12.062  12.574
96326W        W61586  32.711  27.125   2.082
96327W        W61587  23.921   9.141  12.862
96328W        W61588  14.534  30.081  14.989
96329W        W61589  33.038  10.051  13.256
96330W        W61590  25.697  42.499   3.466
96331W        W61591  35.860  11.188  11.566
96332W        W61592  18.699  38.030   0.261
96333W        W61593  19.308  18.155   2.733
96334W        W61594   7.803  41.507   3.282
96335W        W61595  17.005  27.647  13.829
96336W        W61596  35.530  38.192   3.862
96337W        W61597   7.216  39.295  11.567
96338W        W61598  10.365  38.106  13.508
96339W        W61599   3.191  28.527  13.958
96340W        W61600  17.323  13.654  14.954
96341W        W61601  17.544   6.187   4.799
96342W        W61602  22.024   7.216   1.363
96343W        W61603  14.621  14.871   3.310
96344W        W61604  24.128  38.308  12.375
96345W        W61605  16.570  39.887  10.640
96346W        W61606  19.807  39.231   1.262
96347W        W61607  41.761   5.504  12.419
96348W        W61608  24.154  28.371  10.707
96349W        W61609  17.222  33.032  13.317
96350W        W61610   7.909  31.443  11.268
96351W        W61611  11.581   5.958  10.707
96352W        W61612  30.158  20.132   4.104
96353W        W61613  25.121  32.456   0.780
96354W        W61614  33.318   9.492  11.586
96355W        W61615  16.307  10.415   3.249
96356W        W61616  34.613  38.954   4.154
96357W        W61617  18.129  33.084  14.954
96358W        W61618  19.066   5.277   3.263
96359W        W61619  30.600  30.161  11.011
96360W        W61620  19.369  25.054  10.769
96361W        W61621  37.820  39.898   2.629
96362W        W61622   4.491   5.653  13.522
96363W        W61623  34.567  27.963   4.803
96364W        W61624  25.102  28.013  12.566
96365W        W61625  40.081  32.557   0.872
96366W        W61626  43.313  28.690   3.156
96367W        W61627  33.606  35.912  11.673
96368W        W61628   6.772  44.373  12.946
96369W        W61629   1.055  43.116  10.174
96370W        W61630   1.916  13.382   3.409
96371W        W61631  35.379  22.152  13.945
96372W        W61632   1.896  29.559   2.457
96373W        W61633   4.983  10.347  10.824
96374W        W61634  38.688   1.848   3.018
96375W        W61635  21.030  42.826  12.591
96376W        W61636  34.382  19.479  14.441
96377W        W61637   7.725  40.842  11.248
96378W        W61638  41.709   4.831   0.849
96379W        W61639  33.908  11.139  14.936
96380W        W61640  28.443  43.123   4.382
96381W        W61641  43.916  29.889  10.682
96382W        W61642  11.687  32.394  13.547
96383W        W61643  15.302  24.295  11.598
96384W        W61644  25.090  43.458  13.929
96385W        W61645  36.648  16.853   1.375
96386W        W61646  40.892  34.887  11.860
96387W        W61647   5.492   0.702  11.621
96388W        W61648  12.582   4.705   3.209
96389W        W61649  14.048   4.893  11.062
96390W        W61650  31.908  38.896  12.628
96391W        W61651  35.653  15.889   1.426
96392W        W61652  13.977  42.581  10.520
96393W        W61653  35.242  39.392  13.460
96394W        W61654  38.436   5.481  11.146
96395W        W61655  30.028  15.761   1.461
96396W        W61656  44.349   8.365  12.565
96397W        W61657  16.167   4.408  11.354
96398W        W61658  35.751  30.490  12.290
96399W        W61659  41.624  17.215   4.236
96400W        W61660  30.449  28.418  11.277
96401W        W61661   2.781  13.660  14.903
96402W        W61662   5.731  36.898  12.551
96403W        W61663  15.160  17.499   4.374
96404W        W61664   8.490  12.806   4.295
96405W        W61665  36.942  32.004  14.234
96406W        W61666   3.261   1.343   2.489
96407W        W61667  17.349  32.519   3.460
96408W        W61668  42.348  22.744  14.773
96409W        W61669  32.478  30.012   2.695
96410W        W61670  12.145   8.620   4.693
96411W        W61671  38.670  31.340   3.310
96412W        W61672   0.379  12.518  14.366
96413W        W61673   4.216  18.503   2.824
96414W        W61674   5.073  25.348  11.153
96415W        W61675  43.274   5.700  13.403
96416W        W61676   4.923  13.368  11.029
96417W        W61677  19.974   4.980  11.037
96418W        W61678   0.122  24.131  12.840
96419W        W61679  36.675  39.884   1.396
96420W        W61680   3.063  39.645  12.179
96421W        W61681  28.512   7.135  14.004
96422W        W61682  31.929  27.548  12.083
96423W        W61683  21.146  12.437   0.795
96424W        W61684  27.557  27.975   3.701
96425W        W61685   5.939   9.619  11.124
96426W        W61686  10.704  11.799  12.009
96427W        W61687   5.465   8.837   4.081
96428W        W61688  34.162  11.367  11.979
96429W        W61689  29.501  35.316  13.988
96430W        W61690  44.423   4.297  10.723
96431W        W61691  11.068  29.267  12.156
96432W        W61692  44.177  39.513   3.338
96433W        W61693   4.563  23.674   2.348
96434W        W61694  23.261  38.518  10.698
96435W        W61695  13.360  22.840  12.117
96436W        W61696  25.833   4.802  10.127
96437W        W61697   1.881  11.071   4.680
96438W        W61698  32.567   5.647  11.225
96439W        W61699   4.910   2.506  12.945
96440W        W61700  32.779  25.281  13.776
96441W        W61701  34.100  35.035  13.473
96442W        W61702   9.901  21.531   3.598
96443W        W61703   3.149  44.487  14.329
96444W        W61704  21.722  17.641   3.382
96445W        W61705  13.290  19.978  14.916
96446W        W61706  18.133  30.709  13.011
96447W        W61707   5.391  22.564  13.803
96448W        W61708  11.478  41.866  12.160
96449W        W61709  29.697  19.180  10.993
96450W        W61710  30.628  20.679  10.749
96451W        W61711  25.166  29.520  14.499
96452W        W61712   6.949  20.351   0.804
96453W        W61713   9.241  34.840   2.126
96454W        W61714  38.571  33.111   0.780
96455W        W61715  20.564  12.653   0.501
96456W        W61716  15.809  34.509   2.654
96457W        W61717  14.432  24.880  14.923
96458W        W61718  12.082  41.518   2.274
96459W        W61719  28.248   4.602   2.277
96460W        W61720  37.887  37.047   0.212
96461W        W61721   1.848   4.733  11.124
96462W        W61722  36.442  23.771   4.611
96463W        W61723  43.158   5.517   0.910
96464W        W61724  28.148  41.270   3.270
96465W        W61725   9.316  23.410   4.479
96466W        W61726  15.424  36.985  12.471
96467W        W61727  19.564  30.705  11.693
96468W        W61728  12.312  22.648   0.878
96469W        W61729  33.145  25.928  14.383
96470W        W61730  31.604  24.882   1.924
96471W        W61731   0.297  23.795   0.899
96472W        W61732  31.962  18.823  10.679
96473W        W61733  37.608  30.936   0.830
96474W        W61734  33.067  39.374   1.974
96475W        W61735   5.891  35.615  12.513
96476W        W61736  20.062  24.420  11.152
96477W        W61737  28.737  22.796  10.796
96478W        W61738  13.831  35.959   1.877
96479W        W61739   8.644  29.311   4.536
96480W        W61740   6.722  26.995  12.494
96481W        W61741  18.695  36.113   0.342
96482W        W61742  38.018  41.428  13.947
96483W        W61743  32.516   2.478  13.119
96484W        W61744   3.256   5.914   0.287
96485W        W61745  38.510  31.944   2.139
96486W        W61746  34.180  23.699  14.869
96487W        W61747  10.796  39.396   3.109
96488W        W61748   6.813  17.906  13.375
96489W        W61749   2.206  41.565  11.218
96490W        W61750  34.133  23.601   2.160
96491W        W61751  41.493  37.318  14.008
96492W        W61752   9.100  44.620  10.652
96493W        W61753  12.661   7.015   2.603
96494W        W61754  23.103  31.082   1.262
96495W        W61755  40.373   1.249   0.149
96496W        W61756  27.985  32.492  13.556
96497W        W61757  21.388  31.578   4.557
96498W        W61758   6.761  43.495  13.374
96499W        W61759   1.821  33.550   3.089
96500W        W61760   3.015   3.153   4.540
96501W        W61761  15.850  21.615   3.221
96502W        W61762  37.809  34.421   1.832
96503W        W61763  23.558  37.427   5.580
96504W        W61764  31.007  13.317  14.931
96505W        W61765  30.914  21.785  12.964
96506W        W61766  13.656  39.930  11.961
96507W        W61767  37.886  36.403  13.390
96508W        W61768  30.317  12.564  11.624
96509W        W61769  11.797   6.024   5.228
96510W        W61770  32.338  15.957  14.970
96511W        W61771  13.980  39.768   0.364
96512W        W61772   3.193  10.271   0.724
96513W        W61773  26.441  30.458   1.112
96514W        W61774  12.985  17.029   4.503
96515W        W61775   7.178  22.024  13.805
96516W        W61776  24.897   3.773  10.349
96517W        W61777  12.098   4.199   3.567
96518W        W61778  16.645  36.354   0.962
96519W        W61779  43.248  31.919   4.712
96520W        W61780  19.678   9.122  11.595
96521W        W61781  33.145   7.162   3.186
96522W        W61782  24.199  16.046  10.342
96523W        W61783  12.676  43.952   3.410
96524W        W61784  39.026  40.708   5.021
96525W        W61785  43.111   8.358   1.421
96526W        W61786   0.044   7.562   2.191
96527W        W61787  30.530   2.196   1.314
96528W        W61788  34.290   2.373  12.943
96529W        W61789  37.545  12.083  11.656
96530W        W61790  28.730  41.953   4.772
96531W        W61791  17.058  29.908   3.243
96532W        W61792  15.716  15.300  13.356
96533W        W61793  13.249  38.761  11.145
96534W        W61794   3.706  38.818  10.685
96535W        W61795  37.311  15.729   3.599
96536W        W61796   7.663   2.520   0.329
96537W        W61797  16.710  13.362   0.664
96538W        W61798  22.075  42.801   1.369
96539W        W61799  18.479  41.843   2.253
96540W        W61800  25.948  31.479  14.783
96541W        W61801  42.724  16.010  14.970
96542W        W61802  35.826  33.897  14.220
96543W        W61803  18.151  42.474   1.681
96544W        W61804  15.776  19.568   2.829
96545W        W61805   0.282  36.057   4.203
96546W        W61806   0.895  34.314   4.550
96547W        W61807  39.094  13.657  14.446
96548W        W61808  31.010  43.975   2.171
96549W        W61809  21.202  12.281   0.310
96550W        W61810   7.491  31.690  11.460
96551W        W61811   6.725  20.224  13.335
96552W        W61812   2.609  19.503  10.848
96553W        W61813   6.457  19.687   2.231
96554W        W61814  35.568  17.967  12.511
96555W        W61815  32.841  12.220  12.485
96556W        W61816  29.386   7.321  11.138
96557W        W61817  23.937  17.212   2.656
96558W        W61818  17.747  39.716  10.961
96559W        W61819  11.299  34.710   1.406
96560W        W61820  44.792  41.403  13.752
96561W        W61821  21.499  40.540   2.872
96562W        W61822  39.833  39.952   0.892
96563W        W61823  32.533   2.453  12.621
96564W        W61824  18.798  40.471   4.141
96565W        W61825   0.600   8.526  10.219
96566W        W61826  20.036  34.914  14.355
96567W        W61827  10.376  14.864  12.164
96568W        W61828  41.212  37.552   3.110
96569W        W61829  33.302   4.386  11.108
96570W        W61830  29.699  29.664  14.044
96571W        W61831  43.767  24.057  12.996
96572W        W61832  26.971  21.776   3.273
96573W        W61833  36.970   4.608   3.985
96574W        W61834  17.365  31.547  11.495
96575W        W61835  36.680  44.074   1.351
96576W        W61836  37.742   4.160   2.751
96577W        W61837  42.367  16.491  11.588
96578W        W61838  36.911  27.210  13.084
96579W        W61839  38.949   9.914  10.103
96580W        W61840  12.003   9.920  13.377
96581W        W61841  25.730  37.474  13.009
96582W        W61842  34.438  24.630   1.458
96583W        W61843  17.859  29.067   0.379
96584W        W61844  22.795  32.420   0.272
96585W        W61845   4.365  37.130   0.663
96586W        W61846  16.344   1.354  12.479
96587W        W61847  34.357   1.239   4.044
96588W        W61848  32.111  15.586   1.280
96589W        W61849   3.728  25.045   2.621
96590W        W61850  29.893  13.120   1.386
96591W        W61851  22.231  26.250  13.317
96592W        W61852  20.991  40.387  12.408
96593W        W61853  30.117  21.180  13.822
96594W        W61854  43.280  20.743   3.584
96595W        W61855  39.408   4.491   3.622
96596W        W61856  30.398   1.870  11.495
96597W        W61857  26.298  19.965   1.038
96598W        W61858  22.788  33.430   2.240
96599W        W61859  40.485  43.969   4.557
96600W        W61860   9.003   0.835   4.075
96601W        W61861  14.163  28.204  12.020
96602W        W61862  21.701  32.743  13.493
96603W        W61863  32.352  26.069  10.261
96604W        W61864  35.685  36.504   1.252
96605W        W61865  20.591   7.959  13.463
96606W        W61866  35.731  28.696   2.839
96607W        W61867  43.321   1.312  11.922
96608W        W61868  15.208  11.153  13.495
96609W        W61869   7.880  13.728  12.076
96610W        W61870  18.000  33.012   4.615
96611W        W61871  35.942  15.242   4.682
96612W        W61872  19.616  14.654   1.821
96613W        W61873  36.136  10.799  13.469
96614W        W61874  11.119  40.372   4.788
96615W        W61875  16.584   4.020  10.736
96616W        W61876  30.894  42.276  13.618
96617W        W61877  20.298   0.949   1.348
96618W        W61878  30.946   7.276  13.170
96619W        W61879  16.715  16.814  13.772
96620W        W61880  43.776  31.007  13.873
96621W        W61881  29.724  16.782   0.520
96622W        W61882  21.505  30.431  11.164
96623W        W61883   6.901   0.227   2.314
96624W        W61884   5.382  27.106   4.070
96625W        W61885  42.762  27.178   2.525
96626W        W61886  36.232   1.877   2.676
96627W        W61887  23.585   5.001   3.193
96628W        W61888  41.299  25.477   5.047
96629W        W61889  37.131  28.382  10.533
96630W        W61890  38.790  17.730   2.186
96631W        W61891   1.055  30.589   3.797
96632W        W61892  37.715   0.342   1.600
96633W        W61893  11.208  29.990  14.313
96634W        W61894  32.053  24.904   4.438
96635W        W61895  37.964   7.926   2.648
96636W        W61896  32.494  19.620   2.505
96637W        W61897  44.346  33.491  11.035
96638W        W61898  18.405  34.515  10.744
96639W        W61899  26.025  26.263  13.965
96640W        W61900  43.293  23.514  13.369
96641W        W61901  22.176  35.337  14.875
96642W        W61902  32.299  30.611  11.080
96643W        W61903  35.810   7.460   1.198
96644W        W61904  11.821  14.451   4.077
96645W        W61905   7.037   0.609  13.524
96646W        W61906  30.858   9.787   4.253
96647W        W61907  13.848  20.599   3.102
96648W        W61908  20.990  42.181   0.227
96649W        W61909   5.388  31.134   2.473
96650W        W61910  27.779   8.921  11.436
96651W        W61911   8.308  39.587  14.483
96652W        W61912  25.434   9.855  13.867
96653W        W61913  30.230  43.592   0.400
96654W        W61914  31.085  38.541  13.527
96655W        W61915  14.889  34.882  14.275
96656W        W61916  10.634  22.781   9.865
96657W        W61917   5.354  33.323   2.644
96658W        W61918  32.713  33.487  10.187
96659W        W61919  35.320  25.028   4.665
96660W        W61920  38.825  37.546   0.708
96661W        W61921   4.883   0.481  13.718
96662W        W61922  41.990  21.656  10.577
96663W        W61923  35.148  14.189  11.958
96664W        W61924  38.425  18.733   0.862
96665W        W61925  22.550  14.310   1.134
96666W        W61926   6.724  32.139  14.897
96667W        W61927  31.538  19.760  11.078
96668W        W61928   7.580  38.511   1.583
96669W        W61929   8.434  14.712  11.005
96670W        W61930  11.866   1.510  13.058
96671W        W61931  29.886   8.257  11.646
96672W        W61932  42.514  35.004   4.965
96673W        W61933  32.850  15.715   0.792
96674W        W61934  42.475  28.660  12.205
96675W        W61935  38.114  29.390  12.400
96676W        W61936   3.393   2.084   0.698
96677W        W61937  16.752  15.661   5.107
96678W        W61938  10.044   5.855   3.275
96679W        W61939  10.203  18.370   0.822
96680W        W61940  33.181   8.287  12.017
96681W        W61941  25.170   3.009  12.450
96682W        W61942   1.421  15.398  10.103
96683W        W61943   5.800  37.494   0.043
96684W        W61944  27.505   3.261   1.715
96685W        W61945   3.299  40.875   1.417
96686W        W61946  25.991  22.397   5.329
96687W        W61947  32.921  36.964   3.261
96688W        W61948  11.125  25.519  14.386
96689W        W61949   0.518  23.788  12.884
96690W        W61950   2.789  40.719   1.447
96691W        W61951  20.601  33.135  10.672
96692W        W61952  23.194  21.176   0.962
96693W        W61953  38.410  19.912   2.224
96694W        W61954  38.502   8.050   4.680
96695W        W61955  34.085  29.302   2.229
96696W        W61956   2.672  39.385   2.082
96697W        W61957  32.484   3.931   0.893
96698W        W61958  44.819  41.377   1.161
96699W        W61959  30.971  40.270  13.360
96700W        W61960  44.310  14.303   4.821
96701W        W61961   7.681  31.564  13.187
96702W        W61962   1.183   0.768   2.149
96703W        W61963  39.693  12.650  13.923
96704W        W61964  25.300   1.789   4.773
96705W        W61965  26.628  33.602   3.384
96706W        W61966   9.333  16.135   0.758
96707W        W61967  20.258  34.616  14.779
96708W        W61968   3.296  43.811  12.842
96709W        W61969  27.457  29.033  14.358
96710W        W61970  30.454  30.306  12.477
96711W        W61971  17.854  15.078  13.517
96712W        W61972   4.922  43.883   1.103
96713W        W61973  23.230  21.137   1.943
96714W        W61974  22.607   0.104   2.492
96715W        W61975  16.651   5.701   0.461
96716W        W61976  15.952   6.496   0.403
96717W        W61977  27.632  10.726   1.005
96718W        W61978   8.272  41.464   4.715
96719W        W61979  37.597  33.844  14.964
96720W        W61980  31.187  42.269   3.232
96721W        W61981  24.260   1.378  11.169
96722W        W61982  20.200  26.811   5.016
96723W        W61983   1.999  18.228  14.820
96724W        W61984  30.704  40.950  11.915
96725W        W61985  37.413  22.589  13.456
96726W        W61986  18.543   1.533   1.956
96727W        W61987  28.372   9.746   4.676
96728W        W61988  39.108   7.692   2.408
96729W        W61989  30.105  24.460  12.596
96730W        W61990  21.089   9.372  12.203
96731W        W61991  28.542  36.431   1.750
96732W        W61992  12.148   4.111   4.065
96733W        W61993  19.759   4.018  10.242
96734W        W61994  31.582  24.298   0.478
96735W        W61995  41.448  30.388  14.223
96736W        W61996  25.610  22.031   1.686
96737W        W61997  41.773  23.189   4.598
96738W        W61998  21.294  41.831   4.114
96739W        W61999  39.292  27.260   1.314
96740W        W62000  39.838   8.341  10.501
96741W        W62001  35.453   7.277  11.879
96742W        W62002  26.675   9.859  11.081
96743W        W62003  35.082  17.808   0.681
96744W        W62004  30.049  40.518   4.796
96745W        W62005  29.486  22.255   3.727
96746W        W62006  38.386  14.696   3.106
96747W        W62007  38.836  20.824   4.125
96748W        W62008  37.441  43.656   4.105
96749W        W62009  12.892   2.633   0.613
96750W        W62010   4.099  36.808  13.800
96751W        W62011  42.230  23.583   3.333
96752W        W62012  43.530   5.489   1.685
96753W        W62013   1.334   0.327  14.960
96754W        W62014   5.707  12.275   0.017
96755W        W62015   1.466   4.409  11.412
96756W        W62016   3.790  36.932   3.431
96757W        W62017  24.590  10.885   0.362
96758W        W62018   4.774  40.099  10.791
96759W        W62019  18.909  38.213   2.856
96760W        W62020  38.959  34.299   1.347
96761W        W62021  38.486   5.371   3.264
96762W        W62022  38.975  31.411   2.658
96763W        W62023  19.677  17.354  12.539
96764W        W62024  35.631  12.324   1.622
96765W        W62025  19.529  42.994   0.591
96766W        W62026  12.794   5.995  12.783
96767W        W62027   9.107  10.262  12.508
96768W        W62028  37.985  26.410  10.542
96769W        W62029  42.849   5.629  14.602
96770W        W62030   2.596  13.189   4.146
96771W        W62031  29.563  10.062  12.307
96772W        W62032  36.331  18.330  14.099
96773W        W62033  16.628  29.668   1.909
96774W        W62034  10.011   6.489  11.509
96775W        W62035  20.279   1.131   1.852
96776W        W62036  11.114  11.407   4.566
96777W        W62037  44.514   5.177  12.986
96778W        W62038  43.259  32.815  11.645
96779W        W62039  43.699   5.899   2.265
96780W        W62040  35.622  13.225   1.660
96781W        W62041   2.028  25.618  14.953
96782W        W62042  17.175   4.617   2.685
96783W        W62043  18.113  34.060  10.737
96784W        W62044  10.360   3.028   1.923
96785W        W62045  31.385  12.129  12.517
96786W        W62046  33.002  28.995  14.021
96787W        W62047  28.334  31.986   4.058
96788W        W62048  24.618  17.439   4.610
96789W        W62049  14.127  12.735   0.021
96790W        W62050  25.202  16.551   0.958
96791W        W62051   5.480  37.875   1.728
96792W        W62052  16.804  12.008   3.197
96793W        W62053  41.866  37.870  13.968
96794W        W62054  39.873  14.342   3.071
96795W        W62055  36.090   2.346   0.254
96796W        W62056  37.873  19.953   4.539
96797W        W62057  30.204  33.213   2.193
96798W        W62058  33.118  26.978   3.393
96799W        W62059  16.248  40.012   2.094
96800W        W62060   7.442  36.099  10.401
96801W        W62061  32.626  23.220  12.478
96802W        W62062  25.635  39.762   0.891
96803W        W62063  40.265  13.921   3.620
96804W        W62064   6.787   3.142  14.770
96805W        W62065   3.964  42.944   0.675
96806W        W62066  41.407   9.602  14.409
96807W        W62067  31.537  33.733  10.751
96808W        W62068  18.149   6.486  11.916
96809W        W62069   7.353  12.572  13.906
96810W        W62070  18.707  38.061  14.392
96811W        W62071  44.289   4.576   5.198
96812W        W62072   4.837  13.228  13.231
96813W        W62073  22.602  34.798   0.597
96814W        W62074  21.189  13.764   3.079
96815W        W62075  28.650  28.688   4.052
96816W        W62076  35.364  36.049  12.071
96817W        W62077   8.148  39.647   2.197
96818W        W62078  35.105  25.532   0.515
96819W        W62079  42.388  30.063   4.534
96820W        W62080  23.161  23.916  12.974
96821W        W62081   7.584  26.133   1.912
96822W        W62082  34.959  19.027  13.971
96823W        W62083  34.461   0.379   0.504
96824W        W62084   3.717   0.557   1.220
96825W        W62085  21.192  25.390  12.132
96826W        W62086  29.016  15.648  14.331
96827W        W62087  24.049  13.853   1.761
96828W        W62088  27.471  23.597  14.519
96829W        W62089   1.166  39.737  11.118
96830W        W62090   1.764  18.985  12.495
96831W        W62091  31.439  18.805   0.072
96832W        W62092  10.010  41.751  12.770
96833W        W62093  29.113   1.389   3.718
96834W        W62094  24.904  11.814  12.522
96835W        W62095  21.502  14.277  13.820
96836W        W62096  41.024   6.340  11.514
96837W        W62097   2.004   5.116   0.345
96838W        W62098   3.358  13.659  11.078
96839W        W62099  24.652   0.891  13.623
96840W        W62100  31.874  13.255   2.826
96841W        W62101  35.464  14.418   1.659
96842W        W62102  33.945  40.067  14.927
96843W        W62103  36.035  25.234  12.863
96844W        W62104  29.690  41.545   1.445
96845W        W62105  37.669   1.836  10.273
96846W        W62106  44.355   4.668  13.039
96847W        W62107  42.799  32.692  13.789
96848W        W62108   5.771  41.866   1.710
96849W        W62109  35.332  25.648  13.406
96850W        W62110  21.980   4.902  13.596
96851W        W62111  14.418  21.604   4.604
96852W        W62112  38.609   8.718   3.163
96853W        W62113  35.232  22.717   1.471
96854W        W62114  13.428  38.067   2.463
96855W        W62115  41.332  11.769  10.755
96856W        W62116  24.494  11.133  13.064
96857W        W62117  30.123  38.051  10.951
96858W        W62118  38.864  27.672   2.607
96859W        W62119  28.152  11.179  14.804
96860W        W62120  26.508  31.973   4.499
96861W        W62121  43.286  15.102  10.631
96862W        W62122  11.544  39.166  12.026
96863W        W62123   9.487   0.481   2.751
96864W        W62124  28.863   8.818   3.282
96865W        W62125  41.902  16.274  11.583
96866W        W62126  38.581   6.444   0.999
96867W        W62127  24.398  35.873  12.689
96868W        W62128  21.224  25.470   0.966
96869W        W62129   3.730   9.230  11.722
96870W        W62130  23.083  26.378  12.977
96871W        W62131   3.700  39.867  11.621
96872W        W62132   5.807   7.691  12.971
96873W        W62133  23.252  26.703  14.338
96874W        W62134   2.516  34.131  14.063
96875W        W62135   5.891  38.263  12.110
96876W        W62136  25.699  18.791  13.924
96877W        W62137   4.848  41.733  11.900
96878W        W62138  21.030  15.265   2.780
96879W        W62139  17.188   8.207  14.295
96880W        W62140  34.463  28.695   1.252
96881W        W62141  13.398  28.737   4.692
96882W        W62142  33.589   3.199  12.147
96883W        W62143  27.587  35.147  14.233
96884W        W62144  18.101  32.139   3.065
96885W        W62145  28.284   1.657  13.408
96886W        W62146  13.229   8.889   3.988
96887W        W62147  38.214   5.128  14.366
96888W        W62148  33.334  24.658   0.737
96889W        W62149  43.818   6.563  14.949
96890W        W62150   2.682  29.079  13.991
96891W        W62151  22.790  40.857  14.001
96892W        W62152  36.451  22.783  14.540
96893W        W62153  31.110  19.157   0.982
96894W        W62154  26.119   8.411  13.707
96895W        W62155  22.933   6.874  12.485
96896W        W62156  16.461   0.417  10.617
96897W        W62157   5.346  31.305  11.605
96898W        W62158   4.912  20.663   2.133
96899W        W62159   8.910  29.479  13.003
96900W        W62160   4.943  27.206  14.957
96901W        W62161  15.683   3.517  14.010
96902W        W62162  29.374  30.661  10.689
96903W        W62163  38.695   0.180   4.898
96904W        W62164  40.527  24.148   1.668
96905W        W62165  33.423  16.121  12.599
96906W        W62166  22.523  36.545   2.615
96907W        W62167  38.065  25.950  13.866
96908W        W62168  18.308  42.821   1.308
96909W        W62169  22.321  14.619  14.012
96910W        W62170  30.608  18.777   4.119
96911W        W62171   1.714  20.691  12.052
96912W        W62172  44.715   8.800  11.065
96913W        W62173  34.767  17.107   0.348
96914W        W62174  13.826  36.955   3.717
96915W        W62175  28.134  38.647   3.482
96916W        W62176  19.331  15.660   3.242
96917W        W62177  33.484  44.367  11.501
96918W        W62178  19.494  34.228  13.458
96919W        W62179  12.485  18.353   2.287
96920W        W62180  37.973  44.336   1.743
96921W        W62181  41.426  40.503  12.822
96922W        W62182   7.915  18.780   2.076
96923W        W62183   2.992  11.762   2.332
96924W        W62184  15.054  28.059   2.368
96925W        W62185  33.533  28.890   2.907
96926W        W62186  27.196  43.863   4.235
96927W        W62187  41.811  22.971  10.872
96928W        W62188  35.376  42.458   4.643
96929W        W62189  21.870   6.191  13.034
96930W        W62190  10.702  38.552  14.770
96931W        W62191  10.347  13.405  12.463
96932W        W62192  17.099  19.588  12.523
96933W        W62193  21.749  43.219  14.956
96934W        W62194  22.911  30.526  11.963
96935W        W62195  39.073  14.822  12.466
96936W        W62196  23.149  22.332  14.480
96937W        W62197  37.515   4.523  14.436
96938W        W62198  21.047  19.695   3.028
96939W        W62199  11.479  32.706  14.868
96940W        W62200  26.733  30.260  14.597
96941W        W62201  16.617  21.305   4.298
96942W        W62202  44.849  28.114   1.749
96943W        W62203  15.107  42.316  13.623
96944W        W62204  34.841  23.069  13.928
96945W        W62205  31.562  13.403  11.085
96946W        W62206  33.971  14.814   1.473
96947W        W62207  43.806  19.694   1.258
96948W        W62208   6.932  37.971   2.203
96949W        W62209   1.290  37.151  13.819
96950W        W62210  33.946   3.106   1.217
96951W        W62211   5.447  20.044   1.685
96952W        W62212  12.840  10.849   3.057
96953W        W62213  39.753  14.578   3.886
96954W        W62214  15.237  38.075   2.457
96955W        W62215  21.164   5.915  10.243
96956W        W62216  22.738  44.327   0.840
96957W        W62217   2.260  41.217  11.605
96958W        W62218  12.327  39.649  12.682
96959W        W62219   3.185  15.699  10.700
96960W        W62220  33.348  12.121  14.468
96961W        W62221  27.142  30.573   0.493
96962W        W62222  31.831  25.555   0.813
96963W        W62223  43.069   1.091  11.147
96964W        W62224  33.558  15.925   4.631
96965W        W62225  43.802  14.528  12.953
96966W        W62226  28.026  21.435  13.255
96967W        W62227  18.707  33.282  10.219
96968W        W62228  41.769  15.237   3.238
96969W        W62229  34.014   3.413   4.123
96970W        W62230   1.089  38.753   1.521
96971W        W62231  24.130   0.605   3.941
96972W        W62232  22.033   1.543   4.094
96973W        W62233  11.374  40.848   2.254
96974W        W62234   1.258  18.456   3.061
96975W        W62235  34.615  33.038  11.143
96976W        W62236  30.654  15.687  14.784
96977W        W62237  13.765  15.938   3.583
96978W        W62238   2.930  37.139  13.443
96979W        W62239  31.775  39.781   4.563
96980W        W62240  23.970  24.609  13.326
96981W        W62241  29.827  11.652   2.809
96982W        W62242  11.523  29.405   2.008
96983W        W62243  42.808  44.702   4.314
96984W        W62244  33.964   6.776   1.052
96985W        W62245  27.797  22.990  14.040
96986W        W62246  43.046   8.851   2.810
96987W        W62247  27.438  35.518   2.872
96988W        W62248  21.591  41.325   4.718
96989W        W62249  22.287  25.431  11.516
96990W        W62250  15.581   4.946  12.429
96991W        W62251  41.936  11.599   2.218
96992W        W62252   3.315  38.656   0.559
96993W        W62253  19.769  25.144  13.842
96994W        W62254  17.322   1.296  12.856
96995W        W62255   6.257  20.255   2.337
96996W        W62256  18.983  22.961   4.683
96997W        W62257   5.082   9.327  10.849
96998W        W62258  18.073  31.376  10.964
96999W        W62259  40.451  18.670   4.639
97000W        W62260  25.079   4.913  12.181
97001W        W62261  21.706  22.745   3.713
97002W        W62262  33.784  12.891  13.347
97003W        W62263  30.149  12.379   2.241
97004W        W62264  10.934  41.642  12.164
97005W        W62265  10.935  39.797  12.149
97006W        W62266   5.433  31.650   1.252
97007W        W62267   2.336   4.236   1.061
97008W        W62268  41.467  38.617  13.061
97009W        W62269  33.072  28.744   2.664
97010W        W62270  22.723  27.607  11.524
97011W        W62271  41.354  15.834   0.013
97012W        W62272  27.580  25.095   3.019
97013W        W62273  16.419  43.111   0.963
97014W        W62274  33.101   2.822   1.648
97015W        W62275  38.572  10.920   4.100
97016W        W62276  32.827  24.458   4.990
97017W        W62277  17.562  44.257   0.415
97018W        W62278  32.295  26.990   0.911
97019W        W62279  10.303   4.489  11.990
97020W        W62280  19.023  26.187  11.044
97021W        W62281   7.652  28.237   0.173
97022W        W62282  19.690  40.535  13.872
97023W        W62283   0.831  16.391   0.295
97024W        W62284   4.377  29.249   1.237
97025W        W62285  37.890  38.301   1.674
97026W        W62286  32.592  43.533  13.853
97027W        W62287  33.023  19.330  14.755
97028W        W62288  36.132  38.941   1.251
97029W        W62289  44.867   3.764   0.371
97030W        W62290  29.041  22.134   2.809
97031W        W62291   5.919  32.041  11.947
97032W        W62292  40.245  27.165   1.312
97033W        W62293  25.609  38.158   3.617
97034W        W62294  25.985  10.313   0.805
97035W        W62295   3.911  42.075  13.893
97036W        W62296  26.201  27.095  13.859
97037W        W62297  24.259  21.645  13.914
97038W        W62298  23.122  17.043   3.288
97039W        W62299  40.534  39.847   0.689
97040W        W62300  18.647  42.876  11.242
97041W        W62301  41.318  10.727  14.940
97042W        W62302  24.431  41.357   1.373
97043W        W62303  10.437  19.080   1.733
97044W        W62304  38.550  42.259  14.521
97045W        W62305  28.584  10.860   3.158
97046W        W62306  36.353  39.165  12.054
97047W        W62307  41.636  22.199   0.509
97048W        W62308  22.408   8.992  10.264
97049W        W62309  28.920  36.865  12.228
97050W        W62310  32.352   3.359  14.851
97051W        W62311   4.984   3.807   1.058
97052W        W62312  33.658   6.461   3.592
97053W        W62313  32.340  15.088  10.921
97054W        W62314  43.138   4.142  13.473
97055W        W62315   9.875  40.386  14.536
97056W        W62316  14.079  31.837   3.257
97057W        W62317   5.763   8.123  10.595
97058W        W62318   7.588  39.034  10.753
97059W        W62319  19.967  40.270  12.585
97060W        W62320   2.094   3.686   1.309
97061W        W62321  34.528   1.029  14.852
97062W        W62322  21.096   3.498   2.194
97063W        W62323  30.235  43.131   4.659
97064W        W62324  42.469  30.950  12.598
97065W        W62325  42.256  17.276  12.949
97066W        W62326   0.382  13.367   0.851
97067W        W62327  25.921  11.735  12.426
97068W        W62328  18.791  24.492  12.615
97069W        W62329  30.075  14.680   0.422
97070W        W62330  13.147  15.657   4.694
97071W        W62331  10.729  38.940   2.824
97072W        W62332  17.381  39.327   4.083
97073W        W62333   4.270  42.352   3.758
97074W        W62334  40.597  13.414  13.504
97075W        W62335  24.766  31.678  12.801
97076W        W62336   5.974  29.965  11.469
97077W        W62337  27.999  40.083   1.804
97078W        W62338  35.501  14.463   2.198
97079W        W62339  43.028  27.125   0.287
97080W        W62340  28.818  36.961   2.638
97081W        W62341  34.815   6.016  11.972
97082W        W62342   4.913  27.132  11.128
97083W        W62343   9.611  37.034  12.983
97084W        W62344  29.511  25.519   0.012
97085W        W62345  21.307  22.289   0.731
97086W        W62346  10.157  40.460  13.146
97087W        W62347  26.943  16.060  12.446
97088W        W62348  43.875   7.173  10.880
97089W        W62349  26.621  24.145   2.166
97090W        W62350  43.165  44.255  12.457
97091W        W62351   1.806   6.432  13.519
97092W        W62352  43.995  15.082  14.277
97093W        W62353  37.352   3.467  10.494
97094W        W62354  37.134   8.865   0.362
97095W        W62355  10.164   6.324  13.145
97096W        W62356   6.945  27.528  12.304
97097W        W62357  29.409  22.452  12.968
97098W        W62358  32.436  11.867   1.101
97099W        W62359   5.300  29.100  14.412
97100W        W62360  22.803  28.061   1.358
97101W        W62361  41.924   6.642   1.325
97102W        W62362  39.912  14.034  14.508
97103W        W62363  32.047  11.709  12.362
97104W        W62364  10.144  18.686   3.655
97105W        W62365  30.845  30.689   2.688
97106W        W62366   0.575  12.948  11.131
97107W        W62367  32.936  26.740  14.801
97108W        W62368  14.280  37.964   1.857
97109W        W62369  40.857  12.605  12.059
97110W        W62370  32.186   5.009   2.838
97111W        W62371  14.960  26.265  11.632
97112W        W62372  20.338  27.663   3.321
97113W        W62373  21.040   3.311  14.462
97114W        W62374  10.852  39.423  14.555
97115W        W62375   6.664  34.243   0.477
97116W        W62376   4.256   7.161  10.757
97117W        W62377  14.028  21.232   2.889
97118W        W62378  12.438  44.597  12.550
97119W        W62379  37.031   6.913   4.001
97120W        W62380  41.362  32.197  11.229
97121W        W62381   4.663  24.461   1.321
97122W        W62382  10.842  10.440   2.514
97123W        W62383  17.245  12.939  13.023
97124W        W62384   1.705  14.164  11.574
97125W        W62385  26.425   1.863   4.021
97126W        W62386   1.914   2.623   5.095
97127W        W62387  10.786  28.582   0.255
97128W        W62388  40.394  30.548  12.311
97129W        W62389  35.887  13.088   1.195
97130W        W62390  10.332  43.594   3.668
97131W        W62391  16.855  35.848   0.908
97132W        W62392  33.045  25.735  12.931
97133W        W62393  37.804   3.310   4.248
97134W        W62394  35.063  14.613   3.248
97135W        W62395  10.294  11.737  14.598
97136W        W62396  16.650   4.820   2.881
97137W        W62397   4.190  36.318  11.583
97138W        W62398  17.237  31.671   4.601
97139W        W62399  42.399  33.549   4.683
97140W        W62400  38.015  30.870  14.982
97141W        W62401  38.808  42.672  12.057
97142W        W62402   3.281   5.642  14.821
97143W        W62403  24.909  44.400  10.778
97144W        W62404  34.342  27.227   4.275
97145W        W62405  38.286   0.179  13.979
97146W        W62406   1.821   0.915   3.536
97147W        W62407   2.953  44.074  13.814
97148W        W62408  43.739  24.847   4.588
97149W        W62409  19.718  32.083   4.104
97150W        W62410  25.595  33.525  12.959
97151W        W62411  27.859  19.431   1.725
97152W        W62412  22.270  43.363  14.831
97153W        W62413   5.536   9.153   4.481
97154W        W62414  43.012   0.554  11.107
97155W        W62415  14.119  29.155  13.536
97156W        W62416  42.765  11.258   0.427
97157W        W62417  15.149  14.419  10.427
97158W        W62418  39.177  10.879  12.641
97159W        W62419  31.994  23.995  10.741
97160W        W62420  16.599  24.512  11.520
97161W        W62421  17.378  21.353  14.584
97162W        W62422  34.593  37.984   3.805
97163W        W62423   4.187   3.378   3.197
97164W        W62424  31.015   5.663  13.542
97165W        W62425  12.520   9.899  13.320
97166W        W62426   4.932  42.875  14.068
97167W        W62427  23.101   9.056  11.747
97168W        W62428  17.787  15.341   1.134
97169W        W62429   7.400  11.808  14.435
97170W        W62430  39.341   1.898  11.999
97171W        W62431  27.162   0.104   4.785
97172W        W62432  22.023  29.514  14.383
97173W        W62433  26.262  20.582  12.547
97174W        W62434  27.636   1.328  13.614
97175W        W62435   9.125  13.785  14.455
97176W        W62436  37.036  15.157  13.434
97177W        W62437   5.929  42.758   4.140
97178W        W62438  29.483   0.423  12.609
97179W        W62439   7.660   3.872  11.586
97180W        W62440  14.187  24.925   3.638
97181W        W62441  28.401  23.799  12.032
97182W        W62442  21.061   6.364   4.107
97183W        W62443  29.148  30.659  14.497
97184W        W62444  23.968  42.405   0.011
97185W        W62445   1.210  26.017   2.622
97186W        W62446  34.375  24.037  11.150
97187W        W62447  14.552  43.295  12.475
97188W        W62448  39.735  28.881  10.718
97189W        W62449  27.749  39.861   4.424
97190W        W62450  17.441  31.568  14.319
97191W        W62451  30.489   1.377  12.613
97192W        W62452  34.637  26.560  12.040
97193W        W62453  40.547  17.246   3.476
97194W        W62454  22.196  24.462   3.910
97195W        W62455  18.581  25.999   4.692
97196W        W62456  27.038  24.508  14.483
97197W        W62457  35.403   7.141   1.348
97198W        W62458  16.594  38.937  13.870
97199W        W62459   2.652   4.318  12.944
97200W        W62460  15.018  14.511  12.536
97201W        W62461  19.667   9.180  14.467
97202W        W62462  27.096  19.176   0.699
97203W        W62463  21.933   0.882   0.353
97204W        W62464  16.504  12.939   3.058
97205W        W62465  41.289  17.301   1.857
97206W        W62466  15.888   9.438  10.607
97207W        W62467  32.011  34.972   3.145
97208W        W62468   6.524   6.799  14.910
97209W        W62469   6.143  15.034  13.956
97210W        W62470  43.628  34.819   0.238
97211W        W62471  38.362   6.973   3.356
97212W        W62472   8.346  16.467   1.942
97213W        W62473  29.127  24.667  14.909
97214W        W62474  42.337  29.131  12.502
97215W        W62475  16.101  35.460   2.859
97216W        W62476   8.790  25.237   4.571
97217W        W62477  38.917   7.471   2.829
97218W        W62478  30.035   3.886   2.231
97219W        W62479  38.617   0.768   1.270
97220W        W62480  21.266  43.844   4.089
97221W        W62481   5.866   4.445  11.196
97222W        W62482  15.204  31.031   4.737
97223W        W62483  24.126  20.697  11.181
97224W        W62484  11.207   3.137   0.383
97225W        W62485   8.738  23.788  11.741
97226W        W62486   4.662  13.704  13.361
97227W        W62487  17.245  40.590  11.623
97228W        W62488  18.682  39.627  14.314
97229W        W62489  19.014  25.555  11.454
97230W        W62490  33.922   1.385  10.127
97231W        W62491  12.750  33.165  11.929
97232W        W62492  25.940  32.610  11.415
97233W        W62493  41.377  15.827   0.550
97234W        W62494   7.287  22.668  12.922
97235W        W62495  36.085   2.976   0.831
97236W        W62496   0.910  18.000  10.687
97237W        W62497  19.628  35.789   4.052
97238W        W62498  31.229  19.215   2.405
97239W        W62499  27.489  43.417   1.307
97240W        W62500   7.388  20.067  13.830
97241W        W62501  17.215   8.757  11.152
97242W        W62502  32.089   3.857   3.988
97243W        W62503   8.591   6.266  11.696
97244W        W62504  12.425  28.489   3.740
97245W        W62505   8.627  18.535   1.196
97246W        W62506  13.217  43.590  14.006
97247W        W62507  20.973   6.675   2.828
97248W        W62508  34.852   3.483   4.172
97249W        W62509  18.310   9.606  12.641
97250W        W62510  29.291   1.483   4.200
97251W        W62511  27.624  24.987  13.427
97252W        W62512  31.625   5.613  14.911
97253W        W62513  43.188  39.283  12.067
97254W        W62514  28.639  16.083  12.024
97255W        W62515   7.743  26.759   0.038
97256W        W62516  41.756  23.379   1.402
97257W        W62517  19.241  28.992  12.933
97258W        W62518   9.606  36.433   2.485
97259W        W62519  28.945  33.870  13.887
97260W        W62520  23.216  16.990  13.965
97261W        W62521   0.805  42.989  11.504
97262W        W62522   0.687  43.698  14.486
97263W        W62523  40.385  18.257  12.027
97264W        W62524  27.689   8.832   0.668
97265W        W62525   2.283  23.257  12.058
97266W        W62526   2.382  44.399   1.980
97267W        W62527  30.908   9.265  11.366
97268W        W62528  29.430  27.102  13.887
97269W        W62529   0.422  18.194   3.118
97270W        W62530   3.024   4.399   1.810
97271W        W62531  18.747  16.666  14.781
97272W        W62532  30.099   1.138  12.338
97273W        W62533   3.270  31.369   0.442
97274W        W62534  35.345  32.008   0.816
97275W        W62535   2.320  25.280  13.751
97276W        W62536   2.184  42.388   3.405
97277W        W62537   6.858  17.085   0.397
97278W        W62538  29.225   7.077   1.921
97279W        W62539   5.679  10.619  12.032
97280W        W62540  25.030  34.514   4.141
97281W        W62541  19.288  16.074  13.442
97282W        W62542  37.735  38.523  14.984
97283W        W62543  10.724  34.001   1.242
97284W        W62544  33.468  10.624  12.870
97285W        W62545  23.130  18.408   2.130
97286W        W62546  38.792  27.610  11.892
97287W        W62547  17.274  10.157  10.599
97288W        W62548  18.468  14.746   2.748
97289W        W62549  17.131  32.934   3.651
97290W        W62550  22.520  17.757   5.032
97291W        W62551  16.162   5.320   0.878
97292W        W62552   9.599   3.508   2.298
97293W        W62553  31.957  24.497  12.458
97294W        W62554   6.182  17.983  13.084
97295W        W62555   4.729  24.518   3.372
97296W        W62556   0.619  32.592  10.698
97297W        W62557  28.107  31.486  10.432
97298W        W62558  27.690   8.777  14.178
97299W        W62559  34.408  34.315   4.847
97300W        W62560  43.575  15.903   0.870
97301W        W62561   7.290  14.222   0.251
97302W        W62562  19.001  38.913   1.197
97303W        W62563  30.362  23.154  13.813
97304W        W62564  17.451  36.890  11.753
97305W        W62565  15.962  38.543   0.826
97306W        W62566  32.371  10.413  11.084
97307W        W62567  33.982  20.800   0.374
97308W        W62568  44.418  10.179   1.916
97309W        W62569  27.399  21.853  11.574
97310W        W62570   8.391  29.168   1.998
97311W        W62571  34.147   2.191  10.647
97312W        W62572  27.131  10.095   2.397
97313W        W62573  35.441  18.787   3.574
97314W        W62574   2.019  18.125   0.352
97315W        W62575  24.911  21.707   0.582
97316W        W62576  39.564  22.230   3.196
97317W        W62577  41.170  32.426  14.426
97318W        W62578  37.954  44.901   2.822
97319W        W62579   4.143  33.626  10.081
97320W        W62580   7.740  27.375  14.516
97321W        W62581  17.329   9.104  13.495
97322W        W62582   5.622  23.604   2.201
97323W        W62583  34.482  25.362  10.761
97324W        W62584  22.771   2.632   5.215
97325W        W62585   5.833  35.365  14.851
97326W        W62586   3.735  15.367   2.295
97327W        W62587  18.183  33.553   0.210
97328W        W62588  29.732  32.840   0.852
97329W        W62589  22.075  16.558  13.307
97330W        W62590  30.305  26.163   1.348
97331W        W62591  16.557  37.922  12.557
97332W        W62592  18.844  20.298  11.603
97333W        W62593   5.385  15.646   1.223
97334W        W62594  39.395  41.894   2.229
97335W        W62595  14.339  27.030  14.421
97336W        W62596   8.920  44.861   2.770
97337W        W62597   1.903  28.870  13.015
97338W        W62598  33.028   6.124  12.426
97339W        W62599  40.826  13.743  12.554
97340W        W62600  27.692  21.840   4.830
97341W        W62601  14.770  39.783   4.517
97342W        W62602  19.557  25.668   2.731
97343W        W62603   0.331   4.429  13.987
97344W        W62604  13.880  30.574   1.932
97345W        W62605   2.373  20.245   0.502
97346W        W62606  17.603   7.742   0.819
97347W        W62607  28.224   4.143   0.740
97348W        W62608  10.795   3.422  11.161
97349W        W62609  35.889   2.850  14.386
97350W        W62610   4.924   4.217   0.458
97351W        W62611  25.502  40.775  13.454
97352W        W62612  28.936  25.485  10.771
97353W        W62613  19.086   6.263  13.469
97354W        W62614  22.244   9.110   4.133
97355W        W62615  25.569  38.388  13.530
97356W        W62616  44.404   0.061  11.607
97357W        W62617  20.007  13.901   1.159
97358W        W62618  37.555  18.008   0.413
97359W        W62619  28.589   2.725  12.625
97360W        W62620  16.899   5.913   2.371
97361W        W62621  40.916   1.632   0.679
97362W        W62622  38.439  16.484  10.643
97363W        W62623   7.842  42.138  10.741
97364W        W62624   0.411  22.735   3.686
97365W        W62625  11.613  33.841  10.044
97366W        W62626  11.223  40.470   2.829
97367W        W62627  16.136  34.452  12.112
97368W        W62628  10.382  42.981   0.974
97369W        W62629  42.510  24.001  11.426
97370W        W62630  35.119   2.788  12.991
97371W        W62631  24.765  36.986  10.381
97372W        W62632  23.195  35.539   1.343
97373W        W62633  24.603  27.569  14.873
97374W        W62634   0.759  36.552  14.866
97375W        W62635  39.063  10.594   0.823
97376W        W62636  24.356   4.854  13.087
97377W        W62637  43.870  34.989  12.135
97378W        W62638  42.857  41.423  12.006
97379W        W62639  16.222   8.404   5.005
97380W        W62640  26.630  21.546   1.718
97381W        W62641  26.425   4.749   3.545
97382W        W62642  11.820  13.314   1.749
97383W        W62643  23.545  38.362   3.230
97384W        W62644  41.515  27.287   1.007
97385W        W62645   6.179  10.234   0.260
97386W        W62646  20.257  42.959  11.297
97387W        W62647  39.955  42.219  12.539
97388W        W62648  33.528  22.224  12.523
97389W        W62649  26.213  44.797   4.316
97390W        W62650  26.258   0.673  13.120
97391W        W62651  12.644  12.623  11.177
97392W        W62652   5.715  26.273  11.197
97393W        W62653  23.527  28.201  13.032
97394W        W62654  14.145  32.458   0.364
97395W        W62655  40.254   5.245   1.723
97396W        W62656  32.829  11.141   0.745
97397W        W62657  12.732   9.419   3.409
97398W        W62658   2.874  32.618  14.730
97399W        W62659  31.753  16.770  12.863
97400W        W62660  12.214  27.146  11.570
97401W        W62661  39.466  37.093  12.218
97402W        W62662  42.359  17.104   2.438
97403W        W62663  35.606  15.994  12.310
97404W        W62664  44.303  15.875  14.848
97405W        W62665   4.759  17.333   1.812
97406W        W62666   5.246  42.588  13.079
97407W        W62667  28.976   5.775  11.161
97408W        W62668  36.534   3.934  12.385
97409W        W62669  14.098  15.182   4.806
97410W        W62670  19.640  16.839  12.475
97411W        W62671  19.766   7.821  14.303
97412W        W62672  41.112  27.611   3.349
97413W        W62673  11.616  22.245   3.767
97414W        W62674  13.426  44.104   1.177
97415W        W62675  37.795  24.529   3.915
97416W        W62676  15.910  44.337   0.959
97417W        W62677  38.991   9.985   4.273
97418W        W62678  11.367  42.988  12.890
97419W        W62679  22.614  20.587   1.446
97420W        W62680  36.003   4.734   3.252
97421W        W62681  13.144  37.828  14.859
97422W        W62682  40.543  43.951   3.664
97423W        W62683  10.024  18.078   1.333
97424W        W62684  21.489  18.765  14.960
97425W        W62685  38.254  38.985  13.142
97426W        W62686  18.201  25.031  12.801
97427W        W62687  32.397  22.627  14.790
97428W        W62688   8.683  42.514  13.550
97429W        W62689  40.377   7.370   5.027
97430W        W62690   0.429  33.438  11.172
97431W        W62691   5.865   5.195   1.045
97432W        W62692  12.324  38.874   0.348
97433W        W62693  37.350  12.789   3.737
97434W        W62694  21.107  38.886   1.202
97435W        W62695  19.543  36.984  10.479
97436W        W62696  12.913   5.740   3.136
97437W        W62697   2.986  36.756   4.475
97438W        W62698  16.830   9.107  11.026
97439W        W62699  28.717  12.343  12.531
97440W        W62700  41.712   1.789  12.988
97441W        W62701  29.672  16.558   2.936
97442W        W62702  41.342   4.185   0.010
97443W        W62703  22.236  33.196  12.452
97444W        W62704  10.352  33.133   4.547
97445W        W62705  42.457  41.395   0.205
97446W        W62706  23.459  15.359  11.316
97447W        W62707  38.528   6.745   3.780
97448W        W62708  16.093  27.116   0.306
97449W        W62709  28.693  42.908  11.951
97450W        W62710   8.147  34.054  13.074
97451W        W62711  11.639  16.727   1.649
97452W        W62712  14.301  42.148  11.323
97453W        W62713  40.299  16.406   0.496
97454W        W62714  14.672  18.160  12.915
97455W        W62715   6.317  13.813  14.902
97456W        W62716  39.096  18.034   3.849
97457W        W62717  40.336   6.342  12.083
97458W        W62718  24.244   5.198  12.568
97459W        W62719  19.007  27.046  12.854
97460W        W62720   2.761  15.512  14.393
97461W        W62721  38.131  26.494  12.592
97462W        W62722  23.976  23.135   3.459
97463W        W62723  29.087  35.443   4.245
97464W        W62724   6.256  23.607   1.169
97465W        W62725  27.649   6.878   3.270
97466W        W62726  14.646   9.362   3.168
97467W        W62727  44.011  23.016  10.809
97468W        W62728   4.033  43.739  11.454
97469W        W62729  13.506   2.371   3.805
97470W        W62730  41.510  41.277  13.898
97471W        W62731  21.366  10.961   4.425
97472W        W62732  32.054  16.657   2.222
97473W        W62733  43.933   9.997   1.941
97474W        W62734  34.948  38.289   3.102
97475W        W62735  21.937  13.737   0.897
97476W        W62736  28.972  27.989   0.463
97477W        W62737   1.778  30.494   2.998
97478W        W62738  23.650  24.191  13.036
97479W        W62739   6.319  40.970  13.170
97480W        W62740  41.048  17.299  11.690
97481W        W62741   5.965  29.650  11.041
97482W        W62742   2.639  42.835   5.099
97483W        W62743   4.906  17.017   4.316
97484W        W62744  20.910  35.529   4.161
97485W        W62745  16.635   9.556   3.298
97486W        W62746  30.113  31.877  14.285
97487W        W62747  33.879   1.011   1.971
97488W        W62748  24.982  13.193  10.695
97489W        W62749  44.928   5.314   0.511
97490W        W62750   8.865   4.602   0.453
97491W        W62751  19.485  23.053   3.539
97492W        W62752  33.310  24.223  14.831
97493W        W62753   9.630  30.386   1.725
97494W        W62754  24.240  36.540   0.946
97495W        W62755   1.365   6.705   4.769
97496W        W62756   1.819  20.496  10.644
97497W        W62757   8.763   3.052  13.891
97498W        W62758  39.441   6.608  13.855
97499W        W62759  16.382  27.669  11.019
97500W        W62760  40.988  37.563   4.106
97501W        W62761   2.455  34.570  12.411
97502W        W62762  30.939   9.137  13.118
97503W        W62763  28.064   1.915   0.284
97504W        W62764  43.516  15.337  11.049
97505W        W62765   0.098  14.396   0.401
97506W        W62766  34.418  10.731   1.421
97507W        W62767  36.876   5.525  14.937
97508W        W62768  21.233  35.108   4.084
97509W        W62769   8.437  28.661  11.574
97510W        W62770  18.755   7.559   3.600
97511W        W62771  25.588  44.877  13.819
97512W        W62772  19.534  29.761  11.294
97513W        W62773  42.280  10.894  14.976
97514W        W62774   2.464  25.528  13.321
97515W        W62775  26.217  20.196  14.694
97516W        W62776   8.196  37.819   1.804
97517W        W62777  30.129  22.981   1.193
97518W        W62778  30.462   4.964   1.796
97519W        W62779   2.572  36.057   0.221
97520W        W62780  30.616  20.152  10.858
97521W        W62781  13.641  11.686  13.862
97522W        W62782  18.200  17.590  10.286
97523W        W62783  22.114  15.933  11.201
97524W        W62784   5.349   9.300  11.803
97525W        W62785  16.996  12.682   2.086
97526W        W62786   7.299   7.831  11.554
97527W        W62787  29.451   6.971  13.949
97528W        W62788  36.874  18.712   1.921
97529W        W62789  33.514   4.789   1.740
97530W        W62790  18.638   6.785   2.357
97531W        W62791  38.415   6.450  13.632
97532W        W62792  43.580  37.609   2.918
97533W        W62793  18.069  43.699   3.211
97534W        W62794   4.038  36.563  12.492
97535W        W62795  31.668  10.612  12.336
97536W        W62796  28.072  13.015  10.617
97537W        W62797  14.519  27.562  11.554
97538W        W62798  28.359  30.458   2.738
97539W        W62799  31.154   5.358  11.740
97540W        W62800  12.976   3.463  10.265
97541W        W62801  27.403  38.089   3.781
97542W        W62802  29.475  41.279   4.588
97543W        W62803  11.979  18.345   2.214
97544W        W62804  32.183  33.998   1.214
97545W        W62805  12.355  10.237   3.114
97546W        W62806   1.555  22.991  14.220
97547W        W62807   4.803  42.294   1.828
97548W        W62808  27.566  32.631   1.225
97549W        W62809  40.274  14.427  13.729
97550W        W62810   3.906  10.221   2.825
97551W        W62811  44.786   3.827   4.986
97552W        W62812  15.055  39.880   1.949
97553W        W62813  38.928  40.566   4.530
97554W        W62814  36.513  38.230   1.782
97555W        W62815  14.128   3.183  14.408
97556W        W62816  28.050  21.517   4.638
97557W        W62817   8.467  18.755  14.303
97558W        W62818  43.209  39.752   0.770
97559W        W62819  24.298   5.909   5.441
97560W        W62820  35.550  31.830  12.759
97561W        W62821  41.063  26.581   2.022
97562W        W62822  15.612  16.124   0.250
97563W        W62823  25.779  30.082   3.170
97564W        W62824   9.217  13.359   4.274
97565W        W62825  17.185  27.163   4.823
97566W        W62826  24.143  24.838   4.459
97567W        W62827  15.765  42.533   3.626
97568W        W62828  24.478   7.696  10.742
97569W        W62829  22.207  21.600   3.376
97570W        W62830  13.498  12.735   2.687
97571W        W62831  27.951  13.270   1.618
97572W        W62832  37.927  30.716  13.499
97573W        W62833  42.654  14.433   3.662
97574W        W62834  36.420  17.763  12.115
97575W        W62835  31.297  33.513   0.014
97576W        W62836  17.746  37.097   3.071
97577W        W62837  16.663  39.053   4.162
97578W        W62838   2.260  12.826   0.208
97579W        W62839  17.616  26.291   1.698
97580W        W62840  31.752  43.243   1.415
97581W        W62841  40.038  15.958   3.722
97582W        W62842  21.699  19.084   2.068
97583W        W62843   0.295  12.392   0.966
97584W        W62844  43.779  37.752   0.291
97585W        W62845   2.978   4.368  11.559
97586W        W62846  23.711  17.452  10.221
97587W        W62847  22.263  44.456  13.462
97588W        W62848  39.779  19.139   0.697
97589W        W62849  20.896  22.413  14.995
97590W        W62850  22.527   8.903   0.888
97591W        W62851  27.629   3.771   1.866
97592W        W62852  26.407  28.699   0.708
97593W        W62853  29.164  31.179  11.568
97594W        W62854  25.115   6.146   0.287
97595W        W62855  25.936  15.159  11.472
97596W        W62856  15.026   8.566   5.544
97597W        W62857  39.138  25.726  10.950
97598W        W62858  36.875  33.446   0.882
97599W        W62859  23.014  15.264  12.628
97600W        W62860   1.858  33.278  10.651
97601W        W62861  12.670  34.022   1.049
97602W        W62862  33.964  36.329   3.671
97603W        W62863  42.816  20.039   0.172
97604W        W62864  39.880  38.937   0.569
97605W        W62865  36.574  18.315   2.188
97606W        W62866  11.225  41.273  11.350
97607W        W62867  14.876   9.387  14.910
97608W        W62868  14.659  39.250  10.654
97609W        W62869  26.967  23.030   2.714
97610W        W62870  13.610  15.372  11.265
97611W        W62871  10.305   7.401  12.542
97612W        W62872  33.424   5.454  13.030
97613W        W62873  11.655   3.974   4.320
97614W        W62874  36.474  16.563   4.169
97615W        W62875  39.719   2.360   0.343
97616W        W62876  12.790  29.933  11.520
97617W        W62877  29.278  33.563  11.909
97618W        W62878  24.553   8.021  11.582
97619W        W62879  17.721  17.008   2.677
97620W        W62880   1.733  27.512  11.529
97621W        W62881  27.679  39.865   0.918
97622W        W62882  13.765  24.650   3.322
97623W        W62883  35.002  23.156  13.101
97624W        W62884  23.560  30.002   3.498
97625W        W62885  32.711  43.212   1.269
97626W        W62886  24.515  30.999   0.726
97627W        W62887  23.934  26.956  11.673
97628W        W62888  28.644  34.878  13.157
97629W        W62889  18.958  13.320   1.642
97630W        W62890  15.851   1.483  12.515
97631W        W62891  28.962  44.902   1.864
97632W        W62892  18.489  22.188  12.972
97633W        W62893  24.041  41.326   2.694
97634W        W62894  34.652  15.355  11.140
97635W        W62895   0.606  35.067   0.868
97636W        W62896  23.849  38.233   3.644
97637W        W62897  24.642   9.878   0.168
97638W        W62898  36.175  42.714   4.534
97639W        W62899   1.468  21.979   2.160
97640W        W62900  28.552  37.013  11.443
97641W        W62901  34.416  27.016   0.722
97642W        W62902  17.465  14.149  14.876
97643W        W62903   4.410   5.500  12.515
97644W        W62904  26.590  34.367  12.075
97645W        W62905   5.377   9.544  10.462
97646W        W62906  42.822  26.515   2.196
97647W        W62907  31.313  41.091  11.706
97648W        W62908  41.830  42.813  14.432
97649W        W62909  37.200   5.893  14.213
97650W        W62910  25.251  14.147  10.618
97651W        W62911  24.555  26.649  12.862
97652W        W62912  11.231  40.451   3.340
97653W        W62913  22.873  24.291   3.191
97654W        W62914  30.598   5.556  10.196
97655W        W62915  33.494  31.196  12.738
97656W        W62916  23.448  10.077   3.186
97657W        W62917   3.295  33.565  12.534
97658W        W62918  41.527  31.457   0.657
97659W        W62919  26.509  25.220   5.103
97660W        W62920   5.337  19.634   0.679
97661W        W62921  31.485  35.846   1.406
97662W        W62922  17.761  42.498   2.399
97663W        W62923  33.348  13.738   3.294
97664W        W62924  11.303  11.314   0.320
97665W        W62925   8.524  19.038  12.947
97666W        W62926  24.490  28.086  14.758
97667W        W62927  20.593  11.704   0.162
97668W        W62928   7.560  30.203   2.934
97669W        W62929  41.445  15.155  14.373
97670W        W62930   6.865  32.403  12.025
97671W        W62931  24.107   1.979   3.246
97672W        W62932   7.978  12.667  11.608
97673W        W62933   8.403  35.429  12.035
97674W        W62934  42.952  17.585  12.902
97675W        W62935  11.771  33.996  14.461
97676W        W62936  21.181  35.903  14.604
97677W        W62937  24.755  27.768  14.378
97678W        W62938   8.207   0.836  11.662
97679W        W62939   2.304  38.877   1.721
97680W        W62940  16.822  39.995  12.365
97681W        W62941  13.645   2.680   4.609
97682W        W62942  27.993  10.677  12.496
97683W        W62943  27.169  15.393   3.555
97684W        W62944   0.899  42.688   3.780
97685W        W62945  16.127   2.928   1.700
97686W        W62946  16.184  35.903  12.095
97687W        W62947  20.708  34.673   0.317
97688W        W62948  18.521  20.279   3.209
97689W        W62949   7.279   3.500  12.853
97690W        W62950  30.289  36.443   0.936
97691W        W62951  21.036  10.765   1.292
97692W        W62952   0.734  36.072   3.260
97693W        W62953  44.609  14.702   4.667
97694W        W62954   1.753  19.744   1.397
97695W        W62955  17.195  44.111  12.633
97696W        W62956   9.650  18.735   2.608
97697W        W62957  12.904  25.989   2.658
97698W        W62958  23.312  44.996  12.428
97699W        W62959  13.762  44.463   3.321
97700W        W62960   9.317  10.750   3.494
97701W        W62961  42.047  10.742  13.430
97702W        W62962  32.104  21.724  11.846
97703W        W62963   2.927   8.845  10.843
97704W        W62964   9.697  22.415   2.454
97705W        W62965   3.678  14.049   2.604
97706W        W62966  32.452  31.165   0.167
97707W        W62967  33.092  24.320   1.652
97708W        W62968  21.424  23.520  13.388
97709W        W62969  20.344   5.443   5.158
97710W        W62970   5.326  17.352   3.788
97711W        W62971   7.353  28.819  11.562
97712W        W62972  24.510   8.858  14.931
97713W        W62973  22.089  12.456  11.954
97714W        W62974  44.395  13.905   5.566
97715W        W62975  27.537  22.392  11.583
97716W        W62976  25.789   7.302   2.454
97717W        W62977   0.324  30.544  10.780
97718W        W62978  19.761  15.115   4.181
97719W        W62979   6.472  19.468  14.792
97720W        W62980  11.846  18.415  11.653
97721W        W62981  15.140  44.418  13.627
97722W        W62982  27.407   6.892  12.425
97723W        W62983  13.775  12.593  11.102
97724W        W62984  42.077   5.904  13.960
97725W        W62985   0.613  39.056   4.402
97726W        W62986  20.586  42.397   4.123
97727W        W62987  19.449  35.503   1.712
97728W        W62988  42.309   5.412   2.249
97729W        W62989  18.707  22.330  11.634
97730W        W62990  36.627  23.166  12.488
97731W        W62991   7.908  31.176   2.720
97732W        W62992   9.320  27.700  13.563
97733W        W62993   1.373  19.210   4.272
97734W        W62994  27.846  21.585   3.538
97735W        W62995  24.213  35.623   2.160
97736W        W62996  15.253  22.092  14.817
97737W        W62997  17.035  16.690   5.491
97738W        W62998  39.469  16.559  12.286
97739W        W62999  28.648  27.686   2.817
97740W        W63000   5.856  13.211  12.052
97741W        W63001  32.363  32.744   2.821
97742W        W63002  23.623  28.892   0.276
97743W        W63003  19.168  22.279  14.694
97744W        W63004  43.014  17.092   4.202
97745W        W63005   0.946   4.265  10.699
97746W        W63006  16.784   3.773   3.326
97747W        W63007  18.146  11.702   3.646
97748W        W63008   9.907  10.813  14.093
97749W        W63009  12.320  31.498   1.873
97750W        W63010  37.629  16.052  12.844
97751W        W63011  33.904  25.131   2.769
97752W        W63012  15.809  29.869   1.282
97753W        W63013   8.218  19.182   2.210
97754W        W63014  38.921  41.398  10.647
97755W        W63015  10.087  22.636  14.905
97756W        W63016  15.543   6.825   4.359
97757W        W63017  25.518   1.137  13.509
97758W        W63018  13.323  30.890  14.936
97759W        W63019  37.979  37.561   0.245
97760W        W63020  44.803  10.216  10.637
97761W        W63021  21.988  11.191   1.841
97762W        W63022   4.056  10.956   3.552
97763W        W63023  18.227  34.048   1.897
97764W        W63024  29.879   4.486  14.861
97765W        W63025   6.213  37.786  12.420
97766W        W63026   6.299  30.248  13.558
97767W        W63027  33.182  30.477   0.279
97768W        W63028  11.895  12.780  10.213
97769W        W63029  21.783  13.264   1.678
97770W        W63030  33.932   7.710  13.826
97771W        W63031   4.131  41.007  11.486
97772W        W63032  36.898  29.374   2.778
97773W        W63033   6.932  14.045  11.982
97774W        W63034  25.593   6.447  12.727
97775W        W63035  27.540  36.178  14.326
97776W        W63036   3.112  23.918  12.996
97777W        W63037  38.257  12.579   0.882
97778W        W63038  21.123  36.806   1.701
97779W        W63039  30.982  13.005   2.384
97780W        W63040   9.442  33.387  11.091
97781W        W63041  39.724  26.351   0.683
97782W        W63042   8.662  20.404   4.795
97783W        W63043  25.286  10.746  11.033
97784W        W63044  31.829  29.550   3.804
97785W        W63045  40.700  26.663   0.565
97786W        W63046  19.224  20.148  13.394
97787W        W63047  43.761   7.461  11.674
97788W        W63048   5.636  20.724   4.156
97789W        W63049   5.282   7.498  11.633
97790W        W63050  35.035  12.232   4.941
97791W        W63051   6.143   8.276  11.335
97792W        W63052  22.200  34.638  10.681
97793W        W63053  11.727  36.134  11.140
97794W        W63054   8.169  24.595  14.471
97795W        W63055  23.242   7.312  12.441
97796W        W63056   9.595  17.824   1.781
97797W        W63057  37.204  42.888  10.386
97798W        W63058  18.651  11.894   4.621
97799W        W63059  22.337  16.858  12.996
97800W        W63060  29.898   7.716   3.888
97801W        W63061  44.399  12.629   3.314
97802W        W63062  17.800  29.583  11.110
97803W        W63063  33.312  32.630  12.980
97804W        W63064  32.892   6.694   3.275
97805W        W63065  36.105  42.836   5.027
97806W        W63066   4.749  37.901  13.189
97807W        W63067  25.180  18.064   1.939
97808W        W63068  41.850  41.945   0.860
97809W        W63069  41.972   5.780  14.965
97810W        W63070  32.204  28.177  10.701
97811W        W63071  36.994  42.889   0.761
97812W        W63072  30.183  12.137  11.244
97813W        W63073   5.648  30.683  12.150
97814W        W63074  19.274   6.902   0.726
97815W        W63075  38.343  20.397  14.320
97816W        W63076   6.695  18.197   1.253
97817W        W63077  12.583   1.365   0.546
97818W        W63078  32.065  19.406  14.506
97819W        W63079  12.150  12.653   2.270
97820W        W63080   0.142  42.106  10.675
97821W        W63081  16.714  44.437   2.238
97822W        W63082  42.346   9.012  11.017
97823W        W63083   0.557   0.765  14.051
97824W        W63084  32.689   7.339  13.460
97825W        W63085  31.513  31.328  10.958
97826W        W63086  11.211  14.801  11.209
97827W        W63087   5.153  19.204   3.206
97828W        W63088   8.592   9.929   1.437
97829W        W63089  34.684  19.094   4.236
97830W        W63090  11.813  26.011   3.956
97831W        W63091  38.389  16.785   2.853
97832W        W63092   0.224  15.441   3.245
97833W        W63093  39.405  21.594  12.018
97834W        W63094  18.497   3.258  11.514
97835W        W63095  29.085   5.480  13.990
97836W        W63096  29.474  34.498  13.599
97837W        W63097   2.030   0.435  13.013
97838W        W63098   0.862  23.455  13.116
97839W        W63099  24.299  24.216   2.153
97840W        W63100  43.665  38.510  13.472
97841W        W63101  34.029  44.267  10.796
97842W        W63102  43.026  17.475   2.016
97843W        W63103  21.943   4.091   2.678
97844W        W63104  20.046  27.925   0.252
97845W        W63105  36.957  25.072   2.302
97846W        W63106  37.087  18.224   2.844
97847W        W63107  26.721   8.866  14.378
97848W        W63108  43.827  27.615  13.221
97849W        W63109  27.415  36.471  13.025
97850W        W63110  26.562  33.059  14.942
97851W        W63111  12.193  28.435  12.509
97852W        W63112  41.363   0.885  14.288
97853W        W63113  37.592  29.349  12.497
97854W        W63114  13.111   6.075   4.108
97855W        W63115  34.136  44.945  11.217
97856W        W63116  43.980  31.481  13.096
97857W        W63117  13.812  14.592   4.386
97858W        W63118  38.977  40.400   0.238
97859W        W63119   8.141  17.156  14.641
97860W        W63120  28.620  13.673   4.068
97861W        W63121   4.005  28.278   3.736
97862W        W63122  16.474   9.824   0.749
97863W        W63123  20.507  38.762  11.021
97864W        W63124  13.893  25.979  13.136
97865W        W63125  43.986  42.508   3.513
97866W        W63126  11.234  36.331  11.161
97867W        W63127   1.363  38.821  14.763
97868W        W63128   6.089  33.424   1.679
97869W        W63129  40.570  41.480   0.402
97870W        W63130  20.384  44.558  12.972
97871W        W63131  35.650  27.487  10.441
97872W        W63132  33.663  31.087  11.981
97873W        W63133  16.471  40.878   4.574
97874W        W63134  34.317  14.444   1.308
97875W        W63135  10.134   5.174   0.461
97876W        W63136  27.088  40.364  13.802
97877W        W63137  24.111  36.659   2.279
97878W        W63138  26.634  20.520   3.400
97879W        W63139  28.185   3.852  13.044
97880W        W63140  23.911   8.305   1.815
97881W        W63141   6.284  20.947  10.021
97882W        W63142   1.809  19.394   4.041
97883W        W63143  24.428  31.996  13.059
97884W        W63144  10.880  30.810   3.343
97885W        W63145  29.057  42.340   2.768
97886W        W63146  35.489  23.989  11.630
97887W        W63147  36.079  27.521  10.723
97888W        W63148   5.881   8.656  12.050
97889W        W63149  26.693  43.555  14.373
97890W        W63150   5.614  38.847  14.342
97891W        W63151   2.520  16.785  13.897
97892W        W63152  28.412   4.903   0.367
97893W        W63153   7.996  18.783  12.217
97894W        W63154  41.935  16.841  14.473
97895W        W63155  17.367  31.029   1.801
97896W        W63156  23.157  12.247  11.663
97897W        W63157  12.629  12.553  11.674
97898W        W63158  12.364  28.487  13.925
97899W        W63159   2.849  42.841   2.345
97900W        W63160  26.435   8.643  14.014
97901W        W63161  31.867   9.812   4.063
97902W        W63162  34.900  25.063  10.747
97903W        W63163  41.404  24.141   4.232
97904W        W63164  40.111  24.251  14.332
97905W        W63165  26.662   3.932  14.399
97906W        W63166   8.661  12.291  11.013
97907W        W63167   8.197   6.499   9.901
97908W        W63168  10.287  28.860  11.750
97909W        W63169   7.429  35.944  13.960
97910W        W63170  12.460  14.719   3.738
97911W        W63171  22.258  10.601  12.754
97912W        W63172   4.410  13.653   4.147
97913W        W63173  20.398   9.457   2.370
97914W        W63174  41.549  32.147  11.719
97915W        W63175  18.050  34.931  10.717
97916W        W63176   4.845  42.925  12.289
97917W        W63177  44.213  43.953   4.628
97918W        W63178  28.079   1.183  13.360
97919W        W63179   9.760  22.533  14.507
97920W        W63180  43.544  29.929   4.057
97921W        W63181  37.612  21.366   0.151
97922W        W63182  22.576  12.168   1.963
97923W        W63183  15.807  30.104  13.007
97924W        W63184  37.012  44.259  13.674
97925W        W63185  25.035  17.159   4.475
97926W        W63186  40.527  19.308  14.856
97927W        W63187   2.113  34.868  11.177
97928W        W63188  37.338   3.557   9.993
97929W        W63189  12.200  17.141   4.674
97930W        W63190  34.122  20.690  14.416
97931W        W63191  39.877   4.138  14.758
97932W        W63192  11.983  40.897   0.707
97933W        W63193  25.446  32.646   2.348
97934W        W63194   9.041  28.453   1.981
97935W        W63195  19.172  42.754   1.917
97936W        W63196  21.777  20.800   3.883
97937W        W63197   1.204  30.721  13.963
97938W        W63198  32.121  16.728   3.197
97939W        W63199  12.619  41.553   0.948
97940W        W63200  41.371  43.614   1.235
97941W        W63201  20.223  36.566   2.711
97942W        W63202  27.971  39.008   3.150
97943W        W63203  29.005  32.331   2.808
97944W        W63204  18.640  32.839   1.649
97945W        W63205  26.630  19.475  10.354
97946W        W63206  16.650  29.454   0.922
97947W        W63207   8.418  41.985   4.670
97948W        W63208   7.261  24.641   2.487
97949W        W63209  31.618  14.190  12.397
97950W        W63210   3.879   3.492   2.284
97951W        W63211  40.751   8.932  13.933
97952W        W63212  24.643  10.443   2.168
97953W        W63213  20.704  10.428   4.228
97954W        W63214  12.957  34.561   3.683
97955W        W63215  36.372  34.608   1.283
97956W        W63216   9.872  10.053   3.232
97957W        W63217  24.928  20.649  13.898
97958W        W63218  22.042  17.755  10.590
97959W        W63219  39.127   2.368  12.064
97960W        W63220  15.652  24.411   4.941
97961W        W63221  10.332  23.571  12.493
97962W        W63222   9.158   9.810  10.734
97963W        W63223  16.820  13.381   2.142
97964W        W63224  37.084  13.093   2.040
97965W        W63225  16.987  37.929   2.695
97966W        W63226   4.282  35.997  11.105
97967W        W63227  30.421  37.314   3.602
97968W        W63228  20.057  16.207   0.411
97969W        W63229  43.315  13.051  14.907
97970W        W63230  21.295   1.776   0.942
97971W        W63231  34.971  19.544   4.136
97972W        W63232  21.278   6.521  11.583
97973W        W63233  24.526  21.827  14.351
97974W        W63234   0.145  21.202   2.186
97975W        W63235  14.486  27.509   1.310
97976W        W63236  31.740  34.517  11.078
97977W        W63237  14.300  21.260   4.207
97978W        W63238  19.702  32.141   0.245
97979W        W63239  40.538  32.946   3.571
97980W        W63240  38.253  41.176   4.840
97981W        W63241  21.709  34.490  13.508
97982W        W63242  21.535   1.988  11.787
97983W        W63243   0.346  20.741   0.246
97984W        W63244  29.114  20.202  13.327
97985W        W63245  36.385  37.570  10.270
97986W        W63246  15.546  41.994   2.749
97987W        W63247   2.620  14.117  11.627
97988W        W63248  12.404  41.078  14.861
97989W        W63249  24.510  20.959  12.970
97990W        W63250  21.988  27.027  11.911
97991W        W63251  28.699   7.844   0.533
97992W        W63252  13.545  23.787   3.620
97993W        W63253  19.023  21.402   3.805
97994W        W63254  23.563  34.555   4.180
97995W        W63255  17.728  38.777  14.283
97996W        W63256  43.936  42.059  14.835
97997W        W63257  16.877  23.673   4.352
97998W        W63258  22.953   6.868   1.756
97999W        W63259  22.712  10.567  12.443
98000W        W63260  28.920  11.261  13.342
98001W        W63261   1.555  13.473   1.219
98002W        W63262  28.973  29.012   2.957
98003W        W63263   4.723  39.434  13.405
98004W        W63264   3.022   8.141  13.943
98005W        W63265  44.710  15.812  12.315
98006W        W63266   0.968  43.117   0.917
98007W        W63267  11.847  27.640   4.115
98008W        W63268  15.192  32.322   1.849
98009W        W63269  13.744   1.384  13.296
98010W        W63270  20.569  42.963   3.585
98011W        W63271  35.402  20.086  14.472
98012W        W63272  12.635   9.434  14.880
98013W        W63273   9.761   7.058   2.658
98014W        W63274   5.200  37.890  12.893
98015W        W63275  43.787  12.067  12.449
98016W        W63276  38.356   4.642   4.015
98017W        W63277  20.632  18.976   5.509
98018W        W63278  22.872  23.159  11.098
98019W        W63279  32.204  40.468   0.905
98020W        W63280  27.491  33.146   0.256
98021W        W63281  41.749  32.505  11.083
98022W        W63282  11.442   4.399  10.636
98023W        W63283   1.898  27.209   2.696
98024W        W63284   3.496  39.282  12.941
98025W        W63285  40.008  28.167   1.772
98026W        W63286  33.086  24.519  13.796
98027W        W63287  40.755  35.442  12.273
98028W        W63288   5.709  38.320   1.214
98029W        W63289  23.736  13.200  13.334
98030W        W63290   9.138  44.668   3.216
98031W        W63291  13.610  38.942  12.926
98032W        W63292  10.566   1.862   1.203
98033W        W63293   1.249  37.120   0.669
98034W        W63294  44.554   3.335   0.378
98035W        W63295  37.395  17.856   3.111
98036W        W63296  21.608  29.574   1.502
98037W        W63297  41.672  34.407  14.969
98038W        W63298  33.096  21.259   1.723
98039W        W63299  35.918  30.856  13.092
98040W        W63300  37.514  35.205   2.402
98041W        W63301  38.723  41.019   4.705
98042W        W63302   8.583   4.705   3.801
98043W        W63303  16.516  17.328   4.096
98044W        W63304   4.609  10.850   3.694
98045W        W63305  15.918  23.090  13.375
98046W        W63306  28.518  33.517   1.730
98047W        W63307  29.486   9.627   1.379
98048W        W63308  14.202   1.739   0.694
98049W        W63309  18.346   4.157   1.624
98050W        W63310  27.443  44.033  12.990
98051W        W63311  12.101  31.601   2.441
98052W        W63312  39.582   3.656  11.417
98053W        W63313  24.600  20.225  11.407
98054W        W63314  30.192  33.870  13.323
98055W        W63315  32.863   9.611   3.173
98056W        W63316  24.792   9.363  12.464
98057W        W63317   3.440   2.437  13.993
98058W        W63318  25.616  18.775  10.738
98059W        W63319  30.509  24.494   0.475
98060W        W63320  14.207   5.685   0.573
98061W        W63321  36.834  35.478  14.688
98062W        W63322  35.635  20.752   0.795
98063W        W63323  23.600  42.912   4.673
98064W        W63324  24.262  44.727   2.701
98065W        W63325  41.073  30.114  11.100
98066W        W63326   6.485  27.067   2.733
98067W        W63327  34.885  28.128  14.870
98068W        W63328  21.512   3.661  14.018
98069W        W63329  28.556  18.339   5.016
98070W        W63330  39.614  37.481   4.034
98071W        W63331  26.094   5.726   3.323
98072W        W63332  22.032  18.648  11.120
98073W        W63333  27.200  35.506   3.332
98074W        W63334  27.494  25.605   0.797
98075W        W63335  35.618  14.059   1.291
98076W        W63336  25.510  11.495   4.654
98077W        W63337  41.410  17.237   0.653
98078W        W63338  19.768  12.631  11.102
98079W        W63339  12.905  43.072   3.599
98080W        W63340  10.382  30.902  10.043
98081W        W63341  22.728   1.985  12.927
98082W        W63342  19.468   6.963   2.782
98083W        W63343  41.076  39.078  11.558
98084W        W63344  24.566  31.438   1.441
98085W        W63345  34.990  36.965   0.368
98086W        W63346  26.420  27.986  11.609
98087W        W63347   9.105  22.133  10.317
98088W        W63348  10.149  25.121   4.261
98089W        W63349  37.444  26.578   2.816
98090W        W63350  18.479   1.393  11.338
98091W        W63351  11.170  13.657  11.926
98092W        W63352  14.702  19.645  13.377
98093W        W63353  10.154  27.977   2.015
98094W        W63354  27.080  42.583  11.115
98095W        W63355  31.919  36.423  11.201
98096W        W63356  12.051  17.734  11.134
98097W        W63357  25.274  21.636   1.624
98098W        W63358  25.092  30.444  14.287
98099W        W63359  43.288  13.743   0.392
98100W        W63360  23.476  21.864  11.299
98101W        W63361  43.733  43.919  14.246
98102W        W63362  16.731  40.826  14.442
98103W        W63363   2.784  20.575   1.994
98104W        W63364  30.582   5.979  12.310
98105W        W63365  25.266  22.993  13.230
98106W        W63366  14.411  41.800   4.144
98107W        W63367  32.668  41.576   4.967
98108W        W63368  21.507  31.187  10.644
98109W        W63369  41.399  13.356   2.292
98110W        W63370  43.036  44.937   3.909
98111W        W63371  19.675  15.348   0.686
98112W        W63372  19.542  28.358  10.487
98113W        W63373   0.427   8.433  14.545
98114W        W63374  36.039   0.284  10.066
98115W        W63375  12.988  22.344   4.229
98116W        W63376  39.913   9.204   2.236
98117W        W63377   7.324  12.312   4.252
98118W        W63378  31.603  15.597   1.212
98119W        W63379  19.436   5.174   4.519
98120W        W63380  22.945  17.450   5.052
98121W        W63381  43.540  24.718   1.839
98122W        W63382  36.019   4.477  14.966
98123W        W63383   1.998  38.807   0.369
98124W        W63384  27.466  41.563   0.189
98125W        W63385  21.658   2.173  10.719
98126W        W63386  15.699  15.340  14.310
98127W        W63387  11.759  38.089   0.865
98128W        W63388  30.676  29.548   0.234
98129W        W63389  33.050  20.776   1.982
98130W        W63390  17.713   9.289  14.847
98131W        W63391   0.779  18.752  13.845
98132W        W63392   1.823  12.208  14.696
98133W        W63393   3.429  24.531   1.922
98134W        W63394  24.418  17.004  12.630
98135W        W63395  31.899   0.442   1.386
98136W        W63396  44.412  19.942  14.591
98137W        W63397  40.912  27.008   1.764
98138W        W63398  18.228   7.014  11.904
98139W        W63399  12.272  42.929   2.288
98140W        W63400  29.756  16.201  13.809
98141W        W63401   4.328  30.899   0.745
98142W        W63402  20.752  13.584   4.238
98143W        W63403  13.143  17.737   2.407
98144W        W63404  43.359  32.423   2.647
98145W        W63405  23.551  30.816  14.980
98146W        W63406  24.186  29.211  11.232
98147W        W63407  20.351  22.191   3.709
98148W        W63408  19.773  19.344   1.585
98149W        W63409   1.226   5.387  14.392
98150W        W63410  25.708  38.809   2.975
98151W        W63411  42.562   3.343   0.395
98152W        W63412   6.980  20.029  11.081
98153W        W63413  36.444  44.330  14.728
98154W        W63414  41.883  13.527  14.482
98155W        W63415  40.883  24.070   4.269
98156W        W63416  11.334  24.313   4.431
98157W        W63417  38.723   8.715   0.939
98158W        W63418  12.817  29.961  14.661
98159W        W63419  25.181  32.111  11.998
98160W        W63420   7.920   2.721   2.265
98161W        W63421   0.098  40.017   4.795
98162W        W63422  11.798  34.613  13.284
98163W        W63423  41.368  38.107   0.218
98164W        W63424  17.119   5.256   0.784
98165W        W63425  23.659  14.714   4.542
98166W        W63426  38.849  18.921  10.190
98167W        W63427   7.333   2.223  12.536
98168W        W63428  39.552  21.906  12.535
98169W        W63429   8.868  25.773  12.499
98170W        W63430  40.240   3.245  11.440
98171W        W63431  28.635  19.191  13.489
98172W        W63432   0.020  31.963   0.893
98173W        W63433  37.954  12.952  12.258
98174W        W63434  43.971  39.994   4.171
98175W        W63435   4.367  18.810   1.333
98176W        W63436  37.865  43.096   2.162
98177W        W63437  16.805   7.270  14.501
98178W        W63438  40.529  22.072   2.623
98179W        W63439  19.290  36.042  12.001
98180W        W63440  36.107  44.965  12.913
98181W        W63441  17.261  26.727   0.961
98182W        W63442  13.816   4.424  11.126
98183W        W63443  41.438  13.293  14.389
98184W        W63444  22.254  37.980   1.856
98185W        W63445   4.714  24.976   1.297
98186W        W63446   3.956   9.094   0.145
98187W        W63447   6.678  13.267  13.891
98188W        W63448   7.752  20.479  12.482
98189W        W63449   1.905   5.032  12.053
98190W        W63450  30.415  16.846  10.655
98191W        W63451  26.530  32.152   2.294
98192W        W63452  33.372   8.969  10.676
98193W        W63453  26.874  23.645   0.662
98194W        W63454  13.149   5.372   0.457
98195W        W63455  31.667  33.387  11.646
98196W        W63456  29.444  43.531  14.005
98197W        W63457  15.498   1.027   4.975
98198W        W63458  10.178  13.039  10.344
98199W        W63459  22.329  28.976  14.940
98200W        W63460   0.285  13.539  14.394
98201W        W63461  40.555   5.785  10.476
98202W        W63462   2.677  36.179  13.278
98203W        W63463   9.125   0.851   1.352
98204W        W63464   2.164  18.843  13.387
98205W        W63465  11.401   7.986  10.404
98206W        W63466   9.885  26.228   2.531
98207W        W63467  16.940  14.273  14.889
98208W        W63468   5.957  13.701  11.958
98209W        W63469  30.135  32.532   3.057
98210W        W63470  31.667  10.684  13.777
98211W        W63471   9.456  31.407  14.910
98212W        W63472  29.820  11.038  13.262
98213W        W63473   2.837  41.776  12.820
98214W        W63474  31.175  16.674   3.178
98215W        W63475  17.249  25.513   3.281
98216W        W63476  25.444  36.937  12.669
98217W        W63477  14.395  28.000   0.503
98218W        W63478  27.970   1.478   1.233
98219W        W63479  15.191  13.155  13.482
98220W        W63480  20.638  34.000   4.055
98221W        W63481   8.478  39.396   3.139
98222W        W63482  11.511  40.945  11.611
98223W        W63483  23.103  12.299   4.030
98224W        W63484  40.800   4.418  13.004
98225W        W63485  39.679  41.362   0.514
98226W        W63486   0.428   7.107   2.745
98227W        W63487   0.622  29.614  13.020
98228W        W63488  26.939   8.055  11.940
98229W        W63489   3.169  26.473  14.872
98230W        W63490  43.060  20.683  13.054
98231W        W63491  13.634  21.091   0.294
98232W        W63492  11.872  19.927   3.265
98233W        W63493   4.326  13.949  14.730
98234W        W63494   0.866  24.627  11.404
98235W        W63495   7.156   1.796  12.255
98236W        W63496  34.915   4.377  13.610
98237W        W63497   0.954  13.387   4.511
98238W        W63498  20.075  33.414   0.469
98239W        W63499   2.966  27.530   3.805
98240W        W63500  25.424  35.232   0.834
98241W        W63501  15.848  33.123  12.506
98242W        W63502  10.873  35.764   2.416
98243W        W63503  11.455  24.411  13.411
98244W        W63504  33.495  40.748  13.262
98245W        W63505  36.586  36.467  13.404
98246W        W63506  25.227  20.026  10.354
98247W        W63507  40.219  20.077   4.850
98248W        W63508  25.383  19.787  11.934
98249W        W63509  27.521  25.267  14.958
98250W        W63510  41.047   2.836   1.680
98251W        W63511  17.911  19.454   1.727
98252W        W63512  30.577   9.968   3.093
98253W        W63513  35.066  12.696  12.457
98254W        W63514  28.093  24.550  11.408
98255W        W63515  36.333  24.888   3.736
98256W        W63516  14.893  44.696   0.298
98257W        W63517  43.323  10.643   1.659
98258W        W63518   5.708  15.132   2.585
98259W        W63519  42.089  17.494   2.710
98260W        W63520  31.484   3.519   4.640
98261W        W63521  42.550  28.296   2.778
98262W        W63522  40.201  34.460   1.781
98263W        W63523  41.088  12.232   2.647
98264W        W63524  21.588  18.633  13.460
98265W        W63525  16.295   3.709   2.240
98266W        W63526  21.739  43.619   2.030
98267W        W63527   2.434  30.556  12.118
98268W        W63528   1.252  23.782  13.876
98269W        W63529   7.205  15.346   0.743
98270W        W63530  38.668  19.196   4.708
98271W        W63531  26.559   7.124  12.884
98272W        W63532  35.341  28.383  13.057
98273W        W63533  27.236  11.173  14.807
98274W        W63534  26.656  37.551  11.465
98275W        W63535  41.465  22.482   2.650
98276W        W63536  15.571  29.258   0.486
98277W        W63537  10.348  36.569  13.083
98278W        W63538  42.597   8.882   2.329
98279W        W63539  14.913  41.566  14.337
98280W        W63540   1.469   6.647  14.842
98281W        W63541  28.198  10.805  12.044
98282W        W63542  16.581  42.313   4.252
98283W        W63543   8.298  15.774  10.626
98284W        W63544   5.954  10.751  14.032
98285W        W63545  14.947  34.365  11.563
98286W        W63546   2.270  41.814  14.508
98287W        W63547  34.809   9.429  11.952
98288W        W63548  41.590   2.687  11.920
98289W        W63549  18.626  19.542  13.890
98290W        W63550  30.313   4.928   0.724
98291W        W63551  26.229  10.968  11.739
98292W        W63552  39.496   2.793   1.717
98293W        W63553  33.340  30.469   3.807
98294W        W63554  13.097   9.177   2.597
98295W        W63555   3.267  41.806  13.109
98296W        W63556  17.007  27.096   0.538
98297W        W63557  42.563  32.640   4.035
98298W        W63558  43.177   7.261   2.377
98299W        W63559   8.280  18.137  10.546
98300W        W63560  28.042  29.501   2.124
98301W        W63561  33.811   4.315   1.672
98302W        W63562  38.241  16.845  12.789
98303W        W63563  11.829   8.303  11.448
98304W        W63564  27.365  36.585  10.659
98305W        W63565  42.788  31.483   1.325
98306W        W63566  35.278  44.531  12.917
98307W        W63567  19.033  36.360  10.765
98308W        W63568  10.467   0.488   3.486
98309W        W63569  23.301  28.096   3.080
98310W        W63570  23.461   6.616  10.888
98311W        W63571  15.788  36.621  10.652
98312W        W63572   9.934  22.078   1.396
98313W        W63573   5.306  13.837   3.133
98314W        W63574  28.153  15.787  10.663
98315W        W63575  44.797  21.594   2.314
98316W        W63576   9.295  18.563   1.421
98317W        W63577   9.988   4.415   2.145
98318W        W63578  26.930  14.567  14.489
98319W        W63579  19.255  26.573   1.472
98320W        W63580   9.640  36.932   4.229
98321W        W63581  21.590  17.258  10.249
98322W        W63582  34.939  27.111   0.557
98323W        W63583   5.316  22.384   2.108
98324W        W63584  35.423   2.475  10.680
98325W        W63585  36.432  17.807   0.828
98326W        W63586   1.354  26.108  14.790
98327W        W63587  33.539   1.513   1.201
98328W        W63588   2.358   7.148   0.724
98329W        W63589  39.847  34.808   1.643
98330W        W63590   5.909  40.852  10.367
98331W        W63591   8.804  37.272   0.453
98332W        W63592  19.639   0.450   1.962
98333W        W63593  14.099   9.391   3.204
98334W        W63594  22.753   2.398   1.319
98335W        W63595   0.926  19.455   2.298
98336W        W63596   8.273  23.248  14.335
98337W        W63597  29.446  44.333  10.252
98338W        W63598  40.303  22.297  13.960
98339W        W63599  20.125  37.413  10.244
98340W        W63600  40.499  20.158   0.840
98341W        W63601  14.134  30.099  12.142
98342W        W63602  39.489  40.123   0.349
98343W        W63603  27.173   7.297  14.112
98344W        W63604  16.497  42.874  14.463
98345W        W63605  20.581  28.444   3.225
98346W        W63606  28.180  30.133   0.931
98347W        W63607  19.828   5.415  10.731
98348W        W63608  40.485  36.879  12.463
98349W        W63609  40.911   2.768   1.167
98350W        W63610  35.786  21.269  11.597
98351W        W63611  31.587  10.005  12.099
98352W        W63612  26.737  35.346   4.264
98353W        W63613  21.126  31.835  11.010
98354W        W63614  16.344  13.614   2.167
98355W        W63615  28.128  31.605  14.429
98356W        W63616  26.757  19.955   1.278
98357W        W63617  21.470  37.824  14.921
98358W        W63618   0.556  40.448   1.809
98359W        W63619  41.086   0.365   4.134
98360W        W63620  25.513  27.578   0.378
98361W        W63621   4.928  42.790   0.084
98362W        W63622   5.742  26.154  12.076
98363W        W63623  22.975  25.676   1.759
98364W        W63624  15.897  15.525   3.106
98365W        W63625   1.340  19.596   1.684
98366W        W63626  15.373   6.720   0.840
98367W        W63627   9.340  16.016  11.476
98368W        W63628  13.077  21.705  10.972
98369W        W63629  23.246  35.350  11.624
98370W        W63630   5.975  20.041  10.964
98371W        W63631  15.166  34.361  13.418
98372W        W63632   7.006   9.596  11.142
98373W        W63633   2.586  18.934  14.628
98374W        W63634  21.771  42.492   3.415
98375W        W63635  38.473  14.562  13.372
98376W        W63636  39.399  20.270  12.340
98377W        W63637  20.759  21.451   3.189
98378W        W63638  20.084  40.903  10.663
98379W        W63639  33.340  12.254  12.632
98380W        W63640   6.736  33.644  10.712
98381W        W63641  20.466  22.411   0.793
98382W        W63642  39.396  40.848   4.161
98383W        W63643  25.049   5.728   2.493
98384W        W63644  15.330  30.455  12.420
98385W        W63645  39.359  37.527  11.028
98386W        W63646  19.010  16.067   3.217
98387W        W63647  11.592  43.405   0.888
98388W        W63648  36.121   8.791  12.088
98389W        W63649  44.139  13.710  12.618
98390W        W63650  14.754  29.937  12.380
98391W        W63651  21.058  14.599  10.824
98392W        W63652   1.089  39.538   3.335
98393W        W63653  26.070  21.108  10.378
98394W        W63654  28.112  23.961   1.899
98395W        W63655  39.849  34.225   0.459
98396W        W63656   6.922  40.006   0.517
98397W        W63657  26.361  37.617  11.867
98398W        W63658   8.886  11.808  14.294
98399W        W63659  19.445  33.398  14.976
98400W        W63660  32.067  26.554  14.764
98401W        W63661  30.440  37.556   1.048
98402W        W63662  39.191  35.679   1.014
98403W        W63663  10.129  10.352  14.440
98404W        W63664   4.145   0.228   2.535
98405W        W63665  29.606  37.844  13.908
98406W        W63666  17.662  44.420   4.125
98407W        W63667  25.058  23.051  14.941
98408W        W63668   4.980  41.431  14.435
98409W        W63669  31.488  28.311  12.035
98410W        W63670  10.623  21.416   2.255
98411W        W63671  40.314  28.648  11.627
98412W        W63672  16.092   7.278   2.522
98413W        W63673  33.899   6.005   2.710
98414W        W63674  25.072  21.256   4.065
98415W        W63675   6.381  34.111   2.239
98416W        W63676  16.529  18.112   2.866
98417W        W63677  40.032   5.906   0.328
98418W        W63678   1.426   7.415  11.561
98419W        W63679  33.406  27.310   3.116
98420W        W63680   7.758  22.041   2.292
98421W        W63681   0.192  42.273   0.212
98422W        W63682  25.273  29.393  12.940
98423W        W63683  22.557   9.256   2.776
98424W        W63684  40.596  37.995  11.825
98425W        W63685  42.362  20.079  10.888
98426W        W63686  35.552  10.207  11.218
98427W        W63687  25.148  10.266  11.936
98428W        W63688  28.480  29.246   1.773
98429W        W63689  38.058  36.908  11.435
98430W        W63690  42.037  43.743  12.856
98431W        W63691  44.047  10.585  14.039
98432W        W63692  17.566  32.360   1.402
98433W        W63693  40.675   8.365  13.342
98434W        W63694  41.847  30.021   5.019
98435W        W63695  20.452  42.336  10.783
98436W        W63696  33.376  41.490   2.709
98437W        W63697  24.159   2.035  14.049
98438W        W63698  31.617   3.361  13.954
98439W        W63699  39.182  14.312  12.288
98440W        W63700  36.629  33.715  10.323
98441W        W63701  12.079  18.551  11.201
98442W        W63702  18.113  12.325   2.832
98443W        W63703  37.479   9.190  11.986
98444W        W63704   5.198  40.052   0.958
98445W        W63705  13.759  19.301  12.150
98446W        W63706  15.165  10.285  10.167
98447W        W63707  35.025  36.492  12.487
98448W        W63708   1.257  19.856   2.149
98449W        W63709  33.528  15.691  10.574
98450W        W63710  18.858  42.088  11.601
98451W        W63711   2.941  11.193   5.387
98452W        W63712  44.340  27.580  13.271
98453W        W63713  42.892  29.390  14.526
98454W        W63714  12.768  29.712  12.360
98455W        W63715  43.274  31.997   2.283
98456W        W63716  44.857  20.304  12.012
98457W        W63717  29.483   5.857  11.068
98458W        W63718  16.054  11.248  11.180
98459W        W63719  38.573  10.374   0.903
98460W        W63720  21.861   8.981   2.351
98461W        W63721   2.091   2.378   3.643
98462W        W63722  12.742  41.394  14.623
98463W        W63723   5.989  36.949  14.448
98464W        W63724   2.515   9.105  12.141
98465W        W63725  33.480  34.432  10.201
98466W        W63726  18.666  31.325  11.793
98467W        W63727  17.779  31.389  11.941
98468W        W63728   5.296  12.591  12.327
98469W        W63729  13.268  21.244  10.275
98470W        W63730  42.111  43.121  10.240
98471W        W63731  18.815  28.037  13.948
98472W        W63732  35.333  31.911   2.313
98473W        W63733  33.462  34.159   4.135
98474W        W63734   7.118   2.506   0.462
98475W        W63735  31.563   2.476  11.672
98476W        W63736  21.571   2.919  13.307
98477W        W63737  40.958   3.395   1.832
98478W        W63738  33.063  21.574   0.849
98479W        W63739  41.820   7.824   2.416
98480W        W63740  32.722  19.057  11.658
98481W        W63741  18.000  13.735   2.733
98482W        W63742   5.390  19.797  13.778
98483W        W63743  25.356   6.048   2.783
98484W        W63744  15.808   9.661   2.424
98485W        W63745  24.633  43.722  13.995
98486W        W63746  22.079  25.779   1.277
98487W        W63747   9.324   1.412   4.477
98488W        W63748  37.933   3.715   2.413
98489W        W63749  16.546  26.809  13.400
98490W        W63750  12.260  41.328  12.122
98491W        W63751  24.498  33.479   4.002
98492W        W63752   8.076  36.847   3.398
98493W        W63753  29.462  28.629   0.675
98494W        W63754  34.470  43.272  11.909
98495W        W63755   9.818  34.647   4.631
98496W        W63756  10.598  28.849   5.111
98497W        W63757  24.661  37.854   0.436
98498W        W63758   4.200  39.392  13.413
98499W        W63759  23.720  43.322   4.960
98500W        W63760  11.412  11.315   2.326
98501W        W63761   1.478   3.948   3.067
98502W        W63762  11.934   8.872   2.618
98503W        W63763  39.370  25.560   0.303
98504W        W63764  33.013  32.093   2.886
98505W        W63765  44.448  35.568   1.701
98506W        W63766   3.859   5.594   4.294
98507W        W63767  29.655   6.315   4.307
98508W        W63768  42.356   1.148  13.955
98509W        W63769  23.748  20.183  13.299
98510W        W63770  19.878  24.649  13.432
98511W        W63771   6.775  14.337  10.700
98512W        W63772   6.864  25.039   0.459
98513W        W63773   0.239  13.132   0.400
98514W        W63774  34.840   1.265   0.486
98515W        W63775  43.483  21.753  12.854
98516W        W63776  31.265  22.027  10.694
98517W        W63777  31.483  21.109  10.747
98518W        W63778  16.807   9.242  10.484
98519W        W63779   8.623   5.641   3.681
98520W        W63780   3.689  34.564   2.741
98521W        W63781  15.775  24.551   0.364
98522W        W63782  28.239  44.427  13.038
98523W        W63783  20.615  16.318  12.945
98524W        W63784  41.455  31.161  12.558
98525W        W63785  14.113  37.657  11.434
98526W        W63786  14.284  26.613  13.866
98527W        W63787  18.146  24.636  14.399
98528W        W63788   8.198  33.950   0.512
98529W        W63789   7.284  44.129  11.503
98530W        W63790  38.611  37.278  10.666
98531W        W63791   0.452  42.579  12.629
98532W        W63792  39.044  22.302   3.164
98533W        W63793  17.351  13.514   3.328
98534W        W63794  16.650  15.048   1.180
98535W        W63795  37.898  21.859  13.336
98536W        W63796  28.633  24.012  12.532
98537W        W63797  44.249  44.113  10.769
98538W        W63798  25.251  20.723  11.686
98539W        W63799   6.870  34.583   4.542
98540W        W63800  20.525   4.986   5.011
98541W        W63801   5.655  14.906  10.682
98542W        W63802   7.783  39.097   2.748
98543W        W63803  38.005  37.328   9.758
98544W        W63804  11.671  43.452  12.945
98545W        W63805   5.939  37.093  11.164
98546W        W63806  30.085  28.524  11.616
98547W        W63807   5.423  28.764   0.408
98548W        W63808  41.428  24.251   2.847
98549W        W63809  37.126  32.877  14.416
98550W        W63810  12.352   4.552   4.968
98551W        W63811   6.578  25.346   2.196
98552W        W63812  39.507  22.516   2.220
98553W        W63813  28.058   5.214  14.726
98554W        W63814  21.692  13.452  14.629
98555W        W63815  11.125  11.941  12.990
98556W        W63816  35.187   4.301   3.685
98557W        W63817  15.332  38.553   3.344
98558W        W63818  13.118  17.593  10.486
98559W        W63819  32.481   0.879   1.786
98560W        W63820  43.239  19.843  13.072
98561W        W63821  27.228  34.814   0.865
98562W        W63822   6.312  26.507  12.403
98563W        W63823  31.701   8.266   4.212
98564W        W63824  38.428  13.905  13.962
98565W        W63825  29.756   6.034   2.429
98566W        W63826  37.792  24.238   1.812
98567W        W63827  10.442  30.402  11.446
98568W        W63828  37.474  40.506  11.717
98569W        W63829   4.417  43.968  11.725
98570W        W63830  27.634  35.093  11.223
98571W        W63831   6.868  20.626   3.825
98572W        W63832  22.520  21.731  13.247
98573W        W63833   0.745  37.540  10.097
98574W        W63834  38.955  11.254   2.891
98575W        W63835  22.684  44.420  14.436
98576W        W63836  12.891  38.001  14.424
98577W        W63837  28.465  34.313  11.049
98578W        W63838   9.175  25.435   1.330
98579W        W63839  40.895   0.074  12.932
98580W        W63840  31.616   4.691  14.983
98581W        W63841  38.480  36.620  11.526
98582W        W63842  40.620  22.011  12.043
98583W        W63843  23.288  40.118   4.169
98584W        W63844  30.181  36.948  12.035
98585W        W63845  28.899  20.474  11.409
98586W        W63846  39.925   4.638  12.984
98587W        W63847  18.872   5.910  14.937
98588W        W63848  25.491  25.140  14.609
98589W        W63849   1.609  24.155  13.946
98590W        W63850  28.155   6.736   3.204
98591W        W63851  18.111  23.310  14.864
98592W        W63852  32.615  30.579   4.356
98593W        W63853   3.106  26.705   2.160
98594W        W63854   1.894  10.232   1.917
98595W        W63855  20.413   7.494   2.043
98596W        W63856   8.706  12.542  10.311
98597W        W63857  18.142  42.892   0.429
98598W        W63858  37.333  29.680  14.073
98599W        W63859  12.614  36.641  12.450
98600W        W63860   9.818  25.208   2.645
98601W        W63861  11.710  31.423   2.707
98602W        W63862   9.129  14.676   0.425
98603W        W63863  15.195  44.096   3.911
98604W        W63864  13.770   4.349   0.234
98605W        W63865  28.047  25.483   1.710
98606W        W63866  22.041   0.050  12.099
98607W        W63867  35.407  35.441  14.943
98608W        W63868  34.888  38.273  14.135
98609W        W63869   8.868   6.641  14.431
98610W        W63870  34.909  41.444  10.306
98611W        W63871   0.972  29.605   2.865
98612W        W63872  28.227  20.640  14.321
98613W        W63873  20.743  28.944   0.573
98614W        W63874  13.437  39.469  11.526
98615W        W63875   8.724   4.911  11.558
98616W        W63876  25.018   3.516  12.467
98617W        W63877  26.393  44.434  11.025
98618W        W63878   8.154  34.165   3.325
98619W        W63879   2.285  38.988  14.775
98620W        W63880  44.618  34.819  11.452
98621W        W63881  35.813   1.326   3.178
98622W        W63882   2.327  25.195  12.916
98623W        W63883  33.200   6.244   3.409
98624W        W63884  20.344  10.310  13.449
98625W        W63885  20.524  28.990   2.759
98626W        W63886  28.232   7.364   1.132
98627W        W63887  37.879   8.770   0.645
98628W        W63888  36.147  30.141   2.758
98629W        W63889  11.713  43.089   1.284
98630W        W63890  17.340   7.693   1.288
98631W        W63891  43.392  32.793  14.429
98632W        W63892   6.188  32.364  11.582
98633W        W63893  34.894  15.797   0.892
98634W        W63894   8.115  30.732  14.179
98635W        W63895  15.082  14.571   0.257
98636W        W63896  25.699  41.220  12.060
98637W        W63897   6.934  17.065   1.310
98638W        W63898  41.767  38.170  12.981
98639W        W63899  14.638   2.822  10.331
98640W        W63900  29.840   3.702  12.620
98641W        W63901  39.103  28.120   0.943
98642W        W63902  26.229   7.803  10.870
98643W        W63903   0.975   8.348   2.446
98644W        W63904   4.838  14.823  12.040
98645W        W63905  13.043  34.184   0.741
98646W        W63906  41.988   4.856  10.655
98647W        W63907  33.681   9.343  13.682
98648W        W63908  26.488  39.711  12.187
98649W        W63909  39.996  10.226   2.274
98650W        W63910  20.151  20.129   0.854
98651W        W63911  44.342  20.317  12.045
98652W        W63912  26.943  26.179  12.550
98653W        W63913  21.073  15.284   0.893
98654W        W63914  38.821  35.136  13.554
98655W        W63915  27.525  35.641  11.087
98656W        W63916  43.856  41.877  11.158
98657W        W63917   4.689  23.105  12.373
98658W        W63918   3.421  11.696   1.668
98659W        W63919  16.859  12.138   3.695
98660W        W63920  36.890   8.824   3.819
98661W        W63921   4.988  31.507   1.031
98662W        W63922  23.187  33.984  12.858
98663W        W63923  33.589  32.929  13.952
98664W        W63924  28.298  25.423   2.615
98665W        W63925  15.835  10.417  10.709
98666W        W63926   8.741  37.296   2.305
98667W        W63927  19.186  33.298   2.857
98668W        W63928  31.446  10.202   0.025
98669W        W63929   1.501  34.355   2.875
98670W        W63930  18.803  18.373   3.198
98671W        W63931  26.050   4.799  13.814
98672W        W63932  28.112  43.510   4.614
98673W        W63933  11.227  35.011  11.622
98674W        W63934  20.049  16.843   4.484
98675W        W63935   6.895   5.443   2.864
98676W        W63936  21.531  22.025  11.471
98677W        W63937  17.818  26.458  10.402
98678W        W63938  44.444  19.405  11.668
98679W        W63939  17.476  36.363   4.240
98680W        W63940  39.601  40.342  11.157
98681W        W63941   8.353  23.437  10.256
98682W        W63942  40.289  44.100  12.557
98683W        W63943  25.088  39.456  11.425
98684W        W63944   6.300  21.965  12.632
98685W        W63945  28.162  22.560   0.368
98686W        W63946   1.552  35.627   3.919
98687W        W63947  17.569  44.494   1.354
98688W        W63948   9.849   6.271   0.819
98689W        W63949  31.929  16.580   4.550
98690W        W63950  36.335   5.271  14.461
98691W        W63951  39.119  40.808  10.587
98692W        W63952  31.582  39.399  12.388
98693W        W63953  15.754   9.782  13.972
98694W        W63954  12.835   8.347   1.610
98695W        W63955  26.506  40.552   3.982
98696W        W63956  38.000  24.067  11.173
98697W        W63957   9.769  19.023   4.875
98698W        W63958  13.246  40.330   0.646
98699W        W63959   7.946  43.044  10.910
98700W        W63960  24.354  32.687   3.607
98701W        W63961  24.180  21.752   4.172
98702W        W63962   7.740  34.219  11.810
98703W        W63963   6.725  43.250   3.248
98704W        W63964  10.877  39.407   4.136
98705W        W63965  24.067  29.861   3.577
98706W        W63966  25.098  40.508  13.036
98707W        W63967  44.518   9.199   2.137
98708W        W63968  20.186  36.064  14.921
98709W        W63969  24.105  27.747  14.762
98710W        W63970  22.081  31.099  11.646
98711W        W63971  39.245  43.270  10.660
98712W        W63972  29.951  29.078   0.375
98713W        W63973   5.851  28.079   3.165
98714W        W63974  10.367  12.158  14.306
98715W        W63975  29.498  37.284   1.827
98716W        W63976   7.702  17.814   3.391
98717W        W63977  10.708  21.960  11.150
98718W        W63978  10.869  41.593   5.104
98719W        W63979  11.269  14.378   4.476
98720W        W63980  44.910   5.728   3.633
98721W        W63981  14.697  27.413  12.022
98722W        W63982  35.926  29.705  12.053
98723W        W63983  11.097  36.657  10.766
98724W        W63984  19.773  43.548   3.760
98725W        W63985  35.329   7.598  13.993
98726W        W63986  31.659  23.283   3.155
98727W        W63987  36.039  38.962   3.104
98728W        W63988  30.462  39.033  14.880
98729W        W63989  21.281  38.387   2.651
98730W        W63990   0.410  37.444  13.338
98731W        W63991   1.322   0.996   4.497
98732W        W63992   1.797  10.335  10.583
98733W        W63993  14.572   7.103   0.445
98734W        W63994   9.865   4.048   3.399
98735W        W63995  41.444  24.243   0.957
98736W        W63996  11.021  16.656  12.439
98737W        W63997  33.333  33.046  10.600
98738W        W63998  27.421  36.835   2.792
98739W        W63999  26.370  31.603   0.760
98740W        W64000  25.733   5.707  11.123
98741W        W64001  10.955  21.136   3.998
98742W        W64002  35.606   8.775   2.218
98743W        W64003  10.709  30.475  13.941
98744W        W64004  20.508  32.623  11.025
98745W        W64005  18.362  22.833  12.541
98746W        W64006  27.023  26.688   3.678
98747W        W64007  34.326  35.262   1.469
98748W        W64008  11.661   1.052  10.400
98749W        W64009  32.619  44.939   2.828
98750W        W64010  16.565  15.715  12.344
98751W        W64011  24.611   3.005   1.273
98752W        W64012   9.996  17.419  13.102
98753W        W64013  35.779  16.175  10.680
98754W        W64014   8.828  35.904   4.909
98755W        W64015  29.210  26.046   0.958
98756W        W64016   5.226  21.041   4.168
98757W        W64017  16.310  16.732   4.767
98758W        W64018  37.530   6.796   3.778
98759W        W64019  21.305   8.101  14.891
98760W        W64020  19.803   3.102  10.631
98761W        W64021  10.656  30.976  13.904
98762W        W64022  11.144  44.742   2.830
98763W        W64023  17.306  34.564   3.803
98764W        W64024  22.615  23.732   4.058
98765W        W64025  35.646  17.619  13.523
98766W        W64026  19.447  34.321   1.468
98767W        W64027   0.707  30.231   3.952
98768W        W64028  24.486  11.985   3.753
98769W        W64029  27.284  28.439  10.565
98770W        W64030  32.818  20.021  12.050
98771W        W64031   4.742   0.872   2.331
98772W        W64032  18.739  37.042   1.571
98773W        W64033   8.206  43.763   4.204
98774W        W64034  22.176  25.304   4.406
98775W        W64035  15.410  23.102  13.443
98776W        W64036  11.325   0.782   1.701
98777W        W64037  44.337  22.437  10.127
98778W        W64038  10.747   0.176  14.228
98779W        W64039  10.590  17.827  11.044
98780W        W64040  22.583  27.190  12.468
98781W        W64041  44.176  25.443   2.221
98782W        W64042  38.822  12.741   4.471
98783W        W64043  42.276   0.035  11.395
98784W        W64044  28.267  19.896  13.863
98785W        W64045  27.181  31.323  10.625
98786W        W64046  27.130   1.811   0.210
98787W        W64047  39.439   9.935   4.560
98788W        W64048  21.032   6.369  11.042
98789W        W64049  24.732  18.186   1.264
98790W        W64050   2.029  36.235   2.307
98791W        W64051  16.629   6.277  10.686
98792W        W64052  11.409  12.178  14.290
98793W        W64053  34.494  27.954  11.970
98794W        W64054  44.634  23.007   5.101
98795W        W64055  38.507  39.009  13.611
98796W        W64056   0.845  25.118  13.129
98797W        W64057  37.346  18.860  11.072
98798W        W64058  26.684  28.407   2.864
98799W        W64059  21.001  37.787  11.064
98800W        W64060  20.648  27.965   5.004
98801W        W64061  23.700  40.443   0.902
98802W        W64062  12.708  23.346   1.971
98803W        W64063  28.052  12.513   2.828
98804W        W64064  16.746   6.672   4.974
98805W        W64065  24.687  14.744  11.659
98806W        W64066  37.934  16.595   4.535
98807W        W64067  27.808  40.635   1.380
98808W        W64068  13.761  11.201  14.045
98809W        W64069  27.570   8.276   2.301
98810W        W64070   6.472  24.113   0.385
98811W        W64071  16.836   0.191  14.428
98812W        W64072  11.698  18.110   4.514
98813W        W64073  10.910  40.136  13.478
98814W        W64074  26.265   5.407   1.001
98815W        W64075  26.294   9.856   4.091
98816W        W64076  22.130  30.953   1.179
98817W        W64077  38.646  16.446   1.145
98818W        W64078  10.891  30.919  10.009
98819W        W64079  30.357  19.768   3.331
98820W        W64080   1.190   7.243   3.212
98821W        W64081   7.337   6.869   4.257
98822W        W64082  35.679   4.144   3.691
98823W        W64083  37.458  18.058  10.621
98824W        W64084  31.524  19.216   3.285
98825W        W64085  14.608  27.629   0.796
98826W        W64086   1.716  15.676  14.364
98827W        W64087  43.564  35.506   0.388
98828W        W64088  16.585  12.723   1.725
98829W        W64089  17.048  20.301  14.862
98830W        W64090   4.385   7.698  13.443
98831W        W64091  12.091  30.562   3.653
98832W        W64092  16.809  22.697   1.375
98833W        W64093  10.961  36.790   3.152
98834W        W64094  16.768  36.033  12.819
98835W        W64095  37.303  21.710   3.880
98836W        W64096  28.690  24.127   4.273
98837W        W64097  29.844   3.434  14.889
98838W        W64098  32.598  35.986  13.137
98839W        W64099  24.095   6.478   3.233
98840W        W64100   6.663  44.290  10.751
98841W        W64101  41.264  39.540   3.163
98842W        W64102  19.483  36.552  12.033
98843W        W64103  35.396  42.499   0.485
98844W        W64104  42.461  20.422   3.082
98845W        W64105   9.796  44.601   1.250
98846W        W64106  10.903  11.027  12.684
98847W        W64107  17.827  16.965  14.296
98848W        W64108  31.432  40.178   4.394
98849W        W64109  13.252  19.730  10.496
98850W        W64110   9.628   8.158   4.620
98851W        W64111  19.066  28.931  14.779
98852W        W64112   6.586   5.067  13.757
98853W        W64113   6.244  19.539  12.974
98854W        W64114  14.578  20.781   0.957
98855W        W64115   0.520  43.576  10.826
98856W        W64116  11.109  16.177  12.189
98857W        W64117  36.906   8.253  13.979
98858W        W64118  36.073  11.587   1.271
98859W        W64119   6.398  39.444  13.369
98860W        W64120  23.492  14.804   2.105
98861W        W64121  19.558  26.513  13.987
98862W        W64122  32.102  44.830  10.653
98863W        W64123   8.340   7.669  11.208
98864W        W64124   6.146  35.743  11.113
98865W        W64125  34.822  35.773  11.330
98866W        W64126   9.337  36.847  12.589
98867W        W64127  27.100  24.016  14.345
98868W        W64128  34.062  24.101  13.508
98869W        W64129  42.413  10.056  11.980
98870W        W64130  25.075  11.566   3.657
98871W        W64131   0.748  20.549   3.989
98872W        W64132  44.011  32.793  12.951
98873W        W64133   5.443   2.571  13.876
98874W        W64134  42.298   1.470  13.579
98875W        W64135   0.027  25.232  13.385
98876W        W64136  41.558  32.113  14.860
98877W        W64137  10.894   0.407   2.519
98878W        W64138  32.440  26.283  12.539
98879W        W64139  30.671  37.324   2.847
98880W        W64140   5.915  40.139   3.111
98881W        W64141  37.271  28.221  11.928
98882W        W64142  43.032   1.245  12.353
98883W        W64143  23.603  27.876   2.718
98884W        W64144  17.709  38.617   4.211
98885W        W64145  28.523  23.474   4.478
98886W        W64146  16.926  16.926   3.308
98887W        W64147  30.444  24.099   4.117
98888W        W64148  23.390   1.047   3.213
98889W        W64149  24.517   9.943   0.883
98890W        W64150  42.526  27.627   2.340
98891W        W64151  42.165  33.890   4.349
98892W        W64152  18.838  27.168   4.845
98893W        W64153  30.295  32.099   4.235
98894W        W64154   5.766  17.485   1.862
98895W        W64155  32.899   8.285   0.971
98896W        W64156  12.906  28.419   3.640
98897W        W64157  42.643   4.984  13.490
98898W        W64158  22.631  14.126  13.150
98899W        W64159  21.122  11.661   2.727
98900W        W64160  44.293  40.368  14.802
98901W        W64161   6.899  36.920   1.835
98902W        W64162  37.601  25.731  10.982
98903W        W64163  20.727   6.697   4.338
98904W        W64164  40.817  24.187  10.682
98905W        W64165  38.646   0.025  12.982
98906W        W64166  23.423  34.183  10.197
98907W        W64167   2.074  26.465   0.685
98908W        W64168   3.144  38.843  12.914
98909W        W64169  28.007  36.309  14.088
98910W        W64170  25.672   0.707   1.720
98911W        W64171  41.291  34.930   2.252
98912W        W64172   3.805  43.891  12.924
98913W        W64173  24.686  24.133  14.724
98914W        W64174   1.084  32.271  13.973
98915W        W64175  35.698  43.441  11.073
98916W        W64176  39.853  22.004   0.971
98917W        W64177  40.429  43.805  13.859
98918W        W64178   8.268   2.181  12.379
98919W        W64179  10.112  19.595   0.329
98920W        W64180  41.845  29.455  12.100
98921W        W64181  22.549  31.380   3.823
98922W        W64182  29.230  18.314   3.679
98923W        W64183   3.636  24.974  14.789
98924W        W64184  27.551   9.346  11.138
98925W        W64185  27.114  43.093  11.112
98926W        W64186  36.846  15.677   0.809
98927W        W64187  15.734  29.150  14.001
98928W        W64188   2.561  36.858   0.790
98929W        W64189  40.521  32.146  11.565
98930W        W64190  19.362   8.849  11.191
98931W        W64191  40.584  32.449   2.683
98932W        W64192   6.127  13.551  12.600
98933W        W64193  30.390   1.760   2.990
98934W        W64194  23.676  38.718   3.585
98935W        W64195  35.577  19.248  14.768
98936W        W64196  33.132  28.544  14.809
98937W        W64197   3.228  32.423   1.826
98938W        W64198  41.923  40.785  12.358
98939W        W64199  16.030  16.541  14.034
98940W        W64200   2.871  20.994  14.796
98941W        W64201  34.602   6.760   2.321
98942W        W64202  30.582  11.592   4.203
98943W        W64203  17.108  12.917  13.527
98944W        W64204  26.093  32.021   1.552
98945W        W64205  32.328  15.692   0.806
98946W        W64206  36.107  20.062   2.724
98947W        W64207  28.660  28.915  14.034
98948W        W64208  43.121  26.562   3.132
98949W        W64209   3.797   2.583   3.408
98950W        W64210  44.390  39.528   1.269
98951W        W64211  35.799  35.629   0.233
98952W        W64212  28.886   7.570   3.596
98953W        W64213  23.105  13.194   2.681
98954W        W64214   9.894  20.172  11.636
98955W        W64215  11.748  11.810  12.204
98956W        W64216   4.898  35.384  14.488
98957W        W64217   8.337  10.677  11.490
98958W        W64218  15.105   6.271   4.988
98959W        W64219  18.506  20.363  12.006
98960W        W64220  27.521  15.241   4.332
98961W        W64221  14.118  22.987   3.414
98962W        W64222  44.430   3.095   0.834
98963W        W64223   6.413  12.170  10.594
98964W        W64224   4.885  28.323  14.199
98965W        W64225  26.485   2.337  12.444
98966W        W64226  31.592  20.252   0.462
98967W        W64227  27.515  29.532  11.475
98968W        W64228  40.092  31.460  13.040
98969W        W64229   7.047  26.608   5.592
98970W        W64230   9.894  29.598  12.539
98971W        W64231  23.082   0.258   0.272
98972W        W64232  34.039  19.650   4.587
98973W        W64233  40.485  17.109  14.467
98974W        W64234  15.285  34.075  11.298
98975W        W64235  35.610   6.148   1.514
98976W        W64236  21.483  13.863  14.396
98977W        W64237  25.064  14.360   3.432
98978W        W64238  30.111  40.414   2.207
98979W        W64239  33.760  25.064  13.942
98980W        W64240  12.699  28.247   4.111
98981W        W64241  26.512  26.637  14.798
98982W        W64242  44.920  26.612   2.755
98983W        W64243  16.861  42.475   1.915
98984W        W64244  36.410  29.097  12.901
98985W        W64245   4.467  22.651   3.410
98986W        W64246   6.798  41.451   1.509
98987W        W64247  31.222   1.468  14.834
98988W        W64248   0.813   4.679   3.605
98989W        W64249  42.999   9.813   4.148
98990W        W64250  29.619  40.439  12.263
98991W        W64251  41.670  24.075  11.064
98992W        W64252  34.535  42.094   0.557
98993W        W64253  20.214   3.228  13.451
98994W        W64254  34.520   4.806   0.186
98995W        W64255  28.007  43.865   1.893
98996W        W64256   0.392   1.678   4.129
98997W        W64257  16.001  22.278   1.694
98998W        W64258   1.771  30.023   2.719
98999W        W64259  15.112  36.119  13.970
99000W        W64260  38.389  14.713   0.028
99001W        W64261  17.237  31.070  14.438
99002W        W64262  27.433  38.351  12.500
99003W        W64263  31.828   7.243   1.227
99004W        W64264  28.227  17.761   5.757
99005W        W64265  13.777  20.213   4.318
99006W        W64266  38.558  34.452  11.672
99007W        W64267  16.675  12.115  12.465
99008W        W64268  35.033  26.402   5.479
99009W        W64269  44.922   3.885   2.757
99010W        W64270  27.525  39.004  12.976
99011W        W64271  29.902  37.156  12.430
99012W        W64272  32.147   9.958   3.623
99013W        W64273  29.685  20.974  14.135
99014W        W64274  36.106   2.099  14.813
99015W        W64275  36.769  21.565  14.947
99016W        W64276  38.877   4.284  14.040
99017W        W64277  25.733  39.371  10.664
99018W        W64278  28.796   4.233  10.565
99019W        W64279  42.902   5.944   0.027
99020W        W64280  16.114  36.902  11.947
99021W        W64281  19.319   4.713   0.859
99022W        W64282  32.737   6.386   1.451
99023W        W64283  37.354   0.881   0.382
99024W        W64284  22.673   1.362  12.032
99025W        W64285   8.495  25.594   3.631
99026W        W64286  19.775  29.532   2.783
99027W        W64287  23.593   8.180   0.907
99028W        W64288  16.608   5.712  12.508
99029W        W64289  29.573   2.991   0.656
99030W        W64290  31.649  33.680   3.276
99031W        W64291  20.309   0.605   1.759
99032W        W64292   5.618   3.512   0.250
99033W        W64293  15.826  19.298   4.626
99034W        W64294  19.307  38.858   4.012
99035W        W64295  23.758  29.439  13.866
99036W        W64296  23.003  26.377  10.077
99037W        W64297  35.429  33.644   2.782
99038W        W64298  14.367  11.039   4.046
99039W        W64299  29.180  20.228   1.067
99040W        W64300  21.278  17.002   2.765
99041W        W64301  32.370  43.881   2.944
99042W        W64302  32.191   2.190  12.010
99043W        W64303  12.738   3.023  13.014
99044W        W64304  17.874  32.690  11.345
99045W        W64305  43.884  26.856   3.517
99046W        W64306   9.679  28.108  12.126
99047W        W64307  26.363  16.675   3.823
99048W        W64308  29.890  23.298  11.489
99049W        W64309   4.898  26.505   0.256
99050W        W64310  40.514  41.534   2.259
99051W        W64311  25.472   8.672   0.012
99052W        W64312   0.866   8.146  14.493
99053W        W64313  18.721  17.331  14.972
99054W        W64314  30.469  27.416  13.335
99055W        W64315  31.931  44.897  11.135
99056W        W64316  12.596  23.864   2.143
99057W        W64317  41.985  17.302  14.221
99058W        W64318  22.887  30.647   2.222
99059W        W64319  37.956  34.411   3.432
99060W        W64320  44.730   8.468  14.915
99061W        W64321  35.377   4.174  11.910
99062W        W64322  10.695  20.994   0.286
99063W        W64323  18.179   1.420  14.028
99064W        W64324  38.068  40.919  14.005
99065W        W64325  24.461  19.311   1.888
99066W        W64326  40.738   9.371  12.617
99067W        W64327  16.112  12.560   1.478
99068W        W64328  33.006  14.225  13.570
99069W        W64329  44.555  33.666   2.843
99070W        W64330  14.299  23.623  10.790
99071W        W64331  25.211  27.990   0.454
99072W        W64332  36.319  39.013  10.825
99073W        W64333  16.247  43.001   0.497
99074W        W64334  31.685  13.716  10.693
99075W        W64335  10.897  33.125   4.623
99076W        W64336  29.021   2.991   2.282
99077W        W64337   2.704  20.251   1.451
99078W        W64338  40.365   6.213  13.365
99079W        W64339  20.139  17.026  12.481
99080W        W64340  14.283   6.629  14.420
99081W        W64341  36.069   4.014   0.764
99082W        W64342  41.250  15.188  14.853
99083W        W64343  24.798  21.193  12.481
99084W        W64344  20.797  10.228  10.839
99085W        W64345  36.699  28.069   3.795
99086W        W64346   1.224   0.850   1.285
99087W        W64347  37.963  42.969  10.764
99088W        W64348  24.302  37.262   1.941
99089W        W64349   3.301  26.671  12.462
99090W        W64350   8.358   2.631  12.585
99091W        W64351  30.590  43.390   4.931
99092W        W64352  20.867  34.940  14.293
99093W        W64353  25.506  27.315   4.833
99094W        W64354   9.542  12.288  12.487
99095W        W64355  36.456  30.179  11.361
99096W        W64356  24.873  15.771   1.515
99097W        W64357   4.940  15.659   1.557
99098W        W64358  32.142  21.967  10.719
99099W        W64359  21.265   0.309  10.560
99100W        W64360  42.089  44.496   3.641
99101W        W64361   1.430  43.045   2.282
99102W        W64362  37.570  10.285  12.132
99103W        W64363  37.925  22.754  12.445
99104W        W64364  32.973  34.217   3.528
99105W        W64365  11.074  32.980   3.298
99106W        W64366  24.647  22.535   2.356
99107W        W64367   5.980  31.017  12.336
99108W        W64368  34.534  27.357   0.314
99109W        W64369  28.218  25.284   4.910
99110W        W64370  36.035  35.123  14.454
99111W        W64371  11.035  37.338  12.081
99112W        W64372  11.856  19.154   2.883
99113W        W64373   6.311  28.961   1.886
99114W        W64374  24.532  44.512  11.144
99115W        W64375  40.909  34.620  14.078
99116W        W64376  18.709  14.583  12.699
99117W        W64377  34.784  41.297  11.195
99118W        W64378  27.356  35.414   9.968
99119W        W64379  34.142  14.429  14.755
99120W        W64380   5.439  12.072   3.923
99121W        W64381   5.463  34.104   1.225
99122W        W64382  22.184  18.308   3.727
99123W        W64383  38.654  44.401   2.314
99124W        W64384  33.443  32.379  14.231
99125W        W64385  34.395  10.872   2.367
99126W        W64386  41.853  26.745   1.223
99127W        W64387  14.545  33.099  10.649
99128W        W64388  21.737   1.668  11.445
99129W        W64389  37.499   2.742  13.496
99130W        W64390  38.131  33.375  13.006
99131W        W64391  34.680  33.447  12.379
99132W        W64392   1.695  18.294  12.062
99133W        W64393  16.768  42.408   0.707
99134W        W64394  38.022  18.092   4.294
99135W        W64395  29.792  43.718  13.442
99136W        W64396  41.847  41.709   2.945
99137W        W64397  38.394   7.726   2.902
99138W        W64398   3.349  44.207   4.129
99139W        W64399   5.946  42.343   0.226
99140W        W64400  16.649  25.362  14.527
99141W        W64401  32.865  37.109   2.077
99142W        W64402  22.730   2.779  13.379
99143W        W64403  36.917   2.865  10.222
99144W        W64404  38.734  12.145   1.462
99145W        W64405  42.255   4.925   0.908
99146W        W64406  43.042  11.853  12.955
99147W        W64407  28.794  33.836  11.925
99148W        W64408  32.432  12.110   2.918
99149W        W64409  34.680  16.355   3.295
99150W        W64410  19.673  14.820  14.248
99151W        W64411   8.647  37.413   3.257
99152W        W64412  43.537  43.983  11.605
99153W        W64413  12.241  20.281   3.219
99154W        W64414  12.734  14.581   2.907
99155W        W64415  44.904  18.160   3.267
99156W        W64416   4.936  32.890  12.848
99157W        W64417  36.111  20.175   4.128
99158W        W64418  42.951  16.550  12.774
99159W        W64419   1.465  20.928   3.043
99160W        W64420  34.873  12.977   0.284
99161W        W64421  37.783  15.115  11.554
99162W        W64422  24.189  36.391  10.812
99163W        W64423  11.359  13.865  10.654
99164W        W64424  43.987  15.189  11.143
99165W        W64425  16.265  38.931  11.662
99166W        W64426  32.883  25.105  14.523
99167W        W64427  21.200   2.346  13.899
99168W        W64428  29.919  20.054   2.595
99169W        W64429  14.538  23.774   3.301
99170W        W64430  40.770  15.079   1.384
99171W        W64431  15.640   0.791   4.132
99172W        W64432  29.421   2.013   1.978
99173W        W64433  30.485  32.386   0.447
99174W        W64434  16.411  27.315  13.439
99175W        W64435  39.253  41.133   0.355
99176W        W64436  27.631  35.230  10.733
99177W        W64437  19.102  32.988   3.598
99178W        W64438  22.716   6.841   3.123
99179W        W64439   6.894  43.207   1.781
99180W        W64440  30.818   3.410  14.889
99181W        W64441  29.719  32.414  12.079
99182W        W64442  25.028  12.681  12.195
99183W        W64443  18.505  33.019   4.721
99184W        W64444   2.915  36.114  10.426
99185W        W64445  43.059  17.165  10.377
99186W        W64446  43.925   9.717  10.848
99187W        W64447   4.713  24.060   2.042
99188W        W64448  14.534  21.470   2.882
99189W        W64449   9.051  20.619  13.480
99190W        W64450  26.093  31.678   2.959
99191W        W64451  27.527  27.426  14.495
99192W        W64452  29.151  31.253  12.882
99193W        W64453  39.830  30.039  11.709
99194W        W64454  31.931  33.780  11.848
99195W        W64455  30.454  19.447  13.970
99196W        W64456  35.680   8.324  10.985
99197W        W64457  28.716   8.668  14.045
99198W        W64458  17.217  16.596  13.375
99199W        W64459  23.011  20.005   4.443
99200W        W64460  38.747  44.779  14.771
99201W        W64461  18.275  28.116  12.484
99202W        W64462  21.354  17.758  13.022
99203W        W64463  23.342  28.183  11.611
99204W        W64464  23.568  20.583  14.751
99205W        W64465  17.236   1.120  14.570
99206W        W64466  41.548  14.576  11.567
99207W        W64467  41.199  41.772  11.991
99208W        W64468  14.719  38.745   0.124
99209W        W64469  32.495  29.241  14.003
99210W        W64470  41.880  22.491   0.908
99211W        W64471  20.168  39.525  14.295
99212W        W64472   1.351  30.272   3.146
99213W        W64473  32.926  16.651  12.107
99214W        W64474  33.664  24.279   0.857
99215W        W64475  32.031  41.238   3.686
99216W        W64476  18.911   8.887   3.046
99217W        W64477  34.497  24.154   4.753
99218W        W64478  42.709  42.860   1.186
99219W        W64479  11.910  37.379  11.640
99220W        W64480   2.527  22.686   0.947
99221W        W64481   7.211  30.129   4.824
99222W        W64482  37.597  11.124  10.248
99223W        W64483   6.341  41.811   2.325
99224W        W64484   2.959   5.987   0.985
99225W        W64485  10.127  43.886  14.871
99226W        W64486  32.897  28.919   3.760
99227W        W64487  31.511  22.519   1.770
99228W        W64488  29.479  32.149  10.487
99229W        W64489  11.015  43.931   3.150
99230W        W64490  28.652  28.436   4.961
99231W        W64491   0.924  36.820   0.290
99232W        W64492  31.857  24.069   0.925
99233W        W64493  31.081  12.141   1.239
99234W        W64494  17.800  23.163   0.700
99235W        W64495  41.795  25.123   1.400
99236W        W64496  27.712   1.937   3.697
99237W        W64497  14.585   4.186   0.057
99238W        W64498  38.102   8.145  11.168
99239W        W64499   9.094  32.484  14.388
99240W        W64500  17.481  35.370  14.149
99241W        W64501  35.506  24.571   2.383
99242W        W64502  40.248  35.787  10.253
99243W        W64503  10.561  27.713   1.822
99244W        W64504  34.282  43.717   1.663
99245W        W64505  17.781   2.732  11.645
99246W        W64506  17.286  24.796   0.959
99247W        W64507  17.615  16.755   4.080
99248W        W64508  38.915  29.315  14.775
99249W        W64509  22.495  11.515   0.028
99250W        W64510  29.679  20.361   2.256
99251W        W64511   2.853   5.471   0.965
99252W        W64512  15.660  26.975  11.911
99253W        W64513  35.557   4.698  14.887
99254W        W64514  13.642  23.185  14.170
99255W        W64515  28.459  32.620  13.334
99256W        W64516  32.462  33.137  14.857
99257W        W64517  14.338  13.858  14.580
99258W        W64518  35.133  36.614   2.269
99259W        W64519  27.728  35.012  12.075
99260W        W64520  22.460  33.253   2.833
99261W        W64521  29.910  22.124  14.342
99262W        W64522  16.972  36.460   4.265
99263W        W64523  13.688  32.380  14.226
99264W        W64524  23.148  32.915  11.027
99265W        W64525  22.861   6.238  12.154
99266W        W64526  20.874   8.160  12.769
99267W        W64527  33.155  42.874  10.627
99268W        W64528  15.709  17.070  10.567
99269W        W64529   9.255  42.004   4.601
99270W        W64530  29.210  24.705   0.750
99271W        W64531   1.148  22.919  12.070
99272W        W64532  31.394  40.832   3.213
99273W        W64533   4.333   9.308  12.401
99274W        W64534  35.728  27.277   5.573
99275W        W64535  22.865  40.860   3.336
99276W        W64536  11.110  29.375   4.986
99277W        W64537  25.846   5.478   3.705
99278W        W64538   9.751   7.429   0.313
99279W        W64539  28.929  42.537   3.671
99280W        W64540  40.566   9.896   3.249
99281W        W64541  27.087   1.383  11.380
99282W        W64542   6.232   2.020  10.116
99283W        W64543  29.142   9.785  14.030
99284W        W64544   3.362  29.734   1.819
99285W        W64545  43.995  19.789  14.834
99286W        W64546  39.743  40.990  13.095
99287W        W64547  44.869  29.973  10.682
99288W        W64548   2.067  42.519  11.706
99289W        W64549  19.300  36.645   3.201
99290W        W64550   9.891  29.362   1.856
99291W        W64551  29.180  21.097  13.387
99292W        W64552   3.277  43.496   0.400
99293W        W64553  23.561  41.366   2.841
99294W        W64554   6.942  28.026  13.996
99295W        W64555   1.793  37.943  11.158
99296W        W64556  39.653  36.248  11.002
99297W        W64557  20.560  23.083   1.903
99298W        W64558  37.074   0.720  11.275
99299W        W64559  17.525  24.202   2.371
99300W        W64560   9.712  21.301  14.717
99301W        W64561   8.856  21.517  12.852
99302W        W64562  32.338  19.803  12.078
99303W        W64563   2.706  30.377   4.998
99304W        W64564  15.085   3.742  12.078
99305W        W64565  21.258  31.054  13.898
99306W        W64566  16.818   5.387  10.681
99307W        W64567  26.729  11.070  13.429
99308W        W64568   0.959   3.672  13.008
99309W        W64569  29.101   5.423   4.210
99310W        W64570  44.971  43.289  14.293
99311W        W64571  14.420   5.737  10.808
99312W        W64572  42.761  31.636   3.695
99313W        W64573   9.723  26.685   2.332
99314W        W64574  23.187  43.080  14.950
99315W        W64575  43.816  13.654  14.416
99316W        W64576   5.206   1.993  12.499
99317W        W64577  25.139  38.281   3.793
99318W        W64578  24.419   7.413   1.259
99319W        W64579  36.616  44.008   5.269
99320W        W64580  26.544  23.973   3.067
99321W        W64581  42.849  21.497   4.353
99322W        W64582  30.425  42.509  14.916
99323W        W64583  10.637  44.717   4.589
99324W        W64584  41.447   6.173  13.445
99325W        W64585  44.467  26.638  12.927
99326W        W64586   9.604  12.387   3.056
99327W        W64587  10.613  15.676   3.237
99328W        W64588  44.199  32.304  12.081
99329W        W64589  17.292   4.388   4.515
99330W        W64590  19.797  35.762  10.248
99331W        W64591  30.201  10.776   2.621
99332W        W64592  14.303   3.350  13.374
99333W        W64593   6.653  10.323  11.597
99334W        W64594  10.533  36.290  13.940
99335W        W64595  24.766  30.696  10.685
99336W        W64596  13.680   3.019   3.606
99337W        W64597  39.389  22.734  14.832
99338W        W64598  25.429  10.875   3.997
99339W        W64599   1.486   9.544   4.398
99340W        W64600  39.490  13.051   4.059
99341W        W64601  44.285  18.431   1.605
99342W        W64602  23.441   7.687  10.703
99343W        W64603  10.689  15.751   4.088
99344W        W64604   9.844  42.562   0.288
99345W        W64605   8.948   5.667   4.594
99346W        W64606  18.989  43.764  12.081
99347W        W64607   7.939  38.304  11.129
99348W        W64608   0.545   6.959   0.943
99349W        W64609  23.984  26.306   2.452
99350W        W64610  36.972  24.342  11.729
99351W        W64611  44.746  34.152   2.816
99352W        W64612  32.675  23.129   5.005
99353W        W64613  40.895  11.235   0.784
99354W        W64614  41.510  39.117  10.632
99355W        W64615   4.891   0.030   0.971
99356W        W64616   4.638  31.890   3.225
99357W        W64617  41.784  16.967   3.692
99358W        W64618   7.193  26.514  11.902
99359W        W64619  23.490  36.113  13.425
99360W        W64620   2.829  16.186  11.220
99361W        W64621  26.205  41.910  10.951
99362W        W64622  39.414  10.582  10.776
99363W        W64623   9.039   4.942   0.817
99364W        W64624  28.549   5.443  11.993
99365W        W64625  10.379  22.693   4.590
99366W        W64626  43.862   4.929   2.644
99367W        W64627  23.077  44.768   0.428
99368W        W64628  33.559  27.423  12.505
99369W        W64629  30.647  14.757   3.451
99370W        W64630  13.320  31.656  11.440
99371W        W64631  26.717  34.131   3.682
99372W        W64632  42.232  35.376  12.887
99373W        W64633  35.267  40.003  10.684
99374W        W64634  32.954  14.115   4.032
99375W        W64635  43.389  43.996   2.739
99376W        W64636  43.093  11.761   3.437
99377W        W64637  34.598  12.669   1.456
99378W        W64638  27.493  30.118   1.420
99379W        W64639  28.544  22.479   3.236
99380W        W64640  36.071  43.227  12.050
99381W        W64641  19.310  39.546   2.417
99382W        W64642  13.173  38.423  13.853
99383W        W64643  12.152  43.580   0.529
99384W        W64644   5.671  10.684   0.960
99385W        W64645  20.244  15.310   3.645
99386W        W64646  40.998  17.193  10.890
99387W        W64647  42.096  25.695  13.284
99388W        W64648  39.087  34.268  14.335
99389W        W64649  30.862  14.965  11.622
99390W        W64650  34.559  36.597  12.252
99391W        W64651   7.745   1.704  11.056
99392W        W64652   8.641  34.253  12.038
99393W        W64653  28.696  36.659  13.442
99394W        W64654  26.766  38.312  12.934
99395W        W64655  26.669  31.435  11.534
99396W        W64656  40.980  34.477   2.864
99397W        W64657   9.187   5.752   0.552
99398W        W64658  16.786  13.173   2.643
99399W        W64659  36.932  16.059  11.204
99400W        W64660   0.758  43.680   3.613
99401W        W64661  25.551  22.300  11.390
99402W        W64662   7.407  25.732  12.404
99403W        W64663  34.477  41.249   1.877
99404W        W64664  34.450  24.833  10.605
99405W        W64665  21.731  12.582  14.712
99406W        W64666  25.096  12.894   1.766
99407W        W64667  43.587  28.887   0.958
99408W        W64668  25.614  12.751   5.232
99409W        W64669  20.161  16.337   3.767
99410W        W64670  27.941  31.064  14.574
99411W        W64671  14.710   7.657  13.195
99412W        W64672   3.455  40.314  11.504
99413W        W64673  30.506  34.122   4.588
99414W        W64674  29.632   5.619  13.391
99415W        W64675   2.489  33.632   0.556
99416W        W64676  11.408  37.489  11.717
99417W        W64677  26.254  35.477  12.043
99418W        W64678  37.062   6.875  10.400
99419W        W64679  10.286  30.585  13.596
99420W        W64680   3.819  42.513   3.953
99421W        W64681   2.125  38.787   1.235
99422W        W64682  41.376   3.991   2.175
99423W        W64683  13.716  42.729   0.407
99424W        W64684  16.492   5.829  14.407
99425W        W64685  18.675   5.236  10.625
99426W        W64686  17.785  30.804  11.946
99427W        W64687  36.249  34.025  11.995
99428W        W64688  26.503   6.115  11.685
99429W        W64689  40.440   4.799  13.013
99430W        W64690  18.654  12.542  10.308
99431W        W64691  27.440  23.104   4.676
99432W        W64692  37.977  19.722   0.764
99433W        W64693  29.985   5.255   3.661
99434W        W64694  24.885  38.076  11.310
99435W        W64695  29.988  37.571  10.771
99436W        W64696   6.997  37.033   0.486
99437W        W64697   1.275  31.201   1.850
99438W        W64698  27.612  14.508  12.069
99439W        W64699  17.880  19.868   3.662
99440W        W64700  21.026  21.218  14.810
99441W        W64701  19.345  26.699  12.122
99442W        W64702  32.504  18.423   4.937
99443W        W64703  43.507  37.979  10.999
99444W        W64704   4.741  17.136  10.158
99445W        W64705   5.189  19.639   4.103
99446W        W64706   8.366   5.856  14.969
99447W        W64707   4.686  44.883  14.955
99448W        W64708  14.842  18.479   0.336
99449W        W64709  30.151  10.833   1.695
99450W        W64710  23.930  39.885  10.705
99451W        W64711  12.203   6.521   2.136
99452W        W64712   4.677  25.554   2.389
99453W        W64713  38.548  42.842   1.961
99454W        W64714  24.693  22.226   1.903
99455W        W64715  17.484  34.461  14.196
99456W        W64716   3.415  40.794  13.841
99457W        W64717  40.466  29.163   3.537
99458W        W64718  36.590  17.633   4.152
99459W        W64719  11.106   7.598  12.843
99460W        W64720  43.903  11.586  12.934
99461W        W64721   6.997  31.413  11.305
99462W        W64722  42.058   2.497  13.581
99463W        W64723   7.704  13.115   0.818
99464W        W64724   7.360  26.498  14.784
99465W        W64725  13.234  38.530  13.354
99466W        W64726  28.556  39.575  14.978
99467W        W64727  41.344  24.499  13.006
99468W        W64728   0.898  16.245  11.646
99469W        W64729  38.827  31.810   2.989
99470W        W64730  29.535  27.713  14.981
99471W        W64731  37.598  39.351  11.086
99472W        W64732  31.845  15.060  11.658
99473W        W64733  44.381  14.070  13.483
99474W        W64734  42.011   0.344  14.448
99475W        W64735  10.351  36.320  14.519
99476W        W64736  14.321  17.992   3.682
99477W        W64737   1.870  12.140   4.912
99478W        W64738   9.270  32.924  11.967
99479W        W64739   9.277  31.590  13.053
99480W        W64740  42.137  25.846  14.594
99481W        W64741  18.242   6.338   3.565
99482W        W64742  10.729  29.114  12.543
99483W        W64743  31.109  10.092   5.055
99484W        W64744  25.268  26.252   4.712
99485W        W64745  41.417  14.282  14.813
99486W        W64746  28.793  21.093  12.480
99487W        W64747  22.116  16.696   3.702
99488W        W64748  14.187  33.812   0.387
99489W        W64749  35.321  25.499   3.464
99490W        W64750   9.562   7.476  10.132
99491W        W64751  12.709  35.162  13.837
99492W        W64752  39.572  15.166   3.818
99493W        W64753  19.655  41.238  13.030
99494W        W64754  33.166  12.332  14.913
99495W        W64755  28.535  32.997   1.657
99496W        W64756   2.154  40.082   4.111
99497W        W64757  43.067  40.941  14.045
99498W        W64758  31.968  31.060   0.516
99499W        W64759   7.339  29.982  12.073
99500W        W64760  43.602  15.849   1.649
99501W        W64761  34.594  22.059  14.325
99502W        W64762  13.178  39.075  14.370
99503W        W64763  41.173  21.924   0.348
99504W        W64764   2.645  39.586   4.083
99505W        W64765  26.016  36.621   0.443
99506W        W64766  14.047  18.025   1.393
99507W        W64767  27.103  13.374   1.875
99508W        W64768  25.743  28.428   4.552
99509W        W64769  44.877  36.064   0.019
99510W        W64770  26.225  41.407  10.848
99511W        W64771   5.431   7.308  12.513
99512W        W64772  33.042  29.072  12.930
99513W        W64773   1.549  20.569   1.524
99514W        W64774   4.790  12.988   4.253
99515W        W64775  19.752   0.248   4.175
99516W        W64776  40.292  26.883   4.547
99517W        W64777  42.475  34.383   0.458
99518W        W64778  19.820  39.296  12.965
99519W        W64779  11.915  40.416   4.140
99520W        W64780  39.001  13.100   1.043
99521W        W64781  20.715  34.141  14.033
99522W        W64782  42.261  10.203  11.514
99523W        W64783  34.390  41.321  13.001
99524W        W64784   0.731  14.314  13.955
99525W        W64785  36.942  27.089  12.569
99526W        W64786   5.767  37.753  12.143
99527W        W64787  32.530  29.107  12.568
99528W        W64788  12.548  39.215  13.928
99529W        W64789  15.717   5.661   3.361
99530W        W64790   2.159   8.147  14.836
99531W        W64791  41.343  21.215   3.223
99532W        W64792  44.391   2.731  11.835
99533W        W64793  40.458   5.224   3.627
99534W        W64794  40.828  14.166   1.504
99535W        W64795   4.012  31.092   3.005
99536W        W64796  40.079  26.416  12.473
99537W        W64797  31.020  36.094  13.380
99538W        W64798  42.858   2.915  14.516
99539W        W64799   8.639  14.124   1.739
99540W        W64800  33.304  27.680  12.881
99541W        W64801  29.256  40.325   1.450
99542W        W64802  44.157  30.442  14.940
99543W        W64803  28.538  29.970   2.745
99544W        W64804  42.768  32.957  12.539
99545W        W64805   3.795  37.773  14.066
99546W        W64806   2.474  14.652   1.360
99547W        W64807  41.058  22.097  14.818
99548W        W64808  42.789   5.099   1.338
99549W        W64809   9.340  27.634   3.202
99550W        W64810  16.291  31.652   4.680
99551W        W64811  21.773  37.844   2.071
99552W        W64812  20.622   9.638   1.608
99553W        W64813   0.467  34.582   4.336
99554W        W64814   5.505   4.835  13.911
99555W        W64815  29.112  35.754   4.677
99556W        W64816  20.429  41.473   4.022
99557W        W64817  28.453   9.780   1.549
99558W        W64818   3.089  19.155  14.888
99559W        W64819  34.253   4.489   2.830
99560W        W64820  23.643  23.575   0.495
99561W        W64821   4.027  27.421   0.367
99562W        W64822  33.362  15.873  11.023
99563W        W64823  15.670  17.192   1.468
99564W        W64824  34.501   8.849   0.857
99565W        W64825  44.401  12.317   2.737
99566W        W64826  22.710   4.179  13.474
99567W        W64827  21.800  39.243  13.550
99568W        W64828   1.761  28.688   2.327
99569W        W64829  30.007   1.511   3.241
99570W        W64830   3.258  29.062   5.353
99571W        W64831  34.334  41.316   2.756
99572W        W64832  27.167  29.206  11.643
99573W        W64833   2.521   2.434  12.866
99574W        W64834  23.973  28.107   3.637
99575W        W64835  14.824  41.443   0.278
99576W        W64836   4.224  33.587  11.050
99577W        W64837  33.874  34.869  12.542
99578W        W64838  44.891  42.849   4.599
99579W        W64839  39.858   1.805  12.936
99580W        W64840  43.747  32.736   2.508
99581W        W64841   7.153  10.377  11.577
99582W        W64842   6.851  14.742  11.744
99583W        W64843  43.966   4.252  10.986
99584W        W64844  29.390  43.846  11.619
99585W        W64845  14.023   3.423   3.520
99586W        W64846  40.490  16.671   2.755
99587W        W64847   7.932  33.960  13.556
99588W        W64848  12.916  42.575  12.013
99589W        W64849  21.826   8.292   3.081
99590W        W64850  18.541  17.506   0.884
99591W        W64851   8.707  24.613  13.181
99592W        W64852  32.887  22.443   4.143
99593W        W64853  37.937  22.530   1.346
99594W        W64854  44.782  32.064  13.872
99595W        W64855   0.467  29.657   4.137
99596W        W64856   2.232  13.377  14.533
99597W        W64857  28.763  17.739   2.769
99598W        W64858  43.339  43.393   3.313
99599W        W64859  14.723  19.458  11.575
99600W        W64860  28.592  44.848   0.567
99601W        W64861  14.851  19.205  10.213
99602W        W64862  17.114  40.600   2.354
99603W        W64863  10.959   0.702  12.424
99604W        W64864  15.700  32.207   0.058
99605W        W64865  29.728  28.373  12.979
99606W        W64866  22.701  31.405   1.355
99607W        W64867  39.038   2.862   4.844
99608W        W64868  13.286  23.071   1.905
99609W        W64869  29.076   9.396  10.706
99610W        W64870  22.449   1.035   0.380
99611W        W64871  33.583  38.853   4.146
99612W        W64872  32.919  12.591   3.259
99613W        W64873   4.772  36.998  12.605
99614W        W64874   1.733  25.672  12.304
99615W        W64875  27.526   1.983   2.973
99616W        W64876  41.463  32.959  13.796
99617W        W64877  27.098  31.675  11.454
99618W        W64878  16.954  38.967   4.620
99619W        W64879  10.540  35.049  10.815
99620W        W64880  36.912  38.919  11.601
99621W        W64881   2.175  29.065  11.731
99622W        W64882  16.586  29.542   4.161
99623W        W64883  37.045  21.220   3.806
99624W        W64884  31.623  10.122   3.714
99625W        W64885  23.806  41.028   4.918
99626W        W64886  15.288   3.301  13.738
99627W        W64887  14.365   9.214   0.786
99628W        W64888  31.857  41.066   1.792
99629W        W64889   0.371  25.989   2.169
99630W        W64890  40.879  10.376  13.658
99631W        W64891  38.919  23.588  12.523
99632W        W64892  13.154  24.670  13.778
99633W        W64893  19.144  26.613  10.034
99634W        W64894  31.706  13.780   4.630
99635W        W64895  44.688  29.381   3.496
99636W        W64896  42.180  32.241  10.150
99637W        W64897  10.158  44.091  13.516
99638W        W64898  16.280  32.149  10.250
99639W        W64899  24.562  26.412   3.291
99640W        W64900  23.114  11.812  13.906
99641W        W64901  37.299  34.665   1.734
99642W        W64902   0.879  42.802   1.330
99643W        W64903  10.907  31.744  13.527
99644W        W64904  27.148  14.179   2.247
99645W        W64905  26.722   4.096   2.715
99646W        W64906  36.835   1.913  13.011
99647W        W64907  14.280  32.852   1.644
99648W        W64908  26.726  26.550  13.451
99649W        W64909  13.151  40.730   5.089
99650W        W64910  43.750  19.010  11.494
99651W        W64911  29.496   5.716   1.200
99652W        W64912  35.049  37.996   0.361
99653W        W64913  19.854   2.660   2.356
99654W        W64914  22.130  20.105  12.069
99655W        W64915   1.150  16.693  12.433
99656W        W64916  27.698  13.217  12.934
99657W        W64917  26.059  16.108  14.984
99658W        W64918   4.138  13.734  13.414
99659W        W64919  18.211  14.570  12.933
99660W        W64920  21.001  30.806   4.359
99661W        W64921   8.817  41.950   3.414
99662W        W64922  32.609  32.398  11.486
99663W        W64923  24.397  15.615  14.987
99664W        W64924  27.044  33.698  13.309
99665W        W64925  19.300   5.172  12.198
99666W        W64926   1.347  42.430   3.142
99667W        W64927   6.578  10.819  14.617
99668W        W64928   9.293  35.842   3.210
99669W        W64929  36.920  38.077   3.195
99670W        W64930  20.877  28.465  12.040
99671W        W64931  17.652  32.598   0.875
99672W        W64932   0.318  19.281  13.452
99673W        W64933  35.421   3.304  13.164
99674W        W64934  37.675  12.344   0.448
99675W        W64935   2.944  32.080   9.907
99676W        W64936  27.049   3.805  14.970
99677W        W64937   0.868  42.512   1.746
99678W        W64938  14.530   7.690   4.178
99679W        W64939  15.848  11.719  11.098
99680W        W64940   8.179  12.734   1.757
99681W        W64941  38.463  27.535  10.988
99682W        W64942   0.753  36.956  11.374
99683W        W64943   4.315   6.923   2.730
99684W        W64944  42.542  28.644   3.654
99685W        W64945  13.051  13.373   3.705
99686W        W64946  37.436  36.292  13.012
99687W        W64947  19.185  37.912   1.914
99688W        W64948  33.571  19.208  11.218
99689W        W64949  36.582  44.261  12.519
99690W        W64950  15.185  41.407   4.618
99691W        W64951  15.676   2.156  13.329
99692W        W64952  13.384  17.265   1.627
99693W        W64953  25.462  30.516   3.046
99694W        W64954  32.108  26.402  11.978
99695W        W64955  20.122  27.200   2.382
99696W        W64956  39.849   3.685  13.112
99697W        W64957  27.941  39.489  13.465
99698W        W64958   3.414  34.865   1.298
99699W        W64959  37.304  30.610   1.654
99700W        W64960  27.199  24.278  11.595
99701W        W64961  13.636   9.652   4.093
99702W        W64962   7.825  12.999  14.386
99703W        W64963   0.358  40.225  14.372
99704W        W64964  37.446  43.513  14.605
99705W        W64965   1.307  26.463   1.854
99706W        W64966  34.492  39.863  11.116
99707W        W64967  32.070  13.784   3.330
99708W        W64968  40.402  33.472   1.722
99709W        W64969  20.299  33.376  11.269
99710W        W64970   3.718  40.564   2.755
99711W        W64971   0.384   2.206   1.927
99712W        W64972  22.701  39.441   0.550
99713W        W64973  32.736  20.890  11.103
99714W        W64974  31.951  26.659   2.185
99715W        W64975  43.130  23.530   1.568
99716W        W64976   8.642  27.749   2.471
99717W        W64977  18.656  36.894  12.050
99718W        W64978  44.881  36.433  12.862
99719W        W64979  42.452  16.248  12.059
99720W        W64980  17.700  26.048  10.736
99721W        W64981  39.381  20.291   4.328
99722W        W64982  39.537   1.849  13.956
99723W        W64983  25.029  41.894   1.035
99724W        W64984  30.434  42.023   2.728
99725W        W64985  24.677  15.457   0.557
99726W        W64986  26.153  38.114   2.185
99727W        W64987  34.641  32.465  13.973
99728W        W64988   9.465  36.961   4.820
99729W        W64989   0.822  20.677  13.547
99730W        W64990  42.026  27.521   2.260
99731W        W64991  32.115  35.483  12.617
99732W        W64992  23.994   7.035   4.856
99733W        W64993  26.677  29.371  10.891
99734W        W64994  23.844  30.645  12.889
99735W        W64995   7.299  27.681   2.342
99736W        W64996  23.639  10.304  14.404
99737W        W64997  19.070   2.026  12.953
99738W        W64998   4.682  43.475   2.215
99739W        W64999   2.492  13.681   1.325
99740W        W65000  41.319  17.124   1.170
99741W        W65001  28.137  43.554  12.983
99742W        W65002  34.078   8.364   1.364
99743W        W65003   3.708  17.996  13.763
99744W        W65004  11.378  32.272   2.753
99745W        W65005  24.258  27.008   1.189
99746W        W65006  20.442  14.566   0.305
99747W        W65007   2.435  12.757   1.089
99748W        W65008  38.232   4.341  11.932
99749W        W65009  35.383  33.397  14.821
99750W        W65010   1.898   1.443  13.819
99751W        W65011   3.534  26.742   4.653
99752W        W65012  31.783  32.480   0.218
99753W        W65013  39.499  16.143  14.558
99754W        W65014  12.635  42.511  11.584
99755W        W65015   8.325  36.784   1.769
99756W        W65016  37.559  16.800   3.730
99757W        W65017   1.466   9.832   2.740
99758W        W65018  26.151  29.529  14.710
99759W        W65019  12.738  38.851   4.187
99760W        W65020  13.765  36.087   2.865
99761W        W65021   5.185  44.395  11.202
99762W        W65022  23.161   0.822  13.276
99763W        W65023  36.439  38.185  13.914
99764W        W65024  31.214   2.393  12.460
99765W        W65025  25.600  16.189  11.380
99766W        W65026   3.181  43.340  14.100
99767W        W65027  18.720   6.623   1.871
99768W        W65028  16.760  38.788   3.730
99769W        W65029   1.702  40.645   4.960
99770W        W65030   2.512  21.069  11.182
99771W        W65031  25.015   0.419  10.647
99772W        W65032  21.951  20.365   4.604
99773W        W65033  14.097  27.533   4.618
99774W        W65034  20.217  17.813   2.086
99775W        W65035  13.762  42.444   0.850
99776W        W65036  15.728   7.410  12.281
99777W        W65037  36.932  19.776  12.627
99778W        W65038   1.517  37.085   3.531
99779W        W65039   7.107  31.864  11.081
99780W        W65040   8.547  28.502   0.820
99781W        W65041   6.842   8.694   1.327
99782W        W65042  10.276   8.872  13.842
99783W        W65043  12.865  42.136   3.175
99784W        W65044  18.392  39.408  12.674
99785W        W65045  35.108  25.275   1.277
99786W        W65046  42.566   2.783  13.046
99787W        W65047  13.238  32.951  11.946
99788W        W65048  43.760  17.014   2.227
99789W        W65049   9.099  12.219   0.044
99790W        W65050   5.623   9.848   0.766
99791W        W65051  37.295  25.618   0.959
99792W        W65052  34.499  22.603   2.542
99793W        W65053   6.311   2.959   0.960
99794W        W65054  18.438  30.585  14.002
99795W        W65055  18.129   6.005   1.907
99796W        W65056   2.198  15.721  11.600
99797W        W65057  29.911  43.877  11.654
99798W        W65058   5.622  20.795  10.600
99799W        W65059  19.467  35.315   3.875
99800W        W65060  35.346  41.891   0.919
99801W        W65061   3.393  36.871   1.125
99802W        W65062  15.016   7.756  13.601
99803W        W65063  15.311   1.491  14.441
99804W        W65064   1.412  13.358   4.738
99805W        W65065  13.310  36.919   2.867
99806W        W65066  36.896  30.445   0.737
99807W        W65067   5.023  27.652   2.070
99808W        W65068  40.043  14.429  12.436
99809W        W65069  15.853  26.766  12.511
99810W        W65070  14.676  37.236  11.524
99811W        W65071  31.446  19.292  12.819
99812W        W65072  19.150  30.069   2.350
99813W        W65073  18.285  27.112  14.817
99814W        W65074   0.897  32.098   0.397
99815W        W65075  41.296   1.008  14.787
99816W        W65076  44.727  26.664  12.472
99817W        W65077  39.105  19.996  13.520
99818W        W65078  30.133  21.209  14.349
99819W        W65079  35.575  25.440   2.472
99820W        W65080   0.267   2.775   2.254
99821W        W65081   1.443  28.769  10.679
99822W        W65082  14.697  23.321   9.761
99823W        W65083  44.690  28.149  12.542
99824W        W65084  20.192   6.818  10.750
99825W        W65085  24.040  25.698   2.578
99826W        W65086   2.963  24.736   3.659
99827W        W65087  22.760  16.413   2.109
99828W        W65088  28.267  12.357   3.287
99829W        W65089   5.209  36.121   2.199
99830W        W65090  18.371  18.048  13.054
99831W        W65091  16.195  16.543   1.845
99832W        W65092  16.624  40.004  14.809
99833W        W65093   1.006  29.008   3.503
99834W        W65094  39.415  34.601  12.051
99835W        W65095   5.977   1.968   4.519
99836W        W65096  14.671  34.091   3.105
99837W        W65097  25.046  32.130  11.172
99838W        W65098  17.774  26.665   0.871
99839W        W65099  28.506  22.755   0.837
99840W        W65100  39.527  40.625  13.907
99841W        W65101  23.748  38.095  13.577
99842W        W65102   8.302   7.235  13.579
99843W        W65103  39.318  43.662  13.915
99844W        W65104  18.226  26.599  11.129
99845W        W65105   8.797  19.589   3.798
99846W        W65106  24.443  37.414  13.420
99847W        W65107  38.144  38.566   0.331
99848W        W65108  41.478   9.727  11.646
99849W        W65109   2.831  11.348   3.615
99850W        W65110  34.356  10.095   3.160
99851W        W65111   9.716  32.968   4.348
99852W        W65112  38.524  40.112  13.067
99853W        W65113  16.328  26.313   4.232
99854W        W65114   1.018   0.940   4.076
99855W        W65115  29.039  26.605   0.870
99856W        W65116  13.785  31.911   2.823
99857W        W65117  44.648  33.629   4.210
99858W        W65118  28.948  15.055   2.906
99859W        W65119   5.703   8.372   2.831
99860W        W65120  16.199   2.983  14.114
99861W        W65121   1.558  15.297   3.283
99862W        W65122  23.686  25.650  12.188
99863W        W65123  31.865  12.661  13.942
99864W        W65124   7.887  36.875   4.699
99865W        W65125  12.226  29.697  14.446
99866W        W65126  17.065   5.950  12.541
99867W        W65127   4.521  19.415  13.019
99868W        W65128  35.857   8.383  14.179
99869W        W65129  20.648   5.109  13.526
99870W        W65130  16.519  28.470   4.535
99871W        W65131   7.913  27.920  11.624
99872W        W65132  24.119  28.976   2.390
99873W        W65133   4.771   7.208  14.691
99874W        W65134  29.533   4.765  14.555
99875W        W65135  16.797  32.672   1.716
99876W        W65136  18.095  39.482   3.848
99877W        W65137  35.919  29.511   4.191
99878W        W65138   9.394  33.564  12.794
99879W        W65139  29.301  20.988  12.417
99880W        W65140  30.595  36.825  10.930
99881W        W65141  13.641  14.239  14.784
99882W        W65142   9.863  25.705   1.660
99883W        W65143  25.002  42.032   5.033
99884W        W65144   2.476  22.276   5.012
99885W        W65145  35.613   2.527   2.578
99886W        W65146  30.145  23.952   0.127
99887W        W65147  33.489   1.490  10.875
99888W        W65148  40.262   8.105  13.459
99889W        W65149  15.619  22.852   4.948
99890W        W65150  27.403  12.112   4.855
99891W        W65151  44.265  20.615   4.180
99892W        W65152  24.961   9.030   4.247
99893W        W65153  33.372  17.003  11.523
99894W        W65154  25.335  43.699  11.928
99895W        W65155  13.823  36.907   4.621
99896W        W65156  36.410  28.492  13.097
99897W        W65157  13.432  11.585   2.748
99898W        W65158  37.466   8.130  12.007
99899W        W65159  29.008   2.759  11.413
99900W        W65160   6.851  36.799   1.299
99901W        W65161  35.881  42.531  11.664
99902W        W65162  26.589   3.774   3.674
99903W        W65163  25.019  25.502  14.892
99904W        W65164  12.488  23.597  11.549
99905W        W65165  36.526   6.160   1.279
99906W        W65166  12.864  39.449   2.626
99907W        W65167  16.376   6.766  10.591
99908W        W65168  32.558  27.092  14.413
99909W        W65169  20.217  40.624   0.201
99910W        W65170  35.004   3.728   2.472
99911W        W65171  12.032  32.992   1.953
99912W        W65172   0.266  29.023  12.461
99913W        W65173  33.032  23.540  12.418
99914W        W65174  10.325  27.972  11.952
99915W        W65175  20.036  18.241   4.251
99916W        W65176  44.307  14.039  14.463
99917W        W65177  44.819  27.545  14.728
99918W        W65178  37.863  16.589   2.216
99919W        W65179   1.708  23.222  13.386
99920W        W65180  12.227  26.575  14.721
99921W        W65181  12.243   8.648  13.130
99922W        W65182  20.678  10.738   3.249
99923W        W65183  11.244  43.343  11.492
99924W        W65184  28.081  24.946   1.741
99925W        W65185  40.050  34.324  12.428
99926W        W65186  43.483   2.116   2.823
99927W        W65187   7.911  11.357  12.407
99928W        W65188  28.434  10.724   2.318
99929W        W65189  11.722   9.711   4.180
99930W        W65190  24.938  32.502  14.700
99931W        W65191  12.792   5.912   5.294
99932W        W65192  40.227   4.278  12.030
99933W        W65193   4.935  11.823  12.536
99934W        W65194  37.471   8.038  12.526
99935W        W65195  14.359  18.506   3.614
99936W        W65196  33.913   2.837   5.375
99937W        W65197   3.795   7.149  13.888
99938W        W65198  25.090  38.337  13.762
99939W        W65199  39.389  18.763  12.123
99940W        W65200  29.725   6.288  12.784
99941W        W65201  36.112  25.235  11.124
99942W        W65202  25.548   2.420  12.954
99943W        W65203   9.570  14.606   2.752
99944W        W65204   5.419  28.288  11.160
99945W        W65205  37.804   4.670  10.773
99946W        W65206  23.460  13.563   0.930
99947W        W65207  12.353   7.890  10.777
99948W        W65208  35.960   7.147  11.765
99949W        W65209   8.329  27.967   1.327
99950W        W65210  42.233  32.747   2.155
99951W        W65211  18.613   3.287  13.240
99952W        W65212  38.200  24.041  14.483
99953W        W65213  20.685  44.420  12.435
99954W        W65214  16.443  13.029   0.928
99955W        W65215  25.632  10.463  12.540
99956W        W65216   0.334   4.434   4.516
99957W        W65217  35.209  10.196   0.452
99958W        W65218  11.189  15.217   0.763
99959W        W65219   8.656  12.239   2.803
99960W        W65220   4.685  23.648   0.480
99961W        W65221  27.436  44.422   0.390
99962W        W65222  41.992  18.687  11.877
99963W        W65223  15.621   0.931   3.639
99964W        W65224  38.021  17.792  11.676
99965W        W65225  29.496  21.247   1.329
99966W        W65226  19.764  29.691  10.857
99967W        W65227  11.795  20.505   2.314
99968W        W65228  20.996  41.380  13.890
99969W        W65229  38.059  22.276  11.545
99970W        W65230  11.059   0.530  14.506
99971W        W65231  41.899  42.064   1.379
99972W        W65232   4.028  29.700   4.066
99973W        W65233  19.689  37.566   4.953
99974W        W65234  20.634  13.379   0.903
99975W        W65235  14.771   0.247  12.297
99976W        W65236   0.350  41.227   2.777
99977W        W65237  15.840  24.133  10.739
99978W        W65238  17.628  23.710  11.452
99979W        W65239  34.038  33.429   3.958
99980W        W65240   2.719   8.167  13.520
99981W        W65241  29.990  20.259  14.950
99982W        W65242  28.581  16.381   3.172
99983W        W65243  17.694   8.749  12.311
99984W        W65244  37.248  40.557   2.634
99985W        W65245  24.742  26.511  14.456
99986W        W65246  26.606  10.344  11.275
99987W        W65247  38.250  11.335   4.192
99988W        W65248  42.008  27.574  11.204
99989W        W65249  32.190  26.620   9.657
99990W        W65250  28.345  33.157  12.999
99991W        W65251  15.213  32.128  10.385
99992W        W65252  27.847   7.364   0.531
99993W        W65253  37.848  29.322   1.918
99994W        W65254  44.332   9.717  14.998
99995W        W65255  39.263  16.725   2.301
99996W        W65256  29.771  18.264   4.613
99997W        W65257  39.397   4.724   0.791
99998W        W65258   0.800  10.709   1.566
99999W        W65259  21.340  19.134   2.910
    0W        W65260  32.044  15.284   1.720
    1W        W65261  30.013  38.194  13.867
    2W        W65262  12.441  13.784   0.042
    3W        W65263  15.650  19.068   2.724
    4W        W65264  11.939  37.162  11.166
    5W        W65265  18.473   6.675  14.021
    6W        W65266  40.919  27.649   0.045
    7W        W65267  24.680  31.849   0.251
    8W        W65268  19.360  32.509  12.720
    9W        W65269  22.249  30.419  13.064
   10W        W65270  16.798   0.381   2.389
   11W        W65271  15.217  27.728   1.877
   12W        W65272   0.333  44.753   2.240
   13W        W65273   5.859  22.463  13.441
   14W        W65274  10.654   4.791  14.481
   15W        W65275  30.565   1.674   1.248
   16W        W65276  27.050  21.529   4.603
   17W        W65277  20.144  22.887   1.648
   18W        W65278  13.659   0.404  13.577
   19W        W65279   5.109  27.008  10.674
   20W        W65280  18.847   5.524  14.551
   21W        W65281  38.561  29.931  10.813
   22W        W65282  44.908  40.069  11.558
   23W        W65283   7.402   0.765  14.153
   24W        W65284  11.757  35.993   3.618
   25W        W65285  35.072  28.628  11.675
   26W        W65286  28.846  31.137   0.477
   27W        W65287   7.925   0.299   3.581
   28W        W65288   8.849  17.347   2.452
   29W        W65289   5.667  26.128   4.646
   30W        W65290  13.919  24.635  11.589
   31W        W65291  16.846  26.289   2.733
   32W        W65292   9.388  40.520  13.042
   33W        W65293  34.678  11.195   0.882
   34W        W65294  41.881   7.289  14.690
   35W        W65295  39.272  11.420  14.912
   36W        W65296  23.238  25.117  11.117
   37W        W65297  38.033  24.543  14.447
   38W        W65298  33.555   4.842  14.834
   39W        W65299   4.739  26.690   0.786
   40W        W65300  33.735  27.634  13.821
   41W        W65301  24.583  44.474  11.854
   42W        W65302  12.883  43.386   0.050
   43W        W65303  40.395  28.559   2.670
   44W        W65304  13.402  43.609   1.315
   45W        W65305  11.157  33.093  12.971
   46W        W65306  30.421  42.597  14.037
   47W        W65307  14.196   3.214   0.973
   48W        W65308  43.009  15.293   4.243
   49W        W65309  35.317  12.343   2.599
   50W        W65310  18.588  26.818  12.636
   51W        W65311  32.535   0.240   3.282
   52W        W65312   9.766  42.505  13.119
   53W        W65313  34.892   1.503   0.999
   54W        W65314  28.406  11.939  14.336
   55W        W65315  23.198   0.538  10.665
   56W        W65316   5.365  30.060   3.845
   57W        W65317  26.069  39.075  12.174
   58W        W65318  22.595  32.148  11.011
   59W        W65319  39.551   7.789   0.337
   60W        W65320  28.040  25.700   4.596
   61W        W65321  39.377   3.240  11.163
   62W        W65322   0.040  12.663  12.685
   63W        W65323  41.001   0.636   0.806
   64W        W65324   4.667   8.384  11.790
   65W        W65325   4.262   3.150   0.927
   66W        W65326   7.324   6.980  13.596
   67W        W65327  31.420  23.578   3.593
   68W        W65328  42.906  32.367   3.301
   69W        W65329  32.359  25.614   0.777
   70W        W65330  21.793  23.510  14.267
   71W        W65331  20.048   8.306   4.159
   72W        W65332  41.143  43.582  11.169
   73W        W65333  30.701  20.598   3.413
   74W        W65334  39.848  31.700   4.487
   75W        W65335   4.333  17.570   0.204
   76W        W65336  10.519   8.845  10.792
   77W        W65337  42.236  19.616  14.340
   78W        W65338  25.724  28.035  14.196
   79W        W65339  35.804  30.501  14.746
   80W        W65340  32.975  37.172  11.582
   81W        W65341  34.348  31.056   4.289
   82W        W65342  12.667   7.930  12.067
   83W        W65343  22.009  44.058   3.381
   84W        W65344   0.732   0.898  14.842
   85W        W65345  31.633  35.335   1.350
   86W        W65346   3.856  29.486   0.979
   87W        W65347  40.476  12.020   0.172
   88W        W65348  31.608  44.052   4.693
   89W        W65349  27.602  42.577   3.132
   90W        W65350  10.288  18.473   4.105
   91W        W65351  31.648   3.974   3.696
   92W        W65352  18.075  44.602   1.801
   93W        W65353  30.982   5.738  12.038
   94W        W65354  24.302  33.645  13.501
   95W        W65355  41.096  11.245   1.890
   96W        W65356  18.703  21.769  14.442
   97W        W65357  19.648   2.943  12.846
   98W        W65358   2.978  24.725  14.004
   99W        W65359  31.238  43.334   5.052
  100W        W65360  12.105  37.593   1.032
  101W        W65361   0.958   4.875  13.038
  102W        W65362  18.076  19.177   4.163
  103W        W65363  37.556  15.189   1.596
  104W        W65364  40.822  36.881  14.523
  105W        W65365  37.075  33.567   0.209
  106W        W65366   0.112  13.854  12.393
  107W        W65367  16.882  28.002   3.325
  108W        W65368  38.940  29.832  14.600
  109W        W65369  42.103  43.779   2.183
  110W        W65370  39.648   2.089   3.470
  111W        W65371  10.085  39.824  13.728
  112W        W65372   3.345  39.032  13.354
  113W        W65373  39.337  15.837  11.596
  114W        W65374  13.757  15.296   1.372
  115W        W65375  19.953  42.587  11.125
  116W        W65376  29.247  13.174   1.379
  117W        W65377  39.920  13.569  14.077
  118W        W65378  19.702  25.814   1.434
  119W        W65379  24.446  31.401   0.371
  120W        W65380  37.047  31.954  11.254
  121W        W65381  27.619  19.982   3.264
  122W        W65382  43.323  27.986   3.883
  123W        W65383  34.496  17.798   1.453
  124W        W65384  31.067  18.105   4.631
  125W        W65385  36.075  15.822   3.235
  126W        W65386  17.220  10.802   3.142
  127W        W65387  22.423  39.326   3.641
  128W        W65388  20.893   7.518   4.794
  129W        W65389   2.428  35.944  10.467
  130W        W65390  37.564   3.367   3.743
  131W        W65391  35.958  28.938  10.752
  132W        W65392   4.230  19.912  11.503
  133W        W65393  40.475  28.426   3.168
  134W        W65394   6.613  38.793   3.134
  135W        W65395   3.686  39.538   2.779
  136W        W65396  27.647  14.595  12.593
  137W        W65397  35.446  44.803  14.978
  138W        W65398  38.035  42.047  11.201
  139W        W65399  31.044  21.312  14.846
  140W        W65400   0.980  31.327  12.340
  141W        W65401  14.640  43.800  13.985
  142W        W65402  15.816  19.082  13.431
  143W        W65403  44.826  25.280  13.906
  144W        W65404  11.619  23.695  10.815
  145W        W65405  23.565  31.870  13.846
  146W        W65406   7.327  38.081   1.375
  147W        W65407  31.405  20.653   2.941
  148W        W65408  12.822  14.121   4.545
  149W        W65409  17.332   6.144  11.266
  150W        W65410  15.545  30.567  10.903
  151W        W65411  32.203  28.706   0.731
  152W        W65412  42.863  24.419  12.956
  153W        W65413  32.105  42.867   4.587
  154W        W65414  30.709  44.438  14.718
  155W        W65415  32.829   4.356   3.984
  156W        W65416  41.566  16.475   3.687
  157W        W65417  30.600  27.836  13.067
  158W        W65418  43.625  33.536  12.028
  159W        W65419  37.963  14.762   4.421
  160W        W65420  18.482  20.607   1.174
  161W        W65421  39.807   2.403   1.661
  162W        W65422  36.909  19.338   1.288
  163W        W65423  28.685  19.546   0.450
  164W        W65424  39.155   2.835   3.363
  165W        W65425  42.272  25.683   0.338
  166W        W65426  33.928   2.726   2.302
  167W        W65427  29.600  18.935  12.379
  168W        W65428   2.823  35.526  14.725
  169W        W65429   8.740  14.080  14.279
  170W        W65430   0.844  34.669   3.217
  171W        W65431  25.733   8.850   0.420
  172W        W65432  30.426  23.648  11.142
  173W        W65433  35.594  16.668  14.447
  174W        W65434   2.817  27.473  13.322
  175W        W65435  25.161  11.619  12.973
  176W        W65436  32.626  22.458   3.679
  177W        W65437   4.237  13.210   2.423
  178W        W65438   2.850  11.359   2.060
  179W        W65439  18.162  43.561   2.679
  180W        W65440  12.107  21.400  12.799
  181W        W65441   4.291  12.677  14.844
  182W        W65442  43.420  28.201   2.939
  183W        W65443   8.184  31.662   0.424
  184W        W65444   3.052  24.592   2.737
  185W        W65445   8.164   6.863   5.022
  186W        W65446  30.657  29.640  13.804
  187W        W65447  18.012  42.250  12.466
  188W        W65448   3.372  17.074  14.000
  189W        W65449  27.806  10.297   5.108
  190W        W65450  11.159  37.557  12.560
  191W        W65451  38.914  43.193  13.876
  192W        W65452  37.614  14.096   4.233
  193W        W65453   3.190   7.239   1.858
  194W        W65454  35.426  26.773   3.290
  195W        W65455  26.402  31.011   1.463
  196W        W65456  34.497  23.797  10.697
  197W        W65457   4.880  25.162  10.708
  198W        W65458  34.078  43.908   2.622
  199W        W65459  35.041   7.694   0.448
  200W        W65460   4.343  41.690  10.384
  201W        W65461  43.836  34.603   1.464
  202W        W65462  39.766  20.792   0.332
  203W        W65463  41.133  16.854   2.138
  204W        W65464  34.831  25.502  13.402
  205W        W65465  19.501  18.459   1.884
  206W        W65466  20.001   3.491   0.458
  207W        W65467  28.859  19.109   1.696
  208W        W65468   2.977   4.500  12.444
  209W        W65469  40.403  39.507   3.985
  210W        W65470   6.501  22.614  10.340
  211W        W65471  34.720  27.608  10.881
  212W        W65472   6.196   8.325  13.560
  213W        W65473  29.842  42.462   1.135
  214W        W65474   6.951  10.636   2.322
  215W        W65475   2.517  19.747   5.050
  216W        W65476   5.818  12.643   2.900
  217W        W65477  33.000  20.666   4.405
  218W        W65478  33.930  39.946  14.409
  219W        W65479  36.748  37.911   0.835
  220W        W65480  34.357  39.288   1.499
  221W        W65481   8.370  44.355   2.916
  222W        W65482  15.976  26.111  11.955
  223W        W65483  24.416   1.820   2.215
  224W        W65484   8.342   8.661  11.082
  225W        W65485   8.498  43.721  12.049
  226W        W65486   9.408   5.845  12.007
  227W        W65487  43.724  25.043   5.074
  228W        W65488   4.751  39.981   2.362
  229W        W65489  40.235   7.107  10.750
  230W        W65490  17.014   5.259  14.601
  231W        W65491  33.545  38.346  10.117
  232W        W65492  32.028   5.378   0.534
  233W        W65493  36.614  30.452  13.558
  234W        W65494  42.375   2.926  14.334
  235W        W65495   7.088  30.086  12.537
  236W        W65496   0.829   6.894  13.660
  237W        W65497  24.649  17.144  11.466
  238W        W65498  18.837   0.009  14.481
  239W        W65499  37.489  11.187  11.693
  240W        W65500  32.098  22.041   2.918
  241W        W65501   5.397  29.900  12.189
  242W        W65502   4.294  15.002   0.791
  243W        W65503  39.238   5.083   4.974
  244W        W65504   4.356  26.427  11.111
  245W        W65505  34.469  22.117   1.269
  246W        W65506  36.853  13.806  14.933
  247W        W65507  31.411  13.593  11.551
  248W        W65508   8.450  15.855  13.369
  249W        W65509   3.190  12.218   2.293
  250W        W65510  37.842  32.139  14.568
  251W        W65511  36.577  21.773  11.054
  252W        W65512   4.152  38.980  10.877
  253W        W65513  32.955  40.862   4.230
  254W        W65514   8.747  28.727   2.761
  255W        W65515  12.690  42.508   4.418
  256W        W65516   1.816  27.989  11.681
  257W        W65517  15.326   2.366   1.311
  258W        W65518  37.436   2.807   0.913
  259W        W65519  27.755  12.792  13.988
  260W        W65520  21.570  22.307  14.385
  261W        W65521  26.808  28.922  11.115
  262W        W65522  30.407  16.536  14.840
  263W        W65523   9.703  38.748  14.406
  264W        W65524  41.569   5.890  13.878
  265W        W65525  21.166  26.078   3.198
  266W        W65526  33.494  43.024  14.030
  267W        W65527  28.981  17.496  11.573
  268W        W65528  22.578  17.999   3.650
  269W        W65529  41.308  36.931  14.301
  270W        W65530  38.192  11.650   0.969
  271W        W65531  40.874   1.382  12.674
  272W        W65532  31.507  33.717   0.903
  273W        W65533  15.890  24.494   4.387
  274W        W65534  28.256  41.240   0.911
  275W        W65535   4.279  30.549  12.463
  276W        W65536  17.676  39.522   1.539
  277W        W65537  23.633   5.801   0.927
  278W        W65538  37.597   5.879   1.960
  279W        W65539  29.678   7.363  11.566
  280W        W65540  32.509  32.584  11.967
  281W        W65541  22.880  11.997   3.208
  282W        W65542   1.176   5.701  11.423
  283W        W65543  29.422   2.935   1.937
  284W        W65544  26.816  30.141  13.023
  285W        W65545  30.182   2.246   0.480
  286W        W65546   4.643  25.467  10.094
  287W        W65547   6.535  18.994   2.703
  288W        W65548  40.298  13.062   4.124
  289W        W65549   3.043  22.187   1.363
  290W        W65550  31.983  15.839  14.428
  291W        W65551  24.037  19.613  14.218
  292W        W65552  40.601  42.565  10.769
  293W        W65553  44.329   0.792   1.288
  294W        W65554  21.080  21.529   0.285
  295W        W65555  36.870  43.530   3.648
  296W        W65556   2.539  10.386   9.898
  297W        W65557  41.045   9.575   3.231
  298W        W65558   0.192  37.131  12.969
  299W        W65559  37.495  43.400  12.131
  300W        W65560  25.436  29.274   2.194
  301W        W65561  37.932  20.738   1.668
  302W        W65562  24.478   0.482  13.364
  303W        W65563  13.901  28.059   2.849
  304W        W65564  26.125   1.993  12.389
  305W        W65565  29.677  40.468   3.036
  306W        W65566   1.640  41.048   2.421
  307W        W65567   5.814  28.475  14.237
  308W        W65568   9.095  38.855  12.705
  309W        W65569  29.346  29.895   0.439
  310W        W65570  27.046   5.821   1.695
  311W        W65571   4.947  19.169   2.739
  312W        W65572   3.775  38.263  10.756
  313W        W65573  18.714   4.845   1.617
  314W        W65574   9.711   5.163  10.942
  315W        W65575  17.975  40.004  10.623
  316W        W65576  37.884  32.657   0.395
  317W        W65577  11.198  22.141  11.962
  318W        W65578   5.921   2.333   4.126
  319W        W65579  21.787   1.155   3.307
  320W        W65580   4.377  26.209   2.122
  321W        W65581   6.965  19.176   0.874
  322W        W65582  10.309  12.877   3.863
  323W        W65583  12.638  15.744  14.491
  324W        W65584  28.521  13.666   4.738
  325W        W65585  25.799  31.482   4.140
  326W        W65586  17.769  30.092  13.979
  327W        W65587  28.623  21.457   1.166
  328W        W65588  42.096  24.565   4.222
  329W        W65589  41.945  34.129   2.341
  330W        W65590  21.061  23.295   1.507
  331W        W65591  15.353  28.191   5.043
  332W        W65592   2.780  38.197  13.451
  333W        W65593  17.893   4.768   0.990
  334W        W65594  35.895  18.077   3.752
  335W        W65595  34.769  10.208  14.299
  336W        W65596  36.880  14.692  10.626
  337W        W65597   1.760  20.324  14.930
  338W        W65598   1.279  22.524   4.572
  339W        W65599  32.830  38.869   2.849
  340W        W65600  18.974  11.609  14.142
  341W        W65601  15.792  11.838  13.611
  342W        W65602   7.342  11.332  14.222
  343W        W65603  28.245  44.197   3.540
  344W        W65604  18.910  11.746   0.856
  345W        W65605   4.343   4.313  13.077
  346W        W65606   0.108   6.236   3.795
  347W        W65607  19.619  26.211  14.402
  348W        W65608   1.527   3.980   4.034
  349W        W65609  15.540  35.679   2.096
  350W        W65610   1.292  27.352  11.731
  351W        W65611   7.949  23.057  10.307
  352W        W65612  29.641  43.232   3.812
  353W        W65613  12.691  19.205   3.217
  354W        W65614   3.593  11.816  11.982
  355W        W65615  44.874  10.070   2.870
  356W        W65616  33.081  22.041   1.057
  357W        W65617   1.027  44.374   2.292
  358W        W65618  28.027  33.424   0.861
  359W        W65619  22.627   0.194   0.001
  360W        W65620  17.139  35.004  13.394
  361W        W65621   8.165  37.291   3.155
  362W        W65622  41.047  40.180  12.110
  363W        W65623  33.033  37.349  11.085
  364W        W65624  33.627  26.423   2.222
  365W        W65625  20.351  12.813   2.353
  366W        W65626   0.018   3.273  11.269
  367W        W65627  42.437  30.174   3.156
  368W        W65628  13.236  16.630  14.543
  369W        W65629  24.062   1.481  12.122
  370W        W65630  43.684  12.214   3.304
  371W        W65631   1.231  38.838  11.176
  372W        W65632   5.642   3.312   2.133
  373W        W65633  44.710  25.034   4.742
  374W        W65634  11.724  32.070   3.658
  375W        W65635   6.790  23.464  14.498
  376W        W65636  25.182  11.694  13.504
  377W        W65637  31.492  35.297  13.467
  378W        W65638  38.959  19.143   2.264
  379W        W65639   1.255   6.580  13.496
  380W        W65640  16.798  29.428   3.245
  381W        W65641  28.300  27.714  12.606
  382W        W65642  23.249  10.668   4.652
  383W        W65643  28.426   3.559   4.607
  384W        W65644  12.816  30.662  13.195
  385W        W65645  28.493   3.918  14.002
  386W        W65646  21.581  22.129   9.690
  387W        W65647  11.862  40.855   1.905
  388W        W65648  13.124  10.064   2.883
  389W        W65649   3.518  25.983   3.277
  390W        W65650  41.443  44.045  13.945
  391W        W65651  15.777  11.345   3.885
  392W        W65652  44.444  39.083   3.487
  393W        W65653  21.940  16.047   3.258
  394W        W65654   5.754  33.495   2.371
  395W        W65655   8.373   4.624   4.634
  396W        W65656  14.070  44.404  14.320
  397W        W65657  40.317   8.097  10.555
  398W        W65658  13.860  11.147   1.944
  399W        W65659  26.395  22.437   2.841
  400W        W65660  26.997   4.838  13.518
  401W        W65661   3.892  40.630  13.084
  402W        W65662  29.920  37.703  12.502
  403W        W65663  14.682  19.365  12.559
  404W        W65664  23.041  41.754  13.411
  405W        W65665  31.081  12.171   2.778
  406W        W65666  34.952  30.278   2.253
  407W        W65667  24.773  27.669   3.729
  408W        W65668   1.253   5.447   0.902
  409W        W65669   3.211  13.041  13.044
  410W        W65670  21.558  21.173  12.164
  411W        W65671  23.989  27.710  12.595
  412W        W65672  21.841  37.815  12.066
  413W        W65673   6.245  21.715  13.105
  414W        W65674  33.077  36.092  12.428
  415W        W65675  26.268   1.911   3.103
  416W        W65676  13.655  29.057  13.346
  417W        W65677   5.541   4.204  11.749
  418W        W65678  31.825  42.857  11.192
  419W        W65679  43.488  20.157   2.266
  420W        W65680  23.484  26.068   3.810
  421W        W65681  32.444  30.960   0.656
  422W        W65682  34.484  35.781   0.564
  423W        W65683  14.218  22.160   3.090
  424W        W65684  35.987  35.406  10.720
  425W        W65685  19.052   9.801  10.717
  426W        W65686  40.527  37.460   4.383
  427W        W65687  42.264   7.542   0.845
  428W        W65688  22.971  32.001  11.971
  429W        W65689  38.375  37.929  13.912
  430W        W65690  33.188   4.982  13.103
  431W        W65691  31.856  34.465   4.645
  432W        W65692  20.635  18.248  12.613
  433W        W65693  41.615   9.822  13.968
  434W        W65694   0.356  22.410  12.044
  435W        W65695  37.839  34.813   4.638
  436W        W65696  22.257   6.836   3.340
  437W        W65697  20.298  20.014  13.506
  438W        W65698  11.247  40.969  12.043
  439W        W65699  14.250  34.778  11.109
  440W        W65700  37.570  11.258  10.752
  441W        W65701  35.767  34.778   4.432
  442W        W65702  29.166  10.878  12.650
  443W        W65703  31.857   3.171  10.419
  444W        W65704  40.503   5.170  11.260
  445W        W65705  24.022   3.916   0.957
  446W        W65706   3.008  23.203  13.695
  447W        W65707   1.498  26.247  14.290
  448W        W65708  26.250  12.963   4.096
  449W        W65709  29.290  29.663  13.106
  450W        W65710  35.037  31.140   3.263
  451W        W65711   3.295  30.473  12.841
  452W        W65712  35.151  10.352  12.034
  453W        W65713   8.454   6.896  13.960
  454W        W65714  26.257   9.808   3.565
  455W        W65715  11.103  22.282   3.825
  456W        W65716  10.147  23.674  14.496
  457W        W65717  35.458  13.094   4.579
  458W        W65718  39.994  17.658   0.048
  459W        W65719  26.473  27.117   4.622
  460W        W65720  36.423   4.445   3.213
  461W        W65721  42.380  28.094  12.819
  462W        W65722   1.333  27.762  10.755
  463W        W65723  28.089  21.011  10.450
  464W        W65724  35.563  31.839  12.056
  465W        W65725  23.126  18.168   9.715
  466W        W65726  24.599  35.094   1.167
  467W        W65727  19.517  12.145  12.369
  468W        W65728  30.429   5.127   4.701
  469W        W65729  15.524  43.896   1.837
  470W        W65730   3.624  42.466  11.496
  471W        W65731  40.782  36.029   1.499
  472W        W65732  32.039  38.989   2.178
  473W        W65733   0.738  27.739  13.554
  474W        W65734   1.023  41.241   1.436
  475W        W65735   5.822  20.643   2.295
  476W        W65736  20.104  39.002   4.612
  477W        W65737  29.557   5.626   2.691
  478W        W65738   0.243   4.494   3.579
  479W        W65739  39.347  43.077   3.785
  480W        W65740  13.844   4.432  13.468
  481W        W65741   7.821   1.840  14.542
  482W        W65742  16.231  19.316   1.756
  483W        W65743  32.826  35.138  11.827
  484W        W65744  26.687  29.324  11.408
  485W        W65745  36.467  33.084   3.221
  486W        W65746  23.946  13.084   3.062
  487W        W65747  11.322  17.208  13.108
  488W        W65748  31.854  41.753  12.053
  489W        W65749   6.369  36.897   1.905
  490W        W65750  33.001  19.454   1.699
  491W        W65751  29.003  10.852   0.246
  492W        W65752   8.130  15.742  13.879
  493W        W65753  16.555  17.570  14.794
  494W        W65754  12.252   6.414  14.445
  495W        W65755   4.390  16.987   0.972
  496W        W65756  39.560  42.310   3.408
  497W        W65757  24.579  16.179  13.113
  498W        W65758   9.093  37.771   4.536
  499W        W65759  29.201  22.546   0.411
  500W        W65760   0.379  29.239  11.112
  501W        W65761  19.420  11.145  11.188
  502W        W65762  38.914   6.851  11.028
  503W        W65763   4.162   6.219  12.893
  504W        W65764  16.985  20.787   3.232
  505W        W65765  32.074   5.841  14.625
  506W        W65766   6.817  37.252   4.675
  507W        W65767  24.419  44.387  12.795
  508W        W65768  42.606  14.787  11.159
  509W        W65769  22.142  33.934  10.288
  510W        W65770  13.736  29.520   3.100
  511W        W65771   7.866  25.646  10.358
  512W        W65772  21.948  25.460  11.107
  513W        W65773  29.496  38.930  14.869
  514W        W65774  43.962  34.843   0.634
  515W        W65775  13.632  21.966   1.566
  516W        W65776  43.599  26.104  12.027
  517W        W65777  24.791  38.939   0.698
  518W        W65778  33.938   4.251  11.399
  519W        W65779  16.167  24.412  13.652
  520W        W65780  41.711  17.113  13.794
  521W        W65781  44.388  43.210   1.934
  522W        W65782  22.288  40.727   1.386
  523W        W65783   0.788  16.219   3.616
  524W        W65784  43.972  23.458   0.474
  525W        W65785  44.229   9.113  13.353
  526W        W65786   7.505   0.918  14.632
  527W        W65787  21.675   6.855  10.715
  528W        W65788  26.019  31.860   4.699
  529W        W65789  36.820  11.714  11.663
  530W        W65790  39.007   1.252  14.434
  531W        W65791  21.971  24.408   4.375
  532W        W65792   4.457  12.274   0.558
  533W        W65793   0.773  24.255   4.127
  534W        W65794  13.695  27.379  13.363
  535W        W65795  33.625   0.592  10.972
  536W        W65796  38.065  20.067  14.674
  537W        W65797   1.078  34.251  12.873
  538W        W65798  40.336  17.291  11.184
  539W        W65799  18.191  13.239  10.716
  540W        W65800  37.350   6.580   2.789
  541W        W65801  17.785  43.306   0.486
  542W        W65802  19.267  26.393   3.167
  543W        W65803   9.106   8.711  13.069
  544W        W65804   1.727   8.394   3.282
  545W        W65805  34.784   7.070   0.627
  546W        W65806  38.532   6.303  14.570
  547W        W65807  39.774   4.864  12.556
  548W        W65808  29.069  10.341   2.003
  549W        W65809  40.158  37.079   0.148
  550W        W65810  15.900   6.699  14.932
  551W        W65811  22.751  19.495  14.422
  552W        W65812  31.503  28.497   4.612
  553W        W65813  22.524  23.008   1.651
  554W        W65814   6.821  18.711   4.290
  555W        W65815  37.053   7.187  14.088
  556W        W65816  31.604  15.572   1.728
  557W        W65817  41.742  38.282  14.322
  558W        W65818  15.645   0.706   2.158
  559W        W65819  27.194  32.468  13.016
  560W        W65820  39.426  44.193   1.373
  561W        W65821  34.864  22.036  14.775
  562W        W65822  17.201  28.953   4.219
  563W        W65823  14.115  19.615   2.573
  564W        W65824  10.081  19.741   1.269
  565W        W65825  26.295  40.878   1.334
  566W        W65826  14.624  40.614   5.099
  567W        W65827  22.738  26.672   3.046
  568W        W65828   6.473  10.324   1.143
  569W        W65829   1.948   2.486   2.351
  570W        W65830  43.504  18.927   1.423
  571W        W65831   9.962   1.202  12.025
  572W        W65832   4.261  12.380  12.972
  573W        W65833   6.900  41.324  14.338
  574W        W65834  31.376  35.462   4.436
  575W        W65835  17.651  24.503  14.764
  576W        W65836  44.400  28.677  14.965
  577W        W65837  20.751  10.294  11.876
  578W        W65838   5.204  31.207   1.433
  579W        W65839  27.751  19.641   2.875
  580W        W65840  16.750  18.335   2.439
  581W        W65841   2.420  44.200  12.740
  582W        W65842  23.649  29.966  14.482
  583W        W65843  18.235   9.459  11.835
  584W        W65844  44.918  25.532  14.452
  585W        W65845   0.734   0.583   1.928
  586W        W65846  11.861  20.750  13.464
  587W        W65847  14.075  26.486   3.221
  588W        W65848  36.022  15.673   0.466
  589W        W65849  25.181  15.742   3.995
  590W        W65850  41.413   3.512   2.331
  591W        W65851  36.300  34.182   3.626
  592W        W65852  22.440  13.768   0.961
  593W        W65853  36.263  14.880  11.747
  594W        W65854  19.078  22.417   4.794
  595W        W65855   4.238  29.112   0.366
  596W        W65856  21.631   4.347  10.684
  597W        W65857  25.950  35.174  12.870
  598W        W65858  37.096  15.862   4.074
  599W        W65859  25.536  43.424   3.789
  600W        W65860  33.953  14.394   3.102
  601W        W65861  40.383   0.515   4.694
  602W        W65862  39.623  39.320  14.842
  603W        W65863  41.550  43.467  11.517
  604W        W65864  27.964   6.714  12.440
  605W        W65865  29.533  33.354   1.658
  606W        W65866  43.790  27.027   4.475
  607W        W65867  11.174  23.504  14.428
  608W        W65868   2.663  18.123  13.040
  609W        W65869  11.514   7.253   0.861
  610W        W65870  20.556  24.725   4.096
  611W        W65871  16.185   5.578  12.246
  612W        W65872   0.210  33.102   2.257
  613W        W65873  32.863  13.099   3.349
  614W        W65874  43.663  22.833  14.805
  615W        W65875  14.291  14.095  10.847
  616W        W65876  36.637  28.514  11.416
  617W        W65877   1.392  14.853   1.849
  618W        W65878  32.909  43.915   1.830
  619W        W65879  26.976   8.345   0.567
  620W        W65880  10.427  32.378   3.546
  621W        W65881  10.898  28.070  11.881
  622W        W65882  30.390  12.516   3.829
  623W        W65883  41.156  25.712   3.184
  624W        W65884  38.695   6.947   2.451
  625W        W65885  39.779  43.874   1.047
  626W        W65886  25.658  10.650   3.561
  627W        W65887  29.572  31.141  10.685
  628W        W65888  14.956  29.565  11.477
  629W        W65889  18.182  16.086   1.017
  630W        W65890  31.040  24.951  12.585
  631W        W65891   7.193  28.003   2.760
  632W        W65892   1.823  34.011  11.809
  633W        W65893  30.385  32.205  13.909
  634W        W65894  35.977  38.468   0.260
  635W        W65895   4.193   3.160  11.523
  636W        W65896  34.409  17.168   1.931
  637W        W65897   7.417   7.834   2.175
  638W        W65898  19.214   9.670   0.533
  639W        W65899  36.975  15.710   1.969
  640W        W65900  31.555   1.015  10.734
  641W        W65901  31.748  17.204  12.544
  642W        W65902  15.578  41.533   0.774
  643W        W65903  26.108   8.492  13.005
  644W        W65904  11.722  12.871  14.429
  645W        W65905   2.360   9.445  11.771
  646W        W65906   5.686  18.194  14.500
  647W        W65907  16.268  44.984  10.844
  648W        W65908  21.350   6.276  13.075
  649W        W65909   1.362  24.559   1.085
  650W        W65910  31.174  36.971   2.715
  651W        W65911  22.552  38.403  12.929
  652W        W65912   7.660  26.031   2.725
  653W        W65913  35.567  22.769   1.838
  654W        W65914  39.315  10.826  14.492
  655W        W65915   7.389  38.025  12.841
  656W        W65916  42.317   8.146  12.947
  657W        W65917  25.589  39.482   0.447
  658W        W65918  11.320  31.750   2.732
  659W        W65919  39.716  13.168   2.327
  660W        W65920   8.313  10.381  13.932
  661W        W65921  25.040   1.419   2.901
  662W        W65922  31.493  17.238   2.660
  663W        W65923   1.933   3.320  14.971
  664W        W65924  43.215   1.817  12.066
  665W        W65925  16.153  13.598   4.575
  666W        W65926   9.480   2.942  11.817
  667W        W65927  30.556  33.184   1.738
  668W        W65928   8.098  20.266  13.560
  669W        W65929  33.463  28.258   0.533
  670W        W65930  35.124  40.114  13.041
  671W        W65931  43.869  13.062   2.689
  672W        W65932   6.652  14.146   4.958
  673W        W65933  13.495  22.532   4.098
  674W        W65934  28.237  24.624  14.970
  675W        W65935  26.696   9.783  12.910
  676W        W65936  39.469  24.427   4.545
  677W        W65937  32.776   1.600   2.322
  678W        W65938  22.106   2.732   2.697
  679W        W65939  22.486   3.737  13.785
  680W        W65940  36.282  11.116   4.155
  681W        W65941  34.163  11.062  13.237
  682W        W65942  21.784   5.137  14.897
  683W        W65943   4.673  42.371   0.778
  684W        W65944  42.005  18.841  10.543
  685W        W65945   9.689  37.085   1.940
  686W        W65946  36.905  37.914  13.931
  687W        W65947  37.946   3.840  12.048
  688W        W65948  30.676  35.080   4.662
  689W        W65949   8.791  23.036  12.826
  690W        W65950  32.931  27.556   4.108
  691W        W65951  44.843  38.399   0.759
  692W        W65952   0.764  28.172   1.789
  693W        W65953  26.473  11.755  12.528
  694W        W65954   6.212  42.970   2.814
  695W        W65955   7.871  34.935  13.193
  696W        W65956  12.539  41.514   1.840
  697W        W65957  24.224  27.567   2.823
  698W        W65958   4.814  14.397   3.208
  699W        W65959  32.224  34.196   2.611
  700W        W65960  32.488   0.218  13.374
  701W        W65961  44.908  17.530   3.936
  702W        W65962  15.456  43.928  10.736
  703W        W65963  22.390   7.034  12.565
  704W        W65964  38.572   1.429  11.991
  705W        W65965   2.882  36.599  13.538
  706W        W65966  10.306  25.744  12.825
  707W        W65967  21.189   0.794  11.487
  708W        W65968  13.203   2.063   0.682
  709W        W65969  17.759  33.471   4.588
  710W        W65970  38.629   8.558   4.532
  711W        W65971  38.970   0.145   1.224
  712W        W65972  15.367  38.469  13.690
  713W        W65973   4.637  43.464   3.169
  714W        W65974  37.988  26.885  12.889
  715W        W65975  32.013  34.841  11.947
  716W        W65976   7.005  42.778  11.610
  717W        W65977  35.002  23.780  11.592
  718W        W65978  41.789  37.890   4.589
  719W        W65979   9.790  32.396  13.951
  720W        W65980  40.443  40.979  10.555
  721W        W65981   3.113  23.586  11.360
  722W        W65982  24.419  43.808  14.967
  723W        W65983  15.834  11.336   2.017
  724W        W65984   5.023  21.747   4.579
  725W        W65985  26.433  18.743  14.383
  726W        W65986  40.774  10.808   0.502
  727W        W65987  37.739  33.868   2.758
  728W        W65988  28.520  36.066   2.160
  729W        W65989  29.015  22.813   0.832
  730W        W65990  28.513  26.661  13.544
  731W        W65991  39.975  32.549  10.684
  732W        W65992  14.562  23.607   4.830
  733W        W65993  10.449  22.779   2.184
  734W        W65994  18.483  26.207  12.388
  735W        W65995  42.325  16.327  14.906
  736W        W65996  37.121  22.461   3.550
  737W        W65997   7.265  40.840   3.162
  738W        W65998   4.345   6.233   1.965
  739W        W65999  44.375  27.110  13.521
  740W        W66000  35.671  35.900   3.200
  741W        W66001  36.983  32.591  13.592
  742W        W66002   8.492  41.736   5.155
  743W        W66003  24.517  24.763   4.072
  744W        W66004  28.905  16.281  13.545
  745W        W66005  26.049  25.981  13.482
  746W        W66006  38.386   0.650   3.035
  747W        W66007  34.805  23.597  11.133
  748W        W66008   8.834   4.650  11.133
  749W        W66009   9.805   7.876   5.019
  750W        W66010   7.787  31.306   3.632
  751W        W66011  28.492  14.097   0.533
  752W        W66012  25.563  25.518   2.655
  753W        W66013   8.902   7.250  12.540
  754W        W66014  36.795  19.324  10.106
  755W        W66015  15.479   1.548   1.856
  756W        W66016   8.011  32.477  12.902
  757W        W66017  43.158  30.927   4.654
  758W        W66018  16.292  10.705   1.522
  759W        W66019  37.520  25.229   3.053
  760W        W66020  37.986  31.159   1.314
  761W        W66021  12.797  30.233   3.143
  762W        W66022  37.982  21.752  10.780
  763W        W66023  22.747  35.436   0.334
  764W        W66024  40.504  14.700   1.892
  765W        W66025   9.861  38.445  12.908
  766W        W66026  12.826   9.157  14.441
  767W        W66027  35.563  12.224   3.043
  768W        W66028  10.258  22.033  12.477
  769W        W66029  14.778   5.839   2.254
  770W        W66030  34.009  33.718  14.961
  771W        W66031  27.232   1.324   3.562
  772W        W66032  13.648  15.701   2.291
  773W        W66033  35.558   1.958   3.213
  774W        W66034  44.411  26.645   0.257
  775W        W66035  23.150   4.234   3.218
  776W        W66036  44.797  20.280  13.491
  777W        W66037  40.181  22.744  11.596
  778W        W66038  43.838  25.341   4.620
  779W        W66039  35.065   6.621  13.718
  780W        W66040  32.605  39.906  13.113
  781W        W66041  24.172  31.585  12.376
  782W        W66042  13.330  13.955   4.504
  783W        W66043  39.438  43.388  11.481
  784W        W66044  15.003  11.602   2.354
  785W        W66045   2.305  15.859  13.550
  786W        W66046  17.105  33.680   4.040
  787W        W66047  15.689  32.564  13.351
  788W        W66048  40.358  28.959   1.720
  789W        W66049   8.397  10.045  12.082
  790W        W66050   4.973  26.050  14.388
  791W        W66051  10.264  33.145   3.192
  792W        W66052   1.265  15.672   5.130
  793W        W66053  28.521  38.358   3.782
  794W        W66054  27.199   8.271   4.749
  795W        W66055  40.032   2.277  13.032
  796W        W66056   7.561   4.383  14.832
  797W        W66057  36.601  27.184  11.122
  798W        W66058  35.019   4.362  10.702
  799W        W66059  14.249  33.094  12.043
  800W        W66060  13.945  36.146   9.555
  801W        W66061   4.123   9.908   0.380
  802W        W66062  31.980   8.872  13.401
  803W        W66063  22.944  10.629  10.940
  804W        W66064  19.533  19.115  14.083
  805W        W66065   7.014  32.128   0.787
  806W        W66066  10.857  22.702  12.540
  807W        W66067  41.018  27.117  14.339
  808W        W66068   5.883  14.657   2.669
  809W        W66069  34.040   9.622  13.386
  810W        W66070  25.989  44.278  14.289
  811W        W66071  26.369  41.399   1.416
  812W        W66072   4.456   5.877   4.203
  813W        W66073  17.544  14.883  14.324
  814W        W66074  12.373  11.743  10.372
  815W        W66075  23.556  14.666  10.799
  816W        W66076  42.724  34.577  13.806
  817W        W66077  40.218   0.819  11.609
  818W        W66078  27.108  37.302   2.724
  819W        W66079  33.338  37.859   1.391
  820W        W66080  17.990  43.977  11.389
  821W        W66081   6.183  34.608   4.215
  822W        W66082  19.696  16.266  11.213
  823W        W66083  28.546  26.854  10.213
  824W        W66084  18.254  32.020  11.268
  825W        W66085  40.671  28.055  13.862
  826W        W66086  13.166   9.259   3.638
  827W        W66087  21.658   9.783   1.903
  828W        W66088  18.375  17.036   3.310
  829W        W66089   8.921   6.680   4.409
  830W        W66090   2.713  38.362  11.636
  831W        W66091  18.077   2.841  12.622
  832W        W66092   1.736  38.857  11.174
  833W        W66093   5.843  32.124   2.315
  834W        W66094   1.810  31.364  13.359
  835W        W66095  39.938  23.583   3.790
  836W        W66096  36.880  36.957   0.927
  837W        W66097   5.036  18.082  13.550
  838W        W66098   5.864   7.804   2.254
  839W        W66099  30.097  36.925  13.079
  840W        W66100  15.723  29.031  13.473
  841W        W66101  33.634  31.146  14.408
  842W        W66102  34.427  34.065   0.985
  843W        W66103   8.804  14.524   2.237
  844W        W66104   2.767  23.444  11.968
  845W        W66105  28.056  24.995   3.944
  846W        W66106  34.639  39.085   5.122
  847W        W66107  23.442  29.893  14.985
  848W        W66108   2.881  37.354  10.861
  849W        W66109  37.000  21.509   2.514
  850W        W66110  11.051  25.175   0.265
  851W        W66111  33.086  32.511   4.615
  852W        W66112  11.468   3.338  12.298
  853W        W66113  43.597  18.040  10.690
  854W        W66114  33.970  30.622  12.045
  855W        W66115  11.174  13.889   0.380
  856W        W66116  37.915  17.894   3.087
  857W        W66117   9.793   2.281  14.290
  858W        W66118  42.267  37.855   3.643
  859W        W66119  28.551   0.718  12.831
  860W        W66120  28.209  30.025   9.590
  861W        W66121  29.494  31.633  10.587
  862W        W66122  15.146  19.529  12.261
  863W        W66123  33.718  43.607   1.911
  864W        W66124  41.162  22.416   0.206
  865W        W66125  22.063  10.836   1.487
  866W        W66126  21.472  27.974  11.131
  867W        W66127   2.417  11.783  14.160
  868W        W66128  20.548  43.838   1.926
  869W        W66129  18.170  18.918   3.723
  870W        W66130   9.137  27.198   3.007
  871W        W66131  27.050  12.139  12.588
  872W        W66132   3.506  17.276   1.373
  873W        W66133  16.400  11.783   0.843
  874W        W66134  38.786  35.542   4.176
  875W        W66135  17.025   3.373  13.573
  876W        W66136  10.781   3.903  10.386
  877W        W66137  26.965   2.814   3.145
  878W        W66138  10.255  22.242  12.003
  879W        W66139  35.178  20.990   4.991
  880W        W66140  16.066   5.124   3.690
  881W        W66141  29.904  13.858  14.328
  882W        W66142   4.688  10.193   0.915
  883W        W66143  24.466   5.616  13.851
  884W        W66144  16.333  24.922  13.452
  885W        W66145  39.608  18.510  11.657
  886W        W66146  21.612  24.232   0.846
  887W        W66147  32.248  29.538   0.262
  888W        W66148  20.178   0.330  13.930
  889W        W66149  32.971  10.139  14.808
  890W        W66150  36.485  21.031   3.170
  891W        W66151  10.341  18.402   5.040
  892W        W66152   4.053  36.808   4.763
  893W        W66153  19.105  10.609   2.094
  894W        W66154  37.220   7.159  14.827
  895W        W66155   4.770   1.293   4.239
  896W        W66156  41.230  38.017   1.908
  897W        W66157  35.966  23.056   3.597
  898W        W66158  25.446  19.917   5.586
  899W        W66159  26.442  40.502  10.468
  900W        W66160  20.513  17.794  11.563
  901W        W66161  33.704  12.273   4.638
  902W        W66162  23.274  26.025  14.963
  903W        W66163  13.319  15.040  14.296
  904W        W66164  32.529  19.058  12.562
  905W        W66165   7.264  32.113  14.530
  906W        W66166  27.944  12.626  14.508
  907W        W66167  28.333   8.821   3.201
  908W        W66168  39.064  22.135  14.861
  909W        W66169   5.264  24.762  10.671
  910W        W66170   3.003  30.802  13.115
  911W        W66171   9.329  21.983   2.326
  912W        W66172   8.946  25.014   5.441
  913W        W66173  14.437  11.822  14.803
  914W        W66174  21.149  37.155  12.208
  915W        W66175  26.964  39.839  13.873
  916W        W66176  38.056  23.478   2.140
  917W        W66177   7.428  44.282   1.895
  918W        W66178  12.228  17.229   2.859
  919W        W66179  12.709  38.041   5.113
  920W        W66180  26.568  33.990   0.761
  921W        W66181  17.069  18.995   3.405
  922W        W66182   4.354  26.477   3.572
  923W        W66183  12.829  36.714   3.517
  924W        W66184  44.005  26.671   2.561
  925W        W66185   2.665  31.642   2.238
  926W        W66186  22.670  14.298  11.625
  927W        W66187  29.120  17.701  12.060
  928W        W66188  14.237   6.931   3.518
  929W        W66189  15.356  42.030  13.266
  930W        W66190  10.653  16.680   4.327
  931W        W66191  15.585  24.752   3.541
  932W        W66192  40.920  20.565  11.020
  933W        W66193  22.089  11.348  14.255
  934W        W66194  41.601  11.492  13.009
  935W        W66195  11.135  25.195  12.925
  936W        W66196  21.025  10.010   4.151
  937W        W66197   1.296  23.064  11.193
  938W        W66198  44.031  14.081  13.088
  939W        W66199  24.148  40.306   2.732
  940W        W66200  38.064  20.524  14.916
  941W        W66201  27.181   7.118   3.237
  942W        W66202   0.402  26.159   1.177
  943W        W66203  19.855  11.964   4.621
  944W        W66204  10.096  31.910  12.512
  945W        W66205  25.564   1.896  13.838
  946W        W66206  23.002  30.531   4.147
  947W        W66207   1.347  31.640  11.126
  948W        W66208  21.802  27.564  11.139
  949W        W66209  35.816  17.110  13.023
  950W        W66210  22.220  19.664   1.146
  951W        W66211  41.650  15.832  12.946
  952W        W66212  40.168  30.140   1.289
  953W        W66213   1.340   1.356  11.628
  954W        W66214  16.414   0.790   4.634
  955W        W66215   5.186  36.168   1.206
  956W        W66216  21.952  10.342   1.636
  957W        W66217   4.470  40.404   1.919
  958W        W66218   2.454   7.951  14.419
  959W        W66219  20.183  15.266   1.392
  960W        W66220  27.405  28.078   2.295
  961W        W66221   7.421  30.001  13.804
  962W        W66222  29.988  38.448  14.331
  963W        W66223  17.765  40.473  10.542
  964W        W66224   0.161  24.140   1.388
  965W        W66225  44.659  12.358  14.970
  966W        W66226  17.591   3.642   3.239
  967W        W66227  23.140  44.507  10.919
  968W        W66228   4.620  26.451   1.217
  969W        W66229   5.663   6.252  14.875
  970W        W66230  25.436  16.647   4.195
  971W        W66231   1.688  13.034   3.708
  972W        W66232  17.659  30.892   2.332
  973W        W66233   9.855  26.679  12.226
  974W        W66234  19.266  18.133   3.271
  975W        W66235  22.474  23.673  11.900
  976W        W66236  20.227  30.895  11.539
  977W        W66237  42.299  44.360   4.123
  978W        W66238  28.510   9.331  12.008
  979W        W66239  30.871  15.281   4.275
  980W        W66240   3.442  41.658  11.206
  981W        W66241  19.775  17.096   4.066
  982W        W66242   9.586  33.471   0.726
  983W        W66243  10.840  32.109   3.711
  984W        W66244  10.511  14.054   0.353
  985W        W66245  25.522  44.446  14.469
  986W        W66246  44.893  32.144  10.741
  987W        W66247  25.538  33.674   1.949
  988W        W66248   1.325  27.465  13.007
  989W        W66249  31.027   7.699   1.862
  990W        W66250  40.036  30.101  11.255
  991W        W66251   2.302   3.914  11.073
  992W        W66252  29.972  43.165   2.183
  993W        W66253  10.703  27.939   1.363
  994W        W66254  22.087  21.290   1.221
  995W        W66255  30.178  30.446   2.256
  996W        W66256   1.766  20.206  13.032
  997W        W66257  26.601  15.236   2.870
  998W        W66258  36.714  29.105   1.948
  999W        W66259   0.691  41.467  14.190
 1000W        W66260  22.592  39.570  12.351
 1001W        W66261   8.880  25.956  13.687
 1002W        W66262  39.676   1.407  11.170
 1003W        W66263  20.527  18.391   4.195
 1004W        W66264  16.585  14.434  13.806
 1005W        W66265  40.422  22.608  10.714
 1006W        W66266  18.730  41.299   1.673
 1007W        W66267  28.529  29.070   1.272
 1008W        W66268  33.620  33.062  12.918
 1009W        W66269  34.135  23.502   0.386
 1010W        W66270  43.421   4.719  12.537
 1011W        W66271  10.995   3.625   4.930
 1012W        W66272  32.186  27.659  10.711
 1013W        W66273   7.633   6.823   2.827
 1014W        W66274   2.081  36.375   4.534
 1015W        W66275  25.524   3.817  14.870
 1016W        W66276  43.233  33.538  13.910
 1017W        W66277  28.000  30.243  11.079
 1018W        W66278  35.792  25.930   5.702
 1019W        W66279  22.676  40.046   1.762
 1020W        W66280  26.685  34.205  13.915
 1021W        W66281  12.878   7.946   1.935
 1022W        W66282  15.758  41.308   3.881
 1023W        W66283  10.228  43.534   2.800
 1024W        W66284  31.704  14.739   4.717
 1025W        W66285   0.359   8.986  12.663
 1026W        W66286  43.138   7.152   4.139
 1027W        W66287   7.327  10.176  12.020
 1028W        W66288   0.337  10.394   2.708
 1029W        W66289  19.084  27.138  11.938
 1030W        W66290  33.194  38.420   4.338
 1031W        W66291  41.008  40.927   4.288
 1032W        W66292  16.490  36.644   4.284
 1033W        W66293  36.492  44.735   1.756
 1034W        W66294   0.525  20.285   3.505
 1035W        W66295  41.361  26.029  11.556
 1036W        W66296  27.957  15.139  10.411
 1037W        W66297  10.063  16.094  13.166
 1038W        W66298   4.155  27.166  11.549
 1039W        W66299  26.059  24.666  14.999
 1040W        W66300  33.021  23.121  10.689
 1041W        W66301  44.429   5.428   0.533
 1042W        W66302   4.409  32.316   0.279
 1043W        W66303  20.301  26.034  12.988
 1044W        W66304  16.204   1.863   1.119
 1045W        W66305  18.527  10.451  13.376
 1046W        W66306   2.414  17.183  14.424
 1047W        W66307  33.171  33.987   1.071
 1048W        W66308  44.845  31.932   4.095
 1049W        W66309  15.631  12.210  11.022
 1050W        W66310  37.867   5.482  11.192
 1051W        W66311   3.826  18.092  11.263
 1052W        W66312  33.633  28.704  13.032
 1053W        W66313  17.401  41.262   2.900
 1054W        W66314  25.622   7.686  10.054
 1055W        W66315  37.493  43.458   2.355
 1056W        W66316  31.288  28.361  13.823
 1057W        W66317  35.368  21.868   4.190
 1058W        W66318  12.627  12.192  10.872
 1059W        W66319  33.973  31.596  13.325
 1060W        W66320  31.824  10.202   2.257
 1061W        W66321  14.189  33.127  13.764
 1062W        W66322  33.935   3.726  11.377
 1063W        W66323   3.509  14.285   3.062
 1064W        W66324  20.739   7.209   1.747
 1065W        W66325  10.592  15.317  13.559
 1066W        W66326  31.170  27.093   1.400
 1067W        W66327  34.925   2.869   2.321
 1068W        W66328  41.982   2.927   2.477
 1069W        W66329  13.888  38.382   0.990
 1070W        W66330  13.408  44.006  13.347
 1071W        W66331  32.917   5.389  12.904
 1072W        W66332  23.256   6.574  12.083
 1073W        W66333  28.721   1.710  12.640
 1074W        W66334  33.323  12.898   3.405
 1075W        W66335  30.278  43.278   1.308
 1076W        W66336   4.401   6.354   0.354
 1077W        W66337  12.245  42.603  12.850
 1078W        W66338  31.580   7.367   4.017
 1079W        W66339  17.501  17.646  13.046
 1080W        W66340  32.948   4.378   2.787
 1081W        W66341  22.566  42.805   2.662
 1082W        W66342  35.067  19.997  12.454
 1083W        W66343  33.324  18.100  13.994
 1084W        W66344  44.980   6.344  12.716
 1085W        W66345  20.964  10.689   4.622
 1086W        W66346  43.960  16.699   2.902
 1087W        W66347  20.724  19.413   4.173
 1088W        W66348  15.240  41.883  11.747
 1089W        W66349  20.336  20.554   3.310
 1090W        W66350  31.355   6.063  13.523
 1091W        W66351  44.549   3.465  14.553
 1092W        W66352  30.015  18.745  13.568
 1093W        W66353  44.416  24.091   1.226
 1094W        W66354  30.048   9.823  10.604
 1095W        W66355  13.703  38.528  13.969
 1096W        W66356  33.617  19.169  11.750
 1097W        W66357  27.907  15.243   4.675
 1098W        W66358  42.422  19.905   2.929
 1099W        W66359  25.727   6.256  13.568
 1100W        W66360   0.021  21.122   0.012
 1101W        W66361  18.036  15.849   1.849
 1102W        W66362  35.127   0.269  14.435
 1103W        W66363  19.486  16.864   2.641
 1104W        W66364  11.377  30.925   3.345
 1105W        W66365  41.879   9.328  11.558
 1106W        W66366   5.097  21.634   2.738
 1107W        W66367  26.062  10.954  13.173
 1108W        W66368  28.590  25.829   2.753
 1109W        W66369  41.498  33.613  14.585
 1110W        W66370  25.962  16.436  14.569
 1111W        W66371  20.591  21.102   3.522
 1112W        W66372  34.132  21.233  11.132
 1113W        W66373  42.860  15.225   0.956
 1114W        W66374  37.891   7.190   3.638
 1115W        W66375  10.849  30.543   5.754
 1116W        W66376  15.726  26.550   0.787
 1117W        W66377   2.009   1.985  10.716
 1118W        W66378  34.149  15.052  12.057
 1119W        W66379  34.480  36.607  14.057
 1120W        W66380  19.769   7.178  10.754
 1121W        W66381  36.949  18.041  11.156
 1122W        W66382  13.708  10.845   3.211
 1123W        W66383   0.555  42.315  14.396
 1124W        W66384   3.698  12.607   4.841
 1125W        W66385  27.960   9.762  12.437
 1126W        W66386  23.180  20.032   3.957
 1127W        W66387  44.474  41.628   2.388
 1128W        W66388   5.721  21.983   0.865
 1129W        W66389   3.363  30.991  12.774
 1130W        W66390   2.384  19.320  14.319
 1131W        W66391  17.731   8.707  12.807
 1132W        W66392   8.141  12.251  10.992
 1133W        W66393  44.879  18.789   0.048
 1134W        W66394  27.020  19.706   2.200
 1135W        W66395  42.423  18.145  14.339
 1136W        W66396  24.733  29.740   3.966
 1137W        W66397  19.011  27.069   4.279
 1138W        W66398  39.349  41.227  14.608
 1139W        W66399  18.507   2.267   3.149
 1140W        W66400  30.881   0.543  13.359
 1141W        W66401  34.360  11.828   0.317
 1142W        W66402   1.702  22.187   3.546
 1143W        W66403  37.341  16.700  11.655
 1144W        W66404   6.824  43.200  12.906
 1145W        W66405   5.392  25.417  12.051
 1146W        W66406   1.905  22.986   1.295
 1147W        W66407  42.973  21.513   2.742
 1148W        W66408   2.472   0.233   2.497
 1149W        W66409  35.313  24.062  10.625
 1150W        W66410  33.437  33.396  12.204
 1151W        W66411  32.930   7.485   0.727
 1152W        W66412  20.180   6.366   2.603
 1153W        W66413   5.763  32.207   1.128
 1154W        W66414  38.439  19.985   4.188
 1155W        W66415  43.799  15.637   2.461
 1156W        W66416  10.107  25.133   4.786
 1157W        W66417  23.006  36.040   0.713
 1158W        W66418   0.678  17.875   1.254
 1159W        W66419  39.844   0.829   4.146
 1160W        W66420  13.795  19.771  11.842
 1161W        W66421  29.424  37.429  10.771
 1162W        W66422  24.953   8.069   4.479
 1163W        W66423  10.806  40.220   2.576
 1164W        W66424  10.253   5.457  11.527
 1165W        W66425   0.994  34.625   1.879
 1166W        W66426  11.694   8.888   4.811
 1167W        W66427  20.036  29.091   1.314
 1168W        W66428  11.856  35.566   3.926
 1169W        W66429  43.712  28.344  10.979
 1170W        W66430   3.935  44.784  14.392
 1171W        W66431  25.419   9.155   1.486
 1172W        W66432   1.898   9.183   2.838
 1173W        W66433  15.154  41.030   4.278
 1174W        W66434   0.805  16.240   3.074
 1175W        W66435  13.763  13.286  12.569
 1176W        W66436   2.279  18.275   0.846
 1177W        W66437  33.612  17.343   2.686
 1178W        W66438  28.683   4.047  14.475
 1179W        W66439  30.441  32.515  13.473
 1180W        W66440  40.831  23.270  10.487
 1181W        W66441   4.705  36.639   4.236
 1182W        W66442  40.577  23.533  13.219
 1183W        W66443  23.436  18.148  14.363
 1184W        W66444  42.591  16.561   3.583
 1185W        W66445  11.530  20.762   0.833
 1186W        W66446  16.006  11.799  12.535
 1187W        W66447   5.246  31.803   2.877
 1188W        W66448   1.062  38.881   4.677
 1189W        W66449   5.768  30.207   1.974
 1190W        W66450  30.168  29.095  13.081
 1191W        W66451  30.582  36.406  14.834
 1192W        W66452  36.522  18.599   1.275
 1193W        W66453  26.484  23.317  11.232
 1194W        W66454   9.296  40.258  10.792
 1195W        W66455  10.244  20.562  11.579
 1196W        W66456   9.499  33.396  10.283
 1197W        W66457  33.371  16.822  13.844
 1198W        W66458  14.306  40.376  12.880
 1199W        W66459  11.748  43.909   2.562
 1200W        W66460  22.770  31.458  10.397
 1201W        W66461  13.230  27.166   2.266
 1202W        W66462  44.499  43.233  13.338
 1203W        W66463  44.305  38.868   4.977
 1204W        W66464  27.418  43.329  12.769
 1205W        W66465  29.602  17.998  13.900
 1206W        W66466  29.924  17.786   0.153
 1207W        W66467  41.064  36.899   3.761
 1208W        W66468  17.867  22.638  10.736
 1209W        W66469  33.273  44.293  10.852
 1210W        W66470  23.450  15.170   2.475
 1211W        W66471   3.890  23.240   3.210
 1212W        W66472  21.606  16.112   4.165
 1213W        W66473  15.783  15.184   0.663
 1214W        W66474  40.759  33.382   1.343
 1215W        W66475  37.079  34.081   1.258
 1216W        W66476  15.202  16.555   4.658
 1217W        W66477  18.747  15.764   2.356
 1218W        W66478  43.899  13.372   2.262
 1219W        W66479  38.511  11.836  12.146
 1220W        W66480   5.792  19.279   1.391
 1221W        W66481  24.422  41.752   0.437
 1222W        W66482  37.801  37.249  10.413
 1223W        W66483  27.777  31.091  11.498
 1224W        W66484   7.419  16.544  11.127
 1225W        W66485  37.028  17.596  12.816
 1226W        W66486  26.009  31.833   3.853
 1227W        W66487  24.437  20.175   4.522
 1228W        W66488  28.180  39.093   3.777
 1229W        W66489  29.523  26.613  14.075
 1230W        W66490  38.761  35.373   0.283
 1231W        W66491  27.693   1.435   3.853
 1232W        W66492  17.697   4.312  14.031
 1233W        W66493   5.313  20.583  11.370
 1234W        W66494  33.363  14.334   3.803
 1235W        W66495  36.548  12.626   0.326
 1236W        W66496  10.770  25.438  12.107
 1237W        W66497   0.721  44.918  13.963
 1238W        W66498   3.993  24.012  12.113
 1239W        W66499  16.074  20.118   0.456
 1240W        W66500  30.378  10.318  13.217
 1241W        W66501   3.842  23.703   0.997
 1242W        W66502  30.925  41.582   4.014
 1243W        W66503  33.471  19.690  11.461
 1244W        W66504  20.250  31.252   3.154
 1245W        W66505   9.815  44.140  14.458
 1246W        W66506  29.118  32.480   4.458
 1247W        W66507  31.510  29.741   0.979
 1248W        W66508  31.390   4.573   4.858
 1249W        W66509   1.461  28.462  14.545
 1250W        W66510  13.380  27.540  12.468
 1251W        W66511  23.033  11.717  10.527
 1252W        W66512  44.993   5.798   4.131
 1253W        W66513  44.300  26.993  10.666
 1254W        W66514  42.352  14.205  14.062
 1255W        W66515  30.756  43.523   1.321
 1256W        W66516  36.172  34.978   1.695
 1257W        W66517  11.653   7.399   3.112
 1258W        W66518  17.546  20.137  13.552
 1259W        W66519  29.960  20.581   4.312
 1260W        W66520  15.735  35.372  11.028
 1261W        W66521  13.248  19.922  12.627
 1262W        W66522  18.648  39.296   1.342
 1263W        W66523  13.304  42.246   0.902
 1264W        W66524  15.685   4.382  11.553
 1265W        W66525  19.477  43.147   2.688
 1266W        W66526  16.496  20.757  13.429
 1267W        W66527  23.755  14.650  11.651
 1268W        W66528  24.010  25.581   0.851
 1269W        W66529   4.477  16.987  14.834
 1270W        W66530  41.471  35.871  10.613
 1271W        W66531  33.630   3.317   0.817
 1272W        W66532  20.794   5.447  14.835
 1273W        W66533   2.749  39.868   1.257
 1274W        W66534  40.028   4.871   2.609
 1275W        W66535  15.762   7.287  10.297
 1276W        W66536  30.443   3.905   1.867
 1277W        W66537  10.739  31.837  12.809
 1278W        W66538  31.063   4.835   9.860
 1279W        W66539  29.052   5.552  14.900
 1280W        W66540   7.187  20.756  11.913
 1281W        W66541  22.558  29.842  11.592
 1282W        W66542  12.263  34.960   3.307
 1283W        W66543  22.974   9.929  12.141
 1284W        W66544   9.828  38.793   4.320
 1285W        W66545  19.235  23.106   2.262
 1286W        W66546  43.937   1.309  10.625
 1287W        W66547  38.265  12.149   1.198
 1288W        W66548  16.379  28.063   1.886
 1289W        W66549   9.230  27.418  13.143
 1290W        W66550  38.305   7.333  10.729
 1291W        W66551   9.877  12.455   2.222
 1292W        W66552  13.558  13.520  11.172
 1293W        W66553  40.968   1.500   3.316
 1294W        W66554  21.156  30.941   1.356
 1295W        W66555  21.469  28.418   4.574
 1296W        W66556  26.201  17.366  13.235
 1297W        W66557   9.427   0.194  11.720
 1298W        W66558  36.567   3.277   1.869
 1299W        W66559  15.814  12.527  13.040
 1300W        W66560  19.034  28.219  13.512
 1301W        W66561  32.986  42.730   4.808
 1302W        W66562  10.319   7.969   1.128
 1303W        W66563  40.541  34.876   3.370
 1304W        W66564  35.938  29.036  12.648
 1305W        W66565  17.336   2.880  14.814
 1306W        W66566  24.731  31.356  11.569
 1307W        W66567   9.437   7.086   0.503
 1308W        W66568  29.055  36.551  12.609
 1309W        W66569  33.779  12.364   2.842
 1310W        W66570  28.188  10.446   3.773
 1311W        W66571  16.149  42.519  13.068
 1312W        W66572   0.481   8.934   4.423
 1313W        W66573   3.889  20.429  11.171
 1314W        W66574  12.879  35.179   2.439
 1315W        W66575  40.293  37.199   3.367
 1316W        W66576  42.684  44.757  13.992
 1317W        W66577  42.779  33.573   9.943
 1318W        W66578  20.174   0.325  14.860
 1319W        W66579   2.354  42.960  14.912
 1320W        W66580   0.920  34.840   2.365
 1321W        W66581  31.961  23.994  11.616
 1322W        W66582  25.869  18.631   1.782
 1323W        W66583  19.045   5.473  12.518
 1324W        W66584   6.392  23.248   2.974
 1325W        W66585  17.704   7.801  13.751
 1326W        W66586  26.456   9.344   2.292
 1327W        W66587  13.640   9.941  11.204
 1328W        W66588  17.440  28.092   1.013
 1329W        W66589  11.731  28.909  11.733
 1330W        W66590  24.797  15.807   2.036
 1331W        W66591   8.941  30.044  13.919
 1332W        W66592  39.777   2.492  11.338
 1333W        W66593  40.383  33.445   3.502
 1334W        W66594  28.197  27.372  11.061
 1335W        W66595  29.054  21.923   4.838
 1336W        W66596  29.097  22.337   1.895
 1337W        W66597  10.316  43.283  11.421
 1338W        W66598  21.186  35.097  10.281
 1339W        W66599  34.114  38.599   4.830
 1340W        W66600   6.695  28.689   3.107
 1341W        W66601   4.764  39.799  14.220
 1342W        W66602   5.034   6.052  14.255
 1343W        W66603  14.818   4.827   3.772
 1344W        W66604  32.241   4.908  12.507
 1345W        W66605   0.988  10.147   4.441
 1346W        W66606  38.630  33.777   2.176
 1347W        W66607  40.365  42.744  12.905
 1348W        W66608  39.200  28.621  12.392
 1349W        W66609   9.264  25.711  13.948
 1350W        W66610  35.036  26.040  10.619
 1351W        W66611  20.567  30.467   4.377
 1352W        W66612   9.549   8.238   1.022
 1353W        W66613   1.405  31.513  12.090
 1354W        W66614  32.917   5.687  14.312
 1355W        W66615  20.639   8.482  12.068
 1356W        W66616  11.798  17.765  14.943
 1357W        W66617  38.415  36.797  14.493
 1358W        W66618   6.806  18.001  11.896
 1359W        W66619  42.136  11.423   1.743
 1360W        W66620  23.568   5.964  11.530
 1361W        W66621  37.981  38.772  11.591
 1362W        W66622  42.413  29.541  12.178
 1363W        W66623  14.844   6.388   2.774
 1364W        W66624  27.438  44.326  10.989
 1365W        W66625  23.642  43.893   4.653
 1366W        W66626  11.931  27.549   1.549
 1367W        W66627  35.328  36.977  10.762
 1368W        W66628  28.513  26.790   2.677
 1369W        W66629  40.972  41.909   4.589
 1370W        W66630  37.048  11.549   4.240
 1371W        W66631  15.601  14.743  13.975
 1372W        W66632  44.395  43.592  10.735
 1373W        W66633  24.090  39.790   1.872
 1374W        W66634  31.627  26.216  12.100
 1375W        W66635  21.035  29.579   5.096
 1376W        W66636  22.482  27.233  13.549
 1377W        W66637   0.025  40.517   4.368
 1378W        W66638  14.652   2.929   1.742
 1379W        W66639   2.332  35.356  14.754
 1380W        W66640  12.796  39.998  13.269
 1381W        W66641  21.718  41.874   0.274
 1382W        W66642  22.046  26.189   1.595
 1383W        W66643   9.391  17.089   1.348
 1384W        W66644   4.538  20.756  12.467
 1385W        W66645  18.806  12.643  14.994
 1386W        W66646  19.805  37.487   1.381
 1387W        W66647  14.312  27.948   3.238
 1388W        W66648  17.669  19.050  14.491
 1389W        W66649  42.265  38.091  14.214
 1390W        W66650  22.703  12.992  10.675
 1391W        W66651  10.541  22.942  11.148
 1392W        W66652  30.920  41.813   3.199
 1393W        W66653  33.517   6.414   4.582
 1394W        W66654  37.888   5.026  13.150
 1395W        W66655  34.563  17.774  13.927
 1396W        W66656  29.481  36.227   4.148
 1397W        W66657  32.766  44.148   2.667
 1398W        W66658  36.593  19.177   4.619
 1399W        W66659   7.341   4.003  12.690
 1400W        W66660  29.634  29.111  11.391
 1401W        W66661  39.307  27.715   4.623
 1402W        W66662  16.194  14.382  14.182
 1403W        W66663  30.559  31.611   0.013
 1404W        W66664  42.786   5.243  12.336
 1405W        W66665  40.254  35.399   1.602
 1406W        W66666   5.618  30.556   1.626
 1407W        W66667  13.656  43.283  13.898
 1408W        W66668  14.021  38.921   3.415
 1409W        W66669   9.306  36.754   0.816
 1410W        W66670  27.919  37.733   2.769
 1411W        W66671   5.400  15.348  10.776
 1412W        W66672  29.747  30.955   0.841
 1413W        W66673   9.315  27.286   3.986
 1414W        W66674  12.945  29.042   4.704
 1415W        W66675   5.433  39.413   4.295
 1416W        W66676   4.048  26.672   4.632
 1417W        W66677  28.667  31.097  10.997
 1418W        W66678  35.372  26.579  12.516
 1419W        W66679  17.790  16.448  14.202
 1420W        W66680  27.589  27.391  12.138
 1421W        W66681   1.244   8.439  11.585
 1422W        W66682   3.446  14.851  13.461
 1423W        W66683  24.073  22.551  14.780
 1424W        W66684   4.586   0.751  14.910
 1425W        W66685  35.521  43.756   2.740
 1426W        W66686  33.453  14.684  10.714
 1427W        W66687  10.759  14.324  14.313
 1428W        W66688  18.465  40.913   4.268
 1429W        W66689  16.178  36.436   1.825
 1430W        W66690  17.220  16.011   0.400
 1431W        W66691   3.962  35.323  12.861
 1432W        W66692   3.775   6.353   3.238
 1433W        W66693  15.134   9.546   2.402
 1434W        W66694  10.935  14.160   3.229
 1435W        W66695  27.922   0.212   3.617
 1436W        W66696  15.612  44.884  10.743
 1437W        W66697  28.077  17.998   1.792
 1438W        W66698   9.450  16.102   3.400
 1439W        W66699  26.997  24.037  13.747
 1440W        W66700  12.556  35.510   2.188
 1441W        W66701  42.093  20.253   3.447
 1442W        W66702  26.159  30.235  11.903
 1443W        W66703  12.084  19.170  11.972
 1444W        W66704  25.640   0.445  11.069
 1445W        W66705  11.780  39.083   3.294
 1446W        W66706  44.541  33.552   1.003
 1447W        W66707   8.226  23.327   0.244
 1448W        W66708  44.370  31.824  13.019
 1449W        W66709  20.704  29.376  12.033
 1450W        W66710  16.575  41.410  13.318
 1451W        W66711  40.751  29.271   1.801
 1452W        W66712  12.342  17.938   4.529
 1453W        W66713  26.070  41.852   0.936
 1454W        W66714  29.001  23.636  11.135
 1455W        W66715  22.076  10.148  12.650
 1456W        W66716  18.972  40.342   0.896
 1457W        W66717   9.090   5.644   3.266
 1458W        W66718  24.662  15.870  10.131
 1459W        W66719  34.091  33.628  14.429
 1460W        W66720   1.963   2.345  13.842
 1461W        W66721  36.767  24.628  11.377
 1462W        W66722  32.197   8.651   1.431
 1463W        W66723  41.255  40.868   0.468
 1464W        W66724  30.163   0.554  10.869
 1465W        W66725  26.940  24.004   3.735
 1466W        W66726  25.530   4.268  14.427
 1467W        W66727  39.482  42.943   2.857
 1468W        W66728  12.355  17.931   0.332
 1469W        W66729  35.403  11.803  12.638
 1470W        W66730   1.232   0.846   3.609
 1471W        W66731   8.275  34.935  14.454
 1472W        W66732  29.146  40.261  10.536
 1473W        W66733  36.193  38.783   4.295
 1474W        W66734  28.117  17.199  11.268
 1475W        W66735  11.783  39.096  13.023
 1476W        W66736  35.177  27.216   4.750
 1477W        W66737  21.030  19.814  14.447
 1478W        W66738   2.458  17.757  12.695
 1479W        W66739  33.926  39.542  13.185
 1480W        W66740  12.687  19.863   4.541
 1481W        W66741  13.812   2.769  13.034
 1482W        W66742  13.224   0.379   1.714
 1483W        W66743   5.394   4.019   3.216
 1484W        W66744  24.609   9.363   0.053
 1485W        W66745  39.227   4.338  12.031
 1486W        W66746  36.865  23.088   4.130
 1487W        W66747   5.380  41.889   0.950
 1488W        W66748  17.032  18.761   2.837
 1489W        W66749   4.127   3.502   3.696
 1490W        W66750   9.205  42.537  14.875
 1491W        W66751  33.138  16.960  13.027
 1492W        W66752  20.321  19.084  14.741
 1493W        W66753  32.674  31.604   1.390
 1494W        W66754  19.158   4.768   1.893
 1495W        W66755  32.128  17.520  13.340
 1496W        W66756  29.120  27.555   4.073
 1497W        W66757   0.485  44.014   1.159
 1498W        W66758  34.863  16.714  12.038
 1499W        W66759  16.007  43.906   0.478
 1500W        W66760  22.758  38.540   1.448
 1501W        W66761  31.672  26.624  13.402
 1502W        W66762   6.772  23.006  14.261
 1503W        W66763  28.147  40.566   1.783
 1504W        W66764  23.390  30.184   2.302
 1505W        W66765   7.765  40.326  12.113
 1506W        W66766  11.144  30.793   3.794
 1507W        W66767  15.201   0.144   3.656
 1508W        W66768  16.553  42.636   0.294
 1509W        W66769  20.580  39.980   1.275
 1510W        W66770  35.517   6.929   4.544
 1511W        W66771   2.235  37.900   0.907
 1512W        W66772  20.586  25.606   3.741
 1513W        W66773  21.308   4.470  13.891
 1514W        W66774  18.207   9.797   1.250
 1515W        W66775   0.860  40.462  11.572
 1516W        W66776  39.456  11.428  14.019
 1517W        W66777  30.730  44.989   1.386
 1518W        W66778  28.074  16.734  13.699
 1519W        W66779  32.917  10.131   3.163
 1520W        W66780  11.859  24.019  13.357
 1521W        W66781  44.971  44.768   1.870
 1522W        W66782   5.391  42.355   3.918
 1523W        W66783  13.147  40.129  12.383
 1524W        W66784  21.057  13.698  12.024
 1525W        W66785   4.296  21.579   1.324
 1526W        W66786  34.432   8.962   1.865
 1527W        W66787  41.897  14.307  13.005
 1528W        W66788   6.476  30.631   0.729
 1529W        W66789   3.014  19.760   0.720
 1530W        W66790  21.448   6.005   1.139
 1531W        W66791  31.654  44.090  14.392
 1532W        W66792   2.763  38.962  10.862
 1533W        W66793  11.917  26.133   1.663
 1534W        W66794  41.843  30.158  12.606
 1535W        W66795  22.320  22.527   0.809
 1536W        W66796  40.449  14.609  10.601
 1537W        W66797   8.923   7.241  14.775
 1538W        W66798  20.645  26.938  12.098
 1539W        W66799  16.176  12.335   2.760
 1540W        W66800  12.624  19.458   3.699
 1541W        W66801  43.883  41.704   1.339
 1542W        W66802  17.982  35.693  12.129
 1543W        W66803  12.634  18.554   2.763
 1544W        W66804   1.372   2.932   2.642
 1545W        W66805   7.685  21.728   0.879
 1546W        W66806  11.886  12.413   4.058
 1547W        W66807  38.694   4.205  13.470
 1548W        W66808  30.072  40.729  13.380
 1549W        W66809   8.928  34.016   3.724
 1550W        W66810  32.185  24.613  11.985
 1551W        W66811  40.848  34.469  10.642
 1552W        W66812   2.746   7.894   3.894
 1553W        W66813  18.616  21.160   1.823
 1554W        W66814   7.486  29.858  10.609
 1555W        W66815  31.838  30.535   4.537
 1556W        W66816  16.760  26.112   4.019
 1557W        W66817  35.361  30.761   2.840
 1558W        W66818  11.319  39.486  12.895
 1559W        W66819  30.956  21.545  14.328
 1560W        W66820  28.638  20.187   2.287
 1561W        W66821  15.522  35.097   0.342
 1562W        W66822  39.077   1.387   3.873
 1563W        W66823  42.021   9.554   4.198
 1564W        W66824   7.573   5.659   3.906
 1565W        W66825  30.552   7.723  11.886
 1566W        W66826  33.529   2.245   4.219
 1567W        W66827  16.264  44.367   4.488
 1568W        W66828  25.606   6.014  13.990
 1569W        W66829  39.903  10.617  11.034
 1570W        W66830  32.105   0.702   0.972
 1571W        W66831   5.642  15.805  10.718
 1572W        W66832  41.972   9.797  11.778
 1573W        W66833   9.776   2.277  12.457
 1574W        W66834  10.351  24.235   3.140
 1575W        W66835  27.693  32.562   4.291
 1576W        W66836  25.843  24.013   4.644
 1577W        W66837   2.292  23.655  14.895
 1578W        W66838  29.473  33.855  12.511
 1579W        W66839  38.876  35.760   2.758
 1580W        W66840  16.262  36.641  14.868
 1581W        W66841  27.209  44.975  12.106
 1582W        W66842  35.534  25.642   1.994
 1583W        W66843  33.595  42.199   1.431
 1584W        W66844   8.837  29.162  14.263
 1585W        W66845  10.151   6.212   4.460
 1586W        W66846  25.413  21.606   0.665
 1587W        W66847  30.870  40.339  11.873
 1588W        W66848  25.163  12.637   2.776
 1589W        W66849  10.635  38.097   3.784
 1590W        W66850  37.903  17.202   3.708
 1591W        W66851  30.823   5.812  10.623
 1592W        W66852  25.600  42.978  14.769
 1593W        W66853   6.313  30.766  13.751
 1594W        W66854  21.772  20.616  14.373
 1595W        W66855  18.805  21.496  12.558
 1596W        W66856  21.600  36.938  12.082
 1597W        W66857  38.391   4.405  13.868
 1598W        W66858  37.332  14.254  14.547
 1599W        W66859  16.581  29.638  12.874
 1600W        W66860   9.334  23.191   2.717
 1601W        W66861  39.407   0.917  12.923
 1602W        W66862  17.650  14.725  13.837
 1603W        W66863  20.578  41.791  12.723
 1604W        W66864  42.389  39.618   0.397
 1605W        W66865  17.529  10.719   4.627
 1606W        W66866  24.557  16.609   2.280
 1607W        W66867  34.166   6.840  12.059
 1608W        W66868  23.714  36.325   2.231
 1609W        W66869  44.374   3.505  10.084
 1610W        W66870  19.047  29.440  11.670
 1611W        W66871  33.750  31.339   2.792
 1612W        W66872  15.556  18.051  11.917
 1613W        W66873  43.073   5.779  12.156
 1614W        W66874  22.056  21.427  11.694
 1615W        W66875   2.833  32.300  10.711
 1616W        W66876  20.964  27.859  11.149
 1617W        W66877  24.111  26.618   2.877
 1618W        W66878  13.805  38.487   2.367
 1619W        W66879  40.657  33.560   2.157
 1620W        W66880  34.872  25.088   2.630
 1621W        W66881   0.208   4.637   3.066
 1622W        W66882  25.970  38.332  13.918
 1623W        W66883  18.141  20.179  14.402
 1624W        W66884  29.417  10.289  11.047
 1625W        W66885  39.804  43.880   0.534
 1626W        W66886  42.284  12.733   0.666
 1627W        W66887  35.881  29.978   3.219
 1628W        W66888   6.535  17.642  14.317
 1629W        W66889  35.976  29.214  12.164
 1630W        W66890  30.531  38.491   4.082
 1631W        W66891  36.874  19.839   1.388
 1632W        W66892  36.301  24.707  10.114
 1633W        W66893   5.777  31.903   1.634
 1634W        W66894  19.007  25.583   1.416
 1635W        W66895  32.157  37.546   4.156
 1636W        W66896  36.400  12.129   4.371
 1637W        W66897   9.668  32.963  13.097
 1638W        W66898   6.985  11.290   0.821
 1639W        W66899   5.737  24.748  14.343
 1640W        W66900   2.478  11.334  13.883
 1641W        W66901  19.381  25.041   3.647
 1642W        W66902  27.417  34.922   1.607
 1643W        W66903  10.206  40.472   1.423
 1644W        W66904   6.831  11.597   2.631
 1645W        W66905  24.517  23.325   1.086
 1646W        W66906   6.783   0.378  11.533
 1647W        W66907  36.027  38.472  14.694
 1648W        W66908   4.275  29.447  12.974
 1649W        W66909  13.380  33.015  14.752
 1650W        W66910   5.269  30.303   3.027
 1651W        W66911  23.754  10.850   0.107
 1652W        W66912  34.577  16.739  14.011
 1653W        W66913  38.418   4.855  12.008
 1654W        W66914  30.189  18.507  13.996
 1655W        W66915  29.970  39.469   2.018
 1656W        W66916  38.343  41.777  12.015
 1657W        W66917  23.577  16.163  12.039
 1658W        W66918  19.216   5.688  14.248
 1659W        W66919   9.185  31.412   4.125
 1660W        W66920  36.534  15.228  11.990
 1661W        W66921  14.844  43.990  13.541
 1662W        W66922   8.900  23.673  12.207
 1663W        W66923  43.891  28.106   1.662
 1664W        W66924   8.236  17.627   3.580
 1665W        W66925  29.025  12.671   1.333
 1666W        W66926  26.177  28.723  13.232
 1667W        W66927  29.728  42.476   3.280
 1668W        W66928  35.174  30.642  12.944
 1669W        W66929  31.294  39.495  10.735
 1670W        W66930  34.087   2.850  12.946
 1671W        W66931  16.614   3.020   0.943
 1672W        W66932  18.653  42.016  13.939
 1673W        W66933   6.138  38.821   0.225
 1674W        W66934  21.762  32.047   0.989
 1675W        W66935  15.652  42.002  10.645
 1676W        W66936  34.026  13.247  11.016
 1677W        W66937  38.042  18.062  12.129
 1678W        W66938   8.979  29.844   4.627
 1679W        W66939  43.249  38.872   4.193
 1680W        W66940  31.585   9.907   1.328
 1681W        W66941  12.892  44.287   4.623
 1682W        W66942   3.226   6.357  11.882
 1683W        W66943  16.101   0.322  12.884
 1684W        W66944  39.962   6.719   4.577
 1685W        W66945  27.493  40.558   2.499
 1686W        W66946  18.408  41.565  10.714
 1687W        W66947  10.359  31.777   1.706
 1688W        W66948  17.144  29.470  12.469
 1689W        W66949  24.583   3.427   3.307
 1690W        W66950  14.497  10.290   3.175
 1691W        W66951   7.816   4.782  10.375
 1692W        W66952  12.603  35.700   0.781
 1693W        W66953   8.164  19.064   2.893
 1694W        W66954  21.749   9.761  12.676
 1695W        W66955  12.802  23.590   1.283
 1696W        W66956  32.983   0.831   0.978
 1697W        W66957   9.795   1.908   4.367
 1698W        W66958  42.881  40.901  12.170
 1699W        W66959  37.993  25.401  12.978
 1700W        W66960   2.485   1.057   2.726
 1701W        W66961   6.324  23.532   1.672
 1702W        W66962   1.739  15.077  11.178
 1703W        W66963  24.311  44.825  12.114
 1704W        W66964  21.704  29.465   2.478
 1705W        W66965  12.583   3.286   3.637
 1706W        W66966  31.596  35.618   0.927
 1707W        W66967   3.257  13.765  12.598
 1708W        W66968  36.516   2.501  14.036
 1709W        W66969  18.408  11.391  11.075
 1710W        W66970  38.804  17.788  12.439
 1711W        W66971   2.410  28.713   2.663
 1712W        W66972   8.457   4.622  12.436
 1713W        W66973   8.948  16.651  14.230
 1714W        W66974  26.692  41.229  10.113
 1715W        W66975  38.621  20.678  13.888
 1716W        W66976  24.417  11.238  14.102
 1717W        W66977  36.272  17.984  14.943
 1718W        W66978  21.980  10.287   2.143
 1719W        W66979  36.856   3.795  11.999
 1720W        W66980  42.948  22.950   2.850
 1721W        W66981   2.136  40.629   4.149
 1722W        W66982  19.730   9.831   1.817
 1723W        W66983  21.582  13.401  13.621
 1724W        W66984   1.978  20.828   1.714
 1725W        W66985   0.333  13.376   1.847
 1726W        W66986  16.997   4.895   2.307
 1727W        W66987  12.097  11.434  12.057
 1728W        W66988  35.338  21.580  11.497
 1729W        W66989  40.442   9.649   1.211
 1730W        W66990  23.974  42.789   0.882
 1731W        W66991  32.902  24.201  14.516
 1732W        W66992  10.108   8.706   2.922
 1733W        W66993  12.339  41.223   1.371
 1734W        W66994  42.145  24.439  12.045
 1735W        W66995  44.951  32.435  11.495
 1736W        W66996  14.287   5.638   4.497
 1737W        W66997   8.422  38.957   2.723
 1738W        W66998   6.125  44.181  12.407
 1739W        W66999  20.172   6.181   2.124
 1740W        W67000  10.704   2.771   0.245
 1741W        W67001   3.209  10.292  12.471
 1742W        W67002  41.549  14.740   2.375
 1743W        W67003  34.094  16.985   4.042
 1744W        W67004  31.843  34.996   3.650
 1745W        W67005  24.505  39.310   3.260
 1746W        W67006  43.652   1.891   0.187
 1747W        W67007  23.585  26.655  10.936
 1748W        W67008  33.090  40.072  11.203
 1749W        W67009  31.878  31.913  12.003
 1750W        W67010  17.016  29.901  12.715
 1751W        W67011  27.518  33.491  13.752
 1752W        W67012   5.337  11.871   4.775
 1753W        W67013  37.119   6.521   0.838
 1754W        W67014  44.878   6.879   3.601
 1755W        W67015   5.047  26.206  12.952
 1756W        W67016  27.942  28.081  10.642
 1757W        W67017   0.392  10.244  11.958
 1758W        W67018  39.575   7.343  11.266
 1759W        W67019  27.685  26.339  12.395
 1760W        W67020  11.998   2.438   2.226
 1761W        W67021  39.255  31.553  14.989
 1762W        W67022  18.775  43.863   3.561
 1763W        W67023  27.927   4.841   1.202
 1764W        W67024   8.658   0.739  11.931
 1765W        W67025   8.353   6.281  10.360
 1766W        W67026  23.738   8.153  10.619
 1767W        W67027   0.424  36.859  12.013
 1768W        W67028  17.261  43.060  13.656
 1769W        W67029  31.999   7.897  11.062
 1770W        W67030  43.023  32.416  10.544
 1771W        W67031  35.818  18.987   2.294
 1772W        W67032  22.539  12.261   0.508
 1773W        W67033  20.641  16.603   3.800
 1774W        W67034  38.015  21.294   0.804
 1775W        W67035  28.879  18.704   3.749
 1776W        W67036  26.710  36.045  10.484
 1777W        W67037  30.753   9.739  12.028
 1778W        W67038  32.567   0.458   2.787
 1779W        W67039  16.128  25.297  10.691
 1780W        W67040  13.761  20.129   4.928
 1781W        W67041  29.479  42.316   2.401
 1782W        W67042  33.071  37.497  14.306
 1783W        W67043   8.182  36.025  11.296
 1784W        W67044   6.172   8.822   2.652
 1785W        W67045  23.566  31.666   3.809
 1786W        W67046  10.651  40.743  14.388
 1787W        W67047  40.583  31.920   0.625
 1788W        W67048  17.637  37.841  13.131
 1789W        W67049  25.939  12.576  14.433
 1790W        W67050  36.006  43.740  12.022
 1791W        W67051  10.773   3.004  13.461
 1792W        W67052  23.947  33.839   0.311
 1793W        W67053  20.329  42.053   4.422
 1794W        W67054  16.507  41.838   2.480
 1795W        W67055   3.196  13.078   0.356
 1796W        W67056  10.295   3.556  11.079
 1797W        W67057  20.561  29.208  12.502
 1798W        W67058   7.213   2.286  14.476
 1799W        W67059   6.675  41.118   0.840
 1800W        W67060  35.544   2.284   1.324
 1801W        W67061  20.368   6.969   3.198
 1802W        W67062  30.589  23.355   3.633
 1803W        W67063  17.674  27.584   0.095
 1804W        W67064   6.042  11.776  13.870
 1805W        W67065  18.650   6.959   1.465
 1806W        W67066  34.438  35.499   1.938
 1807W        W67067  38.969  15.325  13.397
 1808W        W67068  26.504  34.104   1.269
 1809W        W67069  10.325  10.603   2.112
 1810W        W67070   4.933   1.932  14.296
 1811W        W67071  42.194  41.815   0.364
 1812W        W67072   3.914   7.359  12.423
 1813W        W67073  42.791  27.235  10.893
 1814W        W67074  24.103   0.467  11.607
 1815W        W67075  32.177  12.565   1.009
 1816W        W67076  11.526   2.372  14.094
 1817W        W67077  24.743   8.144  14.065
 1818W        W67078  19.163  18.313  13.135
 1819W        W67079   3.740  21.644   2.473
 1820W        W67080  25.196  22.992  14.422
 1821W        W67081   4.453  39.596   1.576
 1822W        W67082  39.380   5.502   0.717
 1823W        W67083  14.353   9.098  12.006
 1824W        W67084  43.982   5.958   1.814
 1825W        W67085  14.783  33.814  14.949
 1826W        W67086  22.180  40.781  12.886
 1827W        W67087  12.903  14.762  11.657
 1828W        W67088  43.380  23.159   2.584
 1829W        W67089  29.421  29.941  14.441
 1830W        W67090   4.522  19.447  13.882
 1831W        W67091  17.750  20.000   2.792
 1832W        W67092  40.569  42.568  12.465
 1833W        W67093  41.057  13.065  12.042
 1834W        W67094   9.381  19.396   4.155
 1835W        W67095  25.453   8.126   0.407
 1836W        W67096  17.309  17.572  14.247
 1837W        W67097   1.397  10.886   4.575
 1838W        W67098  23.756  39.271   1.439
 1839W        W67099  34.736   8.856   4.233
 1840W        W67100  11.383  16.309  11.058
 1841W        W67101  11.860  26.107   2.629
 1842W        W67102   3.503   0.623  13.009
 1843W        W67103  36.722  16.800  11.889
 1844W        W67104  15.845  13.120   4.162
 1845W        W67105  37.955  30.420   3.546
 1846W        W67106  42.303  44.031   4.518
 1847W        W67107  37.252  15.277   2.005
 1848W        W67108  18.568  38.789   4.567
 1849W        W67109   8.185  34.165  10.674
 1850W        W67110   7.605  15.712   1.294
 1851W        W67111  33.983   3.463  10.944
 1852W        W67112  42.469  27.050   4.782
 1853W        W67113  24.627   7.677  13.376
 1854W        W67114   3.181  34.077  12.562
 1855W        W67115  41.339  16.675  12.436
 1856W        W67116   7.917  38.210  12.115
 1857W        W67117   8.794  32.940  11.421
 1858W        W67118  16.454  14.661   0.900
 1859W        W67119   3.824  44.980  13.500
 1860W        W67120  30.630   2.413  14.642
 1861W        W67121  43.251  19.802   3.767
 1862W        W67122  43.029  37.881   0.797
 1863W        W67123   5.368  11.711  13.892
 1864W        W67124  12.363  38.094  13.047
 1865W        W67125  35.478  13.651  12.665
 1866W        W67126  22.179  34.278   0.008
 1867W        W67127  24.560   3.813   4.131
 1868W        W67128  32.517  42.368   2.372
 1869W        W67129  42.818  24.922  12.859
 1870W        W67130  42.200  17.994  13.513
 1871W        W67131   9.716   7.394   3.096
 1872W        W67132   0.437  38.961   0.808
 1873W        W67133  10.077   9.212   2.318
 1874W        W67134  13.623  19.033   1.335
 1875W        W67135  37.853  36.107  11.943
 1876W        W67136  24.864   5.922   2.956
 1877W        W67137  19.611   4.856   2.179
 1878W        W67138  13.730  41.019   1.773
 1879W        W67139  29.077  33.478   0.837
 1880W        W67140  31.905  28.699   1.723
 1881W        W67141  32.272   1.896   2.365
 1882W        W67142   7.839  11.826  11.721
 1883W        W67143  22.451   4.136  13.020
 1884W        W67144  19.413  32.587  12.194
 1885W        W67145  41.505  14.908   0.213
 1886W        W67146  27.043   2.769   9.816
 1887W        W67147  15.549  22.001   4.096
 1888W        W67148  37.842  39.444   3.652
 1889W        W67149   3.570   2.286   3.049
 1890W        W67150  24.535  10.844   4.151
 1891W        W67151  35.012  14.123  10.657
 1892W        W67152  10.286  23.797   4.538
 1893W        W67153  40.267   3.748  13.408
 1894W        W67154  28.081   0.735   3.419
 1895W        W67155  32.177   4.846  10.601
 1896W        W67156  14.815  36.019   1.741
 1897W        W67157  25.025  19.898  13.602
 1898W        W67158  43.686  29.130  11.675
 1899W        W67159  14.609  28.456   4.542
 1900W        W67160  43.199  18.100  11.500
 1901W        W67161  36.056  44.681  13.357
 1902W        W67162  13.322   2.423  14.341
 1903W        W67163   9.187  42.376  10.456
 1904W        W67164  43.584  30.027  14.052
 1905W        W67165   2.359  26.661   2.678
 1906W        W67166  24.154  26.984   4.094
 1907W        W67167  25.640  34.799   4.175
 1908W        W67168  38.105   0.391  14.954
 1909W        W67169  18.973   5.376  11.024
 1910W        W67170  24.034  12.133   4.757
 1911W        W67171  32.149  26.274  11.023
 1912W        W67172  10.294  43.812  11.186
 1913W        W67173  37.654   7.650  11.874
 1914W        W67174  22.424  40.773   0.394
 1915W        W67175  22.143  11.652   2.649
 1916W        W67176   6.348  23.006   2.390
 1917W        W67177  24.970   7.877  12.834
 1918W        W67178   4.204   9.649  10.580
 1919W        W67179  31.396  16.647   4.542
 1920W        W67180   1.281  37.434   4.375
 1921W        W67181  16.704  44.031  12.520
 1922W        W67182  19.848  22.096   0.357
 1923W        W67183  31.631  18.766  13.545
 1924W        W67184  27.976  14.562  13.031
 1925W        W67185  11.989  25.604  13.982
 1926W        W67186  14.761   4.507   0.413
 1927W        W67187  31.126   0.336  12.065
 1928W        W67188   7.767  13.393   1.256
 1929W        W67189  35.965  39.699  10.955
 1930W        W67190  43.983   0.300  13.007
 1931W        W67191  29.173  43.500  12.988
 1932W        W67192  16.687  19.744  13.482
 1933W        W67193   6.733  19.574  11.209
 1934W        W67194  14.338  27.891  13.992
 1935W        W67195  38.332  28.504   1.395
 1936W        W67196  38.679  16.152   4.167
 1937W        W67197  29.574  30.418  12.976
 1938W        W67198   6.910  24.497   0.745
 1939W        W67199   9.146  14.703  12.954
 1940W        W67200  16.539  40.822   3.571
 1941W        W67201   2.904  28.638  11.961
 1942W        W67202  12.206  29.454  14.901
 1943W        W67203  14.293  26.991   1.340
 1944W        W67204  32.140   4.675  14.908
 1945W        W67205   7.221  24.255  14.535
 1946W        W67206  24.389  42.157   2.819
 1947W        W67207   8.368   9.732   0.579
 1948W        W67208  16.685  14.082   0.330
 1949W        W67209  23.908   3.402   0.845
 1950W        W67210  10.890  35.696  13.015
 1951W        W67211   2.502  24.022   3.795
 1952W        W67212  29.879  22.625  13.065
 1953W        W67213  40.143   9.241  13.925
 1954W        W67214  39.032  36.146   3.068
 1955W        W67215   1.691  21.259  12.935
 1956W        W67216  42.573  27.548   3.319
 1957W        W67217  18.939  39.953  12.510
 1958W        W67218   0.002   9.190   2.345
 1959W        W67219  36.320  13.733   1.788
 1960W        W67220  17.111  16.208  11.742
 1961W        W67221   3.266  42.531   1.316
 1962W        W67222  21.297  28.966   3.229
 1963W        W67223  28.939  28.055   1.384
 1964W        W67224  41.906  38.045   0.045
 1965W        W67225  21.019  21.228   1.165
 1966W        W67226   2.834   1.505   0.065
 1967W        W67227  39.102  35.199  12.620
 1968W        W67228   2.165  28.617   3.645
 1969W        W67229   9.017  28.216   4.361
 1970W        W67230  18.692   0.423   1.900
 1971W        W67231  23.638  33.099   3.212
 1972W        W67232  44.368  20.183  13.027
 1973W        W67233  26.900  11.923   4.925
 1974W        W67234  20.988  30.216   4.954
 1975W        W67235   4.500  12.778   0.687
 1976W        W67236  18.775   1.178   2.308
 1977W        W67237   1.880  10.568   4.530
 1978W        W67238   6.162  40.290  12.554
 1979W        W67239  20.991  22.120  13.113
 1980W        W67240  28.551  15.018  11.214
 1981W        W67241  18.512  18.564  13.069
 1982W        W67242  32.650   4.911  13.828
 1983W        W67243  20.696   4.495   9.817
 1984W        W67244  37.773  29.204  13.364
 1985W        W67245  16.768  20.867  14.896
 1986W        W67246   3.695  39.822  13.910
 1987W        W67247  31.222   5.948  14.860
 1988W        W67248   9.170   4.378  11.990
 1989W        W67249   6.836  17.134  11.849
 1990W        W67250   3.088  10.899   2.762
 1991W        W67251  16.573  38.302   3.619
 1992W        W67252   0.901  12.675   0.439
 1993W        W67253  18.645  11.636   1.298
 1994W        W67254  14.433  28.125   0.998
 1995W        W67255  20.981  17.097   0.913
 1996W        W67256  33.680  30.562   0.190
 1997W        W67257  23.617  15.860   4.468
 1998W        W67258  14.225  33.939  11.503
 1999W        W67259   8.237  25.665  14.020
 2000W        W67260   3.720   8.858   2.286
 2001W        W67261  24.360   8.494  13.384
 2002W        W67262  33.429  41.414  12.130
 2003W        W67263   0.201  30.728   0.296
 2004W        W67264  27.203  44.872  10.778
 2005W        W67265  32.917   9.173  11.637
 2006W        W67266  17.676   6.134  12.560
 2007W        W67267   4.674   5.375  14.429
 2008W        W67268   0.319  36.685   2.078
 2009W        W67269  23.288  34.623   0.974
 2010W        W67270   9.329  21.396   0.387
 2011W        W67271  23.855  35.877   3.563
 2012W        W67272  28.722  14.849  13.445
 2013W        W67273   8.617  25.108  14.812
 2014W        W67274  25.416  17.049   3.704
 2015W        W67275  11.550  39.682  10.628
 2016W        W67276  34.566  29.961  11.218
 2017W        W67277  20.937  16.278  11.542
 2018W        W67278  36.017   4.257  14.021
 2019W        W67279  15.655  26.706  13.862
 2020W        W67280  36.123  26.879  12.158
 2021W        W67281  19.243  19.016   5.475
 2022W        W67282   0.766   6.804  14.197
 2023W        W67283   9.335  29.323  11.268
 2024W        W67284  23.380  38.916  13.791
 2025W        W67285   9.412  24.088  14.648
 2026W        W67286   7.934   6.741   4.568
 2027W        W67287  43.495  31.115   1.741
 2028W        W67288  23.464  40.016  14.214
 2029W        W67289   4.187  23.498   0.390
 2030W        W67290  37.001  38.308  14.278
 2031W        W67291  29.756  36.338   0.785
 2032W        W67292   3.082  41.957   2.178
 2033W        W67293   5.272  31.377  14.778
 2034W        W67294  36.581  35.613   0.909
 2035W        W67295  37.320  23.505   0.850
 2036W        W67296  28.155  28.617  12.400
 2037W        W67297  14.746  31.019   0.963
 2038W        W67298   9.335  32.793  12.466
 2039W        W67299  20.179  21.257   2.867
 2040W        W67300   8.401  35.922   0.284
 2041W        W67301  11.526  23.237  11.052
 2042W        W67302  42.856  43.313   1.404
 2043W        W67303  17.092  20.255  12.115
 2044W        W67304  25.242   4.996  12.658
 2045W        W67305  27.812   2.234   4.776
 2046W        W67306   0.664  22.795  12.000
 2047W        W67307  37.539  36.368  11.596
 2048W        W67308  13.541  12.628  11.613
 2049W        W67309  26.947  33.342  14.299
 2050W        W67310  27.652  24.051  14.336
 2051W        W67311   4.481  17.864  14.792
 2052W        W67312   4.334   8.784   5.088
 2053W        W67313  21.436  16.994   9.814
 2054W        W67314  20.984   4.410  13.423
 2055W        W67315   6.234  12.644  10.772
 2056W        W67316  14.904  11.186  11.964
 2057W        W67317  26.318   3.275  13.705
 2058W        W67318  16.520  18.751  10.728
 2059W        W67319  17.112  38.953   3.142
 2060W        W67320  13.765  38.887   0.259
 2061W        W67321  26.968  32.960   2.368
 2062W        W67322  31.175  44.252   1.763
 2063W        W67323  26.457  12.604  14.495
 2064W        W67324  33.726   0.943   2.753
 2065W        W67325   6.386  40.838   3.230
 2066W        W67326   0.025   6.221  11.445
 2067W        W67327   5.774  26.984   0.437
 2068W        W67328  42.958  16.657   4.490
 2069W        W67329  38.275  12.608   3.667
 2070W        W67330   3.227  41.239   0.260
 2071W        W67331  42.387  10.197   3.415
 2072W        W67332  28.086   4.642  11.663
 2073W        W67333  10.723  23.650  10.719
 2074W        W67334  31.352  10.241  12.501
 2075W        W67335  37.831  35.764   2.777
 2076W        W67336  29.735   3.006  14.575
 2077W        W67337  20.862  39.083   4.962
 2078W        W67338  41.684  12.453  14.907
 2079W        W67339  43.825  13.695  10.711
 2080W        W67340  31.473  10.455  11.863
 2081W        W67341  18.208  16.719  14.027
 2082W        W67342  25.295  28.671   4.510
 2083W        W67343  43.921  27.971  12.111
 2084W        W67344  33.639   2.775   0.950
 2085W        W67345   3.702  30.347   0.504
 2086W        W67346   9.226  17.739  12.518
 2087W        W67347   3.268  22.035   4.484
 2088W        W67348  19.154  42.836   3.793
 2089W        W67349  34.525  19.773  13.760
 2090W        W67350  23.300  30.044   4.257
 2091W        W67351  40.332  33.430  11.909
 2092W        W67352   0.681  21.086   2.706
 2093W        W67353  27.927   8.737  10.969
 2094W        W67354  26.732  25.767  12.954
 2095W        W67355  36.963  26.507   0.880
 2096W        W67356  34.885  36.718  11.630
 2097W        W67357  14.691   0.876   1.901
 2098W        W67358  13.635   4.908  13.501
 2099W        W67359  23.179  20.498  12.076
 2100W        W67360   5.958  29.290  14.706
 2101W        W67361   1.727  16.876  14.391
 2102W        W67362   7.667  43.244   4.638
 2103W        W67363  32.450   7.358  13.930
 2104W        W67364  29.810  34.321  13.206
 2105W        W67365   2.003   4.503   1.709
 2106W        W67366  13.292  36.591   3.345
 2107W        W67367  31.956   5.954   1.512
 2108W        W67368  28.435  44.778   1.846
 2109W        W67369  36.011  23.435   2.225
 2110W        W67370  42.294   2.099   4.567
 2111W        W67371  16.413   5.752  14.996
 2112W        W67372   4.409   7.587  10.489
 2113W        W67373  11.936  15.360  13.791
 2114W        W67374  43.181   5.623  12.631
 2115W        W67375  32.855   6.223  14.083
 2116W        W67376  19.755  21.504   3.373
 2117W        W67377  32.432  20.257  11.192
 2118W        W67378  43.046  38.875   3.203
 2119W        W67379   9.616  25.283   4.939
 2120W        W67380  32.338  18.193  13.875
 2121W        W67381  30.179  25.076  13.991
 2122W        W67382  36.076  37.986   4.686
 2123W        W67383  24.734  24.188  10.311
 2124W        W67384  27.618  13.560  11.186
 2125W        W67385  37.144  39.480   2.905
 2126W        W67386  31.649  44.965  11.581
 2127W        W67387  15.418  33.232   4.955
 2128W        W67388  24.885  37.092   0.704
 2129W        W67389   8.354  27.951  13.039
 2130W        W67390  26.944  43.881  13.103
 2131W        W67391  27.615  30.110   2.327
 2132W        W67392  28.882  23.910  12.999
 2133W        W67393  13.780   4.050  12.079
 2134W        W67394  20.806   3.773  14.423
 2135W        W67395  19.489  19.834  12.456
 2136W        W67396   5.747  31.659   2.076
 2137W        W67397  36.731  25.215   5.039
 2138W        W67398  18.062  14.864   1.276
 2139W        W67399  37.402  40.523  12.226
 2140W        W67400  12.339  15.156  12.044
 2141W        W67401  44.286   0.436   4.671
 2142W        W67402  14.661  40.322   1.714
 2143W        W67403  19.664  40.750  10.931
 2144W        W67404   2.398  29.604  12.852
 2145W        W67405  44.204  24.496   1.464
 2146W        W67406  15.784  36.115  10.746
 2147W        W67407  28.590  27.895  14.120
 2148W        W67408  42.814  43.298   4.080
 2149W        W67409  37.808   3.663  10.715
 2150W        W67410  42.341  28.754  11.255
 2151W        W67411   3.024  28.374  10.132
 2152W        W67412  19.175  44.147   3.720
 2153W        W67413   3.393  30.422   3.660
 2154W        W67414  19.226  30.607  10.439
 2155W        W67415   0.319  42.215   2.911
 2156W        W67416  40.998  28.937  12.531
 2157W        W67417  41.003  17.501   3.557
 2158W        W67418  25.912   5.715   2.251
 2159W        W67419  34.016  32.918   0.873
 2160W        W67420   5.253  42.708  12.546
 2161W        W67421  24.594  33.643  14.464
 2162W        W67422  32.465  38.891   2.454
 2163W        W67423  24.933  15.778   3.017
 2164W        W67424  21.601  18.067   2.655
 2165W        W67425  16.220  10.175  12.241
 2166W        W67426  21.747  20.414   3.055
 2167W        W67427  27.024  40.536  14.299
 2168W        W67428  27.121  29.301  13.080
 2169W        W67429  39.362   3.207  13.574
 2170W        W67430   7.390  35.053   1.982
 2171W        W67431  37.931  18.337  12.558
 2172W        W67432  33.169  23.836   1.491
 2173W        W67433  38.873  20.214   2.321
 2174W        W67434  31.521  41.187   4.834
 2175W        W67435  27.185  30.524  12.626
 2176W        W67436  17.570  33.139  10.728
 2177W        W67437  10.555  13.494  14.023
 2178W        W67438   7.765  26.485  13.888
 2179W        W67439   2.932  28.656   1.528
 2180W        W67440  41.333  18.376   2.815
 2181W        W67441   5.947   8.678   3.181
 2182W        W67442  16.679  29.721   0.443
 2183W        W67443  10.611  39.823   2.872
 2184W        W67444  11.279  17.125  10.686
 2185W        W67445  27.419  17.662  12.522
 2186W        W67446  37.011  24.583  13.661
 2187W        W67447  30.087  15.122   0.746
 2188W        W67448  42.992  18.747  14.804
 2189W        W67449  28.084  29.787  10.847
 2190W        W67450  44.719  30.162   1.746
 2191W        W67451  20.775   5.280  12.142
 2192W        W67452  36.618  12.904   2.238
 2193W        W67453  40.184  30.900   4.438
 2194W        W67454  36.478   9.341  14.965
 2195W        W67455   5.358  30.788   2.887
 2196W        W67456   5.263  40.168  10.445
 2197W        W67457  39.909  11.549   0.804
 2198W        W67458  23.472  43.557  14.968
 2199W        W67459  28.996  29.584   0.201
 2200W        W67460  44.801  19.614  14.512
 2201W        W67461  23.799  13.763   2.838
 2202W        W67462  11.813   2.773   3.602
 2203W        W67463  38.878  37.938   4.137
 2204W        W67464   5.293  16.804   4.633
 2205W        W67465  25.362  17.675   0.702
 2206W        W67466  21.759  21.248  13.086
 2207W        W67467  15.616  34.500  11.276
 2208W        W67468  26.532   5.309  14.338
 2209W        W67469  31.382  30.557  12.898
 2210W        W67470  18.650  13.356  11.621
 2211W        W67471  34.870  43.427   3.122
 2212W        W67472  11.882   6.691  12.022
 2213W        W67473  22.899  39.342  10.993
 2214W        W67474   4.725  10.778  10.780
 2215W        W67475   4.905  29.448  11.650
 2216W        W67476   1.792  23.594   2.092
 2217W        W67477  22.677  16.039   3.971
 2218W        W67478  36.282  41.430  11.955
 2219W        W67479  17.040  34.189   3.561
 2220W        W67480  39.057   6.007   4.155
 2221W        W67481  17.806  41.337  12.266
 2222W        W67482  29.886  38.742  12.644
 2223W        W67483  22.721   4.199   0.998
 2224W        W67484  41.240  37.033  11.069
 2225W        W67485  30.003  44.115   0.881
 2226W        W67486  27.699  38.614   2.661
 2227W        W67487  14.956  23.406   3.259
 2228W        W67488   5.069  14.077   2.756
 2229W        W67489   5.181  15.918  13.425
 2230W        W67490   2.172   8.765   3.891
 2231W        W67491  40.060  24.642  10.407
 2232W        W67492  37.234  41.051  10.874
 2233W        W67493  21.169  39.763   0.845
 2234W        W67494  32.296  20.991   2.168
 2235W        W67495   0.308  18.009  14.854
 2236W        W67496  24.986  14.982  14.795
 2237W        W67497  26.981  44.170  11.653
 2238W        W67498  22.075  32.431   0.755
 2239W        W67499  40.463  33.576  11.440
 2240W        W67500  44.926  15.332  11.114
 2241W        W67501  19.744  12.132   2.427
 2242W        W67502  26.759  19.352   2.479
 2243W        W67503  24.605   7.300   0.776
 2244W        W67504  32.416   4.277  11.700
 2245W        W67505  27.238  22.177   1.763
 2246W        W67506  39.703  30.471  11.420
 2247W        W67507   1.461  18.781  12.129
 2248W        W67508  42.384  21.612  13.968
 2249W        W67509  34.293  24.660   0.302
 2250W        W67510   0.063  16.363  10.430
 2251W        W67511   9.272  23.540   3.655
 2252W        W67512  29.474  25.942   1.424
 2253W        W67513  31.710  40.834  13.850
 2254W        W67514  12.629   4.927   1.872
 2255W        W67515   9.773   0.286  14.922
 2256W        W67516   0.384  28.575  12.182
 2257W        W67517  41.863  40.920  14.026
 2258W        W67518  27.900  14.821   2.906
 2259W        W67519  24.699  31.986   4.591
 2260W        W67520  40.095  17.658  11.645
 2261W        W67521   5.296  28.731   2.201
 2262W        W67522  25.678  27.205  12.960
 2263W        W67523  32.102  34.304  13.054
 2264W        W67524  39.872  34.947   2.668
 2265W        W67525  10.239   9.990  14.824
 2266W        W67526  16.817   8.191   1.682
 2267W        W67527  23.508   0.168   1.477
 2268W        W67528  26.230   6.212   3.582
 2269W        W67529  15.978  37.613  12.906
 2270W        W67530  29.049  16.530  12.904
 2271W        W67531   9.615  39.240   1.911
 2272W        W67532  18.489  32.532  12.936
 2273W        W67533  34.841  25.738   0.898
 2274W        W67534  17.840  23.489   1.156
 2275W        W67535  10.138  23.037  13.826
 2276W        W67536  21.242  21.644   3.254
 2277W        W67537  42.077  42.510  10.654
 2278W        W67538   6.935  28.001  11.641
 2279W        W67539  27.651  40.579  12.947
 2280W        W67540  42.535  25.707   1.689
 2281W        W67541  24.052  27.933   4.122
 2282W        W67542  44.134  22.638  14.865
 2283W        W67543  12.283  39.777   1.826
 2284W        W67544  43.794  24.283   2.753
 2285W        W67545  31.422  19.756  14.032
 2286W        W67546   4.244  18.296   1.416
 2287W        W67547  28.270  13.402   2.517
 2288W        W67548  40.317  38.401   4.821
 2289W        W67549  36.918  35.859  10.366
 2290W        W67550  11.757  28.451  10.615
 2291W        W67551  37.863  42.521   3.906
 2292W        W67552  21.061  40.931  13.443
 2293W        W67553  12.739   4.462   4.166
 2294W        W67554  28.879   6.694   1.853
 2295W        W67555  36.431  13.225   4.570
 2296W        W67556   8.690  23.135   0.031
 2297W        W67557  30.995  40.450   0.302
 2298W        W67558   9.202   6.011   1.008
 2299W        W67559  26.205   8.342   5.100
 2300W        W67560   0.032  11.189   0.593
 2301W        W67561  38.874  38.066   3.184
 2302W        W67562  44.810   3.472   0.804
 2303W        W67563  25.177  41.870   0.084
 2304W        W67564  39.735  16.160  10.680
 2305W        W67565   5.221  31.638   1.732
 2306W        W67566  16.703  13.437   3.894
 2307W        W67567  28.073  14.561   0.348
 2308W        W67568   5.493   3.582   3.681
 2309W        W67569  40.681  10.290   0.435
 2310W        W67570  36.834   3.240   4.965
 2311W        W67571  26.066  17.517   1.177
 2312W        W67572  41.418  39.457  13.661
 2313W        W67573  33.042  16.433   4.397
 2314W        W67574  38.795  37.080   2.505
 2315W        W67575  21.050  25.398  13.977
 2316W        W67576  11.224  42.287  12.842
 2317W        W67577  36.871  29.034   4.591
 2318W        W67578   4.719  29.212  13.138
 2319W        W67579  33.947   0.256  11.617
 2320W        W67580  32.884  43.155   2.388
 2321W        W67581   6.168  26.537  14.892
 2322W        W67582  13.226  15.366   2.982
 2323W        W67583  18.194  24.734   2.635
 2324W        W67584  16.287  40.152  13.596
 2325W        W67585  10.757   3.384   4.539
 2326W        W67586  33.021  13.782   2.180
 2327W        W67587   7.298  35.108  11.505
 2328W        W67588  31.101  24.995   1.079
 2329W        W67589  20.194  35.677   0.885
 2330W        W67590   9.118  31.038  14.723
 2331W        W67591  21.303   7.206   1.763
 2332W        W67592  12.306  25.175  14.009
 2333W        W67593  30.033  25.547  14.190
 2334W        W67594  39.263  44.945  13.862
 2335W        W67595  25.407  41.457   2.227
 2336W        W67596  26.037   6.621   2.595
 2337W        W67597  10.888  10.060  14.001
 2338W        W67598  42.410  23.701  13.007
 2339W        W67599  14.251  11.342  10.698
 2340W        W67600  10.667   4.385   1.388
 2341W        W67601  33.769  33.943  12.861
 2342W        W67602   7.346   6.999  13.079
 2343W        W67603  41.274  43.763  12.547
 2344W        W67604  28.564  11.367   1.717
 2345W        W67605   3.752  32.561  14.991
 2346W        W67606  42.498  31.555   3.144
 2347W        W67607  19.146  22.524  14.208
 2348W        W67608  37.847   3.165  10.708
 2349W        W67609  37.539   5.409   1.237
 2350W        W67610  18.783   0.804   2.667
 2351W        W67611   1.474  16.885  11.041
 2352W        W67612   9.810   7.712  11.904
 2353W        W67613  26.112   3.916   3.802
 2354W        W67614   6.303  25.627  12.510
 2355W        W67615  27.664  25.921  10.381
 2356W        W67616  40.629  10.721   1.674
 2357W        W67617  33.543  14.804  14.346
 2358W        W67618   1.028  18.321   1.951
 2359W        W67619  30.155  22.966  13.349
 2360W        W67620   8.112  12.349  14.844
 2361W        W67621  13.782   7.362   1.561
 2362W        W67622  44.506  17.230   1.330
 2363W        W67623  34.370   5.734  11.643
 2364W        W67624   4.043  42.197   2.389
 2365W        W67625   2.204  31.932   1.238
 2366W        W67626   9.475  21.751  14.843
 2367W        W67627  23.800   1.816  14.327
 2368W        W67628   7.499  41.524   0.416
 2369W        W67629  28.949  21.330  11.915
 2370W        W67630   1.803   0.566   3.129
 2371W        W67631  17.008   4.345   3.676
 2372W        W67632   1.945   6.905   2.352
 2373W        W67633   6.561  22.378  11.302
 2374W        W67634  29.612  40.050  11.121
 2375W        W67635  13.755  22.619   1.347
 2376W        W67636  12.819  35.550  10.476
 2377W        W67637  29.964  28.219   0.357
 2378W        W67638  19.065   0.412   2.847
 2379W        W67639  16.984   8.495  11.531
 2380W        W67640   0.332  20.039  11.561
 2381W        W67641  24.485  32.514  12.941
 2382W        W67642  22.866  33.895  12.467
 2383W        W67643  25.019  40.419   2.907
 2384W        W67644  11.873   1.950   2.363
 2385W        W67645  12.090  24.734   2.676
 2386W        W67646  13.749  21.802   0.769
 2387W        W67647  17.083  44.715   1.235
 2388W        W67648  18.296  23.211   1.940
 2389W        W67649  25.104  44.791  14.513
 2390W        W67650  12.364  37.400   4.694
 2391W        W67651  11.682  32.363   1.238
 2392W        W67652  28.287  31.625   2.731
 2393W        W67653  20.826  12.322   1.769
 2394W        W67654  27.414  30.914  11.157
 2395W        W67655  28.839  44.284  12.004
 2396W        W67656  22.202   6.775  10.950
 2397W        W67657  20.438  38.933  12.320
 2398W        W67658  15.744  28.429   0.814
 2399W        W67659   4.359  12.689   4.166
 2400W        W67660  43.290  21.372  11.975
 2401W        W67661  16.892  14.602   3.043
 2402W        W67662   4.510  25.770   0.381
 2403W        W67663  20.439  25.523   2.853
 2404W        W67664  17.466  36.924   1.091
 2405W        W67665  35.854  20.217   1.877
 2406W        W67666  44.671  26.584   3.735
 2407W        W67667  41.727   2.492   2.359
 2408W        W67668  16.084  40.304  14.080
 2409W        W67669  19.017   2.976   2.215
 2410W        W67670  43.200  21.768   3.133
 2411W        W67671  43.972   2.462   0.172
 2412W        W67672  14.279  29.245   4.328
 2413W        W67673  30.620   8.062  12.681
 2414W        W67674  40.571  42.756   0.025
 2415W        W67675   3.227  10.799   0.046
 2416W        W67676  27.345  35.115   3.679
 2417W        W67677  31.706  29.685  14.624
 2418W        W67678   7.091   9.712  12.107
 2419W        W67679  10.935  17.206  11.738
 2420W        W67680   0.475  29.161   4.260
 2421W        W67681   5.464  40.862   3.807
 2422W        W67682   5.314  33.724   2.175
 2423W        W67683   8.262  19.940   0.831
 2424W        W67684  21.461  42.428  11.002
 2425W        W67685  11.624  38.412   1.385
 2426W        W67686  32.085  41.008  13.017
 2427W        W67687  14.151   2.204  13.385
 2428W        W67688  42.448   0.959  13.475
 2429W        W67689  29.479   7.229   1.063
 2430W        W67690  13.361   7.654  12.938
 2431W        W67691  13.608  19.154   3.834
 2432W        W67692  39.003  20.830  10.633
 2433W        W67693   3.168  40.553  12.559
 2434W        W67694  10.579   5.324   2.229
 2435W        W67695  18.558  13.381   1.972
 2436W        W67696  16.403  23.569  11.204
 2437W        W67697  32.560  11.865   0.205
 2438W        W67698  23.748  15.603  11.654
 2439W        W67699  39.158  19.224   3.291
 2440W        W67700  38.456  22.545   1.289
 2441W        W67701  25.674  22.685  13.985
 2442W        W67702  31.567  35.324  10.737
 2443W        W67703  23.892  33.120  11.599
 2444W        W67704  13.315   8.654   1.184
 2445W        W67705  15.630   6.366   5.072
 2446W        W67706  41.862  35.280   4.031
 2447W        W67707  37.054  10.232  12.393
 2448W        W67708   0.821   3.704   1.187
 2449W        W67709   2.202   2.851  12.733
 2450W        W67710  32.746   6.812  14.892
 2451W        W67711  28.538  20.652  12.296
 2452W        W67712  34.313  10.263  11.622
 2453W        W67713  13.631  18.149  13.776
 2454W        W67714  13.180  35.368  12.647
 2455W        W67715  24.847   7.226  14.006
 2456W        W67716   4.009  44.923   4.303
 2457W        W67717   2.367   8.826  12.541
 2458W        W67718   2.671  32.436   4.644
 2459W        W67719   5.702  19.747  10.607
 2460W        W67720  32.927  18.157   4.088
 2461W        W67721   4.412   9.250   2.754
 2462W        W67722  25.050  26.624   4.438
 2463W        W67723  43.232  35.871   3.258
 2464W        W67724  40.174  12.555   3.994
 2465W        W67725   8.167   5.662   3.206
 2466W        W67726  22.610   7.671  11.917
 2467W        W67727  36.922   4.905  11.281
 2468W        W67728  22.153  15.542   1.677
 2469W        W67729  15.374  24.569   4.519
 2470W        W67730  13.628  15.780   0.459
 2471W        W67731  23.168  30.918  11.095
 2472W        W67732  41.924  15.356  14.347
 2473W        W67733  13.321  18.041  10.676
 2474W        W67734  33.322  24.222  12.653
 2475W        W67735  22.290   0.963  14.506
 2476W        W67736  18.100   5.025  11.114
 2477W        W67737  31.027  12.635   0.484
 2478W        W67738  32.810  27.257  14.845
 2479W        W67739  35.069  34.303  13.879
 2480W        W67740   5.254  41.886   3.736
 2481W        W67741  26.624  36.469   3.730
 2482W        W67742  14.144  13.379  14.476
 2483W        W67743  26.432  29.600   0.785
 2484W        W67744  27.422  26.202  13.977
 2485W        W67745   2.331  16.525   2.402
 2486W        W67746  26.019  17.717   1.642
 2487W        W67747  12.651  44.429  13.480
 2488W        W67748  14.320  34.116  12.914
 2489W        W67749  11.271  14.333  12.593
 2490W        W67750   1.881  44.995  13.368
 2491W        W67751   2.502  15.637   2.694
 2492W        W67752   9.083  35.505   4.339
 2493W        W67753  15.227  38.098  11.028
 2494W        W67754  32.592  41.062   0.067
 2495W        W67755  11.049  10.841   3.255
 2496W        W67756   8.836   0.854   4.942
 2497W        W67757  20.449  10.260   3.303
 2498W        W67758  34.568   1.948  14.407
 2499W        W67759  32.519  37.996  11.086
 2500W        W67760   3.698  14.278  12.460
 2501W        W67761  28.680  37.177   0.555
 2502W        W67762  41.121  44.595   3.602
 2503W        W67763  18.206  34.171  13.597
 2504W        W67764  23.461  25.236   0.346
 2505W        W67765   6.961  33.931   2.739
 2506W        W67766  17.073  33.077   1.510
 2507W        W67767  39.465  35.845   1.755
 2508W        W67768   4.232  36.404   4.414
 2509W        W67769  29.412  40.759   4.593
 2510W        W67770   6.579   0.151  11.072
 2511W        W67771  19.034  12.883   1.356
 2512W        W67772  19.802  41.494   0.871
 2513W        W67773  21.043  24.603  14.085
 2514W        W67774  41.588  24.671   4.165
 2515W        W67775   5.117  40.467  13.315
 2516W        W67776   0.874  28.751  12.228
 2517W        W67777  35.562  44.578   3.070
 2518W        W67778  17.176  21.916  11.499
 2519W        W67779  13.530  13.132  13.039
 2520W        W67780   9.853  41.768  10.527
 2521W        W67781   5.109  38.422   2.669
 2522W        W67782   9.871   0.461  11.640
 2523W        W67783  44.323  23.177   2.832
 2524W        W67784  20.589  13.209  13.740
 2525W        W67785  30.598  37.303  11.959
 2526W        W67786  30.995   2.509  13.389
 2527W        W67787   2.167  21.213  12.156
 2528W        W67788  24.066   7.244   0.902
 2529W        W67789  26.773   3.032  10.850
 2530W        W67790   7.350  40.559   2.344
 2531W        W67791   3.250  30.905  11.887
 2532W        W67792   2.116  12.303  10.386
 2533W        W67793  17.657  39.289  14.205
 2534W        W67794   0.289   4.554   0.413
 2535W        W67795   9.169  18.741   2.365
 2536W        W67796   9.169  32.509   1.399
 2537W        W67797  39.929   4.843   3.123
 2538W        W67798  31.892  27.092   1.872
 2539W        W67799  21.384  38.888  12.441
 2540W        W67800   8.314  40.104  14.443
 2541W        W67801  17.813  40.150   4.278
 2542W        W67802   2.152   8.416   2.523
 2543W        W67803  13.332  42.586   1.328
 2544W        W67804  17.446  32.453  11.515
 2545W        W67805   8.885  30.144  14.902
 2546W        W67806  33.378  38.073   4.734
 2547W        W67807  22.274  34.186  11.453
 2548W        W67808  22.549  38.547  14.500
 2549W        W67809   4.203  15.224  14.827
 2550W        W67810  44.804   4.267   2.188
 2551W        W67811  44.028  28.902   3.187
 2552W        W67812  28.253  17.044   0.012
 2553W        W67813  43.303  38.551  10.757
 2554W        W67814  35.892   4.896  11.238
 2555W        W67815  11.529  25.789   5.024
 2556W        W67816  27.928  35.061  12.948
 2557W        W67817  43.359   9.612  12.032
 2558W        W67818  13.113  20.421  13.881
 2559W        W67819  10.385   1.747  13.758
 2560W        W67820  23.049  15.204   3.529
 2561W        W67821  14.794  26.156   3.241
 2562W        W67822   6.211   3.599   1.598
 2563W        W67823   5.461   0.816   0.877
 2564W        W67824  25.117  15.370  14.397
 2565W        W67825  19.113   7.096   1.220
 2566W        W67826  33.705   0.234   4.242
 2567W        W67827   5.460  25.054  13.334
 2568W        W67828  30.725  33.797   4.136
 2569W        W67829  20.540  40.091   4.157
 2570W        W67830  22.225  18.070   0.789
 2571W        W67831  16.984  39.223  11.001
 2572W        W67832   2.149  35.492  13.356
 2573W        W67833  11.201  39.064   4.621
 2574W        W67834   9.118  35.455   1.416
 2575W        W67835  41.760  36.932  14.983
 2576W        W67836  31.126  42.858   3.412
 2577W        W67837   2.755  38.276   0.333
 2578W        W67838   8.779   7.756  12.444
 2579W        W67839   2.457  39.346  10.998
 2580W        W67840  29.472  39.342   2.610
 2581W        W67841  27.002  32.441   3.317
 2582W        W67842  10.770  29.362   0.959
 2583W        W67843  41.945   9.709   2.399
 2584W        W67844  15.604  23.073   0.260
 2585W        W67845  11.883  24.435   1.663
 2586W        W67846   8.558  29.114  13.780
 2587W        W67847  26.539   4.926   0.267
 2588W        W67848  40.990  13.072   2.155
 2589W        W67849  39.694  43.916   4.706
 2590W        W67850  14.284   2.712  14.602
 2591W        W67851  34.235   4.200  13.094
 2592W        W67852   5.303  18.734  10.588
 2593W        W67853   4.361   0.764  11.064
 2594W        W67854  44.504  14.097  12.560
 2595W        W67855  41.617  41.412  11.570
 2596W        W67856  43.876  19.151  14.260
 2597W        W67857  34.400  23.086   2.695
 2598W        W67858   4.768   1.457   2.466
 2599W        W67859  37.116  40.954   3.372
 2600W        W67860  42.657  24.571   3.200
 2601W        W67861  39.381  19.927  11.377
 2602W        W67862  39.449  31.052  14.908
 2603W        W67863  27.901  44.445  12.633
 2604W        W67864  23.422   5.889   4.466
 2605W        W67865   9.159  20.810  13.954
 2606W        W67866  44.193  23.520  12.442
 2607W        W67867  17.151  18.463  12.469
 2608W        W67868  15.403   5.321   2.652
 2609W        W67869  28.114  21.244   1.132
 2610W        W67870  16.216  25.645   1.267
 2611W        W67871  33.091  19.564  14.275
 2612W        W67872  26.712  42.582  10.732
 2613W        W67873   4.967  13.137   3.777
 2614W        W67874  39.573  12.115   2.807
 2615W        W67875  33.914  39.255   4.195
 2616W        W67876   8.941  35.969  14.011
 2617W        W67877  33.892  34.095   3.365
 2618W        W67878  17.741  14.073   1.475
 2619W        W67879  12.706  36.811  13.381
 2620W        W67880  33.876   8.957   3.618
 2621W        W67881   4.248  24.823  11.494
 2622W        W67882  38.277  24.064   4.734
 2623W        W67883  10.293  25.729   2.322
 2624W        W67884  42.451   4.187   3.075
 2625W        W67885  31.872  41.345   2.497
 2626W        W67886  24.448   9.902  13.779
 2627W        W67887  27.479  36.640   3.986
 2628W        W67888  20.027  33.921  11.904
 2629W        W67889  21.515  23.590   1.528
 2630W        W67890  24.205  29.057  12.245
 2631W        W67891  33.908  37.056   1.340
 2632W        W67892  41.031  10.286  12.594
 2633W        W67893  24.972  40.969   2.717
 2634W        W67894  40.527  23.413   4.620
 2635W        W67895  17.019  43.399  13.331
 2636W        W67896   1.798  16.551   2.584
 2637W        W67897  24.648  27.084  13.840
 2638W        W67898  19.385  44.379   3.300
 2639W        W67899  41.530  19.482   0.359
 2640W        W67900  18.118   5.673  13.754
 2641W        W67901  35.192  16.995  11.012
 2642W        W67902  16.419   9.631   3.886
 2643W        W67903  33.646  14.485   1.229
 2644W        W67904  12.188  38.140  11.682
 2645W        W67905  34.686  33.826   2.541
 2646W        W67906  15.787  10.123  14.922
 2647W        W67907  14.848  34.315  12.590
 2648W        W67908   2.632  27.157   5.573
 2649W        W67909  44.713  22.294   4.590
 2650W        W67910  34.946   5.879  14.924
 2651W        W67911  20.788   1.931   0.956
 2652W        W67912  29.134  14.577  14.423
 2653W        W67913  26.446  35.418   0.833
 2654W        W67914  44.338  33.067  10.086
 2655W        W67915  25.439  41.342  11.187
 2656W        W67916  14.799  18.498   1.225
 2657W        W67917  10.132  29.928   0.868
 2658W        W67918  20.167  26.897  13.636
 2659W        W67919  37.701  11.715  10.544
 2660W        W67920   8.901  38.477   3.884
 2661W        W67921  23.264   9.396   3.910
 2662W        W67922  36.095  39.964   3.632
 2663W        W67923  44.791  35.801   4.233
 2664W        W67924   3.586  17.693   3.234
 2665W        W67925  42.376   7.443   4.694
 2666W        W67926  39.334  36.332   1.912
 2667W        W67927  40.601  38.769  10.816
 2668W        W67928  32.243  24.143  13.058
 2669W        W67929  28.311   9.885   2.089
 2670W        W67930   5.030  22.833  11.426
 2671W        W67931  22.575   6.424  10.563
 2672W        W67932  35.842  13.532  11.640
 2673W        W67933  19.271  10.823   1.141
 2674W        W67934  39.804  20.939   0.834
 2675W        W67935   4.814  41.616   3.688
 2676W        W67936  42.527  42.849   4.089
 2677W        W67937  36.747  29.566   1.716
 2678W        W67938  43.628   6.630   2.912
 2679W        W67939  25.441  20.630  14.856
 2680W        W67940  36.083  36.035   1.982
 2681W        W67941  28.440  33.048   4.007
 2682W        W67942   1.405  19.040  14.433
 2683W        W67943   4.457   8.509   4.155
 2684W        W67944  28.003  32.906   4.594
 2685W        W67945  38.997  15.128   2.581
 2686W        W67946  26.719  11.081   1.730
 2687W        W67947  16.582   5.915   1.937
 2688W        W67948  35.982   2.080   4.788
 2689W        W67949  13.693  27.955   1.943
 2690W        W67950  31.178  11.196  14.464
 2691W        W67951  19.251  38.330  10.576
 2692W        W67952  39.576  31.099   3.328
 2693W        W67953   1.744  41.907   2.822
 2694W        W67954  15.780  10.395  13.348
 2695W        W67955  10.316   9.221   1.832
 2696W        W67956  40.383  44.877   4.106
 2697W        W67957  28.929  23.718   3.229
 2698W        W67958  31.672  12.679   0.873
 2699W        W67959  38.632  39.059  14.847
 2700W        W67960   8.365  44.462  14.759
 2701W        W67961  32.089   2.304   3.615
 2702W        W67962  14.339   4.683  11.891
 2703W        W67963  11.185  28.393   0.929
 2704W        W67964  35.899   6.604   4.735
 2705W        W67965  20.614  26.408  12.007
 2706W        W67966  20.012   1.739  14.865
 2707W        W67967  40.493  17.767  14.979
 2708W        W67968  30.462  40.745   2.792
 2709W        W67969  16.345   5.466   1.782
 2710W        W67970   2.277   4.245  13.845
 2711W        W67971  37.920  26.889   0.891
 2712W        W67972   8.331  21.195   4.695
 2713W        W67973  16.711   9.625  12.980
 2714W        W67974   3.792  37.134   0.877
 2715W        W67975  23.225   9.339   3.407
 2716W        W67976   1.717  14.418  13.496
 2717W        W67977  40.745   6.650   1.796
 2718W        W67978  40.968  15.210  11.783
 2719W        W67979  24.792  43.431   1.870
 2720W        W67980   2.980  24.216   3.647
 2721W        W67981   7.425  37.289   0.754
 2722W        W67982  24.614  11.874   0.324
 2723W        W67983  21.255  11.267  12.003
 2724W        W67984  14.216  26.716   1.827
 2725W        W67985  23.975  27.389   0.365
 2726W        W67986   1.584  34.864  13.080
 2727W        W67987  10.428  35.026  12.103
 2728W        W67988  27.676  17.306  12.019
 2729W        W67989  32.517  21.331  11.126
 2730W        W67990  33.069  42.152   2.224
 2731W        W67991  39.015  26.184   3.725
 2732W        W67992  29.035   7.192  12.414
 2733W        W67993  39.457  26.764  10.444
 2734W        W67994   3.456  18.584  13.015
 2735W        W67995  21.482  35.711   2.212
 2736W        W67996   7.887  10.733   3.607
 2737W        W67997  23.003   7.418   3.681
 2738W        W67998  13.572   1.597  14.254
 2739W        W67999  21.578   5.744   5.256
 2740W        W68000  12.979  14.959   2.039
 2741W        W68001  18.803  22.832  11.531
 2742W        W68002  28.384   6.814   1.874
 2743W        W68003  12.246  44.090   1.720
 2744W        W68004  37.572  28.542  10.734
 2745W        W68005   3.373  44.728  13.410
 2746W        W68006  37.464  31.438   1.278
 2747W        W68007  37.664  23.185  12.602
 2748W        W68008  43.411   6.108  11.899
 2749W        W68009  36.404   7.382  11.631
 2750W        W68010  32.336   7.307   1.302
 2751W        W68011  27.126  34.516   0.447
 2752W        W68012  19.600  44.967   0.697
 2753W        W68013  16.873   8.244   0.332
 2754W        W68014  43.386   2.764  10.636
 2755W        W68015   0.619   0.829   2.403
 2756W        W68016  40.880  10.642  12.964
 2757W        W68017  22.714  28.459  11.137
 2758W        W68018  40.877   2.210  10.656
 2759W        W68019   9.235  44.226   1.320
 2760W        W68020  34.636  36.608   1.445
 2761W        W68021   5.720  10.581  12.882
 2762W        W68022   7.416  43.379  12.559
 2763W        W68023  30.949  19.168  13.504
 2764W        W68024   2.885  25.140   3.332
 2765W        W68025   6.230  24.329  11.964
 2766W        W68026  24.578  34.133  13.339
 2767W        W68027  24.586  26.096   0.179
 2768W        W68028  43.847   5.156   1.288
 2769W        W68029  10.683  30.623   3.934
 2770W        W68030  34.503   4.058   2.668
 2771W        W68031  18.058  27.113  14.296
 2772W        W68032  39.731  35.224  11.023
 2773W        W68033  20.571  10.561  14.924
 2774W        W68034  40.126   2.928   3.713
 2775W        W68035   2.558  14.110   4.111
 2776W        W68036   6.803  10.596   4.645
 2777W        W68037  23.558  26.943   1.749
 2778W        W68038  31.047  30.494   0.679
 2779W        W68039   9.559  28.148  12.624
 2780W        W68040  11.005  23.094  10.980
 2781W        W68041  42.045  11.563   2.754
 2782W        W68042  34.061  30.603  13.859
 2783W        W68043  26.522  43.590   3.797
 2784W        W68044  26.147  14.564   1.177
 2785W        W68045   2.843  10.134  12.080
 2786W        W68046  41.285   2.605   5.483
 2787W        W68047  22.468  29.000   9.990
 2788W        W68048  38.929  31.682  13.806
 2789W        W68049  33.628  32.565   4.565
 2790W        W68050  27.086  15.299  10.730
 2791W        W68051   4.240  44.373   3.077
 2792W        W68052   0.680   4.804   3.124
 2793W        W68053  16.984   2.833  13.472
 2794W        W68054  34.040  15.651  11.845
 2795W        W68055   5.727  35.580   1.431
 2796W        W68056   4.389  19.457  10.611
 2797W        W68057  35.113  36.817  12.093
 2798W        W68058  21.082  10.330   3.737
 2799W        W68059  23.329  38.056   0.805
 2800W        W68060   2.381  29.096  13.047
 2801W        W68061   6.465  27.092  12.931
 2802W        W68062  13.831   4.287  11.631
 2803W        W68063   9.744  44.318  13.244
 2804W        W68064   6.349  16.055  12.343
 2805W        W68065  42.277   8.510  11.109
 2806W        W68066  25.481   6.904   3.638
 2807W        W68067  19.662  44.961  11.551
 2808W        W68068  35.958  25.250   5.055
 2809W        W68069  19.734  18.947   3.173
 2810W        W68070  34.147  15.769   0.374
 2811W        W68071  20.709  33.085  14.986
 2812W        W68072  32.387  16.807   3.633
 2813W        W68073  10.786  30.517  10.419
 2814W        W68074  29.649  31.440   1.773
 2815W        W68075   1.578  32.949   3.492
 2816W        W68076  40.812  18.212  13.376
 2817W        W68077   0.464  41.246  13.045
 2818W        W68078  36.841  12.024   4.101
 2819W        W68079   3.648  32.709   1.887
 2820W        W68080   3.368  27.684   1.239
 2821W        W68081   1.236  21.952   3.646
 2822W        W68082  42.859   4.256  14.885
 2823W        W68083  43.131  31.112  11.741
 2824W        W68084  32.739  26.772   4.957
 2825W        W68085  44.076   2.238   1.674
 2826W        W68086   3.801  25.460   3.282
 2827W        W68087  16.815  20.223   0.373
 2828W        W68088  25.205   2.731   1.540
 2829W        W68089  34.318  33.102  12.508
 2830W        W68090  10.434  24.691   0.031
 2831W        W68091  39.953  21.020   1.882
 2832W        W68092  32.595  44.020   4.944
 2833W        W68093  33.037   8.711  11.415
 2834W        W68094  24.127  37.082   0.199
 2835W        W68095  34.079   8.600   2.239
 2836W        W68096  16.298   0.866  10.847
 2837W        W68097   0.721   7.752   2.765
 2838W        W68098  25.071   0.907  13.323
 2839W        W68099  31.529  38.997  14.483
 2840W        W68100  24.066  40.603   2.233
 2841W        W68101  16.046  40.913  12.037
 2842W        W68102   5.623  36.965  11.606
 2843W        W68103   4.184  25.737   2.358
 2844W        W68104  44.823  10.732   0.755
 2845W        W68105  34.636  15.219  12.005
 2846W        W68106  42.280   4.401   4.040
 2847W        W68107  18.824  44.917   1.853
 2848W        W68108  37.840  16.169   0.049
 2849W        W68109  34.677  30.178   1.436
 2850W        W68110   6.721  30.387   0.348
 2851W        W68111  15.781  32.934   2.359
 2852W        W68112  37.119  36.366   4.612
 2853W        W68113   7.753  27.746   4.078
 2854W        W68114  25.947   1.786  11.950
 2855W        W68115  13.574   0.344  14.109
 2856W        W68116  33.362  42.394   2.939
 2857W        W68117  40.846  42.851  14.580
 2858W        W68118  25.263  33.512   0.255
 2859W        W68119  31.179  26.113  14.044
 2860W        W68120  21.469  34.134   3.253
 2861W        W68121  24.457  16.765   1.385
 2862W        W68122   9.892   5.229   3.624
 2863W        W68123  44.421  28.047  13.566
 2864W        W68124   5.391  29.752   2.150
 2865W        W68125   2.933  44.956  14.264
 2866W        W68126  28.066  22.919  14.934
 2867W        W68127  33.464  18.832   3.791
 2868W        W68128  42.729  22.635  11.925
 2869W        W68129  30.558  24.158  12.570
 2870W        W68130  16.560  27.104   0.814
 2871W        W68131   2.597   3.734   1.352
 2872W        W68132  29.495   1.967   4.333
 2873W        W68133  36.429  34.573   2.705
 2874W        W68134  35.121  15.395   4.980
 2875W        W68135  34.106  31.502  10.858
 2876W        W68136   1.260  36.514   1.888
 2877W        W68137  21.559  16.563   3.887
 2878W        W68138  15.727   2.701   1.411
 2879W        W68139  23.050  40.112  12.200
 2880W        W68140  35.044  44.573  11.147
 2881W        W68141  10.880  35.254  14.334
 2882W        W68142  32.345   2.906  10.654
 2883W        W68143   4.853  38.537  13.377
 2884W        W68144  27.569  21.664  13.398
 2885W        W68145  18.505   2.507   0.148
 2886W        W68146  20.130  11.875  11.761
 2887W        W68147  25.752  19.198   2.369
 2888W        W68148  20.137  11.364   0.027
 2889W        W68149  11.010  16.873   0.273
 2890W        W68150  16.408   0.420   3.616
 2891W        W68151  27.139   5.884   4.927
 2892W        W68152  38.733  13.284  11.801
 2893W        W68153  10.721  39.958  11.674
 2894W        W68154  22.628  29.121   3.328
 2895W        W68155  13.803  21.115   4.288
 2896W        W68156   7.262  17.255  13.566
 2897W        W68157   4.720  16.060  13.778
 2898W        W68158  17.247  44.242  10.824
 2899W        W68159   2.722   6.779  11.512
 2900W        W68160  24.748  16.622   3.202
 2901W        W68161   9.642  38.284   3.468
 2902W        W68162   4.654  36.905   5.109
 2903W        W68163   4.417   4.324   2.805
 2904W        W68164  20.806  38.249   3.156
 2905W        W68165  27.745  30.569   3.582
 2906W        W68166   0.543   3.322  13.168
 2907W        W68167  43.901  14.088   5.465
 2908W        W68168  42.137  38.965   2.375
 2909W        W68169  28.787  24.667  10.901
 2910W        W68170  15.084  21.740  13.218
 2911W        W68171  18.627  18.535   0.912
 2912W        W68172   8.612  29.663  10.808
 2913W        W68173  39.365  41.160   2.806
 2914W        W68174  24.312  27.865   0.227
 2915W        W68175   5.020  37.737  14.565
 2916W        W68176   7.849  19.682   1.348
 2917W        W68177  11.441  26.181   0.357
 2918W        W68178  28.423  23.412   1.327
 2919W        W68179   6.487   0.699  10.673
 2920W        W68180  22.764  15.070   4.295
 2921W        W68181  17.128   3.458  14.828
 2922W        W68182   1.484   8.367   0.347
 2923W        W68183  42.020  38.048   1.422
 2924W        W68184  19.211  39.095  10.998
 2925W        W68185  22.495  12.676   0.158
 2926W        W68186  33.889  40.888   0.390
 2927W        W68187   1.709  43.017   4.847
 2928W        W68188  19.084   6.395  12.619
 2929W        W68189  26.519   0.886  12.013
 2930W        W68190  18.281  27.931  11.200
 2931W        W68191  40.326  39.889   2.826
 2932W        W68192   7.640  38.064   0.739
 2933W        W68193  22.556   0.077  11.401
 2934W        W68194  11.788  29.921  10.626
 2935W        W68195  22.005  15.398   1.190
 2936W        W68196  27.570   6.811  10.185
 2937W        W68197   5.065   5.208   0.754
 2938W        W68198  41.947  28.860  12.992
 2939W        W68199   8.274  14.645   2.175
 2940W        W68200  15.577  16.675  11.184
 2941W        W68201  29.172  39.648   0.809
 2942W        W68202  23.292  31.604  12.546
 2943W        W68203  13.618  26.139  11.180
 2944W        W68204   7.276  15.900  12.444
 2945W        W68205  23.301  35.318  12.516
 2946W        W68206  43.800  21.254  13.035
 2947W        W68207   9.124   8.663   4.292
 2948W        W68208   4.842  20.609   0.674
 2949W        W68209  33.570  20.982  13.890
 2950W        W68210  21.537   4.536   1.730
 2951W        W68211  34.497  15.585  12.638
 2952W        W68212   7.894   0.035   1.255
 2953W        W68213  18.174  38.561  10.685
 2954W        W68214   1.813  23.725  12.491
 2955W        W68215  18.637  38.285   4.579
 2956W        W68216  27.693  13.836  14.032
 2957W        W68217   4.069  23.269  11.674
 2958W        W68218  15.396  11.247   2.366
 2959W        W68219  40.399  25.542  13.736
 2960W        W68220  35.317  34.661  13.607
 2961W        W68221   8.810  15.679  10.728
 2962W        W68222  44.140  26.105  11.156
 2963W        W68223  39.379  31.661  13.450
 2964W        W68224  30.989  37.110  11.683
 2965W        W68225  14.389   5.325  12.502
 2966W        W68226  40.876  18.218   1.644
 2967W        W68227  32.012  30.645  12.070
 2968W        W68228  10.229  37.251  12.377
 2969W        W68229   4.679   9.777  14.081
 2970W        W68230  26.522  16.218  13.777
 2971W        W68231  44.789  32.461  14.227
 2972W        W68232  37.108  27.559   0.668
 2973W        W68233  24.820  13.872   2.762
 2974W        W68234  27.845  27.566   3.561
 2975W        W68235  38.836  17.509  12.919
 2976W        W68236  13.535  21.037   3.256
 2977W        W68237  25.045  19.130  14.302
 2978W        W68238  16.785   5.309   2.779
 2979W        W68239   2.401  13.599  11.303
 2980W        W68240   7.270  29.698   2.785
 2981W        W68241  13.857  28.770   3.626
 2982W        W68242   9.386   6.505   0.927
 2983W        W68243  10.122  35.068  14.058
 2984W        W68244  31.959  42.329   4.195
 2985W        W68245  12.997  42.958   3.097
 2986W        W68246  14.672   5.334  11.179
 2987W        W68247  40.803  38.326   1.960
 2988W        W68248  33.656  34.992  13.804
 2989W        W68249  35.766   0.578   3.222
 2990W        W68250  30.524  23.263  14.878
 2991W        W68251  36.940  15.875   1.493
 2992W        W68252  36.608   8.312  14.923
 2993W        W68253  27.301  31.210  12.427
 2994W        W68254   0.296  21.146   3.627
 2995W        W68255  34.635   2.429   2.360
 2996W        W68256  24.498  25.369   3.231
 2997W        W68257   5.138   3.475   4.061
 2998W        W68258   2.971  22.782   3.287
 2999W        W68259  40.013  28.149  11.989
 3000W        W68260  14.758  12.265   0.664
 3001W        W68261  17.163  15.103   2.855
 3002W        W68262  11.731  23.292   1.066
 3003W        W68263   3.927  29.436  11.224
 3004W        W68264  36.551  25.948  10.781
 3005W        W68265   8.679  31.642   4.289
 3006W        W68266  40.647  40.445   4.463
 3007W        W68267   4.142  22.638   4.831
 3008W        W68268  17.876  41.967  11.528
 3009W        W68269   5.196  33.820  11.629
 3010W        W68270  21.074  42.969  12.117
 3011W        W68271   0.030  35.893   3.772
 3012W        W68272  25.629  32.285   4.032
 3013W        W68273  40.516  12.702   1.388
 3014W        W68274  44.327   4.396   2.357
 3015W        W68275   7.232  13.572  14.726
 3016W        W68276  17.758  17.491  13.477
 3017W        W68277   8.477  10.154   2.333
 3018W        W68278   7.178  31.032  10.972
 3019W        W68279  15.322  17.305   2.352
 3020W        W68280  35.318   0.546   0.387
 3021W        W68281   1.879  10.643   1.447
 3022W        W68282   8.202  42.401   4.431
 3023W        W68283  10.290  42.593   3.695
 3024W        W68284  12.556  22.029   3.476
 3025W        W68285   5.411   9.625   4.594
 3026W        W68286  38.930  42.774   3.684
 3027W        W68287  14.611  33.597   3.814
 3028W        W68288   9.156  27.709   4.225
 3029W        W68289   4.533  36.520  12.552
 3030W        W68290  44.830   7.365  10.749
 3031W        W68291   0.154  15.774  14.230
 3032W        W68292  22.127  17.759   3.723
 3033W        W68293  40.929  16.114  14.883
 3034W        W68294  35.649   4.836  12.436
 3035W        W68295  34.418   6.495  11.190
 3036W        W68296  25.732   2.149  13.376
 3037W        W68297  10.280  12.243  14.801
 3038W        W68298  14.457  21.509   1.986
 3039W        W68299   7.589  33.682   1.891
 3040W        W68300   3.854  35.813   0.813
 3041W        W68301  40.064  25.527  10.412
 3042W        W68302  31.180  26.385  12.764
 3043W        W68303   8.187   3.224   3.200
 3044W        W68304   3.214   4.866  10.954
 3045W        W68305   5.667   0.547   4.679
 3046W        W68306   2.517  10.834  13.372
 3047W        W68307   7.503  19.105   1.759
 3048W        W68308  43.263  35.078   1.161
 3049W        W68309  28.999   6.157  12.522
 3050W        W68310  43.869  11.081   2.698
 3051W        W68311  30.210  11.219  11.615
 3052W        W68312  28.165   2.880   5.085
 3053W        W68313  41.513  16.341  12.040
 3054W        W68314   5.401  21.528   1.967
 3055W        W68315  37.174   0.196  10.335
 3056W        W68316  29.696  31.283   2.344
 3057W        W68317  41.945  20.618  14.804
 3058W        W68318   9.479   7.911   5.417
 3059W        W68319  10.296   4.313   3.594
 3060W        W68320   9.208   1.975   1.182
 3061W        W68321  43.422  43.878  12.116
 3062W        W68322  21.980  34.280   3.269
 3063W        W68323  20.744  28.500  14.323
 3064W        W68324  33.042   3.816   3.129
 3065W        W68325  37.873  22.392  13.322
 3066W        W68326   2.454  41.057  12.057
 3067W        W68327   4.892   6.708  12.936
 3068W        W68328   4.477  20.229   0.718
 3069W        W68329  16.647  37.857  14.531
 3070W        W68330  43.870  41.994   3.622
 3071W        W68331  17.731  21.558   0.878
 3072W        W68332   0.725   5.381   0.912
 3073W        W68333   8.546  44.452  11.258
 3074W        W68334  15.367  20.065  11.032
 3075W        W68335  33.412  34.029   0.346
 3076W        W68336  26.949  13.441  11.587
 3077W        W68337  15.409  33.451   2.164
 3078W        W68338  24.023  35.826   2.643
 3079W        W68339  16.683   1.076   5.039
 3080W        W68340  27.311  21.632  10.164
 3081W        W68341  23.769  26.070  13.450
 3082W        W68342   3.288  18.616  11.672
 3083W        W68343   4.357  42.458   1.660
 3084W        W68344  21.049   8.760   3.329
 3085W        W68345  35.412  37.343   0.806
 3086W        W68346   3.240  42.411   2.332
 3087W        W68347   6.105  43.198  12.222
 3088W        W68348  27.233  15.129  11.203
 3089W        W68349  29.036  14.221  12.171
 3090W        W68350  19.739  28.558  13.343
 3091W        W68351  20.363  30.045  13.352
 3092W        W68352   4.515  44.375  12.844
 3093W        W68353  32.121   7.259  14.333
 3094W        W68354  21.517  27.417   4.015
 3095W        W68355  22.981   8.599  11.934
 3096W        W68356  32.935  10.339   0.279
 3097W        W68357  26.693  29.586   5.096
 3098W        W68358  32.627  20.578  12.511
 3099W        W68359  23.531  15.363  13.512
 3100W        W68360   7.311  39.344   3.735
 3101W        W68361  28.562  12.394   2.865
 3102W        W68362  25.442   6.164   1.178
 3103W        W68363   1.932   9.218   4.359
 3104W        W68364  40.412  30.168   2.318
 3105W        W68365  16.092  15.619  10.663
 3106W        W68366  24.660  25.057  12.238
 3107W        W68367   4.716  37.994   2.826
 3108W        W68368  17.169  23.065   3.818
 3109W        W68369  31.628  31.146   4.989
 3110W        W68370  20.772  37.068   2.534
 3111W        W68371   2.991  28.825  14.342
 3112W        W68372  43.528   8.675   2.905
 3113W        W68373  24.536  20.991   1.200
 3114W        W68374  15.081  35.336  14.441
 3115W        W68375  26.767  23.781   4.181
 3116W        W68376  28.247  10.248  14.827
 3117W        W68377  26.301   4.842  14.275
 3118W        W68378   5.867  39.772   3.695
 3119W        W68379  41.805  31.510  12.393
 3120W        W68380  16.114  34.446   3.885
 3121W        W68381  23.060  26.467   0.673
 3122W        W68382   4.938  35.058  12.005
 3123W        W68383  23.274   8.947   4.147
 3124W        W68384  27.639   3.433  12.055
 3125W        W68385  14.718  40.302   4.673
 3126W        W68386   6.525  25.462   3.281
 3127W        W68387  24.038  11.388   0.814
 3128W        W68388   8.305   0.745  10.689
 3129W        W68389  29.537  28.959  10.420
 3130W        W68390  43.752  21.604  11.867
 3131W        W68391  11.275  34.104  12.537
 3132W        W68392  29.389  40.858   3.717
 3133W        W68393  44.381  36.949   0.362
 3134W        W68394  17.202  15.290   1.399
 3135W        W68395   5.733   3.445  12.326
 3136W        W68396  13.076  29.878   2.790
 3137W        W68397   3.810  16.009  11.977
 3138W        W68398  43.041  19.571   0.259
 3139W        W68399   5.496  38.788   2.679
 3140W        W68400  22.015  36.296  13.417
 3141W        W68401  15.517  41.330   1.275
 3142W        W68402  31.336  14.297   1.187
 3143W        W68403  11.931  43.778  13.527
 3144W        W68404  19.226  24.468  14.412
 3145W        W68405  44.362  41.940   4.523
 3146W        W68406  20.813  33.146   2.205
 3147W        W68407  28.110  44.909  11.047
 3148W        W68408  24.507  24.949  14.609
 3149W        W68409  21.869  19.308   1.318
 3150W        W68410   1.815  10.128   1.408
 3151W        W68411  24.567  14.331   2.786
 3152W        W68412  23.019  25.314   3.278
 3153W        W68413  19.764   3.341  12.488
 3154W        W68414  21.714   4.566   2.726
 3155W        W68415  21.426   0.482  14.271
 3156W        W68416  37.933  34.356   4.430
 3157W        W68417  37.970  16.307   3.929
 3158W        W68418  13.408  37.554   3.252
 3159W        W68419  39.122  38.565  14.883
 3160W        W68420  14.870  19.643  14.398
 3161W        W68421  43.761  28.034   1.112
 3162W        W68422  42.782  27.440   4.200
 3163W        W68423   0.504   4.740   2.639
 3164W        W68424  22.721  27.457   1.815
 3165W        W68425  21.061  39.317   1.721
 3166W        W68426   5.823  27.688   0.775
 3167W        W68427   8.958  15.751  11.213
 3168W        W68428  25.661  39.340   2.908
 3169W        W68429   6.977  30.453   2.121
 3170W        W68430  42.074  27.482   3.186
 3171W        W68431  37.136  22.611  12.944
 3172W        W68432  25.592  15.188   1.675
 3173W        W68433   0.221  20.689   3.266
 3174W        W68434  44.352  41.964   1.360
 3175W        W68435   6.698   9.911   1.752
 3176W        W68436  27.356  33.482  12.027
 3177W        W68437  33.559  40.243   2.541
 3178W        W68438  18.756  20.712  10.452
 3179W        W68439  26.424   2.900   2.199
 3180W        W68440  35.018  10.093   4.679
 3181W        W68441  15.687  25.542  10.792
 3182W        W68442  22.011   1.847  10.067
 3183W        W68443  36.439  21.991   3.134
 3184W        W68444  38.408   8.062   2.386
 3185W        W68445  38.835  18.035  12.912
 3186W        W68446  30.623   3.965  14.650
 3187W        W68447  36.950  12.392  14.023
 3188W        W68448   3.249  11.165   2.341
 3189W        W68449  33.573  41.187   2.229
 3190W        W68450  34.676   9.335  12.907
 3191W        W68451  38.344  10.588  10.581
 3192W        W68452  42.399  16.235   4.407
 3193W        W68453  20.336   7.889   0.232
 3194W        W68454  14.758  16.058  11.245
 3195W        W68455  27.778  19.630  10.525
 3196W        W68456   9.932  15.099  11.996
 3197W        W68457  12.064  11.679  13.853
 3198W        W68458   8.867  18.747  11.520
 3199W        W68459  18.777  15.059  11.128
 3200W        W68460   5.706  19.050   0.252
 3201W        W68461  20.445  22.966  12.216
 3202W        W68462  28.504  26.195   3.148
 3203W        W68463  39.771   0.422  14.244
 3204W        W68464  35.195  26.661   2.201
 3205W        W68465   7.270  39.787   0.817
 3206W        W68466  25.879  18.004  14.836
 3207W        W68467  17.043   7.169   0.450
 3208W        W68468  14.138  31.738  13.883
 3209W        W68469   6.281   2.721  13.810
 3210W        W68470  12.739  42.972   1.230
 3211W        W68471   2.584   8.441  12.959
 3212W        W68472  37.887   7.746   0.882
 3213W        W68473   4.462  14.617   2.894
 3214W        W68474   5.288  13.901  13.926
 3215W        W68475   2.218  27.635  11.612
 3216W        W68476   2.802  18.212  10.763
 3217W        W68477  34.000  11.793  11.753
 3218W        W68478   3.658  22.184  13.223
 3219W        W68479  41.406  23.985  14.436
 3220W        W68480  40.520  35.317   3.092
 3221W        W68481  10.465  11.910   4.278
 3222W        W68482  15.329  35.303   1.361
 3223W        W68483  33.311  32.937  12.480
 3224W        W68484  19.161  21.974  14.266
 3225W        W68485  18.025  17.719  13.950
 3226W        W68486  37.321  20.522  13.362
 3227W        W68487  21.221  43.940   0.403
 3228W        W68488  36.775  30.456  11.656
 3229W        W68489  11.343  26.268  13.752
 3230W        W68490  11.380  39.929  13.539
 3231W        W68491  35.928  17.099   4.610
 3232W        W68492  35.342   4.860   2.474
 3233W        W68493  33.869   4.659   3.721
 3234W        W68494  33.554  32.120  11.931
 3235W        W68495  34.096  44.915  13.611
 3236W        W68496  40.768  13.791  14.515
 3237W        W68497  10.554  16.555  11.048
 3238W        W68498  29.474   6.159   2.856
 3239W        W68499  11.087  16.803  13.327
 3240W        W68500   5.319  19.285  13.513
 3241W        W68501  30.121  13.283  11.416
 3242W        W68502  35.148  25.816  14.662
 3243W        W68503  17.224  39.625   2.267
 3244W        W68504  23.471  44.334  14.043
 3245W        W68505  36.524  27.585   4.028
 3246W        W68506   4.912  16.917  13.980
 3247W        W68507  38.918  22.568  10.111
 3248W        W68508  39.269   6.897   0.866
 3249W        W68509  28.731  17.156  14.897
 3250W        W68510  32.215  27.906  14.032
 3251W        W68511  40.630   7.266   3.308
 3252W        W68512  31.442  29.411  10.603
 3253W        W68513   5.303   8.653   0.496
 3254W        W68514  44.480  14.216   1.046
 3255W        W68515   6.049   9.334   1.379
 3256W        W68516  32.426   6.472  12.108
 3257W        W68517  11.638  15.847  11.083
 3258W        W68518  11.014   9.238   0.840
 3259W        W68519   2.329  19.927  11.009
 3260W        W68520   2.310  12.303   0.685
 3261W        W68521   2.241  30.146   2.907
 3262W        W68522  28.427   6.692   0.952
 3263W        W68523  31.412  38.575  11.949
 3264W        W68524  24.595  32.660   0.093
 3265W        W68525  44.816  17.318  11.692
 3266W        W68526  35.562  38.904   3.242
 3267W        W68527  22.000  18.243  10.336
 3268W        W68528  29.544  34.014  10.733
 3269W        W68529  19.404  44.921  10.539
 3270W        W68530  15.887   8.222   0.603
 3271W        W68531  23.580  31.930   0.711
 3272W        W68532   4.332  42.900   1.951
 3273W        W68533  12.840  21.956  12.057
 3274W        W68534  13.182  13.307  11.500
 3275W        W68535  32.789   5.140  14.504
 3276W        W68536   8.048   7.797  13.909
 3277W        W68537  29.679  20.470  14.294
 3278W        W68538   7.719   5.606   2.202
 3279W        W68539  21.311   2.872  14.477
 3280W        W68540  40.649   4.050  11.553
 3281W        W68541  43.028  36.604   0.439
 3282W        W68542  16.149  32.793  13.379
 3283W        W68543  18.278   5.168  12.875
 3284W        W68544  30.559  22.039   4.085
 3285W        W68545  17.433  12.534   4.531
 3286W        W68546  41.926  27.105   4.274
 3287W        W68547  32.138  31.717  13.532
 3288W        W68548  27.159  43.832   3.368
 3289W        W68549   8.217  11.360   2.460
 3290W        W68550  40.538  43.647   1.686
 3291W        W68551   4.728   3.250  13.562
 3292W        W68552  17.786  42.347   0.761
 3293W        W68553   6.970  35.096  13.539
 3294W        W68554  18.003  18.717   1.510
 3295W        W68555  19.641  26.970  11.097
 3296W        W68556   4.599   9.235  10.655
 3297W        W68557  11.533  40.052   0.395
 3298W        W68558  23.662  32.844  12.011
 3299W        W68559  31.658  14.683   3.331
 3300W        W68560  42.744   4.196   1.344
 3301W        W68561  36.692  22.715   3.802
 3302W        W68562  25.227  33.005  14.500
 3303W        W68563  42.243   3.840  14.305
 3304W        W68564  42.066  25.418   0.810
 3305W        W68565  16.347   0.532  12.477
 3306W        W68566  18.743   6.286   0.877
 3307W        W68567  16.515   0.806   3.155
 3308W        W68568  43.407  23.395   4.984
 3309W        W68569  23.990  29.243   4.166
 3310W        W68570   8.617   7.813   3.278
 3311W        W68571  30.987  42.377  11.613
 3312W        W68572  38.914  15.597   2.802
 3313W        W68573  30.940  42.451   3.658
 3314W        W68574   6.616  43.843   4.584
 3315W        W68575   1.454  30.731   0.641
 3316W        W68576  34.792  18.233  10.272
 3317W        W68577  14.704  32.551   1.600
 3318W        W68578  35.234  31.261   2.790
 3319W        W68579   0.357  23.353  11.015
 3320W        W68580   5.252  44.276   1.888
 3321W        W68581  29.226   4.466   2.183
 3322W        W68582  26.744  35.635   2.260
 3323W        W68583  21.751   1.676   3.359
 3324W        W68584  35.152  28.605  10.722
 3325W        W68585  37.378  22.512   4.555
 3326W        W68586  34.257  19.285   1.507
 3327W        W68587  19.394  30.818   2.673
 3328W        W68588  43.528  37.061  12.048
 3329W        W68589  30.531   1.771  10.430
 3330W        W68590  26.188  13.410   4.711
 3331W        W68591  30.524  22.990   0.848
 3332W        W68592  25.463   8.115   3.570
 3333W        W68593  34.339  36.548   3.370
 3334W        W68594  15.610  42.954  10.608
 3335W        W68595  13.890  22.146   1.150
 3336W        W68596  27.036  42.026   1.709
 3337W        W68597  18.965  25.592  13.754
 3338W        W68598  43.384  38.171  12.938
 3339W        W68599  27.152  22.198  13.735
 3340W        W68600  15.745  36.431   0.500
 3341W        W68601  14.261  21.687   3.273
 3342W        W68602  22.566  32.595   3.566
 3343W        W68603   1.967  41.896   1.263
 3344W        W68604  24.443  25.152   1.301
 3345W        W68605  12.101  20.651   1.773
 3346W        W68606  29.412  39.319  13.836
 3347W        W68607  25.515   5.489  13.899
 3348W        W68608  26.078  44.912   2.791
 3349W        W68609  42.827  42.334  11.127
 3350W        W68610   3.302  32.141  14.313
 3351W        W68611  19.141  19.406   1.359
 3352W        W68612  35.686  39.778   2.212
 3353W        W68613  23.243   9.138  14.533
 3354W        W68614  32.060  17.593   0.069
 3355W        W68615   5.282   2.777  11.522
 3356W        W68616  37.172   8.722   2.353
 3357W        W68617  31.528  18.666   4.136
 3358W        W68618   7.826   5.740   0.679
 3359W        W68619  26.193  35.980  10.448
 3360W        W68620  15.205  37.389  11.622
 3361W        W68621  16.397  22.248  13.440
 3362W        W68622  28.292  19.775   3.765
 3363W        W68623   4.423  11.092   0.930
 3364W        W68624  27.935  38.193   3.669
 3365W        W68625   7.877  34.182   1.037
 3366W        W68626  25.696   1.734   1.819
 3367W        W68627  20.779  25.234   0.721
 3368W        W68628  23.093  40.948  12.773
 3369W        W68629  21.294  39.130   4.669
 3370W        W68630  23.496  38.356   2.386
 3371W        W68631  21.049   5.436  10.065
 3372W        W68632   6.782  29.983   2.266
 3373W        W68633  30.471  44.056  12.486
 3374W        W68634   6.793   4.859   4.586
 3375W        W68635  35.923  10.905   3.334
 3376W        W68636  10.108  22.932  10.696
 3377W        W68637  34.132   1.495  12.440
 3378W        W68638  38.570   0.052  12.473
 3379W        W68639  10.432  32.905  13.420
 3380W        W68640  20.541  25.903   1.201
 3381W        W68641  14.084  21.720  10.147
 3382W        W68642  32.934  29.625  10.738
 3383W        W68643  30.624   3.031   0.746
 3384W        W68644  12.366   4.262  11.665
 3385W        W68645  33.414   2.029   1.185
 3386W        W68646  42.767  14.386   3.144
 3387W        W68647   9.791  37.378   4.881
 3388W        W68648  33.946  43.510  11.727
 3389W        W68649  34.408  15.387   3.429
 3390W        W68650   1.514  19.150   1.416
 3391W        W68651   4.927   1.287  10.566
 3392W        W68652   7.705  28.115  12.051
 3393W        W68653   6.094  42.952   2.304
 3394W        W68654  15.168  17.171   1.484
 3395W        W68655  33.462   0.433  13.584
 3396W        W68656  41.084  31.412  13.317
 3397W        W68657  39.985  15.295  14.145
 3398W        W68658   7.911   9.695  12.419
 3399W        W68659  23.970  33.171  10.318
 3400W        W68660  42.410   4.597  10.530
 3401W        W68661  23.585  18.007  12.640
 3402W        W68662  37.015  19.049   2.316
 3403W        W68663  38.509  37.298  14.408
 3404W        W68664  17.178  14.837   4.146
 3405W        W68665  10.399  40.890   2.158
 3406W        W68666  20.644  28.384  12.867
 3407W        W68667  21.989   4.468   3.149
 3408W        W68668  24.528  39.665  10.205
 3409W        W68669  21.779   0.987  14.489
 3410W        W68670  42.410   1.060   4.678
 3411W        W68671   0.173  12.756  13.958
 3412W        W68672   6.965  42.780   0.352
 3413W        W68673   6.801   6.736  11.773
 3414W        W68674   2.246  14.826  12.525
 3415W        W68675  43.043  28.695   3.613
 3416W        W68676  38.086   0.287   0.469
 3417W        W68677  15.080  38.265  11.512
 3418W        W68678  26.619   4.410  13.365
 3419W        W68679  35.269  33.584   4.625
 3420W        W68680   2.764  20.637  12.023
 3421W        W68681  27.968  39.369   2.292
 3422W        W68682   0.384  10.264  13.827
 3423W        W68683  30.297  10.666   4.037
 3424W        W68684  32.409  12.107   2.396
 3425W        W68685  29.977  19.773   2.127
 3426W        W68686   3.262  23.647   0.250
 3427W        W68687  36.298   9.127  10.764
 3428W        W68688  40.385  27.122   3.594
 3429W        W68689  31.577  16.703  13.390
 3430W        W68690  40.939  30.559   4.901
 3431W        W68691   6.722  28.716  11.992
 3432W        W68692  40.765   8.480   0.739
 3433W        W68693  37.431  37.988  13.832
 3434W        W68694  25.331  15.010  10.288
 3435W        W68695  14.984   3.401  11.103
 3436W        W68696   0.974  30.790   1.699
 3437W        W68697  29.507   0.299   1.653
 3438W        W68698  32.332   6.163   1.833
 3439W        W68699   4.416  39.849  13.327
 3440W        W68700  36.123  20.557  11.132
 3441W        W68701  41.424  22.025   1.403
 3442W        W68702   6.018   0.124  12.153
 3443W        W68703  26.050   4.720  12.456
 3444W        W68704  35.018  14.092  13.720
 3445W        W68705   5.894  39.034  11.458
 3446W        W68706  24.427   9.194   2.453
 3447W        W68707  40.615  20.525  14.337
 3448W        W68708  42.242  40.374  12.129
 3449W        W68709  28.613  37.991   1.240
 3450W        W68710   5.826  14.085  13.001
 3451W        W68711  21.232  37.761  14.459
 3452W        W68712  30.055   6.337  13.742
 3453W        W68713  11.943   1.994  12.872
 3454W        W68714  40.596   8.748  12.987
 3455W        W68715  31.205   9.638  11.147
 3456W        W68716  37.832  41.096  14.443
 3457W        W68717   8.752  21.505  13.967
 3458W        W68718  43.526  12.895  13.539
 3459W        W68719  24.554  39.560  13.179
 3460W        W68720  36.793  14.021   4.482
 3461W        W68721  34.839  43.815  10.364
 3462W        W68722  20.968  39.305  14.899
 3463W        W68723  16.204  38.491   1.296
 3464W        W68724   6.399  41.108   3.706
 3465W        W68725   5.945  25.247  11.089
 3466W        W68726  25.105  19.507  11.221
 3467W        W68727  19.826  32.531   1.758
 3468W        W68728  13.822   8.856   1.206
 3469W        W68729  16.537  34.893  13.993
 3470W        W68730  44.361   2.849  11.329
 3471W        W68731  15.664  44.311   3.108
 3472W        W68732  28.595  43.255   3.882
 3473W        W68733  42.446   1.205   2.834
 3474W        W68734  10.398  12.135  12.240
 3475W        W68735  24.483  29.151  13.537
 3476W        W68736  26.131  36.327   3.575
 3477W        W68737   0.836  37.454  10.996
 3478W        W68738  33.615  29.148   0.905
 3479W        W68739  16.607  21.125  13.098
 3480W        W68740  22.165  39.789   1.791
 3481W        W68741   3.202  30.223  10.581
 3482W        W68742  38.945  21.336   5.058
 3483W        W68743  12.347   0.406  13.512
 3484W        W68744  16.773  43.639   4.707
 3485W        W68745  34.303   1.975  12.568
 3486W        W68746  17.793  38.616  11.908
 3487W        W68747  15.645   2.784   1.911
 3488W        W68748   4.968  15.893  12.063
 3489W        W68749  41.005  20.133   1.885
 3490W        W68750  38.200  12.566  12.518
 3491W        W68751  22.616   1.347  14.340
 3492W        W68752  31.972  27.000  13.923
 3493W        W68753  28.158   3.780   1.844
 3494W        W68754  14.320  28.119  10.298
 3495W        W68755  20.949  43.981   4.927
 3496W        W68756  35.352  35.640   4.149
 3497W        W68757  32.897  11.232   3.680
 3498W        W68758  34.122  36.317  12.402
 3499W        W68759  32.690  13.688   4.970
 3500W        W68760  28.015   0.598  12.081
 3501W        W68761  15.153  20.347   0.453
 3502W        W68762  33.336  14.424  11.189
 3503W        W68763  20.775  23.546  10.415
 3504W        W68764  21.843  12.399   3.075
 3505W        W68765  25.113  16.392  13.025
 3506W        W68766  24.275  21.221  12.421
 3507W        W68767  41.988   4.707   1.309
 3508W        W68768  34.076  25.708  13.963
 3509W        W68769  16.391  27.069  14.885
 3510W        W68770   9.186  37.343   3.218
 3511W        W68771  29.540  42.734   3.697
 3512W        W68772  11.141   6.727  13.826
 3513W        W68773  26.564  32.153  12.237
 3514W        W68774  26.143  34.620  11.910
 3515W        W68775  27.964  16.088  14.780
 3516W        W68776  23.667  41.559   4.190
 3517W        W68777  16.580  27.277   1.682
 3518W        W68778   5.824   8.682  14.267
 3519W        W68779  16.547  41.058   1.754
 3520W        W68780  26.408  38.455   0.731
 3521W        W68781  20.507  35.602   2.072
 3522W        W68782   1.370  19.200   0.303
 3523W        W68783  44.968  21.737  10.782
 3524W        W68784   7.136   9.673   3.132
 3525W        W68785  26.428  44.109   3.799
 3526W        W68786  41.997  31.176  11.862
 3527W        W68787  39.069  39.982  13.324
 3528W        W68788  13.986   5.883  11.734
 3529W        W68789   8.692  31.588   0.401
 3530W        W68790  33.971  34.447   4.601
 3531W        W68791  44.502   0.286  12.974
 3532W        W68792  32.103  16.980  11.088
 3533W        W68793  11.472   8.461   0.423
 3534W        W68794  15.717  18.304  14.823
 3535W        W68795  33.393   2.399   4.713
 3536W        W68796  24.985   8.755  12.541
 3537W        W68797  42.859  11.671   0.752
 3538W        W68798   0.711  30.713   0.256
 3539W        W68799   0.762   7.127   0.439
 3540W        W68800  30.439  44.336  14.258
 3541W        W68801  44.743  11.868  12.827
 3542W        W68802   6.688  28.086  14.436
 3543W        W68803  15.022  13.397   2.029
 3544W        W68804  37.337  39.111  10.686
 3545W        W68805  24.507  29.615   0.865
 3546W        W68806  42.346  11.955   3.640
 3547W        W68807  10.245  11.036  13.325
 3548W        W68808  14.268   2.731  11.106
 3549W        W68809  37.359  19.195   4.334
 3550W        W68810  19.994  37.753  12.679
 3551W        W68811  27.196  34.009  14.893
 3552W        W68812  39.846  19.180   1.584
 3553W        W68813  43.329  16.256   3.302
 3554W        W68814  34.571  37.436   2.170
 3555W        W68815  30.090   8.769  13.966
 3556W        W68816   5.253  27.930   3.684
 3557W        W68817  15.091  16.215   3.334
 3558W        W68818  24.024  15.101  12.794
 3559W        W68819  25.084  15.266   0.259
 3560W        W68820   6.181  17.606   1.595
 3561W        W68821  13.228   1.252  13.371
 3562W        W68822   8.006   3.106  11.992
 3563W        W68823   0.499  20.692  12.641
 3564W        W68824  23.218   1.868  11.452
 3565W        W68825  19.618  44.784   4.707
 3566W        W68826  43.511  35.350   2.438
 3567W        W68827  40.865   6.292   2.165
 3568W        W68828  31.207   5.229   1.471
 3569W        W68829  33.393   0.583   2.836
 3570W        W68830  40.471  27.376  11.934
 3571W        W68831   3.664  43.914   1.843
 3572W        W68832   1.402  38.507   0.762
 3573W        W68833  23.991  23.703   3.712
 3574W        W68834  27.003  43.661  11.713
 3575W        W68835  13.242  27.460   4.138
 3576W        W68836  12.670  24.067   1.127
 3577W        W68837  17.985  20.254   4.106
 3578W        W68838  36.164  13.015  13.530
 3579W        W68839  13.148  43.760  10.759
 3580W        W68840  24.980  14.309   1.364
 3581W        W68841  17.290  13.763  10.702
 3582W        W68842   6.225   8.720   0.782
 3583W        W68843  28.482  39.309   1.861
 3584W        W68844  39.807   7.346   0.269
 3585W        W68845   8.956  36.865  11.234
 3586W        W68846  14.459  43.702   2.599
 3587W        W68847  12.854  28.940   3.588
 3588W        W68848  17.753  15.280  12.127
 3589W        W68849  24.194  30.207   0.788
 3590W        W68850   0.424  19.065   0.799
 3591W        W68851  15.493  29.664  13.840
 3592W        W68852  43.616  19.322   4.596
 3593W        W68853  40.281  15.834  12.085
 3594W        W68854   6.091  18.078   1.902
 3595W        W68855  12.283  11.240   1.992
 3596W        W68856  19.679  32.479   3.065
 3597W        W68857  36.069   1.380   1.262
 3598W        W68858  39.961  18.358  10.647
 3599W        W68859  33.497  11.860  12.136
 3600W        W68860  31.639  13.666  12.402
 3601W        W68861   0.021  14.664   2.659
 3602W        W68862  43.406  18.058   3.621
 3603W        W68863  20.704  30.400  12.497
 3604W        W68864  36.456  22.267   4.004
 3605W        W68865  12.867   9.168  11.765
 3606W        W68866  40.265  28.828  10.055
 3607W        W68867  40.366  21.726  13.847
 3608W        W68868  31.533  40.683   1.788
 3609W        W68869  23.551   3.567  14.261
 3610W        W68870   1.946  15.222   4.288
 3611W        W68871  40.131  36.497  10.840
 3612W        W68872  14.217  25.809  11.476
 3613W        W68873  40.627  27.841   4.672
 3614W        W68874   4.644   6.860  12.480
 3615W        W68875  28.592  24.128   0.982
 3616W        W68876  26.841  11.627   4.073
 3617W        W68877   3.842  44.496  10.837
 3618W        W68878   1.231  33.565  13.830
 3619W        W68879  44.319  16.584   4.144
 3620W        W68880  14.332  11.905  11.511
 3621W        W68881  35.079  21.971   0.333
 3622W        W68882  31.715   2.594   3.830
 3623W        W68883  10.207  37.728   4.956
 3624W        W68884  23.748   3.246  12.946
 3625W        W68885  26.979  42.320  12.317
 3626W        W68886  26.118  16.156   0.885
 3627W        W68887  10.094  17.718   3.719
 3628W        W68888   7.771  19.677  13.747
 3629W        W68889  21.023   7.337   1.318
 3630W        W68890  26.563   0.849  14.909
 3631W        W68891  30.224  29.059   0.852
 3632W        W68892  39.062  30.473  12.043
 3633W        W68893  19.044   7.801  14.677
 3634W        W68894  38.441  13.417  14.041
 3635W        W68895  26.938   4.424   1.740
 3636W        W68896   7.569  22.584   4.977
 3637W        W68897  42.810  40.686   0.994
 3638W        W68898   5.021  37.967   2.397
 3639W        W68899   5.269   5.373   4.587
 3640W        W68900  25.627  26.971   4.157
 3641W        W68901  25.580  20.520  12.657
 3642W        W68902  23.486  16.678  11.382
 3643W        W68903  24.046  37.855   4.942
 3644W        W68904  12.082   2.345   3.790
 3645W        W68905  10.253   1.919  14.233
 3646W        W68906  22.188  11.682  10.741
 3647W        W68907   9.873  38.200  11.984
 3648W        W68908   7.155  16.615   1.348
 3649W        W68909  24.012  22.554  11.582
 3650W        W68910  12.543  37.404   4.215
 3651W        W68911   0.390   5.161  14.687
 3652W        W68912  37.102  36.970  12.238
 3653W        W68913  10.951  11.307  11.624
 3654W        W68914  31.585  17.407   2.189
 3655W        W68915  11.661  14.281   3.579
 3656W        W68916  17.667  18.791  11.567
 3657W        W68917  37.382  10.629   0.351
 3658W        W68918  13.625  16.736  12.146
 3659W        W68919  33.359  18.266  11.682
 3660W        W68920  40.578  16.226  11.908
 3661W        W68921  22.156   3.319  11.223
 3662W        W68922   2.489   7.650   0.685
 3663W        W68923   4.751  17.661  11.421
 3664W        W68924  17.268  41.179   1.281
 3665W        W68925  42.414  32.515   1.683
 3666W        W68926  37.954  12.798  13.705
 3667W        W68927  13.243   3.152  14.792
 3668W        W68928   5.217  29.100  12.031
 3669W        W68929  21.495  40.056   4.338
 3670W        W68930  23.569  36.365   0.395
 3671W        W68931  31.444  23.502  13.455
 3672W        W68932  43.525  19.631  13.503
 3673W        W68933   0.692  10.037  11.615
 3674W        W68934  32.542  18.630   3.941
 3675W        W68935  36.142  36.101   0.343
 3676W        W68936  18.250  17.409  13.377
 3677W        W68937  41.346  21.725  13.078
 3678W        W68938  16.758  28.578  10.598
 3679W        W68939  10.224  43.569  13.428
 3680W        W68940  43.058  35.557  10.705
 3681W        W68941  27.315   6.521  13.263
 3682W        W68942  42.477  37.400   0.621
 3683W        W68943  31.132  24.963   1.720
 3684W        W68944  26.708  10.711  10.446
 3685W        W68945   4.068   9.713   3.571
 3686W        W68946  35.774  10.193   0.762
 3687W        W68947  27.927   3.715   4.654
 3688W        W68948  21.250  43.296  14.452
 3689W        W68949  28.421  21.678   4.303
 3690W        W68950  39.516  17.077  13.534
 3691W        W68951   1.404  35.881   0.738
 3692W        W68952   8.254  29.567   2.791
 3693W        W68953  37.991  31.442  11.026
 3694W        W68954  36.156  36.538   2.106
 3695W        W68955  25.828  20.586   4.505
 3696W        W68956  41.543  30.084   0.406
 3697W        W68957  16.734  29.156   1.899
 3698W        W68958  44.825  41.892  11.250
 3699W        W68959   8.122  38.778  11.558
 3700W        W68960  31.588  33.285   5.350
 3701W        W68961   6.510   9.201   4.608
 3702W        W68962   7.299  11.841   3.625
 3703W        W68963  27.573   1.931   4.262
 3704W        W68964  32.371  12.338   0.388
 3705W        W68965  14.654  24.285  12.000
 3706W        W68966  15.308  19.497  14.118
 3707W        W68967   2.347   8.989  13.549
 3708W        W68968   5.349  31.038  13.502
 3709W        W68969   5.415  39.744  12.507
 3710W        W68970  23.716  20.134  14.963
 3711W        W68971  24.049   7.688  11.656
 3712W        W68972  18.713  26.086  10.629
 3713W        W68973  34.930  23.719   3.710
 3714W        W68974   5.228  26.066   4.356
 3715W        W68975  33.917  19.989   0.638
 3716W        W68976  11.106  37.159  10.818
 3717W        W68977  21.323  10.158   2.901
 3718W        W68978  17.283   5.869   1.452
 3719W        W68979   2.927  15.102   4.410
 3720W        W68980  43.918  25.077  10.789
 3721W        W68981  13.310  21.484  12.163
 3722W        W68982   1.675  28.427   3.718
 3723W        W68983  24.452  13.021   2.863
 3724W        W68984   5.460  41.413  11.653
 3725W        W68985  25.450  10.635   2.691
 3726W        W68986   9.303   9.432   3.815
 3727W        W68987  17.333  35.616   3.313
 3728W        W68988  32.951  15.681   3.258
 3729W        W68989   4.202  18.168   1.931
 3730W        W68990  27.095  11.106   2.167
 3731W        W68991   3.438  35.548   1.819
 3732W        W68992  34.791  44.287   2.780
 3733W        W68993  29.637  23.376  13.971
 3734W        W68994  24.525   8.345   0.043
 3735W        W68995  32.668  32.126   3.289
 3736W        W68996  30.646   3.247  10.508
 3737W        W68997   4.061   3.381   1.808
 3738W        W68998  22.534  17.275   4.281
 3739W        W68999  42.983  22.062  14.441
 3740W        W69000  18.782  24.513   1.921
 3741W        W69001  44.656  35.696  12.049
 3742W        W69002  41.072  41.731   1.241
 3743W        W69003  20.842  27.630  14.315
 3744W        W69004  34.578  33.486  11.423
 3745W        W69005  26.280  24.543   2.210
 3746W        W69006  44.422  13.717  11.659
 3747W        W69007   8.793   0.363   4.138
 3748W        W69008   3.483  20.445  11.494
 3749W        W69009   4.332   5.534   4.583
 3750W        W69010  24.488  43.027  11.614
 3751W        W69011  39.823   0.183  11.577
 3752W        W69012   2.424   0.718   2.303
 3753W        W69013  29.953  23.120   4.576
 3754W        W69014  41.221   6.338  10.522
 3755W        W69015  15.171  22.610  13.571
 3756W        W69016  16.519  15.044   3.649
 3757W        W69017  29.735  21.000   3.108
 3758W        W69018  38.870  28.192   4.044
 3759W        W69019   4.138  36.834  10.576
 3760W        W69020  33.077  43.007   0.959
 3761W        W69021  35.326  30.489  11.910
 3762W        W69022  31.445  31.525   4.285
 3763W        W69023   2.383  42.748  13.900
 3764W        W69024  18.527   6.873  11.146
 3765W        W69025  31.551   1.532  13.397
 3766W        W69026  20.770  25.168   2.725
 3767W        W69027   9.535  20.433  13.351
 3768W        W69028  36.850  12.817  12.020
 3769W        W69029   6.160   9.192  13.542
 3770W        W69030   0.640  31.088  12.644
 3771W        W69031  31.586   4.567   3.260
 3772W        W69032  23.521  43.268  11.172
 3773W        W69033  39.010  28.569  13.927
 3774W        W69034   9.862  17.789   0.321
 3775W        W69035  27.925  28.923  12.070
 3776W        W69036   1.754  22.812  11.206
 3777W        W69037  20.512   2.915  10.268
 3778W        W69038   2.280  44.326  14.269
 3779W        W69039   9.860  40.901   4.835
 3780W        W69040  34.807  12.291  12.038
 3781W        W69041  26.493  14.630  11.780
 3782W        W69042  32.992  22.975   0.983
 3783W        W69043  38.890  27.154  11.653
 3784W        W69044  19.123  37.534  12.148
 3785W        W69045  23.045  29.801   3.453
 3786W        W69046  13.334   8.460   0.351
 3787W        W69047  17.672  21.101  14.984
 3788W        W69048  38.042  30.304   1.845
 3789W        W69049  22.995   2.244   0.803
 3790W        W69050  10.306  30.671  11.888
 3791W        W69051   7.982  34.413  14.352
 3792W        W69052  12.696  39.542  14.733
 3793W        W69053  28.658  29.999   4.525
 3794W        W69054  43.566  40.532  11.139
 3795W        W69055  19.499  38.956  13.838
 3796W        W69056  44.161  21.248   3.648
 3797W        W69057  44.982  39.039  11.486
 3798W        W69058   1.977  21.969   4.156
 3799W        W69059  11.973  31.678  12.501
 3800W        W69060   9.751  21.087   1.090
 3801W        W69061  14.518   6.108   0.221
 3802W        W69062  26.043  33.206   2.779
 3803W        W69063   6.965  21.376  14.330
 3804W        W69064   6.170  23.515   5.138
 3805W        W69065  25.412  17.332  12.203
 3806W        W69066  18.104  21.761   2.820
 3807W        W69067  43.318  27.698  10.443
 3808W        W69068   8.758  13.782  13.829
 3809W        W69069   4.608  21.775  12.424
 3810W        W69070  33.982  28.032  14.080
 3811W        W69071  43.712  42.082  14.360
 3812W        W69072  27.564  41.564  13.835
 3813W        W69073  32.303   5.786   3.267
 3814W        W69074  13.095  15.865   3.054
 3815W        W69075   9.146  41.981  11.711
 3816W        W69076  27.378  31.950   1.698
 3817W        W69077   6.538  16.160  13.569
 3818W        W69078  23.460  20.466   1.288
 3819W        W69079   1.948   5.331  11.629
 3820W        W69080  26.751  29.853  14.968
 3821W        W69081  28.839  33.924   1.543
 3822W        W69082  20.974  11.162   2.867
 3823W        W69083  13.431  42.260  11.860
 3824W        W69084  10.159  30.854   4.646
 3825W        W69085  43.935   5.967   3.742
 3826W        W69086  32.482   0.047  11.498
 3827W        W69087  19.120  21.882   4.020
 3828W        W69088  39.855  24.139   4.384
 3829W        W69089  29.105   1.991  12.854
 3830W        W69090  12.269  30.630   1.217
 3831W        W69091  15.714  12.903  10.739
 3832W        W69092   3.736  40.832  10.698
 3833W        W69093  26.729  10.142  13.574
 3834W        W69094  10.859  27.541  13.024
 3835W        W69095  16.392  44.541   3.611
 3836W        W69096  41.200   5.974   1.379
 3837W        W69097   7.630  19.329   4.996
 3838W        W69098   4.107  20.031  14.282
 3839W        W69099  35.076  21.964  10.802
 3840W        W69100   5.962  10.329   4.841
 3841W        W69101  25.455   5.954   1.672
 3842W        W69102  42.902   3.796   1.682
 3843W        W69103  40.447   1.242  11.386
 3844W        W69104  34.371  13.849  13.916
 3845W        W69105  18.115   7.384  10.675
 3846W        W69106   1.863  43.704  12.665
 3847W        W69107  27.262   1.772  12.498
 3848W        W69108  30.917  43.437  10.519
 3849W        W69109  10.364  15.794   0.840
 3850W        W69110  23.005  38.124   3.623
 3851W        W69111  42.368  21.239  11.639
 3852W        W69112  31.221  10.927   4.454
 3853W        W69113  35.130  39.876   4.142
 3854W        W69114  12.433   2.934  12.444
 3855W        W69115  20.727  23.294  12.486
 3856W        W69116   6.938   9.923  12.555
 3857W        W69117  24.208   8.941   2.049
 3858W        W69118  24.197   3.799  14.519
 3859W        W69119  22.535  16.317   1.659
 3860W        W69120  11.131  28.401  14.412
 3861W        W69121  38.113  17.253   4.233
 3862W        W69122   4.180  28.633  11.617
 3863W        W69123  11.592  21.167   0.506
 3864W        W69124  23.926  17.698   1.835
 3865W        W69125   7.701  20.019   0.434
 3866W        W69126   2.663  22.975  12.884
 3867W        W69127  38.918   0.486   3.013
 3868W        W69128  15.675  30.126   2.100
 3869W        W69129  24.504  12.333   4.756
 3870W        W69130  14.783  28.695   2.193
 3871W        W69131  41.941  40.778   2.623
 3872W        W69132  17.772  17.190  11.528
 3873W        W69133  39.049  37.994   3.655
 3874W        W69134  16.331   0.981  14.946
 3875W        W69135  15.625  19.442   3.747
 3876W        W69136   5.763  21.626   1.236
 3877W        W69137   2.774   3.340  14.865
 3878W        W69138  35.878  34.544   2.724
 3879W        W69139  40.455   5.409  12.737
 3880W        W69140  12.905   8.778  12.112
 3881W        W69141  14.768  10.430  13.827
 3882W        W69142  37.134  13.547   1.754
 3883W        W69143  28.486  12.681  12.066
 3884W        W69144   1.073  44.951   1.308
 3885W        W69145   9.678  15.695  11.704
 3886W        W69146  32.965  43.160  12.657
 3887W        W69147   8.581   1.492   3.584
 3888W        W69148  25.711  21.978  14.534
 3889W        W69149  13.810   1.334  10.689
 3890W        W69150  20.434  36.781   3.338
 3891W        W69151  26.315  26.105   0.689
 3892W        W69152  10.324  15.810  11.608
 3893W        W69153   2.536  35.151  13.302
 3894W        W69154  44.963  26.709  10.703
 3895W        W69155  42.870  19.805   0.691
 3896W        W69156  32.701  29.177   0.803
 3897W        W69157  12.423   2.617  12.856
 3898W        W69158  21.211  10.539  13.073
 3899W        W69159   3.279  38.773   4.749
 3900W        W69160  34.629   2.986  11.466
 3901W        W69161  19.679  18.620   4.982
 3902W        W69162  39.960  19.215  11.140
 3903W        W69163  18.988  19.721   1.778
 3904W        W69164   2.408   4.668   1.339
 3905W        W69165  39.841  25.698   3.127
 3906W        W69166   9.971  27.010   1.196
 3907W        W69167   0.448   8.269   3.808
 3908W        W69168  37.339  14.451   9.955
 3909W        W69169  15.130  31.265  11.154
 3910W        W69170   4.732   1.485  12.876
 3911W        W69171   2.316   1.544  11.624
 3912W        W69172  17.317  11.261  14.955
 3913W        W69173  33.037  31.147  14.973
 3914W        W69174   8.649  12.525  13.521
 3915W        W69175  11.438  36.476  13.993
 3916W        W69176  14.528  11.162   2.760
 3917W        W69177  25.577  28.560  10.695
 3918W        W69178  38.785   5.295   0.437
 3919W        W69179  25.205  41.718  12.489
 3920W        W69180  40.505  24.660   4.110
 3921W        W69181  39.310  11.463  11.002
 3922W        W69182   5.513  42.805  10.540
 3923W        W69183   7.825  25.039   0.196
 3924W        W69184  23.213  14.570   2.929
 3925W        W69185  33.474   3.810   0.850
 3926W        W69186  11.212  22.538  13.533
 3927W        W69187   4.678  30.847   0.319
 3928W        W69188  17.594  25.738  14.461
 3929W        W69189  28.970  41.485   4.506
 3930W        W69190  16.017  42.265  12.082
 3931W        W69191  28.409  33.824   1.305
 3932W        W69192  29.327   9.619   2.714
 3933W        W69193  29.317  37.222   4.271
 3934W        W69194  27.248   2.757  12.478
 3935W        W69195  25.412  37.702   4.534
 3936W        W69196  34.659  38.903   1.277
 3937W        W69197  24.205  24.224   3.627
 3938W        W69198  24.192  34.470  13.818
 3939W        W69199  18.048  22.426  14.900
 3940W        W69200  23.405  20.633  13.539
 3941W        W69201   1.882  19.829   0.869
 3942W        W69202  28.872  44.207  13.708
 3943W        W69203  29.889   1.828  14.672
 3944W        W69204  13.133  37.619   0.334
 3945W        W69205   1.640  42.134  10.800
 3946W        W69206  28.907  22.996   4.467
 3947W        W69207  32.485  18.983   2.988
 3948W        W69208  14.052  25.486  13.218
 3949W        W69209  36.853  32.901  11.549
 3950W        W69210  25.369  41.436   4.532
 3951W        W69211   6.036  34.363   5.049
 3952W        W69212  12.551  31.324  14.795
 3953W        W69213   5.794  13.706  14.842
 3954W        W69214  35.407  36.130  12.579
 3955W        W69215  31.850  31.070   3.293
 3956W        W69216   5.340   3.937  10.693
 3957W        W69217  43.694  35.049   2.826
 3958W        W69218  22.017  19.992   3.784
 3959W        W69219   4.707  20.968   1.018
 3960W        W69220  43.220  32.022   3.656
 3961W        W69221  12.167  11.920  11.847
 3962W        W69222  22.114  37.553   4.191
 3963W        W69223   3.381   9.062  12.980
 3964W        W69224   2.921  14.578   9.793
 3965W        W69225   5.608  28.668  10.696
 3966W        W69226  35.516  16.744   4.522
 3967W        W69227  42.964  36.933   3.826
 3968W        W69228  38.326  31.102   3.671
 3969W        W69229   2.899   6.722   2.880
 3970W        W69230  44.330  10.914  10.511
 3971W        W69231  40.405   6.094   3.053
 3972W        W69232  17.618  12.753   2.759
 3973W        W69233  16.028  36.851   4.232
 3974W        W69234  36.881  25.577   0.212
 3975W        W69235  34.515   0.859   0.691
 3976W        W69236  20.875  22.798  12.518
 3977W        W69237   1.628   6.294   1.729
 3978W        W69238   9.152   3.742  13.423
 3979W        W69239  18.557  40.041   3.205
 3980W        W69240  12.268   8.916   4.121
 3981W        W69241  15.501  20.612  11.481
 3982W        W69242  27.387  18.579  13.486
 3983W        W69243   1.527  11.227  13.269
 3984W        W69244   1.911  28.959   4.596
 3985W        W69245  28.069  26.647  10.075
 3986W        W69246  18.261  26.724  10.622
 3987W        W69247  38.044  10.782   1.930
 3988W        W69248   0.962   5.609   9.988
 3989W        W69249  37.248  19.693   0.317
 3990W        W69250   6.417   3.666  12.491
 3991W        W69251  26.488  27.914   0.248
 3992W        W69252  39.315   3.533  14.358
 3993W        W69253   9.300  38.247   4.630
 3994W        W69254   9.259  31.930   1.222
 3995W        W69255  41.798  13.627   3.440
 3996W        W69256  12.189  25.930  14.331
 3997W        W69257  41.018  26.952   2.382
 3998W        W69258  15.797  24.944  13.363
 3999W        W69259  37.530  19.174   2.381
 4000W        W69260  19.425  25.636  14.676
 4001W        W69261  15.066   5.159  13.671
 4002W        W69262   5.775  27.497   3.112
 4003W        W69263  35.436  33.395  12.912
 4004W        W69264  37.578  26.697  11.428
 4005W        W69265   1.658  24.121   2.145
 4006W        W69266   0.445  18.533  12.984
 4007W        W69267   1.356  29.556  13.553
 4008W        W69268  17.796  22.624   2.329
 4009W        W69269   4.823  15.276   4.279
 4010W        W69270  15.278   5.824   2.232
 4011W        W69271  27.146  34.912  14.827
 4012W        W69272  25.673  23.709  13.376
 4013W        W69273  21.746  43.356  13.407
 4014W        W69274   5.180  37.105   0.677
 4015W        W69275  36.523  25.618  11.634
 4016W        W69276  20.525  37.612  12.663
 4017W        W69277   3.231  35.308   0.003
 4018W        W69278  15.045  25.166  11.040
 4019W        W69279  35.506  44.816  13.312
 4020W        W69280  12.804  26.929  12.462
 4021W        W69281  16.839  28.125   2.821
 4022W        W69282  39.208   8.452  11.898
 4023W        W69283   4.387  12.381  12.071
 4024W        W69284  21.093  33.073   1.775
 4025W        W69285  44.578  43.394   0.282
 4026W        W69286   3.167  17.984   3.364
 4027W        W69287  36.581  13.929  11.071
 4028W        W69288  10.073  38.728   1.713
 4029W        W69289  44.300  27.767   4.102
 4030W        W69290  35.519  29.425  13.317
 4031W        W69291  11.687  22.697  14.641
 4032W        W69292  21.491  27.403   1.305
 4033W        W69293  28.648  37.967  12.405
 4034W        W69294   3.304  44.100  11.161
 4035W        W69295  38.331  21.023   4.087
 4036W        W69296  37.163   5.444   3.228
 4037W        W69297  20.611  14.437   4.528
 4038W        W69298  12.505  36.866   2.208
 4039W        W69299   5.639  36.585  13.007
 4040W        W69300  27.050  39.894  14.764
 4041W        W69301  21.539  16.096   3.645
 4042W        W69302   6.596  11.742   5.166
 4043W        W69303  32.640  26.900   1.397
 4044W        W69304  31.879  21.046  14.716
 4045W        W69305   4.957  15.625  13.846
 4046W        W69306  22.765  32.869  13.924
 4047W        W69307  23.857   1.425  11.537
 4048W        W69308  29.599  22.593   2.408
 4049W        W69309   0.295  27.517  11.336
 4050W        W69310  43.401   9.148   3.139
 4051W        W69311  33.633  18.508   1.121
 4052W        W69312   2.381  21.621   1.132
 4053W        W69313  41.542  36.928  10.666
 4054W        W69314  34.554  14.391   3.244
 4055W        W69315   8.132  11.493  10.352
 4056W        W69316   1.928  30.875  13.456
 4057W        W69317  33.484   3.359  10.625
 4058W        W69318  32.524  14.082   5.279
 4059W        W69319  35.048  10.696  11.543
 4060W        W69320  28.422  31.946   4.598
 4061W        W69321  29.604   7.695  14.495
 4062W        W69322  15.838  13.044  12.978
 4063W        W69323  41.045   0.855  10.284
 4064W        W69324  32.393   6.371   2.331
 4065W        W69325  22.691  13.602   4.081
 4066W        W69326   9.878   0.180   2.611
 4067W        W69327  19.013  44.869  14.974
 4068W        W69328  24.822  31.047  11.124
 4069W        W69329  33.408  34.784  12.334
 4070W        W69330   0.850  29.952  10.450
 4071W        W69331  40.781  20.424  12.339
 4072W        W69332  36.679  27.630  14.032
 4073W        W69333  13.024  10.575   2.398
 4074W        W69334   8.654  24.546   1.325
 4075W        W69335  35.892  23.760  11.416
 4076W        W69336  38.070  21.825  11.762
 4077W        W69337   1.759  28.962   3.249
 4078W        W69338  27.064  42.584  13.900
 4079W        W69339  15.848   7.376   3.641
 4080W        W69340  30.595  43.878  14.507
 4081W        W69341  21.983   0.456  12.654
 4082W        W69342  21.719   0.852  11.539
 4083W        W69343  44.057  15.798   2.905
 4084W        W69344   5.396  24.178   3.251
 4085W        W69345  37.939   1.847   1.334
 4086W        W69346  19.113  25.278  12.386
 4087W        W69347  42.471  38.971  14.008
 4088W        W69348  19.569  31.399  11.740
 4089W        W69349  43.446  23.264   1.252
 4090W        W69350  11.138  18.060   2.417
 4091W        W69351   0.213  43.837  11.174
 4092W        W69352  20.770   0.569   0.949
 4093W        W69353  26.791  23.974  12.881
 4094W        W69354  25.252   5.996  13.490
 4095W        W69355  44.783  16.266   5.113
 4096W        W69356   4.439  44.367   0.481
 4097W        W69357  17.089   2.919   1.950
 4098W        W69358   3.046  32.649  13.529
 4099W        W69359  18.152  42.817  14.932
 4100W        W69360  31.187  13.119  12.901
 4101W        W69361  16.733  14.248  11.971
 4102W        W69362  44.103   4.857   2.179
 4103W        W69363  41.600  12.332   0.767
 4104W        W69364  26.242  24.863   3.436
 4105W        W69365  19.272  15.218   2.460
 4106W        W69366   9.148  21.446   2.199
 4107W        W69367  26.040   8.891   3.235
 4108W        W69368  15.695  15.884  12.455
 4109W        W69369  42.724  33.958   0.668
 4110W        W69370   6.667  23.751   3.249
 4111W        W69371   4.186  40.301  13.335
 4112W        W69372   7.872  31.599  14.939
 4113W        W69373  11.868   4.412  13.185
 4114W        W69374  13.155  13.166   4.164
 4115W        W69375  38.124  16.139   2.372
 4116W        W69376   7.262   7.912  14.877
 4117W        W69377  16.182  31.582   2.656
 4118W        W69378  33.942  42.826   3.980
 4119W        W69379  44.210   7.158  14.982
 4120W        W69380  23.163   9.827   2.212
 4121W        W69381  32.303  29.111  14.460
 4122W        W69382  41.283  15.625  14.516
 4123W        W69383  28.163  20.645  11.951
 4124W        W69384  42.830  14.319  11.136
 4125W        W69385   4.220   0.924  11.537
 4126W        W69386  33.390  25.079   2.368
 4127W        W69387  29.597  23.779  13.634
 4128W        W69388  25.513   3.376  12.592
 4129W        W69389  34.354  25.495  14.370
 4130W        W69390   8.769  44.258   3.218
 4131W        W69391  27.245  27.699  10.442
 4132W        W69392  35.263  39.798   0.386
 4133W        W69393  17.839  43.231   2.003
 4134W        W69394   3.156  24.370  12.006
 4135W        W69395  43.790  17.293   0.865
 4136W        W69396   1.308  36.850   1.128
 4137W        W69397   8.755  34.719   2.793
 4138W        W69398  27.532  43.816  10.969
 4139W        W69399  35.462  32.899   3.127
 4140W        W69400  23.553   9.903   1.333
 4141W        W69401   6.050  36.982  10.631
 4142W        W69402  27.004  19.242  13.513
 4143W        W69403  33.590   6.853  10.803
 4144W        W69404  41.884  28.352  11.917
 4145W        W69405  14.144  16.162   3.886
 4146W        W69406  32.062  29.152  12.890
 4147W        W69407  10.601  33.865  10.655
 4148W        W69408  33.532  37.899  11.739
 4149W        W69409  10.277  18.315   2.426
 4150W        W69410  28.951   8.159   2.749
 4151W        W69411  43.869   1.048   3.725
 4152W        W69412  14.665  32.304   4.173
 4153W        W69413  35.154  21.447   3.651
 4154W        W69414  40.536  43.176   4.194
 4155W        W69415  34.325  32.552  12.052
 4156W        W69416   4.394  40.780   2.798
 4157W        W69417  17.597   5.210   0.982
 4158W        W69418  38.073  24.261   0.449
 4159W        W69419  18.212   7.561   4.576
 4160W        W69420  38.532  29.597  13.974
 4161W        W69421  27.904  28.055   4.064
 4162W        W69422  40.485   6.913  12.876
 4163W        W69423  13.380  28.603   3.711
 4164W        W69424   7.203  20.292   3.630
 4165W        W69425  12.888   6.353  10.428
 4166W        W69426  34.535  17.259  14.898
 4167W        W69427  27.522   3.847  11.364
 4168W        W69428  11.480   0.331   3.399
 4169W        W69429  12.086  19.090  12.911
 4170W        W69430  41.682  42.723   3.615
 4171W        W69431  26.109   0.659   2.380
 4172W        W69432  30.161  27.149  14.658
 4173W        W69433   8.850   2.860  12.551
 4174W        W69434  37.299  22.958  11.648
 4175W        W69435   1.240  17.872  12.887
 4176W        W69436   1.191  10.083  13.589
 4177W        W69437   4.912   8.975  12.552
 4178W        W69438  20.862  16.509   3.326
 4179W        W69439  38.799   4.298   1.831
 4180W        W69440  34.434  31.044  12.921
 4181W        W69441  44.753  15.110   2.562
 4182W        W69442  33.679   5.903   4.685
 4183W        W69443   6.891   5.738   1.199
 4184W        W69444  28.825  29.428   3.711
 4185W        W69445  44.633   7.452   3.574
 4186W        W69446  32.459  11.486  14.827
 4187W        W69447  44.567  28.699   4.331
 4188W        W69448  31.153  37.985   3.612
 4189W        W69449  37.481  15.145   4.456
 4190W        W69450  16.548  34.087   0.311
 4191W        W69451   1.401  32.564   3.166
 4192W        W69452  34.328   0.988   1.681
 4193W        W69453  28.362  28.083   2.278
 4194W        W69454  32.335  44.386   2.855
 4195W        W69455  30.998   5.454  13.081
 4196W        W69456  39.535   3.711  14.826
 4197W        W69457  24.777  40.983  12.072
 4198W        W69458   4.525  28.632  13.504
 4199W        W69459   9.937  15.695  12.581
 4200W        W69460  42.689  39.513   3.908
 4201W        W69461   4.174  39.524  12.481
 4202W        W69462  31.559  12.776  14.349
 4203W        W69463   2.056  40.875   0.587
 4204W        W69464  35.373  12.147  11.393
 4205W        W69465   7.769  30.093  10.980
 4206W        W69466  34.911   0.063  11.231
 4207W        W69467  25.603  44.110  11.682
 4208W        W69468  34.547  42.751   3.724
 4209W        W69469  30.526   9.667   1.304
 4210W        W69470   5.098  11.688  14.359
 4211W        W69471   5.237   3.759   2.754
 4212W        W69472   5.263  36.480  12.034
 4213W        W69473   6.127  36.513   3.196
 4214W        W69474  19.829  39.313  13.499
 4215W        W69475  29.536   4.855  12.461
 4216W        W69476  27.297   1.647  13.362
 4217W        W69477  34.743  21.245   3.338
 4218W        W69478   8.367  11.677  14.417
 4219W        W69479  41.729  22.603   2.218
 4220W        W69480  41.509   9.589   1.292
 4221W        W69481  30.661  17.698   1.881
 4222W        W69482  32.561  29.279  14.907
 4223W        W69483  36.556  36.171  10.733
 4224W        W69484  43.930   4.719  13.311
 4225W        W69485   6.430  33.655  11.125
 4226W        W69486  24.452   2.199  12.473
 4227W        W69487  23.251  17.184  14.439
 4228W        W69488   4.575   6.343   1.474
 4229W        W69489  26.612   2.862   4.190
 4230W        W69490  20.018  32.468  11.104
 4231W        W69491  24.776   2.191  10.774
 4232W        W69492  23.708   7.889   0.475
 4233W        W69493  35.678  34.082   2.782
 4234W        W69494  30.532  34.820  13.477
 4235W        W69495  21.611   0.444   2.779
 4236W        W69496  27.655  17.520  10.284
 4237W        W69497  31.953  18.007  11.080
 4238W        W69498  43.455  23.237   4.070
 4239W        W69499   2.941  18.715   4.301
 4240W        W69500  15.152  20.210   1.345
 4241W        W69501  40.880   0.822  14.479
 4242W        W69502   5.680  31.800  10.930
 4243W        W69503  30.404  12.146   0.826
 4244W        W69504   6.798  32.913   4.381
 4245W        W69505  11.293  39.274  10.410
 4246W        W69506  22.005   6.861   4.286
 4247W        W69507  14.780  37.430   2.359
 4248W        W69508  31.168  28.178   2.769
 4249W        W69509  36.959  19.204  13.474
 4250W        W69510  38.324  27.153   1.708
 4251W        W69511  18.669  17.146  13.454
 4252W        W69512  41.876  16.783  12.482
 4253W        W69513  43.794  16.570   1.357
 4254W        W69514  11.654  25.592   1.701
 4255W        W69515  40.103  26.015  11.180
 4256W        W69516  40.757  11.691  14.011
 4257W        W69517  24.189  36.903   1.598
 4258W        W69518  25.372   1.342  14.062
 4259W        W69519  26.914   3.470  12.902
 4260W        W69520  44.018   1.497   9.897
 4261W        W69521  29.712  31.547   2.797
 4262W        W69522  39.373  42.701  13.034
 4263W        W69523  29.506   9.774   4.565
 4264W        W69524   6.875   5.370   3.387
 4265W        W69525   7.216  32.455  12.969
 4266W        W69526   7.166   6.195   4.622
 4267W        W69527   1.470  23.973  11.978
 4268W        W69528  24.653  35.957   0.425
 4269W        W69529  39.499  12.883  12.082
 4270W        W69530  23.596  30.219  10.862
 4271W        W69531  31.468   6.183   4.590
 4272W        W69532  40.363  18.021  14.514
 4273W        W69533  28.459  30.639  11.999
 4274W        W69534  31.491  12.570  14.812
 4275W        W69535   7.289  23.164   4.126
 4276W        W69536  26.264   4.209  13.000
 4277W        W69537  27.488  44.471   3.134
 4278W        W69538  20.660   2.445  11.473
 4279W        W69539  34.437  24.973   4.112
 4280W        W69540  17.987  36.466  14.478
 4281W        W69541  15.765  24.184  14.527
 4282W        W69542  16.873   0.358   3.828
 4283W        W69543  13.293  38.577  12.471
 4284W        W69544   5.931  14.072   1.420
 4285W        W69545  14.718  39.397  11.152
 4286W        W69546  20.106  20.522   1.883
 4287W        W69547   6.695  30.436   3.851
 4288W        W69548  38.804   7.986   1.526
 4289W        W69549  29.455  25.577   1.058
 4290W        W69550  17.305  22.109   1.328
 4291W        W69551   9.404   9.835  13.407
 4292W        W69552  15.957  13.754  13.408
 4293W        W69553  28.606  32.242  11.508
 4294W        W69554  40.487  21.224  14.843
 4295W        W69555   1.755   2.156  14.299
 4296W        W69556  33.443   0.306   3.802
 4297W        W69557   2.176  40.029   3.221
 4298W        W69558  11.417  27.584   1.416
 4299W        W69559  24.048  22.191   4.447
 4300W        W69560   4.805  16.287   3.313
 4301W        W69561   4.977  14.067  13.543
 4302W        W69562  17.750  29.335   0.843
 4303W        W69563  33.205  37.141   0.129
 4304W        W69564  37.726   8.232  13.485
 4305W        W69565   8.635  33.609  14.495
 4306W        W69566  25.140  27.523  11.670
 4307W        W69567  43.858   2.398   3.085
 4308W        W69568   1.250   4.329   2.785
 4309W        W69569  44.342   6.085  12.006
 4310W        W69570  39.181  21.290  14.309
 4311W        W69571  39.410  31.888   1.309
 4312W        W69572  20.189   9.552   1.900
 4313W        W69573  31.586  28.125   0.992
 4314W        W69574  14.812  37.709   4.111
 4315W        W69575  19.412  33.476  10.755
 4316W        W69576   7.339  41.387   2.437
 4317W        W69577  32.983   7.108  14.276
 4318W        W69578  38.600  21.709   4.908
 4319W        W69579   4.784  10.388   3.191
 4320W        W69580  27.304  44.619  14.822
 4321W        W69581   6.972  15.377  10.650
 4322W        W69582  33.805  27.328  11.269
 4323W        W69583  22.494   3.917   2.289
 4324W        W69584  30.241  42.770   1.283
 4325W        W69585  32.047  32.959  10.756
 4326W        W69586  33.839  13.874  11.596
 4327W        W69587  27.190  12.656   1.486
 4328W        W69588  17.210  24.153  10.605
 4329W        W69589   6.930   5.130  13.373
 4330W        W69590  12.399  20.682   0.417
 4331W        W69591  22.767  16.152   0.731
 4332W        W69592  44.765   1.039  14.897
 4333W        W69593  42.323   1.416   0.297
 4334W        W69594  27.184  24.710  11.881
 4335W        W69595  16.298  26.706  10.984
 4336W        W69596  30.717   3.162  11.189
 4337W        W69597   8.228  29.096   0.804
 4338W        W69598  27.524   9.371   4.234
 4339W        W69599  28.523  42.082   2.295
 4340W        W69600  15.616   6.333  11.691
 4341W        W69601  13.698  31.413  14.558
 4342W        W69602  15.713  32.130   1.813
 4343W        W69603  26.658  17.912  12.926
 4344W        W69604   6.888  28.030   2.316
 4345W        W69605  17.933  22.740  14.068
 4346W        W69606  18.850   9.336  14.776
 4347W        W69607  10.288   4.607  11.220
 4348W        W69608   8.813  21.964   1.362
 4349W        W69609  26.514  34.340  13.445
 4350W        W69610  38.909  36.157   4.879
 4351W        W69611  10.350  31.263   1.754
 4352W        W69612   4.750  10.977  14.835
 4353W        W69613  41.095  14.670   0.705
 4354W        W69614   2.779   1.800   3.285
 4355W        W69615  36.487   0.872   0.353
 4356W        W69616  20.521  27.607  10.928
 4357W        W69617   0.502  40.380   3.652
 4358W        W69618  21.322   7.275  10.759
 4359W        W69619  35.449  35.054  11.043
 4360W        W69620  30.168   6.190   4.061
 4361W        W69621  44.486   4.450   1.396
 4362W        W69622  32.913   1.100   2.393
 4363W        W69623  14.416   8.915   1.204
 4364W        W69624  26.632   5.779  12.106
 4365W        W69625  32.535  27.545  13.458
 4366W        W69626  20.586   8.206   1.426
 4367W        W69627  43.969   1.920  14.778
 4368W        W69628   3.884  14.298   3.444
 4369W        W69629  32.878  16.875  13.982
 4370W        W69630  33.655  44.298   4.120
 4371W        W69631  35.296  14.300   2.729
 4372W        W69632  28.721  28.705   3.359
 4373W        W69633  18.249  44.141  12.374
 4374W        W69634  37.593  23.399   0.436
 4375W        W69635  26.976  41.456  12.876
 4376W        W69636  26.034   9.947  13.393
 4377W        W69637   8.926  23.909  12.688
 4378W        W69638  36.874  26.183  14.662
 4379W        W69639   8.603  22.757  14.695
 4380W        W69640  29.395  30.970   1.779
 4381W        W69641  21.680   9.589  11.624
 4382W        W69642  34.460  14.927   3.194
 4383W        W69643  13.321  44.454  10.937
 4384W        W69644  19.638  33.501   1.853
 4385W        W69645  18.154  38.927   3.651
 4386W        W69646  44.973  38.482  13.144
 4387W        W69647  33.776  42.210   3.217
 4388W        W69648  30.919  30.865  10.666
 4389W        W69649  10.195  23.673  10.584
 4390W        W69650  30.420  31.429  14.504
 4391W        W69651   9.115  35.000   4.119
 4392W        W69652   4.312  36.063   1.612
 4393W        W69653   2.932   7.346   3.212
 4394W        W69654  20.004  29.005  13.363
 4395W        W69655  40.457   1.444   3.239
 4396W        W69656  33.805  38.735   9.890
 4397W        W69657  20.299  30.516   2.675
 4398W        W69658  32.512   0.846   3.741
 4399W        W69659  32.392  29.893   2.188
 4400W        W69660   1.420  37.818  14.998
 4401W        W69661  44.757  31.036   1.951
 4402W        W69662  35.767  28.160  14.790
 4403W        W69663  34.146  32.820   0.350
 4404W        W69664   1.915  34.615  12.468
 4405W        W69665  42.568   0.402  10.504
 4406W        W69666   4.648   1.315   1.981
 4407W        W69667  25.548  10.889   1.300
 4408W        W69668  42.570  38.849  12.812
 4409W        W69669  27.753  22.047   1.365
 4410W        W69670  19.576  34.667   3.619
 4411W        W69671  41.352  14.771  12.044
 4412W        W69672  13.294  19.588  13.027
 4413W        W69673   9.637  17.731  12.834
 4414W        W69674  24.417   7.707  12.031
 4415W        W69675  37.430  19.264  12.640
 4416W        W69676  19.400  19.935  13.818
 4417W        W69677  32.679  22.545   2.820
 4418W        W69678  16.259  32.653   2.442
 4419W        W69679  40.534  11.241   3.672
 4420W        W69680  10.104   8.610  13.021
 4421W        W69681  37.543  18.280  14.942
 4422W        W69682  19.299   1.882   0.972
 4423W        W69683  30.025   6.353   1.141
 4424W        W69684  20.582   6.323   4.704
 4425W        W69685  29.738  32.857  11.306
 4426W        W69686   7.412  36.774   1.949
 4427W        W69687  31.801   9.907   1.814
 4428W        W69688  21.226  13.711   2.577
 4429W        W69689  43.571   4.640  11.659
 4430W        W69690  24.533   9.428   2.908
 4431W        W69691  11.709   4.156   3.247
 4432W        W69692  31.477   7.493  11.989
 4433W        W69693   6.667   8.288  11.527
 4434W        W69694  31.464  23.504   2.670
 4435W        W69695  23.280  40.056   2.874
 4436W        W69696  23.148  13.248  12.057
 4437W        W69697  39.496  33.218  13.758
 4438W        W69698  21.567  12.671  11.981
 4439W        W69699   4.687  24.703   2.807
 4440W        W69700  28.586  18.411   1.235
 4441W        W69701  23.545  35.399   2.881
 4442W        W69702  20.176   2.325   1.356
 4443W        W69703  43.795  19.536   0.741
 4444W        W69704  27.040  35.534   3.804
 4445W        W69705  30.463   8.795  14.806
 4446W        W69706  23.158  20.734   2.275
 4447W        W69707  29.764  43.343   0.478
 4448W        W69708  26.084  23.400  13.464
 4449W        W69709  11.050  29.413  14.763
 4450W        W69710  28.844   2.777   4.336
 4451W        W69711  35.981  18.610   0.678
 4452W        W69712  25.225   6.297   4.664
 4453W        W69713  16.409  14.324  12.834
 4454W        W69714  22.603  12.302  14.348
 4455W        W69715   0.381   2.250  12.498
 4456W        W69716  32.819  27.990  12.145
 4457W        W69717  38.580  44.847  13.460
 4458W        W69718  21.118  42.860   2.245
 4459W        W69719  43.968   2.890   2.922
 4460W        W69720  16.243  15.154  10.453
 4461W        W69721  32.540  40.035   0.914
 4462W        W69722  17.317  19.734  12.070
 4463W        W69723  44.740   8.660  12.357
 4464W        W69724  42.767  35.603  11.675
 4465W        W69725  19.105  42.955   3.253
 4466W        W69726  41.394  19.606   0.837
 4467W        W69727  21.515  36.332   1.890
 4468W        W69728  21.221  22.733  12.921
 4469W        W69729  38.771   4.032   2.726
 4470W        W69730  27.045  12.629   3.198
 4471W        W69731  39.803  11.316  13.221
 4472W        W69732   1.565  34.354   0.338
 4473W        W69733  17.753  10.137   0.433
 4474W        W69734  29.177   7.278   1.451
 4475W        W69735   7.781   4.841   3.374
 4476W        W69736  33.974  37.365   2.818
 4477W        W69737   2.254  33.139   2.198
 4478W        W69738  23.419  26.933  11.765
 4479W        W69739  28.033  33.839  12.501
 4480W        W69740  40.097   8.169   2.808
 4481W        W69741   0.534  42.346  11.650
 4482W        W69742  28.051  43.915   4.291
 4483W        W69743  44.847   4.533  12.980
 4484W        W69744  33.324  20.091  11.136
 4485W        W69745  29.914  13.051  10.988
 4486W        W69746  12.667  27.386  12.644
 4487W        W69747  29.156  30.715   3.611
 4488W        W69748   8.365  43.022  14.986
 4489W        W69749  44.002  17.133  14.506
 4490W        W69750  27.166  36.289   2.757
 4491W        W69751   3.767  25.967   2.599
 4492W        W69752  38.421  43.601   0.439
 4493W        W69753   4.863  41.331   0.954
 4494W        W69754  15.596  10.310  14.424
 4495W        W69755  43.202  10.398   1.210
 4496W        W69756  40.327  26.571   1.307
 4497W        W69757  21.280   5.924   0.325
 4498W        W69758  20.836  35.611  13.862
 4499W        W69759  34.771  44.410  12.918
 4500W        W69760   1.438  43.552  10.816
 4501W        W69761  32.024  36.317   2.672
 4502W        W69762  27.246  26.456  13.402
 4503W        W69763  14.269  31.572  14.373
 4504W        W69764   7.896   4.149   2.334
 4505W        W69765  32.091  32.422  13.940
 4506W        W69766  36.092  43.767  11.141
 4507W        W69767  21.133  14.215   2.556
 4508W        W69768  11.097   8.708   0.782
 4509W        W69769   3.710  17.408  14.866
 4510W        W69770  25.406   6.417  11.043
 4511W        W69771   3.923   6.961  13.142
 4512W        W69772  14.000  12.828  12.463
 4513W        W69773   5.172   6.862  11.146
 4514W        W69774  35.004  43.369   2.293
 4515W        W69775  43.290  27.899   9.899
 4516W        W69776  23.723  40.091   1.681
 4517W        W69777  41.708  14.083  11.581
 4518W        W69778   3.900   7.421  13.423
 4519W        W69779  24.674  32.071  12.036
 4520W        W69780   5.233  36.652  13.343
 4521W        W69781  26.235  25.291   0.215
 4522W        W69782  32.443   1.420   4.487
 4523W        W69783  18.676  37.915  11.631
 4524W        W69784  36.940  27.486  10.881
 4525W        W69785  39.145  43.968   3.706
 4526W        W69786  35.458   7.525   2.708
 4527W        W69787  32.191  38.468   4.127
 4528W        W69788   1.796  43.750   3.633
 4529W        W69789  32.768  30.878  12.364
 4530W        W69790  11.886  32.536   9.931
 4531W        W69791  43.853  21.128   3.254
 4532W        W69792   6.883   9.898  14.277
 4533W        W69793   5.844  40.949   3.071
 4534W        W69794  22.365   2.186   9.886
 4535W        W69795  34.496  26.021   9.916
 4536W        W69796   0.369  38.051   0.352
 4537W        W69797  33.848  23.306  14.977
 4538W        W69798   8.167  26.932  14.755
 4539W        W69799  38.974  13.924   1.551
 4540W        W69800  31.880  25.454  12.660
 4541W        W69801   7.822   4.202   4.115
 4542W        W69802  21.742  36.146  13.872
 4543W        W69803  26.750  27.004   0.131
 4544W        W69804  11.116  34.006   2.168
 4545W        W69805  32.045   0.617   1.864
 4546W        W69806  25.166   5.985  14.229
 4547W        W69807  11.250   6.296   3.988
 4548W        W69808  14.002  20.497  13.881
 4549W        W69809  43.689   7.276   2.398
 4550W        W69810  21.593  15.368   0.235
 4551W        W69811   8.742   7.258  10.108
 4552W        W69812  23.772   8.427  13.101
 4553W        W69813  26.329   7.864  11.388
 4554W        W69814  33.692  21.448  12.002
 4555W        W69815   4.467   1.902  14.486
 4556W        W69816  15.820   0.711  13.581
 4557W        W69817  19.843  10.560  14.800
 4558W        W69818  11.781  17.357  11.355
 4559W        W69819  18.815  44.005   2.647
 4560W        W69820  28.097   4.805   3.714
 4561W        W69821  28.713  27.144  10.995
 4562W        W69822   1.367  39.361  14.029
 4563W        W69823   5.342   2.754  12.035
 4564W        W69824  41.146   9.613  13.962
 4565W        W69825  13.103  41.398   0.019
 4566W        W69826  36.601  28.269  10.960
 4567W        W69827   2.279  33.701  12.604
 4568W        W69828  23.934  20.578  13.612
 4569W        W69829   5.802  34.648  10.569
 4570W        W69830  28.726  23.914   1.435
 4571W        W69831  18.519  21.768   0.315
 4572W        W69832  33.041  22.487  10.496
 4573W        W69833  32.850  24.761   1.783
 4574W        W69834   6.179  22.289  13.818
 4575W        W69835  33.664  41.212   3.082
 4576W        W69836  36.975  36.254  11.057
 4577W        W69837  26.810  20.643  14.472
 4578W        W69838   1.525  11.379   4.075
 4579W        W69839  32.444  32.906  13.771
 4580W        W69840  20.516  11.898   3.615
 4581W        W69841  30.862  23.457   4.842
 4582W        W69842  36.173  38.950  14.574
 4583W        W69843  17.505  12.077  13.290
 4584W        W69844   5.168   1.874   4.133
 4585W        W69845  19.155  31.094  14.073
 4586W        W69846  17.138  20.768  13.888
 4587W        W69847   7.391  16.153  13.106
 4588W        W69848  36.523  31.464  13.520
 4589W        W69849  41.750  18.438  10.303
 4590W        W69850  23.667  42.509  12.443
 4591W        W69851  38.992  40.515   3.215
 4592W        W69852  42.066   3.937   3.955
 4593W        W69853   7.165  15.767  13.438
 4594W        W69854   8.394  19.500   1.775
 4595W        W69855   0.523  10.395  14.826
 4596W        W69856  22.058   9.649   3.255
 4597W        W69857   6.130  21.577  10.609
 4598W        W69858  30.347   1.841   3.496
 4599W        W69859  11.599  44.929   3.096
 4600W        W69860  13.317  23.634  12.420
 4601W        W69861  24.201  35.102   2.171
 4602W        W69862  34.918  31.678   0.834
 4603W        W69863  44.430  43.313   0.853
 4604W        W69864  27.927   3.494  10.699
 4605W        W69865  10.208  12.035  13.114
 4606W        W69866  19.828  25.753   3.238
 4607W        W69867   9.279  30.912   4.109
 4608W        W69868  36.014  31.645  12.604
 4609W        W69869  36.014   9.713   3.404
 4610W        W69870  16.660  13.653  14.466
 4611W        W69871  41.017  39.016  12.087
 4612W        W69872   8.589   2.744  10.694
 4613W        W69873  14.793  24.758  11.879
 4614W        W69874  26.819   4.892  14.410
 4615W        W69875   4.220  23.008  11.131
 4616W        W69876  16.719  12.802  14.745
 4617W        W69877  39.382   8.862  10.995
 4618W        W69878  31.123  35.489   1.457
 4619W        W69879  17.969  21.212  10.856
 4620W        W69880  38.082  34.925  14.470
 4621W        W69881  22.914   7.723  11.506
 4622W        W69882  44.088   3.342  14.339
 4623W        W69883  42.156  23.696   1.393
 4624W        W69884  36.170  21.734  13.919
 4625W        W69885   4.032  32.022   0.069
 4626W        W69886  41.874  44.964  12.866
 4627W        W69887  21.310  29.693   3.207
 4628W        W69888  16.210  36.588   0.770
 4629W        W69889   5.381   6.607   1.181
 4630W        W69890  42.616   8.821   0.538
 4631W        W69891  13.899  26.289  13.970
 4632W        W69892  26.664  13.634   1.943
 4633W        W69893   4.872  19.255   4.387
 4634W        W69894  23.587  21.636  12.532
 4635W        W69895   6.311  12.171  13.541
 4636W        W69896  16.375  28.959  10.646
 4637W        W69897   5.651   9.883  10.766
 4638W        W69898  12.223  11.171  11.167
 4639W        W69899  41.980  20.106  14.969
 4640W        W69900  40.799  17.822   2.312
 4641W        W69901  21.558  12.786   2.860
 4642W        W69902  11.301   0.719  14.042
 4643W        W69903  11.855  11.579  10.611
 4644W        W69904  40.905   1.711   5.040
 4645W        W69905   3.062  39.077   3.895
 4646W        W69906  20.969  36.607  10.222
 4647W        W69907   4.435  42.451   2.171
 4648W        W69908  23.259  25.800   3.250
 4649W        W69909  32.814  19.630   1.161
 4650W        W69910  41.518   8.307   2.901
 4651W        W69911  20.961  37.484   2.160
 4652W        W69912  19.360  23.309   9.672
 4653W        W69913   9.383  18.145  13.548
 4654W        W69914  21.776   8.278   4.176
 4655W        W69915  43.905  40.960   4.180
 4656W        W69916  11.891  17.311   3.714
 4657W        W69917  32.054   2.146   1.942
 4658W        W69918  28.627  17.047   9.732
 4659W        W69919  13.827   3.145   1.674
 4660W        W69920  36.594  11.461   2.703
 4661W        W69921  43.909   9.647   4.268
 4662W        W69922  33.039  10.035  12.099
 4663W        W69923  22.598  28.983  13.547
 4664W        W69924  34.481  36.476   0.949
 4665W        W69925  27.627   8.370  11.218
 4666W        W69926  35.570  16.631   2.629
 4667W        W69927  30.443  30.646  14.861
 4668W        W69928   8.233  37.137  10.729
 4669W        W69929  20.942   7.392   2.189
 4670W        W69930  38.784  22.262  13.977
 4671W        W69931   1.186   9.757   3.196
 4672W        W69932  19.357   5.178   2.541
 4673W        W69933  43.271   3.634  13.462
 4674W        W69934  22.982  32.357   4.910
 4675W        W69935   3.001  41.022   3.075
 4676W        W69936  44.454   5.677   2.675
 4677W        W69937  22.811   7.659   2.419
 4678W        W69938  11.693  27.604  14.018
 4679W        W69939   2.206  35.039  12.469
 4680W        W69940  25.718  11.165  11.686
 4681W        W69941  39.565   9.233  14.529
 4682W        W69942  26.418  18.616   1.838
 4683W        W69943  13.243  26.684  12.322
 4684W        W69944  34.455  11.794  12.042
 4685W        W69945  34.902  29.686   1.311
 4686W        W69946  10.745  29.365  11.043
 4687W        W69947   4.248  31.473  11.102
 4688W        W69948  23.330   5.449  11.094
 4689W        W69949  42.973  31.349  14.903
 4690W        W69950  42.901  25.520  12.199
 4691W        W69951   1.727  30.939   1.889
 4692W        W69952   5.625   6.618   4.731
 4693W        W69953  16.197  38.888   9.990
 4694W        W69954  17.258  40.517  10.613
 4695W        W69955  37.223  40.212  13.951
 4696W        W69956  37.514   0.474  11.135
 4697W        W69957   0.226  35.366  14.513
 4698W        W69958  43.744   6.415   0.908
 4699W        W69959   7.903   2.386  13.801
 4700W        W69960  19.311  43.675   3.564
 4701W        W69961   3.695  36.091  12.325
 4702W        W69962  27.055  15.187   1.287
 4703W        W69963  41.535  40.899   4.899
 4704W        W69964  43.801  28.045  13.513
 4705W        W69965  18.782  29.481  12.140
 4706W        W69966  25.034   9.485  13.840
 4707W        W69967  33.444  10.312  10.411
 4708W        W69968  40.000  10.381   3.831
 4709W        W69969   4.865  35.726  10.843
 4710W        W69970   8.841  32.922  12.474
 4711W        W69971  37.036  26.713   4.173
 4712W        W69972  43.253  24.121   4.456
 4713W        W69973   7.484  29.036   3.542
 4714W        W69974  16.861  36.851   4.638
 4715W        W69975   6.103  35.875   1.127
 4716W        W69976   2.838  31.943   0.681
 4717W        W69977   6.807  11.039  13.990
 4718W        W69978  42.926  39.659  11.132
 4719W        W69979  32.466  24.497  14.533
 4720W        W69980   8.721  12.086   4.121
 4721W        W69981  20.909  15.845  13.680
 4722W        W69982  25.979  31.107   3.722
 4723W        W69983  29.078  18.478  14.888
 4724W        W69984   7.554  13.220   2.762
 4725W        W69985  17.841  33.862  14.971
 4726W        W69986  20.003  16.845   2.817
 4727W        W69987  34.776   0.293   3.140
 4728W        W69988  18.643  41.232  11.961
 4729W        W69989  29.212  38.562   0.289
 4730W        W69990  13.153  44.947   2.041
 4731W        W69991  26.234   0.215  13.847
 4732W        W69992  31.052   2.724   0.849
 4733W        W69993   0.460  12.248  12.777
 4734W        W69994  28.976  43.179   0.780
 4735W        W69995  20.145  39.287  10.587
 4736W        W69996  38.311  22.465   1.915
 4737W        W69997  31.041  26.385   3.204
 4738W        W69998  29.038  18.828  11.012
 4739W        W69999  12.412  39.956  11.004
 4740W        W70000   5.890  33.916  14.458
 4741W        W70001  24.165  44.221   2.664
 4742W        W70002  15.817  27.479   0.833
 4743W        W70003  24.321  43.375   2.082
 4744W        W70004  44.563   3.374   1.283
 4745W        W70005  18.020  32.121   4.662
 4746W        W70006  10.820  24.046   1.111
 4747W        W70007  44.526  39.310  12.619
 4748W        W70008   5.188  18.692   2.720
 4749W        W70009  43.465   0.716   1.423
 4750W        W70010  29.355   0.669   2.291
 4751W        W70011  36.267  40.913   3.770
 4752W        W70012  23.095  20.817   1.331
 4753W        W70013  29.262  11.762   4.112
 4754W        W70014   4.468  15.810   1.335
 4755W        W70015  23.017  33.391   4.378
 4756W        W70016   7.768   1.676   1.987
 4757W        W70017  42.465  15.099   0.646
 4758W        W70018  34.988  15.730  10.739
 4759W        W70019  33.749  22.557   0.347
 4760W        W70020  28.573  16.965  11.076
 4761W        W70021  26.058  28.961  14.876
 4762W        W70022  33.357  13.146  12.598
 4763W        W70023  37.097  22.597   4.082
 4764W        W70024  14.382  18.801  11.172
 4765W        W70025  12.575  41.128   3.365
 4766W        W70026  15.670  12.760   2.207
 4767W        W70027  13.309  14.278   3.675
 4768W        W70028  43.996  31.436  14.893
 4769W        W70029  41.396  13.385   3.248
 4770W        W70030  40.948  36.879   2.922
 4771W        W70031  33.269  14.242  14.516
 4772W        W70032  35.892   2.536  10.429
 4773W        W70033  10.260  31.968   1.209
 4774W        W70034   9.888  37.964  14.666
 4775W        W70035  36.299  25.507   3.285
 4776W        W70036  25.187  38.773   3.701
 4777W        W70037  27.165   9.613   4.603
 4778W        W70038  16.098  35.543   1.967
 4779W        W70039  28.498  25.225   1.728
 4780W        W70040  38.788  13.620   2.420
 4781W        W70041  37.462  40.922   4.920
 4782W        W70042  41.565  16.018  14.352
 4783W        W70043  38.926  28.529  11.969
 4784W        W70044  34.919   3.460  13.001
 4785W        W70045  11.069  31.108   1.395
 4786W        W70046  19.317  11.827  11.941
 4787W        W70047  12.176  36.167  12.909
 4788W        W70048   0.944  16.760  14.946
 4789W        W70049  33.153  33.686  10.975
 4790W        W70050  18.540  28.054   3.828
 4791W        W70051  23.019  17.151  11.926
 4792W        W70052  37.606   5.609  12.037
 4793W        W70053  34.831   8.791  11.590
 4794W        W70054  14.943  38.980   1.487
 4795W        W70055  36.819   3.353  13.354
 4796W        W70056  29.402  14.210   0.520
 4797W        W70057   6.406  29.134  14.525
 4798W        W70058   4.972   2.185  14.912
 4799W        W70059  11.345  38.292  12.081
 4800W        W70060  43.826  20.688  12.019
 4801W        W70061  34.013   0.234   2.263
 4802W        W70062  36.221  44.727   0.902
 4803W        W70063  31.439  30.515  10.454
 4804W        W70064   2.425  41.570  11.983
 4805W        W70065  41.206  26.549   4.148
 4806W        W70066   4.947   8.646  14.739
 4807W        W70067  38.666  10.249   2.179
 4808W        W70068  40.702   3.909  10.750
 4809W        W70069  33.606  43.743   1.001
 4810W        W70070  11.165  44.154   3.704
 4811W        W70071  39.531  15.071  11.301
 4812W        W70072  36.319  35.526  14.606
 4813W        W70073  14.266  18.985   4.231
 4814W        W70074  29.189  11.363   0.192
 4815W        W70075  32.188  41.612  12.554
 4816W        W70076  12.535  11.808  14.865
 4817W        W70077   8.798  44.240  13.761
 4818W        W70078  39.804  19.683   2.381
 4819W        W70079   6.480  34.760   0.424
 4820W        W70080  19.155  11.371  14.569
 4821W        W70081  31.961  19.114  13.197
 4822W        W70082  37.013   3.435   4.482
 4823W        W70083  14.334  20.630   3.278
 4824W        W70084   6.540  41.633   1.097
 4825W        W70085  32.681  22.836  12.808
 4826W        W70086  18.098  27.011  11.430
 4827W        W70087  29.294  26.427   1.302
 4828W        W70088  11.131  43.534  10.463
 4829W        W70089  34.303  22.324   4.070
 4830W        W70090  44.122  35.545  11.659
 4831W        W70091  25.670  39.697  11.199
 4832W        W70092  30.973  29.659  11.528
 4833W        W70093  24.210  34.170   3.579
 4834W        W70094  40.377  13.779  14.895
 4835W        W70095  16.039  17.478  14.739
 4836W        W70096  25.026  41.539  11.591
 4837W        W70097  37.370  14.370   5.041
 4838W        W70098   6.629  35.043   3.188
 4839W        W70099  15.082  18.684  14.921
 4840W        W70100  31.953  39.955  11.761
 4841W        W70101  23.263  13.545   3.152
 4842W        W70102  19.045  28.377  11.200
 4843W        W70103  39.535  30.030  11.161
 4844W        W70104  42.897  37.372   0.006
 4845W        W70105  26.454  14.332   5.053
 4846W        W70106   6.907   3.879  14.003
 4847W        W70107  14.321   8.490  13.406
 4848W        W70108   0.317   6.468   3.387
 4849W        W70109  10.957   0.401   4.651
 4850W        W70110   0.149  36.984  13.485
 4851W        W70111  28.296  15.876  13.950
 4852W        W70112  33.847   8.739  11.493
 4853W        W70113   2.708  15.587   4.421
 4854W        W70114   7.630  19.120  12.362
 4855W        W70115  35.229  12.910   0.696
 4856W        W70116   6.266  27.218   5.760
 4857W        W70117  30.144  36.924  11.163
 4858W        W70118   9.843  43.396   2.493
 4859W        W70119   9.651   6.436  13.106
 4860W        W70120  38.130  37.393  10.779
 4861W        W70121   1.849  39.241   3.736
 4862W        W70122  19.287  25.541   2.296
 4863W        W70123  30.941   4.731   1.763
 4864W        W70124  21.242  20.731   1.279
 4865W        W70125  19.147  42.728   0.806
 4866W        W70126  21.063   8.403   4.289
 4867W        W70127  10.620  18.330  11.090
 4868W        W70128   9.900  36.468  11.668
 4869W        W70129  39.504  12.680  14.420
 4870W        W70130  17.333  40.989   4.881
 4871W        W70131   9.909   6.433  13.604
 4872W        W70132   0.829   2.013   1.732
 4873W        W70133  31.938   0.312  12.635
 4874W        W70134   3.898  34.811   1.088
 4875W        W70135  31.368  35.943   0.025
 4876W        W70136  40.146  27.267   2.332
 4877W        W70137  37.032  35.290   2.642
 4878W        W70138  20.226  14.679  10.510
 4879W        W70139   2.712  27.441  12.441
 4880W        W70140  11.295  10.754  12.904
 4881W        W70141  22.241   9.580   0.978
 4882W        W70142   6.915   8.878  12.510
 4883W        W70143  22.002  39.861  14.460
 4884W        W70144   8.300   1.852  14.346
 4885W        W70145  37.067  20.555  12.912
 4886W        W70146  24.220  10.187  11.523
 4887W        W70147  16.595  33.274   0.831
 4888W        W70148  15.073  19.686  11.255
 4889W        W70149   6.357  21.200  11.491
 4890W        W70150   6.449  42.797   3.254
 4891W        W70151  25.635  21.801  11.386
 4892W        W70152  42.069  14.698   2.374
 4893W        W70153  28.553  41.108  14.994
 4894W        W70154  13.144  24.033   1.358
 4895W        W70155   4.929  44.894   2.356
 4896W        W70156   0.477   1.015  13.064
 4897W        W70157  18.991  13.256  11.223
 4898W        W70158  27.593  25.947   3.926
 4899W        W70159  43.058  25.551  13.574
 4900W        W70160  38.979  18.180   2.878
 4901W        W70161  41.536  24.561  12.004
 4902W        W70162  43.632  42.519   3.140
 4903W        W70163  43.996   4.432  11.459
 4904W        W70164  30.394   2.949   4.671
 4905W        W70165  36.132   6.259   0.892
 4906W        W70166  13.463   4.466  13.816
 4907W        W70167  16.735  43.804  13.467
 4908W        W70168  43.249  31.083  12.946
 4909W        W70169   3.506   4.896   3.010
 4910W        W70170  15.791  20.609   1.759
 4911W        W70171   4.109  17.955   2.388
 4912W        W70172  38.363  42.501  12.414
 4913W        W70173  40.376   9.519  10.719
 4914W        W70174  30.949  25.719  14.803
 4915W        W70175  43.697  23.215  13.578
 4916W        W70176  18.076  24.597   0.347
 4917W        W70177   3.873  14.533   0.395
 4918W        W70178   7.416   1.288   1.794
 4919W        W70179  37.455  17.726  13.921
 4920W        W70180   3.933  32.535   4.115
 4921W        W70181  24.300  31.058  14.445
 4922W        W70182  12.107  10.757   1.929
 4923W        W70183  25.720  30.186   0.548
 4924W        W70184  20.059   8.332   0.407
 4925W        W70185   3.052  32.609  11.665
 4926W        W70186  33.123  21.103   3.212
 4927W        W70187   6.763   2.901  13.869
 4928W        W70188  26.736  38.872  11.027
 4929W        W70189   4.395  41.208   0.302
 4930W        W70190   8.883  32.001   4.621
 4931W        W70191   3.280   1.438  11.477
 4932W        W70192  18.161  34.003  11.714
 4933W        W70193   2.924  24.314   9.767
 4934W        W70194  41.920   3.038   3.990
 4935W        W70195   6.620   3.855  13.582
 4936W        W70196  23.521  14.821   0.774
 4937W        W70197  22.563  19.174   4.239
 4938W        W70198  26.578  24.328   3.469
 4939W        W70199   1.210  17.760   3.681
 4940W        W70200  28.649  34.049  11.476
 4941W        W70201  27.553  20.923   0.984
 4942W        W70202   0.432  21.783  12.911
 4943W        W70203  39.689   2.810   0.703
 4944W        W70204   6.984  35.941  12.637
 4945W        W70205   5.294  33.614  13.366
 4946W        W70206   5.884  29.665  13.891
 4947W        W70207  27.935  36.020  10.231
 4948W        W70208  19.664  29.220  12.546
 4949W        W70209  29.577  20.644   4.692
 4950W        W70210  27.966   4.203   3.516
 4951W        W70211   8.230   5.696  13.446
 4952W        W70212  16.098  44.507  11.866
 4953W        W70213  18.102   9.656   4.654
 4954W        W70214  20.565   3.244   2.199
 4955W        W70215  37.492  25.006  10.671
 4956W        W70216  28.604  11.206  12.881
 4957W        W70217   4.307  33.491   1.896
 4958W        W70218  33.028  10.669   4.433
 4959W        W70219  26.081  22.162   0.832
 4960W        W70220   4.536  17.315   4.090
 4961W        W70221  32.570   5.814  11.707
 4962W        W70222  24.247  34.379  12.351
 4963W        W70223  12.855  26.705  11.071
 4964W        W70224  16.403   3.775   3.701
 4965W        W70225  22.772  27.028  10.790
 4966W        W70226   4.135   7.397  12.900
 4967W        W70227  16.714  33.866   4.332
 4968W        W70228  32.683  25.221  11.637
 4969W        W70229  24.587   7.693   2.861
 4970W        W70230  23.924  31.667   1.973
 4971W        W70231  19.715  22.585   4.243
 4972W        W70232  13.242   5.654   4.410
 4973W        W70233  33.368  27.250  14.021
 4974W        W70234  34.128  20.852   3.125
 4975W        W70235  42.515   9.028  12.142
 4976W        W70236  28.733  31.466  13.642
 4977W        W70237  21.133  15.036  11.972
 4978W        W70238  11.256  33.998  13.071
 4979W        W70239  24.031  41.472  12.670
 4980W        W70240  13.898   5.764  10.853
 4981W        W70241  37.385   7.294   0.301
 4982W        W70242   7.606  34.613   4.064
 4983W        W70243   9.238   3.854   4.388
 4984W        W70244   4.162   7.619  11.033
 4985W        W70245  13.351  15.031  12.066
 4986W        W70246  35.031  19.177   3.264
 4987W        W70247  24.017  39.818  11.989
 4988W        W70248  16.838  32.394   3.389
 4989W        W70249  37.234  26.220  13.364
 4990W        W70250  27.922  43.336   3.111
 4991W        W70251  33.420  39.524   0.630
 4992W        W70252  10.855  15.273  11.064
 4993W        W70253   8.375  23.183   4.256
 4994W        W70254  14.672   0.748   1.367
 4995W        W70255  27.026   6.752  12.022
 4996W        W70256  20.566   6.231   4.173
 4997W        W70257  29.134  13.665   4.140
 4998W        W70258  43.024  34.853  12.421
 4999W        W70259  14.586   2.466  13.498
 5000W        W70260  32.569   0.549  14.753
 5001W        W70261  28.392  13.228   3.862
 5002W        W70262   0.122   4.422  13.426
 5003W        W70263  17.594  23.445  10.619
 5004W        W70264  23.745  21.108   0.423
 5005W        W70265  20.284  20.941   4.052
 5006W        W70266  44.914  14.928  10.799
 5007W        W70267   3.723   5.827  13.957
 5008W        W70268  29.877   8.371  14.544
 5009W        W70269  25.452  19.536  13.036
 5010W        W70270   4.961  12.713  14.496
 5011W        W70271   9.573  15.217  11.446
 5012W        W70272  20.662  24.035  10.588
 5013W        W70273  38.546  20.135  13.923
 5014W        W70274   4.460  32.230  13.316
 5015W        W70275  25.019  30.707   1.216
 5016W        W70276  12.125  32.014   2.145
 5017W        W70277   2.788  31.992   2.904
 5018W        W70278  29.612   6.427  11.145
 5019W        W70279  26.656  32.433   1.346
 5020W        W70280  11.352  39.951   3.493
 5021W        W70281  26.778  35.923   3.600
 5022W        W70282  42.802   4.714   2.620
 5023W        W70283  26.145  20.017   2.402
 5024W        W70284   3.043  37.618   4.251
 5025W        W70285  18.310  12.015  12.033
 5026W        W70286  39.836  34.948   4.558
 5027W        W70287  26.783  41.511  13.345
 5028W        W70288   8.840  35.553   0.809
 5029W        W70289  16.661  13.580  12.860
 5030W        W70290   5.430  10.783  13.934
 5031W        W70291  22.706  44.685   1.340
 5032W        W70292  43.777  35.579  14.337
 5033W        W70293  12.296   3.125   1.784
 5034W        W70294   5.093  39.347  11.729
 5035W        W70295  22.544  31.077  10.825
 5036W        W70296   1.857  23.519   0.334
 5037W        W70297  19.939   1.445   3.697
 5038W        W70298  32.420  32.357   0.964
 5039W        W70299  18.074  44.431   4.465
 5040W        W70300   6.673  34.031   3.169
 5041W        W70301  41.720  36.436   3.691
 5042W        W70302  41.052  30.666   0.578
 5043W        W70303  15.826  26.080   3.574
 5044W        W70304  33.552  15.747  14.371
 5045W        W70305  34.923  40.813  13.562
 5046W        W70306  27.263  44.403   3.614
 5047W        W70307  17.454  38.577   0.957
 5048W        W70308   6.446  42.900   0.427
 5049W        W70309  18.211   2.741   0.579
 5050W        W70310  22.676  22.085   0.681
 5051W        W70311  24.073  31.167   1.175
 5052W        W70312   6.877  24.137   1.544
 5053W        W70313  44.802   1.210  12.117
 5054W        W70314  38.840   7.853   4.338
 5055W        W70315   5.759  35.625   3.546
 5056W        W70316   7.860   2.431  12.571
 5057W        W70317  15.058  31.237  11.993
 5058W        W70318   1.398   4.721   2.402
 5059W        W70319  40.868   3.348   4.583
 5060W        W70320  15.075  26.297   2.834
 5061W        W70321  27.482  23.281   3.861
 5062W        W70322  30.187   2.656   2.857
 5063W        W70323  44.222   5.839   2.253
 5064W        W70324   2.219  18.134   3.851
 5065W        W70325  26.632  12.245  11.857
 5066W        W70326   4.965  33.452  10.794
 5067W        W70327  31.997   5.162  12.110
 5068W        W70328   2.416  13.617  10.779
 5069W        W70329  35.127  38.552   1.822
 5070W        W70330  27.607   5.067  13.797
 5071W        W70331  39.936   8.540   4.610
 5072W        W70332   3.993  34.421  10.588
 5073W        W70333  24.513  44.762   3.552
 5074W        W70334  29.693  26.415   4.535
 5075W        W70335  10.795  19.127   2.834
 5076W        W70336  11.919  28.065  11.887
 5077W        W70337  15.088   4.093   4.092
 5078W        W70338  29.638  36.396   1.692
 5079W        W70339  16.793  22.455   2.112
 5080W        W70340  36.036  28.412  13.942
 5081W        W70341  44.525   0.280   3.294
 5082W        W70342   0.120  41.078  12.047
 5083W        W70343  30.899  16.649  12.417
 5084W        W70344  26.282  38.506  11.591
 5085W        W70345   5.530  30.926  13.991
 5086W        W70346  30.471  35.468   3.744
 5087W        W70347  30.942  34.328   0.874
 5088W        W70348   4.303  44.355  11.382
 5089W        W70349   0.288  13.860   4.369
 5090W        W70350  41.481   4.934  11.186
 5091W        W70351  16.837   4.202   4.719
 5092W        W70352  31.974  22.259   2.454
 5093W        W70353  16.798   6.209  11.217
 5094W        W70354  20.378   1.350  14.947
 5095W        W70355  14.685  15.269  14.771
 5096W        W70356  44.938  26.720  11.563
 5097W        W70357  20.022  40.909   1.634
 5098W        W70358  41.464  12.411   3.627
 5099W        W70359  22.105  36.680  14.311
 5100W        W70360  14.605  32.648  12.119
 5101W        W70361  17.104  17.595   2.333
 5102W        W70362  44.945  10.646   4.622
 5103W        W70363  14.235   1.246   0.748
 5104W        W70364  37.034  33.223  14.793
 5105W        W70365  18.137  31.472   2.570
 5106W        W70366  35.561  24.938  13.106
 5107W        W70367  39.900  28.423  14.473
 5108W        W70368  17.690  26.317  12.852
 5109W        W70369   6.867  44.303   1.953
 5110W        W70370   0.347  34.055   3.673
 5111W        W70371  15.725  36.505  14.989
 5112W        W70372  13.372   1.876  13.841
 5113W        W70373  43.081   9.416   1.438
 5114W        W70374  35.026  10.458  11.093
 5115W        W70375  41.888  27.090   1.952
 5116W        W70376  31.141  14.582  14.357
 5117W        W70377  39.319  32.735  13.380
 5118W        W70378   4.500  39.126   1.786
 5119W        W70379  19.787  37.599   4.101
 5120W        W70380  39.928  33.979  13.128
 5121W        W70381  16.152  32.368   1.984
 5122W        W70382  14.221  16.680   1.936
 5123W        W70383   1.451   0.297  11.208
 5124W        W70384  42.516  21.910  13.549
 5125W        W70385  39.550  17.559  13.844
 5126W        W70386  39.303  43.261   1.674
 5127W        W70387  28.408  35.827   0.737
 5128W        W70388  22.451  25.542  13.552
 5129W        W70389  18.154  18.649  12.367
 5130W        W70390  16.041  38.284   2.811
 5131W        W70391  20.873  11.284   0.329
 5132W        W70392  22.902  28.750   0.907
 5133W        W70393  23.623  17.030   1.155
 5134W        W70394  36.851  27.358   4.397
 5135W        W70395   5.526  38.799   1.333
 5136W        W70396  33.748  10.914  11.190
 5137W        W70397  37.360  19.635   1.263
 5138W        W70398  44.863  33.638  13.332
 5139W        W70399  43.237  38.025   3.700
 5140W        W70400   6.216  18.177   0.365
 5141W        W70401  31.990   2.040  14.788
 5142W        W70402   8.007  17.289   0.145
 5143W        W70403  38.640  13.381   1.947
 5144W        W70404  44.884  12.533   2.742
 5145W        W70405  26.439  42.893   3.257
 5146W        W70406  16.782  29.792  10.058
 5147W        W70407  39.307  32.462  13.815
 5148W        W70408  32.906   1.364   0.069
 5149W        W70409  20.454  35.713   2.585
 5150W        W70410  36.765  28.865   2.848
 5151W        W70411  37.005   2.890  13.260
 5152W        W70412  13.268  23.396  11.921
 5153W        W70413  42.736  33.250   1.457
 5154W        W70414  23.484  18.072   1.845
 5155W        W70415  33.487   8.308   0.679
 5156W        W70416   3.175   9.932  14.907
 5157W        W70417   2.824  27.072   5.079
 5158W        W70418  18.356  29.166   3.713
 5159W        W70419  29.822   1.031   3.271
 5160W        W70420  38.286  28.101   2.240
 5161W        W70421  27.085  19.639   5.057
 5162W        W70422   5.815  31.947  13.461
 5163W        W70423   1.811  32.767  10.748
 5164W        W70424  42.980   5.672   2.832
 5165W        W70425  15.673  35.916   0.723
 5166W        W70426  23.552  25.498   2.664
 5167W        W70427  33.549   3.519  13.074
 5168W        W70428  36.261   9.811   0.012
 5169W        W70429  29.237   0.971   4.385
 5170W        W70430  35.842   2.136  13.745
 5171W        W70431  22.719  33.123  10.169
 5172W        W70432  23.687   5.095  11.233
 5173W        W70433  42.422  25.236  13.061
 5174W        W70434  23.484   5.494  10.278
 5175W        W70435  24.095  21.011  13.294
 5176W        W70436  19.827  43.737  13.064
 5177W        W70437  37.398  27.146  12.879
 5178W        W70438   1.537   5.888   0.854
 5179W        W70439  41.050  38.523  11.925
 5180W        W70440  15.039  17.692  10.294
 5181W        W70441   5.378   3.040  13.415
 5182W        W70442  40.233  11.327  10.286
 5183W        W70443   0.321  34.939  14.222
 5184W        W70444   6.150  31.922  12.466
 5185W        W70445  40.871  19.964   3.793
 5186W        W70446  37.422  19.207   0.333
 5187W        W70447   7.060  12.799  12.378
 5188W        W70448  16.819  21.752   4.102
 5189W        W70449  15.227  11.684  10.411
 5190W        W70450  44.215  18.120  11.559
 5191W        W70451  32.843  17.049   0.472
 5192W        W70452  28.070  28.923   3.910
 5193W        W70453   8.897   8.098   3.605
 5194W        W70454   1.202  10.058   3.612
 5195W        W70455   3.402  23.966  13.441
 5196W        W70456  31.074  23.667   0.347
 5197W        W70457  32.715   5.738  12.577
 5198W        W70458  16.168  32.113  14.334
 5199W        W70459   5.281  18.229  12.150
 5200W        W70460  27.594  28.085  14.945
 5201W        W70461  13.738  18.919  14.505
 5202W        W70462  42.130   1.271   1.360
 5203W        W70463  40.304   5.046   0.850
 5204W        W70464  28.585  29.203   4.159
 5205W        W70465  10.907  39.865   4.779
 5206W        W70466   4.998  27.304   4.349
 5207W        W70467  24.204  10.356  12.116
 5208W        W70468  32.999  23.259  14.261
 5209W        W70469  41.563  12.281   4.566
 5210W        W70470  43.028  20.119   5.017
 5211W        W70471   2.743   7.646  11.414
 5212W        W70472  18.734  25.532  14.549
 5213W        W70473   2.435  19.157  12.493
 5214W        W70474   4.715  36.401   1.745
 5215W        W70475   7.456  43.974  14.262
 5216W        W70476  35.810  33.740   4.632
 5217W        W70477  31.204  35.875   1.837
 5218W        W70478  41.393  29.013   0.825
 5219W        W70479  35.627  30.846  12.647
 5220W        W70480  34.674  22.626   1.434
 5221W        W70481  34.587   4.683  13.890
 5222W        W70482  26.789  15.202   4.776
 5223W        W70483  36.581  26.368   3.963
 5224W        W70484  33.373  30.479  14.761
 5225W        W70485   6.433  27.209  11.153
 5226W        W70486  13.493   5.697  11.773
 5227W        W70487   6.203  31.952   0.912
 5228W        W70488  25.310  29.414  12.436
 5229W        W70489  43.450  37.371  11.169
 5230W        W70490  31.023  36.101   3.663
 5231W        W70491  26.965   7.289   1.835
 5232W        W70492  16.344  36.182  12.509
 5233W        W70493  14.152  43.468   0.198
 5234W        W70494  22.938  39.676   2.804
 5235W        W70495  22.794  42.450   0.912
 5236W        W70496  15.552  28.967  11.116
 5237W        W70497  21.794  12.735   4.097
 5238W        W70498  36.494  37.270   4.491
 5239W        W70499  11.372  34.829   4.820
 5240W        W70500  10.822   5.460  11.173
 5241W        W70501  12.662  43.837  10.610
 5242W        W70502  15.646  26.845   0.371
 5243W        W70503   6.925  44.688   3.216
 5244W        W70504   1.375  36.992   4.015
 5245W        W70505  15.500  36.814   1.275
 5246W        W70506  24.726  27.227  12.056
 5247W        W70507  11.170  18.814   0.751
 5248W        W70508  40.768  38.369  13.071
 5249W        W70509   6.721   6.834   3.153
 5250W        W70510  12.778  21.946   1.807
 5251W        W70511  35.928  43.911   4.093
 5252W        W70512  28.515  17.799   5.008
 5253W        W70513  42.129  10.720  10.844
 5254W        W70514   7.143  20.634   0.406
 5255W        W70515   4.418   6.013  12.479
 5256W        W70516   1.260   6.903   2.832
 5257W        W70517  19.493  11.407  11.647
 5258W        W70518  41.566   3.431  11.615
 5259W        W70519  37.068   6.437  10.858
 5260W        W70520   5.151  35.611   2.245
 5261W        W70521  24.710   6.007  14.994
 5262W        W70522  36.111  41.145  14.811
 5263W        W70523   2.930  30.108   2.132
 5264W        W70524   1.843  17.755  11.191
 5265W        W70525  25.104  14.067  12.058
 5266W        W70526  25.788  11.105  13.579
 5267W        W70527  14.252  41.679  13.075
 5268W        W70528   4.230   3.042  14.997
 5269W        W70529  37.770   8.980   1.270
 5270W        W70530   8.174   4.708  13.815
 5271W        W70531  38.452  32.860   4.082
 5272W        W70532  29.273  37.215   2.741
 5273W        W70533  12.976  10.344   4.300
 5274W        W70534  26.876   8.524   1.869
 5275W        W70535   1.077   6.924  14.657
 5276W        W70536  10.299  38.930   1.248
 5277W        W70537  23.244   8.409   0.226
 5278W        W70538  27.210  29.629  12.689
 5279W        W70539  34.710  23.980   3.185
 5280W        W70540  33.481   0.195  11.884
 5281W        W70541   6.285  43.345   1.515
 5282W        W70542  10.225  35.547  13.352
 5283W        W70543  37.616   3.426   5.120
 5284W        W70544  43.318  34.017  12.933
 5285W        W70545  13.790  19.366  11.018
 5286W        W70546  38.385  16.005   1.280
 5287W        W70547  35.519   3.913   2.153
 5288W        W70548  44.757  35.882  12.886
 5289W        W70549  19.267   5.576   2.880
 5290W        W70550  16.894   8.211   3.617
 5291W        W70551  21.680  27.033  10.505
 5292W        W70552  23.553  16.099  14.085
 5293W        W70553  22.375   2.864  14.354
 5294W        W70554  10.670  28.619   1.694
 5295W        W70555   5.166  29.877   4.974
 5296W        W70556  30.100  40.432  12.894
 5297W        W70557   9.849  14.805  10.963
 5298W        W70558  40.408  24.842  11.177
 5299W        W70559  43.920  33.347   1.814
 5300W        W70560   7.656   7.091   1.040
 5301W        W70561  34.009  17.160  13.003
 5302W        W70562  37.853  25.024   3.829
 5303W        W70563   0.016   8.273   0.380
 5304W        W70564  27.484   8.818  12.417
 5305W        W70565   7.663  20.113   1.897
 5306W        W70566  37.366  34.817  14.795
 5307W        W70567   8.354  36.826  13.389
 5308W        W70568  14.397  14.616  14.840
 5309W        W70569  12.932  18.179  12.397
 5310W        W70570  15.664   6.688   3.115
 5311W        W70571  30.058  37.771   3.321
 5312W        W70572  41.392  28.298   2.020
 5313W        W70573  16.044   9.808  10.243
 5314W        W70574  28.255  42.152   4.115
 5315W        W70575  43.417  17.494  13.560
 5316W        W70576  39.339  17.002   3.368
 5317W        W70577   3.204  20.709   3.546
 5318W        W70578  40.926  31.978   3.893
 5319W        W70579  20.249  21.456   2.399
 5320W        W70580  37.657  11.635  11.923
 5321W        W70581  23.694  42.733  11.986
 5322W        W70582  13.719  40.274   3.729
 5323W        W70583  36.011  43.311   0.759
 5324W        W70584   6.031  38.714   1.186
 5325W        W70585  17.095  20.024  13.349
 5326W        W70586  42.812  31.520  11.626
 5327W        W70587  31.600   3.853  13.841
 5328W        W70588  24.779  31.879  11.569
 5329W        W70589   9.869   1.540   2.339
 5330W        W70590  37.305  33.879   3.650
 5331W        W70591  43.390  42.484   1.276
 5332W        W70592  43.609  44.785   1.595
 5333W        W70593  13.862  33.855  11.133
 5334W        W70594  31.375  38.088   4.075
 5335W        W70595   5.965   3.109   0.153
 5336W        W70596  10.260  30.548   0.034
 5337W        W70597  23.600  34.659   1.795
 5338W        W70598  44.505  28.457   0.878
 5339W        W70599  29.433  39.987  14.999
 5340W        W70600  18.088  42.882   3.934
 5341W        W70601  15.214   0.461  11.943
 5342W        W70602  12.487  15.580   4.655
 5343W        W70603   5.833  42.980   0.800
 5344W        W70604  20.315   4.011  12.338
 5345W        W70605  23.813  12.658  14.852
 5346W        W70606  40.457   0.072  12.640
 5347W        W70607  42.755  35.466   0.812
 5348W        W70608   2.326   7.405   0.267
 5349W        W70609   5.950  37.639   1.851
 5350W        W70610  41.118  36.356  12.014
 5351W        W70611  20.072  42.236  13.720
 5352W        W70612  12.816  13.593  12.947
 5353W        W70613  12.760  43.686   0.514
 5354W        W70614  25.666  16.540  12.476
 5355W        W70615   7.189   0.977   2.169
 5356W        W70616  34.836   5.349   4.901
 5357W        W70617  16.535  23.150  12.515
 5358W        W70618  34.626   9.530   0.411
 5359W        W70619  12.766  22.815   1.966
 5360W        W70620  19.934  28.471   4.220
 5361W        W70621  14.866  23.214  14.319
 5362W        W70622  41.447  21.975   2.683
 5363W        W70623  10.554  39.396  12.180
 5364W        W70624  25.927  27.005  13.388
 5365W        W70625   6.930  41.725  11.610
 5366W        W70626  19.139  17.151   2.314
 5367W        W70627  40.455  16.295   0.004
 5368W        W70628   5.298  43.019   2.925
 5369W        W70629  34.213  29.351   2.741
 5370W        W70630  16.031   3.445   2.988
 5371W        W70631  14.276  11.145  14.759
 5372W        W70632   9.840   3.825   2.932
 5373W        W70633  43.779   1.983  12.087
 5374W        W70634   7.162   2.826   1.533
 5375W        W70635  14.816   4.632  14.057
 5376W        W70636   9.761  32.402   2.237
 5377W        W70637  30.862  33.055  12.366
 5378W        W70638  14.316  16.614  10.746
 5379W        W70639  21.279  17.817   4.555
 5380W        W70640   9.172  37.478  13.384
 5381W        W70641  36.945   5.966   3.820
 5382W        W70642  26.285   2.659   4.556
 5383W        W70643  16.648  32.463   4.279
 5384W        W70644  20.710  11.217   0.825
 5385W        W70645  33.476  28.181  12.947
 5386W        W70646   6.703  40.319  11.357
 5387W        W70647  31.896  20.099  13.311
 5388W        W70648   4.979  15.746   4.571
 5389W        W70649  40.539  33.526   5.045
 5390W        W70650  27.072   2.508   1.817
 5391W        W70651  26.226  29.513  11.174
 5392W        W70652   9.950  30.682   3.246
 5393W        W70653  35.874  34.675   0.305
 5394W        W70654   7.287  27.032  14.905
 5395W        W70655  34.874  36.815   3.221
 5396W        W70656  33.642   5.499   3.846
 5397W        W70657  40.253  36.329   2.775
 5398W        W70658  31.638  13.131  11.506
 5399W        W70659  39.258  14.691  12.936
 5400W        W70660   5.002  42.085   1.394
 5401W        W70661  37.288   9.104  13.933
 5402W        W70662  43.304  30.041   0.513
 5403W        W70663  38.253   3.458  10.441
 5404W        W70664   7.675  35.635   4.368
 5405W        W70665  44.010  32.467  11.634
 5406W        W70666   1.269  29.418   3.696
 5407W        W70667  17.699  19.775  14.995
 5408W        W70668   7.185  31.296   1.680
 5409W        W70669  18.628  33.995  10.670
 5410W        W70670   8.482  42.073  12.469
 5411W        W70671  10.630   1.207   2.065
 5412W        W70672  13.735  10.177  11.665
 5413W        W70673  20.152  44.795   0.030
 5414W        W70674  23.184  34.301   5.661
 5415W        W70675  37.060  32.113   0.104
 5416W        W70676   6.407  18.251   9.900
 5417W        W70677  26.131  20.353   3.466
 5418W        W70678  20.057  27.654  11.116
 5419W        W70679  39.534  41.687   2.758
 5420W        W70680  15.203  36.927  10.751
 5421W        W70681  16.172  19.592  13.943
 5422W        W70682  40.742  22.044   4.625
 5423W        W70683  41.868  14.827  14.293
 5424W        W70684   8.354  14.767   0.874
 5425W        W70685  18.562   8.437   4.125
 5426W        W70686   9.955  29.804  14.005
 5427W        W70687   8.323  16.137   0.277
 5428W        W70688  20.052  14.756   1.461
 5429W        W70689  32.026  32.920  14.077
 5430W        W70690   3.095  29.126  11.182
 5431W        W70691  40.911  12.622  14.400
 5432W        W70692  39.029  22.037  10.988
 5433W        W70693  12.827  16.148  12.219
 5434W        W70694  36.167  33.095  14.458
 5435W        W70695  18.672  19.610   3.081
 5436W        W70696   3.659  16.111   4.297
 5437W        W70697  29.156  26.059   2.382
 5438W        W70698  22.168  19.235   0.847
 5439W        W70699   1.070  38.078   4.267
 5440W        W70700   9.718  17.531  12.369
 5441W        W70701   1.277  36.951   2.158
 5442W        W70702  38.118   8.483   1.435
 5443W        W70703  39.911  38.094   1.597
 5444W        W70704   2.295  29.232   2.589
 5445W        W70705  32.490  31.900  12.317
 5446W        W70706  44.777  38.025  11.534
 5447W        W70707  17.272  42.752  14.914
 5448W        W70708  29.537   9.453  12.122
 5449W        W70709  32.812  25.903  12.516
 5450W        W70710  34.823  41.875   1.029
 5451W        W70711  12.177   5.951   1.272
 5452W        W70712  13.144  10.846  13.995
 5453W        W70713   2.175  31.086   4.076
 5454W        W70714  27.930  39.387   0.502
 5455W        W70715   9.482  36.267  14.035
 5456W        W70716  36.637  37.476   4.034
 5457W        W70717  14.603  40.449   0.337
 5458W        W70718  30.033  29.416   2.299
 5459W        W70719   6.942  38.623   0.317
 5460W        W70720  18.759  42.004   0.437
 5461W        W70721  17.703   1.969  14.455
 5462W        W70722  12.811   6.924  13.869
 5463W        W70723  34.514   1.514  12.052
 5464W        W70724   1.511  20.731  12.867
 5465W        W70725  21.274   3.701  14.949
 5466W        W70726  26.955  14.088   0.963
 5467W        W70727  42.660   8.802  11.360
 5468W        W70728  20.052  34.118  14.857
 5469W        W70729  32.259  38.165  13.076
 5470W        W70730   5.264   8.194  10.727
 5471W        W70731  21.043  43.264  13.965
 5472W        W70732   5.430   0.336  14.998
 5473W        W70733  32.468  17.756   3.351
 5474W        W70734  12.147  20.211   1.187
 5475W        W70735   6.281   8.403  11.843
 5476W        W70736  27.633  32.994   2.749
 5477W        W70737  11.324  29.917   1.914
 5478W        W70738  43.840  22.496  10.943
 5479W        W70739  39.180  39.099   4.598
 5480W        W70740  18.109   9.873  13.970
 5481W        W70741   9.833   3.930  11.739
 5482W        W70742  32.993   4.724   3.201
 5483W        W70743  35.979  26.293  14.216
 5484W        W70744   2.768  18.780   3.329
 5485W        W70745  22.484  21.323  12.054
 5486W        W70746   3.440   0.837  11.015
 5487W        W70747  44.352  27.262   4.207
 5488W        W70748  26.643  29.057   2.086
 5489W        W70749   2.524  24.062   0.758
 5490W        W70750  35.098  14.928  12.500
 5491W        W70751  32.622  22.205   1.886
 5492W        W70752   9.347   4.812   0.339
 5493W        W70753  31.739   5.211  10.454
 5494W        W70754  26.372  29.317   2.609
 5495W        W70755   4.432   3.088   3.680
 5496W        W70756  37.437  16.747  12.512
 5497W        W70757   5.726  22.894   0.772
 5498W        W70758  25.536  39.100  13.989
 5499W        W70759  25.100  13.452  11.157
 5500W        W70760  13.946  17.677   3.101
 5501W        W70761  13.605  24.306   3.706
 5502W        W70762   7.548  13.512   3.197
 5503W        W70763   7.818  13.141  11.727
 5504W        W70764  10.279   6.799  13.328
 5505W        W70765  44.177  32.074   5.142
 5506W        W70766   4.754  31.591   1.467
 5507W        W70767  22.082  37.648   0.833
 5508W        W70768  22.655  41.728   2.562
 5509W        W70769  34.582  20.086   0.867
 5510W        W70770  12.829  15.651  10.388
 5511W        W70771  35.136  41.303  13.570
 5512W        W70772  42.096  43.360  13.721
 5513W        W70773   9.795   6.940   0.133
 5514W        W70774   1.667  40.971  10.674
 5515W        W70775  26.052  44.840  12.612
 5516W        W70776  11.801  31.414   4.449
 5517W        W70777   1.459  32.969  12.232
 5518W        W70778   8.115  16.834  13.366
 5519W        W70779  20.316  33.617   0.868
 5520W        W70780  13.250  20.663  13.431
 5521W        W70781   6.830  11.291   3.077
 5522W        W70782  10.592  20.065  13.512
 5523W        W70783  20.720  18.769  12.571
 5524W        W70784  10.636  21.281  10.188
 5525W        W70785   3.856   6.851   1.877
 5526W        W70786  21.385  35.195   0.299
 5527W        W70787  25.737  37.903  12.456
 5528W        W70788  18.186  41.044  11.717
 5529W        W70789  37.860  14.171  10.970
 5530W        W70790   0.770  22.502   0.357
 5531W        W70791  37.382  18.610  11.504
 5532W        W70792  23.162  19.039  12.018
 5533W        W70793   1.907   0.291   4.170
 5534W        W70794  29.092  17.425  12.924
 5535W        W70795  25.168  43.601   3.408
 5536W        W70796   6.718  24.449  12.045
 5537W        W70797  20.540   8.462   4.246
 5538W        W70798   8.233   4.682  11.568
 5539W        W70799  14.932   1.022  13.473
 5540W        W70800  34.590  26.468   4.568
 5541W        W70801  38.924  25.264  11.086
 5542W        W70802  11.780  11.598  10.104
 5543W        W70803  13.694  14.111   2.797
 5544W        W70804  15.449  31.798   3.661
 5545W        W70805  10.328   2.740  10.564
 5546W        W70806  15.104  24.136  13.969
 5547W        W70807   7.216  15.843   0.939
 5548W        W70808  33.832  10.306  14.307
 5549W        W70809   8.321  10.058   0.175
 5550W        W70810   1.326  40.058   3.774
 5551W        W70811  38.695  39.158   4.754
 5552W        W70812   6.296  12.838  13.947
 5553W        W70813  17.716   7.442   3.808
 5554W        W70814   3.424   0.717   4.836
 5555W        W70815  17.787  15.198   3.449
 5556W        W70816  44.007  34.447   0.964
 5557W        W70817  10.299  16.777  11.964
 5558W        W70818  11.123   2.471   0.993
 5559W        W70819  31.628  21.002   0.878
 5560W        W70820  18.175  33.551  14.700
 5561W        W70821  19.829  43.456   3.265
 5562W        W70822   8.229   6.844   4.149
 5563W        W70823  19.650  18.655  10.178
 5564W        W70824  14.386  11.841  10.628
 5565W        W70825   9.132  37.946  14.115
 5566W        W70826  12.288  14.975  13.824
 5567W        W70827  18.639  41.922   4.088
 5568W        W70828   2.739  22.455  12.086
 5569W        W70829  37.595   6.292   0.870
 5570W        W70830  22.601  42.288   2.710
 5571W        W70831  26.488   4.465  11.176
 5572W        W70832  26.450  36.066   2.228
 5573W        W70833  33.925  38.017  11.357
 5574W        W70834  42.838   3.280   1.784
 5575W        W70835  44.936  10.308   0.480
 5576W        W70836  13.361  32.866   2.169
 5577W        W70837  19.365   0.255  14.294
 5578W        W70838  34.068  42.137  14.786
 5579W        W70839  32.175  21.962   1.810
 5580W        W70840  13.836  41.505  12.552
 5581W        W70841  43.376  28.048   1.456
 5582W        W70842  32.873  23.592   4.166
 5583W        W70843  35.157   4.450   4.564
 5584W        W70844  42.823  27.602   1.773
 5585W        W70845  23.072  42.099   2.747
 5586W        W70846  34.600   4.759  11.529
 5587W        W70847   3.371  10.480  12.022
 5588W        W70848  33.089  23.393   2.893
 5589W        W70849   1.146  32.005   5.179
 5590W        W70850   3.772  17.533   3.712
 5591W        W70851  33.135  17.536   2.000
 5592W        W70852  36.469   1.307  12.974
 5593W        W70853  18.551   6.748   4.235
 5594W        W70854  13.137   0.873   3.648
 5595W        W70855  38.048  29.531   2.398
 5596W        W70856  21.203  18.088   4.116
 5597W        W70857  23.808   0.645  12.074
 5598W        W70858   1.824  24.433  10.347
 5599W        W70859  16.739  38.968  12.870
 5600W        W70860  26.532  24.962   0.524
 5601W        W70861  32.934  22.608   1.942
 5602W        W70862  34.955  11.227  11.572
 5603W        W70863   3.060  40.052   0.485
 5604W        W70864  12.391  19.585  11.952
 5605W        W70865  32.942   1.241   4.705
 5606W        W70866  19.632  42.338  12.415
 5607W        W70867  37.823   8.331  10.760
 5608W        W70868   1.497  44.366  10.175
 5609W        W70869  28.645  36.365  14.786
 5610W        W70870   5.303  37.628  11.944
 5611W        W70871   8.906  13.368   3.615
 5612W        W70872  33.024   1.675   0.499
 5613W        W70873   6.921   9.329  11.565
 5614W        W70874  41.862  36.948   4.992
 5615W        W70875  24.126  39.225  13.253
 5616W        W70876   8.287  25.505  14.884
 5617W        W70877  22.823   1.272  12.547
 5618W        W70878  16.005  13.011   0.021
 5619W        W70879  17.216  10.704  10.597
 5620W        W70880  26.249   5.892  10.382
 5621W        W70881   9.882  40.487   2.329
 5622W        W70882  16.650  30.488  13.264
 5623W        W70883  20.795  32.648  11.462
 5624W        W70884  37.566  25.164   0.964
 5625W        W70885  42.286  30.005   1.809
 5626W        W70886  13.955  18.130  14.167
 5627W        W70887   8.682  20.198  10.507
 5628W        W70888  10.636  36.476   2.230
 5629W        W70889   7.155  18.330  11.665
 5630W        W70890  32.392  41.046  14.593
 5631W        W70891  13.642  13.168   2.424
 5632W        W70892  14.736  21.460   0.006
 5633W        W70893   4.342  36.911   0.209
 5634W        W70894  32.643  36.527  13.079
 5635W        W70895  31.516  38.522  14.745
 5636W        W70896  24.163  25.110  13.371
 5637W        W70897  10.279  12.711   4.711
 5638W        W70898  21.703  26.207  13.182
 5639W        W70899  29.165  26.362   4.629
 5640W        W70900  30.453  36.019   1.236
 5641W        W70901  27.076  10.696   1.829
 5642W        W70902   9.221  34.435  13.270
 5643W        W70903  35.469   6.385  12.975
 5644W        W70904   2.413  13.268   2.120
 5645W        W70905  33.095  20.603  12.871
 5646W        W70906  15.037   3.266  14.984
 5647W        W70907  13.221  25.906   4.098
 5648W        W70908  32.075  39.331  13.543
 5649W        W70909   0.195  12.420   1.482
 5650W        W70910  42.381  27.579  11.572
 5651W        W70911  31.002   5.392   0.621
 5652W        W70912   2.102  40.881   4.658
 5653W        W70913   8.243  23.742  11.619
 5654W        W70914   2.469  14.726   2.632
 5655W        W70915  43.803   1.812   1.741
 5656W        W70916  33.544  32.120  10.882
 5657W        W70917  19.671  27.919   1.252
 5658W        W70918  41.911   3.032  14.150
 5659W        W70919  40.029  22.315   4.210
 5660W        W70920  12.347  20.532  13.400
 5661W        W70921  34.028  17.120  14.832
 5662W        W70922  19.863   2.014   1.685
 5663W        W70923  35.375  23.122   3.053
 5664W        W70924  36.870  42.836  14.337
 5665W        W70925  23.523   9.212  11.972
 5666W        W70926  16.245  42.850  14.931
 5667W        W70927  15.066  14.884   3.064
 5668W        W70928  40.949  12.274  10.756
 5669W        W70929  22.117   6.873   0.996
 5670W        W70930   0.768  21.752   1.934
 5671W        W70931   8.271   3.661  13.449
 5672W        W70932  28.258  28.109  12.938
 5673W        W70933  40.282  15.493  13.513
 5674W        W70934  15.414  27.747  12.442
 5675W        W70935  40.225  17.791  12.592
 5676W        W70936  38.359  15.623  12.356
 5677W        W70937  10.863   6.368   9.943
 5678W        W70938   4.793  30.333   2.435
 5679W        W70939  19.686  26.715  13.020
 5680W        W70940  20.284  43.704  13.313
 5681W        W70941  25.448   5.980   2.215
 5682W        W70942  13.615   5.670   0.321
 5683W        W70943  32.434  24.297  10.777
 5684W        W70944  31.169  33.506   3.264
 5685W        W70945  40.408  20.212   3.349
 5686W        W70946  44.516  44.511   3.677
 5687W        W70947  24.584  16.058  11.061
 5688W        W70948  25.690  43.966   0.274
 5689W        W70949  14.142  12.248  13.368
 5690W        W70950  40.776   0.002   0.453
 5691W        W70951  12.814  22.051   2.621
 5692W        W70952  11.376  41.806  12.661
 5693W        W70953  44.174   0.077   3.670
 5694W        W70954   5.961  10.440   4.315
 5695W        W70955  23.645   4.285  14.960
 5696W        W70956   2.735  40.549   3.062
 5697W        W70957  38.429  18.386  14.726
 5698W        W70958  37.344  17.352   1.948
 5699W        W70959  19.298  25.574  11.030
 5700W        W70960   4.747  27.044  14.514
 5701W        W70961   6.988   6.203  12.461
 5702W        W70962  39.564   5.313  12.653
 5703W        W70963  37.874  10.857  10.612
 5704W        W70964  26.797   8.265  12.399
 5705W        W70965  18.476  39.808  11.984
 5706W        W70966  13.162  17.521   4.159
 5707W        W70967  14.201  23.592  14.721
 5708W        W70968  10.470   6.236  12.227
 5709W        W70969  29.978  40.398  13.777
 5710W        W70970  25.118  16.625   3.572
 5711W        W70971  34.529   8.365  13.369
 5712W        W70972   3.891  44.243  12.118
 5713W        W70973   9.794   4.389  12.029
 5714W        W70974  11.833  24.364  11.396
 5715W        W70975  23.690   3.066  11.690
 5716W        W70976   7.409  30.122   4.296
 5717W        W70977  18.969  17.121   1.809
 5718W        W70978  37.435  26.712  11.921
 5719W        W70979  20.039  20.200  12.952
 5720W        W70980   5.277  44.704  14.455
 5721W        W70981  39.310  25.139  12.991
 5722W        W70982  18.095   4.006  14.794
 5723W        W70983  21.341  18.078   1.166
 5724W        W70984  12.916  41.132   0.900
 5725W        W70985  15.822  35.845   2.666
 5726W        W70986  33.994  40.030  11.061
 5727W        W70987  42.072  11.162  12.489
 5728W        W70988  28.319  40.833   0.469
 5729W        W70989   6.390  12.683  13.463
 5730W        W70990  23.694  26.442  12.427
 5731W        W70991  29.176  30.703   5.042
 5732W        W70992  43.709   1.650  13.889
 5733W        W70993  29.169  30.218   2.322
 5734W        W70994  23.481   4.859  12.565
 5735W        W70995  10.265  23.775   3.773
 5736W        W70996  10.860  44.310   0.185
 5737W        W70997   1.879  44.643  14.888
 5738W        W70998  37.401  26.678  13.111
 5739W        W70999  19.775  41.871   3.236
 5740W        W71000   3.471  23.125   1.587
 5741W        W71001  24.692  41.004  14.557
 5742W        W71002  17.101   8.845  10.658
 5743W        W71003   3.956  40.836   0.075
 5744W        W71004   6.250  30.225  12.404
 5745W        W71005   5.812  39.319  10.461
 5746W        W71006   2.328  26.768   5.798
 5747W        W71007  32.368  36.188  14.846
 5748W        W71008  44.847  38.149   0.309
 5749W        W71009  19.816  32.686   2.622
 5750W        W71010  29.576  15.419  14.398
 5751W        W71011  31.654   1.384   3.254
 5752W        W71012  22.120   9.665  13.116
 5753W        W71013  17.701  25.206   4.580
 5754W        W71014  35.939  30.189  11.496
 5755W        W71015  30.003  40.400  11.916
 5756W        W71016  40.212  37.378   2.455
 5757W        W71017  21.574  40.991  12.092
 5758W        W71018  33.073  10.802   3.414
 5759W        W71019  39.002   8.232   4.640
 5760W        W71020  32.486  38.630  13.041
 5761W        W71021   2.136  43.479   3.296
 5762W        W71022   5.331  32.105  13.465
 5763W        W71023  14.826  24.086   3.710
 5764W        W71024  31.265  30.324  12.431
 5765W        W71025   4.914   7.258   3.127
 5766W        W71026  11.524  20.293  11.550
 5767W        W71027  14.515  42.374  14.381
 5768W        W71028  36.658  35.630  12.667
 5769W        W71029   0.324  22.655  11.591
 5770W        W71030  37.241   7.386   2.228
 5771W        W71031   4.924   9.653  14.987
 5772W        W71032  36.864   7.346  13.321
 5773W        W71033  35.298  21.285  14.951
 5774W        W71034  13.297  27.488   2.659
 5775W        W71035  22.456  32.135   2.001
 5776W        W71036  22.478  13.099  13.086
 5777W        W71037   4.579  35.299  12.263
 5778W        W71038  19.284   9.798  12.105
 5779W        W71039   0.574  11.295   2.738
 5780W        W71040   5.790   4.707  14.338
 5781W        W71041   8.044  39.083   4.372
 5782W        W71042  21.123  44.459  14.226
 5783W        W71043  13.311   9.844  13.120
 5784W        W71044   7.826   4.380   3.159
 5785W        W71045  39.460  30.517   5.040
 5786W        W71046  17.806  24.131   4.597
 5787W        W71047  41.624  16.842  12.045
 5788W        W71048  44.005  17.263  11.969
 5789W        W71049  25.607   5.719   4.098
 5790W        W71050  30.932  34.539  11.552
 5791W        W71051  42.071  27.327  12.152
 5792W        W71052  25.590  22.702  12.954
 5793W        W71053  42.875  40.414  10.498
 5794W        W71054  19.556  13.671   1.911
 5795W        W71055  26.930  32.547   0.534
 5796W        W71056  33.077  27.580  14.313
 5797W        W71057  29.697  12.377   1.709
 5798W        W71058  19.541  17.763  11.600
 5799W        W71059  34.058  21.978  11.563
 5800W        W71060  27.527   7.870  11.552
 5801W        W71061  10.833  24.554   4.374
 5802W        W71062  22.182  43.037   4.261
 5803W        W71063  20.307   8.641  12.990
 5804W        W71064   2.957  16.313  11.707
 5805W        W71065  25.225  28.386  14.775
 5806W        W71066  28.982  20.099  13.822
 5807W        W71067  15.123  29.236  11.121
 5808W        W71068  11.874   4.692   1.398
 5809W        W71069  36.937  30.186   3.375
 5810W        W71070   5.981  11.183   3.667
 5811W        W71071  37.475   3.096   5.550
 5812W        W71072  17.663  41.225   3.362
 5813W        W71073   0.793  41.379  13.655
 5814W        W71074  11.506  26.914   1.780
 5815W        W71075   5.957   9.297   2.764
 5816W        W71076  28.693  33.879   2.060
 5817W        W71077  44.783   1.287   3.684
 5818W        W71078  33.372   8.852  14.997
 5819W        W71079   0.910   8.391   1.326
 5820W        W71080  27.569   4.985  14.834
 5821W        W71081  36.789  30.595  14.881
 5822W        W71082   0.671   7.636   0.988
 5823W        W71083  43.159  10.429  11.530
 5824W        W71084  24.139   2.328  11.554
 5825W        W71085  26.543  28.940  10.607
 5826W        W71086  44.231  41.216  12.113
 5827W        W71087  27.483  11.664   1.421
 5828W        W71088  11.585  21.578  11.605
 5829W        W71089  42.778  26.364   4.050
 5830W        W71090  17.785  27.836   4.278
 5831W        W71091  24.630  36.930   2.169
 5832W        W71092  17.887  22.534   4.075
 5833W        W71093  29.613   1.275  14.870
 5834W        W71094   8.963   6.847  13.891
 5835W        W71095  21.540  14.198   3.788
 5836W        W71096  36.817   5.817  13.899
 5837W        W71097  43.786   4.561  13.897
 5838W        W71098  41.862  32.819   0.859
 5839W        W71099  23.898  25.175   2.387
 5840W        W71100  23.516   5.609   0.445
 5841W        W71101  43.073   4.458  11.678
 5842W        W71102  36.828  39.014   0.275
 5843W        W71103  25.347  33.897  13.946
 5844W        W71104   1.712  19.236  12.031
 5845W        W71105  19.309  42.343  12.828
 5846W        W71106  16.498  41.907   3.828
 5847W        W71107  13.686  18.862   5.018
 5848W        W71108  21.487   4.378   3.157
 5849W        W71109  42.809   0.842  12.553
 5850W        W71110  36.894   1.437  12.086
 5851W        W71111   2.720  44.524  14.003
 5852W        W71112  12.714  26.009  11.190
 5853W        W71113  18.041   8.767  10.724
 5854W        W71114  15.786  37.482   1.879
 5855W        W71115  16.231  37.543   2.156
 5856W        W71116  36.401   7.640  10.653
 5857W        W71117  31.910   0.282   2.748
 5858W        W71118  26.561  36.026  10.964
 5859W        W71119  24.239  16.220  11.820
 5860W        W71120  29.663  21.460  11.097
 5861W        W71121  41.284   7.771   3.706
 5862W        W71122  27.704  18.651  14.839
 5863W        W71123   2.439  10.836  14.360
 5864W        W71124  18.510  31.054   3.334
 5865W        W71125  28.075  27.538   1.769
 5866W        W71126  27.476   5.917  11.335
 5867W        W71127  44.877  42.474  14.781
 5868W        W71128   7.894  44.544   1.170
 5869W        W71129  43.479   6.396   2.161
 5870W        W71130  24.616  36.544  11.079
 5871W        W71131  25.004  20.267   3.879
 5872W        W71132   2.011  20.913   4.138
 5873W        W71133   6.883   6.282   3.489
 5874W        W71134   5.136  34.928   1.857
 5875W        W71135  34.799  34.358   2.596
 5876W        W71136  24.865  21.592  12.138
 5877W        W71137  35.950  39.885  14.491
 5878W        W71138   4.898  22.767   3.155
 5879W        W71139   1.867  26.977  11.644
 5880W        W71140  12.422   0.472  10.636
 5881W        W71141  31.914  29.554  10.735
 5882W        W71142   3.507  39.002   1.171
 5883W        W71143   5.743  24.044  12.463
 5884W        W71144  27.553  39.747   0.387
 5885W        W71145  23.737  10.626   2.361
 5886W        W71146  35.545   7.930   4.534
 5887W        W71147  40.468   9.216  11.152
 5888W        W71148  14.115  10.165   2.846
 5889W        W71149  28.452  14.796   2.969
 5890W        W71150  22.422  21.071  11.608
 5891W        W71151  14.121  20.136  12.687
 5892W        W71152   8.235  12.821  13.598
 5893W        W71153  37.228  33.528   2.270
 5894W        W71154  20.519  12.760   1.816
 5895W        W71155  24.750   5.952   3.468
 5896W        W71156  15.404  11.976  13.936
 5897W        W71157   0.766  36.744  14.401
 5898W        W71158  14.566  16.691   0.490
 5899W        W71159   3.559  10.324   4.185
 5900W        W71160  36.276  28.953   3.753
 5901W        W71161  27.818  43.088   3.874
 5902W        W71162  43.027  33.063   3.307
 5903W        W71163  23.395  12.180  13.526
 5904W        W71164  37.435  39.438   1.504
 5905W        W71165  35.295  38.522  13.360
 5906W        W71166  13.958  11.377   4.156
 5907W        W71167  41.182  44.234  11.494
 5908W        W71168  31.891   2.468   1.508
 5909W        W71169  42.441  32.612   2.618
 5910W        W71170  36.466  31.090  14.762
 5911W        W71171   8.688  39.299  13.384
 5912W        W71172  39.138  23.881   5.051
 5913W        W71173  29.257   9.007  12.051
 5914W        W71174  36.522   0.021   5.411
 5915W        W71175  15.485  17.192  11.015
 5916W        W71176   1.701  41.973   0.769
 5917W        W71177  15.613  32.565  12.002
 5918W        W71178  38.014   0.034   2.331
 5919W        W71179  28.998  44.353   4.096
 5920W        W71180  43.887  37.510  14.823
 5921W        W71181  17.603  15.775  13.013
 5922W        W71182  12.118  22.758   4.221
 5923W        W71183   7.738  26.751   0.938
 5924W        W71184  22.497  44.805  12.297
 5925W        W71185  44.891   1.456   0.647
 5926W        W71186   7.795   6.792   1.444
 5927W        W71187  14.083  16.463  12.040
 5928W        W71188  34.447  24.322  10.714
 5929W        W71189  25.917  13.844   3.312
 5930W        W71190  14.272  13.125   1.419
 5931W        W71191  18.168   4.434   4.086
 5932W        W71192  27.542  17.514  13.366
 5933W        W71193   8.208  39.379   3.975
 5934W        W71194  17.282  26.444   2.462
 5935W        W71195  24.744   7.239   3.619
 5936W        W71196  24.749  20.234  10.415
 5937W        W71197  42.795  44.750  10.324
 5938W        W71198  39.980   3.314  12.309
 5939W        W71199  35.482  41.346   2.200
 5940W        W71200  25.669  31.956   3.073
 5941W        W71201  39.478  21.161  13.866
 5942W        W71202  25.654  10.409   2.217
 5943W        W71203  23.465  32.979   5.103
 5944W        W71204  26.084  10.401  14.929
 5945W        W71205  41.597  12.342   1.657
 5946W        W71206   4.748  26.108  11.151
 5947W        W71207  16.721  43.996   0.934
 5948W        W71208  44.973  41.191  13.316
 5949W        W71209  38.732   9.541  13.904
 5950W        W71210  38.968  21.325  13.846
 5951W        W71211  31.395  20.569   2.403
 5952W        W71212  32.076  31.899  13.064
 5953W        W71213  36.794  12.108   2.254
 5954W        W71214  31.980   7.619   4.225
 5955W        W71215  21.383  19.091  13.257
 5956W        W71216  20.448   2.845   3.425
 5957W        W71217  25.347  34.260  11.663
 5958W        W71218  25.255  32.608   1.823
 5959W        W71219  11.183  26.534   2.719
 5960W        W71220  13.855  28.396   2.461
 5961W        W71221  15.612  18.361   1.176
 5962W        W71222   0.695  37.285  12.936
 5963W        W71223  18.275  17.345  14.712
 5964W        W71224   7.378   7.398   4.157
 5965W        W71225  37.455  38.528  10.621
 5966W        W71226   9.638  18.586   4.607
 5967W        W71227   3.244  22.317   0.509
 5968W        W71228   3.201  12.417  10.981
 5969W        W71229  29.601  40.034  13.669
 5970W        W71230  17.079  36.815  13.321
 5971W        W71231  42.978  21.113   3.073
 5972W        W71232  34.122  25.718   3.584
 5973W        W71233  34.822  25.220   0.838
 5974W        W71234  22.504   3.795  10.082
 5975W        W71235  19.572  40.756   2.395
 5976W        W71236   5.127  38.670   2.192
 5977W        W71237  33.978  22.484  12.487
 5978W        W71238  17.199  13.260  10.713
 5979W        W71239   8.790   5.327   1.945
 5980W        W71240  13.880  18.878  11.169
 5981W        W71241  44.226   9.146  12.009
 5982W        W71242  10.797  19.712   2.818
 5983W        W71243  38.841  15.413  14.669
 5984W        W71244  25.574  38.512   3.999
 5985W        W71245  13.565  23.760   2.238
 5986W        W71246  27.922   6.287  12.059
 5987W        W71247   5.135   7.181  12.940
 5988W        W71248   2.367   8.812   1.241
 5989W        W71249  12.767   1.830   1.916
 5990W        W71250  34.362  15.067   3.845
 5991W        W71251   4.884   3.928   3.126
 5992W        W71252  21.720  28.433  11.122
 5993W        W71253  41.008  15.424  13.106
 5994W        W71254  15.403  37.826  11.485
 5995W        W71255   6.403  18.202  13.487
 5996W        W71256  13.892  36.627  11.511
 5997W        W71257  22.746   6.870  14.407
 5998W        W71258  12.250  43.493   3.599
 5999W        W71259  39.875  12.949  12.958
 6000W        W71260  41.282  10.064   3.300
 6001W        W71261  37.412  44.553   0.358
 6002W        W71262  33.123  32.381   3.302
 6003W        W71263  20.033  26.045  11.030
 6004W        W71264  14.296   3.710  12.891
 6005W        W71265  16.626  44.742   3.198
 6006W        W71266   3.814  39.352  10.716
 6007W        W71267   7.814  43.414  11.585
 6008W        W71268  36.256   7.133  10.556
 6009W        W71269  11.576  44.299   0.682
 6010W        W71270   3.918  33.133   1.826
 6011W        W71271  41.758  41.263   2.651
 6012W        W71272  28.899  35.413  11.518
 6013W        W71273  38.875   1.969  13.096
 6014W        W71274   2.920  37.863  11.645
 6015W        W71275   4.989   1.470  11.410
 6016W        W71276  21.055  34.388  11.911
 6017W        W71277  33.599  11.320   4.056
 6018W        W71278   2.622  11.506  12.942
 6019W        W71279  41.812   2.534   3.913
 6020W        W71280   9.050  32.055  11.107
 6021W        W71281   3.789  41.934  11.734
 6022W        W71282  21.682  13.330  12.120
 6023W        W71283  41.145   9.363   4.752
 6024W        W71284  16.598   9.415   1.755
 6025W        W71285  25.356  40.313   0.241
 6026W        W71286  38.081  13.738  11.195
 6027W        W71287  34.923  42.359   1.279
 6028W        W71288  30.456  32.166   0.906
 6029W        W71289  20.312  39.246  13.300
 6030W        W71290  35.833  33.149   2.831
 6031W        W71291  26.168  24.089   5.078
 6032W        W71292  40.441  44.018   1.256
 6033W        W71293  30.468  32.408  11.214
 6034W        W71294  31.821  18.524   0.986
 6035W        W71295   5.694  13.249   0.153
 6036W        W71296  40.752  36.864  11.115
 6037W        W71297  26.141  25.041   4.192
 6038W        W71298   9.458   2.802   1.903
 6039W        W71299  14.043  32.579  12.202
 6040W        W71300  25.163   0.207   2.273
 6041W        W71301  39.386  38.590   0.339
 6042W        W71302   0.278  44.803   4.354
 6043W        W71303  11.958  27.588  11.518
 6044W        W71304  14.594  11.762   2.081
 6045W        W71305  17.663  32.081   3.357
 6046W        W71306   4.914  12.721   1.019
 6047W        W71307  29.884  15.059   3.916
 6048W        W71308   4.254  34.586  13.225
 6049W        W71309  22.535   8.168   4.576
 6050W        W71310  23.282  23.490  14.782
 6051W        W71311  25.930  25.021  10.987
 6052W        W71312  40.148  36.277  13.999
 6053W        W71313  28.157  18.413  14.917
 6054W        W71314   5.233  24.333   0.896
 6055W        W71315  21.719  42.218   0.968
 6056W        W71316  31.930  18.066  11.992
 6057W        W71317  37.806   8.862   2.720
 6058W        W71318  38.886   3.397  13.408
 6059W        W71319   8.501  23.965   3.212
 6060W        W71320  14.276   4.420  10.907
 6061W        W71321  14.056  34.119   4.881
 6062W        W71322  39.983  16.493   0.060
 6063W        W71323  37.838  26.211   3.872
 6064W        W71324  12.408  24.552  10.728
 6065W        W71325   2.898   7.797   0.389
 6066W        W71326  32.190  36.279  12.915
 6067W        W71327  17.271   0.389   4.647
 6068W        W71328   9.720  17.375   3.807
 6069W        W71329   8.126  37.851   0.407
 6070W        W71330  11.770  14.124  13.347
 6071W        W71331  34.309  16.247   0.212
 6072W        W71332  36.941   4.725  12.809
 6073W        W71333  36.574  20.857   1.723
 6074W        W71334  40.016  38.834   2.428
 6075W        W71335  16.976  15.782   0.808
 6076W        W71336   4.684  40.963   2.259
 6077W        W71337  32.015  37.986  12.163
 6078W        W71338  12.149  26.555  10.783
 6079W        W71339  20.710   0.544   2.827
 6080W        W71340  10.852   2.151   4.092
 6081W        W71341  15.059  33.626   4.076
 6082W        W71342  16.892  16.261  13.086
 6083W        W71343  17.424  23.464  13.369
 6084W        W71344  37.811  34.082   0.397
 6085W        W71345  43.763  11.053  12.784
 6086W        W71346  39.781  24.894  13.715
 6087W        W71347  20.107  14.540   1.960
 6088W        W71348  11.289  42.285  11.220
 6089W        W71349  42.013   9.211  14.902
 6090W        W71350  17.776  22.249  14.096
 6091W        W71351   6.176   8.751  13.883
 6092W        W71352  13.124  24.587   2.660
 6093W        W71353  35.126  37.405  13.623
 6094W        W71354   6.602  21.240   2.035
 6095W        W71355  38.334  40.338  14.893
 6096W        W71356   5.222  42.801   4.679
 6097W        W71357  29.028  39.988   0.317
 6098W        W71358  41.489  14.388  12.371
 6099W        W71359  16.576  23.155   1.388
 6100W        W71360  38.493  31.412   2.837
 6101W        W71361  29.894   1.363   0.396
 6102W        W71362   8.374  30.317   3.252
 6103W        W71363  18.845  34.174  14.920
 6104W        W71364  10.897  17.058  12.772
 6105W        W71365  19.994  10.788  13.423
 6106W        W71366   7.745  36.989  14.044
 6107W        W71367  28.002  35.460  11.057
 6108W        W71368  22.219  41.965   2.771
 6109W        W71369  29.393  18.857  12.908
 6110W        W71370   9.236  30.765   1.654
 6111W        W71371  28.039   2.490   0.404
 6112W        W71372   6.534  14.001  10.364
 6113W        W71373  17.256  13.284   1.353
 6114W        W71374  42.295  32.559   0.799
 6115W        W71375  13.772  33.943   2.633
 6116W        W71376  35.564  20.686   4.525
 6117W        W71377  34.952  10.973  11.099
 6118W        W71378  41.988  25.212  13.397
 6119W        W71379  15.371  25.490   0.319
 6120W        W71380   3.837  14.832  13.995
 6121W        W71381  42.321  34.868   3.391
 6122W        W71382  12.855  21.477   4.350
 6123W        W71383  28.780  19.742  10.536
 6124W        W71384   8.649   6.105   1.295
 6125W        W71385   4.729   1.909   3.244
 6126W        W71386  41.945  17.578  13.781
 6127W        W71387  39.487  14.747  14.480
 6128W        W71388   2.953  42.935  13.020
 6129W        W71389  27.827  32.784   0.061
 6130W        W71390   4.174  29.811   3.579
 6131W        W71391  44.782   1.753  12.966
 6132W        W71392  16.974  21.226  12.002
 6133W        W71393  25.658   0.934   2.288
 6134W        W71394  29.977  31.615  11.395
 6135W        W71395  23.454  32.618  10.678
 6136W        W71396  12.496   8.376   0.746
 6137W        W71397   8.405  12.783   2.330
 6138W        W71398  32.940  14.620  12.118
 6139W        W71399  31.894   3.517  12.624
 6140W        W71400  15.705  24.867   1.321
 6141W        W71401  27.540  22.596  13.209
 6142W        W71402  20.616   4.338  10.662
 6143W        W71403  21.056  16.254  10.625
 6144W        W71404   9.293  17.708  11.022
 6145W        W71405   8.162  37.743  11.605
 6146W        W71406  26.496  44.216   0.209
 6147W        W71407  31.442  19.833  11.973
 6148W        W71408  13.578  25.781  14.424
 6149W        W71409  28.891  15.794   1.254
 6150W        W71410   9.171  38.572   2.124
 6151W        W71411  34.253  42.447  11.145
 6152W        W71412  37.491  27.222   0.827
 6153W        W71413  27.909  33.724   1.272
 6154W        W71414  41.223  26.495  11.098
 6155W        W71415  10.650  14.198   3.658
 6156W        W71416  26.121   4.220   4.504
 6157W        W71417   4.620  28.808  14.873
 6158W        W71418  34.569  44.996  14.461
 6159W        W71419  34.760  10.512   0.144
 6160W        W71420  22.289  28.837   4.251
 6161W        W71421  15.372  22.404   2.393
 6162W        W71422  37.338  33.718   0.957
 6163W        W71423  40.413  38.795   1.789
 6164W        W71424  29.523  33.296  11.497
 6165W        W71425   4.210   6.226   2.460
 6166W        W71426  23.429  43.285  14.123
 6167W        W71427  23.211   8.308  14.332
 6168W        W71428   5.444   7.475   2.186
 6169W        W71429   6.299  16.289   4.250
 6170W        W71430  22.133  21.625  14.319
 6171W        W71431  28.151  14.730  12.554
 6172W        W71432  34.100  30.566   2.255
 6173W        W71433  11.159  33.620  14.985
 6174W        W71434  26.158  31.379   4.519
 6175W        W71435   1.658  26.483  12.524
 6176W        W71436  19.765  39.269   2.246
 6177W        W71437  12.201  12.917   0.317
 6178W        W71438  20.079  27.197   4.624
 6179W        W71439  27.352   0.377   1.347
 6180W        W71440  15.756  23.230   2.086
 6181W        W71441  19.600  13.784   3.904
 6182W        W71442  26.102  19.074   0.897
 6183W        W71443  30.536  28.002  14.066
 6184W        W71444  26.429  18.515   3.014
 6185W        W71445  26.747   1.614   2.649
 6186W        W71446   7.471  33.462  12.447
 6187W        W71447  18.596  35.401  13.183
 6188W        W71448  31.872  41.771  14.773
 6189W        W71449  40.990   5.000  13.979
 6190W        W71450  35.934  22.710  14.388
 6191W        W71451  34.860  16.100  11.877
 6192W        W71452  26.248  26.929   0.152
 6193W        W71453  36.338   0.936   1.369
 6194W        W71454  33.374  32.944   4.314
 6195W        W71455  37.522  14.203   3.319
 6196W        W71456  39.394  44.248   1.919
 6197W        W71457  35.355  23.671   3.374
 6198W        W71458  31.391   0.790  11.221
 6199W        W71459  23.169  33.802   2.515
 6200W        W71460  27.915  26.984  14.545
 6201W        W71461  41.027   6.826   1.317
 6202W        W71462  34.938   3.494   3.124
 6203W        W71463  19.169  23.791  12.828
 6204W        W71464  22.890  21.171  11.466
 6205W        W71465  33.835   1.868  11.516
 6206W        W71466  36.779  35.514   4.164
 6207W        W71467   5.208  13.521  12.524
 6208W        W71468  21.747  14.677   2.996
 6209W        W71469  36.522  34.528  13.946
 6210W        W71470  13.902  23.036  11.528
 6211W        W71471  37.246   3.743  14.062
 6212W        W71472   2.514  43.024   0.397
 6213W        W71473   9.199  34.522  11.730
 6214W        W71474  29.826  26.493   9.802
 6215W        W71475  44.325  22.429   3.358
 6216W        W71476  19.902  25.263  10.295
 6217W        W71477  40.374  15.900   0.325
 6218W        W71478  15.162  22.820  13.070
 6219W        W71479  29.108  42.284  10.724
 6220W        W71480  24.545  13.519   3.038
 6221W        W71481  34.240  44.352  12.891
 6222W        W71482  18.990  38.382   1.771
 6223W        W71483   5.315  15.779  12.490
 6224W        W71484  20.714  20.185  13.827
 6225W        W71485   0.432  30.113  14.302
 6226W        W71486  27.685  20.787  13.913
 6227W        W71487  31.068  44.471   1.306
 6228W        W71488  19.856  39.460   4.595
 6229W        W71489  30.439   5.030  14.345
 6230W        W71490  31.766  36.432   4.597
 6231W        W71491  22.991  41.499   0.763
 6232W        W71492  12.608  11.132  12.016
 6233W        W71493  35.599  40.791  10.555
 6234W        W71494  37.383   9.911  10.591
 6235W        W71495  25.037  16.541   9.767
 6236W        W71496  42.450  18.520   2.119
 6237W        W71497  44.913  20.013   0.797
 6238W        W71498  42.843  22.573  14.501
 6239W        W71499  25.093  12.677   3.710
 6240W        W71500   0.351   3.199   4.110
 6241W        W71501   3.287   3.000   2.850
 6242W        W71502  33.267  16.659  14.685
 6243W        W71503  16.154   6.965  12.849
 6244W        W71504  15.216   2.590  11.412
 6245W        W71505  14.454   2.323   1.285
 6246W        W71506  44.032  38.012  14.885
 6247W        W71507  23.237   5.192  14.761
 6248W        W71508  22.617   5.212  12.953
 6249W        W71509  10.272   2.230  12.572
 6250W        W71510   1.258  35.158   4.801
 6251W        W71511   2.933   4.484  10.713
 6252W        W71512  33.062  33.161  11.900
 6253W        W71513  11.007   2.078   1.421
 6254W        W71514   3.821  22.675  13.344
 6255W        W71515  21.945  35.848  13.168
 6256W        W71516   0.477  16.943  11.916
 6257W        W71517  23.464  41.832  14.506
 6258W        W71518  30.937  29.179   3.631
 6259W        W71519   2.362   6.167   2.385
 6260W        W71520   7.216   4.900   1.433
 6261W        W71521   9.168  27.118   0.806
 6262W        W71522  33.361  11.676  13.077
 6263W        W71523   1.937  20.358   1.918
 6264W        W71524   6.455  36.030  10.780
 6265W        W71525  22.761  30.439  13.011
 6266W        W71526   4.922  34.604   1.304
 6267W        W71527  14.870  27.029   3.374
 6268W        W71528  40.601   3.100   3.824
 6269W        W71529   0.208   7.073   2.254
 6270W        W71530  37.082  19.181   1.782
 6271W        W71531  42.364  40.604  12.620
 6272W        W71532  28.071   3.050  11.440
 6273W        W71533  11.726  31.323  12.145
 6274W        W71534  17.548   1.167   1.893
 6275W        W71535   9.956   3.621  12.124
 6276W        W71536   8.825  13.887   0.741
 6277W        W71537   5.860   5.792  12.074
 6278W        W71538  25.918   7.014   4.230
 6279W        W71539  30.534   9.010  11.624
 6280W        W71540   4.108  44.751   1.246
 6281W        W71541  10.553  18.231  13.959
 6282W        W71542  16.028   8.973  10.745
 6283W        W71543  15.591  34.117  13.553
 6284W        W71544  23.113  10.268   3.809
 6285W        W71545  38.433   9.464   3.624
 6286W        W71546  15.053  36.912  11.697
 6287W        W71547  24.570  16.734   9.635
 6288W        W71548  21.121  33.169  12.424
 6289W        W71549   3.493  38.954   5.216
 6290W        W71550  23.948  18.427   1.815
 6291W        W71551  16.120  23.033  13.850
 6292W        W71552  26.072   3.917  14.824
 6293W        W71553   8.031  11.302  11.915
 6294W        W71554  19.137  28.071  12.972
 6295W        W71555  41.916  38.751   1.116
 6296W        W71556   1.771  14.113   0.873
 6297W        W71557  12.601  30.522   3.618
 6298W        W71558  12.867  30.229  11.083
 6299W        W71559  16.939  19.006   5.358
 6300W        W71560  21.202   4.456   5.130
 6301W        W71561  17.333  24.269   1.012
 6302W        W71562  33.512  17.904   4.722
 6303W        W71563   2.623   0.376  12.417
 6304W        W71564  32.879  34.504  14.920
 6305W        W71565  33.001  23.730   2.489
 6306W        W71566  43.077   2.315  10.786
 6307W        W71567   3.645  15.691   4.589
 6308W        W71568   1.816  31.518  14.629
 6309W        W71569  38.169  27.120  14.237
 6310W        W71570   6.141  11.151  12.609
 6311W        W71571  23.225  32.561  14.962
 6312W        W71572  43.904  20.474   2.210
 6313W        W71573  35.799  39.557  11.826
 6314W        W71574  35.235   3.270   0.209
 6315W        W71575  13.150  41.781   4.337
 6316W        W71576   9.038   3.198  13.483
 6317W        W71577  43.129  29.691   0.899
 6318W        W71578  33.502   1.647   4.156
 6319W        W71579  11.144  43.994  14.868
 6320W        W71580  10.855   9.173  14.455
 6321W        W71581  27.680  24.699  14.923
 6322W        W71582   5.755  35.387  11.074
 6323W        W71583  10.144   5.196  13.811
 6324W        W71584   1.390  28.270   3.288
 6325W        W71585  37.272  29.098   0.657
 6326W        W71586  38.962  11.800  13.495
 6327W        W71587  25.028  19.775   2.226
 6328W        W71588  32.831  26.677   1.819
 6329W        W71589  14.843  27.485   2.678
 6330W        W71590   4.403   4.005  14.840
 6331W        W71591   0.762  13.808  13.742
 6332W        W71592  11.817  18.206   2.769
 6333W        W71593  24.183  10.386   3.617
 6334W        W71594   7.374  41.977  10.552
 6335W        W71595  41.753  14.041  12.611
 6336W        W71596  43.524  19.533   4.098
 6337W        W71597  16.557  26.980  14.406
 6338W        W71598  28.383  38.258   2.026
 6339W        W71599  36.244  17.276   2.341
 6340W        W71600  33.988  38.555  14.714
 6341W        W71601  26.082   4.931   4.118
 6342W        W71602  34.949  26.727  11.649
 6343W        W71603  23.117   8.906   0.165
 6344W        W71604   6.456   1.217  10.643
 6345W        W71605   6.121  32.448   2.707
 6346W        W71606  35.932  37.666   5.476
 6347W        W71607  11.919   2.708   2.656
 6348W        W71608  25.194  20.208  13.965
 6349W        W71609   6.755   8.295   1.959
 6350W        W71610  36.626  30.715   4.094
 6351W        W71611  36.311  27.011  10.730
 6352W        W71612  40.045   2.473   0.859
 6353W        W71613  14.192  11.127   4.520
 6354W        W71614  17.940   5.910   3.734
 6355W        W71615  40.223   3.236  10.743
 6356W        W71616  31.199  10.986   3.932
 6357W        W71617  33.953  28.204  14.574
 6358W        W71618   7.480  13.826  14.309
 6359W        W71619   7.781  33.367  14.468
 6360W        W71620   3.945  37.333   2.709
 6361W        W71621  21.880  19.032  10.689
 6362W        W71622   5.713   5.450   1.453
 6363W        W71623  20.351  43.389  14.439
 6364W        W71624  31.508  37.929   1.656
 6365W        W71625  19.597  23.195  10.697
 6366W        W71626   1.562  24.542   4.530
 6367W        W71627  38.579  41.497   2.681
 6368W        W71628  34.552   0.733  11.591
 6369W        W71629  12.376   6.115  14.036
 6370W        W71630  20.305  32.861  11.431
 6371W        W71631   4.507  29.574  12.019
 6372W        W71632   4.755  13.157  14.727
 6373W        W71633  34.096  40.314  11.900
 6374W        W71634  29.567  12.604  13.393
 6375W        W71635   5.473  22.421   0.691
 6376W        W71636   0.263  40.887  11.043
 6377W        W71637  16.317  33.927  12.337
 6378W        W71638  39.403   7.966  11.979
 6379W        W71639  14.328  28.208   4.172
 6380W        W71640  30.060  22.721  10.876
 6381W        W71641   8.416  14.189   4.868
 6382W        W71642  25.230  35.652  12.719
 6383W        W71643   5.689   6.305  12.908
 6384W        W71644  22.615  36.764  14.042
 6385W        W71645  25.819  33.642   3.800
 6386W        W71646  36.525  27.138  14.040
 6387W        W71647  25.550  40.372   4.182
 6388W        W71648  37.776   8.431  12.388
 6389W        W71649  43.868  21.157   1.502
 6390W        W71650   0.994  18.115   0.462
 6391W        W71651   7.202   3.260  12.411
 6392W        W71652  16.669  15.175  11.203
 6393W        W71653  24.569  20.455   4.103
 6394W        W71654  28.938  39.701   4.156
 6395W        W71655  26.299  19.627  13.604
 6396W        W71656  28.473  40.897   3.450
 6397W        W71657  28.439  35.801  11.118
 6398W        W71658  32.858  40.425  11.519
 6399W        W71659  31.439   7.250   4.488
 6400W        W71660  33.763  22.587   4.580
 6401W        W71661  15.246  30.457   2.260
 6402W        W71662  42.729  21.221   0.988
 6403W        W71663   1.910  23.211  12.395
 6404W        W71664   8.786  30.862  11.544
 6405W        W71665  12.887  28.375   2.290
 6406W        W71666  34.523   3.571  12.079
 6407W        W71667  26.664  30.054   3.189
 6408W        W71668  26.672  21.145   2.768
 6409W        W71669  33.402  28.738   0.380
 6410W        W71670  19.527  27.354   3.221
 6411W        W71671  22.662   6.460   1.838
 6412W        W71672  19.139  35.585   1.009
 6413W        W71673  11.801  37.584  12.106
 6414W        W71674  34.602  28.631  11.452
 6415W        W71675  29.252  27.461  12.566
 6416W        W71676   4.473  26.594  13.993
 6417W        W71677  40.376  16.810   1.458
 6418W        W71678  18.843  36.386   3.107
 6419W        W71679  14.820  18.276   2.241
 6420W        W71680  12.887   7.640  14.405
 6421W        W71681  28.089  35.486   3.653
 6422W        W71682  21.275   3.203  13.982
 6423W        W71683   8.707  36.329   0.434
 6424W        W71684   6.220  11.000   1.720
 6425W        W71685  11.657   6.413  13.346
 6426W        W71686  22.615  11.640  11.219
 6427W        W71687   6.415   6.571   2.763
 6428W        W71688   0.402  42.903   4.505
 6429W        W71689  17.264   0.367   0.374
 6430W        W71690  36.462   6.115  13.206
 6431W        W71691  18.068  32.197  13.067
 6432W        W71692  13.628  24.337  13.990
 6433W        W71693   3.371  24.322   2.430
 6434W        W71694  13.168  35.879  12.766
 6435W        W71695  12.025  43.231   3.211
 6436W        W71696  16.186  28.645   2.865
 6437W        W71697   4.883  14.547  14.254
 6438W        W71698  35.029  37.379  11.044
 6439W        W71699   8.148  14.199  12.172
 6440W        W71700   2.158  25.449  12.490
 6441W        W71701  19.582  32.403   2.190
 6442W        W71702  42.256  28.459   2.378
 6443W        W71703  31.909  39.481  11.983
 6444W        W71704  30.244  31.131   0.753
 6445W        W71705  26.725  42.614   0.965
 6446W        W71706   9.299  41.584   4.236
 6447W        W71707  38.283  17.595   2.211
 6448W        W71708  36.085  34.986  13.935
 6449W        W71709   4.870  30.394   0.550
 6450W        W71710   4.274  16.624  11.487
 6451W        W71711  26.549  39.878  11.660
 6452W        W71712  17.534   7.292   0.540
 6453W        W71713  32.157  15.594   4.929
 6454W        W71714   9.537  23.078  10.341
 6455W        W71715  37.275  11.752   4.679
 6456W        W71716  17.100  21.573   3.696
 6457W        W71717   4.312  26.685  11.574
 6458W        W71718  27.256  11.819  12.051
 6459W        W71719  40.967  36.441   1.234
 6460W        W71720  35.435   5.342  14.148
 6461W        W71721  17.174  14.756   1.583
 6462W        W71722  44.976  27.424  12.949
 6463W        W71723  17.246  14.018   3.719
 6464W        W71724  13.162  33.896   9.905
 6465W        W71725   2.788  33.587  11.887
 6466W        W71726  27.444  18.646  14.397
 6467W        W71727  24.488  27.590  13.890
 6468W        W71728  31.768  13.735   1.796
 6469W        W71729  26.592   8.677   0.748
 6470W        W71730   8.708  34.208   1.487
 6471W        W71731  10.079  39.922   2.343
 6472W        W71732  21.620  31.266  12.306
 6473W        W71733  40.262  40.266   0.885
 6474W        W71734  25.094  37.744   0.048
 6475W        W71735  42.629  12.148  14.403
 6476W        W71736   2.178  31.846  14.900
 6477W        W71737  12.805  36.184   0.819
 6478W        W71738  28.211  41.285  10.859
 6479W        W71739   9.787   9.253   3.622
 6480W        W71740  28.847   6.242  13.712
 6481W        W71741  25.764  12.118   2.698
 6482W        W71742   6.295  28.945   0.004
 6483W        W71743  27.182   6.610   3.178
 6484W        W71744  23.193   0.749   0.202
 6485W        W71745  28.137  11.489  11.676
 6486W        W71746  13.272  31.414  10.447
 6487W        W71747   5.764  14.192   4.813
 6488W        W71748   6.223  39.889   0.743
 6489W        W71749  39.088   0.300  13.456
 6490W        W71750   3.790  36.177  11.108
 6491W        W71751  16.145   7.383  10.671
 6492W        W71752  30.053   2.491  13.274
 6493W        W71753  23.474  18.010   2.682
 6494W        W71754   2.757  19.272   3.144
 6495W        W71755   9.837  25.150   0.818
 6496W        W71756  30.949  30.697  14.761
 6497W        W71757  15.034  40.754  12.109
 6498W        W71758   5.616  38.475  14.809
 6499W        W71759  21.525   1.086  12.509
 6500W        W71760   0.911  28.505  14.464
 6501W        W71761  32.190  12.143   3.713
 6502W        W71762  26.905  34.463  14.986
 6503W        W71763  29.259  34.943   0.757
 6504W        W71764  22.853  28.981   2.888
 6505W        W71765  33.926  42.248  13.119
 6506W        W71766  29.919   0.997  10.735
 6507W        W71767  35.114  16.385   4.127
 6508W        W71768  44.251   8.450  10.202
 6509W        W71769  42.049  31.736   2.907
 6510W        W71770  36.261  15.100  14.078
 6511W        W71771  18.528  36.562   1.625
 6512W        W71772  19.135  33.594   1.824
 6513W        W71773  36.857  37.855  12.879
 6514W        W71774  13.444  44.796  11.495
 6515W        W71775  10.607  14.175  14.796
 6516W        W71776  19.841   0.830  14.274
 6517W        W71777   9.617  27.985  11.208
 6518W        W71778  24.673  25.448  14.499
 6519W        W71779  12.661  28.780  12.619
 6520W        W71780  23.752  44.272   3.845
 6521W        W71781  44.814   8.147  12.502
 6522W        W71782  41.517   8.714   0.340
 6523W        W71783  13.064  11.694   1.085
 6524W        W71784  30.037  15.798  12.937
 6525W        W71785  40.820  38.168  12.608
 6526W        W71786  16.609   5.194   0.641
 6527W        W71787  43.729   0.861   0.857
 6528W        W71788   7.974  16.574   1.014
 6529W        W71789  41.523  12.806   1.375
 6530W        W71790  27.383  17.577   0.900
 6531W        W71791  35.184  25.839  14.147
 6532W        W71792  36.775  43.329   3.175
 6533W        W71793  13.642   5.788  14.802
 6534W        W71794  16.387  41.894  13.400
 6535W        W71795  41.725  27.561   4.500
 6536W        W71796  20.268  20.024  14.878
 6537W        W71797  15.555  20.040  11.910
 6538W        W71798  21.127   0.539   3.644
 6539W        W71799  20.989  34.692  10.651
 6540W        W71800   4.900  15.306  10.730
 6541W        W71801  19.121   0.850  13.499
 6542W        W71802  37.884   3.050   0.753
 6543W        W71803  41.143  27.921   4.750
 6544W        W71804  21.447  20.057   3.795
 6545W        W71805  26.043  33.366  14.797
 6546W        W71806  44.617  26.991   1.084
 6547W        W71807   5.012  31.170   2.826
 6548W        W71808  15.182  12.674   4.576
 6549W        W71809  41.846  11.975  14.742
 6550W        W71810  25.951   6.817  13.513
 6551W        W71811   3.346  36.287  13.530
 6552W        W71812  29.214   9.816   1.000
 6553W        W71813  44.422  28.589   3.319
 6554W        W71814  43.764  23.544  13.154
 6555W        W71815   9.025  32.380  13.283
 6556W        W71816  30.105  18.887  12.487
 6557W        W71817  35.290  26.016   0.668
 6558W        W71818  28.152  37.387  11.926
 6559W        W71819   6.885  17.564  12.982
 6560W        W71820  15.783  14.794   1.384
 6561W        W71821   0.985  20.519   0.281
 6562W        W71822  30.643  13.292  11.159
 6563W        W71823   1.998   9.241   0.026
 6564W        W71824  34.903  35.272   4.205
 6565W        W71825  22.298  16.273   0.926
 6566W        W71826  11.760  29.170   2.888
 6567W        W71827  22.753   9.009   4.194
 6568W        W71828  28.341  32.594  14.783
 6569W        W71829  13.399  12.165   3.252
 6570W        W71830  18.102   0.960   1.328
 6571W        W71831  25.178  17.774   0.209
 6572W        W71832  23.046  34.719   5.389
 6573W        W71833  43.863   0.368  10.659
 6574W        W71834  40.951  41.745  10.722
 6575W        W71835  30.821  16.264   4.125
 6576W        W71836   7.838  11.379  12.956
 6577W        W71837  31.717   2.303  13.919
 6578W        W71838  43.952   6.894   3.717
 6579W        W71839   3.368  44.498  14.849
 6580W        W71840  40.344  34.032   4.456
 6581W        W71841  21.542  21.747  13.069
 6582W        W71842  21.754   5.892  10.964
 6583W        W71843  27.798  28.564  10.597
 6584W        W71844  32.713  19.520   3.660
 6585W        W71845  38.880  39.499  13.317
 6586W        W71846  42.513  32.008   3.399
 6587W        W71847  28.655  36.898   2.100
 6588W        W71848  27.864   1.828  10.885
 6589W        W71849  21.542  27.512  10.698
 6590W        W71850  29.400  12.385  14.896
 6591W        W71851  19.167  34.661   3.227
 6592W        W71852  34.281  25.691  12.532
 6593W        W71853  40.827  15.897   3.146
 6594W        W71854  36.039  33.207   3.794
 6595W        W71855   7.232  15.504   1.586
 6596W        W71856  15.851  39.467   2.631
 6597W        W71857  31.893   5.205   1.749
 6598W        W71858   9.783  10.747  10.317
 6599W        W71859  39.049  25.672   3.656
 6600W        W71860  40.320  24.004  13.310
 6601W        W71861  27.493  24.793  13.877
 6602W        W71862  24.108  22.761  11.108
 6603W        W71863   2.949  18.288  14.719
 6604W        W71864   7.543  15.735  13.863
 6605W        W71865  41.010  19.359  12.468
 6606W        W71866  39.087  11.980  13.031
 6607W        W71867  14.829  15.198  13.813
 6608W        W71868  43.034  15.148   2.808
 6609W        W71869   5.472  22.674  10.629
 6610W        W71870  13.874  43.528  14.732
 6611W        W71871  36.532  13.838  13.450
 6612W        W71872  36.717   7.517   2.185
 6613W        W71873  16.756   3.976  14.707
 6614W        W71874   5.169  10.959   0.924
 6615W        W71875  33.775  32.912   2.872
 6616W        W71876  28.431  26.732  12.752
 6617W        W71877  21.515  19.783  11.040
 6618W        W71878  24.146   0.882   2.552
 6619W        W71879  24.756   7.771   0.944
 6620W        W71880   7.444   9.421  11.367
 6621W        W71881  17.631   5.202  11.003
 6622W        W71882  10.894  11.353   2.270
 6623W        W71883  17.176  39.695   3.731
 6624W        W71884  36.529  20.249   3.844
 6625W        W71885  31.118   2.674  11.961
 6626W        W71886  40.397  40.488  14.935
 6627W        W71887  24.029  16.289   1.244
 6628W        W71888   8.326  30.619  11.559
 6629W        W71889  36.022  31.142   2.312
 6630W        W71890  19.500  37.783  12.875
 6631W        W71891  35.679  11.250  12.069
 6632W        W71892   5.753  39.275   0.385
 6633W        W71893  14.554  17.865   4.097
 6634W        W71894  12.337   6.744   1.707
 6635W        W71895  26.185   2.462  13.371
 6636W        W71896  15.817   5.527   1.239
 6637W        W71897  17.298  34.275   4.931
 6638W        W71898   0.395   7.895   0.226
 6639W        W71899  44.424  19.347   0.444
 6640W        W71900  12.887  17.479  13.004
 6641W        W71901  28.356  40.244  11.559
 6642W        W71902  19.224   9.423  14.421
 6643W        W71903  39.814  26.698   4.512
 6644W        W71904  29.078  12.856  13.301
 6645W        W71905  10.590  11.303  11.968
 6646W        W71906   8.851  24.343   3.281
 6647W        W71907  32.290  41.892  14.342
 6648W        W71908  22.002  27.058   1.293
 6649W        W71909   3.883   2.776  11.607
 6650W        W71910  32.828  37.696   1.327
 6651W        W71911  29.181  25.466   3.307
 6652W        W71912  35.793   2.369  13.276
 6653W        W71913  28.484  10.851  13.810
 6654W        W71914   3.903  36.464  12.013
 6655W        W71915   7.733  25.166   2.526
 6656W        W71916  26.433  21.772   0.814
 6657W        W71917  44.526  10.530  10.224
 6658W        W71918  14.357  23.270  11.577
 6659W        W71919  21.817  21.852  11.863
 6660W        W71920  42.012  33.618   2.538
 6661W        W71921   6.908  14.243  13.469
 6662W        W71922  40.548  37.033   4.659
 6663W        W71923  44.364  21.037  10.811
 6664W        W71924  44.983  15.368  12.456
 6665W        W71925  16.738  36.788   0.021
 6666W        W71926  23.882  17.757  13.073
 6667W        W71927  24.539  10.321   4.207
 6668W        W71928  19.124  42.210   4.247
 6669W        W71929  23.458  37.889  11.741
 6670W        W71930  15.859  25.197   4.120
 6671W        W71931  42.988  32.451  14.265
 6672W        W71932   6.957  26.683   3.734
 6673W        W71933   6.349  42.803  12.019
 6674W        W71934  31.029   3.611  10.506
 6675W        W71935  11.244  35.459   2.595
 6676W        W71936   4.769  39.803   0.431
 6677W        W71937  11.703  12.830  14.956
 6678W        W71938  20.803   1.012  14.774
 6679W        W71939  32.123  38.358   3.149
 6680W        W71940  12.212  25.454  10.917
 6681W        W71941  42.034  16.007  11.165
 6682W        W71942   8.918  33.629   4.208
 6683W        W71943  40.726  14.071  11.176
 6684W        W71944  28.175  30.116   4.669
 6685W        W71945  21.122  20.275  12.227
 6686W        W71946  27.238  11.055  14.310
 6687W        W71947  11.325  29.494   0.219
 6688W        W71948  41.311  25.660   0.391
 6689W        W71949   5.334  19.625   1.275
 6690W        W71950   6.186  25.654  14.601
 6691W        W71951  37.538  29.959  12.108
 6692W        W71952  13.081  13.677  12.076
 6693W        W71953  39.597  34.978   3.302
 6694W        W71954  10.031  22.684  12.096
 6695W        W71955  25.450  33.983   0.367
 6696W        W71956   5.955  40.023   2.579
 6697W        W71957  44.277   2.570  10.555
 6698W        W71958  37.034   3.937   4.477
 6699W        W71959  35.971  34.183  12.962
 6700W        W71960  10.331  43.823  10.675
 6701W        W71961  25.288  26.088   0.973
 6702W        W71962  43.644   2.077   1.344
 6703W        W71963  41.799  18.158  14.497
 6704W        W71964   5.708  13.040  13.034
 6705W        W71965  12.527  21.794   2.275
 6706W        W71966  39.223  10.783  11.581
 6707W        W71967  16.027  34.086   0.290
 6708W        W71968  31.203  11.173  10.752
 6709W        W71969  27.292   4.804  12.993
 6710W        W71970  14.281   7.389   3.192
 6711W        W71971   8.242   1.641  12.429
 6712W        W71972  13.027   8.636   0.748
 6713W        W71973  16.389  43.533   1.239
 6714W        W71974  19.706  17.644   0.480
 6715W        W71975  21.770  15.615   3.872
 6716W        W71976  28.145   6.209  14.905
 6717W        W71977  17.388  12.273   1.514
 6718W        W71978  40.249  10.144   2.762
 6719W        W71979  28.971  20.608  12.562
 6720W        W71980   3.038  18.858   2.242
 6721W        W71981  15.323  24.536  13.264
 6722W        W71982  17.763  31.943  13.942
 6723W        W71983   0.971   1.247   2.424
 6724W        W71984  39.348  15.275   3.355
 6725W        W71985  43.522  43.787   0.266
 6726W        W71986   0.828  36.311   3.718
 6727W        W71987  36.039  43.381   4.074
 6728W        W71988  33.837  21.190   2.197
 6729W        W71989  15.288  14.472   0.740
 6730W        W71990  30.791  44.494   2.693
 6731W        W71991  10.583  10.245   0.696
 6732W        W71992   4.326  35.495   4.785
 6733W        W71993  32.973  39.529   1.481
 6734W        W71994  40.931  29.695   3.254
 6735W        W71995  13.692   5.370  13.742
 6736W        W71996   4.731  13.372   1.782
 6737W        W71997  18.688  10.789  12.455
 6738W        W71998   2.353  27.571  14.257
 6739W        W71999  39.589  37.433  13.611
 6740W        W72000  11.679  43.482   4.322
 6741W        W72001  29.409  12.779  11.688
 6742W        W72002   2.347   4.770  12.081
 6743W        W72003  23.750  25.770   1.286
 6744W        W72004  36.041   6.104   3.811
 6745W        W72005   5.887  36.621  10.943
 6746W        W72006  21.681  14.941  13.505
 6747W        W72007  39.547  33.795   4.202
 6748W        W72008  13.215  12.113   4.122
 6749W        W72009   8.362  16.570  12.977
 6750W        W72010   9.847  22.762  13.479
 6751W        W72011  13.430  25.315  12.060
 6752W        W72012  34.945  39.581  11.651
 6753W        W72013   3.800  23.071   0.324
 6754W        W72014  34.178  12.149   4.956
 6755W        W72015  20.470  44.092  10.810
 6756W        W72016  43.369  29.291   1.409
 6757W        W72017  25.787  21.306  12.915
 6758W        W72018  24.611  11.177  11.739
 6759W        W72019  31.996   7.315   0.342
 6760W        W72020  25.093  23.925   0.521
 6761W        W72021  39.259  43.563  12.959
 6762W        W72022  39.319   9.054  13.216
 6763W        W72023  23.539  39.403   0.958
 6764W        W72024  26.523  35.387  12.454
 6765W        W72025  30.112  37.201  11.593
 6766W        W72026  20.221  14.876  13.487
 6767W        W72027  35.846  20.613   4.094
 6768W        W72028  16.039  10.479  14.618
 6769W        W72029  23.779   7.456   4.710
 6770W        W72030   4.176   0.502  14.729
 6771W        W72031   4.568   4.491  11.600
 6772W        W72032  35.811  31.391  11.941
 6773W        W72033   7.949  39.261   0.475
 6774W        W72034  42.729  22.489   2.360
 6775W        W72035  40.758  30.535   2.249
 6776W        W72036  21.604  22.052   1.433
 6777W        W72037   1.383  10.388  12.759
 6778W        W72038  22.744  30.640   0.826
 6779W        W72039  39.916  13.429  12.532
 6780W        W72040  36.825  12.652  14.819
 6781W        W72041  36.369  13.752   4.631
 6782W        W72042  31.904  35.405   4.510
 6783W        W72043  20.975  36.872   4.137
 6784W        W72044   8.510  13.031   3.660
 6785W        W72045   7.258  12.474  11.159
 6786W        W72046  27.664  27.911  12.114
 6787W        W72047   0.546  24.372  13.528
 6788W        W72048  18.183  10.828  14.487
 6789W        W72049  37.815  15.785  11.692
 6790W        W72050  44.916  17.267  14.569
 6791W        W72051  29.759   0.835   4.559
 6792W        W72052  19.505  13.313   2.325
 6793W        W72053  23.698  33.590  10.717
 6794W        W72054  16.493   2.676  11.475
 6795W        W72055  40.038  22.160  14.943
 6796W        W72056  31.210  40.894  13.091
 6797W        W72057  34.561  29.384   3.783
 6798W        W72058  17.875   9.599   2.871
 6799W        W72059  24.989  29.236   3.650
 6800W        W72060  43.473  42.814  14.921
 6801W        W72061  27.982  13.799   3.209
 6802W        W72062  43.636  44.320   1.327
 6803W        W72063   4.746  24.218  13.019
 6804W        W72064  35.375  30.147   1.963
 6805W        W72065  33.604  35.447  14.767
 6806W        W72066  13.284  33.703   1.764
 6807W        W72067   0.271  20.458  14.389
 6808W        W72068   9.725  37.851  12.338
 6809W        W72069  15.029   9.110  11.531
 6810W        W72070   0.649  13.738   4.005
 6811W        W72071  32.920  33.842  10.539
 6812W        W72072  36.303  34.247  11.548
 6813W        W72073  23.719  35.541  11.680
 6814W        W72074  43.555  32.797   1.177
 6815W        W72075  34.680  43.230   2.689
 6816W        W72076  37.852   4.156  10.653
 6817W        W72077  33.118   1.288  12.497
 6818W        W72078  23.717  10.133   3.651
 6819W        W72079  27.002   4.950   1.838
 6820W        W72080   2.686   3.417   4.827
 6821W        W72081  18.085   2.307   2.313
 6822W        W72082  42.908  36.334  12.636
 6823W        W72083  37.532   6.358   2.271
 6824W        W72084  22.213  28.436   2.879
 6825W        W72085   1.745  25.492  12.808
 6826W        W72086  17.206   3.406  14.065
 6827W        W72087   2.547   6.338   1.932
 6828W        W72088   6.181   5.673   0.447
 6829W        W72089  35.174  23.808  10.157
 6830W        W72090  34.987  28.146  11.968
 6831W        W72091  14.317  41.410   3.329
 6832W        W72092  37.058  27.438   1.169
 6833W        W72093  24.771  13.518   1.307
 6834W        W72094  32.386   3.426  12.392
 6835W        W72095  24.320  44.833   1.344
 6836W        W72096  23.603  44.955  13.222
 6837W        W72097  15.637  10.676   3.696
 6838W        W72098  29.771   4.307   1.299
 6839W        W72099  31.492  32.581  13.378
 6840W        W72100  41.688  20.543  14.367
 6841W        W72101   1.709  35.555   4.716
 6842W        W72102  40.339  18.295  13.972
 6843W        W72103  37.044  10.624  11.042
 6844W        W72104  21.050  12.090  13.622
 6845W        W72105   2.438   8.963  11.617
 6846W        W72106  13.153  40.242  14.733
 6847W        W72107   6.686  37.538  14.297
 6848W        W72108  33.561  23.203   4.063
 6849W        W72109  35.525  28.623   0.262
 6850W        W72110  39.610   3.766  13.584
 6851W        W72111  12.742   5.183   1.421
 6852W        W72112  44.814  27.503   3.218
 6853W        W72113  15.664  43.909  14.510
 6854W        W72114  39.112  28.034  11.898
 6855W        W72115  16.802  18.626  10.291
 6856W        W72116   9.779   9.866   2.022
 6857W        W72117  18.592  27.392  12.009
 6858W        W72118   8.038  26.114   0.440
 6859W        W72119  31.449  30.591   2.025
 6860W        W72120   2.074  23.440   1.193
 6861W        W72121   1.049   7.230   3.707
 6862W        W72122  29.573  35.224   4.096
 6863W        W72123   8.284   1.080  13.932
 6864W        W72124   0.483  14.787   1.836
 6865W        W72125  35.441  40.299   0.198
 6866W        W72126   4.098  14.093   1.238
 6867W        W72127  12.801  36.877   3.024
 6868W        W72128  12.351  41.908   4.527
 6869W        W72129   7.505  41.586   0.919
 6870W        W72130  43.969  23.762   1.833
 6871W        W72131  12.267  32.569   2.463
 6872W        W72132   7.198   4.818  10.725
 6873W        W72133   1.076  10.329   3.196
 6874W        W72134  39.293  38.817  12.030
 6875W        W72135  29.333   2.895   4.325
 6876W        W72136  42.559  21.914  12.630
 6877W        W72137  37.875   5.053   1.046
 6878W        W72138  27.423  31.998  10.812
 6879W        W72139  40.972   1.028   3.153
 6880W        W72140  42.580  24.612  12.546
 6881W        W72141  25.642  30.567  11.231
 6882W        W72142  15.468  37.602  12.022
 6883W        W72143   7.683  42.564  11.012
 6884W        W72144  40.781  20.263  10.641
 6885W        W72145  19.316   0.834   1.792
 6886W        W72146  12.155   4.956  11.104
 6887W        W72147  33.181  34.050  12.907
 6888W        W72148   0.303  15.171   0.451
 6889W        W72149  17.581  39.868   0.536
 6890W        W72150  15.396  36.982   1.849
 6891W        W72151  30.206  17.366  14.995
 6892W        W72152  12.348   3.747   3.607
 6893W        W72153  33.632  25.415   0.199
 6894W        W72154  15.169  37.070   2.350
 6895W        W72155   5.993   0.052   2.295
 6896W        W72156  37.018  15.247  14.317
 6897W        W72157  11.191  41.990   3.024
 6898W        W72158  32.890  37.939   4.166
 6899W        W72159  40.463  13.565  10.696
 6900W        W72160  32.033  14.356  13.491
 6901W        W72161  15.324   5.298  12.168
 6902W        W72162  14.577   6.684   2.392
 6903W        W72163  11.607   3.861   4.877
 6904W        W72164  24.688   2.782   1.738
 6905W        W72165  32.107  27.592   4.483
 6906W        W72166  10.308  13.837   3.753
 6907W        W72167  33.903   1.280   4.305
 6908W        W72168  10.090  23.050  11.364
 6909W        W72169   3.693   3.081   3.241
 6910W        W72170  44.741  28.492  13.810
 6911W        W72171   3.930  28.381  11.227
 6912W        W72172   0.988  25.563   2.667
 6913W        W72173  21.559   0.585  12.413
 6914W        W72174  15.054  42.110   2.865
 6915W        W72175  33.022  17.319   0.900
 6916W        W72176   8.618  23.678  14.353
 6917W        W72177   3.278  38.047  13.368
 6918W        W72178  10.141  10.133   3.684
 6919W        W72179  36.140   7.868  11.997
 6920W        W72180   9.479   2.826  11.000
 6921W        W72181  28.620  22.870  13.996
 6922W        W72182   1.928  44.683   0.766
 6923W        W72183  14.183  31.148   2.667
 6924W        W72184  14.907   5.962  14.745
 6925W        W72185  19.040  36.513  14.566
 6926W        W72186  32.373   6.670   1.716
 6927W        W72187  34.466  23.952   3.705
 6928W        W72188  39.291  35.083  10.298
 6929W        W72189  40.200   4.353  13.846
 6930W        W72190  34.121   5.315  10.873
 6931W        W72191  11.725   7.424   4.008
 6932W        W72192  11.854  33.235  13.062
 6933W        W72193   4.563  14.117   2.843
 6934W        W72194  12.229  25.487   4.238
 6935W        W72195  29.317  15.746   3.759
 6936W        W72196  17.261   4.361   3.189
 6937W        W72197  36.085   0.495  12.976
 6938W        W72198   5.445  40.037  14.945
 6939W        W72199  42.976  18.915   1.592
 6940W        W72200  15.159  23.821  10.652
 6941W        W72201  13.383  20.531   4.977
 6942W        W72202  37.881  31.118   4.306
 6943W        W72203  17.653  23.056  10.943
 6944W        W72204  12.199  36.913   1.768
 6945W        W72205   8.971  19.201  11.970
 6946W        W72206  43.921   9.481  13.123
 6947W        W72207   4.734   3.363  12.288
 6948W        W72208  37.815  33.633  14.252
 6949W        W72209  26.463   1.815  12.002
 6950W        W72210  34.193  24.093  12.222
 6951W        W72211  38.343   3.444   2.171
 6952W        W72212  40.884   2.855  14.301
 6953W        W72213   7.867  37.967  12.621
 6954W        W72214  34.184  29.134   1.334
 6955W        W72215  12.638  39.591   0.812
 6956W        W72216  12.221  35.453   4.598
 6957W        W72217  44.374   9.921  10.733
 6958W        W72218  41.740  13.358  13.810
 6959W        W72219   4.330  44.300   2.037
 6960W        W72220  30.174  10.402  10.045
 6961W        W72221   3.314  38.071  12.472
 6962W        W72222  29.470  11.841  11.565
 6963W        W72223  21.144  16.772   3.667
 6964W        W72224   5.345  23.217   4.455
 6965W        W72225  30.342  30.712   2.699
 6966W        W72226  42.105  16.329  13.587
 6967W        W72227  36.974  40.338  12.488
 6968W        W72228  19.987   2.048  10.312
 6969W        W72229  36.872  31.120   3.693
 6970W        W72230  34.053  10.642  13.523
 6971W        W72231  44.809  31.435   4.280
 6972W        W72232  21.778  17.337  13.889
 6973W        W72233  41.387  34.789   3.429
 6974W        W72234  11.325  38.767   2.228
 6975W        W72235  23.532  26.671   4.607
 6976W        W72236  42.281   4.810   1.782
 6977W        W72237  25.975  39.715  12.384
 6978W        W72238   9.357  24.247   3.346
 6979W        W72239  36.861  22.112  14.244
 6980W        W72240   4.037  18.259  13.430
 6981W        W72241   9.809  36.929  12.388
 6982W        W72242  29.278  13.612  10.698
 6983W        W72243   7.218  17.306   1.863
 6984W        W72244  34.698   7.014   2.763
 6985W        W72245   4.194  32.343   4.562
 6986W        W72246  24.024  37.577  14.289
 6987W        W72247  32.481  19.792   1.514
 6988W        W72248  34.367   1.092   5.357
 6989W        W72249  32.398  15.358  13.080
 6990W        W72250  30.483   9.758   0.372
 6991W        W72251  43.259  18.185  11.999
 6992W        W72252   6.140  35.693   0.172
 6993W        W72253  35.985  39.435   3.869
 6994W        W72254  20.616  30.438   3.253
 6995W        W72255  34.984   6.338  12.828
 6996W        W72256  42.348  35.876   3.603
 6997W        W72257  12.178  43.025  10.694
 6998W        W72258  25.489  37.300  12.022
 6999W        W72259  34.456  12.170   0.937
 7000W        W72260   0.952  17.146  12.460
 7001W        W72261  26.493   1.999   1.252
 7002W        W72262  13.827   7.485   2.448
 7003W        W72263  24.523  26.181   3.785
 7004W        W72264  21.732  24.016  13.555
 7005W        W72265  16.968  42.399  11.533
 7006W        W72266   0.877  14.292   3.195
 7007W        W72267  22.646  37.621   2.446
 7008W        W72268  39.660   3.417  13.973
 7009W        W72269  30.899  41.457   5.002
 7010W        W72270  22.548  18.874   1.782
 7011W        W72271  22.082  14.675   4.925
 7012W        W72272  10.892   6.310   0.825
 7013W        W72273  38.329  20.426  13.551
 7014W        W72274   3.630  12.215   1.329
 7015W        W72275  20.517  24.790   0.864
 7016W        W72276  15.311   0.029  13.934
 7017W        W72277   8.603  29.226   2.552
 7018W        W72278  21.344  24.425   2.324
 7019W        W72279   8.718   7.516  10.549
 7020W        W72280  23.438  43.915  12.971
 7021W        W72281  14.135  17.752   1.854
 7022W        W72282  21.812  19.911   2.816
 7023W        W72283  31.934   7.404  11.694
 7024W        W72284   7.144  28.335  14.409
 7025W        W72285  32.559  11.195  10.564
 7026W        W72286   1.438  22.423   2.948
 7027W        W72287  39.423  33.873  14.358
 7028W        W72288   7.182  31.570   4.581
 7029W        W72289   4.903  28.390  14.767
 7030W        W72290   2.754   8.847   3.304
 7031W        W72291  30.020  17.089  11.429
 7032W        W72292  21.477  19.562   9.866
 7033W        W72293   9.635   8.764  10.778
 7034W        W72294  28.581  13.389   0.763
 7035W        W72295  37.549  36.768  13.550
 7036W        W72296  20.603  35.936   9.728
 7037W        W72297  44.146  38.521  12.324
 7038W        W72298  43.059  30.605   3.818
 7039W        W72299  29.356  20.025  12.030
 7040W        W72300  20.230   8.351  10.472
 7041W        W72301  38.986  26.914  12.956
 7042W        W72302  43.980  25.286  14.351
 7043W        W72303  39.599   9.738  12.604
 7044W        W72304  32.282  23.635   0.147
 7045W        W72305  27.220   2.772  11.941
 7046W        W72306  14.065  21.312   1.510
 7047W        W72307  37.152  23.083   0.282
 7048W        W72308   2.660  22.282  12.554
 7049W        W72309  32.076  40.950   0.664
 7050W        W72310   6.302  33.361  10.690
 7051W        W72311  35.109  15.803   2.245
 7052W        W72312  38.775  42.867  11.583
 7053W        W72313  39.938  23.758  14.364
 7054W        W72314  36.854   7.639  11.566
 7055W        W72315  39.899  11.370   2.311
 7056W        W72316  26.674   9.203  13.432
 7057W        W72317   0.196  18.517   5.052
 7058W        W72318  38.483  40.889   0.831
 7059W        W72319  20.552  14.657  10.907
 7060W        W72320   1.214  21.101  13.076
 7061W        W72321  35.919   5.389  14.966
 7062W        W72322  34.924   3.440   3.656
 7063W        W72323  34.356  16.260   0.717
 7064W        W72324  40.532  38.901  10.331
 7065W        W72325  32.864  16.210   1.391
 7066W        W72326  12.739   1.969  11.865
 7067W        W72327  16.268  28.949   2.019
 7068W        W72328  15.243  42.608  12.666
 7069W        W72329  32.200   5.750  10.310
 7070W        W72330  21.229  21.935  12.669
 7071W        W72331   6.574  39.046  10.785
 7072W        W72332  40.872  30.402  12.318
 7073W        W72333   2.446  38.380  14.045
 7074W        W72334  10.312  42.341   1.499
 7075W        W72335  25.244  20.576   4.636
 7076W        W72336  17.098  36.682  12.284
 7077W        W72337  23.233  35.967   2.192
 7078W        W72338  17.080  22.307  14.938
 7079W        W72339   5.647  24.440   3.813
 7080W        W72340  19.006  40.834   1.704
 7081W        W72341  34.972  12.617  13.849
 7082W        W72342  21.675  40.475   2.220
 7083W        W72343  11.065  27.238  14.959
 7084W        W72344   1.386  42.765  14.786
 7085W        W72345  42.423  27.968  10.641
 7086W        W72346  11.431  24.203   1.717
 7087W        W72347   8.150  32.032   0.022
 7088W        W72348  24.639   0.449  11.889
 7089W        W72349  36.402  20.813  14.397
 7090W        W72350   1.949  16.310   2.133
 7091W        W72351  41.529  25.139  11.831
 7092W        W72352  42.666  29.575  11.498
 7093W        W72353  42.517  24.691   1.629
 7094W        W72354  33.969  43.471   2.341
 7095W        W72355  41.357   7.230   0.880
 7096W        W72356   3.446  24.513  14.920
 7097W        W72357  32.286  29.230  12.024
 7098W        W72358  21.647   8.359  12.921
 7099W        W72359  20.042  10.779   2.120
 7100W        W72360  11.358  14.726   2.232
 7101W        W72361  44.095  40.267  11.935
 7102W        W72362   7.312  35.960  11.387
 7103W        W72363  33.651   3.766  12.600
 7104W        W72364  42.065   5.667   1.465
 7105W        W72365  27.311  21.749  12.921
 7106W        W72366  11.044   0.605   1.267
 7107W        W72367  10.691  44.869   2.622
 7108W        W72368   4.229  27.501  13.425
 7109W        W72369  43.889  24.991   2.349
 7110W        W72370   2.528   5.732  12.555
 7111W        W72371  29.116  35.017   3.961
 7112W        W72372   1.751  24.977   4.115
 7113W        W72373  39.337  31.430  12.520
 7114W        W72374  37.347  39.696   2.485
 7115W        W72375   1.643   9.651  13.936
 7116W        W72376  33.656  34.505   5.030
 7117W        W72377  41.578  18.635  10.752
 7118W        W72378  24.504  26.062  14.245
 7119W        W72379  11.728  42.184   4.116
 7120W        W72380  34.321  28.426  14.142
 7121W        W72381  43.549  39.283   4.371
 7122W        W72382  33.913  11.119  13.699
 7123W        W72383  25.663  32.171  14.340
 7124W        W72384   7.942  36.389   3.246
 7125W        W72385  33.880  39.005   3.715
 7126W        W72386  43.474   1.264  11.424
 7127W        W72387  21.738  39.855   0.816
 7128W        W72388   9.399   2.777   2.897
 7129W        W72389  37.979  39.276  11.577
 7130W        W72390  23.567  28.660   2.221
 7131W        W72391  34.861   4.444  12.078
 7132W        W72392   1.049  27.107  14.556
 7133W        W72393  13.702  22.036  11.508
 7134W        W72394  44.346  17.231  11.429
 7135W        W72395  44.182   2.447  13.461
 7136W        W72396  32.550  18.168   0.758
 7137W        W72397  31.386  34.413   1.184
 7138W        W72398  17.152  30.657  10.209
 7139W        W72399   7.733   3.746   4.290
 7140W        W72400   4.914  37.529   2.781
 7141W        W72401   5.805  25.652  11.827
 7142W        W72402  38.929  23.901   1.128
 7143W        W72403   4.958   1.524   3.816
 7144W        W72404   6.208  13.879  11.551
 7145W        W72405  30.289  16.304   4.126
 7146W        W72406  42.552   5.796   1.898
 7147W        W72407  13.281  26.925   4.291
 7148W        W72408   5.822  20.406   0.387
 7149W        W72409  20.709  43.896  12.596
 7150W        W72410  37.925   6.421   0.450
 7151W        W72411  25.783  31.951  10.644
 7152W        W72412  17.101   8.794   5.078
 7153W        W72413  25.363  17.094   2.805
 7154W        W72414  33.825  32.672  14.359
 7155W        W72415   9.598   4.925   0.863
 7156W        W72416  41.086  25.141   0.810
 7157W        W72417  32.045  31.564  10.237
 7158W        W72418  28.388  44.103  13.871
 7159W        W72419   9.733  30.672   0.404
 7160W        W72420  40.402  15.143   4.083
 7161W        W72421  31.373  30.426   3.627
 7162W        W72422  23.177   0.930   4.297
 7163W        W72423  23.119   7.703   1.980
 7164W        W72424  35.565   5.870   1.928
 7165W        W72425  18.510   9.672   4.968
 7166W        W72426  39.120  21.585   0.558
 7167W        W72427   3.099  11.281  10.277
 7168W        W72428   6.456  44.075  11.356
 7169W        W72429   7.067   4.239   2.646
 7170W        W72430  43.863   8.678   4.371
 7171W        W72431   9.207   9.808   5.113
 7172W        W72432  16.865   8.924  12.015
 7173W        W72433  43.300  37.236   4.112
 7174W        W72434  41.593   1.249  12.404
 7175W        W72435  31.500  42.582   1.891
 7176W        W72436  37.997  37.095  12.842
 7177W        W72437  42.785  43.239  13.100
 7178W        W72438  26.943  20.025  12.563
 7179W        W72439  41.906  24.899  12.073
 7180W        W72440   2.912  40.285  12.178
 7181W        W72441  35.485  37.460  10.774
 7182W        W72442  39.299  15.361  10.930
 7183W        W72443  43.324  39.404   2.713
 7184W        W72444  31.335   0.523  10.787
 7185W        W72445   4.999  38.819   1.184
 7186W        W72446   6.427  31.019   2.617
 7187W        W72447  27.196  26.625   4.163
 7188W        W72448   4.956  30.082  13.867
 7189W        W72449  20.145   2.272  14.880
 7190W        W72450   2.408  18.682  13.862
 7191W        W72451  44.072  17.556   0.496
 7192W        W72452  10.918   2.848   2.750
 7193W        W72453  33.219  21.782  14.321
 7194W        W72454  39.312  40.369   2.088
 7195W        W72455  41.585   8.761   2.179
 7196W        W72456  29.616  43.724   1.691
 7197W        W72457  12.151  28.399   3.311
 7198W        W72458   8.569   5.725   2.249
 7199W        W72459  40.015   1.033   0.474
 7200W        W72460   1.197  32.597   3.652
 7201W        W72461  33.018  37.519  14.819
 7202W        W72462  23.489   4.773  14.918
 7203W        W72463  38.542  16.785  14.586
 7204W        W72464   3.686  22.967   3.594
 7205W        W72465  33.561  31.384   1.248
 7206W        W72466  21.630  43.765   1.264
 7207W        W72467  11.902  35.855  14.798
 7208W        W72468  29.124  19.264  13.256
 7209W        W72469  38.120  17.596   2.694
 7210W        W72470  18.073  28.531   3.311
 7211W        W72471  17.582  34.549   3.370
 7212W        W72472  20.367  32.116  11.011
 7213W        W72473   2.398  15.150  14.392
 7214W        W72474  43.551  19.150   3.727
 7215W        W72475  41.614  22.087  11.166
 7216W        W72476  19.514   4.555   3.670
 7217W        W72477  15.076   0.647   2.736
 7218W        W72478  15.101  22.252   1.993
 7219W        W72479   4.811  13.346   3.295
 7220W        W72480  42.418  15.128  12.891
 7221W        W72481  17.097   1.943  10.772
 7222W        W72482  31.725  27.950  10.733
 7223W        W72483  28.060  34.227   1.351
 7224W        W72484  33.428  20.691  11.679
 7225W        W72485  15.083  17.882  11.701
 7226W        W72486  22.475  31.151  14.313
 7227W        W72487  44.046  14.699  11.311
 7228W        W72488  20.548   1.534  13.949
 7229W        W72489  21.559  23.069   1.426
 7230W        W72490  21.040  41.139  12.080
 7231W        W72491   8.885  25.587   1.912
 7232W        W72492  16.529   5.246  13.782
 7233W        W72493   5.811  44.489   1.038
 7234W        W72494   8.932   6.907   2.338
 7235W        W72495  37.828  25.126  11.135
 7236W        W72496  15.736   5.646   4.498
 7237W        W72497  12.318   0.980  14.165
 7238W        W72498  40.365  41.325   3.997
 7239W        W72499  26.183  22.095   4.185
 7240W        W72500   1.730  15.686   4.874
 7241W        W72501  28.213  44.929   9.971
 7242W        W72502  40.016  29.211  12.166
 7243W        W72503  29.437  25.658  12.465
 7244W        W72504  31.070  32.618   1.258
 7245W        W72505  29.352  11.431   1.597
 7246W        W72506  16.331  12.605   0.023
 7247W        W72507  15.790   2.434  10.614
 7248W        W72508  35.560  38.912  12.519
 7249W        W72509  16.350   3.290   1.351
 7250W        W72510  40.437  21.605   4.308
 7251W        W72511  39.579  13.111  13.345
 7252W        W72512  19.716  12.464   3.818
 7253W        W72513  29.520  37.914   3.252
 7254W        W72514  38.034  44.823  14.271
 7255W        W72515  39.484   0.905  11.148
 7256W        W72516   4.657  19.036   5.002
 7257W        W72517  10.220  19.706  10.591
 7258W        W72518  23.340  12.231   3.136
 7259W        W72519  23.969  14.759   4.075
 7260W        W72520  25.897  17.586  12.450
 7261W        W72521  41.667  34.103  14.485
 7262W        W72522  28.516  28.434  12.079
 7263W        W72523   8.890  20.605  10.754
 7264W        W72524   4.493  22.741  14.924
 7265W        W72525  43.730   9.790  14.116
 7266W        W72526  39.096   0.825  11.566
 7267W        W72527  36.945   8.816   1.822
 7268W        W72528  19.365  30.183  14.225
 7269W        W72529  29.036  20.648  13.612
 7270W        W72530  26.938  43.562  10.985
 7271W        W72531  21.588  43.896   3.094
 7272W        W72532   7.814  36.993   1.700
 7273W        W72533  37.935  36.388   3.192
 7274W        W72534  23.083  21.466   0.290
 7275W        W72535  24.243  29.218   1.183
 7276W        W72536  15.325  15.693   0.410
 7277W        W72537  32.833  24.230   4.514
 7278W        W72538  25.071  44.177  11.759
 7279W        W72539  27.389   6.783   1.868
 7280W        W72540  20.032  30.940  12.373
 7281W        W72541   9.517  10.095   2.429
 7282W        W72542   3.181  26.129  13.044
 7283W        W72543  16.211  39.377  12.588
 7284W        W72544   0.910  23.510  12.592
 7285W        W72545  25.278   4.268  10.731
 7286W        W72546   4.478  21.689  14.248
 7287W        W72547   2.656   1.360  13.289
 7288W        W72548  37.393   0.653   2.868
 7289W        W72549  14.226  33.846   1.857
 7290W        W72550  24.716  12.686   2.539
 7291W        W72551   5.745   6.383  14.009
 7292W        W72552  33.555  29.643   3.252
 7293W        W72553  14.248  11.611   1.289
 7294W        W72554  17.807  23.582  13.762
 7295W        W72555  17.379  33.431  14.292
 7296W        W72556  36.920  44.367  10.272
 7297W        W72557   6.500  40.861  12.012
 7298W        W72558  38.876  30.595   2.411
 7299W        W72559   7.827  19.071  11.467
 7300W        W72560   0.779  28.415  13.909
 7301W        W72561   6.837  26.654   2.777
 7302W        W72562  21.637  27.763   0.921
 7303W        W72563  19.830   7.391  13.973
 7304W        W72564  14.457  12.383   0.253
 7305W        W72565  16.523  41.993   0.907
 7306W        W72566  35.888   9.769  12.723
 7307W        W72567   1.982   0.964  13.652
 7308W        W72568  10.306  38.328   4.125
 7309W        W72569  35.120  23.755  14.804
 7310W        W72570  34.565  24.698  12.970
 7311W        W72571  37.975  29.780   1.687
 7312W        W72572   1.730   3.939  13.369
 7313W        W72573  44.933   0.008   0.347
 7314W        W72574  11.739  40.844   3.403
 7315W        W72575  38.466  34.116  14.346
 7316W        W72576   1.425  30.093  13.447
 7317W        W72577  34.987  32.433  14.710
 7318W        W72578  23.145  22.142  14.011
 7319W        W72579  35.385  35.452   3.340
 7320W        W72580  20.065  15.940  10.997
 7321W        W72581  19.242  27.082   1.375
 7322W        W72582  24.653  40.056   0.780
 7323W        W72583  23.579   6.086   4.923
 7324W        W72584  42.711   2.357   3.236
 7325W        W72585  41.750  44.113  14.426
 7326W        W72586  20.721  39.423   0.381
 7327W        W72587  32.088  22.646  14.311
 7328W        W72588  20.378  35.052   4.809
 7329W        W72589  34.753  15.967  12.886
 7330W        W72590  15.930  11.887   2.713
 7331W        W72591  13.335   5.240   2.687
 7332W        W72592  33.881  42.881  14.376
 7333W        W72593   4.999  24.788  11.111
 7334W        W72594  41.886   7.785  14.856
 7335W        W72595  42.035  28.555   3.663
 7336W        W72596  22.506  34.886   2.136
 7337W        W72597  13.687  10.286   0.774
 7338W        W72598   8.614  23.874  13.501
 7339W        W72599  17.767  10.836  11.572
 7340W        W72600  20.108  21.270  12.159
 7341W        W72601  22.706  27.532   3.641
 7342W        W72602  16.614   0.813  11.229
 7343W        W72603  29.096  29.570  14.686
 7344W        W72604  41.989  12.883  14.961
 7345W        W72605   3.301   7.061  13.878
 7346W        W72606  38.595  18.073   0.619
 7347W        W72607   1.358  12.728   0.688
 7348W        W72608  44.914  33.440   0.220
 7349W        W72609  19.315   0.265   1.290
 7350W        W72610  34.589  42.948   3.173
 7351W        W72611  44.822  21.037  13.937
 7352W        W72612  26.468  39.263  11.906
 7353W        W72613   9.204   8.060  12.441
 7354W        W72614   3.476  34.012  10.918
 7355W        W72615  33.951  27.684  14.503
 7356W        W72616   7.845  18.297   3.197
 7357W        W72617  12.232  21.962  12.096
 7358W        W72618  32.623  37.453   4.360
 7359W        W72619  10.909   1.374  12.911
 7360W        W72620  22.668  14.426  14.379
 7361W        W72621  36.888   1.792   1.301
 7362W        W72622  39.536  35.025  13.400
 7363W        W72623  16.220  36.352   0.306
 7364W        W72624   7.732  36.620   4.238
 7365W        W72625  30.266  34.906   0.969
 7366W        W72626  12.212  39.176   2.494
 7367W        W72627   6.900  29.645   3.202
 7368W        W72628   9.194   6.875   1.433
 7369W        W72629  40.610  21.003   3.630
 7370W        W72630  17.875  29.398  14.508
 7371W        W72631  35.383   0.571  12.701
 7372W        W72632  22.721   3.253  12.969
 7373W        W72633   2.034  31.370  11.658
 7374W        W72634  43.415  41.723   1.605
 7375W        W72635   4.293  40.037  11.578
 7376W        W72636  29.207  42.366   1.793
 7377W        W72637  25.995  36.463  10.655
 7378W        W72638  25.619  23.183  14.154
 7379W        W72639  16.910   2.430  13.115
 7380W        W72640  38.330  30.948  14.001
 7381W        W72641   1.657  36.990  11.169
 7382W        W72642  20.006  13.629   1.611
 7383W        W72643  21.509   0.900   3.672
 7384W        W72644  37.889  13.626   1.100
 7385W        W72645   6.216  14.332  14.112
 7386W        W72646  29.078  10.582  11.293
 7387W        W72647  35.106  14.061   1.406
 7388W        W72648  22.358  26.199   1.164
 7389W        W72649   0.745   0.067   1.950
 7390W        W72650  42.816  17.620   3.004
 7391W        W72651  29.004  14.726  11.224
 7392W        W72652  31.186   8.884  11.179
 7393W        W72653   4.378  31.574   2.345
 7394W        W72654  34.806  13.507   0.268
 7395W        W72655  17.776   0.265   0.287
 7396W        W72656  26.449  14.155  11.584
 7397W        W72657   2.003   8.795  11.844
 7398W        W72658   6.281  27.567   2.871
 7399W        W72659  44.826  38.499   3.194
 7400W        W72660  43.582  31.386  11.818
 7401W        W72661  33.921  11.308  11.526
 7402W        W72662  25.590  34.342   3.334
 7403W        W72663  31.679  13.233   4.648
 7404W        W72664   5.985   6.421   3.492
 7405W        W72665  40.824   0.775   3.958
 7406W        W72666   2.770   2.697   3.364
 7407W        W72667   6.679   0.907  12.548
 7408W        W72668  28.698  19.249  14.564
 7409W        W72669  11.817  28.411   1.821
 7410W        W72670  22.666   8.881  14.904
 7411W        W72671   4.892  33.496   0.353
 7412W        W72672  44.214  38.632  11.033
 7413W        W72673  31.413  17.864   2.349
 7414W        W72674  19.346  13.631  11.196
 7415W        W72675  25.126  40.781   0.229
 7416W        W72676  28.906  25.905   3.272
 7417W        W72677  31.121  22.613   1.447
 7418W        W72678  35.099  25.174   4.137
 7419W        W72679  43.665   3.874   2.314
 7420W        W72680  21.460  29.051   1.796
 7421W        W72681  17.792  42.353  11.946
 7422W        W72682  33.098  23.495   0.476
 7423W        W72683  21.056  11.074  11.529
 7424W        W72684  33.207  39.048  13.718
 7425W        W72685  42.093  17.017  10.330
 7426W        W72686  35.885   4.156  11.858
 7427W        W72687  25.548  12.605   3.223
 7428W        W72688   7.810  12.863   1.276
 7429W        W72689  43.514  38.892   3.455
 7430W        W72690  22.571   7.907  13.326
 7431W        W72691  31.859  25.011   3.925
 7432W        W72692  20.761  20.139  14.768
 7433W        W72693  13.606  23.969  13.335
 7434W        W72694   2.421  24.765  14.002
 7435W        W72695   2.929  44.191   2.292
 7436W        W72696  29.344  14.808   3.265
 7437W        W72697  43.598  14.648   2.482
 7438W        W72698  20.340  36.971   4.542
 7439W        W72699   0.903   1.159   0.254
 7440W        W72700   8.377  36.329   0.870
 7441W        W72701   6.863   6.432  14.026
 7442W        W72702  12.458   3.800   1.284
 7443W        W72703  30.553  32.809  11.595
 7444W        W72704  29.090   4.759  14.273
 7445W        W72705  27.638  26.660  12.794
 7446W        W72706   6.647  22.032  13.014
 7447W        W72707  35.221  10.952   2.717
 7448W        W72708  33.465  40.884  14.760
 7449W        W72709  43.996  19.272  11.855
 7450W        W72710   5.327   2.236  12.054
 7451W        W72711  38.393   2.287  14.724
 7452W        W72712  40.031   1.543   0.459
 7453W        W72713  40.357   0.533  13.607
 7454W        W72714  19.263   5.233  13.996
 7455W        W72715  41.036  24.396  11.563
 7456W        W72716  39.851  28.609  13.994
 7457W        W72717  15.048  23.027  12.594
 7458W        W72718   1.885  37.974  14.804
 7459W        W72719  11.840  22.328  11.232
 7460W        W72720  44.625  39.375  13.489
 7461W        W72721  11.692  23.267  13.786
 7462W        W72722  34.235  27.537   3.834
 7463W        W72723  21.257   9.094  13.065
 7464W        W72724  17.153  27.686   3.678
 7465W        W72725  21.104  18.153   3.378
 7466W        W72726  25.239  19.805   4.697
 7467W        W72727   9.646   6.985  12.958
 7468W        W72728  16.076   6.275   2.117
 7469W        W72729  25.083   7.345  11.625
 7470W        W72730  30.011   4.680   1.798
 7471W        W72731  25.554  19.452   0.168
 7472W        W72732  15.146   9.709   0.223
 7473W        W72733  28.675   2.242   1.285
 7474W        W72734  15.674  27.214  13.997
 7475W        W72735   3.417   6.652   2.825
 7476W        W72736  30.504  43.849   2.251
 7477W        W72737   2.600  18.197  13.892
 7478W        W72738  25.206  13.500   5.033
 7479W        W72739  35.847   1.802   2.299
 7480W        W72740  17.122  43.380  11.552
 7481W        W72741  43.481  32.739   1.679
 7482W        W72742  17.585  43.931   3.255
 7483W        W72743  11.404  21.635   4.633
 7484W        W72744   7.868  14.729  14.963
 7485W        W72745  22.072  27.492  12.115
 7486W        W72746  38.780  16.450   0.565
 7487W        W72747  11.353  12.781   1.789
 7488W        W72748  44.986   7.855   3.486
 7489W        W72749  30.537   5.310  13.879
 7490W        W72750  39.019  15.918   2.423
 7491W        W72751   9.697  11.201   1.652
 7492W        W72752  17.781  41.460  14.963
 7493W        W72753  27.302  41.837  14.356
 7494W        W72754  26.680   7.607  12.010
 7495W        W72755  29.329  19.237  11.352
 7496W        W72756  14.079  21.135  11.730
 7497W        W72757  39.510  32.103   4.595
 7498W        W72758   7.757  30.713  13.187
 7499W        W72759  27.105   8.391  13.901
 7500W        W72760  25.153   6.824  14.575
 7501W        W72761  44.851   9.722  13.246
 7502W        W72762   3.673  15.877   0.244
 7503W        W72763  23.863  28.497  13.485
 7504W        W72764   9.625  34.201  10.633
 7505W        W72765   9.761  30.623  14.416
 7506W        W72766  13.876  13.254   0.952
 7507W        W72767   3.992  34.019  10.906
 7508W        W72768  34.134  41.329  14.423
 7509W        W72769  34.054  33.558  11.574
 7510W        W72770   9.266  19.786   4.462
 7511W        W72771   7.660  22.208  13.757
 7512W        W72772  30.483  19.514  14.894
 7513W        W72773   3.903  37.972  14.564
 7514W        W72774   8.871  18.209  12.628
 7515W        W72775  39.577   7.613  14.836
 7516W        W72776  23.250  17.356  10.858
 7517W        W72777   5.316   4.585   1.090
 7518W        W72778  18.012  19.082  10.618
 7519W        W72779   2.856  32.248   3.702
 7520W        W72780  14.858  24.059   1.914
 7521W        W72781  16.377  33.754   0.970
 7522W        W72782  10.367  34.060  12.044
 7523W        W72783  31.587   4.338  13.675
 7524W        W72784  25.697   4.930   1.303
 7525W        W72785  12.236  28.943  13.536
 7526W        W72786  22.526  21.495   2.301
 7527W        W72787  27.554  26.704  11.417
 7528W        W72788  21.480  37.572  11.437
 7529W        W72789  30.609  38.166  13.018
 7530W        W72790  44.243   4.903  10.040
 7531W        W72791   4.219  32.631   3.647
 7532W        W72792  37.898  34.488  10.482
 7533W        W72793   3.033  28.747   2.599
 7534W        W72794   5.292   3.292  12.093
 7535W        W72795  35.562  34.369   0.013
 7536W        W72796  40.148  21.748   1.358
 7537W        W72797  14.156  32.142   4.093
 7538W        W72798  36.587   5.950   1.764
 7539W        W72799  44.006  14.736  13.490
 7540W        W72800  31.248   1.736   3.742
 7541W        W72801  42.310  40.748   1.395
 7542W        W72802  19.589  35.386  14.797
 7543W        W72803  18.858  40.207  12.058
 7544W        W72804  13.354  19.654   0.427
 7545W        W72805  18.211  42.607   0.849
 7546W        W72806  12.629  11.331   2.929
 7547W        W72807   7.669  32.009  12.408
 7548W        W72808  27.223  37.765   4.702
 7549W        W72809  34.670  39.799   3.587
 7550W        W72810  31.629   8.445   2.839
 7551W        W72811  29.261   0.168   2.345
 7552W        W72812   3.764   3.852   4.382
 7553W        W72813  36.265  21.545  12.932
 7554W        W72814  17.871  35.995   0.811
 7555W        W72815  11.539  30.358  10.687
 7556W        W72816   7.913  13.525  14.311
 7557W        W72817  30.714  20.923   4.931
 7558W        W72818   7.493   5.754  10.749
 7559W        W72819  40.092  21.922  12.366
 7560W        W72820   9.402  37.845   3.280
 7561W        W72821  43.419  20.980   4.916
 7562W        W72822  13.101  27.929  13.180
 7563W        W72823   2.297  43.269   4.607
 7564W        W72824  23.694  10.136   2.194
 7565W        W72825  14.502  38.515   1.777
 7566W        W72826  19.789  41.867   1.268
 7567W        W72827  13.580  29.044  11.511
 7568W        W72828   1.820  18.909   4.202
 7569W        W72829  32.160  22.804   1.299
 7570W        W72830  40.227  10.718  11.552
 7571W        W72831  37.095  21.746  11.144
 7572W        W72832   5.957   9.814  12.410
 7573W        W72833   0.052   8.741   4.646
 7574W        W72834  17.772  42.031  14.972
 7575W        W72835  34.974  26.906   3.054
 7576W        W72836   2.309  39.071  12.375
 7577W        W72837  33.005   3.795   4.027
 7578W        W72838  42.566  26.641   3.181
 7579W        W72839  16.825  39.350   0.388
 7580W        W72840  28.723  40.095  12.533
 7581W        W72841  33.613  18.421   4.586
 7582W        W72842  18.004   0.433   1.195
 7583W        W72843   4.607  34.471  11.384
 7584W        W72844   5.238  10.657   4.622
 7585W        W72845  15.160   6.711  14.435
 7586W        W72846  11.179  27.109   1.293
 7587W        W72847  36.636  24.041   3.520
 7588W        W72848  44.738  15.838  14.538
 7589W        W72849  38.028  21.022   2.794
 7590W        W72850  10.605   5.189  10.738
 7591W        W72851  30.724  15.678   4.553
 7592W        W72852  12.211  43.407  14.258
 7593W        W72853  19.196  44.207  14.232
 7594W        W72854  18.684  38.065  13.122
 7595W        W72855  35.063  20.495  13.195
 7596W        W72856   1.508  24.627   2.101
 7597W        W72857  44.718  37.076  13.220
 7598W        W72858  35.101  36.877   0.863
 7599W        W72859  15.812   7.666   4.611
 7600W        W72860  34.160   8.455  11.158
 7601W        W72861  41.802  25.166  12.477
 7602W        W72862   2.523  32.087   0.279
 7603W        W72863   8.152   3.605  11.617
 7604W        W72864  35.503  23.460  11.336
 7605W        W72865  24.520  33.478   4.514
 7606W        W72866  37.841  39.727  11.419
 7607W        W72867  32.973   2.413   3.043
 7608W        W72868   7.256  41.725  14.516
 7609W        W72869  17.184   5.497  11.546
 7610W        W72870  25.909  27.718  11.958
 7611W        W72871  35.549  12.408   4.568
 7612W        W72872  30.571  14.559  13.137
 7613W        W72873  34.590   4.809   4.197
 7614W        W72874  28.207   7.906  14.292
 7615W        W72875  43.720  24.130  14.912
 7616W        W72876  33.317  32.361  13.423
 7617W        W72877  16.813   9.247  11.603
 7618W        W72878  42.804  11.367  11.966
 7619W        W72879  20.015  17.811  12.483
 7620W        W72880  34.662  44.755   3.119
 7621W        W72881   5.731   8.874   0.730
 7622W        W72882  27.912  17.133  14.605
 7623W        W72883  16.586  26.411  12.937
 7624W        W72884  29.282  23.469  10.726
 7625W        W72885  18.622   5.173   0.354
 7626W        W72886   2.725  25.879   1.220
 7627W        W72887  35.138  15.126  12.033
 7628W        W72888  41.390  43.003   2.340
 7629W        W72889   3.411  23.919  11.109
 7630W        W72890  34.091  15.143   1.879
 7631W        W72891  22.988  13.212  12.994
 7632W        W72892  35.363  44.961   1.264
 7633W        W72893  19.106  28.741   1.726
 7634W        W72894  37.918  33.469  10.714
 7635W        W72895  27.970   7.773   3.385
 7636W        W72896  21.498  44.271   1.315
 7637W        W72897  42.837  34.795   1.237
 7638W        W72898   2.301  30.437   1.687
 7639W        W72899  40.561   1.932   9.931
 7640W        W72900   5.168  26.001  13.572
 7641W        W72901   7.594  41.822   2.388
 7642W        W72902   7.140  21.034   3.979
 7643W        W72903  26.712  27.028   3.194
 7644W        W72904  33.548   6.972  11.712
 7645W        W72905  19.950   8.424  12.594
 7646W        W72906  44.022   4.885  11.792
 7647W        W72907  31.446  19.843   1.291
 7648W        W72908  30.062  21.765   3.394
 7649W        W72909   9.059  34.530  12.769
 7650W        W72910  24.823  29.517  13.149
 7651W        W72911  22.497  17.771   0.374
 7652W        W72912  25.149   3.312  14.278
 7653W        W72913   3.799  42.912  12.540
 7654W        W72914  39.489  18.941   0.323
 7655W        W72915  12.801  20.059   1.854
 7656W        W72916   4.679   6.470   3.375
 7657W        W72917  41.149  33.981  11.888
 7658W        W72918   9.138  35.479  12.579
 7659W        W72919  13.269  37.936   1.446
 7660W        W72920  37.205  44.580  14.042
 7661W        W72921  26.511  35.500   3.824
 7662W        W72922  32.829   4.263  10.965
 7663W        W72923  21.684  24.645   3.205
 7664W        W72924  32.407  38.761  11.916
 7665W        W72925  40.993  17.791  11.650
 7666W        W72926  27.024   4.650  12.538
 7667W        W72927   9.315   5.694  11.525
 7668W        W72928  39.830   6.758  10.685
 7669W        W72929  41.363   3.874   1.355
 7670W        W72930  39.845  28.092  14.889
 7671W        W72931   3.015  37.832  10.795
 7672W        W72932  15.696  29.606  12.460
 7673W        W72933  37.738  40.656  12.595
 7674W        W72934  26.588  22.536   0.290
 7675W        W72935  27.498  34.139   3.103
 7676W        W72936  21.372  41.580   1.045
 7677W        W72937  25.148   8.880  13.009
 7678W        W72938  26.526  43.390   3.331
 7679W        W72939  14.072   9.900  11.959
 7680W        W72940  31.421   6.736  12.497
 7681W        W72941  22.784  14.344  10.602
 7682W        W72942   2.231  26.156   2.684
 7683W        W72943  34.449  12.451  14.786
 7684W        W72944   7.395  17.129   2.373
 7685W        W72945   4.888   7.360   3.681
 7686W        W72946   0.494  14.648   2.907
 7687W        W72947  38.796  41.979  14.901
 7688W        W72948  26.223  41.998   2.417
 7689W        W72949  41.725   8.266  14.721
 7690W        W72950  11.368  14.410  11.538
 7691W        W72951  38.814  17.290  10.722
 7692W        W72952  18.525   8.205  11.552
 7693W        W72953  21.735  18.090   3.702
 7694W        W72954   9.813   8.271  12.767
 7695W        W72955   8.270  23.807   0.467
 7696W        W72956  35.615   0.727   2.753
 7697W        W72957  40.703   7.258   4.653
 7698W        W72958  28.259  28.613   2.599
 7699W        W72959  11.686   0.576  11.634
 7700W        W72960  42.289  23.249  14.929
 7701W        W72961  19.164  37.849  14.417
 7702W        W72962  16.053  34.170  13.875
 7703W        W72963  34.532  27.598  11.611
 7704W        W72964  30.364  20.000   1.808
 7705W        W72965  19.553  33.866   3.215
 7706W        W72966  33.584  41.247   4.045
 7707W        W72967   8.699  10.244   0.725
 7708W        W72968  28.530  18.778  11.325
 7709W        W72969  40.600  22.739  10.244
 7710W        W72970  30.240   6.766   1.923
 7711W        W72971  20.191  40.547  12.988
 7712W        W72972   5.514  36.426  12.503
 7713W        W72973  35.326  39.544   1.295
 7714W        W72974  29.961  30.881   4.209
 7715W        W72975   1.294  26.728   3.248
 7716W        W72976  36.346  41.902  12.144
 7717W        W72977  36.383  41.940  13.293
 7718W        W72978  19.205  35.468   0.398
 7719W        W72979   5.932  16.702  14.088
 7720W        W72980  21.983  34.053  12.385
 7721W        W72981  42.275  19.778   2.390
 7722W        W72982  21.197  10.015  12.988
 7723W        W72983   5.227  39.511  14.363
 7724W        W72984  16.596   2.783  10.989
 7725W        W72985   5.815  33.889   2.002
 7726W        W72986   7.612  19.401  10.651
 7727W        W72987  40.007  25.466  12.413
 7728W        W72988   0.874  43.439   2.725
 7729W        W72989  28.462  38.974  13.387
 7730W        W72990  36.300  42.790  10.863
 7731W        W72991  28.208  21.299   5.075
 7732W        W72992   0.469  30.471   0.843
 7733W        W72993   5.181  19.668  10.323
 7734W        W72994  40.748  43.401  13.878
 7735W        W72995  40.048  26.226   3.751
 7736W        W72996  25.492  18.819   2.159
 7737W        W72997  37.797  30.943  13.940
 7738W        W72998  43.124  19.123  10.921
 7739W        W72999  41.840   9.320  14.438
 7740W        W73000  17.122  24.573  14.368
 7741W        W73001  18.077  12.658   3.666
 7742W        W73002  10.232   8.183   1.809
 7743W        W73003  12.440  30.307  11.553
 7744W        W73004  17.587  10.057  13.303
 7745W        W73005  22.920   1.791  11.015
 7746W        W73006  35.073  34.985   4.611
 7747W        W73007  23.509   9.690   0.831
 7748W        W73008  31.677  25.818   0.299
 7749W        W73009  36.376  12.776  11.813
 7750W        W73010   2.451  38.004  12.374
 7751W        W73011  18.579  20.244  12.814
 7752W        W73012  44.540  10.051   4.256
 7753W        W73013  14.234  31.884   1.938
 7754W        W73014  16.721  42.647  11.127
 7755W        W73015  27.705   3.721   3.276
 7756W        W73016  41.724  32.149   4.603
 7757W        W73017  32.563  10.656  13.390
 7758W        W73018  31.651   8.482  13.535
 7759W        W73019   9.893   0.981  14.275
 7760W        W73020  30.562  17.236  14.171
 7761W        W73021  24.063  39.581   3.217
 7762W        W73022  38.430  29.427  10.651
 7763W        W73023  19.170   6.640   2.142
 7764W        W73024   3.003  24.217  11.170
 7765W        W73025  34.916  11.336   1.319
 7766W        W73026   8.819  39.403  14.315
 7767W        W73027  25.106  26.915   4.025
 7768W        W73028  37.990   7.966  12.633
 7769W        W73029  38.967  13.027   0.539
 7770W        W73030  17.727  43.019   4.886
 7771W        W73031  44.963  41.524   2.956
 7772W        W73032  38.093  34.058  11.144
 7773W        W73033  12.032   0.570   0.405
 7774W        W73034  36.611  19.625  10.534
 7775W        W73035  29.497  42.885   0.816
 7776W        W73036  39.621  33.931  10.933
 7777W        W73037  23.756  42.361   0.566
 7778W        W73038   3.844  30.744   2.221
 7779W        W73039   5.854   4.676   2.880
 7780W        W73040  22.333  22.017   3.691
 7781W        W73041  37.525  40.860   0.749
 7782W        W73042  19.216  23.719  12.310
 7783W        W73043  30.945   2.867  13.787
 7784W        W73044  18.200  19.634  14.879
 7785W        W73045   6.309  37.804   1.010
 7786W        W73046  38.451   6.673  11.598
 7787W        W73047  13.846  25.940   4.252
 7788W        W73048  35.623  16.275   1.782
 7789W        W73049  28.985  29.023   2.453
 7790W        W73050  28.103  25.046  11.561
 7791W        W73051  30.550  36.844  11.474
 7792W        W73052  24.751   0.343  13.968
 7793W        W73053  27.833   8.153   1.866
 7794W        W73054  22.548  39.868   0.332
 7795W        W73055  15.720  39.305   1.245
 7796W        W73056  26.377  15.657   2.255
 7797W        W73057  29.902  31.612  12.631
 7798W        W73058  17.262  32.734  13.749
 7799W        W73059  33.069  41.637  12.419
 7800W        W73060   8.873  36.087   0.881
 7801W        W73061   8.156  37.071   1.314
 7802W        W73062  38.223  33.476   0.925
 7803W        W73063   8.828  43.637  11.579
 7804W        W73064  25.600  11.421   2.331
 7805W        W73065  20.112   7.741   3.829
 7806W        W73066  22.588  22.746  10.958
 7807W        W73067  43.376  31.445  13.306
 7808W        W73068  19.399  28.079  14.814
 7809W        W73069  22.722   1.698  13.378
 7810W        W73070  21.689  39.594  12.626
 7811W        W73071  37.791   5.498  10.289
 7812W        W73072  28.378  15.268   1.750
 7813W        W73073   2.524   1.794  13.543
 7814W        W73074  40.139  41.631  11.600
 7815W        W73075  33.435  20.444   4.574
 7816W        W73076  33.818  27.016  14.796
 7817W        W73077  37.297   2.851  13.996
 7818W        W73078  17.645  17.683  12.176
 7819W        W73079   3.778  36.371   4.698
 7820W        W73080   9.357  21.719  12.052
 7821W        W73081  13.505  28.518  14.871
 7822W        W73082  18.265   3.314  11.002
 7823W        W73083  14.797   9.387  11.904
 7824W        W73084  37.892  21.210  13.857
 7825W        W73085  36.176  19.036   2.654
 7826W        W73086  40.386  20.137   3.872
 7827W        W73087   9.231  21.248  13.085
 7828W        W73088  16.771  34.130   0.798
 7829W        W73089  11.375  30.036   2.761
 7830W        W73090  18.498  20.316  10.666
 7831W        W73091  28.842  40.830   0.316
 7832W        W73092  38.517  15.613   3.111
 7833W        W73093  30.815  29.736   4.117
 7834W        W73094  27.080  13.133   2.355
 7835W        W73095  23.349  42.004  10.408
 7836W        W73096  22.971  42.301  12.172
 7837W        W73097   6.691  31.047   0.970
 7838W        W73098  31.319   8.901  14.768
 7839W        W73099   3.490  20.515  14.125
 7840W        W73100  14.087  27.030  11.055
 7841W        W73101  30.960  25.160  13.588
 7842W        W73102  19.127  26.456  10.608
 7843W        W73103  22.186  31.807  11.129
 7844W        W73104  24.747  24.253   0.777
 7845W        W73105  40.091  30.995   2.449
 7846W        W73106  26.073  16.038  11.703
 7847W        W73107   6.320  29.224   2.323
 7848W        W73108  41.228  19.258  11.994
 7849W        W73109   1.150   3.204  13.069
 7850W        W73110  26.097  41.548  12.154
 7851W        W73111  42.073  10.696  12.229
 7852W        W73112  24.868  39.096   0.211
 7853W        W73113   7.848  12.849   0.407
 7854W        W73114   0.711   7.271  13.328
 7855W        W73115  19.578  25.555   0.195
 7856W        W73116   5.871  31.227   2.310
 7857W        W73117   4.373  34.132   0.383
 7858W        W73118  42.964  40.026  14.919
 7859W        W73119   5.675   1.721  12.355
 7860W        W73120   7.690  37.881   3.590
 7861W        W73121  32.149  18.056   2.191
 7862W        W73122   9.858  17.033   2.164
 7863W        W73123  18.117  39.380   1.287
 7864W        W73124   0.085  40.268   0.363
 7865W        W73125  40.928  25.493   1.160
 7866W        W73126   9.954  22.840   2.274
 7867W        W73127  16.813  12.458  13.839
 7868W        W73128  15.663  22.247  13.830
 7869W        W73129  38.012  28.172   3.575
 7870W        W73130  39.600  21.971   4.069
 7871W        W73131  15.278  23.306  10.634
 7872W        W73132  32.593  17.727  10.622
 7873W        W73133   4.014  38.304  12.860
 7874W        W73134  18.007   8.332  12.352
 7875W        W73135  40.737  13.698  13.951
 7876W        W73136  38.838   8.800  11.998
 7877W        W73137  17.878  42.457   3.738
 7878W        W73138  42.580  24.604   0.193
 7879W        W73139  36.956  28.680   0.383
 7880W        W73140  37.460   7.249  12.618
 7881W        W73141   8.969  20.571  10.226
 7882W        W73142  19.632   2.439   4.063
 7883W        W73143  31.278  33.330  12.072
 7884W        W73144  11.603  10.911   0.448
 7885W        W73145  13.277  29.096   3.854
 7886W        W73146  27.953  33.517  14.922
 7887W        W73147  13.958   2.605   3.723
 7888W        W73148   8.205   5.413  14.180
 7889W        W73149   2.486  15.612   0.743
 7890W        W73150  35.261  27.026  12.109
 7891W        W73151   6.963  14.828  10.684
 7892W        W73152  10.004  28.087   5.538
 7893W        W73153  12.002  39.846   0.405
 7894W        W73154  16.349  41.928   3.179
 7895W        W73155  37.693   4.205   1.816
 7896W        W73156  19.123  11.106   1.857
 7897W        W73157  23.625  24.470  14.040
 7898W        W73158  36.041  15.594  13.161
 7899W        W73159   2.399   5.289  13.753
 7900W        W73160  31.202  23.841  10.853
 7901W        W73161   9.450  20.852  12.540
 7902W        W73162  43.711  42.495  12.453
 7903W        W73163  42.006  39.423  10.712
 7904W        W73164  13.008  25.573  13.995
 7905W        W73165  43.815  13.714   0.302
 7906W        W73166  26.879  10.323   3.682
 7907W        W73167  33.018  23.163   2.428
 7908W        W73168  33.232  25.517  12.473
 7909W        W73169  21.089  22.888  11.564
 7910W        W73170   2.754   9.760  13.119
 7911W        W73171  17.899  23.457   1.683
 7912W        W73172  41.560  31.809   2.756
 7913W        W73173  41.292  39.959   2.729
 7914W        W73174  22.726   9.191  14.488
 7915W        W73175  11.247  19.586  14.781
 7916W        W73176  16.641  28.403   1.565
 7917W        W73177  11.348   5.820   5.407
 7918W        W73178  38.553  38.071   0.066
 7919W        W73179  38.030  18.746   0.471
 7920W        W73180  20.052  29.590   4.644
 7921W        W73181  10.699   0.205   4.239
 7922W        W73182  28.116  10.739  11.179
 7923W        W73183  31.910  24.793   4.922
 7924W        W73184  30.783  33.618  14.879
 7925W        W73185  16.379  30.150   1.990
 7926W        W73186  11.748  12.708  11.102
 7927W        W73187   1.033  30.134   3.528
 7928W        W73188  39.781  21.786  14.639
 7929W        W73189   4.629  30.018  14.254
 7930W        W73190  29.540  25.231  10.161
 7931W        W73191  38.761  15.792  13.408
 7932W        W73192  11.918  24.640  13.375
 7933W        W73193   9.804   8.032   4.129
 7934W        W73194   5.096  10.263  11.587
 7935W        W73195   3.323  16.258  12.473
 7936W        W73196   2.453  36.667   4.148
 7937W        W73197  19.235   0.905   3.204
 7938W        W73198  37.970   2.355   1.453
 7939W        W73199  32.234  41.890   1.721
 7940W        W73200  21.023  31.101  11.620
 7941W        W73201   5.864  42.994  10.864
 7942W        W73202  31.904  34.033  10.976
 7943W        W73203   5.251  40.254  10.949
 7944W        W73204  31.783  15.127  14.907
 7945W        W73205  38.588  19.295  12.967
 7946W        W73206  16.649  10.931   4.300
 7947W        W73207  42.719  14.826   1.308
 7948W        W73208  40.945  13.568  12.088
 7949W        W73209  18.642  38.349  12.430
 7950W        W73210   9.490  24.837  14.101
 7951W        W73211  42.472  40.326   1.148
 7952W        W73212  25.855  43.220  14.394
 7953W        W73213  28.066  19.262   1.189
 7954W        W73214   7.766  19.979   0.944
 7955W        W73215  35.360   3.289  11.768
 7956W        W73216  44.810  39.560  14.898
 7957W        W73217  43.895  21.139   0.461
 7958W        W73218  16.160  11.801  12.041
 7959W        W73219  35.615  34.402   2.294
 7960W        W73220   5.745   9.438  12.710
 7961W        W73221  30.931  15.600   2.325
 7962W        W73222  21.474   1.886  14.089
 7963W        W73223  20.012   3.315   1.309
 7964W        W73224  39.797  14.873   2.169
 7965W        W73225  20.943  42.672   3.366
 7966W        W73226   7.193  33.897  13.938
 7967W        W73227  29.675   5.117   0.319
 7968W        W73228  29.660  40.294   4.524
 7969W        W73229  25.720   3.318   2.188
 7970W        W73230  36.369  26.882   1.786
 7971W        W73231  18.519  24.227   2.248
 7972W        W73232  33.686   5.707  12.274
 7973W        W73233  17.286   4.962  10.717
 7974W        W73234  44.442  41.782   3.444
 7975W        W73235  11.551  19.435  11.151
 7976W        W73236   9.314  33.969   2.171
 7977W        W73237  13.148   2.886   0.240
 7978W        W73238   5.583  11.792   4.345
 7979W        W73239  38.404  23.168   4.295
 7980W        W73240  30.451  12.332   4.942
 7981W        W73241  41.399  41.708   4.808
 7982W        W73242   9.251  23.537  12.553
 7983W        W73243  15.107  34.494  12.065
 7984W        W73244  29.034   6.854   4.089
 7985W        W73245  17.622   3.404   1.720
 7986W        W73246  15.441  32.856  12.652
 7987W        W73247  26.366  42.167   3.700
 7988W        W73248  14.449  24.201  12.860
 7989W        W73249  20.602  27.521   0.265
 7990W        W73250  24.694  27.121  11.151
 7991W        W73251  26.102  10.634  12.149
 7992W        W73252  11.830   9.854   2.263
 7993W        W73253  32.649   3.435   4.097
 7994W        W73254  41.181   0.849   3.596
 7995W        W73255  20.028  12.721   0.443
 7996W        W73256  30.259  30.700  12.171
 7997W        W73257  40.386  22.678   3.332
 7998W        W73258  16.054  10.673   4.724
 7999W        W73259  40.337  19.128   1.737
 8000W        W73260   5.499  25.810  10.930
 8001W        W73261  22.099  14.315   2.288
 8002W        W73262  10.354   2.708   1.498
 8003W        W73263  28.203   0.770  11.628
 8004W        W73264  18.169  14.365   1.472
 8005W        W73265  23.655  41.961   0.878
 8006W        W73266  32.957  43.759  13.525
 8007W        W73267  42.479  33.967  13.383
 8008W        W73268  37.521  27.077   2.715
 8009W        W73269  36.508   0.574  14.026
 8010W        W73270  23.253  28.216  12.594
 8011W        W73271   4.770  34.212   9.940
 8012W        W73272  32.675  12.942   4.037
 8013W        W73273   7.931   2.367   1.156
 8014W        W73274  11.175  23.223  12.750
 8015W        W73275  15.014  23.912   0.689
 8016W        W73276  16.925  30.291  14.043
 8017W        W73277  22.825   7.764   3.345
 8018W        W73278  26.459  24.032   0.397
 8019W        W73279  32.480  31.811   3.675
 8020W        W73280  11.739  41.732   3.842
 8021W        W73281  33.973  17.365   3.054
 8022W        W73282  42.011  13.908  11.188
 8023W        W73283   0.884  23.712   5.384
 8024W        W73284   7.205  22.701  10.734
 8025W        W73285  31.651   9.402   1.827
 8026W        W73286  19.958  31.603  13.915
 8027W        W73287   4.336   6.890   0.412
 8028W        W73288  25.227   7.345   3.853
 8029W        W73289  19.664  41.763  12.960
 8030W        W73290   1.191  11.749   1.805
 8031W        W73291  40.889  23.094  13.331
 8032W        W73292  38.010   1.452  11.943
 8033W        W73293   4.716  31.013  13.126
 8034W        W73294  11.728   4.397   2.792
 8035W        W73295   6.356  22.229  12.188
 8036W        W73296  10.652  35.769  13.942
 8037W        W73297  20.105   5.815   1.768
 8038W        W73298  16.708   8.636  12.429
 8039W        W73299  34.838   1.518  13.323
 8040W        W73300  23.219  40.413  13.588
 8041W        W73301  19.779  36.610   5.091
 8042W        W73302  44.848  32.944  14.037
 8043W        W73303  12.322  43.657   3.120
 8044W        W73304  33.015  37.580   2.342
 8045W        W73305  16.919  36.395  13.571
 8046W        W73306   2.269  16.983   2.185
 8047W        W73307  21.763  20.113   0.913
 8048W        W73308  26.005  39.960   2.554
 8049W        W73309  29.134   4.956   3.323
 8050W        W73310  33.423  34.829  12.860
 8051W        W73311  43.803  42.873  12.983
 8052W        W73312  35.565  31.380   1.443
 8053W        W73313  42.838   0.972   2.610
 8054W        W73314  15.300   0.895  10.707
 8055W        W73315  11.708   0.510   1.314
 8056W        W73316  12.922   4.723  12.582
 8057W        W73317  20.151  30.460  12.505
 8058W        W73318  35.043   1.985   0.834
 8059W        W73319  12.761   4.702   2.318
 8060W        W73320   8.764  19.829  14.871
 8061W        W73321   4.820  12.276   3.277
 8062W        W73322  30.987  16.118  10.657
 8063W        W73323  33.774   8.329  12.537
 8064W        W73324  26.701  20.866  11.342
 8065W        W73325  21.213  43.001   2.731
 8066W        W73326   1.996  18.850   4.692
 8067W        W73327   5.817  11.824  11.481
 8068W        W73328  43.285  33.299  13.415
 8069W        W73329  25.735   4.962  12.810
 8070W        W73330  31.497  29.166   3.683
 8071W        W73331  36.619   1.367   1.360
 8072W        W73332  14.414  44.923  11.177
 8073W        W73333   4.357  30.458   0.291
 8074W        W73334  15.983   2.383   1.884
 8075W        W73335  34.028  21.774   4.976
 8076W        W73336  22.262  14.651   0.471
 8077W        W73337  25.211  30.718  10.961
 8078W        W73338   8.304  40.629  14.496
 8079W        W73339  21.018  25.756   1.962
 8080W        W73340  38.432  39.543  10.440
 8081W        W73341  20.714  28.154   2.639
 8082W        W73342   0.868  26.082  12.104
 8083W        W73343  22.961  19.742  14.846
 8084W        W73344  41.338  30.558  11.140
 8085W        W73345  29.123  42.920   2.963
 8086W        W73346  37.191  24.089  14.494
 8087W        W73347  23.951  23.473   1.730
 8088W        W73348   9.719  40.981  12.383
 8089W        W73349  19.805  38.861   3.784
 8090W        W73350  17.644  25.263  12.149
 8091W        W73351   2.488  28.042   3.223
 8092W        W73352  35.966  26.865   1.183
 8093W        W73353  21.687  21.505  14.068
 8094W        W73354  33.463   6.279  13.752
 8095W        W73355  23.486   0.381  14.927
 8096W        W73356  12.401  29.244   0.789
 8097W        W73357   4.681  32.704   2.729
 8098W        W73358  10.219  35.650  11.560
 8099W        W73359  20.235  33.082  11.876
 8100W        W73360  15.580  22.679  12.006
 8101W        W73361   2.197  25.656   0.982
 8102W        W73362  36.093   2.273   1.269
 8103W        W73363   4.949  36.791   4.691
 8104W        W73364  12.702  27.018   1.258
 8105W        W73365  44.553  27.601   2.779
 8106W        W73366  10.908  34.696  13.554
 8107W        W73367  25.127  30.819   5.042
 8108W        W73368  39.882  31.436  13.514
 8109W        W73369  33.101  34.491  12.604
 8110W        W73370   0.022  34.561   4.612
 8111W        W73371  12.676  10.919  12.493
 8112W        W73372   0.617  27.205  10.960
 8113W        W73373   7.290   6.337   2.208
 8114W        W73374  31.956  17.660   2.467
 8115W        W73375  34.131   7.936  12.621
 8116W        W73376  19.342  13.813  14.994
 8117W        W73377  13.762  28.460   1.928
 8118W        W73378  22.253  39.917   0.855
 8119W        W73379   5.881  23.137   2.166
 8120W        W73380  37.961  38.256  13.880
 8121W        W73381  19.245  44.493  14.669
 8122W        W73382  34.310  38.945  11.188
 8123W        W73383  42.540  34.901  14.895
 8124W        W73384  23.081  37.615  14.461
 8125W        W73385  19.258  17.203  13.806
 8126W        W73386  17.467  17.216  12.048
 8127W        W73387  38.407  19.094   4.267
 8128W        W73388  41.045  37.205   5.096
 8129W        W73389  44.278  24.053  14.804
 8130W        W73390  41.962  44.970   3.268
 8131W        W73391  25.850   9.094   1.191
 8132W        W73392  18.071  26.224  14.460
 8133W        W73393  21.134  22.023  14.393
 8134W        W73394  36.755  41.707  11.216
 8135W        W73395   3.579  32.039  12.087
 8136W        W73396  33.729  42.510  14.736
 8137W        W73397  28.372  21.171   3.703
 8138W        W73398   7.380   5.734   0.382
 8139W        W73399   8.144  12.156   2.681
 8140W        W73400   5.533  16.372  14.283
 8141W        W73401  19.034   3.828  14.057
 8142W        W73402  35.489  44.080   3.189
 8143W        W73403  18.686  40.442   1.811
 8144W        W73404  28.075  42.459   1.921
 8145W        W73405   1.814   8.604  10.953
 8146W        W73406  36.076  24.443   1.984
 8147W        W73407  21.639  34.926   2.847
 8148W        W73408  15.290  35.388  13.364
 8149W        W73409  44.964  17.276   2.242
 8150W        W73410   3.138  11.725   2.816
 8151W        W73411  38.442  12.371  12.107
 8152W        W73412  10.628  40.258  12.104
 8153W        W73413  21.975  14.347   0.169
 8154W        W73414   7.496  42.744   3.388
 8155W        W73415  28.598  22.998  14.913
 8156W        W73416  39.325  21.529   3.347
 8157W        W73417  11.283  12.555  14.815
 8158W        W73418  31.653   2.945   1.619
 8159W        W73419  12.283   8.657   0.057
 8160W        W73420   3.842  16.027  10.490
 8161W        W73421  23.369  33.051  12.376
 8162W        W73422   9.875   9.417  11.131
 8163W        W73423  29.341  28.431   1.160
 8164W        W73424   5.256  23.688  12.437
 8165W        W73425  39.921  40.879   0.383
 8166W        W73426  30.176   4.211  14.473
 8167W        W73427  42.780   9.111   1.918
 8168W        W73428  11.829  43.078   2.734
 8169W        W73429  27.580  15.691   3.572
 8170W        W73430  37.735  40.056  13.944
 8171W        W73431   7.759  17.853  12.935
 8172W        W73432  21.262  21.219   0.673
 8173W        W73433  39.426  12.775  14.941
 8174W        W73434  33.946  22.090   1.143
 8175W        W73435   2.874  24.454   0.721
 8176W        W73436  11.583  13.559   1.308
 8177W        W73437  43.463  17.145  10.709
 8178W        W73438   6.197   9.461   4.911
 8179W        W73439  28.057  19.325   4.087
 8180W        W73440  33.344  34.285  12.201
 8181W        W73441  11.641  31.832   1.268
 8182W        W73442  18.601  25.877  11.921
 8183W        W73443   9.163  39.782  11.577
 8184W        W73444  28.035  28.962   4.409
 8185W        W73445  41.902  11.283   0.889
 8186W        W73446  26.086  30.549  10.876
 8187W        W73447  32.554  18.720  11.157
 8188W        W73448  43.897  17.605  13.770
 8189W        W73449  32.468   4.637  10.119
 8190W        W73450  21.555  32.580   4.465
 8191W        W73451  23.536  27.320  12.595
 8192W        W73452  16.639  36.962  12.957
 8193W        W73453  39.610  21.623   1.347
 8194W        W73454  25.524   2.644  12.422
 8195W        W73455   3.535  36.543  12.545
 8196W        W73456  15.559   0.750  12.193
 8197W        W73457  36.152  41.890   1.353
 8198W        W73458  13.367  42.983   4.791
 8199W        W73459  35.364  41.457  11.148
 8200W        W73460  18.572  12.648  10.797
 8201W        W73461  20.508  10.733   0.854
 8202W        W73462  12.790  13.533   2.775
 8203W        W73463  17.778  30.201   4.591
 8204W        W73464  13.143  15.779  12.055
 8205W        W73465   1.688  30.106  14.451
 8206W        W73466  21.858  23.005   3.291
 8207W        W73467   3.286  28.446   3.057
 8208W        W73468   2.722  24.056  11.579
 8209W        W73469  26.951  38.533  14.428
 8210W        W73470  13.154  43.245  12.594
 8211W        W73471  13.608   3.702  10.670
 8212W        W73472  32.197  25.449  10.826
 8213W        W73473  11.246  28.205  10.586
 8214W        W73474  21.643  21.619  10.313
 8215W        W73475   1.739   3.136   0.448
 8216W        W73476  33.859   6.331  14.313
 8217W        W73477  42.349  15.495  13.471
 8218W        W73478  31.572   5.202   2.314
 8219W        W73479  25.301   6.874   1.915
 8220W        W73480  43.129  32.526   1.054
 8221W        W73481  10.364  34.525  14.319
 8222W        W73482  35.434  34.900   0.007
 8223W        W73483   9.319  18.361   0.929
 8224W        W73484  10.323  25.129  13.535
 8225W        W73485  23.603  35.849   3.096
 8226W        W73486  13.175  28.994   2.834
 8227W        W73487  28.493  14.100   3.835
 8228W        W73488   9.322  17.653   3.150
 8229W        W73489   0.661  18.601  12.517
 8230W        W73490  14.297   8.668   2.594
 8231W        W73491  16.046   1.328   2.734
 8232W        W73492  14.626  44.469   3.795
 8233W        W73493  35.649  15.803   2.266
 8234W        W73494  43.955   7.385  14.036
 8235W        W73495  35.804  35.574  14.639
 8236W        W73496  44.361  10.413   3.326
 8237W        W73497   0.316  17.738   3.661
 8238W        W73498  33.520   0.273   2.457
 8239W        W73499  11.861  13.906   5.069
 8240W        W73500  17.534   5.001   0.417
 8241W        W73501  25.872  41.863  14.548
 8242W        W73502  33.865  11.971   0.289
 8243W        W73503  39.871  18.737   3.349
 8244W        W73504  20.170  15.318  14.818
 8245W        W73505  27.227   2.348  14.450
 8246W        W73506  26.231  32.409   4.671
 8247W        W73507  34.891  31.702  13.399
 8248W        W73508  15.566  39.367  13.360
 8249W        W73509   8.981   2.749  11.967
 8250W        W73510  31.047  36.504   1.674
 8251W        W73511  36.822  28.517  12.791
 8252W        W73512  21.595  35.025  14.824
 8253W        W73513  13.059  12.594  10.264
 8254W        W73514  34.978  42.303  11.149
 8255W        W73515  16.199  14.205   3.468
 8256W        W73516   4.695  13.509   4.591
 8257W        W73517  14.130  13.731   0.860
 8258W        W73518   3.665   3.431   2.821
 8259W        W73519  12.814  32.867   4.172
 8260W        W73520  31.037  27.637  12.456
 8261W        W73521  39.779  44.926   2.916
 8262W        W73522  35.292  35.997   4.521
 8263W        W73523   7.670  23.233   4.722
 8264W        W73524  38.356  38.115   0.565
 8265W        W73525   4.419  38.503  13.635
 8266W        W73526  39.300  35.426   2.049
 8267W        W73527  13.026  14.068  13.005
 8268W        W73528  38.821  41.378   0.511
 8269W        W73529   1.847  30.405  10.826
 8270W        W73530  26.447  10.514   0.298
 8271W        W73531  26.055  37.825  13.787
 8272W        W73532  30.113  40.343   2.767
 8273W        W73533  44.478  10.599  13.367
 8274W        W73534  38.863   2.894  13.239
 8275W        W73535   6.480  39.784   0.297
 8276W        W73536  36.495   4.733  14.516
 8277W        W73537   9.438  25.488   2.811
 8278W        W73538  10.735  33.038  11.562
 8279W        W73539  37.662   1.941  11.165
 8280W        W73540  15.894  11.985  11.605
 8281W        W73541  14.008  15.668   4.970
 8282W        W73542  35.883  26.791  14.360
 8283W        W73543  11.351  22.163  14.514
 8284W        W73544  17.240  12.164  13.793
 8285W        W73545  37.347  41.985   2.408
 8286W        W73546  30.520  23.662   2.618
 8287W        W73547  26.534  13.694  11.803
 8288W        W73548  24.906  14.583  13.902
 8289W        W73549  11.255  14.075  13.559
 8290W        W73550  25.428  35.631  14.950
 8291W        W73551  12.405  12.282  12.597
 8292W        W73552   0.847  35.625  13.988
 8293W        W73553  12.349  16.087   0.398
 8294W        W73554  37.806  32.955   2.696
 8295W        W73555  41.553  28.618  13.763
 8296W        W73556   5.810  19.925  14.054
 8297W        W73557  44.358  41.350  10.644
 8298W        W73558  29.230  19.199   1.221
 8299W        W73559  34.088   3.290   3.044
 8300W        W73560  15.158  23.218  13.887
 8301W        W73561  39.961  29.619  14.947
 8302W        W73562  39.805  13.668   3.690
 8303W        W73563  22.677  32.569  13.149
 8304W        W73564   8.223  30.791   3.411
 8305W        W73565  38.262  30.559  10.970
 8306W        W73566  35.916  13.092   3.866
 8307W        W73567  42.475  24.013  13.482
 8308W        W73568  10.716  35.967  11.239
 8309W        W73569  39.438  13.790  11.794
 8310W        W73570  40.070  36.552   4.069
 8311W        W73571  28.850  40.181  11.612
 8312W        W73572   6.292   5.645   4.017
 8313W        W73573  27.104  18.570   2.666
 8314W        W73574  39.442  31.211   2.843
 8315W        W73575   7.703  29.515  13.541
 8316W        W73576   4.857  31.652   0.017
 8317W        W73577  15.149  14.502   1.677
 8318W        W73578  17.541  30.455  11.138
 8319W        W73579   8.732  43.327   1.907
 8320W        W73580  13.501  12.837  12.605
 8321W        W73581  31.525   0.874   0.635
 8322W        W73582   4.602  35.846   5.049
 8323W        W73583  28.048  15.629  12.945
 8324W        W73584  26.424  28.571   2.048
 8325W        W73585  22.476   9.764  13.962
 8326W        W73586  41.420   1.770   0.386
 8327W        W73587   5.720  30.926  10.938
 8328W        W73588  33.398   4.494  13.124
 8329W        W73589  29.826  26.966  14.310
 8330W        W73590  28.500   7.416  13.560
 8331W        W73591  38.610   9.697   0.135
 8332W        W73592  38.152  14.653  14.569
 8333W        W73593  26.611  13.118   1.995
 8334W        W73594  23.254  14.980   1.661
 8335W        W73595   5.801  19.005  14.385
 8336W        W73596  29.477  17.047  11.049
 8337W        W73597  41.969  30.091   2.212
 8338W        W73598  21.009  26.321  14.951
 8339W        W73599  38.390  37.520  11.195
 8340W        W73600  35.555  38.383  14.904
 8341W        W73601  31.023  41.204  12.225
 8342W        W73602  35.213  39.624  12.092
 8343W        W73603  26.417  17.782  12.469
 8344W        W73604  20.636   1.800  13.083
 8345W        W73605   1.698  13.105   0.802
 8346W        W73606  18.460   3.447  10.533
 8347W        W73607  17.715  42.241  12.946
 8348W        W73608  37.087  21.771  12.453
 8349W        W73609  10.972  44.629   3.655
 8350W        W73610  25.542   7.358  11.363
 8351W        W73611  15.857  16.575   0.421
 8352W        W73612  39.966  14.081   0.936
 8353W        W73613  14.287  34.919  11.605
 8354W        W73614  21.672   2.483   2.843
 8355W        W73615  29.652  20.048  14.608
 8356W        W73616  37.747   7.233  14.925
 8357W        W73617  43.417  39.506   2.191
 8358W        W73618   6.311  26.869  13.417
 8359W        W73619  16.460   6.765  13.599
 8360W        W73620  44.952  40.308  13.057
 8361W        W73621  37.008  23.748   3.283
 8362W        W73622  36.814  17.462  14.367
 8363W        W73623   9.175  35.361   2.287
 8364W        W73624   7.178  24.605  11.879
 8365W        W73625  21.566   7.861   3.547
 8366W        W73626  10.707   2.059  14.555
 8367W        W73627  12.561  10.586   2.162
 8368W        W73628  18.588  39.247   1.874
 8369W        W73629  20.024   8.233   1.528
 8370W        W73630  31.097   1.395  10.416
 8371W        W73631  44.716   9.405   4.993
 8372W        W73632  10.992  31.122  14.359
 8373W        W73633  35.651  31.388  14.054
 8374W        W73634   6.760  26.623  11.606
 8375W        W73635  10.297  39.527   3.313
 8376W        W73636  19.058  34.488  13.501
 8377W        W73637  24.010  10.832   3.363
 8378W        W73638  33.059  40.771   1.838
 8379W        W73639  36.660  29.654  12.565
 8380W        W73640   5.039  16.440  14.148
 8381W        W73641   5.989  38.977   2.650
 8382W        W73642  23.638  13.780   0.494
 8383W        W73643  10.277  22.974   4.154
 8384W        W73644  15.058  16.839  12.074
 8385W        W73645  32.154  11.063   5.191
 8386W        W73646   8.745  16.064  14.974
 8387W        W73647  17.768  37.306   3.847
 8388W        W73648  41.904  28.647  10.953
 8389W        W73649  29.084   1.521  14.909
 8390W        W73650  18.753  40.003  11.592
 8391W        W73651  37.378  32.538   4.221
 8392W        W73652  15.059  11.912   2.857
 8393W        W73653  43.815  19.316  14.740
 8394W        W73654  28.994   2.900   4.870
 8395W        W73655  38.499  13.930   1.331
 8396W        W73656  20.541   0.341  14.419
 8397W        W73657  27.572  10.045  14.039
 8398W        W73658  44.304  17.207   0.817
 8399W        W73659  10.912  28.665   3.654
 8400W        W73660  40.105  40.420  14.508
 8401W        W73661   4.713  26.197  10.654
 8402W        W73662  33.083  28.180   4.199
 8403W        W73663  22.350  43.331   3.306
 8404W        W73664  29.638  33.895   0.229
 8405W        W73665  42.200  31.960   4.537
 8406W        W73666  34.448  43.394  10.874
 8407W        W73667  31.309   6.535  13.771
 8408W        W73668  11.709   5.924  13.581
 8409W        W73669  26.748   4.671   2.191
 8410W        W73670  13.576  25.164   0.710
 8411W        W73671  33.412  16.534   3.622
 8412W        W73672  20.534   3.666   3.502
 8413W        W73673  38.955  19.851  11.693
 8414W        W73674  20.827  28.598   1.466
 8415W        W73675  13.326  44.266   2.787
 8416W        W73676  18.087   0.694  13.024
 8417W        W73677   9.422  18.297   2.220
 8418W        W73678  14.893  19.879   4.897
 8419W        W73679  14.682  35.901   3.707
 8420W        W73680  36.824  27.707  14.624
 8421W        W73681  31.004  33.434   1.902
 8422W        W73682  28.051  41.424  12.048
 8423W        W73683   4.952  15.965   3.685
 8424W        W73684  20.151  41.674  12.114
 8425W        W73685  31.088   6.668  12.072
 8426W        W73686   9.671   7.866   2.886
 8427W        W73687  27.908  42.624   4.599
 8428W        W73688   7.222   1.170  12.733
 8429W        W73689   1.288  36.942   4.528
 8430W        W73690  10.122   2.387  13.031
 8431W        W73691   7.704  13.726   3.649
 8432W        W73692   0.450  23.018  12.486
 8433W        W73693  22.719  14.582   2.783
 8434W        W73694  41.558  31.092  14.020
 8435W        W73695   3.852  18.795   0.428
 8436W        W73696  24.105   2.455  13.766
 8437W        W73697  30.338   1.316   1.535
 8438W        W73698  23.352  18.319   1.418
 8439W        W73699  10.353  24.054   2.636
 8440W        W73700  35.576  20.223   0.907
 8441W        W73701   0.487  27.590  12.851
 8442W        W73702  27.800  25.073   3.477
 8443W        W73703   5.119   9.967   0.675
 8444W        W73704  42.054  44.008  11.139
 8445W        W73705  15.531  21.116  12.213
 8446W        W73706  31.636   0.319  12.170
 8447W        W73707  16.063  28.361  14.807
 8448W        W73708  15.189  42.230  11.373
 8449W        W73709  15.635  42.951   1.772
 8450W        W73710   9.332  22.739   4.287
 8451W        W73711  35.424  17.249   4.681
 8452W        W73712  11.261  10.100  12.048
 8453W        W73713  21.162  15.811  10.183
 8454W        W73714  33.906  18.838  11.097
 8455W        W73715   9.843  25.216  13.277
 8456W        W73716  30.852   5.798  11.477
 8457W        W73717   7.270  31.091   2.169
 8458W        W73718  37.306  21.661  12.012
 8459W        W73719  20.139  23.599  10.239
 8460W        W73720  10.150  39.503  14.959
 8461W        W73721  16.612  18.976   0.873
 8462W        W73722  23.339  15.690  13.874
 8463W        W73723  41.832  13.330  11.004
 8464W        W73724  32.257  14.578  12.543
 8465W        W73725  12.003  29.132  12.979
 8466W        W73726  38.486  13.542  13.553
 8467W        W73727  23.154  27.490   4.556
 8468W        W73728  43.569   1.796   2.186
 8469W        W73729   3.723  21.246  11.636
 8470W        W73730  28.877  21.035  14.888
 8471W        W73731  14.618  43.837   4.529
 8472W        W73732  42.704  44.355   1.752
 8473W        W73733   6.560  36.260  13.996
 8474W        W73734  13.280  18.647   2.484
 8475W        W73735  20.978   3.730   4.716
 8476W        W73736  35.860  37.366  13.129
 8477W        W73737  31.084  31.148  12.139
 8478W        W73738   1.620  14.198  14.047
 8479W        W73739  31.898  27.668  11.151
 8480W        W73740  16.133  21.672   2.756
 8481W        W73741  33.917  33.389   2.745
 8482W        W73742  34.078  17.670   3.530
 8483W        W73743  40.116   3.151  13.902
 8484W        W73744  27.173  11.976   3.918
 8485W        W73745  19.536   6.007   2.661
 8486W        W73746  36.215  32.875   1.077
 8487W        W73747  11.075  18.455   1.984
 8488W        W73748  41.837  14.214   0.167
 8489W        W73749  10.111  25.680  13.796
 8490W        W73750  10.912  20.996  13.352
 8491W        W73751  23.553  20.676  12.452
 8492W        W73752  44.927  42.048  12.145
 8493W        W73753  23.690  20.394  12.038
 8494W        W73754  36.947  32.353   0.574
 8495W        W73755  44.129  19.146   4.608
 8496W        W73756  39.502  39.536  12.505
 8497W        W73757   2.489  24.158  11.119
 8498W        W73758   3.381  29.132   0.932
 8499W        W73759  11.287   4.184  12.467
 8500W        W73760   8.885   3.494  13.056
 8501W        W73761  12.389  40.821  11.544
 8502W        W73762  41.454  15.771   1.046
 8503W        W73763  26.913  31.684  14.819
 8504W        W73764  20.332   9.366  13.390
 8505W        W73765   0.270  39.371  10.449
 8506W        W73766  28.052  44.748  13.441
 8507W        W73767  31.829   9.799   4.937
 8508W        W73768   7.497  24.070   0.456
 8509W        W73769  27.098   0.289   3.122
 8510W        W73770  16.617  12.445   4.017
 8511W        W73771  41.622  14.865  13.393
 8512W        W73772  16.316   3.795  11.928
 8513W        W73773   2.180  20.670   0.730
 8514W        W73774  23.503  31.645  13.023
 8515W        W73775   1.036   9.278   0.185
 8516W        W73776  29.505  21.640   2.818
 8517W        W73777   8.676  35.428   0.321
 8518W        W73778  24.451  28.622  11.038
 8519W        W73779  23.133  16.684  12.606
 8520W        W73780  11.081  27.188   1.816
 8521W        W73781  35.455  22.374  13.479
 8522W        W73782  44.557  14.282  13.052
 8523W        W73783  12.120  40.278   2.757
 8524W        W73784  14.967  21.534   2.200
 8525W        W73785  42.568   0.430  14.432
 8526W        W73786  24.289  32.032  10.689
 8527W        W73787  11.034   2.349  13.944
 8528W        W73788  20.177  29.621  14.221
 8529W        W73789   1.365  41.461   3.656
 8530W        W73790  20.625  36.863  10.956
 8531W        W73791   2.226  38.880   3.662
 8532W        W73792  29.925  29.984   3.155
 8533W        W73793   6.653   4.135   1.594
 8534W        W73794   8.342   4.524   0.357
 8535W        W73795  25.554  14.255   2.130
 8536W        W73796  11.380  22.756  12.584
 8537W        W73797  28.359  32.142   0.323
 8538W        W73798  27.492  42.935   4.684
 8539W        W73799  38.887  14.617   3.870
 8540W        W73800  32.842  29.614   4.126
 8541W        W73801  26.357  32.103  10.744
 8542W        W73802  12.941  14.709   3.940
 8543W        W73803   2.405  21.130   1.887
 8544W        W73804  17.167  11.688  14.698
 8545W        W73805  27.379  13.092  14.378
 8546W        W73806  25.536   6.233   0.601
 8547W        W73807   2.844   2.030   0.397
 8548W        W73808  29.945  28.297  11.154
 8549W        W73809  19.597  44.535   2.805
 8550W        W73810  25.441  34.932   1.273
 8551W        W73811   0.902  35.832  10.695
 8552W        W73812  28.449  25.562  10.571
 8553W        W73813  26.519  19.796  14.502
 8554W        W73814  27.729   7.683   1.664
 8555W        W73815  34.100  44.436  11.272
 8556W        W73816   5.040  16.544   1.490
 8557W        W73817  42.656  20.879  11.427
 8558W        W73818  18.344  41.275  10.279
 8559W        W73819   1.825  23.183  14.904
 8560W        W73820  25.100  38.122   0.404
 8561W        W73821  38.947   5.183   3.348
 8562W        W73822  20.130  43.007   3.277
 8563W        W73823  30.657  33.123  10.692
 8564W        W73824  31.068  36.646  14.675
 8565W        W73825   2.257  29.956  13.180
 8566W        W73826  12.849  35.573   1.744
 8567W        W73827  16.045  14.377  10.992
 8568W        W73828  42.679  39.532   4.427
 8569W        W73829  14.361  18.178  14.489
 8570W        W73830  42.660  23.686   1.454
 8571W        W73831   3.703  41.108   2.330
 8572W        W73832   6.264  35.603  14.646
 8573W        W73833  13.253  10.391  11.661
 8574W        W73834   9.787  11.669   2.817
 8575W        W73835  18.883  41.332   3.589
 8576W        W73836  39.768   8.814  13.411
 8577W        W73837  34.827   7.581   1.886
 8578W        W73838   3.341  21.550  12.557
 8579W        W73839  35.628  12.644   1.190
 8580W        W73840  22.904   8.918  10.455
 8581W        W73841   0.569   5.760   1.955
 8582W        W73842   3.656  10.556  14.891
 8583W        W73843  12.640   2.179   2.725
 8584W        W73844  10.259   0.881  13.916
 8585W        W73845  25.803  26.170   1.926
 8586W        W73846   1.198  23.818  11.533
 8587W        W73847  42.784  21.111  13.015
 8588W        W73848  28.220  38.467  12.184
 8589W        W73849  12.727  14.990   0.822
 8590W        W73850  14.650  34.372  11.098
 8591W        W73851   0.408   0.532   1.373
 8592W        W73852  31.739  22.692  13.548
 8593W        W73853  33.531  22.473   2.661
 8594W        W73854  33.970  13.227  14.943
 8595W        W73855  35.537  15.398   1.344
 8596W        W73856  32.139  26.170  14.420
 8597W        W73857   1.485   4.776   2.891
 8598W        W73858  12.163  18.618   4.197
 8599W        W73859   8.870  28.491   1.295
 8600W        W73860  24.615  34.798   2.111
 8601W        W73861  11.344  19.564   1.175
 8602W        W73862   0.908   1.943  13.103
 8603W        W73863  12.759  26.221   0.751
 8604W        W73864   3.311  44.489  13.853
 8605W        W73865  27.162  43.452  14.040
 8606W        W73866  43.441  44.673   3.538
 8607W        W73867  22.503  21.823   4.214
 8608W        W73868   5.478  26.535   0.755
 8609W        W73869  20.227  16.636  14.508
 8610W        W73870  13.280  28.582   0.427
 8611W        W73871   6.810  40.898  10.727
 8612W        W73872  32.949  14.945  10.565
 8613W        W73873  40.879  18.196  10.715
 8614W        W73874  14.517  20.662   1.965
 8615W        W73875  26.538  43.417  12.850
 8616W        W73876  40.779  30.625  14.543
 8617W        W73877   0.509  22.450   4.123
 8618W        W73878  36.959  27.496  11.422
 8619W        W73879  10.282  31.546   3.168
 8620W        W73880  20.281  15.873  11.890
 8621W        W73881   6.176  28.116  14.433
 8622W        W73882  38.586   0.345  13.592
 8623W        W73883  40.929   7.616  14.963
 8624W        W73884  18.474  37.576  14.337
 8625W        W73885  38.513  22.421  12.337
 8626W        W73886  23.124  14.110  10.902
 8627W        W73887  36.627  13.043   4.118
 8628W        W73888  23.541  35.067   2.144
 8629W        W73889  27.840  22.446   3.656
 8630W        W73890   2.689  37.802  14.810
 8631W        W73891  38.717  30.127  12.833
 8632W        W73892   4.311  19.828  12.751
 8633W        W73893  22.446  44.777   0.897
 8634W        W73894   1.038  34.442   0.238
 8635W        W73895  44.196  42.595   0.287
 8636W        W73896  31.644  34.191   3.200
 8637W        W73897   5.892  23.220   0.395
 8638W        W73898  14.212  42.407   4.510
 8639W        W73899  43.011  15.686   2.914
 8640W        W73900  17.473  33.534  13.339
 8641W        W73901  21.511  19.175   5.621
 8642W        W73902  39.772   9.128  12.985
 8643W        W73903  31.454  31.745  14.913
 8644W        W73904  34.847  19.230  13.507
 8645W        W73905  18.113  35.291   4.564
 8646W        W73906  10.819  13.700   3.642
 8647W        W73907  20.008  42.830   0.674
 8648W        W73908  28.723  34.442  12.916
 8649W        W73909   4.722  18.567   3.641
 8650W        W73910   7.170   1.272  14.812
 8651W        W73911   4.319  33.510   4.916
 8652W        W73912   5.575  30.044   3.380
 8653W        W73913  22.017   5.686   2.772
 8654W        W73914   6.000   3.366  13.229
 8655W        W73915  34.110  10.941   0.438
 8656W        W73916  27.456  32.159   4.047
 8657W        W73917  41.454  10.200   4.624
 8658W        W73918  12.180  25.991   3.288
 8659W        W73919   1.959  41.371   1.468
 8660W        W73920  15.355   0.935  13.740
 8661W        W73921  27.943  44.240   0.460
 8662W        W73922   4.441  41.365  10.772
 8663W        W73923   4.354  43.854   0.573
 8664W        W73924   8.907   3.336   1.216
 8665W        W73925  18.510   2.712  12.364
 8666W        W73926  41.445  40.796   1.446
 8667W        W73927   1.411  11.789   3.172
 8668W        W73928   2.871  29.713   3.453
 8669W        W73929  21.970  39.913   1.297
 8670W        W73930  29.627   7.067   0.275
 8671W        W73931  28.601  17.370  12.197
 8672W        W73932   7.290   4.222  13.910
 8673W        W73933   5.366  22.965  12.825
 8674W        W73934  38.357  20.126   0.192
 8675W        W73935  17.016   2.105  12.687
 8676W        W73936  14.735  18.856   3.483
 8677W        W73937  19.003  14.613  13.983
 8678W        W73938   5.842  23.951  10.636
 8679W        W73939  30.871  42.010  10.730
 8680W        W73940  25.152  19.031   3.510
 8681W        W73941  32.014  24.884   2.680
 8682W        W73942  40.897  25.613   2.195
 8683W        W73943  10.761   8.294  12.331
 8684W        W73944   6.427  35.685   4.096
 8685W        W73945  13.791   3.597  12.362
 8686W        W73946   5.606   3.339   2.665
 8687W        W73947  15.567   4.354  12.949
 8688W        W73948  29.056   2.783   2.772
 8689W        W73949  22.972  13.724   3.550
 8690W        W73950  11.155  20.130   2.887
 8691W        W73951  26.166  40.559  14.230
 8692W        W73952  43.295  43.087  13.130
 8693W        W73953   1.872  40.764  11.093
 8694W        W73954  35.765  41.489   2.626
 8695W        W73955  39.362  42.929   1.265
 8696W        W73956  28.453  14.738  14.248
 8697W        W73957   2.661   2.880  10.652
 8698W        W73958  35.948   9.258   3.103
 8699W        W73959  13.953  24.059  11.499
 8700W        W73960  31.421  41.063   1.451
 8701W        W73961   1.244   4.261   3.698
 8702W        W73962  18.810  28.927   3.714
 8703W        W73963  44.445   4.217  14.125
 8704W        W73964  30.880  16.759   1.403
 8705W        W73965  30.874  21.956  10.982
 8706W        W73966  21.514  40.107  13.173
 8707W        W73967   3.510  14.045  13.763
 8708W        W73968   3.451  36.976  11.743
 8709W        W73969  32.381  34.906   1.968
 8710W        W73970  26.100  43.526  11.980
 8711W        W73971   3.674  43.476  14.001
 8712W        W73972   1.349  38.071   2.710
 8713W        W73973   3.231   6.028   3.635
 8714W        W73974  26.624  35.591   4.709
 8715W        W73975   2.005   4.256   3.316
 8716W        W73976   5.618  36.437  11.649
 8717W        W73977  29.893  16.156  13.297
 8718W        W73978  15.397  44.314   0.970
 8719W        W73979  29.019  34.237   2.382
 8720W        W73980   4.571  19.054   3.095
 8721W        W73981  33.925   4.331  14.310
 8722W        W73982   2.994  36.855   2.946
 8723W        W73983  37.061  29.837  10.864
 8724W        W73984  37.450  12.552  13.760
 8725W        W73985  42.968  30.905  12.513
 8726W        W73986   8.241  25.658  10.955
 8727W        W73987  36.974  42.464   4.340
 8728W        W73988  37.158  25.243   3.397
 8729W        W73989  14.106  41.951  12.678
 8730W        W73990   1.708  19.277   4.658
 8731W        W73991  38.454  16.088   0.764
 8732W        W73992  23.455   4.249   2.768
 8733W        W73993   9.327  12.849  10.521
 8734W        W73994  40.491   0.279   9.874
 8735W        W73995   5.570   8.226   0.486
 8736W        W73996   5.766  39.756   4.578
 8737W        W73997   5.940  42.314  13.433
 8738W        W73998  39.527   0.814   0.402
 8739W        W73999  35.031  19.259   2.725
 8740W        W74000  16.778  14.746  14.779
 8741W        W74001  15.321  28.180   4.128
 8742W        W74002  32.193  44.982  13.951
 8743W        W74003  21.552   4.999   1.495
 8744W        W74004   0.842  40.423  10.639
 8745W        W74005  39.339  36.097   2.634
 8746W        W74006  13.389  13.929  14.105
 8747W        W74007  39.394  31.362   1.248
 8748W        W74008  36.495  28.389   3.048
 8749W        W74009  18.091  11.549  12.136
 8750W        W74010  35.852   5.157  12.069
 8751W        W74011  43.805   3.679   4.166
 8752W        W74012  19.758  15.112   3.249
 8753W        W74013  12.436  43.381  11.905
 8754W        W74014  18.200   3.010   2.792
 8755W        W74015   7.970  41.141   2.805
 8756W        W74016  13.735   3.686   4.060
 8757W        W74017  15.809  40.768   1.279
 8758W        W74018  22.962  42.256   0.346
 8759W        W74019   4.451  38.312  13.130
 8760W        W74020  40.896  16.895   3.380
 8761W        W74021  18.884  24.527   3.373
 8762W        W74022  36.376   8.377  13.845
 8763W        W74023   8.957  29.600   2.472
 8764W        W74024   3.096  15.916   0.318
 8765W        W74025  21.936  41.402   4.316
 8766W        W74026  30.621  43.108  14.031
 8767W        W74027  10.956  16.565   2.348
 8768W        W74028  19.977  43.933  12.066
 8769W        W74029   6.288  19.185  14.412
 8770W        W74030   7.216   8.189   1.239
 8771W        W74031  33.551  10.438   9.914
 8772W        W74032  27.215   4.892   9.977
 8773W        W74033   2.046  15.421  13.501
 8774W        W74034  43.099  40.837   4.621
 8775W        W74035  36.991  20.353   4.111
 8776W        W74036  34.577   9.260  11.486
 8777W        W74037   6.876  14.695  11.187
 8778W        W74038  38.613   9.125   2.241
 8779W        W74039  14.151   9.911   3.328
 8780W        W74040  10.595  37.016  13.171
 8781W        W74041  40.183  23.551   0.396
 8782W        W74042  16.746  28.688   4.113
 8783W        W74043  10.277  33.153   2.302
 8784W        W74044   1.947  38.503   1.657
 8785W        W74045  21.198  22.427   1.748
 8786W        W74046  24.239  38.935  13.978
 8787W        W74047  23.135   0.854  12.738
 8788W        W74048  39.817  31.807  10.902
 8789W        W74049  11.082  42.474  11.685
 8790W        W74050  23.038  25.131  14.429
 8791W        W74051   8.161  33.582  14.759
 8792W        W74052  14.960  39.519  11.607
 8793W        W74053  15.042  43.103   4.131
 8794W        W74054   8.076   1.408   3.316
 8795W        W74055   8.402   6.314   0.757
 8796W        W74056  22.426  44.362  13.947
 8797W        W74057  13.848  26.471  12.985
 8798W        W74058  35.868   8.846  10.800
 8799W        W74059  21.524   0.422  11.358
 8800W        W74060   4.004  39.085   4.188
 8801W        W74061  44.902   7.695  14.339
 8802W        W74062  12.191  15.829  13.905
 8803W        W74063  36.374  34.123  14.281
 8804W        W74064  30.425  43.576  10.614
 8805W        W74065  16.759   2.471   3.748
 8806W        W74066  24.143  44.868  14.477
 8807W        W74067  34.185   2.634   1.444
 8808W        W74068   1.462  23.514   2.758
 8809W        W74069  15.299  21.620   3.177
 8810W        W74070   3.472  15.865  12.973
 8811W        W74071  14.734  31.936  14.946
 8812W        W74072  12.254   5.849  12.886
 8813W        W74073  23.734  28.543   0.682
 8814W        W74074   7.910  36.875  12.532
 8815W        W74075   9.818  12.553   1.205
 8816W        W74076  21.349  42.183   5.054
 8817W        W74077  41.887  32.359  13.412
 8818W        W74078   6.668  30.215  14.510
 8819W        W74079  26.064  13.434   4.174
 8820W        W74080  36.998  44.716   1.895
 8821W        W74081  18.701  30.800  11.844
 8822W        W74082   9.829  44.594  14.110
 8823W        W74083  16.707  18.537   1.750
 8824W        W74084  22.225  11.382   3.113
 8825W        W74085  42.833  29.479   5.036
 8826W        W74086  41.596  13.945   1.348
 8827W        W74087  36.326  42.327  14.056
 8828W        W74088  16.428  37.753  12.088
 8829W        W74089  39.016  30.383   0.868
 8830W        W74090  10.256   1.669   0.274
 8831W        W74091  42.777  41.882  10.871
 8832W        W74092  44.536  29.615   4.000
 8833W        W74093  25.213  34.665  12.348
 8834W        W74094  20.576  29.618  12.841
 8835W        W74095  11.661   6.167   9.788
 8836W        W74096  39.041   3.392   4.179
 8837W        W74097  18.545  35.020   4.937
 8838W        W74098  22.277   5.178   0.050
 8839W        W74099  27.104  36.955  13.759
 8840W        W74100  35.532  31.920   4.993
 8841W        W74101  17.290  33.653  14.745
 8842W        W74102  23.641  37.885   4.621
 8843W        W74103   1.359  30.654  10.785
 8844W        W74104  13.549  25.746  10.883
 8845W        W74105  17.283  27.201  13.824
 8846W        W74106   3.754   9.688   4.072
 8847W        W74107   0.708  40.342   2.491
 8848W        W74108  36.415  39.490   0.894
 8849W        W74109  29.614  32.066  14.971
 8850W        W74110  27.121  29.394  11.154
 8851W        W74111   3.390  10.668   3.174
 8852W        W74112  14.794  39.466   2.729
 8853W        W74113  20.361  22.001   1.725
 8854W        W74114   1.305  17.782   0.757
 8855W        W74115  18.215   5.740  11.400
 8856W        W74116  11.934  13.620  14.043
 8857W        W74117  20.256  32.933  12.357
 8858W        W74118  35.819  11.843   0.411
 8859W        W74119  12.867  19.680   3.277
 8860W        W74120  18.076   7.825   2.375
 8861W        W74121  15.006  43.210  11.104
 8862W        W74122  44.897  32.546  13.240
 8863W        W74123  41.712  27.596  14.376
 8864W        W74124  16.741  24.058   1.913
 8865W        W74125  36.477   4.246  14.983
 8866W        W74126  21.725   2.550  11.060
 8867W        W74127  42.348  30.082  11.471
 8868W        W74128  34.927  13.317  12.043
 8869W        W74129  10.132  15.725  14.879
 8870W        W74130  39.974   9.593  12.972
 8871W        W74131  37.041  37.840   3.667
 8872W        W74132  25.079  26.421   3.890
 8873W        W74133  39.427  39.893  10.437
 8874W        W74134  34.454   0.419   1.540
 8875W        W74135  25.739  30.537   2.321
 8876W        W74136   3.397  40.811   0.487
 8877W        W74137  28.477  44.365   0.384
 8878W        W74138   5.707  12.681  12.001
 8879W        W74139  35.403   4.233   4.139
 8880W        W74140  44.460  44.353  11.191
 8881W        W74141  41.524  12.252  14.443
 8882W        W74142  34.846  15.897  12.380
 8883W        W74143  33.636   5.318  10.672
 8884W        W74144  17.356  29.190   3.790
 8885W        W74145   6.878   2.338  10.826
 8886W        W74146  42.241  43.883   0.300
 8887W        W74147  36.048  39.591   1.872
 8888W        W74148  32.660  23.445   2.185
 8889W        W74149  18.507   0.255  14.075
 8890W        W74150   1.540  21.580   0.732
 8891W        W74151   9.894  32.387   0.696
 8892W        W74152  24.409  14.324  12.553
 8893W        W74153  41.494  34.395   2.613
 8894W        W74154  44.849  17.758  14.804
 8895W        W74155  28.803  17.406   0.871
 8896W        W74156  30.508   1.857   4.488
 8897W        W74157  38.479  36.442   2.229
 8898W        W74158  17.796   3.714  11.132
 8899W        W74159   8.644   3.173   3.856
 8900W        W74160  23.228  41.829   2.264
 8901W        W74161  11.919  35.521  13.010
 8902W        W74162   4.374  22.786   2.392
 8903W        W74163  14.170  32.172  11.680
 8904W        W74164  15.271  40.552   4.410
 8905W        W74165  26.672   0.963  13.911
 8906W        W74166  33.366  38.299  13.521
 8907W        W74167  32.121  33.548   4.349
 8908W        W74168   6.124  36.966  12.178
 8909W        W74169  34.417  23.247  12.461
 8910W        W74170   6.894  16.917   3.729
 8911W        W74171  29.829  15.351   1.187
 8912W        W74172  20.527  23.223   2.748
 8913W        W74173   6.775   8.188  12.019
 8914W        W74174  13.453  15.798  13.383
 8915W        W74175   2.199  37.944  13.882
 8916W        W74176  35.117   5.768   4.273
 8917W        W74177  43.567  18.948  12.481
 8918W        W74178   6.215  41.862  13.368
 8919W        W74179   8.896  25.100   3.643
 8920W        W74180   3.295  40.876   4.207
 8921W        W74181  18.532  25.350  13.535
 8922W        W74182   9.178  25.080  13.133
 8923W        W74183  30.911   5.673   1.146
 8924W        W74184  40.317  25.074  13.368
 8925W        W74185   4.294  25.832  10.114
 8926W        W74186  32.165  26.252   2.417
 8927W        W74187  19.993  31.909   2.434
 8928W        W74188  18.803  27.764  13.423
 8929W        W74189  41.796  39.351   1.298
 8930W        W74190  21.759  23.929   1.230
 8931W        W74191  12.182   0.778  13.172
 8932W        W74192   2.770   0.519   4.601
 8933W        W74193  43.288  31.784  14.606
 8934W        W74194  35.105  23.166  11.247
 8935W        W74195  16.893  31.083  10.381
 8936W        W74196   4.372   6.745   1.823
 8937W        W74197   3.898   1.162  14.414
 8938W        W74198  19.835  16.041  12.581
 8939W        W74199   9.273  12.003  11.590
 8940W        W74200  20.784  28.076  14.027
 8941W        W74201  11.462  31.073   2.256
 8942W        W74202  24.768  10.748  11.028
 8943W        W74203  14.647  10.864   3.170
 8944W        W74204  14.727  40.761   0.967
 8945W        W74205   5.444  26.797  11.936
 8946W        W74206  42.053  38.891  11.523
 8947W        W74207  24.170  10.850  13.346
 8948W        W74208  33.518  37.883  13.174
 8949W        W74209  28.540  29.428   2.279
 8950W        W74210   7.438   6.140  11.186
 8951W        W74211  40.924  12.095  12.060
 8952W        W74212  34.852  17.172   3.655
 8953W        W74213  22.516  41.308   2.270
 8954W        W74214   1.491  30.417   2.415
 8955W        W74215  32.081  28.442   2.775
 8956W        W74216   2.360  12.791   2.336
 8957W        W74217  18.717  29.935  11.875
 8958W        W74218  31.491  39.328   1.880
 8959W        W74219   3.060   5.010  12.579
 8960W        W74220  20.620  17.949   3.483
 8961W        W74221   8.910  43.588  14.351
 8962W        W74222   9.739   3.384  11.671
 8963W        W74223  12.764  20.535  10.875
 8964W        W74224  24.017  32.310  13.046
 8965W        W74225   3.049  10.876   9.953
 8966W        W74226  30.566  35.320  10.585
 8967W        W74227  36.571  37.648   4.814
 8968W        W74228  40.340  33.792  12.891
 8969W        W74229  16.134   7.610   0.272
 8970W        W74230  17.672  18.088   1.034
 8971W        W74231  12.844  35.863   1.266
 8972W        W74232  24.201   9.770   4.791
 8973W        W74233   2.956  29.939   9.651
 8974W        W74234  43.070   8.348  14.558
 8975W        W74235  31.969  18.381   4.191
 8976W        W74236   4.780  39.208  10.549
 8977W        W74237  42.388  40.298   2.137
 8978W        W74238  44.204  13.458   4.868
 8979W        W74239  42.017   9.758   1.436
 8980W        W74240  10.060   1.960   2.721
 8981W        W74241  14.841  26.307   1.852
 8982W        W74242   9.125  18.130  13.076
 8983W        W74243  16.204   7.379  12.524
 8984W        W74244  32.557  42.994   0.812
 8985W        W74245  33.821  32.403   4.116
 8986W        W74246  33.501  18.214  11.184
 8987W        W74247   6.712  28.598   2.215
 8988W        W74248  43.178  26.541   3.668
 8989W        W74249  32.361   4.928  14.293
 8990W        W74250  39.813  11.203   3.258
 8991W        W74251  10.005  39.343  12.471
 8992W        W74252  39.956  27.033  14.456
 8993W        W74253  16.154   4.782   4.085
 8994W        W74254   9.774   3.013   4.555
 8995W        W74255  27.635  27.418   4.024
 8996W        W74256  35.456  33.359  10.440
 8997W        W74257  40.361  28.423  11.160
 8998W        W74258  13.422  11.318  13.094
 8999W        W74259  39.753  35.387   2.355
 9000W        W74260  26.062   0.424   1.920
 9001W        W74261   0.912  26.740   2.630
 9002W        W74262   1.164   4.811  11.411
 9003W        W74263  26.036  10.129  12.015
 9004W        W74264  36.300  41.057   0.277
 9005W        W74265  43.724  25.064  12.981
 9006W        W74266   2.741  34.917   1.494
 9007W        W74267  18.288  25.681   2.163
 9008W        W74268  41.470  42.004   4.302
 9009W        W74269  31.710  37.556   2.880
 9010W        W74270  25.366  18.540   1.750
 9011W        W74271  11.090  23.568   4.146
 9012W        W74272  18.143  15.012   3.115
 9013W        W74273  25.661  35.136   4.585
 9014W        W74274  20.812  35.379   2.812
 9015W        W74275  23.145  36.379   3.563
 9016W        W74276  41.489  12.933  14.786
 9017W        W74277   7.747  20.631  13.411
 9018W        W74278  41.562   3.413   3.813
 9019W        W74279  29.679  32.303   3.254
 9020W        W74280  22.366  26.269   4.190
 9021W        W74281   5.815  44.187   1.504
 9022W        W74282   7.160  36.426  11.235
 9023W        W74283  35.025  33.569  11.140
 9024W        W74284   0.152  19.660   3.212
 9025W        W74285  40.995  24.787   0.409
 9026W        W74286  42.792   9.723   2.843
 9027W        W74287  44.563  41.899  14.003
 9028W        W74288  18.914  36.977   1.065
 9029W        W74289  21.072  36.801  10.720
 9030W        W74290  27.966  35.564  14.086
 9031W        W74291   5.630  25.510   2.227
 9032W        W74292  23.804  38.531  10.718
 9033W        W74293  40.468  38.740  14.794
 9034W        W74294  13.251   3.277  13.395
 9035W        W74295  20.821  14.065  10.300
 9036W        W74296  18.070  26.649   3.132
 9037W        W74297  27.236   0.383  10.917
 9038W        W74298  10.993   3.874   0.709
 9039W        W74299  13.845  29.216  14.309
 9040W        W74300   0.970  20.709   3.099
 9041W        W74301  16.163  14.015   0.277
 9042W        W74302  14.827  37.901  14.165
 9043W        W74303  28.814  32.005  13.966
 9044W        W74304  19.787   5.319  13.951
 9045W        W74305   0.116  11.097   1.453
 9046W        W74306  13.136  38.179   4.830
 9047W        W74307  24.131  43.122  11.230
 9048W        W74308  13.099  21.682  13.560
 9049W        W74309  30.470   7.150   1.214
 9050W        W74310  11.762  36.092   5.195
 9051W        W74311  24.174  12.103   1.479
 9052W        W74312   7.661  16.763  11.513
 9053W        W74313  22.657  16.767   3.096
 9054W        W74314  17.261   5.211  11.960
 9055W        W74315  28.447   3.146   4.283
 9056W        W74316   6.955  40.702  12.971
 9057W        W74317  10.271  18.157   2.924
 9058W        W74318   6.895  18.743   1.941
 9059W        W74319  37.547  39.950   3.862
 9060W        W74320  44.398  30.040   3.726
 9061W        W74321  41.520  34.030   0.323
 9062W        W74322  37.497   1.696  14.877
 9063W        W74323  16.691   3.286   0.507
 9064W        W74324  41.874  13.257  12.345
 9065W        W74325  26.647  24.116  14.909
 9066W        W74326  30.601   4.518  14.416
 9067W        W74327   0.784  19.167  10.566
 9068W        W74328  24.705   1.797  13.372
 9069W        W74329  19.419  22.311   0.594
 9070W        W74330  13.872   5.299   3.298
 9071W        W74331  37.415  17.796  11.063
 9072W        W74332  30.676  22.579  11.710
 9073W        W74333  35.535   3.306  14.783
 9074W        W74334  34.545  37.144  12.898
 9075W        W74335  20.632  22.476  12.172
 9076W        W74336  34.063  24.698  14.838
 9077W        W74337   9.778  18.137  14.471
 9078W        W74338  28.113  26.003   1.676
 9079W        W74339  23.205  41.583  14.021
 9080W        W74340  39.605  27.584   4.195
 9081W        W74341   6.136  14.561  12.318
 9082W        W74342  10.712  43.260   3.438
 9083W        W74343  29.264  22.639   4.560
 9084W        W74344   3.958  12.874   0.788
 9085W        W74345  43.440  11.339   2.874
 9086W        W74346  33.330   6.621   2.195
 9087W        W74347  23.678  23.134  10.669
 9088W        W74348  35.883  13.327  13.898
 9089W        W74349   6.752  40.305  11.880
 9090W        W74350  32.849  39.224   1.067
 9091W        W74351  35.577  32.436   3.329
 9092W        W74352  24.991  22.302   4.837
 9093W        W74353   8.895  23.640  10.848
 9094W        W74354  11.809  36.460   3.293
 9095W        W74355  21.966  32.078   4.092
 9096W        W74356  30.774  28.427  13.850
 9097W        W74357  13.979  22.231  12.544
 9098W        W74358  20.081   6.026  11.264
 9099W        W74359  44.023   0.396  12.514
 9100W        W74360  38.016   3.749   2.909
 9101W        W74361  14.116  30.118   1.825
 9102W        W74362  14.393   1.878   3.770
 9103W        W74363  38.859  12.863   2.820
 9104W        W74364  18.129  29.995  14.782
 9105W        W74365  27.224  22.150  14.251
 9106W        W74366   1.997  25.607  11.324
 9107W        W74367  22.438  18.686   5.412
 9108W        W74368  39.332  32.965   1.283
 9109W        W74369  43.971  17.681  10.699
 9110W        W74370  34.491  15.409   0.555
 9111W        W74371  18.334  30.656   4.211
 9112W        W74372  19.963  10.395   3.234
 9113W        W74373  20.534   3.318  14.417
 9114W        W74374  32.576  24.606   2.216
 9115W        W74375   7.232  33.625  12.914
 9116W        W74376  34.570  29.123  13.841
 9117W        W74377  37.866   3.261   3.354
 9118W        W74378   5.553  38.916   4.123
 9119W        W74379  22.698   9.796   1.893
 9120W        W74380  16.286  33.137  12.870
 9121W        W74381  32.319  10.128   2.325
 9122W        W74382  27.857  40.328  11.620
 9123W        W74383  10.427  38.566   3.659
 9124W        W74384  44.085   6.402   3.109
 9125W        W74385   9.672  28.954  11.202
 9126W        W74386   6.999  29.148  11.707
 9127W        W74387   0.028   1.059   0.340
 9128W        W74388   3.824   2.365   0.652
 9129W        W74389  41.388  32.950  11.956
 9130W        W74390   9.790  37.119  10.986
 9131W        W74391  18.752  36.402  14.150
 9132W        W74392  17.477  41.509   3.737
 9133W        W74393  15.597  37.068  11.990
 9134W        W74394  15.236  38.920  13.414
 9135W        W74395   9.829  20.735  10.389
 9136W        W74396  28.440   8.432  14.447
 9137W        W74397  25.020  25.153   0.470
 9138W        W74398   1.173  21.150   2.657
 9139W        W74399  37.585  15.368   4.933
 9140W        W74400  40.945  27.187  11.875
 9141W        W74401  41.833  11.210  13.342
 9142W        W74402  27.904  24.897  11.094
 9143W        W74403  23.544   9.430  13.114
 9144W        W74404  36.370  30.866   3.658
 9145W        W74405  41.419  12.275   3.138
 9146W        W74406   2.421   9.295   4.532
 9147W        W74407  41.577  12.303   2.646
 9148W        W74408  31.535  24.776   4.237
 9149W        W74409   1.867  22.484   0.418
 9150W        W74410  11.363  12.725   4.331
 9151W        W74411  28.047  24.705  14.480
 9152W        W74412  25.439  31.778   3.882
 9153W        W74413  24.291   8.317   1.437
 9154W        W74414  17.946  18.899   2.829
 9155W        W74415  36.704  12.323  11.954
 9156W        W74416   6.885  44.752  13.877
 9157W        W74417   3.691  13.600   2.872
 9158W        W74418   9.620  17.852  10.620
 9159W        W74419  42.294  29.057   3.193
 9160W        W74420  21.809  20.667  10.564
 9161W        W74421  17.212  42.305   2.666
 9162W        W74422  24.120  39.560   4.915
 9163W        W74423  44.457   6.825  13.773
 9164W        W74424  23.260  43.255   2.353
 9165W        W74425   1.728  22.541  10.732
 9166W        W74426   1.400  40.079  10.767
 9167W        W74427  15.858   6.910  12.409
 9168W        W74428  27.338  30.090  12.900
 9169W        W74429  19.575  26.738  14.460
 9170W        W74430  16.741  39.857   3.054
 9171W        W74431  27.499  11.534  14.178
 9172W        W74432   0.057  14.370   2.225
 9173W        W74433  41.968   6.892   2.206
 9174W        W74434  30.922  40.728  11.528
 9175W        W74435  33.648  35.546   4.868
 9176W        W74436  19.501  17.727   3.692
 9177W        W74437  42.455   3.205  11.511
 9178W        W74438  31.423  25.898  14.474
 9179W        W74439  43.001   3.197   3.793
 9180W        W74440  18.040  27.918  11.644
 9181W        W74441  19.685  38.822  14.723
 9182W        W74442  31.736  23.501   2.057
 9183W        W74443  42.034   6.481  12.556
 9184W        W74444   1.317  15.179   0.211
 9185W        W74445  21.588  15.127   3.698
 9186W        W74446  17.748  38.128   3.025
 9187W        W74447  18.953  33.814  14.078
 9188W        W74448  16.577  27.696   2.940
 9189W        W74449  42.146  22.078   0.652
 9190W        W74450  15.022  17.092   3.664
 9191W        W74451  20.288  25.141   1.227
 9192W        W74452   5.591   0.847   3.960
 9193W        W74453  25.049  17.354  14.873
 9194W        W74454   9.124  24.619   3.628
 9195W        W74455  37.848  32.067   2.637
 9196W        W74456   5.275  24.719  12.438
 9197W        W74457  23.565  27.421  11.593
 9198W        W74458  25.708   6.830  13.074
 9199W        W74459  12.085  27.959   0.726
 9200W        W74460  15.123  40.335   0.353
 9201W        W74461  33.293  25.420  14.451
 9202W        W74462  27.057  16.194  11.953
 9203W        W74463  27.520  26.605   0.259
 9204W        W74464  29.548   2.766  12.697
 9205W        W74465  20.536  22.606  14.392
 9206W        W74466  16.516  34.395  14.898
 9207W        W74467   2.573   5.159   1.308
 9208W        W74468  26.240  23.507  11.677
 9209W        W74469  13.913  32.837  13.356
 9210W        W74470   3.479  40.905   3.286
 9211W        W74471  25.928  25.462  12.582
 9212W        W74472  13.336   8.814   2.160
 9213W        W74473  37.918  27.031   4.532
 9214W        W74474  11.699  34.392   2.170
 9215W        W74475  23.941  27.136  13.504
 9216W        W74476  23.184   2.165  13.414
 9217W        W74477   9.594   8.758   1.055
 9218W        W74478   9.706   9.364  12.543
 9219W        W74479  17.803  22.921   1.892
 9220W        W74480   5.026   3.835  14.193
 9221W        W74481  11.361  41.900  13.483
 9222W        W74482  22.556  21.577  11.608
 9223W        W74483  35.053  10.103  10.284
 9224W        W74484  28.259  20.299   4.086
 9225W        W74485   9.757   7.120   1.400
 9226W        W74486   0.229  34.883   1.741
 9227W        W74487  44.821  34.862  13.003
 9228W        W74488  16.052  40.073  11.898
 9229W        W74489   0.443  35.552   1.039
 9230W        W74490  11.569  18.135  14.032
 9231W        W74491   1.173  35.922  12.491
 9232W        W74492  23.911  12.261  13.425
 9233W        W74493  17.498  20.747   1.241
 9234W        W74494  26.020   8.953  11.552
 9235W        W74495  43.512  39.600  10.644
 9236W        W74496   2.416  30.244   0.876
 9237W        W74497  11.190   4.167  13.887
 9238W        W74498  16.837  11.255   1.714
 9239W        W74499  15.610  22.986   1.128
 9240W        W74500  15.562  44.907  14.363
 9241W        W74501  17.473  24.766  11.626
 9242W        W74502  28.471  21.073   2.320
 9243W        W74503  41.181  42.764   4.580
 9244W        W74504   9.864  30.377   0.829
 9245W        W74505  20.478  42.471  13.975
 9246W        W74506  38.326  13.583   4.783
 9247W        W74507  17.541  43.337  13.309
 9248W        W74508  28.585   5.345  14.744
 9249W        W74509   9.699  22.106   4.811
 9250W        W74510   6.287  25.888   1.680
 9251W        W74511  41.769   0.855  11.626
 9252W        W74512  24.903  34.429   2.343
 9253W        W74513  33.905  32.116   4.565
 9254W        W74514   1.441  31.618  13.673
 9255W        W74515  36.237  23.501   3.636
 9256W        W74516   5.381   1.243  14.541
 9257W        W74517  44.275   2.910   0.325
 9258W        W74518  41.944  26.452   3.703
 9259W        W74519  27.193  29.192   0.832
 9260W        W74520  34.916  42.322   4.854
 9261W        W74521  36.951  16.043   0.443
 9262W        W74522  31.229  18.610   4.564
 9263W        W74523  20.681  16.632  14.775
 9264W        W74524  11.547   3.303  14.200
 9265W        W74525  34.838  24.075  12.453
 9266W        W74526   6.896  11.704  14.328
 9267W        W74527  12.196  44.025  10.421
 9268W        W74528  13.529  14.366   1.986
 9269W        W74529  11.474  33.110  13.391
 9270W        W74530  28.564  15.752   1.718
 9271W        W74531   3.286  24.659   0.452
 9272W        W74532  27.425  11.897  11.580
 9273W        W74533  22.139  31.903   4.541
 9274W        W74534   9.783  12.682   2.682
 9275W        W74535  28.601  17.289   1.758
 9276W        W74536  29.953  27.468   3.150
 9277W        W74537   2.365   9.773  10.222
 9278W        W74538  28.448  26.546  14.878
 9279W        W74539   2.396  32.476   3.368
 9280W        W74540   0.487  22.404  10.970
 9281W        W74541  36.461  26.411  14.437
 9282W        W74542  36.812  12.882  12.991
 9283W        W74543  18.662   9.767   2.412
 9284W        W74544  15.315  29.558   2.137
 9285W        W74545  13.298  39.262   1.900
 9286W        W74546  20.374  15.134  13.065
 9287W        W74547  11.904  20.004  12.572
 9288W        W74548  23.662   2.662   0.851
 9289W        W74549   7.651  20.261  10.568
 9290W        W74550  20.816  24.979  14.728
 9291W        W74551  16.582  44.239   3.213
 9292W        W74552  13.284  42.833  12.276
 9293W        W74553  17.962  10.429  11.195
 9294W        W74554   6.896  39.421  13.550
 9295W        W74555  36.043   6.635   2.431
 9296W        W74556   3.204   4.494   3.704
 9297W        W74557  42.327   0.798  10.753
 9298W        W74558  31.403  34.875   5.044
 9299W        W74559   1.369  33.689   1.862
 9300W        W74560  30.477   4.440   1.828
 9301W        W74561  28.792  18.203   4.598
 9302W        W74562  16.380  41.913   4.515
 9303W        W74563  37.529  13.164  10.746
 9304W        W74564  39.911  34.150   4.112
 9305W        W74565  22.990   4.295  12.160
 9306W        W74566  40.650  19.741  12.593
 9307W        W74567  19.104  44.023  11.664
 9308W        W74568  33.982  44.830   0.621
 9309W        W74569  40.900  28.742   2.880
 9310W        W74570  40.858   7.476  13.415
 9311W        W74571   5.202   1.889   0.925
 9312W        W74572  25.512  34.124  13.507
 9313W        W74573  31.440  21.274  14.505
 9314W        W74574   1.437  28.664   4.128
 9315W        W74575  23.530  20.778   0.800
 9316W        W74576  17.127   6.303  10.827
 9317W        W74577  34.028  18.344  11.128
 9318W        W74578   5.985  18.442  13.309
 9319W        W74579   5.814  28.970   2.230
 9320W        W74580  38.869  33.439   4.624
 9321W        W74581  13.147  39.506   0.954
 9322W        W74582  33.095  35.401  14.739
 9323W        W74583   6.528  10.567  13.293
 9324W        W74584  43.005  38.585   4.556
 9325W        W74585  18.492  15.651   0.940
 9326W        W74586  16.582  20.690   0.371
 9327W        W74587  36.993  17.144  13.995
 9328W        W74588   9.449  17.322  14.519
 9329W        W74589  23.112  37.142  11.422
 9330W        W74590   0.672  16.625   3.910
 9331W        W74591  29.452  34.739  14.933
 9332W        W74592  39.031  29.068   4.419
 9333W        W74593  39.638  16.312   4.658
 9334W        W74594  20.162  40.494   4.099
 9335W        W74595  17.403  27.447  11.172
 9336W        W74596  15.782   9.001  10.297
 9337W        W74597   8.627  14.737   0.407
 9338W        W74598  27.316   7.282   0.466
 9339W        W74599  30.306   3.433  12.514
 9340W        W74600   1.327   6.667   1.522
 9341W        W74601   0.912  10.943  10.651
 9342W        W74602  43.771  42.435   2.620
 9343W        W74603   2.252  39.676  14.994
 9344W        W74604  16.010  20.783  11.560
 9345W        W74605  26.206  32.124   0.172
 9346W        W74606  21.940   9.300   1.926
 9347W        W74607  32.983  26.037  13.370
 9348W        W74608  14.801   5.156  12.038
 9349W        W74609  34.667  28.355   0.918
 9350W        W74610   0.084  23.452  11.426
 9351W        W74611  41.878  21.565   2.231
 9352W        W74612  35.635   0.340  14.556
 9353W        W74613  33.608  13.269   3.186
 9354W        W74614  34.503  38.957  11.669
 9355W        W74615  31.868  10.176  11.659
 9356W        W74616   9.094  20.227   2.703
 9357W        W74617  43.107  12.287   0.850
 9358W        W74618  18.961   4.247  12.377
 9359W        W74619  23.549  28.929   4.107
 9360W        W74620  25.945  15.060   2.049
 9361W        W74621  30.099   4.805   3.338
 9362W        W74622  33.909  19.567   2.931
 9363W        W74623  42.376  32.050   0.833
 9364W        W74624  25.002  42.415   0.954
 9365W        W74625  40.836  22.467   2.432
 9366W        W74626  16.641  37.451   0.816
 9367W        W74627  39.309  19.048  10.410
 9368W        W74628   0.344  38.098  13.084
 9369W        W74629  42.420  20.348  12.228
 9370W        W74630  42.532  30.788   1.513
 9371W        W74631  20.102  19.784  13.970
 9372W        W74632   2.889  25.090   2.826
 9373W        W74633  44.485  44.819   1.702
 9374W        W74634  23.319  10.872   0.839
 9375W        W74635  31.247   3.919  12.421
 9376W        W74636  21.677  44.573  12.511
 9377W        W74637   2.865  42.897  14.848
 9378W        W74638   7.465  15.726  11.988
 9379W        W74639  31.562  36.672  14.286
 9380W        W74640   4.630  15.173  11.131
 9381W        W74641  17.200  17.118   5.227
 9382W        W74642  15.823  34.070   4.406
 9383W        W74643  17.130  37.462  10.704
 9384W        W74644  31.526   1.395  14.405
 9385W        W74645  21.043  40.736  12.967
 9386W        W74646  35.934   3.337  10.844
 9387W        W74647  43.500  12.396   2.749
 9388W        W74648  40.849  19.440   3.865
 9389W        W74649  34.978  35.988  14.355
 9390W        W74650  38.357  40.573   0.402
 9391W        W74651  20.058  36.778  11.485
 9392W        W74652  41.908   9.266   1.347
 9393W        W74653   7.101  23.058  13.860
 9394W        W74654   5.860  15.773   2.138
 9395W        W74655  27.136  29.656   1.507
 9396W        W74656  11.113  16.286   2.770
 9397W        W74657  17.973  14.528  14.199
 9398W        W74658  32.994  17.767  13.520
 9399W        W74659   2.278  13.795  14.909
 9400W        W74660   3.447  17.299  10.734
 9401W        W74661  14.532  23.668  14.316
 9402W        W74662  43.468  35.866  12.585
 9403W        W74663  26.437   6.309   2.647
 9404W        W74664  44.666   1.275   3.145
 9405W        W74665  32.043  13.632  12.071
 9406W        W74666   1.474  22.913  12.458
 9407W        W74667  28.593  35.346   3.722
 9408W        W74668   4.169  28.826   5.064
 9409W        W74669   4.894  18.225   2.683
 9410W        W74670  41.850   8.723  14.930
 9411W        W74671  24.595  21.581   2.234
 9412W        W74672  23.455  17.878  10.065
 9413W        W74673  28.397  14.001  13.397
 9414W        W74674  44.217  26.018  12.538
 9415W        W74675   4.496  38.114   0.002
 9416W        W74676  14.076  34.026  10.684
 9417W        W74677  28.410  11.166  11.220
 9418W        W74678  19.194  39.103  12.040
 9419W        W74679  32.514  18.107  14.911
 9420W        W74680  14.922   6.932  12.378
 9421W        W74681  18.140  24.751  12.376
 9422W        W74682  26.067  44.152   4.621
 9423W        W74683  13.791  21.484   3.299
 9424W        W74684  30.986  25.018   3.120
 9425W        W74685  42.119  11.431  12.924
 9426W        W74686   9.876   4.567   3.431
 9427W        W74687  28.514   0.849   3.708
 9428W        W74688  43.409  20.024   2.788
 9429W        W74689  11.352  15.530  13.519
 9430W        W74690   4.801  29.672  11.144
 9431W        W74691  24.589  19.855   0.283
 9432W        W74692  23.834  13.213   0.955
 9433W        W74693  18.663  17.334  10.164
 9434W        W74694  23.313  24.245  14.381
 9435W        W74695  35.499  35.556  10.906
 9436W        W74696   3.966  16.647   0.925
 9437W        W74697  18.757  20.757   3.245
 9438W        W74698   4.773   9.694   0.991
 9439W        W74699  37.515  31.971   3.598
 9440W        W74700   2.428  37.419   0.929
 9441W        W74701  44.471   2.272   4.305
 9442W        W74702  33.566  30.792  13.023
 9443W        W74703  23.600   0.296  11.544
 9444W        W74704  15.729  10.294   4.882
 9445W        W74705  30.669  15.745  13.800
 9446W        W74706   4.274  23.678  13.958
 9447W        W74707  21.370  43.075  10.679
 9448W        W74708   0.436   1.688   1.794
 9449W        W74709  37.475  30.885   2.263
 9450W        W74710   6.366  21.296  13.956
 9451W        W74711   4.400  13.276  13.484
 9452W        W74712  10.927  33.037  14.272
 9453W        W74713  10.408  23.218  13.412
 9454W        W74714  39.056  32.305  14.652
 9455W        W74715  34.273  13.865  11.922
 9456W        W74716  10.453  41.018  12.595
 9457W        W74717  28.425  10.294   4.202
 9458W        W74718   2.349   6.652  14.862
 9459W        W74719  13.557  18.596  12.313
 9460W        W74720  21.131  23.665   1.164
 9461W        W74721  11.313  26.605   1.273
 9462W        W74722  17.337  36.871  10.051
 9463W        W74723  20.006  25.045   3.218
 9464W        W74724  20.567  28.879  11.935
 9465W        W74725  44.985  26.620  13.953
 9466W        W74726  13.292   2.951   3.242
 9467W        W74727  27.403  21.342  11.626
 9468W        W74728  16.101  34.846  14.905
 9469W        W74729   4.970  35.830   3.161
 9470W        W74730  33.938   3.336  12.789
 9471W        W74731  42.750  17.677   0.973
 9472W        W74732  44.897  31.544   1.753
 9473W        W74733  28.877  34.565  12.445
 9474W        W74734  19.836  28.467   2.319
 9475W        W74735  22.774  15.590  14.475
 9476W        W74736  42.549  28.531  14.164
 9477W        W74737  27.184  42.894  12.910
 9478W        W74738  35.761   3.441   1.472
 9479W        W74739  39.048  22.041   0.344
 9480W        W74740  20.097  37.591   1.836
 9481W        W74741   6.939  13.110   3.599
 9482W        W74742  43.233  37.098  13.845
 9483W        W74743   5.154   9.350   3.234
 9484W        W74744  17.089  32.606  12.423
 9485W        W74745  15.772  42.813  12.733
 9486W        W74746  35.569  41.513   0.631
 9487W        W74747  31.547  11.331   4.420
 9488W        W74748  37.987  28.450  13.912
 9489W        W74749  40.756  44.306  14.384
 9490W        W74750  22.122   0.475   1.190
 9491W        W74751   9.594  13.726   0.331
 9492W        W74752  30.409  17.243   1.658
 9493W        W74753  20.162  44.365  14.683
 9494W        W74754  35.617  32.844  12.053
 9495W        W74755  38.295  20.971   2.358
 9496W        W74756  29.955  38.697   3.732
 9497W        W74757  40.578  27.677  11.525
 9498W        W74758  43.298  13.231  12.327
 9499W        W74759  37.880  25.755   4.090
 9500W        W74760  16.326  34.487   2.714
 9501W        W74761   0.823  10.266   2.765
 9502W        W74762   1.113   8.714   2.803
 9503W        W74763  11.666  24.380   2.148
 9504W        W74764  21.458  17.592   0.322
 9505W        W74765  30.258  22.524  14.512
 9506W        W74766  37.950  14.921   3.341
 9507W        W74767  12.838   3.657   2.276
 9508W        W74768  28.156   7.703  10.981
 9509W        W74769  21.019  26.768  13.041
 9510W        W74770  22.021  22.003   4.096
 9511W        W74771  21.166  21.182  10.766
 9512W        W74772  34.104   4.825  10.683
 9513W        W74773  43.309  15.345  11.973
 9514W        W74774  44.717  43.515  11.153
 9515W        W74775  11.695  12.999  11.524
 9516W        W74776  20.070   9.878   3.241
 9517W        W74777  37.366  22.999   0.746
 9518W        W74778  15.280  26.647  14.542
 9519W        W74779  39.321  37.227   0.812
 9520W        W74780  20.374  20.350  14.470
 9521W        W74781  43.988  39.986   3.213
 9522W        W74782   5.115  34.341   0.882
 9523W        W74783   8.017  20.602   1.166
 9524W        W74784  35.401  21.397   1.303
 9525W        W74785  16.270  43.782  12.421
 9526W        W74786  41.476  12.685  13.384
 9527W        W74787   5.966  37.962   4.062
 9528W        W74788  29.127  24.709  11.263
 9529W        W74789  41.247  30.432  14.704
 9530W        W74790  18.772  35.974  11.572
 9531W        W74791   6.542   5.760  11.567
 9532W        W74792   1.186  17.690   2.609
 9533W        W74793   1.274  21.538  12.085
 9534W        W74794  14.411  32.320   0.872
 9535W        W74795  41.337  38.431   4.149
 9536W        W74796   8.721  31.523  13.003
 9537W        W74797  37.466  22.248  13.048
 9538W        W74798   0.737   6.036  13.078
 9539W        W74799  17.032  34.178  13.986
 9540W        W74800   3.919   2.913  13.612
 9541W        W74801  42.320  13.485   0.200
 9542W        W74802  34.238  33.640  12.543
 9543W        W74803  24.490   8.691   2.396
 9544W        W74804  11.150   6.824   0.175
 9545W        W74805  32.333   9.744   2.669
 9546W        W74806  27.309   4.025  13.591
 9547W        W74807   0.729   2.284   3.410
 9548W        W74808   8.972  38.001   4.981
 9549W        W74809   1.224  37.418   1.934
 9550W        W74810   3.918  26.399  14.473
 9551W        W74811  43.973  19.638   4.388
 9552W        W74812   2.760  40.340  14.823
 9553W        W74813  13.427  26.173   4.484
 9554W        W74814  32.139  35.945  11.280
 9555W        W74815  27.159  37.995   4.228
 9556W        W74816  23.417  31.134   2.988
 9557W        W74817   9.026   1.452  11.234
 9558W        W74818  33.041   4.876  14.900
 9559W        W74819  35.353  43.164  10.740
 9560W        W74820  25.199  41.385  12.060
 9561W        W74821   6.203  26.221   4.647
 9562W        W74822  39.337  34.800   2.903
 9563W        W74823  35.584  44.019   1.206
 9564W        W74824   4.727   8.704  11.376
 9565W        W74825  41.413  19.984   0.455
 9566W        W74826  18.235  33.537  11.978
 9567W        W74827  34.335  32.032   2.727
 9568W        W74828  30.665  24.935  13.927
 9569W        W74829  20.434  37.329  10.693
 9570W        W74830  30.878  24.970  12.085
 9571W        W74831  25.253  37.486   2.043
 9572W        W74832  10.868  22.082   2.816
 9573W        W74833  10.932  25.310   4.500
 9574W        W74834  16.422  25.048   0.118
 9575W        W74835  44.735  10.446  11.107
 9576W        W74836  27.404   7.850   2.016
 9577W        W74837  35.991  24.421   2.496
 9578W        W74838  30.052   0.930  11.249
 9579W        W74839   9.927   9.742  13.548
 9580W        W74840  25.652  20.560   2.285
 9581W        W74841  29.156  44.096  12.363
 9582W        W74842   4.363  25.234  10.662
 9583W        W74843   9.186  31.130   2.529
 9584W        W74844  38.651  21.131  11.940
 9585W        W74845  37.025   7.410  12.406
 9586W        W74846  28.116   7.721  13.333
 9587W        W74847  16.536  44.492  14.792
 9588W        W74848   2.028   0.344   2.270
 9589W        W74849   5.264  31.636   2.286
 9590W        W74850  14.226  44.538   0.246
 9591W        W74851   7.201  39.816  13.581
 9592W        W74852  38.956  21.185  12.414
 9593W        W74853  44.371  10.908   9.894
 9594W        W74854   1.320  44.940   2.598
 9595W        W74855  26.752  25.993   0.441
 9596W        W74856  10.843  32.395   4.175
 9597W        W74857  37.559  11.620  13.360
 9598W        W74858   5.275  40.942   0.498
 9599W        W74859  35.294  17.222   0.370
 9600W        W74860  41.772  42.505  12.896
 9601W        W74861  22.526  13.086  14.806
 9602W        W74862  16.721  16.006  14.293
 9603W        W74863  43.738  22.308  14.809
 9604W        W74864  39.760  25.472   2.670
 9605W        W74865   1.401  31.832  14.707
 9606W        W74866  17.290  34.312   3.012
 9607W        W74867   9.705  21.868  10.639
 9608W        W74868  36.046  32.139  10.231
 9609W        W74869  33.361   3.111   1.254
 9610W        W74870  40.000   9.927  14.367
 9611W        W74871   4.973  21.640  14.660
 9612W        W74872   6.565  42.493   4.847
 9613W        W74873  33.734   5.771   3.170
 9614W        W74874  43.203  42.067  14.463
 9615W        W74875  11.740  27.698  13.507
 9616W        W74876  33.127   2.182  13.882
 9617W        W74877   1.526   5.706   3.327
 9618W        W74878   3.408  18.257   4.817
 9619W        W74879  16.881  28.128   1.923
 9620W        W74880  43.957  23.192   3.252
 9621W        W74881  21.167  20.164   4.218
 9622W        W74882   4.369   2.232  12.151
 9623W        W74883   7.777  34.482  14.827
 9624W        W74884   0.883  21.622   1.457
 9625W        W74885   3.854  36.959  12.194
 9626W        W74886  16.245  17.370   0.645
 9627W        W74887   3.763   9.715  11.920
 9628W        W74888  42.058  29.758  10.221
 9629W        W74889   1.150  26.473  12.527
 9630W        W74890   3.399  22.220   2.742
 9631W        W74891  18.657  35.304   1.666
 9632W        W74892  31.023   1.054   2.216
 9633W        W74893  36.917  43.427  10.641
 9634W        W74894  15.190   2.318   3.549
 9635W        W74895  28.518  39.076  14.842
 9636W        W74896  12.107  32.088   1.191
 9637W        W74897  15.748  23.359   5.031
 9638W        W74898  37.532  15.882   0.841
 9639W        W74899  25.063   0.368  12.645
 9640W        W74900   9.651  18.076  11.087
 9641W        W74901  19.040   8.606   1.770
 9642W        W74902   0.927  36.131  11.941
 9643W        W74903   5.644  19.270  14.783
 9644W        W74904  20.414   8.408   9.984
 9645W        W74905   8.034   2.015   2.820
 9646W        W74906  37.651  32.071   4.124
 9647W        W74907  19.270  31.522  13.061
 9648W        W74908  40.660   0.465  10.333
 9649W        W74909  17.935   5.666   2.311
 9650W        W74910   2.768  13.825  12.499
 9651W        W74911  28.663  39.739   2.098
 9652W        W74912  30.066  12.855   4.140
 9653W        W74913  28.906   8.311   0.428
 9654W        W74914  39.247  12.411  13.829
 9655W        W74915  26.160  35.610   4.179
 9656W        W74916  43.548  20.796   0.684
 9657W        W74917   3.444  38.048   4.340
 9658W        W74918  13.646  23.455  13.327
 9659W        W74919  26.929  44.812  13.064
 9660W        W74920  21.656  42.783  11.432
 9661W        W74921  40.892  19.285   4.374
 9662W        W74922  30.544   2.281  13.306
 9663W        W74923   7.842  41.157  11.674
 9664W        W74924  10.807  32.135   1.940
 9665W        W74925   3.690  32.531  12.284
 9666W        W74926   3.372  42.583  13.020
 9667W        W74927  35.905  43.369   1.650
 9668W        W74928   2.279  24.950  13.367
 9669W        W74929  39.385  16.665   4.963
 9670W        W74930   3.423  30.413   3.081
 9671W        W74931  43.464  44.010   4.160
 9672W        W74932  19.839  38.375  14.925
 9673W        W74933  17.575  44.221  11.753
 9674W        W74934   3.377  16.626   1.708
 9675W        W74935  28.155  44.971  14.884
 9676W        W74936  11.387   9.392  10.654
 9677W        W74937  22.565  40.296   1.268
 9678W        W74938  34.780  37.393   4.062
 9679W        W74939  44.743  43.768   4.680
 9680W        W74940  35.869  27.523   2.244
 9681W        W74941  39.933  15.183  11.032
 9682W        W74942  35.866  11.899  13.809
 9683W        W74943  27.125   1.864   0.727
 9684W        W74944  44.301   1.934  11.176
 9685W        W74945  24.003  22.675   3.724
 9686W        W74946  40.686  33.844  14.621
 9687W        W74947   2.543  22.428   2.970
 9688W        W74948  21.774  43.760  11.043
 9689W        W74949   6.265  18.122   2.388
 9690W        W74950  22.024  41.424   0.217
 9691W        W74951  43.916  31.533   3.124
 9692W        W74952  22.594  44.749   4.232
 9693W        W74953  33.124  38.949   3.255
 9694W        W74954  36.826  30.045   4.832
 9695W        W74955  13.678   5.024   1.208
 9696W        W74956  26.805  35.651  13.847
 9697W        W74957   2.290  14.834   4.577
 9698W        W74958   4.858   5.728   4.509
 9699W        W74959   7.369   4.048   3.595
 9700W        W74960  43.838  33.218   1.293
 9701W        W74961  32.538  34.943   2.459
 9702W        W74962  17.210  38.119   3.498
 9703W        W74963  27.099  15.907  11.511
 9704W        W74964  22.569  44.247   2.511
 9705W        W74965  37.619  44.376   3.648
 9706W        W74966   9.675   8.348  10.485
 9707W        W74967  23.076  29.279   3.548
 9708W        W74968  28.097  32.185  14.497
 9709W        W74969   3.197  40.464  13.517
 9710W        W74970  10.514  15.638   0.274
 9711W        W74971  19.697  11.367   1.979
 9712W        W74972  35.858   6.862   3.448
 9713W        W74973  36.936  18.559  11.176
 9714W        W74974  22.249  39.300   2.512
 9715W        W74975   8.655  17.846  13.820
 9716W        W74976   8.901  37.588   2.843
 9717W        W74977  44.006  29.867  13.791
 9718W        W74978  38.468  20.983   1.493
 9719W        W74979  12.536  40.112   2.492
 9720W        W74980  35.677   4.000   1.120
 9721W        W74981  11.774  36.502  12.878
 9722W        W74982  11.706   6.095   3.742
 9723W        W74983  17.436  44.079   5.004
 9724W        W74984  15.619  33.825  13.133
 9725W        W74985  22.569   5.953  12.542
 9726W        W74986  25.886  44.295  10.857
 9727W        W74987  37.154  36.113   3.360
 9728W        W74988  17.265   3.645   4.062
 9729W        W74989  10.196  12.798   1.481
 9730W        W74990  17.643   0.225  11.061
 9731W        W74991  44.776  25.821   0.672
 9732W        W74992  42.353   5.652  12.889
 9733W        W74993  41.757  15.507  10.295
 9734W        W74994   8.329  33.685   2.800
 9735W        W74995  29.098  29.471  12.648
 9736W        W74996  25.619  44.204   4.937
 9737W        W74997   9.016  26.582   2.758
 9738W        W74998  30.659  26.992   1.333
 9739W        W74999  32.020  13.206   2.308
 9740W        W75000  20.214  34.937   4.195
 9741W        W75001  23.285  38.532   4.782
 9742W        W75002   1.440  13.543   2.315
 9743W        W75003  39.381  36.017  14.698
 9744W        W75004  36.256  19.047   1.377
 9745W        W75005  30.587  40.064   3.860
 9746W        W75006   9.627  24.503   3.684
 9747W        W75007  20.030  38.009  14.507
 9748W        W75008  22.681  34.099  11.146
 9749W        W75009  40.808  31.160  14.500
 9750W        W75010  42.333  12.078  12.945
 9751W        W75011   7.343  43.410  14.934
 9752W        W75012  42.097  13.608   3.020
 9753W        W75013  27.115  43.291  14.530
 9754W        W75014   3.000  21.462  13.864
 9755W        W75015  32.859  10.225  11.636
 9756W        W75016   2.368  28.188   2.665
 9757W        W75017  16.100  42.125   4.128
 9758W        W75018  32.723   1.714  13.437
 9759W        W75019   9.021  32.487  12.115
 9760W        W75020   7.468  19.682  14.179
 9761W        W75021  26.483  29.316  14.350
 9762W        W75022  23.195  39.530  11.649
 9763W        W75023   0.187  42.963  12.381
 9764W        W75024  38.271  28.072  11.598
 9765W        W75025  42.698  32.683  12.950
 9766W        W75026  35.823  23.226   2.792
 9767W        W75027  36.591  27.035  12.048
 9768W        W75028  33.418  25.095   2.891
 9769W        W75029  31.086  38.439   3.345
 9770W        W75030   8.437  43.652   3.756
 9771W        W75031   9.715  10.099  14.662
 9772W        W75032   8.108  10.242  11.657
 9773W        W75033  22.285  20.713  14.458
 9774W        W75034  23.550  38.534  13.413
 9775W        W75035   5.364   1.769  14.520
 9776W        W75036  21.942  11.156  11.495
 9777W        W75037  15.878  42.797  13.772
 9778W        W75038  12.593   2.804  13.466
 9779W        W75039   6.708   4.101  14.814
 9780W        W75040   2.794  31.464  10.726
 9781W        W75041  19.281   2.684  14.249
 9782W        W75042  36.518   5.113   1.329
 9783W        W75043  31.340  43.410   2.247
 9784W        W75044  17.530  17.253  13.915
 9785W        W75045  40.280  37.054  12.028
 9786W        W75046  21.038  37.439   3.515
 9787W        W75047  17.606   1.119  14.223
 9788W        W75048  34.457  13.528  11.097
 9789W        W75049  38.456  24.329  11.149
 9790W        W75050  27.126  36.814   9.795
 9791W        W75051  34.237  12.597  10.593
 9792W        W75052  29.608  32.076  14.433
 9793W        W75053  31.413  20.365  11.968
 9794W        W75054  36.134  35.109   0.423
 9795W        W75055  22.058   6.383  13.980
 9796W        W75056  28.011  27.427  14.279
 9797W        W75057  10.866  34.054  12.196
 9798W        W75058  44.457  19.495  13.643
 9799W        W75059  44.063  33.612  12.327
 9800W        W75060  20.200  22.846   4.407
 9801W        W75061  11.411  24.541  10.636
 9802W        W75062  10.253  20.067   1.769
 9803W        W75063   1.990  29.311  12.725
 9804W        W75064   2.718  28.444   2.323
 9805W        W75065  24.332   0.269  14.254
 9806W        W75066  40.505  38.936  13.057
 9807W        W75067  38.566   9.453  12.542
 9808W        W75068  20.008  36.755   3.650
 9809W        W75069  34.393   4.658  12.014
 9810W        W75070  15.573  43.731  14.020
 9811W        W75071  39.265  10.801   1.269
 9812W        W75072  36.609  12.381  14.427
 9813W        W75073  11.486  37.513  12.989
 9814W        W75074  40.029  25.579  10.921
 9815W        W75075  21.559  16.798  11.197
 9816W        W75076  35.436  20.320  12.901
 9817W        W75077   5.871  15.807  14.862
 9818W        W75078  35.989  27.150  14.006
 9819W        W75079  44.339  38.570   3.378
 9820W        W75080  13.836  38.440   3.258
 9821W        W75081  22.959  12.061  11.212
 9822W        W75082  27.651   4.450  11.881
 9823W        W75083  30.122   0.466  13.868
 9824W        W75084  36.607   9.659   4.190
 9825W        W75085   2.374   4.959  11.185
 9826W        W75086  16.784  35.876   4.704
 9827W        W75087  24.639   8.922   2.857
 9828W        W75088  43.664  28.525  12.913
 9829W        W75089  39.506  25.538   2.232
 9830W        W75090  26.861  21.597   2.308
 9831W        W75091  41.339  44.647  10.200
 9832W        W75092  21.195  30.129  13.906
 9833W        W75093  41.916  19.818   0.407
 9834W        W75094  20.168  21.261   4.899
 9835W        W75095   6.417  17.322   0.474
 9836W        W75096  40.088  26.628   3.123
 9837W        W75097  41.172  13.269   0.845
 9838W        W75098  14.196   1.349  11.053
 9839W        W75099  20.631   6.951   1.245
 9840W        W75100  12.321  25.485   1.001
 9841W        W75101   7.210   9.820  11.616
 9842W        W75102  19.852  12.678   3.276
 9843W        W75103  22.191  18.794  12.283
 9844W        W75104   6.921  12.307  12.521
 9845W        W75105  29.443  19.860   5.172
 9846W        W75106  12.902   0.620   4.956
 9847W        W75107  27.766  28.631   3.228
 9848W        W75108  37.808  12.411   1.060
 9849W        W75109  15.510   3.322  11.095
 9850W        W75110  10.145  15.178   5.139
 9851W        W75111  26.688  26.247   2.956
 9852W        W75112   7.886  40.712  13.972
 9853W        W75113  21.261  26.759  10.328
 9854W        W75114   9.858  34.003  11.069
 9855W        W75115   1.812  31.888  13.377
 9856W        W75116   5.301  44.062   0.299
 9857W        W75117  30.695   8.736  13.319
 9858W        W75118  14.662  23.638  13.352
 9859W        W75119  13.038  28.444   1.396
 9860W        W75120   3.169  11.452   4.992
 9861W        W75121  44.804  25.807  14.008
 9862W        W75122  35.567  43.207  13.391
 9863W        W75123  38.021  34.887  11.298
 9864W        W75124  26.732  36.332   4.209
 9865W        W75125  44.966   1.426   1.143
 9866W        W75126  33.446   4.773   5.096
 9867W        W75127   6.357  24.087  10.671
 9868W        W75128   9.481  42.856   1.429
 9869W        W75129  36.897  42.358   2.750
 9870W        W75130  30.497  31.184  13.071
 9871W        W75131  25.251   9.940   4.940
 9872W        W75132  11.795  27.611   1.045
 9873W        W75133  41.602  39.970   3.123
 9874W        W75134  24.167  39.810  13.889
 9875W        W75135  39.614  32.529   1.463
 9876W        W75136   6.934   7.717  12.112
 9877W        W75137   9.399   5.829   4.795
 9878W        W75138   2.467  18.116  11.698
 9879W        W75139   3.184  39.517   2.194
 9880W        W75140  42.294  39.546   1.160
 9881W        W75141  20.083   6.981   5.952
 9882W        W75142  11.348  43.880   0.900
 9883W        W75143  19.187   9.312  10.884
 9884W        W75144  25.518  28.900  14.673
 9885W        W75145  31.072  27.650  13.329
 9886W        W75146  24.875  35.233  10.918
 9887W        W75147  37.189   4.224  11.124
 9888W        W75148  30.684  33.268   4.249
 9889W        W75149  28.935  38.853  11.555
 9890W        W75150  19.132  15.772  13.027
 9891W        W75151  19.336  27.213   2.744
 9892W        W75152  44.232  15.387  13.923
 9893W        W75153  33.549  12.871   2.348
 9894W        W75154  13.029   3.308  14.351
 9895W        W75155  33.813  16.218  14.319
 9896W        W75156  37.009   7.944  11.177
 9897W        W75157  19.667   0.240  10.232
 9898W        W75158  29.087   5.447   2.465
 9899W        W75159  32.953  12.370   1.250
 9900W        W75160  30.905  16.138   2.348
 9901W        W75161   4.236  35.425   3.311
 9902W        W75162  27.742  35.485  14.566
 9903W        W75163  13.920   8.054   5.340
 9904W        W75164   1.256   2.991  10.800
 9905W        W75165  21.801  30.575   0.489
 9906W        W75166  37.326   6.395  12.061
 9907W        W75167  27.605   1.954   2.467
 9908W        W75168  22.065  19.788  13.377
 9909W        W75169  21.972  26.296   2.953
 9910W        W75170  30.896  22.320   3.827
 9911W        W75171  30.840  10.427  12.445
 9912W        W75172  19.432   4.248  12.052
 9913W        W75173  20.205  29.217  12.126
 9914W        W75174  19.279  44.730   2.004
 9915W        W75175  44.355  40.857   0.394
 9916W        W75176  44.947  43.942   3.095
 9917W        W75177  29.470  44.704   3.247
 9918W        W75178  24.233  23.541   4.163
 9919W        W75179  25.666  21.755  13.267
 9920W        W75180  24.242  11.160   1.272
 9921W        W75181  21.138  33.188   5.072
 9922W        W75182  43.073  37.503   4.559
 9923W        W75183  28.729  13.824   2.737
 9924W        W75184  42.788  33.212   2.370
 9925W        W75185  43.294  28.846  11.522
 9926W        W75186  41.893   9.040   4.125
 9927W        W75187   1.913  27.964  12.549
 9928W        W75188  33.436  17.554  12.289
 9929W        W75189  12.810  37.881   1.192
 9930W        W75190  26.725   9.671   0.901
 9931W        W75191  43.265  43.074   0.333
 9932W        W75192  31.528   2.964  11.056
 9933W        W75193   8.121  25.132  13.363
 9934W        W75194   3.425  17.742  13.381
 9935W        W75195  36.853  44.544   1.445
 9936W        W75196   0.065  19.591  13.072
 9937W        W75197   4.798  23.426   4.013
 9938W        W75198  15.710  15.519  12.891
 9939W        W75199  11.839  21.185   0.049
 9940W        W75200  33.279  18.556   4.200
 9941W        W75201  15.600   2.816   4.111
 9942W        W75202  23.088  15.499  10.565
 9943W        W75203  18.176  33.646   1.231
 9944W        W75204  41.908   3.208  13.593
 9945W        W75205  17.610  23.196   3.546
 9946W        W75206  17.626  44.472  10.593
 9947W        W75207   1.525   1.070  13.881
 9948W        W75208  25.164  20.415   5.188
 9949W        W75209  12.537  42.442   0.070
 9950W        W75210   6.605  28.021   3.601
 9951W        W75211  34.035  37.074  12.902
 9952W        W75212  41.471  37.082   1.377
 9953W        W75213   5.020   5.370  10.629
 9954W        W75214  44.868  37.039   0.517
 9955W        W75215  34.812  44.903  13.137
 9956W        W75216  34.108  38.747   4.154
 9957W        W75217  16.559  15.150  14.527
 9958W        W75218   0.423  44.683  14.308
 9959W        W75219  37.012  31.141   1.371
 9960W        W75220  43.918   5.842  11.393
 9961W        W75221   5.481  43.429  12.027
 9962W        W75222  12.251  35.448   3.615
 9963W        W75223  16.339  14.186   0.726
 9964W        W75224   4.134  31.100  14.912
 9965W        W75225  14.182  41.844   3.688
 9966W        W75226  37.475  14.839   2.100
 9967W        W75227  14.905   0.307  14.091
 9968W        W75228   6.377  43.033   4.156
 9969W        W75229   9.679  38.357   2.103
 9970W        W75230  39.902  31.316   0.981
 9971W        W75231   4.870  12.099  11.394
 9972W        W75232  11.861  40.306   0.687
 9973W        W75233  38.365   6.674   5.049
 9974W        W75234  10.727   0.742   2.958
 9975W        W75235   6.567  38.681  13.887
 9976W        W75236  37.887   4.365  13.740
 9977W        W75237  38.472   4.767   4.500
 9978W        W75238  35.124  32.727   2.386
 9979W        W75239  44.550  38.200  10.260
 9980W        W75240  33.838  11.505  14.037
 9981W        W75241  40.423  38.729   2.761
 9982W        W75242  42.354  22.616  11.457
 9983W        W75243  34.485   3.047  11.981
 9984W        W75244  15.898  34.362  10.834
 9985W        W75245  19.747  27.475   2.164
 9986W        W75246   1.588  36.509   2.358
 9987W        W75247  42.833  34.105  11.663
 9988W        W75248   8.108   4.409   1.283
 9989W        W75249   5.894  30.529  12.579
 9990W        W75250   9.717   6.242  11.122
 9991W        W75251   0.946  40.845  13.538
 9992W        W75252  25.438  32.969   4.553
 9993W        W75253  32.968   5.899  11.048
 9994W        W75254  12.916   3.464   4.006
 9995W        W75255   7.470  12.252   1.875
 9996W        W75256  11.828  20.887   4.811
 9997W        W75257   4.377  37.295   3.966
 9998W        W75258  37.991  17.242   0.220
 9999W        W75259  15.315  15.557  11.201
10000W        W75260  33.981  12.277  11.425
10001W        W75261  13.735  19.331   2.353
10002W        W75262  27.676  38.826   0.327
10003W        W75263   6.680   4.974  11.550
10004W        W75264  12.256  33.935  12.110
10005W        W75265   9.753  14.124  10.339
10006W        W75266  15.998  23.973  13.436
10007W        W75267  39.225   0.121   3.311
10008W        W75268  27.604  14.342  14.014
10009W        W75269   3.876  44.986  12.534
10010W        W75270  26.555  17.352   1.020
10011W        W75271  32.861   9.833   2.717
10012W        W75272  25.417  40.507   1.364
10013W        W75273  30.528  25.976  12.909
10014W        W75274   2.190   1.877  13.948
10015W        W75275  38.098  10.702   4.088
10016W        W75276  40.491  22.235  12.539
10017W        W75277   8.745   6.092   0.268
10018W        W75278  16.010   6.907   3.427
10019W        W75279  20.187  29.420  10.814
10020W        W75280  31.582  43.068  12.203
10021W        W75281   9.186  18.748   4.801
10022W        W75282  31.515  25.739  12.895
10023W        W75283  11.672   6.334  14.397
10024W        W75284  22.530   1.263  13.826
10025W        W75285   8.289   3.286  14.813
10026W        W75286  17.770  31.336  10.489
10027W        W75287  31.634  20.595  10.773
10028W        W75288   9.285  37.433   0.960
10029W        W75289  26.755  23.589   3.428
10030W        W75290  15.794  26.204  13.856
10031W        W75291   6.861  32.303  11.199
10032W        W75292   2.561  14.663  14.421
10033W        W75293  20.508  11.730  10.480
10034W        W75294  15.946  13.952   3.854
10035W        W75295  41.752  41.253   3.192
10036W        W75296   2.776  11.073  10.613
10037W        W75297  10.226  24.077   0.323
10038W        W75298   6.294  27.186   2.219
10039W        W75299  33.138  15.708  12.405
10040W        W75300  41.576  13.573  12.633
10041W        W75301  37.867  43.312  14.800
10042W        W75302  10.141  14.348   3.683
10043W        W75303   1.797   7.926  11.647
10044W        W75304   2.060  16.522  12.245
10045W        W75305  26.612  40.254  11.201
10046W        W75306  10.007  38.325  14.254
10047W        W75307   0.001  43.133   1.455
10048W        W75308   5.286   4.000   0.086
10049W        W75309  43.006   0.799  11.582
10050W        W75310  38.904  14.241   2.745
10051W        W75311  20.208  39.558  12.029
10052W        W75312  35.487  17.753   0.972
10053W        W75313  12.832  38.357  12.463
10054W        W75314  43.684  20.666   1.333
10055W        W75315  39.715  15.233   4.672
10056W        W75316   7.323  23.802  11.718
10057W        W75317  13.077  26.517  10.634
10058W        W75318  28.443   0.328  12.291
10059W        W75319  11.165  18.799   2.635
10060W        W75320  25.430  43.483  11.118
10061W        W75321  41.200  26.758   0.475
10062W        W75322  12.772  43.321  10.648
10063W        W75323  23.194   7.480   1.196
10064W        W75324   9.645   3.863  13.529
10065W        W75325  17.230  16.804  13.852
10066W        W75326  12.010  30.113   0.316
10067W        W75327  35.655  27.353   5.069
10068W        W75328  37.814  15.308   0.736
10069W        W75329  12.371   9.368   5.145
10070W        W75330   2.763  20.738  12.523
10071W        W75331  30.920  27.528   0.223
10072W        W75332  26.138  16.726  12.453
10073W        W75333  21.166  10.575   3.216
10074W        W75334   0.706   9.438  13.818
10075W        W75335  19.024  25.070   1.367
10076W        W75336   1.216  38.008   0.797
10077W        W75337  31.156  18.924  11.031
10078W        W75338  43.802  37.992  11.539
10079W        W75339   3.687  15.648   4.079
10080W        W75340   7.278  10.195  12.879
10081W        W75341  38.871  35.924   3.845
10082W        W75342  19.851  24.172  12.695
10083W        W75343  24.305  29.004   4.556
10084W        W75344  39.102  24.085   4.269
10085W        W75345  17.647   3.849   2.663
10086W        W75346   6.326  19.045   4.905
10087W        W75347  10.104  43.064   2.200
10088W        W75348   1.421  26.070  12.798
10089W        W75349  14.773  14.883  12.945
10090W        W75350  28.130   2.214   4.362
10091W        W75351  44.318  22.195   3.807
10092W        W75352  31.700   9.221   0.965
10093W        W75353   3.450  38.059  14.341
10094W        W75354  40.096  10.379  14.579
10095W        W75355  21.060  44.166  11.347
10096W        W75356  12.203  14.166   4.336
10097W        W75357  19.582  26.276  11.910
10098W        W75358  40.963   7.877  12.134
10099W        W75359   1.567  27.134  14.506
10100W        W75360  18.793  42.384   3.896
10101W        W75361  36.117  44.487   2.408
10102W        W75362  19.939  32.886   2.163
10103W        W75363   5.316  38.603  13.580
10104W        W75364  14.269   0.542  12.977
10105W        W75365  19.059  20.744   2.767
10106W        W75366  25.810  33.744   0.082
10107W        W75367   7.429   0.883   4.300
10108W        W75368  11.185  40.806  11.141
10109W        W75369  28.909  21.075  10.690
10110W        W75370  22.683  19.738   2.393
10111W        W75371  26.169  30.321   0.343
10112W        W75372  33.733  29.167  14.497
10113W        W75373  44.709   3.977   0.829
10114W        W75374  43.685  38.390  10.386
10115W        W75375  30.459  28.393  11.956
10116W        W75376  20.681  22.515   1.245
10117W        W75377  35.075   6.796   2.102
10118W        W75378  29.226  35.547   2.391
10119W        W75379  18.962  43.141   2.761
10120W        W75380   6.758  16.422   4.516
10121W        W75381   9.866  37.522  10.677
10122W        W75382  14.106  25.217   2.035
10123W        W75383  17.696  36.149   4.673
10124W        W75384  39.034  29.956  11.957
10125W        W75385  43.747  38.756   0.312
10126W        W75386  28.485   7.239   2.179
10127W        W75387   1.509  30.618  12.620
10128W        W75388  16.193  35.554   4.621
10129W        W75389  16.622  28.496   3.130
10130W        W75390  27.864   0.718  13.286
10131W        W75391   1.703  36.628  14.227
10132W        W75392  10.593  35.387  14.759
10133W        W75393  15.872  27.178   3.223
10134W        W75394   3.303   8.715  11.171
10135W        W75395   5.775   3.779   1.366
10136W        W75396  43.083   4.852  12.146
10137W        W75397  37.296  31.052  13.953
10138W        W75398   3.270   7.153   2.845
10139W        W75399  19.494  21.918   2.634
10140W        W75400  28.732   3.806  13.089
10141W        W75401  28.156  13.617  14.006
10142W        W75402  17.183  28.943  13.132
10143W        W75403   0.485  23.266   0.195
10144W        W75404  17.966  41.823   2.169
10145W        W75405  16.755  25.927   1.335
10146W        W75406   7.244  17.229   0.713
10147W        W75407  14.325  22.046  10.762
10148W        W75408   9.633  37.418   3.510
10149W        W75409  27.781  32.267  11.058
10150W        W75410  41.276  31.931   4.762
10151W        W75411   6.702  22.871  11.198
10152W        W75412   0.810  40.023   2.058
10153W        W75413  14.102  18.868   4.697
10154W        W75414  31.901  12.832   0.025
10155W        W75415  34.154  39.009  14.925
10156W        W75416  40.555  38.772  13.946
10157W        W75417  30.875  38.086   4.246
10158W        W75418  35.136   2.336  12.669
10159W        W75419  42.432  21.466   4.690
10160W        W75420  13.903  29.038  12.799
10161W        W75421   7.669  33.861  13.049
10162W        W75422  29.818  31.306   3.253
10163W        W75423  15.280  13.257  14.358
10164W        W75424  29.134  23.774   2.767
10165W        W75425  21.434  41.341   4.204
10166W        W75426  23.906  33.047  12.429
10167W        W75427  31.950  14.826   0.325
10168W        W75428  19.803   4.727   0.683
10169W        W75429  30.964   9.585   0.427
10170W        W75430  29.540  16.367   0.264
10171W        W75431   8.174  20.824   4.131
10172W        W75432  32.501   7.713   4.183
10173W        W75433  15.832   3.913  13.056
10174W        W75434  41.441  33.137  14.754
10175W        W75435  40.757  24.499   4.543
10176W        W75436   7.911   1.593   4.250
10177W        W75437   5.127   6.267   1.478
10178W        W75438  27.048   3.500   3.788
10179W        W75439  31.608  41.247  13.089
10180W        W75440   1.193  20.280   2.416
10181W        W75441  30.454  39.426   2.267
10182W        W75442   0.713  17.860   1.914
10183W        W75443  26.098  11.142  10.609
10184W        W75444  15.961   3.260   4.693
10185W        W75445  42.337  39.097  12.346
10186W        W75446  25.569   9.651   2.414
10187W        W75447  20.006  28.450   3.700
10188W        W75448  25.575   0.898   0.310
10189W        W75449   4.301  44.018  13.154
10190W        W75450  37.507  36.755   1.104
10191W        W75451  22.914  11.299  13.082
10192W        W75452  30.533   0.793   3.786
10193W        W75453  40.846  29.751   0.139
10194W        W75454   4.808  41.050  12.506
10195W        W75455  39.569  27.919  10.387
10196W        W75456  19.777  19.261   2.757
10197W        W75457  18.638  22.804  14.316
10198W        W75458  29.091  22.181   3.340
10199W        W75459  10.169  14.307   0.024
10200W        W75460   3.827   1.440   4.055
10201W        W75461  11.705  28.675   2.760
10202W        W75462  30.338   3.300  14.800
10203W        W75463  19.289  16.871   1.203
10204W        W75464  11.214  42.897   2.319
10205W        W75465  26.869  33.342  11.149
10206W        W75466  22.720  33.419   3.598
10207W        W75467   4.774  36.812   0.513
10208W        W75468  43.058  10.233  12.419
10209W        W75469  15.740  22.930  12.917
10210W        W75470  16.126  23.192   2.827
10211W        W75471   6.685  33.722  14.955
10212W        W75472  36.603  10.920   0.712
10213W        W75473  36.818  22.210  11.233
10214W        W75474  33.958  17.892   1.380
10215W        W75475  40.235  24.194   1.196
10216W        W75476  33.342  22.678  13.377
10217W        W75477  10.138   3.276   3.762
10218W        W75478  35.092  32.603   2.879
10219W        W75479  23.153  31.115   2.175
10220W        W75480   0.919   1.490  14.055
10221W        W75481   5.869  35.721   1.923
10222W        W75482  43.523  21.034  13.420
10223W        W75483  26.474   5.632   5.460
10224W        W75484   6.476  26.207  11.784
10225W        W75485  43.710  10.442   1.193
10226W        W75486  43.576  16.818  13.143
10227W        W75487  36.489  24.510   1.678
10228W        W75488  12.886  16.328  14.765
10229W        W75489   4.861  20.105  11.999
10230W        W75490  22.398   5.855   1.323
10231W        W75491  44.692  30.550  14.710
10232W        W75492  32.000  31.863  14.855
10233W        W75493  13.627  32.549  10.630
10234W        W75494  23.595  23.053   1.443
10235W        W75495  21.020  13.064  14.972
10236W        W75496  25.483  29.455  11.951
10237W        W75497   4.429  19.125  12.481
10238W        W75498  22.533  19.134   3.710
10239W        W75499   7.757  10.045   2.658
10240W        W75500  22.585   3.300  12.060
10241W        W75501  34.941  22.442  13.469
10242W        W75502  44.341   7.073   4.415
10243W        W75503  25.583  20.086   5.119
10244W        W75504  26.451  21.659   5.035
10245W        W75505  43.982  37.482   4.618
10246W        W75506  34.896  31.586  11.923
10247W        W75507  40.519  20.689   3.235
10248W        W75508  40.299  25.092  11.607
10249W        W75509   2.413  23.499   4.517
10250W        W75510  42.390  26.742  13.977
10251W        W75511  33.833  23.333  14.113
10252W        W75512  21.947  28.980   0.879
10253W        W75513  23.571  22.349  13.750
10254W        W75514  35.538   0.820  14.952
10255W        W75515  20.834  18.198  14.818
10256W        W75516  13.381  43.743   2.629
10257W        W75517  32.409  35.515  13.396
10258W        W75518  34.050  10.220   2.698
10259W        W75519   9.528   8.337   2.343
10260W        W75520  29.935  10.689   3.071
10261W        W75521  18.869  10.186  14.943
10262W        W75522  28.101  29.412   4.097
10263W        W75523  21.723  20.503   5.433
10264W        W75524  10.949  29.675   5.472
10265W        W75525  14.867  37.394   4.968
10266W        W75526  22.800  42.960   4.857
10267W        W75527  15.283  31.061   4.216
10268W        W75528  11.112   1.209   0.409
10269W        W75529  27.998  14.384  11.202
10270W        W75530   9.731  36.343  13.145
10271W        W75531  31.098  42.897  12.186
10272W        W75532  16.203   5.838   0.851
10273W        W75533   5.429  21.490  11.090
10274W        W75534  39.329  21.559  12.888
10275W        W75535  38.956  21.835  11.485
10276W        W75536  30.852   8.976  10.445
10277W        W75537  31.946  23.625  13.042
10278W        W75538  39.547   0.335   0.761
10279W        W75539   8.767  35.942   4.275
10280W        W75540  39.048  15.732  11.185
10281W        W75541  38.448  31.168  11.165
10282W        W75542  40.314   7.324   0.261
10283W        W75543  42.019  40.429   0.318
10284W        W75544  31.976  21.246   2.552
10285W        W75545   2.481   8.315   1.148
10286W        W75546  31.724  30.702   0.804
10287W        W75547  24.655  15.163  11.981
10288W        W75548  40.142  36.488  14.497
10289W        W75549  28.363  33.248  14.004
10290W        W75550  23.023  13.215   4.031
10291W        W75551  17.076  34.655   3.325
10292W        W75552  28.091  44.364   4.007
10293W        W75553  24.461  43.611  12.329
10294W        W75554  24.690  25.185  13.090
10295W        W75555  14.115   2.629   0.074
10296W        W75556  18.846  21.640   1.908
10297W        W75557   2.572  40.348   1.165
10298W        W75558  24.133   9.583   2.598
10299W        W75559   9.229   2.464   3.740
10300W        W75560  27.586  38.947  10.385
10301W        W75561  13.340  16.826  13.760
10302W        W75562  18.243  36.127   1.629
10303W        W75563  31.827  32.415  13.004
10304W        W75564  24.410  31.468   0.917
10305W        W75565  22.891  24.114  14.115
10306W        W75566  33.639  31.972   4.989
10307W        W75567  23.906  15.570  11.182
10308W        W75568   6.330  29.728   2.289
10309W        W75569  23.013   9.362  14.938
10310W        W75570   2.797  33.310   2.926
10311W        W75571  39.344   2.948   2.179
10312W        W75572   3.498  27.297   2.816
10313W        W75573  27.463   9.286   0.751
10314W        W75574  35.579  21.981  13.170
10315W        W75575  41.905  31.435  14.229
10316W        W75576  14.881   9.358  10.599
10317W        W75577  44.883  13.942   0.259
10318W        W75578  16.073  34.549   4.411
10319W        W75579   9.639  32.741   3.368
10320W        W75580  12.680   9.726   0.398
10321W        W75581  25.407  41.017  13.904
10322W        W75582  27.722  19.163  11.202
10323W        W75583  21.757   6.138   2.655
10324W        W75584  31.954  18.542   2.235
10325W        W75585  24.305  18.598  12.237
10326W        W75586  17.918  34.683   1.233
10327W        W75587   4.350  21.231   3.626
10328W        W75588  19.187  35.256  13.992
10329W        W75589  20.040  27.551  12.775
10330W        W75590  19.015   4.668   3.851
10331W        W75591   1.889   5.953   2.403
10332W        W75592   5.704   0.029   4.581
10333W        W75593  20.491   6.754   2.672
10334W        W75594   9.405  19.217   0.088
10335W        W75595  25.412  42.680   0.636
10336W        W75596   7.407  16.561  14.990
10337W        W75597  25.942   7.742   3.683
10338W        W75598  20.982   2.795   3.711
10339W        W75599  33.915  32.098   2.385
10340W        W75600  35.115  41.082  12.025
10341W        W75601  44.346  20.723  12.821
10342W        W75602  28.112  10.660   3.300
10343W        W75603  24.374  12.568  14.130
10344W        W75604  24.021  14.045  14.579
10345W        W75605  37.586   2.659  11.967
10346W        W75606   9.282  44.806   1.507
10347W        W75607  30.658  24.108   0.142
10348W        W75608  12.374  21.044   0.013
10349W        W75609  13.011  16.713  13.392
10350W        W75610   4.669  21.422   4.735
10351W        W75611  35.060  25.867  11.155
10352W        W75612  14.377  33.487  11.710
10353W        W75613  38.996  29.870  12.462
10354W        W75614  33.843  19.971   1.988
10355W        W75615  29.926  10.778   2.153
10356W        W75616  31.691   1.539  12.462
10357W        W75617   6.115  36.549  13.884
10358W        W75618  29.012   6.268  10.544
10359W        W75619  34.775  40.394  11.408
10360W        W75620  23.010   6.356  14.470
10361W        W75621  36.644  10.803  10.743
10362W        W75622  12.655  17.635  10.689
10363W        W75623  14.500  16.193   0.748
10364W        W75624  20.102  15.669  12.346
10365W        W75625   9.696   6.535   2.693
10366W        W75626  35.573  17.590  13.014
10367W        W75627   9.216   3.256   2.032
10368W        W75628  38.779  10.800   3.640
10369W        W75629  28.603  36.968  13.923
10370W        W75630   0.827  36.031   4.149
10371W        W75631  34.379   6.483   4.137
10372W        W75632  19.681  35.988  11.645
10373W        W75633   0.679  32.170   9.732
10374W        W75634  36.419  29.167   0.407
10375W        W75635  25.626   3.458   4.136
10376W        W75636  18.332  16.666  12.291
10377W        W75637  28.554  39.094   3.418
10378W        W75638  44.201  30.516   2.178
10379W        W75639  14.027  38.764  12.091
10380W        W75640  23.067  32.856   0.366
10381W        W75641  41.898  21.012  14.369
10382W        W75642  31.680  14.119   4.200
10383W        W75643  35.645  39.819   3.324
10384W        W75644   1.963   9.411  14.526
10385W        W75645   2.899  30.805  14.497
10386W        W75646  12.239  31.849  13.796
10387W        W75647  23.718  11.888   3.275
10388W        W75648  30.155  12.614   0.799
10389W        W75649  18.086  25.615   2.661
10390W        W75650  17.092   9.350   3.432
10391W        W75651  37.254  44.713  10.076
10392W        W75652  26.607  41.055   1.712
10393W        W75653  35.585  28.196   1.454
10394W        W75654  22.475   0.225  11.895
10395W        W75655  13.647  21.061  11.458
10396W        W75656  28.350  40.381   4.141
10397W        W75657  35.359  23.294  14.819
10398W        W75658  39.576  24.498  11.115
10399W        W75659  32.562  20.659   1.877
10400W        W75660  39.455  34.142  12.843
10401W        W75661  43.038   6.929   4.700
10402W        W75662  15.706  12.825  11.740
10403W        W75663   2.434  29.543   2.220
10404W        W75664   5.858  31.743   0.214
10405W        W75665  38.992   0.222   0.245
10406W        W75666  24.216   2.797   4.750
10407W        W75667  23.416   8.334  11.896
10408W        W75668   0.818   8.110   0.864
10409W        W75669  21.123  34.380   0.445
10410W        W75670  15.393  19.923   2.877
10411W        W75671   6.863  26.117   0.002
10412W        W75672   5.462  12.695  14.387
10413W        W75673  26.108  32.482   3.303
10414W        W75674  29.005  12.232  10.733
10415W        W75675  11.523  16.672   4.892
10416W        W75676  18.307  20.123  12.414
10417W        W75677  26.701   9.201  12.546
10418W        W75678  26.642  17.176   0.488
10419W        W75679   9.248  20.626   0.373
10420W        W75680  15.880  24.617   1.814
10421W        W75681   0.458   2.305   0.362
10422W        W75682   7.336  35.573  11.694
10423W        W75683  33.232  13.948  14.954
10424W        W75684   0.003  16.652   1.864
10425W        W75685  41.304  30.995  13.032
10426W        W75686  26.214   7.311   3.620
10427W        W75687  29.672  24.164   1.807
10428W        W75688  22.997   5.484  14.406
10429W        W75689  13.394   6.683  11.894
10430W        W75690   2.523   0.483  12.921
10431W        W75691  22.681   7.461  13.582
10432W        W75692  28.143  14.765   4.726
10433W        W75693  16.802  41.667  10.143
10434W        W75694   4.909  18.094   3.543
10435W        W75695  29.379  15.321   0.946
10436W        W75696  41.697  20.541  13.563
10437W        W75697  11.328  13.491   1.743
10438W        W75698  22.278  44.269  14.740
10439W        W75699  39.522  33.368  14.275
10440W        W75700  10.296  17.464   1.377
10441W        W75701  26.615   4.289   3.660
10442W        W75702  28.447  11.266  12.028
10443W        W75703  19.166   2.319  13.894
10444W        W75704   6.737  14.611   0.406
10445W        W75705  36.120   4.651  12.596
10446W        W75706  44.981  28.873   2.212
10447W        W75707  14.974  30.408   3.867
10448W        W75708  20.207   5.700   1.278
10449W        W75709  16.683  18.417   0.189
10450W        W75710  20.853  41.530   0.991
10451W        W75711   9.487   0.315   0.368
10452W        W75712   4.003  17.161   1.279
10453W        W75713   5.364  17.659   0.981
10454W        W75714  18.674   8.821  12.446
10455W        W75715  39.055  12.462   5.101
10456W        W75716  19.253  12.869  12.057
10457W        W75717  40.304  16.709   4.193
10458W        W75718  31.952  44.063   3.185
10459W        W75719  33.111  14.291  12.517
10460W        W75720  27.683  37.365  10.007
10461W        W75721  35.991   5.551   4.690
10462W        W75722  37.815   7.111   1.359
10463W        W75723  16.779   0.596   0.275
10464W        W75724  28.000  36.053   2.311
10465W        W75725  12.652   9.241   4.260
10466W        W75726  15.560  44.675  11.211
10467W        W75727  33.145   2.933   2.900
10468W        W75728   5.192  34.815  11.633
10469W        W75729  40.971  44.426   4.455
10470W        W75730  32.623  42.424  11.067
10471W        W75731  14.615  10.191   1.313
10472W        W75732  30.680   0.466  14.941
10473W        W75733  18.496  14.200   4.622
10474W        W75734  33.675  26.633   1.403
10475W        W75735  31.708   7.839   3.811
10476W        W75736  25.532  22.014   1.175
10477W        W75737  21.333  10.230  13.482
10478W        W75738   5.262  42.049   1.857
10479W        W75739  18.797   5.350   1.688
10480W        W75740  28.864  24.765   2.567
10481W        W75741  39.403  14.829  13.975
10482W        W75742  44.484   6.426  13.410
10483W        W75743  14.637  14.047  13.358
10484W        W75744  30.975   6.616   0.427
10485W        W75745  37.844  24.930  13.073
10486W        W75746   9.936   8.194   5.436
10487W        W75747  16.209  38.976  12.956
10488W        W75748  33.714   0.896   4.613
10489W        W75749  18.206  33.004  13.028
10490W        W75750  38.552  24.747   4.859
10491W        W75751  43.821  17.094   0.373
10492W        W75752   7.641  39.700  13.800
10493W        W75753  17.952  24.740   1.781
10494W        W75754  42.668  40.752   3.681
10495W        W75755  24.655  39.897   1.272
10496W        W75756  41.588  30.465   3.151
10497W        W75757  24.538  19.453  14.333
10498W        W75758  28.993  17.964  12.949
10499W        W75759  17.480   7.731  11.860
10500W        W75760  36.749  28.410   0.772
10501W        W75761  17.223  15.937   2.394
10502W        W75762  18.505  15.546   4.206
10503W        W75763   0.992  40.361  12.925
10504W        W75764  16.346  33.909  14.843
10505W        W75765  20.519  44.999   0.660
10506W        W75766   6.230  29.194  11.077
10507W        W75767  23.217  27.739  11.873
10508W        W75768  15.948  27.472  13.636
10509W        W75769  33.087  40.212   0.830
10510W        W75770  26.883  24.779   1.425
10511W        W75771  36.836  43.509   4.506
10512W        W75772  32.527   0.869   4.271
10513W        W75773  15.791  11.160  12.820
10514W        W75774   8.784   3.687   4.591
10515W        W75775   3.193  22.547   4.433
10516W        W75776  41.951  38.517  10.931
10517W        W75777  40.634  44.609  14.757
10518W        W75778  44.980  36.059   4.661
10519W        W75779  29.965  15.728  13.932
10520W        W75780   8.204   6.426   1.268
10521W        W75781  37.323  28.468  14.949
10522W        W75782   4.240  18.986  12.986
10523W        W75783  30.975  18.657  10.587
10524W        W75784  41.823   1.975   1.766
10525W        W75785   1.761  24.027   0.266
10526W        W75786  14.846  39.817   3.305
10527W        W75787  12.624  10.873   4.582
10528W        W75788  29.054  41.078  12.556
10529W        W75789  29.560  18.524  13.746
10530W        W75790  26.517  17.530   3.276
10531W        W75791  16.819  31.850   2.556
10532W        W75792  41.512  29.002   1.335
10533W        W75793  35.269  12.632  10.696
10534W        W75794   8.710   9.041  12.179
10535W        W75795   4.674  18.319   1.806
10536W        W75796  44.441  44.819   0.244
10537W        W75797  16.284  43.040   3.880
10538W        W75798  33.869  28.960   0.451
10539W        W75799  24.503   0.272   3.797
10540W        W75800  37.349  29.629   0.578
10541W        W75801  35.428  12.369   4.021
10542W        W75802  41.216  23.674   4.097
10543W        W75803  16.334  38.541   2.431
10544W        W75804   1.434  36.235  13.479
10545W        W75805  35.624  23.720   4.219
10546W        W75806   0.382  38.427   0.859
10547W        W75807  37.044   6.488   2.104
10548W        W75808  28.750  31.962   1.317
10549W        W75809  22.281  43.580  11.962
10550W        W75810  17.709  21.150   4.447
10551W        W75811  25.724  35.677   4.450
10552W        W75812  40.902  28.708  12.080
10553W        W75813  27.271  21.766   1.396
10554W        W75814   6.096  17.138  14.836
10555W        W75815   4.704   7.759  11.107
10556W        W75816  40.429   3.497   4.851
10557W        W75817  19.656  19.312   3.544
10558W        W75818   7.893  42.322  12.968
10559W        W75819   9.307  43.004  14.719
10560W        W75820  38.855  13.545   1.240
10561W        W75821   9.789  17.548  11.009
10562W        W75822  14.608  24.583   3.646
10563W        W75823  15.364  36.939   3.889
10564W        W75824  15.092  25.581   0.755
10565W        W75825  43.921   4.398  11.965
10566W        W75826   0.536  42.358   2.091
10567W        W75827  12.147  15.157   4.586
10568W        W75828   0.748   5.448   3.906
10569W        W75829  23.081  35.891  14.778
10570W        W75830   3.491  25.339  12.144
10571W        W75831  40.780   8.546   1.673
10572W        W75832  24.038   3.787  13.831
10573W        W75833  15.620  13.923  11.600
10574W        W75834  39.001  36.786  10.651
10575W        W75835   0.011  21.759   1.359
10576W        W75836  33.316   6.313  11.069
10577W        W75837  18.402  15.938   5.077
10578W        W75838  41.027   0.364   1.625
10579W        W75839  42.400  21.762  12.136
10580W        W75840   0.919  43.687   4.585
10581W        W75841  42.242  27.025   3.338
10582W        W75842   4.749  33.338   4.175
10583W        W75843   8.906  12.234  13.144
10584W        W75844  30.604   6.284  14.441
10585W        W75845  24.434  26.540   0.992
10586W        W75846  34.353   2.860  12.467
10587W        W75847  35.037   3.390   0.693
10588W        W75848  11.176  30.543   2.671
10589W        W75849  20.288  29.558   1.358
10590W        W75850  11.895  13.516   2.274
10591W        W75851  27.028  28.274  14.958
10592W        W75852  44.006   0.070  11.945
10593W        W75853  16.063  43.524   3.310
10594W        W75854  39.483   3.693   4.236
10595W        W75855  22.029  35.041   2.213
10596W        W75856  22.448   1.848  12.016
10597W        W75857   6.668  10.104  10.307
10598W        W75858  12.662  30.033   1.416
10599W        W75859  34.844  32.534  11.992
10600W        W75860  19.281  30.375   4.731
10601W        W75861  10.144  12.076   3.445
10602W        W75862  32.845  15.751   1.700
10603W        W75863   5.264  25.912  12.031
10604W        W75864  43.394   4.427  12.092
10605W        W75865  14.698  20.569  13.358
10606W        W75866   3.594  21.322  12.162
10607W        W75867  31.385  21.572   3.630
10608W        W75868  42.040  29.437   2.966
10609W        W75869  44.854  19.857   4.480
10610W        W75870  22.784  35.956  12.063
10611W        W75871  43.504  38.024  13.423
10612W        W75872  21.563   2.704   3.308
10613W        W75873  37.894  44.086   2.217
10614W        W75874  35.531   9.776   0.507
10615W        W75875  37.460   6.680  14.844
10616W        W75876  12.629   5.679   1.357
10617W        W75877  29.121  10.330  12.227
10618W        W75878  38.823  39.341   3.352
10619W        W75879  38.031  24.054  13.016
10620W        W75880  21.430  11.746   1.313
10621W        W75881  43.593  17.060  14.889
10622W        W75882   7.762  22.454  11.546
10623W        W75883  33.517  33.361  13.388
10624W        W75884  13.222   1.117   2.762
10625W        W75885  16.236  38.785   5.111
10626W        W75886  30.259   2.313   2.186
10627W        W75887  35.560   3.500   0.988
10628W        W75888  22.590  11.894   2.775
10629W        W75889  26.657   3.867  11.429
10630W        W75890  17.082   4.886   4.525
10631W        W75891  27.101  28.674   2.718
10632W        W75892  34.406  21.122  14.455
10633W        W75893  25.105  42.784  12.467
10634W        W75894  27.158   9.678  11.115
10635W        W75895   4.890  14.714  13.757
10636W        W75896   0.269  13.166  13.104
10637W        W75897  35.830  36.816  10.737
10638W        W75898  18.822  35.373   3.223
10639W        W75899  44.218  17.294  13.292
10640W        W75900  20.453  13.657   1.306
10641W        W75901  17.275  30.100   1.575
10642W        W75902  21.262   2.951   0.354
10643W        W75903  23.174  37.692   4.485
10644W        W75904  29.574   2.856   3.484
10645W        W75905  15.562  31.139  12.392
10646W        W75906   7.141   2.555   3.736
10647W        W75907   2.501   2.881  11.878
10648W        W75908  17.530  38.000   1.984
10649W        W75909  14.084   5.295   0.255
10650W        W75910  34.618  34.491  12.336
10651W        W75911   4.885  31.448   3.258
10652W        W75912  27.511  27.906  10.871
10653W        W75913   5.511  28.086   0.865
10654W        W75914  36.455  18.564  11.449
10655W        W75915   0.373   8.913   3.914
10656W        W75916  32.820  12.102  14.388
10657W        W75917  22.224  39.289  13.210
10658W        W75918  19.228  15.341   0.951
10659W        W75919   4.011   8.254   4.334
10660W        W75920  21.533  41.982   2.686
10661W        W75921  19.841  14.344  14.259
10662W        W75922  24.008  16.766  12.471
10663W        W75923  42.206   8.866   1.419
10664W        W75924  38.764  11.370   4.260
10665W        W75925  37.306   9.640  12.897
10666W        W75926  11.710  34.097  13.366
10667W        W75927  15.700  36.582   2.484
10668W        W75928  38.160  10.762   0.909
10669W        W75929  28.068  28.929  10.336
10670W        W75930  12.133  43.906  14.050
10671W        W75931  39.774   9.469   1.767
10672W        W75932  32.464  14.357  12.956
10673W        W75933  38.010   6.139  12.585
10674W        W75934   6.657  37.643  11.169
10675W        W75935   5.888  39.259  11.928
10676W        W75936  42.679  24.454  12.069
10677W        W75937   8.160  10.532  12.166
10678W        W75938   8.923  21.993  12.623
10679W        W75939  32.787   6.422   1.962
10680W        W75940  14.509  17.208   2.734
10681W        W75941  17.786  23.960   1.451
10682W        W75942   8.678  40.178   4.553
10683W        W75943   6.485  34.347   1.368
10684W        W75944  15.387  26.175   1.436
10685W        W75945  37.239  18.126   0.851
10686W        W75946  14.770  11.867   4.114
10687W        W75947  22.669  13.310   3.650
10688W        W75948  43.309  14.365  10.918
10689W        W75949  13.060  27.066   3.845
10690W        W75950   4.405  23.008  11.962
10691W        W75951  38.573  11.319  14.254
10692W        W75952  12.204  24.053   1.425
10693W        W75953  29.038  35.628   3.758
10694W        W75954  42.365   7.381  14.487
10695W        W75955  26.976  30.621  13.084
10696W        W75956  38.415  32.828  14.884
10697W        W75957  35.566   1.355  14.822
10698W        W75958  33.612   8.593   1.435
10699W        W75959  30.659   2.879   1.625
10700W        W75960   7.115  19.859  11.553
10701W        W75961  30.973  39.873  13.035
10702W        W75962  11.772   5.916   5.740
10703W        W75963  31.956  19.494  11.185
10704W        W75964  41.522   1.821   2.721
10705W        W75965  38.550  39.087  11.122
10706W        W75966   2.728  14.781   2.177
10707W        W75967  39.439  36.943  13.683
10708W        W75968   3.968  41.488  14.400
10709W        W75969  37.887  18.300  10.794
10710W        W75970  36.799  16.956  14.429
10711W        W75971  36.064  15.595  14.044
10712W        W75972   2.267   9.679  14.918
10713W        W75973  17.269   7.696  13.412
10714W        W75974  15.199  21.582  14.719
10715W        W75975  28.794  10.618   1.329
10716W        W75976  43.007  44.271  10.447
10717W        W75977  41.917  10.243  12.031
10718W        W75978  16.842  22.092  14.521
10719W        W75979  22.740   5.968   3.223
10720W        W75980   0.436  36.112  10.659
10721W        W75981  26.424  14.630   4.172
10722W        W75982  18.913  24.908  12.075
10723W        W75983   1.750  39.515  14.847
10724W        W75984  30.084  35.594  10.549
10725W        W75985  17.989  44.972  14.902
10726W        W75986  43.944  44.954   4.370
10727W        W75987  42.033  32.104   3.286
10728W        W75988  19.726  39.608   0.345
10729W        W75989  29.171   8.457   0.015
10730W        W75990  24.529  16.820  10.598
10731W        W75991   9.983  31.176  14.228
10732W        W75992  22.707  44.982  10.931
10733W        W75993  30.034  35.225   3.569
10734W        W75994  10.102  39.999   0.974
10735W        W75995  37.506  18.825  14.758
10736W        W75996  28.118  31.172  14.102
10737W        W75997  36.479  15.379  12.972
10738W        W75998  10.671   8.324  13.402
10739W        W75999   9.309  23.336  12.088
10740W        W76000  43.132  26.289  11.170
10741W        W76001  26.426  14.326  14.988
10742W        W76002  18.264  37.734   0.287
10743W        W76003  29.676  29.543   1.944
10744W        W76004  20.332   6.435  13.399
10745W        W76005  23.690   2.038  11.437
10746W        W76006  36.520  24.091  13.996
10747W        W76007   9.205  39.544   4.119
10748W        W76008  14.684  41.391   0.809
10749W        W76009   9.334  20.956   1.409
10750W        W76010  10.334   1.434   4.556
10751W        W76011  35.504   5.027   3.291
10752W        W76012   6.684   5.464  11.128
10753W        W76013  37.643  22.030   2.345
10754W        W76014   1.281  34.974  10.773
10755W        W76015   0.828  18.747   1.706
10756W        W76016  42.438  40.531   3.241
10757W        W76017  25.029  14.110   0.361
10758W        W76018   8.734  40.333  14.227
10759W        W76019   3.031  34.623   4.306
10760W        W76020  31.491  27.602   0.915
10761W        W76021  11.158   2.444   1.805
10762W        W76022  42.610   5.597  11.990
10763W        W76023  36.121   6.247  13.611
10764W        W76024  31.574  35.067  14.781
10765W        W76025  12.141  37.761  10.533
10766W        W76026  12.696   4.158  14.850
10767W        W76027  20.589  38.080   3.589
10768W        W76028  14.341   6.741  13.490
10769W        W76029  42.014  27.643  13.482
10770W        W76030  41.979  28.839  11.612
10771W        W76031  26.471  19.727   2.726
10772W        W76032  25.003  44.209   2.226
10773W        W76033  40.863   8.982   0.781
10774W        W76034   6.243  10.254  12.374
10775W        W76035   6.110  38.126   2.791
10776W        W76036  20.609  28.496   4.533
10777W        W76037   4.668  32.021   1.149
10778W        W76038  12.799  20.200   4.139
10779W        W76039  19.556  10.613  14.367
10780W        W76040   4.630   8.704   1.747
10781W        W76041  11.727   5.880  10.227
10782W        W76042  36.214   3.608   1.705
10783W        W76043  13.345  33.941   0.408
10784W        W76044  16.635   6.423   3.937
10785W        W76045   4.823  41.510   2.334
10786W        W76046   4.029  12.753  13.368
10787W        W76047  15.155  18.290  12.114
10788W        W76048  11.865  16.302  14.508
10789W        W76049  31.650   8.462   0.220
10790W        W76050   1.767  30.507   1.567
10791W        W76051  16.100   1.288  11.043
10792W        W76052  43.144  18.213  13.459
10793W        W76053  39.763  27.064  11.337
10794W        W76054  36.440  27.816   5.056
10795W        W76055  37.296  20.028   2.907
10796W        W76056  10.483   3.546  12.131
10797W        W76057   8.124  15.118   2.336
10798W        W76058  44.660  12.833  13.898
10799W        W76059  43.045  22.166   2.139
10800W        W76060  23.783  44.307   4.363
10801W        W76061  40.367  35.687  12.499
10802W        W76062  37.027   1.456  14.857
10803W        W76063   3.822   5.353  14.139
10804W        W76064  14.300  10.357  11.881
10805W        W76065  38.797  24.480  14.889
10806W        W76066  19.643  12.897   4.145
10807W        W76067  20.506   1.492  11.573
10808W        W76068  25.268  12.144   2.780
10809W        W76069  25.403  27.639  12.729
10810W        W76070  35.792  10.906  14.022
10811W        W76071  22.512   0.991   2.321
10812W        W76072   9.448   4.763  10.328
10813W        W76073  28.125  18.083  10.755
10814W        W76074  44.777  21.294  11.033
10815W        W76075  21.158  18.768   5.552
10816W        W76076  12.659  22.393   3.081
10817W        W76077  10.542  36.484   1.205
10818W        W76078  20.732  13.410  14.712
10819W        W76079  19.796  21.092  11.811
10820W        W76080  14.121  15.707  14.842
10821W        W76081  44.234  43.321  11.235
10822W        W76082  33.666  43.376   2.743
10823W        W76083  21.754  44.749  11.128
10824W        W76084  23.511   0.525  11.089
10825W        W76085   4.427   9.978   3.970
10826W        W76086  11.255  16.843   0.757
10827W        W76087   0.727   3.937  11.144
10828W        W76088  32.603  27.448   4.497
10829W        W76089  25.492  40.524  10.689
10830W        W76090  12.369   7.433   1.486
10831W        W76091  10.955  21.230  11.586
10832W        W76092  10.390  34.471   1.757
10833W        W76093  42.838  42.802  11.978
10834W        W76094  32.613  35.693   4.053
10835W        W76095  27.629   0.979   3.524
10836W        W76096  40.368  10.355   0.026
10837W        W76097  32.062  21.336  11.514
10838W        W76098  18.787  43.007   2.201
10839W        W76099   0.363  26.242  11.961
10840W        W76100  36.484  43.362  11.561
10841W        W76101  30.396  19.747   3.847
10842W        W76102  28.642  26.015  10.641
10843W        W76103  11.707   0.265   4.284
10844W        W76104   1.970   3.372   2.137
10845W        W76105  28.322   4.977  11.989
10846W        W76106  25.152   3.689   1.428
10847W        W76107  36.460  22.259  14.524
10848W        W76108  20.939  35.706  11.556
10849W        W76109  23.573  29.922   1.912
10850W        W76110  13.401  17.524  12.950
10851W        W76111  28.454   2.678  13.537
10852W        W76112  12.390  12.333  12.079
10853W        W76113   1.410  13.791  12.026
10854W        W76114  26.498  42.529  13.352
10855W        W76115  38.114  14.520   5.020
10856W        W76116   0.945  39.146  14.867
10857W        W76117  20.007  32.062   1.942
10858W        W76118  37.056  35.042  14.444
10859W        W76119  12.482  31.734  11.669
10860W        W76120  41.407  17.228   2.388
10861W        W76121  35.078  10.357   1.349
10862W        W76122  17.786  24.127  11.174
10863W        W76123  42.492  16.573   2.700
10864W        W76124  29.447  18.717   4.563
10865W        W76125  25.751  13.885  13.840
10866W        W76126  16.406   8.215   3.589
10867W        W76127   6.740   7.177  12.059
10868W        W76128  10.407  35.008   3.794
10869W        W76129  13.823  41.352   3.072
10870W        W76130  37.013  43.411   0.801
10871W        W76131  20.037  40.512   0.687
10872W        W76132  13.748  26.076  12.664
10873W        W76133  22.594   1.517   2.313
10874W        W76134   7.325  20.934  13.597
10875W        W76135  34.618  29.136  11.557
10876W        W76136  35.346  15.716   2.704
10877W        W76137   4.274  35.454  13.776
10878W        W76138  31.899  40.189  10.072
10879W        W76139  19.663  11.171  10.725
10880W        W76140  26.123  13.163   0.176
10881W        W76141  16.582  10.258   1.559
10882W        W76142  13.377  43.800   4.042
10883W        W76143  10.250  37.708  11.571
10884W        W76144  41.324  18.522  11.510
10885W        W76145  31.734  28.103   0.010
10886W        W76146  12.625  13.951   4.094
10887W        W76147   8.089   1.333   0.420
10888W        W76148  33.620  27.124   2.681
10889W        W76149   3.623   3.308  10.339
10890W        W76150   6.256  27.503  11.585
10891W        W76151  41.952  17.967   3.631
10892W        W76152  34.069  20.291   0.225
10893W        W76153  44.108  22.048  11.111
10894W        W76154  44.809  17.334   0.125
10895W        W76155  12.389   6.575  13.750
10896W        W76156  17.750  24.448  12.546
10897W        W76157  29.159  22.488  10.777
10898W        W76158  35.208  13.865  13.115
10899W        W76159  36.079   9.608  10.689
10900W        W76160   0.945  10.193  14.033
10901W        W76161  12.969  32.838  13.630
10902W        W76162  31.928  14.121  13.958
10903W        W76163  15.811  38.045  12.015
10904W        W76164  28.021  13.328   4.731
10905W        W76165  21.020  12.612  10.688
10906W        W76166   3.819  39.330  11.625
10907W        W76167  44.959  16.935  10.235
10908W        W76168  36.540   4.878   1.802
10909W        W76169  22.712  38.875  11.107
10910W        W76170  31.447  40.533   1.284
10911W        W76171  10.299  13.429   2.951
10912W        W76172  32.920   3.453  11.138
10913W        W76173  22.664   3.783   4.714
10914W        W76174  28.155  19.757  12.393
10915W        W76175   1.773  44.965  12.865
10916W        W76176  14.690  41.550  13.807
10917W        W76177  39.783  16.857   2.246
10918W        W76178   1.707  32.538   2.635
10919W        W76179   9.048  38.627  11.569
10920W        W76180  17.321   6.547   1.929
10921W        W76181  20.889  13.639  12.966
10922W        W76182  12.301   2.835   3.709
10923W        W76183  22.540  24.422  14.455
10924W        W76184  19.983  43.353  11.122
10925W        W76185  40.708   0.682  11.638
10926W        W76186  38.345  10.417  13.834
10927W        W76187  15.323  26.021  14.501
10928W        W76188  33.799  40.829  10.617
10929W        W76189   2.868   7.682  11.928
10930W        W76190  20.966  23.208  12.921
10931W        W76191  24.517  24.104   3.246
10932W        W76192  11.252   4.085  11.121
10933W        W76193   0.855  25.855   2.274
10934W        W76194  38.054  22.656  14.400
10935W        W76195  44.091  19.793  12.364
10936W        W76196   8.211  28.717   1.798
10937W        W76197  22.731   8.366  14.047
10938W        W76198   2.054  11.803   1.408
10939W        W76199   9.836  44.316  14.953
10940W        W76200  38.928  41.015   3.068
10941W        W76201  24.300   5.204  13.510
10942W        W76202  37.166  37.364   4.112
10943W        W76203   9.264  42.364  10.961
10944W        W76204  15.005  33.832   0.852
10945W        W76205  36.518  38.983   2.911
10946W        W76206  38.066  15.706   4.829
10947W        W76207   9.865  31.949   3.723
10948W        W76208  31.582  36.394   0.201
10949W        W76209  43.950  28.477  11.912
10950W        W76210  22.186  27.006   0.793
10951W        W76211  31.404   4.441   1.830
10952W        W76212  34.086  19.492   1.968
10953W        W76213  34.640  20.012  11.040
10954W        W76214  20.211  24.115   1.311
10955W        W76215  30.170  30.472   3.193
10956W        W76216  30.484  43.876  12.982
10957W        W76217  30.016  36.723   2.374
10958W        W76218  34.077  22.115   4.511
10959W        W76219  23.685  37.039  12.640
10960W        W76220  33.794  26.422  10.342
10961W        W76221  23.866  15.388  14.480
10962W        W76222   1.305  11.273  10.687
10963W        W76223  20.987  25.718   4.622
10964W        W76224   1.810  21.605   2.336
10965W        W76225  40.549  34.216  10.258
10966W        W76226  25.914  29.741  11.926
10967W        W76227  27.941  26.537  11.124
10968W        W76228  27.195  42.823  10.679
10969W        W76229  42.694  34.356   1.480
10970W        W76230  37.773  44.829   0.647
10971W        W76231   9.540  38.819  12.952
10972W        W76232  14.810  13.704  14.835
10973W        W76233  10.620  22.548   2.634
10974W        W76234  32.036  25.979  13.904
10975W        W76235   4.621   3.697  13.817
10976W        W76236  38.394  24.784   1.240
10977W        W76237  44.233  22.675   4.525
10978W        W76238  21.290  26.447   4.195
10979W        W76239   7.914   8.457  11.920
10980W        W76240  19.504  37.099   5.078
10981W        W76241  30.476  17.941  13.424
10982W        W76242  34.441   6.790  10.735
10983W        W76243  20.050  11.277   4.093
10984W        W76244   6.316   8.493  13.075
10985W        W76245   9.750  16.540   3.571
10986W        W76246   9.148  36.194  14.445
10987W        W76247  10.206  17.828   0.904
10988W        W76248  13.512   4.707   0.806
10989W        W76249  17.088  26.302   0.479
10990W        W76250  22.425  30.394   4.148
10991W        W76251  11.636   1.412  11.190
10992W        W76252  37.976  44.701  11.222
10993W        W76253  28.789  10.725  12.961
10994W        W76254  41.806  17.008   1.258
10995W        W76255  31.253  13.776   4.238
10996W        W76256   4.249  40.934  10.544
10997W        W76257  20.276   2.881  14.330
10998W        W76258  20.924   2.465   4.105
10999W        W76259   9.264  19.622  13.987
11000W        W76260  18.987  24.783  13.018
11001W        W76261  36.637  14.177   1.014
11002W        W76262   6.925  21.573   2.359
11003W        W76263  26.716  33.297  13.371
11004W        W76264  32.041  20.628  14.453
11005W        W76265   9.589  20.166   4.612
11006W        W76266  32.453  37.032   2.384
11007W        W76267   6.398  25.957  10.186
11008W        W76268  16.727   7.777   3.391
11009W        W76269  38.606  39.881  13.552
11010W        W76270  35.347  44.920  14.040
11011W        W76271  38.562  23.755  13.808
11012W        W76272   0.167   2.778  11.483
11013W        W76273   1.906  18.344   1.233
11014W        W76274  31.764   4.014  12.432
11015W        W76275   4.031  30.653   2.694
11016W        W76276  41.925  32.299  13.935
11017W        W76277  17.759  35.346   2.340
11018W        W76278  39.343  38.820  13.023
11019W        W76279  16.428  41.380  12.406
11020W        W76280   6.701  18.721   0.944
11021W        W76281  14.371  10.471   4.060
11022W        W76282  22.222   2.846  11.010
11023W        W76283  42.457  42.364   1.299
11024W        W76284  11.843  11.335  12.488
11025W        W76285  41.676  34.643  12.156
11026W        W76286  25.617  31.201  13.106
11027W        W76287  32.370   2.004  12.460
11028W        W76288  17.825  40.485   1.257
11029W        W76289  33.934  35.264  11.209
11030W        W76290  24.276  23.246  14.320
11031W        W76291  30.847   1.941   3.149
11032W        W76292  11.663  39.030   4.387
11033W        W76293  28.425  18.431  14.480
11034W        W76294  41.529   0.283  12.564
11035W        W76295  28.018  43.587  10.829
11036W        W76296  31.524  31.474   2.873
11037W        W76297  17.167  43.827   0.046
11038W        W76298   9.954  30.547  11.506
11039W        W76299  43.797   2.501  13.812
11040W        W76300   1.355  33.509   2.863
11041W        W76301  27.736   1.985  12.480
11042W        W76302  43.496   3.932  12.019
11043W        W76303  32.409   9.185  11.682
11044W        W76304  16.276   3.767  12.851
11045W        W76305   6.985   1.726   4.538
11046W        W76306  42.739  39.035   4.093
11047W        W76307   4.454  37.452   0.263
11048W        W76308  22.539  30.948  12.599
11049W        W76309  36.590  11.222   3.159
11050W        W76310  40.264   2.401  11.213
11051W        W76311  39.930  33.269   2.409
11052W        W76312  25.336  38.992   0.441
11053W        W76313  15.690   1.244   2.269
11054W        W76314  10.584  29.947   0.393
11055W        W76315   9.168  44.237   3.518
11056W        W76316   5.491  30.211  12.983
11057W        W76317  28.125  14.293   2.542
11058W        W76318  30.709  44.435   3.996
11059W        W76319  29.102  38.971   4.638
11060W        W76320  42.559  15.738   3.169
11061W        W76321  11.935  34.575  12.797
11062W        W76322  26.497  13.064  10.689
11063W        W76323  43.310   6.599  11.129
11064W        W76324  40.900   6.971  13.206
11065W        W76325  36.561  35.593   1.430
11066W        W76326  41.860  21.073   2.421
11067W        W76327  40.580  24.543  12.482
11068W        W76328   0.779  25.626  12.978
11069W        W76329  33.442  20.473  12.135
11070W        W76330  33.893  23.239   0.776
11071W        W76331  32.027  36.527   5.056
11072W        W76332  26.220  22.294  10.415
11073W        W76333  21.111  31.853  12.770
11074W        W76334  29.132   3.705   1.731
11075W        W76335  17.668  13.924   2.381
11076W        W76336  17.837  10.116  12.115
11077W        W76337  17.124  34.928   1.800
11078W        W76338  20.624   9.362   4.864
11079W        W76339  39.401  34.956  11.332
11080W        W76340  36.073  26.462  12.489
11081W        W76341  41.558  43.890  12.957
11082W        W76342  21.991  33.822   5.013
11083W        W76343  15.911  24.972   0.045
11084W        W76344  42.556   9.927   0.970
11085W        W76345  12.183  41.852  12.987
11086W        W76346   4.425  27.782   0.346
11087W        W76347  30.401   7.037   4.647
11088W        W76348  16.616  11.606   1.313
11089W        W76349  14.643  37.870   0.685
11090W        W76350  21.420  42.570  13.779
11091W        W76351  26.017  36.107   3.098
11092W        W76352   1.950  13.902  12.557
11093W        W76353  27.428  31.103  14.773
11094W        W76354  19.636  33.593  12.057
11095W        W76355  31.934  36.666  11.671
11096W        W76356  19.703  34.474   1.907
11097W        W76357  40.395  37.684  12.897
11098W        W76358  18.878  41.961  12.518
11099W        W76359   2.802  34.336  11.437
11100W        W76360   4.231   9.136  11.504
11101W        W76361  42.417  15.521  13.987
11102W        W76362  24.103  21.701  12.540
11103W        W76363  42.746  21.269  11.119
11104W        W76364  25.714  43.777  10.726
11105W        W76365  28.363   0.856  12.363
11106W        W76366  14.121  24.523  14.731
11107W        W76367  37.270  35.882   4.723
11108W        W76368  33.013  27.483   0.825
11109W        W76369  43.361  17.118   4.593
11110W        W76370   6.783  27.166   3.584
11111W        W76371  21.753   9.338  14.331
11112W        W76372  15.271  29.931  12.359
11113W        W76373  13.183  37.962   3.895
11114W        W76374  29.697  24.596   4.941
11115W        W76375  35.377  11.744   3.022
11116W        W76376   0.788   4.826  11.047
11117W        W76377  39.613  41.020  14.988
11118W        W76378  25.579  35.633   2.754
11119W        W76379  36.050  37.675  11.908
11120W        W76380   8.837  31.635   1.427
11121W        W76381   2.296  41.707   1.716
11122W        W76382  41.513  20.354   0.857
11123W        W76383  38.101   0.429  12.777
11124W        W76384  32.874   6.611  12.330
11125W        W76385  38.957  12.629   1.457
11126W        W76386  19.324  26.950  13.793
11127W        W76387  13.655  30.821   1.245
11128W        W76388  24.053   2.967   0.586
11129W        W76389  39.664  35.740  11.030
11130W        W76390   9.303  35.820   5.046
11131W        W76391   0.744  21.844  14.663
11132W        W76392  24.167  18.226  13.919
11133W        W76393   9.342  44.420  14.080
11134W        W76394  12.871   4.316  10.625
11135W        W76395  36.677  29.952   1.371
11136W        W76396   0.773   1.501   3.813
11137W        W76397  44.916  21.956  14.433
11138W        W76398  27.573  40.422   0.914
11139W        W76399  23.223  42.350  11.590
11140W        W76400  20.544  29.862   2.402
11141W        W76401  38.064   7.249  11.180
11142W        W76402  36.055  18.850  10.710
11143W        W76403  12.821  27.393   2.469
11144W        W76404  33.889   5.766  10.934
11145W        W76405  41.173   0.314   3.629
11146W        W76406   0.263  14.877   0.901
11147W        W76407  39.762   7.867  11.211
11148W        W76408  42.109  26.374   5.309
11149W        W76409  24.377   7.269  14.278
11150W        W76410   6.685  35.207  10.622
11151W        W76411  41.077  12.311   0.726
11152W        W76412  22.765  25.004  10.959
11153W        W76413  16.246  42.881  10.786
11154W        W76414   9.504  11.598  12.429
11155W        W76415   4.424  19.921  14.689
11156W        W76416  29.015  27.670  13.820
11157W        W76417  34.100   6.227  11.508
11158W        W76418   1.308  30.101   4.517
11159W        W76419  35.023   2.062   4.140
11160W        W76420  14.258  36.606   3.352
11161W        W76421  17.952  34.116  14.079
11162W        W76422  41.077  16.222  14.382
11163W        W76423  24.579  34.771   4.855
11164W        W76424   5.461  10.865   2.399
11165W        W76425  11.107  32.985   0.624
11166W        W76426  26.412   8.292  11.088
11167W        W76427   6.362  29.371  13.089
11168W        W76428   3.270  23.572  11.851
11169W        W76429  32.475   7.459  11.493
11170W        W76430   4.468  39.057   9.921
11171W        W76431  36.041  12.281   4.748
11172W        W76432  26.996  23.493  13.786
11173W        W76433  18.822  36.452  11.223
11174W        W76434   3.802   3.722  10.608
11175W        W76435   5.012  21.626  14.149
11176W        W76436  21.942   3.765  11.640
11177W        W76437  22.183  20.782   0.320
11178W        W76438   7.307  34.590   1.570
11179W        W76439  38.946  36.082  14.004
11180W        W76440  42.033  24.059  13.243
11181W        W76441  43.338  18.248  13.977
11182W        W76442   5.976  10.687   2.417
11183W        W76443  27.655  22.157  13.563
11184W        W76444  23.561  37.581   0.740
11185W        W76445  37.609  13.287   0.485
11186W        W76446   0.514  19.145   1.355
11187W        W76447  17.730  14.106  13.431
11188W        W76448  17.259   1.307   3.220
11189W        W76449  15.804  11.583   3.115
11190W        W76450  32.438  34.264   3.817
11191W        W76451  12.742  21.985   3.957
11192W        W76452  26.369   1.458   0.443
11193W        W76453  11.814  29.879  12.517
11194W        W76454  42.359  11.673  13.550
11195W        W76455  24.554   0.180  10.534
11196W        W76456  14.368  23.504  10.298
11197W        W76457   2.944   2.650  13.865
11198W        W76458   5.950  21.629  11.093
11199W        W76459  38.898  20.780  11.643
11200W        W76460  18.866  15.113  14.202
11201W        W76461  37.621  40.547   2.288
11202W        W76462  25.277  28.452   2.759
11203W        W76463  25.794   2.783  11.983
11204W        W76464   2.238   2.220   2.677
11205W        W76465  32.931  29.615   1.516
11206W        W76466  41.212  10.802  10.473
11207W        W76467  44.334  36.529  11.080
11208W        W76468  31.927   3.567  11.689
11209W        W76469  21.303  27.076  12.740
11210W        W76470  38.106   3.938  11.055
11211W        W76471  23.534   8.302   4.705
11212W        W76472  31.008  31.696   4.030
11213W        W76473  17.074  34.194   4.078
11214W        W76474  19.994  31.371   0.220
11215W        W76475   9.900  20.151   0.963
11216W        W76476  10.191   2.201   4.531
11217W        W76477   7.832  17.238  11.561
11218W        W76478  33.501  16.979   4.482
11219W        W76479  16.028  17.021  13.734
11220W        W76480  12.688  25.651  14.476
11221W        W76481  23.042  33.306  13.114
11222W        W76482  28.417  10.436  14.364
11223W        W76483  25.610  28.414  11.989
11224W        W76484   6.280  44.786  10.227
11225W        W76485  31.874  30.392   3.676
11226W        W76486  27.915   2.431   2.417
11227W        W76487  24.582  21.177   1.727
11228W        W76488  28.426   7.371  11.257
11229W        W76489  43.145  28.683   0.726
11230W        W76490  31.327  29.498   2.897
11231W        W76491   8.071  43.320   3.708
11232W        W76492  14.071  32.333  13.354
11233W        W76493  11.101  18.937   4.450
11234W        W76494   8.779   4.738   2.324
11235W        W76495  36.058  19.034  12.917
11236W        W76496  12.529  43.414   4.938
11237W        W76497  35.035   4.237   2.424
11238W        W76498  15.439  11.864  11.381
11239W        W76499   8.688  32.386   3.146
11240W        W76500  41.376  11.442   0.778
11241W        W76501  44.350  23.946   3.357
11242W        W76502   7.819  31.615   4.049
11243W        W76503  27.127  14.400   0.538
11244W        W76504   8.122  19.702  14.105
11245W        W76505  44.459  15.098  13.366
11246W        W76506  15.387  28.613  12.603
11247W        W76507  30.186  43.055   0.362
11248W        W76508  33.879  37.379   0.787
11249W        W76509  33.906  22.246  11.147
11250W        W76510  17.237  21.911  13.317
11251W        W76511   9.817  31.397   0.777
11252W        W76512   8.899  19.284  14.967
11253W        W76513   3.565  26.667  12.038
11254W        W76514  36.059  20.953   3.751
11255W        W76515   4.500  23.990   4.899
11256W        W76516   1.582  26.703   0.539
11257W        W76517  20.136  30.644   2.206
11258W        W76518  10.239  35.808  14.690
11259W        W76519  32.009  12.257   3.202
11260W        W76520  28.099   5.634   1.077
11261W        W76521  28.517  20.734  10.674
11262W        W76522   1.199  23.048   4.634
11263W        W76523  22.770   2.261  14.013
11264W        W76524  25.708  29.789   2.211
11265W        W76525  27.851   9.452   2.213
11266W        W76526   0.497  21.581  10.606
11267W        W76527  11.368  36.348   4.719
11268W        W76528   6.811  16.442  13.910
11269W        W76529   0.308  30.948   0.745
11270W        W76530  23.903   3.218  10.070
11271W        W76531  20.275  44.763  13.435
11272W        W76532  43.946  13.174  14.408
11273W        W76533  21.783  32.366  13.132
11274W        W76534  27.200  26.637  12.524
11275W        W76535  32.990  15.957  12.850
11276W        W76536  25.914   0.114  10.775
11277W        W76537  42.957  26.219   4.546
11278W        W76538   6.875   7.278   3.460
11279W        W76539   1.401  27.668   0.256
11280W        W76540   2.080  24.683   5.418
11281W        W76541  16.123  11.338   3.462
11282W        W76542   2.386   0.727  13.892
11283W        W76543   3.841  39.776   1.419
11284W        W76544   9.720  24.226   0.431
11285W        W76545  39.437  36.517   1.398
11286W        W76546  37.841   2.207   0.384
11287W        W76547  20.113  18.245   2.376
11288W        W76548  20.241  10.584  13.901
11289W        W76549  21.798   3.180  14.013
11290W        W76550  43.389   2.153  13.314
11291W        W76551   3.481  40.831  13.311
11292W        W76552   9.228   8.676  13.927
11293W        W76553  33.560   4.651   4.177
11294W        W76554  20.840   2.706   4.903
11295W        W76555  20.037  38.758   1.197
11296W        W76556  15.880   2.191  11.080
11297W        W76557  34.444  10.375   2.252
11298W        W76558  41.272  22.269   4.692
11299W        W76559  40.299  37.299   1.426
11300W        W76560   6.168  25.914   5.067
11301W        W76561  42.007  16.868  11.631
11302W        W76562   0.986   4.325   3.239
11303W        W76563  36.804  31.898   1.828
11304W        W76564  15.585   8.891  13.803
11305W        W76565  14.674  28.693   1.690
11306W        W76566  43.276   8.829  14.768
11307W        W76567  39.320  39.772  12.085
11308W        W76568  34.319  19.253  12.529
11309W        W76569  25.668  36.070  14.855
11310W        W76570  20.342  35.397  12.628
11311W        W76571   9.833  36.632   2.900
11312W        W76572   6.627  36.716  12.092
11313W        W76573  19.595  13.861  10.808
11314W        W76574  12.094  23.027   3.038
11315W        W76575  23.811   8.069   1.368
11316W        W76576   7.168  17.672  10.717
11317W        W76577  39.504  38.514  11.676
11318W        W76578  32.363  44.323   3.737
11319W        W76579  16.068  10.780  13.587
11320W        W76580  43.283  32.566  10.979
11321W        W76581  38.464   9.630   4.814
11322W        W76582  24.260  44.011  11.122
11323W        W76583  16.998  25.337  11.189
11324W        W76584  10.293  19.194  10.668
11325W        W76585   7.417  23.137   3.264
11326W        W76586   3.267   5.446  11.145
11327W        W76587   8.817   9.237   3.626
11328W        W76588  22.305   3.984   0.754
11329W        W76589   9.360  24.735   3.172
11330W        W76590  37.920  35.428   0.885
11331W        W76591  35.246  17.336  11.412
11332W        W76592   6.665  42.042   2.786
11333W        W76593  17.753   8.744  13.318
11334W        W76594  40.608  21.802   0.356
11335W        W76595  37.556  39.341   4.214
11336W        W76596  16.284   5.368  14.207
11337W        W76597  12.945  11.634  12.843
11338W        W76598  22.977   7.003  10.282
11339W        W76599  25.808  15.324   4.520
11340W        W76600  11.919  32.694   3.289
11341W        W76601  30.532  22.236  14.864
11342W        W76602  21.808   6.892  14.414
11343W        W76603  11.603  43.743  14.855
11344W        W76604  21.001  44.865  10.665
11345W        W76605  26.118  17.613   5.925
11346W        W76606   7.689  30.323   1.418
11347W        W76607  33.092  28.098   0.099
11348W        W76608  13.790  28.523   0.308
11349W        W76609  40.505   7.358   4.194
11350W        W76610  40.814  18.544  12.091
11351W        W76611  33.276  22.401   4.472
11352W        W76612   7.039   5.993  11.617
11353W        W76613  32.546  28.745  14.052
11354W        W76614  28.563   5.823   0.970
11355W        W76615  37.142  30.134  14.860
11356W        W76616  10.387   6.488   0.884
11357W        W76617  26.623  17.325  11.101
11358W        W76618  19.041   1.264  14.440
11359W        W76619  33.620  43.494  13.858
11360W        W76620  42.548  33.023   0.848
11361W        W76621  35.966   0.715  13.518
11362W        W76622  17.404  22.719  11.678
11363W        W76623   2.746  24.553  11.677
11364W        W76624  32.012  18.323  11.517
11365W        W76625  22.589  41.105   1.555
11366W        W76626  32.158  22.316   4.577
11367W        W76627  43.976  26.679  13.105
11368W        W76628  14.914  33.377   2.263
11369W        W76629   8.363  25.134  12.848
11370W        W76630  26.409  20.695  13.142
11371W        W76631   5.349   1.079   0.436
11372W        W76632  37.030  17.031  10.921
11373W        W76633  26.008   2.253  13.820
11374W        W76634  31.436  15.667   0.251
11375W        W76635  16.091  18.089  13.543
11376W        W76636  12.391  11.766   2.757
11377W        W76637  43.537   4.631   3.983
11378W        W76638   2.623  32.004   4.120
11379W        W76639  31.666  23.205  10.581
11380W        W76640   6.406  15.061   3.725
11381W        W76641  20.651  36.900  14.482
11382W        W76642  33.031  21.647   3.547
11383W        W76643  20.089  11.949   3.317
11384W        W76644  18.789  16.690   5.001
11385W        W76645  34.384  20.746  14.918
11386W        W76646  33.514  26.714   5.423
11387W        W76647  44.676  34.397   2.313
11388W        W76648  44.000  44.044   1.582
11389W        W76649   1.523  10.659  14.801
11390W        W76650  25.561  40.072   3.623
11391W        W76651  20.219  20.416   0.433
11392W        W76652  21.980   7.363   2.190
11393W        W76653  23.236  37.477  12.108
11394W        W76654   3.925   3.987   2.139
11395W        W76655  25.098  29.894  12.911
11396W        W76656  23.046  22.050   1.828
11397W        W76657  14.874  20.148   0.055
11398W        W76658  30.911  34.857  14.058
11399W        W76659  31.899   6.287   4.908
11400W        W76660  44.988   0.257  13.207
11401W        W76661  32.382  42.630  12.050
11402W        W76662   6.882  25.426  11.189
11403W        W76663  21.927  39.961  13.445
11404W        W76664  29.241   2.484  14.945
11405W        W76665   3.325  10.112  13.896
11406W        W76666  43.121  24.601   0.193
11407W        W76667   3.772  25.825   0.060
11408W        W76668   2.532  31.627   0.962
11409W        W76669  18.542  36.962   4.219
11410W        W76670  16.436  13.252   1.791
11411W        W76671  31.893  42.525  13.021
11412W        W76672  29.961  35.529   4.468
11413W        W76673  14.146  36.489  14.846
11414W        W76674  19.152  38.247  12.335
11415W        W76675  21.488  39.315  14.863
11416W        W76676  26.009  21.879   3.727
11417W        W76677  12.142   3.607   1.883
11418W        W76678   2.406  11.950  10.668
11419W        W76679  15.248  32.263  13.437
11420W        W76680  43.745   6.404   3.919
11421W        W76681  13.160  10.610  13.501
11422W        W76682  40.937  11.075  11.170
11423W        W76683  12.054  40.247  13.906
11424W        W76684  21.097  20.486   1.713
11425W        W76685  13.202  22.777  12.615
11426W        W76686  16.931  33.658  13.329
11427W        W76687  35.012  34.821  10.424
11428W        W76688  19.358   5.211  10.710
11429W        W76689  41.788   7.950  12.903
11430W        W76690  15.548  20.012   0.358
11431W        W76691  20.503  36.635   2.231
11432W        W76692  24.617  29.380   4.757
11433W        W76693  12.669   9.505  14.028
11434W        W76694  25.105   1.290  10.559
11435W        W76695  11.473   1.099   0.799
11436W        W76696  31.923  18.120   4.652
11437W        W76697   3.324   1.581  12.915
11438W        W76698   3.004  33.991  13.968
11439W        W76699   9.746  12.179   4.033
11440W        W76700  19.650  22.141  14.486
11441W        W76701  35.457  31.402  10.729
11442W        W76702  14.194  33.063  14.692
11443W        W76703  10.201  29.087   0.039
11444W        W76704  25.914  39.218  11.148
11445W        W76705  37.333  16.287  15.000
11446W        W76706  37.426  38.021   1.662
11447W        W76707  41.145  19.154   0.265
11448W        W76708  32.752   5.233   4.141
11449W        W76709  19.277  32.893  14.933
11450W        W76710  30.587   2.444   2.607
11451W        W76711   6.323  42.857  12.986
11452W        W76712  20.872  25.048  13.045
11453W        W76713   3.188  44.308   1.084
11454W        W76714  18.835  12.557  12.071
11455W        W76715  22.527   8.726  14.383
11456W        W76716  42.500   6.371  14.418
11457W        W76717  20.783   2.801   2.454
11458W        W76718   8.464  22.142   1.804
11459W        W76719  13.222  10.348  11.145
11460W        W76720  36.327   2.411  10.746
11461W        W76721   1.927  44.242  12.508
11462W        W76722   9.587  14.680   4.077
11463W        W76723  25.393   4.754   9.871
11464W        W76724  20.080  40.468   3.232
11465W        W76725  40.113  26.983  10.960
11466W        W76726  27.612  37.883   3.349
11467W        W76727  37.004  37.006  11.274
11468W        W76728   7.848  33.938   0.109
11469W        W76729  12.693  40.432  14.930
11470W        W76730  24.599   9.394   4.253
11471W        W76731   4.710  44.486  12.393
11472W        W76732  29.468  37.555  14.321
11473W        W76733   1.999  34.819   4.251
11474W        W76734  23.739   3.913  12.426
11475W        W76735  11.418   5.721   9.832
11476W        W76736   3.944   2.836   1.796
11477W        W76737  42.948   7.962  11.548
11478W        W76738  43.593  23.399   1.734
11479W        W76739   6.634  17.995  12.850
11480W        W76740  20.609  39.934   4.665
11481W        W76741  40.763   2.417  11.114
11482W        W76742  24.447   8.470  10.158
11483W        W76743  44.606  44.022   3.839
11484W        W76744  44.785   0.439   4.777
11485W        W76745   9.646  14.622   0.423
11486W        W76746   5.075  39.705   4.068
11487W        W76747  12.618  43.867   1.406
11488W        W76748  14.730   2.030  14.920
11489W        W76749  27.403  33.608   1.182
11490W        W76750  21.583  12.400  13.688
11491W        W76751  42.519  29.586  12.671
11492W        W76752  43.358  34.722   4.652
11493W        W76753  29.642  27.010   2.443
11494W        W76754  30.850  34.713   0.072
11495W        W76755  12.286  28.651   1.893
11496W        W76756   6.406  22.434  14.702
11497W        W76757  25.473  13.424  13.835
11498W        W76758  27.167  38.919   9.611
11499W        W76759  27.225  22.569  14.546
11500W        W76760  41.809   4.095  12.304
11501W        W76761  17.370   4.261   1.381
11502W        W76762  19.126   9.785   1.289
11503W        W76763  17.934  29.714   4.409
11504W        W76764  30.416   1.985   3.994
11505W        W76765  38.794   1.512   0.078
11506W        W76766  38.200  16.023  14.575
11507W        W76767  10.591  17.653   3.820
11508W        W76768  34.890   2.741  11.836
11509W        W76769  14.817   5.604   3.209
11510W        W76770  26.692  16.121   1.809
11511W        W76771  11.250  39.839  14.377
11512W        W76772  44.314  37.834   0.289
11513W        W76773  32.025  17.192   0.900
11514W        W76774  28.993  40.985  11.193
11515W        W76775  37.691  14.682  13.146
11516W        W76776  31.963  37.740   2.451
11517W        W76777  25.072  41.111   4.246
11518W        W76778   6.919   1.659   2.151
11519W        W76779  35.653  19.309  13.946
11520W        W76780  39.251   3.445   0.193
11521W        W76781  26.920  42.577  14.710
11522W        W76782  24.168  23.412  10.210
11523W        W76783   3.392  37.308  13.927
11524W        W76784  22.265  28.938  12.612
11525W        W76785  29.700  24.399  11.265
11526W        W76786   5.972   6.703   1.792
11527W        W76787  24.570  25.579  14.020
11528W        W76788  19.567   8.921  12.049
11529W        W76789  23.868   5.069  11.736
11530W        W76790  32.560  30.455  10.534
11531W        W76791   7.907  17.051   1.216
11532W        W76792  10.799   6.112  14.992
11533W        W76793   4.564  42.950   1.484
11534W        W76794  16.135   1.585   4.054
11535W        W76795  38.741  41.916   0.424
11536W        W76796  15.055  37.060   0.389
11537W        W76797  29.156  24.986   9.892
11538W        W76798  43.769  38.852   4.199
11539W        W76799  15.849  44.913  11.609
11540W        W76800  12.535  16.737   3.146
11541W        W76801  36.480  31.000  11.953
11542W        W76802   9.038   5.175   1.294
11543W        W76803  14.237   9.633   2.393
11544W        W76804  20.208  10.071  13.901
11545W        W76805  12.945   7.445   2.725
11546W        W76806   4.710  18.012   4.038
11547W        W76807  12.385  41.455  13.864
11548W        W76808  39.438  23.908  12.247
11549W        W76809  35.245  41.006   4.480
11550W        W76810  34.418   2.790   0.466
11551W        W76811   2.910  10.671   4.785
11552W        W76812  34.984  41.496  11.655
11553W        W76813  13.632  17.862  11.061
11554W        W76814  27.086   1.395  10.870
11555W        W76815  22.355   8.022   0.342
11556W        W76816  16.553   2.720  11.978
11557W        W76817  15.551  13.247   0.036
11558W        W76818   2.811  38.153   1.772
11559W        W76819   6.307   1.400  13.306
11560W        W76820   6.700  11.838  11.601
11561W        W76821  22.065   8.776   0.645
11562W        W76822  29.413  44.795  12.942
11563W        W76823  17.238   2.404  11.016
11564W        W76824  22.700  33.551   0.561
11565W        W76825  17.412   2.329  13.086
11566W        W76826   4.829   1.302   0.429
11567W        W76827   6.142  30.884  10.639
11568W        W76828   8.363  36.633  10.722
11569W        W76829  33.713   9.661  12.883
11570W        W76830  41.931  15.247  11.604
11571W        W76831  42.963  30.953   0.227
11572W        W76832   8.909  21.680  13.346
11573W        W76833  37.455  32.128  14.225
11574W        W76834  13.666  44.277   2.361
11575W        W76835   1.204  25.565   1.767
11576W        W76836   6.247  20.441  10.779
11577W        W76837   1.959  36.803   3.308
11578W        W76838  12.832  21.262  14.951
11579W        W76839  25.413  40.748   2.876
11580W        W76840  36.436  32.717  11.291
11581W        W76841   4.676   5.247   3.304
11582W        W76842  36.626  15.050   2.724
11583W        W76843  22.730  26.288  11.542
11584W        W76844  38.640  23.259   2.933
11585W        W76845  25.477  16.882   1.320
11586W        W76846   2.878  30.206   3.519
11587W        W76847   8.201  41.325  10.438
11588W        W76848   1.934  27.980  14.040
11589W        W76849  11.408  32.607   3.176
11590W        W76850  19.278  35.305  10.562
11591W        W76851  41.994   6.321  14.267
11592W        W76852  26.037   5.276  14.581
11593W        W76853  44.887  24.279  12.394
11594W        W76854   6.184  40.553   1.351
11595W        W76855  12.613  20.256  13.802
11596W        W76856  19.127  17.957  13.496
11597W        W76857  28.872  26.729   3.685
11598W        W76858  29.348   4.015  10.611
11599W        W76859  28.425  11.084  13.345
11600W        W76860  29.629  31.176  12.514
11601W        W76861  26.435  19.540   1.315
11602W        W76862  11.796  33.476  11.025
11603W        W76863   7.930  16.288  10.659
11604W        W76864  38.808  20.755   2.486
11605W        W76865  22.596  22.198   4.828
11606W        W76866  42.953  31.507  10.717
11607W        W76867  24.251  28.837  13.209
11608W        W76868  13.891   9.566   3.639
11609W        W76869  44.327   3.372  12.818
11610W        W76870   1.746  39.578  14.324
11611W        W76871  35.892  30.920  13.984
11612W        W76872  37.313  11.641  11.553
11613W        W76873   6.638  38.892  14.395
11614W        W76874   0.391  34.850   2.256
11615W        W76875   8.935  20.149   0.256
11616W        W76876  18.090  11.049   0.354
11617W        W76877   4.329  13.774   0.898
11618W        W76878   9.710   6.330   5.068
11619W        W76879  16.876  11.888   0.631
11620W        W76880  39.019  34.008   3.489
11621W        W76881  29.163  10.076  11.454
11622W        W76882  18.463  20.006   2.362
11623W        W76883  20.295   3.263   3.843
11624W        W76884  20.012  10.661   0.781
11625W        W76885  25.966  33.507  11.093
11626W        W76886   9.889  14.554  13.491
11627W        W76887  40.592  13.571   0.369
11628W        W76888  10.752  18.609  13.613
11629W        W76889  43.215  12.326  13.119
11630W        W76890  41.349  11.770  11.278
11631W        W76891  16.261  11.081   3.925
11632W        W76892  30.201  20.342  12.274
11633W        W76893  37.390  37.437   4.598
11634W        W76894  19.657   9.884   2.703
11635W        W76895  34.789  21.689  13.055
11636W        W76896   0.467   5.170  13.818
11637W        W76897  12.106  21.104   0.475
11638W        W76898  21.422  35.034  14.318
11639W        W76899  37.962  10.921  11.960
11640W        W76900  38.983  24.589   4.589
11641W        W76901  33.063   2.833  13.264
11642W        W76902  35.172  14.089   1.918
11643W        W76903  33.377  28.520   1.813
11644W        W76904  12.730  13.277   0.147
11645W        W76905   1.003  25.585  14.803
11646W        W76906  22.413  25.315   3.292
11647W        W76907  14.631  35.024  13.867
11648W        W76908  29.313  39.062  11.287
11649W        W76909  34.104  42.399  14.349
11650W        W76910  20.741  37.348  14.778
11651W        W76911  13.027  35.402  13.481
11652W        W76912  31.994  16.654   0.043
11653W        W76913   2.480  20.673   0.198
11654W        W76914  11.819  26.756  14.424
11655W        W76915   0.703  43.154  11.018
11656W        W76916  16.200   3.366   3.460
11657W        W76917  31.609  36.779  13.417
11658W        W76918  12.798  30.060   4.533
11659W        W76919  28.395  20.117   2.728
11660W        W76920  17.520  12.591  13.419
11661W        W76921  39.776  30.996  12.994
11662W        W76922   6.158  18.212  10.659
11663W        W76923  19.212  14.165  11.136
11664W        W76924  12.378  34.458   4.769
11665W        W76925  31.454  41.558   2.726
11666W        W76926   9.257  43.277  10.544
11667W        W76927  25.191   4.151   1.190
11668W        W76928  17.632  13.274  12.989
11669W        W76929  24.577   1.301   0.018
11670W        W76930  26.707  11.134   0.846
11671W        W76931   7.847  13.090  11.222
11672W        W76932  21.436  41.913  14.413
11673W        W76933  42.846  33.487   0.212
11674W        W76934  41.134  18.199   3.256
11675W        W76935  22.048  12.892  14.969
11676W        W76936  27.712  24.478  12.590
11677W        W76937  27.080  37.537  10.554
11678W        W76938   6.166  37.514   4.245
11679W        W76939  36.094  27.222  11.142
11680W        W76940   0.325  30.220   0.390
11681W        W76941  40.384  37.930   4.556
11682W        W76942  16.760  42.987  13.524
11683W        W76943  12.348  32.988  14.819
11684W        W76944   4.186   1.268  11.155
11685W        W76945  44.560  41.277   3.791
11686W        W76946  34.675  32.437  10.481
11687W        W76947  24.459  28.947   3.514
11688W        W76948   6.973  18.703   3.413
11689W        W76949  15.536  14.754   4.021
11690W        W76950  15.869  30.883  13.151
11691W        W76951  16.473  36.661   3.373
11692W        W76952   2.872  10.653  12.040
11693W        W76953  18.329   1.010   2.731
11694W        W76954   6.318  39.038  14.776
11695W        W76955  11.585   4.870  13.461
11696W        W76956  21.729  33.871   1.769
11697W        W76957  44.922  37.584  13.440
11698W        W76958  29.908  38.561  13.477
11699W        W76959  33.562  28.874  14.900
11700W        W76960  17.205  16.665   1.988
11701W        W76961  17.631  26.472   3.355
11702W        W76962  31.018   0.716  12.411
11703W        W76963  27.986  31.073  12.405
11704W        W76964  14.333  43.981  11.678
11705W        W76965  35.011   5.413  10.648
11706W        W76966  14.080  28.030   3.719
11707W        W76967  26.272  15.291   3.281
11708W        W76968   0.935  38.332   1.843
11709W        W76969  39.109   7.805   1.901
11710W        W76970  32.923  29.377  10.280
11711W        W76971  37.927  16.266   3.382
11712W        W76972  17.906  38.848  13.361
11713W        W76973  17.267  18.535   3.260
11714W        W76974  37.461  20.900  12.998
11715W        W76975   0.420   1.018   2.882
11716W        W76976  32.127   2.949   1.407
11717W        W76977  35.790  23.175  12.140
11718W        W76978   7.598  15.098  14.710
11719W        W76979  15.276  31.870   2.698
11720W        W76980   8.657  15.115  11.209
11721W        W76981   9.235  20.733  13.005
11722W        W76982  12.687  24.556  11.166
11723W        W76983   5.864   2.227  10.831
11724W        W76984  15.817  14.278   2.178
11725W        W76985   3.849  34.387  12.881
11726W        W76986  14.254  31.583   2.366
11727W        W76987  33.362   5.267   1.915
11728W        W76988  20.898  26.665   3.916
11729W        W76989  32.523  23.267  10.580
11730W        W76990  22.808  12.701  13.066
11731W        W76991   5.958  25.121  11.575
11732W        W76992  41.203  39.398   2.643
11733W        W76993  35.418   3.383  12.267
11734W        W76994  37.883  16.039   1.496
11735W        W76995  39.087  31.612   4.044
11736W        W76996   3.194   2.707  11.140
11737W        W76997  41.805  36.897  14.011
11738W        W76998  34.997  30.422   0.287
11739W        W76999  10.022  18.549  14.285
11740W        W77000   4.944  42.355  13.476
11741W        W77001   5.157   6.489   2.298
11742W        W77002  15.429  29.305  11.538
11743W        W77003   6.156  22.769  13.103
11744W        W77004  38.939   8.197  12.242
11745W        W77005  36.539  18.892  13.100
11746W        W77006  36.746  15.586   2.835
11747W        W77007   7.273  20.033  14.851
11748W        W77008  21.660  10.421  10.463
11749W        W77009   3.680   8.882   3.540
11750W        W77010  36.743  20.850  14.017
11751W        W77011   9.054  30.745   2.149
11752W        W77012  32.400  16.860  13.796
11753W        W77013   4.638  39.727  12.432
11754W        W77014  15.152  37.233  10.332
11755W        W77015   8.160   7.492  13.143
11756W        W77016  29.627   0.778   1.855
11757W        W77017  17.842   9.921  11.112
11758W        W77018   1.239   0.335  10.745
11759W        W77019  41.767  18.641   2.647
11760W        W77020  33.982  39.857  12.595
11761W        W77021   5.341  37.786  12.420
11762W        W77022  13.751   1.479   0.626
11763W        W77023  22.053  25.784   4.787
11764W        W77024  19.984  17.994   0.768
11765W        W77025   3.179  43.788   3.904
11766W        W77026   7.230  30.566  12.455
11767W        W77027  12.639  17.683  14.569
11768W        W77028  36.741  31.001  12.933
11769W        W77029   1.494  27.713   5.046
11770W        W77030  26.455  15.072   1.965
11771W        W77031  36.471  26.320   0.919
11772W        W77032  18.648  35.862   2.285
11773W        W77033  43.154  43.800   2.307
11774W        W77034   5.447  24.494   1.711
11775W        W77035  32.156  22.503   0.224
11776W        W77036  40.052   7.403   3.197
11777W        W77037  22.800  26.505  13.416
11778W        W77038  13.810   7.403   0.961
11779W        W77039  11.175  30.704  10.724
11780W        W77040   2.911   6.401  12.311
11781W        W77041  32.090  12.848  14.387
11782W        W77042  44.849   4.372  13.864
11783W        W77043  23.607  32.477   1.976
11784W        W77044   8.642  13.735  11.656
11785W        W77045  23.059  19.684  13.296
11786W        W77046  23.943  32.953  10.779
11787W        W77047  34.193  20.270  14.730
11788W        W77048   5.433  38.936  11.690
11789W        W77049  37.165  36.405  13.957
11790W        W77050  19.733  34.752   1.459
11791W        W77051  11.746  33.909  12.305
11792W        W77052  24.752  33.120   0.255
11793W        W77053  36.996  14.209  12.372
11794W        W77054  38.906  34.457  11.292
11795W        W77055  40.429  21.524  12.117
11796W        W77056  16.030  39.445   0.853
11797W        W77057   4.917  20.744   3.113
11798W        W77058  44.982  40.432   1.806
11799W        W77059  33.440   9.514   1.231
11800W        W77060  36.889   8.757  14.912
11801W        W77061  32.152  15.486  14.881
11802W        W77062  28.178  13.237  12.771
11803W        W77063  11.852  41.365  12.442
11804W        W77064  44.376  23.851  11.181
11805W        W77065   3.775  10.621   3.828
11806W        W77066  32.084  40.513  10.497
11807W        W77067  32.298  24.185  14.918
11808W        W77068  27.006  39.435   3.268
11809W        W77069  16.478  13.621  11.131
11810W        W77070  24.420  20.689   1.589
11811W        W77071  22.548   6.900   4.505
11812W        W77072  42.412  13.513   4.541
11813W        W77073  23.647  21.212   4.291
11814W        W77074  18.542   5.008   2.596
11815W        W77075  33.092  17.368  14.686
11816W        W77076   4.026  21.679  14.573
11817W        W77077   8.767  41.428   4.269
11818W        W77078  14.939  19.768   3.085
11819W        W77079   1.379  14.770  13.329
11820W        W77080  18.858  18.725  12.723
11821W        W77081  38.446  33.523  12.092
11822W        W77082  38.366  42.380   3.753
11823W        W77083  24.980   3.856   4.825
11824W        W77084  27.405  20.773  13.137
11825W        W77085  22.223  14.152  14.185
11826W        W77086  43.189  24.678  10.632
11827W        W77087  11.364   5.255   3.733
11828W        W77088  42.003  31.860  13.421
11829W        W77089  29.482  32.102   4.652
11830W        W77090   4.202  19.598   2.874
11831W        W77091  43.735  43.020  14.512
11832W        W77092  31.061   9.985  13.777
11833W        W77093  32.981  19.528   2.365
11834W        W77094  39.247  31.940  14.158
11835W        W77095  10.476  18.315   1.265
11836W        W77096  24.617  42.252   4.445
11837W        W77097   9.106  16.803  11.236
11838W        W77098  23.153  23.064  10.672
11839W        W77099  22.061  13.814   2.430
11840W        W77100  14.194   4.492  14.993
11841W        W77101  34.819  27.169  10.589
11842W        W77102   2.660  33.794   2.790
11843W        W77103   9.062  22.745   1.747
11844W        W77104  18.629  28.990   1.755
11845W        W77105  30.160  24.207  11.093
11846W        W77106  20.555  24.298  11.063
11847W        W77107   2.845  38.805   0.345
11848W        W77108  37.914  38.906  13.536
11849W        W77109   4.145   2.528  12.514
11850W        W77110  35.895  26.931   9.886
11851W        W77111  10.272   1.265  11.610
11852W        W77112  14.736   1.790  14.447
11853W        W77113   5.161  23.048   3.996
11854W        W77114  27.508   2.501  10.644
11855W        W77115  14.771  23.127   4.711
11856W        W77116   6.290   4.966   2.952
11857W        W77117   4.926  37.954   0.962
11858W        W77118  40.974  24.265  14.524
11859W        W77119  42.170  29.065  12.028
11860W        W77120  21.061  29.998   1.890
11861W        W77121  22.289   6.823  13.319
11862W        W77122  10.833  40.793   3.899
11863W        W77123  40.718  27.583  13.200
11864W        W77124  37.346  11.040   0.008
11865W        W77125  21.440  11.159   1.804
11866W        W77126  36.134  21.619   2.944
11867W        W77127  31.440  37.325  12.548
11868W        W77128  17.997   3.174   0.305
11869W        W77129  16.207  40.527  11.707
11870W        W77130  28.702  20.053  11.199
11871W        W77131  42.507  42.504  14.834
11872W        W77132  24.920  23.351  12.410
11873W        W77133  41.923  14.388  14.693
11874W        W77134  43.989  39.021   3.221
11875W        W77135  28.224  21.485  11.873
11876W        W77136  40.034  41.307   2.272
11877W        W77137  26.657  19.304   2.977
11878W        W77138  44.995  44.263  14.944
11879W        W77139   8.747   0.677  10.919
11880W        W77140  37.403  44.857   3.596
11881W        W77141  37.740  44.185   1.300
11882W        W77142  20.698  34.086  13.065
11883W        W77143  13.242   4.950   2.270
11884W        W77144  28.495   7.167   0.714
11885W        W77145   7.446  36.608   4.683
11886W        W77146  21.205   2.336  13.346
11887W        W77147  19.706  24.022   1.446
11888W        W77148  40.817  33.620  12.556
11889W        W77149   5.629  40.625  11.130
11890W        W77150  24.186  40.242   0.948
11891W        W77151  32.891  44.447   3.662
11892W        W77152  35.509  29.645   4.677
11893W        W77153  31.462   2.870  13.872
11894W        W77154   8.602   2.521   2.824
11895W        W77155   4.313   0.246   4.618
11896W        W77156  25.115  13.109   1.280
11897W        W77157  13.173  19.553   4.540
11898W        W77158  22.448  34.587   2.592
11899W        W77159   2.362  16.675   4.318
11900W        W77160   3.743  44.942   3.075
11901W        W77161  27.473  32.521  12.195
11902W        W77162  42.286  44.349  13.583
11903W        W77163  26.399  21.747   2.144
11904W        W77164   9.283  35.115  10.534
11905W        W77165   2.812  30.283  14.485
11906W        W77166  43.859  17.626  14.390
11907W        W77167  40.328   5.440  13.225
11908W        W77168   6.878  39.390   4.301
11909W        W77169  43.720  37.322  13.846
11910W        W77170  44.516  14.585  13.511
11911W        W77171  30.177  32.071  13.327
11912W        W77172  23.084  10.255   4.391
11913W        W77173  21.803   5.106  14.046
11914W        W77174  10.251  43.099   3.739
11915W        W77175  22.007  15.562   4.336
11916W        W77176  38.914  25.891  13.017
11917W        W77177  44.079  13.771  14.847
11918W        W77178  20.549  40.899  12.157
11919W        W77179  18.154   6.225   4.495
11920W        W77180  42.813  13.489   3.308
11921W        W77181  28.165  10.479   1.928
11922W        W77182  24.155   9.096  14.246
11923W        W77183   1.084  22.642  14.934
11924W        W77184   5.640  18.663   0.954
11925W        W77185  13.650  16.730   4.092
11926W        W77186   5.344  28.205   3.162
11927W        W77187  22.846   3.860  11.480
11928W        W77188  41.140  21.145  13.094
11929W        W77189   9.148  14.186   1.872
11930W        W77190  13.417  15.660  11.634
11931W        W77191   8.380  42.303   1.155
11932W        W77192  12.654   0.086   1.162
11933W        W77193  12.219  27.609  12.773
11934W        W77194  30.087  14.162  14.739
11935W        W77195  21.596  34.689  13.973
11936W        W77196  10.744  42.239   2.774
11937W        W77197  32.390  34.372   1.907
11938W        W77198  34.383   7.807  14.052
11939W        W77199  21.010  10.211   1.939
11940W        W77200  44.164   7.406  12.586
11941W        W77201  43.865  15.624  10.714
11942W        W77202  37.400  10.270  13.557
11943W        W77203  37.505  24.550  14.518
11944W        W77204   7.880   0.703   3.124
11945W        W77205  14.603  43.743   2.104
11946W        W77206  39.539   1.858   4.411
11947W        W77207  40.885  16.059   2.656
11948W        W77208   0.095  12.590  14.810
11949W        W77209  39.395   2.493   1.307
11950W        W77210  21.224  41.213  12.891
11951W        W77211  10.304   2.519   3.275
11952W        W77212  44.201  22.911  12.133
11953W        W77213  26.580  41.202  14.738
11954W        W77214  37.746  14.809  12.640
11955W        W77215   4.744  18.081  13.109
11956W        W77216  24.907  23.440   2.273
11957W        W77217  12.195  38.776   4.182
11958W        W77218  20.169  24.880   1.754
11959W        W77219   2.357  22.106  11.183
11960W        W77220  28.414  18.164   0.290
11961W        W77221   4.220   6.955  14.901
11962W        W77222  14.317  18.505   0.921
11963W        W77223  13.145  20.704   3.329
11964W        W77224   9.652  31.174  13.423
11965W        W77225   3.686   6.100  13.048
11966W        W77226  24.639   0.049  14.627
11967W        W77227  13.585  44.897  10.992
11968W        W77228  39.442  30.199  10.671
11969W        W77229  20.745  37.931  13.437
11970W        W77230   1.633  17.733   2.264
11971W        W77231  27.970  42.542  11.071
11972W        W77232  30.982   7.651  14.405
11973W        W77233   3.145   8.584  12.999
11974W        W77234  43.408  38.975  14.420
11975W        W77235   0.227   0.509  10.813
11976W        W77236  38.853  42.394  10.671
11977W        W77237  27.968  30.196  14.177
11978W        W77238   7.642  22.789   2.679
11979W        W77239   3.433  19.236  13.437
11980W        W77240   0.231  21.868  13.854
11981W        W77241  43.684   4.733   4.535
11982W        W77242  26.936  28.595  13.813
11983W        W77243  21.743  37.033   3.623
11984W        W77244   7.195  36.187   4.875
11985W        W77245  34.278  25.564  11.659
11986W        W77246  25.000  12.210   2.304
11987W        W77247  41.836  12.781   1.816
11988W        W77248  25.637  32.619   0.241
11989W        W77249  16.232  10.799   0.495
11990W        W77250  11.801  30.526  11.493
11991W        W77251   0.849  39.919   3.595
11992W        W77252   4.441  26.643  10.645
11993W        W77253  13.343  36.571   4.267
11994W        W77254  34.963  18.421  12.812
11995W        W77255  24.154  38.012  14.562
11996W        W77256  42.434  24.161   1.475
11997W        W77257  16.018   6.530  13.776
11998W        W77258   6.735  27.986   4.093
11999W        W77259  24.096  15.013   4.509
12000W        W77260   2.762  20.210   0.876
12001W        W77261  35.613  11.581   2.170
12002W        W77262  41.488   2.829   1.200
12003W        W77263  22.474  19.162  12.597
12004W        W77264  29.457   2.131  14.617
12005W        W77265  12.900  40.042   1.503
12006W        W77266  22.081   6.275   1.162
12007W        W77267  39.853  39.330   2.371
12008W        W77268  15.592  38.287  11.529
12009W        W77269  12.796  42.518  11.086
12010W        W77270  13.066  28.635   3.203
12011W        W77271  35.390  20.188   4.800
12012W        W77272  22.235   3.669  14.791
12013W        W77273  42.253  38.268  11.860
12014W        W77274  44.185  31.033   4.651
12015W        W77275  43.029  41.750   0.043
12016W        W77276  13.208  13.761   1.957
12017W        W77277  34.593  31.500   3.421
12018W        W77278  32.581  33.417  12.469
12019W        W77279  33.057  14.750  14.501
12020W        W77280   6.313  30.084   0.485
12021W        W77281  44.515  15.835   1.234
12022W        W77282   2.251  12.261   1.212
12023W        W77283  16.073  15.306  14.679
12024W        W77284  31.093  12.191   3.738
12025W        W77285  35.920  37.484  14.930
12026W        W77286   4.696  39.932   1.862
12027W        W77287  40.682   3.187   2.754
12028W        W77288   0.916  12.631   0.985
12029W        W77289  25.351  28.199  11.345
12030W        W77290  21.573  40.378   1.307
12031W        W77291  44.045   6.296   0.495
12032W        W77292  17.194  22.840   1.893
12033W        W77293  34.320  32.922   3.659
12034W        W77294  43.013  25.118   4.976
12035W        W77295  38.538  10.054  13.415
12036W        W77296  14.226  13.114   3.084
12037W        W77297  29.810  13.851  11.969
12038W        W77298   6.740  29.152   0.983
12039W        W77299  27.869  31.629   3.030
12040W        W77300  40.459   0.905   3.152
12041W        W77301   8.848  39.501  13.811
12042W        W77302  34.466  35.716  12.504
12043W        W77303  28.400  34.066   2.932
12044W        W77304  39.282  42.245  13.954
12045W        W77305  42.331  42.205  10.988
12046W        W77306  19.948   2.470   0.322
12047W        W77307  12.647  34.252  12.249
12048W        W77308   4.839  14.535  12.486
12049W        W77309  26.032   0.233  14.352
12050W        W77310   1.477  31.166   4.735
12051W        W77311  30.662  17.496   3.649
12052W        W77312  17.212  26.821   2.826
12053W        W77313   4.512  34.290   1.474
12054W        W77314  34.923  42.071   1.891
12055W        W77315  14.673   8.716  10.837
12056W        W77316   4.923  11.595   1.886
12057W        W77317  17.172  31.145   4.540
12058W        W77318  37.008  37.355   1.710
12059W        W77319   4.786  25.812   4.187
12060W        W77320  36.031   0.323  13.872
12061W        W77321  14.062  16.161  12.970
12062W        W77322  37.982  34.067  13.506
12063W        W77323   7.808  37.815  11.246
12064W        W77324  25.316  33.421   3.739
12065W        W77325   6.743  40.520  14.749
12066W        W77326  24.130  12.574  10.715
12067W        W77327  17.742  12.253  13.750
12068W        W77328  36.769  34.158   2.690
12069W        W77329  27.614  29.032  11.434
12070W        W77330   2.659  22.942   2.881
12071W        W77331  35.222  43.976   1.545
12072W        W77332  39.130  24.476  10.771
12073W        W77333  13.779  19.544   0.976
12074W        W77334  18.818  18.249  11.528
12075W        W77335  12.532  44.265  12.979
12076W        W77336  27.036  30.117  11.235
12077W        W77337  43.782  10.252  14.391
12078W        W77338  18.785  11.376   4.549
12079W        W77339  27.074  12.080   2.307
12080W        W77340  19.530  19.145   9.978
12081W        W77341  10.422  38.426  10.371
12082W        W77342  39.277  30.254   1.290
12083W        W77343   4.002  19.760   1.883
12084W        W77344  16.577  17.981  11.928
12085W        W77345  44.486  38.144  11.015
12086W        W77346  29.063  13.390   4.580
12087W        W77347  36.972  42.811   3.064
12088W        W77348  12.318  33.217  14.344
12089W        W77349  10.365  30.011   3.160
12090W        W77350  32.200  37.430  13.304
12091W        W77351   0.661   2.739  11.576
12092W        W77352  29.934  18.087  11.924
12093W        W77353  39.800  23.648   4.298
12094W        W77354  16.710  19.558   1.793
12095W        W77355  15.360  19.708   1.517
12096W        W77356  27.406  28.180   1.320
12097W        W77357  32.481  33.373  13.992
12098W        W77358  34.808  29.638  11.571
12099W        W77359  26.001  18.270   2.162
12100W        W77360   6.098  41.055   4.956
12101W        W77361  28.513   4.304  11.554
12102W        W77362  33.692  24.187  12.111
12103W        W77363  36.073  13.058   5.225
12104W        W77364  12.396  27.949   9.809
12105W        W77365  29.563  21.093  11.454
12106W        W77366   9.368   6.399  14.493
12107W        W77367  32.177  26.652  13.331
12108W        W77368  43.365  42.027   0.301
12109W        W77369  29.042  32.103  14.457
12110W        W77370  36.918  14.846   3.286
12111W        W77371  25.594  15.232   5.363
12112W        W77372   2.973  14.648   0.647
12113W        W77373  43.512  13.842  14.900
12114W        W77374  23.159  33.043  13.599
12115W        W77375  32.131  44.291   1.928
12116W        W77376  24.682   1.866   1.757
12117W        W77377   7.612   4.527  10.763
12118W        W77378   0.236  20.982   0.703
12119W        W77379  19.489  29.732  11.786
12120W        W77380  18.725   5.844  12.695
12121W        W77381   3.657   2.464  13.519
12122W        W77382  24.549  36.897  12.597
12123W        W77383  12.646  44.429   2.209
12124W        W77384  17.202  41.705   1.354
12125W        W77385  35.072  14.599  12.873
12126W        W77386  36.313  17.106  12.877
12127W        W77387  38.436   7.784  10.945
12128W        W77388  40.379   1.015  14.419
12129W        W77389   5.768   7.133  13.560
12130W        W77390   3.972  30.552   0.916
12131W        W77391   7.984  24.074   3.210
12132W        W77392  16.432  36.967   1.393
12133W        W77393  40.446   4.953   1.333
12134W        W77394  25.626  44.324   4.424
12135W        W77395   9.428  40.626  14.437
12136W        W77396   5.850  42.251   4.144
12137W        W77397  10.328  19.848   0.795
12138W        W77398  44.286  14.333  11.028
12139W        W77399  29.947  36.425  12.986
12140W        W77400   4.804  39.275  12.605
12141W        W77401  33.800  30.871  12.473
12142W        W77402  17.822  32.659   0.374
12143W        W77403  38.064  26.437  13.632
12144W        W77404  38.961  14.800  13.352
12145W        W77405  16.228  36.862  13.331
12146W        W77406  27.977   0.465  10.403
12147W        W77407  31.459  35.738   3.188
12148W        W77408  31.412  44.824  11.154
12149W        W77409  38.619  31.881   4.033
12150W        W77410  37.399  35.940  14.041
12151W        W77411   8.385  21.784   3.570
12152W        W77412   6.271  16.813  12.490
12153W        W77413  29.675  17.188  10.596
12154W        W77414  26.908   7.214  11.735
12155W        W77415  25.672   9.933   0.951
12156W        W77416   3.384  43.385   4.616
12157W        W77417   1.709  17.903  13.976
12158W        W77418  32.475   5.961   9.909
12159W        W77419  18.781  15.822  12.258
12160W        W77420  41.638   5.778   4.229
12161W        W77421  11.854  40.729  13.713
12162W        W77422   4.925  14.402  10.749
12163W        W77423  20.160  34.582   1.692
12164W        W77424  43.868   1.723  10.943
12165W        W77425   1.145   9.241   3.129
12166W        W77426   2.880  39.459  10.688
12167W        W77427  36.867  43.912   2.280
12168W        W77428  32.097  12.164   4.769
12169W        W77429  32.874  32.571   1.159
12170W        W77430  16.800  34.143   3.105
12171W        W77431  31.918  33.071   4.624
12172W        W77432   0.236   9.340   4.220
12173W        W77433  14.990  25.380  13.246
12174W        W77434   3.225   0.714   1.166
12175W        W77435  15.738   4.871  10.480
12176W        W77436  21.695   0.278  13.318
12177W        W77437  28.889  33.330  13.913
12178W        W77438  36.984  42.357  12.594
12179W        W77439  11.692  34.189  10.981
12180W        W77440   2.928  26.627   0.342
12181W        W77441   0.560  11.370  12.657
12182W        W77442  20.656  19.147   0.540
12183W        W77443  33.661  35.625   2.192
12184W        W77444  16.988  25.755  14.821
12185W        W77445   9.844  10.297   1.728
12186W        W77446  37.879  40.743  11.515
12187W        W77447  37.838  31.408   4.750
12188W        W77448  14.106  21.138  14.407
12189W        W77449   8.026  41.694  11.422
12190W        W77450  29.387   3.388  14.657
12191W        W77451  35.880  35.147   2.248
12192W        W77452  10.323  15.525   2.783
12193W        W77453   9.449  20.158   0.249
12194W        W77454  17.156  20.749  11.756
12195W        W77455  21.764  37.467   0.247
12196W        W77456   9.599  20.491  11.926
12197W        W77457   2.575  10.133  10.902
12198W        W77458  21.430   2.319   4.132
12199W        W77459   0.157  26.585   0.458
12200W        W77460  21.414  13.775   0.834
12201W        W77461  40.101  41.359   0.221
12202W        W77462   2.934  33.836  11.456
12203W        W77463  21.806  15.760  12.011
12204W        W77464  13.684  31.352  12.200
12205W        W77465  18.004  15.367  11.625
12206W        W77466  10.814   2.547  11.466
12207W        W77467  25.925   1.430  14.480
12208W        W77468  28.747   3.473  11.078
12209W        W77469   1.890   3.712  14.403
12210W        W77470  31.624  42.939  10.710
12211W        W77471  27.223   3.078  13.876
12212W        W77472  15.240  12.184  10.630
12213W        W77473  36.400  12.843   1.633
12214W        W77474  17.346  14.642  10.683
12215W        W77475  27.883   2.946  14.368
12216W        W77476   3.237  42.727   0.793
12217W        W77477   6.191  41.284  11.147
12218W        W77478  41.832   1.509  13.803
12219W        W77479  31.378  22.440  11.003
12220W        W77480   2.820  12.086   4.405
12221W        W77481   3.679  38.919  13.744
12222W        W77482   6.839  19.232   4.144
12223W        W77483   9.235  19.881   3.966
12224W        W77484  32.276  42.697  13.456
12225W        W77485  26.406  24.675   5.071
12226W        W77486  40.201  43.268  12.039
12227W        W77487   2.965   7.321  14.140
12228W        W77488   7.595  35.439   2.916
12229W        W77489  31.007  25.264   0.089
12230W        W77490  15.030  35.624   0.736
12231W        W77491  40.709  11.403   2.655
12232W        W77492  36.952  37.278   0.200
12233W        W77493  40.351  15.292  10.760
12234W        W77494   5.963   4.869   3.364
12235W        W77495  29.639   5.692  11.921
12236W        W77496  44.019  44.335   3.771
12237W        W77497  19.635  21.301   1.731
12238W        W77498   1.512  24.651   1.586
12239W        W77499  16.572  11.151  11.120
12240W        W77500  23.574  21.467   2.189
12241W        W77501  23.044  18.306   2.651
12242W        W77502   0.695  12.355   1.415
12243W        W77503  28.276  44.388   4.984
12244W        W77504   4.390   1.010  14.517
12245W        W77505  39.309  13.601  14.910
12246W        W77506  24.682  34.830   4.335
12247W        W77507  36.109  26.010   3.228
12248W        W77508   3.202   3.303   3.243
12249W        W77509   6.262   1.292   1.831
12250W        W77510  14.734  29.664  12.863
12251W        W77511  11.722   8.187  12.492
12252W        W77512  19.197  10.284  12.230
12253W        W77513  22.460  40.691  11.119
12254W        W77514  20.747  34.958   3.340
12255W        W77515  31.352  27.460   2.205
12256W        W77516   3.823  18.522  11.571
12257W        W77517  16.820  42.002   3.393
12258W        W77518  20.480   2.413  14.514
12259W        W77519  24.588  36.661  13.078
12260W        W77520  35.947  31.552  14.787
12261W        W77521  24.023  15.221   1.294
12262W        W77522  28.463  14.703  12.998
12263W        W77523   6.618  38.921   4.408
12264W        W77524  13.659  20.132   3.280
12265W        W77525  36.399  11.904  14.507
12266W        W77526  12.214  40.108   4.533
12267W        W77527   5.671  36.763   2.820
12268W        W77528  44.040  31.889   2.726
12269W        W77529  26.679   2.990   2.710
12270W        W77530  22.546   0.474   2.850
12271W        W77531  35.473  20.800  14.082
12272W        W77532   6.194  23.627  11.261
12273W        W77533  37.271  12.105  12.586
12274W        W77534   9.827  13.128  11.481
12275W        W77535  13.251  29.685   4.231
12276W        W77536  21.452   8.636  12.014
12277W        W77537  18.515   4.653   0.325
12278W        W77538  23.665   8.185  12.642
12279W        W77539  27.465   7.381  11.005
12280W        W77540  17.551  22.452   1.902
12281W        W77541  10.560  16.027  14.908
12282W        W77542  34.090  29.553  13.449
12283W        W77543  40.055  10.001  12.684
12284W        W77544  39.030   0.501   3.603
12285W        W77545  18.257  19.367  13.332
12286W        W77546   3.537  27.249  14.489
12287W        W77547  26.259  13.211  13.360
12288W        W77548  37.117  14.503   2.271
12289W        W77549  17.128  10.288   3.084
12290W        W77550  38.482  36.954   4.290
12291W        W77551  12.575  31.988  11.200
12292W        W77552  14.771   6.372   3.704
12293W        W77553  15.529  29.685  12.919
12294W        W77554  10.952  27.100   2.684
12295W        W77555   8.319  42.009   4.133
12296W        W77556   1.558  38.034  14.403
12297W        W77557   7.142  36.573   2.910
12298W        W77558   0.275   1.348   4.596
12299W        W77559  18.697  41.921   0.976
12300W        W77560  22.919  18.333   5.345
12301W        W77561   6.775  22.215   4.634
12302W        W77562   7.550  28.874   1.342
12303W        W77563  43.832  36.897  10.693
12304W        W77564  26.045   0.914   4.825
12305W        W77565  18.752  42.900  10.226
12306W        W77566  36.532   3.771   0.942
12307W        W77567  12.138  42.563  11.631
12308W        W77568  33.696  43.076   0.357
12309W        W77569   3.732  34.590   1.942
12310W        W77570   1.985  24.495  12.774
12311W        W77571  43.901  24.466  12.446
12312W        W77572  39.106  14.182  13.776
12313W        W77573   9.385  21.627   3.591
12314W        W77574  12.847  18.093   4.620
12315W        W77575  35.381   2.870  14.421
12316W        W77576   5.613  38.260   2.637
12317W        W77577  17.284   3.410  12.917
12318W        W77578   7.929  38.488  14.083
12319W        W77579  18.274  24.484  13.468
12320W        W77580  11.614  38.916  10.201
12321W        W77581   1.901   5.437   2.339
12322W        W77582  20.821  22.327   3.606
12323W        W77583  18.074   4.514  11.058
12324W        W77584   2.958  29.528   1.451
12325W        W77585  39.462   6.619  13.010
12326W        W77586   5.166  25.263   3.127
12327W        W77587  31.084  32.157  11.203
12328W        W77588  25.531  24.031   3.319
12329W        W77589  30.510  28.922  11.894
12330W        W77590   0.934  15.335  10.295
12331W        W77591  31.604   6.336   3.600
12332W        W77592  15.160  34.903   1.678
12333W        W77593  29.467  31.811   0.829
12334W        W77594  13.877   8.621  11.122
12335W        W77595   5.960  18.550  14.267
12336W        W77596  12.753  28.185   3.175
12337W        W77597   5.363   0.205  14.491
12338W        W77598  21.155  23.276  10.677
12339W        W77599  43.299  43.753   4.590
12340W        W77600   9.792  37.939  12.888
12341W        W77601  17.205   1.598  14.306
12342W        W77602  27.085  39.051   1.683
12343W        W77603  16.138   2.869   1.119
12344W        W77604  20.145   8.629  12.123
12345W        W77605   4.217  24.486   4.210
12346W        W77606   5.226  31.128  13.021
12347W        W77607  38.489  12.540  13.385
12348W        W77608  12.143  15.795   4.365
12349W        W77609  28.154  14.030  14.723
12350W        W77610  17.878   4.403   1.436
12351W        W77611  15.514  27.056   0.876
12352W        W77612  38.834  38.411  14.119
12353W        W77613  20.824   5.416   4.982
12354W        W77614  17.226  22.239   4.676
12355W        W77615  35.993  15.415   3.578
12356W        W77616  25.436  40.518  12.354
12357W        W77617  39.839  44.909   0.898
12358W        W77618  34.977  16.808   0.834
12359W        W77619  34.822  11.896  11.036
12360W        W77620  37.635  43.591  10.183
12361W        W77621  19.223  19.038   2.788
12362W        W77622  21.242  24.783  10.714
12363W        W77623   3.256   4.182  14.129
12364W        W77624   4.244   1.746   3.320
12365W        W77625  33.004  21.942   4.378
12366W        W77626  17.613  17.703   2.315
12367W        W77627  11.761  21.271  10.649
12368W        W77628  14.587  26.209   0.226
12369W        W77629  33.882  15.667   1.794
12370W        W77630  21.114  42.433  14.765
12371W        W77631  27.396  13.801  11.577
12372W        W77632  23.065   6.475  10.312
12373W        W77633  23.378  17.721   5.145
12374W        W77634  14.411  28.477  12.366
12375W        W77635  18.256  28.805  11.166
12376W        W77636  14.680   3.173  12.570
12377W        W77637   6.268  37.024   0.443
12378W        W77638  26.800  42.416  11.506
12379W        W77639  25.320  36.960   4.031
12380W        W77640  39.625   2.030   4.915
12381W        W77641  43.323   4.730  14.436
12382W        W77642  41.061  27.498  11.470
12383W        W77643  41.161  44.752  14.450
12384W        W77644  33.112  20.780  12.391
12385W        W77645  44.524  32.206   0.833
12386W        W77646   4.307   8.529   0.065
12387W        W77647  22.035  33.076   1.830
12388W        W77648   6.840  21.662   4.561
12389W        W77649  17.271  18.725   5.664
12390W        W77650   6.767  26.378   2.291
12391W        W77651  25.999   9.706  10.441
12392W        W77652  26.272  19.445   1.792
12393W        W77653  29.900  12.597   3.719
12394W        W77654  11.595   8.793  14.749
12395W        W77655  11.379  23.972  12.081
12396W        W77656  42.381   7.603  12.021
12397W        W77657  23.550  10.294  13.361
12398W        W77658  17.586  17.119   0.825
12399W        W77659  12.568  10.730   1.262
12400W        W77660  13.350  31.286  13.814
12401W        W77661   4.772   6.922   9.972
12402W        W77662  24.230  18.342   1.257
12403W        W77663  22.105  26.685   1.805
12404W        W77664  32.324  38.940   2.938
12405W        W77665  44.525  33.170   3.726
12406W        W77666  43.887  37.110  11.670
12407W        W77667  10.472   2.745  10.036
12408W        W77668  43.900  11.760  10.643
12409W        W77669  39.946   4.180   1.274
12410W        W77670  13.553  41.838   1.708
12411W        W77671  36.974   4.689  14.310
12412W        W77672  43.622   8.874   3.941
12413W        W77673  44.115  44.935  14.254
12414W        W77674   7.938  41.651   2.770
12415W        W77675  20.783  28.932   2.312
12416W        W77676  41.812   1.418   0.409
12417W        W77677  40.997  28.007  11.537
12418W        W77678  15.197   5.484  11.233
12419W        W77679  20.840  40.163   0.858
12420W        W77680   9.436  25.352   9.835
12421W        W77681   3.831   1.896   0.885
12422W        W77682   4.719  24.689  11.635
12423W        W77683  39.307  15.843   0.263
12424W        W77684   4.901   3.419  10.132
12425W        W77685  33.673  23.703   1.777
12426W        W77686  10.406  25.060  12.209
12427W        W77687  22.607  24.518  13.932
12428W        W77688  44.026  23.568   2.638
12429W        W77689  21.053  23.033   2.779
12430W        W77690  11.921  42.113  11.495
12431W        W77691  18.519   8.214   2.678
12432W        W77692   7.303  23.779   2.725
12433W        W77693   0.823  28.555   3.249
12434W        W77694   7.838  20.576   3.835
12435W        W77695  27.708   7.885  14.107
12436W        W77696   2.263  35.987   0.726
12437W        W77697  40.316  25.600  13.215
12438W        W77698  27.612  32.037  12.418
12439W        W77699  36.481  36.154   2.750
12440W        W77700  28.115   2.266   3.446
12441W        W77701  40.755  11.421  10.227
12442W        W77702  19.571  22.577   2.057
12443W        W77703   3.860  28.501   1.960
12444W        W77704  27.056  20.473   4.547
12445W        W77705  39.390  16.601  14.319
12446W        W77706   8.523  44.388  13.308
12447W        W77707  10.222  21.262  12.147
12448W        W77708  20.694  24.312  12.382
12449W        W77709   7.752  18.295  13.985
12450W        W77710  31.681  26.643  11.800
12451W        W77711   5.741   4.885   0.256
12452W        W77712   1.373  35.143   3.814
12453W        W77713   9.373  21.223  12.166
12454W        W77714  20.230  44.365  11.173
12455W        W77715  14.358  14.775   1.677
12456W        W77716  27.934  43.848   3.781
12457W        W77717  41.998  20.080  14.440
12458W        W77718   0.317  22.207   0.451
12459W        W77719   2.893  19.095   2.674
12460W        W77720  30.940  29.118  11.682
12461W        W77721  11.940   7.357  12.873
12462W        W77722   4.342  24.114   1.159
12463W        W77723  27.254  24.416   2.348
12464W        W77724  18.316  24.734   4.252
12465W        W77725  20.938  36.110   3.724
12466W        W77726  32.609   3.291  11.924
12467W        W77727  14.666   3.474   0.943
12468W        W77728  23.009   8.821   0.670
12469W        W77729  21.688  23.900  12.479
12470W        W77730  15.692   7.853   2.326
12471W        W77731  24.931  39.307  10.947
12472W        W77732  40.579  25.871  11.125
12473W        W77733   6.617   1.090   1.523
12474W        W77734   7.168  36.927  14.991
12475W        W77735  39.140  23.218   3.207
12476W        W77736  33.226   5.646  12.485
12477W        W77737  33.328  44.890   3.506
12478W        W77738  33.129  23.867   0.143
12479W        W77739  41.164  11.092  12.987
12480W        W77740  39.746  26.616   3.547
12481W        W77741  40.183   6.888  14.910
12482W        W77742   2.193  21.098  13.044
12483W        W77743   1.466  17.535  14.255
12484W        W77744   7.954   8.854   0.295
12485W        W77745  27.467   4.560  10.306
12486W        W77746  24.489  31.589  11.960
12487W        W77747   9.494   1.894  11.112
12488W        W77748   6.272  33.621   4.017
12489W        W77749  13.742  44.497  13.915
12490W        W77750  39.296  26.625   3.786
12491W        W77751  25.304  27.604   0.857
12492W        W77752  32.352  24.748   0.672
12493W        W77753   2.950   2.440  10.735
12494W        W77754  44.430  30.668   0.338
12495W        W77755  22.050  27.951   2.862
12496W        W77756   0.375  32.362   0.935
12497W        W77757  21.779  32.648   0.335
12498W        W77758  10.955  24.196  13.450
12499W        W77759  27.156  20.773   1.595
12500W        W77760  14.093  35.397  14.495
12501W        W77761  30.850   4.893   0.645
12502W        W77762  39.944  13.728  11.915
12503W        W77763  40.021  30.008   0.378
12504W        W77764  22.737   2.911  12.477
12505W        W77765  19.748  12.169  11.914
12506W        W77766   3.076  17.979  13.741
12507W        W77767  27.626  32.120   3.055
12508W        W77768  39.318  32.220  10.197
12509W        W77769  17.489   1.727  11.997
12510W        W77770  17.746  19.778  11.676
12511W        W77771  26.834   5.945   2.677
12512W        W77772  28.182   9.397  14.299
12513W        W77773  43.106  10.729   4.149
12514W        W77774  44.682  26.988  12.070
12515W        W77775  14.281  22.820   2.331
12516W        W77776  27.372  11.895  10.772
12517W        W77777  34.844  26.092  12.099
12518W        W77778  26.658   6.217   0.780
12519W        W77779  15.350  27.306   2.819
12520W        W77780   2.469  28.236  13.410
12521W        W77781  34.757   6.818   3.845
12522W        W77782   7.444   4.876  14.695
12523W        W77783  12.394  38.724  13.849
12524W        W77784  13.111  12.260  10.643
12525W        W77785  24.427  40.509   4.479
12526W        W77786  30.812  19.268   0.520
12527W        W77787  26.861  35.073   3.813
12528W        W77788  29.972  28.650   0.646
12529W        W77789  30.217  31.979  12.815
12530W        W77790   5.756  41.015   2.054
12531W        W77791   7.349  25.851   3.651
12532W        W77792  11.503  25.664   1.223
12533W        W77793  26.819  38.873   4.048
12534W        W77794  21.466  37.296   3.278
12535W        W77795  36.776   1.531   2.974
12536W        W77796   7.396  31.262  10.549
12537W        W77797  29.914  26.567   2.347
12538W        W77798  37.932  34.983  10.796
12539W        W77799  28.188  38.905   0.276
12540W        W77800  10.665  27.916   2.294
12541W        W77801  39.740  25.506   0.890
12542W        W77802   9.152   7.174  13.500
12543W        W77803  31.634  10.908  11.593
12544W        W77804  43.965  25.491   5.083
12545W        W77805  27.982  35.964  14.490
12546W        W77806  13.953  43.150  11.169
12547W        W77807   7.200  30.209  14.429
12548W        W77808  11.690  32.591   0.772
12549W        W77809   6.839  21.092  13.895
12550W        W77810   0.980   0.345   2.383
12551W        W77811   3.240  28.010   2.138
12552W        W77812  22.824  38.123   4.122
12553W        W77813  43.259  34.092   3.805
12554W        W77814   1.643  16.671  12.488
12555W        W77815  28.703  31.846   5.060
12556W        W77816  15.422   9.688   2.827
12557W        W77817  31.933  31.593  14.359
12558W        W77818  10.000  33.430  11.589
12559W        W77819   7.457   4.807  11.194
12560W        W77820  13.651  41.803  11.971
12561W        W77821  36.406  22.002  11.559
12562W        W77822   4.245   2.153   0.987
12563W        W77823  12.514  40.075   4.107
12564W        W77824  35.139   1.282   2.004
12565W        W77825   5.409  15.236   3.453
12566W        W77826  34.352   0.948  14.354
12567W        W77827  14.015   8.649   3.773
12568W        W77828  14.727  33.044   4.675
12569W        W77829   9.151  42.497   1.607
12570W        W77830   8.777  22.198  13.549
12571W        W77831   4.085  10.249   5.166
12572W        W77832  40.356  41.361   4.511
12573W        W77833   2.269  15.083   2.296
12574W        W77834  44.713  20.789  12.160
12575W        W77835  11.974  22.354   5.011
12576W        W77836  17.272  20.313   1.423
12577W        W77837  20.332  41.153   0.119
12578W        W77838  21.680  13.315   0.801
12579W        W77839  29.895  21.096   0.992
12580W        W77840  31.590  11.315   3.853
12581W        W77841   7.869  30.758   0.046
12582W        W77842  18.664  15.115   4.564
12583W        W77843  26.251  14.662   2.264
12584W        W77844  33.455   4.117  13.483
12585W        W77845  20.040  32.545   5.181
12586W        W77846   0.860  16.104  13.553
12587W        W77847  27.431  16.107   0.348
12588W        W77848   8.434  36.321  13.381
12589W        W77849  29.426  29.540  10.708
12590W        W77850  40.864  24.290   0.403
12591W        W77851   9.901   3.835  14.397
12592W        W77852   8.722  10.889  14.406
12593W        W77853  22.725  35.243  14.017
12594W        W77854  28.405   5.508  14.285
12595W        W77855  30.365   6.432   0.717
12596W        W77856   7.300  17.702   4.839
12597W        W77857   1.764  32.402  13.314
12598W        W77858   0.417   5.165  10.511
12599W        W77859   5.428  37.887   1.209
12600W        W77860  27.049  43.342   3.301
12601W        W77861  44.415  26.559   4.637
12602W        W77862  32.468   1.927   1.210
12603W        W77863   5.783  43.027  11.864
12604W        W77864   0.464  11.660   3.108
12605W        W77865   6.639   6.732   3.651
12606W        W77866   9.181  30.060   0.850
12607W        W77867   5.295   8.423   0.968
12608W        W77868  18.894  30.067   0.476
12609W        W77869   6.491  35.573   0.900
12610W        W77870  11.739   4.040  12.796
12611W        W77871  40.602   9.783   1.781
12612W        W77872  21.223  38.474  10.714
12613W        W77873  39.771   8.856  13.941
12614W        W77874  21.838  41.592   2.903
12615W        W77875  13.029  41.224  13.034
12616W        W77876  40.995   8.364  11.905
12617W        W77877   9.381  19.083  10.484
12618W        W77878  29.365  13.837   0.918
12619W        W77879   9.320   4.507   0.772
12620W        W77880   0.959  35.974  13.151
12621W        W77881  29.725   6.716  12.088
12622W        W77882  12.396  27.662   2.398
12623W        W77883  20.815  37.496   1.270
12624W        W77884  22.496  22.741  13.448
12625W        W77885  40.765   6.449  10.812
12626W        W77886  37.728   8.932   4.427
12627W        W77887   5.406  16.188  11.599
12628W        W77888  15.680  27.258  12.354
12629W        W77889  24.375  36.516  11.695
12630W        W77890  32.163  23.285   2.358
12631W        W77891  35.123  37.817   0.881
12632W        W77892  27.735  34.454  13.926
12633W        W77893  16.201  18.514   0.007
12634W        W77894   2.878  15.665   1.089
12635W        W77895   6.729  27.228  14.580
12636W        W77896  23.238  29.026  12.336
12637W        W77897  31.510  37.569  13.024
12638W        W77898  38.800  20.207  12.987
12639W        W77899   6.834  35.128   0.343
12640W        W77900  27.453  44.145  12.449
12641W        W77901  30.964  38.992   3.043
12642W        W77902  23.536  20.646   0.271
12643W        W77903   2.176   6.903   1.529
12644W        W77904  26.108  13.244   1.362
12645W        W77905  37.885  26.385   0.997
12646W        W77906  16.669  24.810  14.748
12647W        W77907   2.371  17.202   3.564
12648W        W77908  30.045  38.529   4.298
12649W        W77909  21.157  36.639  12.100
12650W        W77910  24.990  23.826   2.813
12651W        W77911  34.509  29.897  13.469
12652W        W77912  21.553  11.506   4.602
12653W        W77913   9.903  26.069  14.342
12654W        W77914  34.404  11.330   4.543
12655W        W77915  41.946  39.876  14.900
12656W        W77916  31.596  30.234  13.942
12657W        W77917  34.651  24.451  11.979
12658W        W77918  23.079  35.092  11.169
12659W        W77919   2.969  23.410  14.198
12660W        W77920   8.351  18.837  13.439
12661W        W77921  34.451   0.138  13.949
12662W        W77922  29.177  19.645   4.768
12663W        W77923  14.615  22.653   0.222
12664W        W77924   4.182  41.547  13.955
12665W        W77925  21.290  25.948   0.743
12666W        W77926  15.211  23.099   3.861
12667W        W77927   1.927  39.264  13.941
12668W        W77928  24.093  22.055   2.860
12669W        W77929  39.450  29.050   0.867
12670W        W77930   4.245  31.563   4.199
12671W        W77931  18.719  35.875   0.912
12672W        W77932   8.389   2.515   0.938
12673W        W77933  39.420  16.762  11.386
12674W        W77934  24.100  26.668  12.644
12675W        W77935  34.841  32.414   3.791
12676W        W77936  26.383   5.903  12.553
12677W        W77937  44.683  24.185   2.689
12678W        W77938  42.346  22.219  14.819
12679W        W77939  12.340  17.263  13.422
12680W        W77940   0.058   9.901  11.835
12681W        W77941  36.019   3.846  12.246
12682W        W77942   4.860   5.823  14.688
12683W        W77943   3.048  21.170   2.724
12684W        W77944  44.077  31.372  14.043
12685W        W77945  11.260   0.202  14.132
12686W        W77946  43.508   9.146  12.990
12687W        W77947  38.214   7.088   2.361
12688W        W77948  11.201  18.811  12.427
12689W        W77949  11.144   2.631   0.504
12690W        W77950  26.028  26.899  14.699
12691W        W77951  11.220  25.651  11.861
12692W        W77952  28.483  12.171  12.114
12693W        W77953  43.912   2.542   2.096
12694W        W77954   7.128  12.638   3.485
12695W        W77955  22.270   7.824  14.052
12696W        W77956  37.818   4.676  12.749
12697W        W77957  25.626   3.787  10.924
12698W        W77958  37.001  13.622  11.066
12699W        W77959  40.413  40.019  14.375
12700W        W77960   2.284  39.545  12.598
12701W        W77961   2.283  12.620  12.757
12702W        W77962   1.555  44.337  11.996
12703W        W77963  36.483  27.774   0.041
12704W        W77964  16.201  15.839   2.308
12705W        W77965  29.840  11.354   4.702
12706W        W77966   1.905  28.348  13.108
12707W        W77967  35.880   2.833  12.510
12708W        W77968  23.985  40.105  14.279
12709W        W77969  25.424  15.811   3.178
12710W        W77970   2.809  34.982   3.943
12711W        W77971  27.231  37.426   1.735
12712W        W77972   0.685   1.843   1.264
12713W        W77973   2.270   8.152   3.268
12714W        W77974   9.890   0.031  13.367
12715W        W77975   9.716  34.056  14.256
12716W        W77976  44.876  37.408   4.576
12717W        W77977  32.490   5.583  13.418
12718W        W77978  42.901  27.600  11.613
12719W        W77979  23.147   7.904   4.856
12720W        W77980  16.300  16.176   3.157
12721W        W77981   3.517  44.886  10.821
12722W        W77982  17.549  43.419   3.400
12723W        W77983  43.437  42.017  13.022
12724W        W77984   4.218  16.618  14.453
12725W        W77985  17.651  30.400   0.781
12726W        W77986  36.275  13.262  11.667
12727W        W77987  44.033  27.561   2.888
12728W        W77988  36.283  18.555  12.801
12729W        W77989  13.745  42.779  13.997
12730W        W77990  17.652  23.545  14.759
12731W        W77991  15.132  27.096   2.382
12732W        W77992   7.258  35.814   3.119
12733W        W77993  19.100  34.163   1.805
12734W        W77994   7.302   5.635   3.458
12735W        W77995  18.182  33.999  12.246
12736W        W77996  17.158  30.129  10.232
12737W        W77997  29.541  27.540  10.931
12738W        W77998   1.033  43.557  11.110
12739W        W77999  14.972   1.726   1.861
12740W        W78000  43.566   2.479   4.728
12741W        W78001  22.978  18.391  12.056
12742W        W78002   9.577   8.296  10.997
12743W        W78003  19.071  34.039  12.680
12744W        W78004  29.933  30.163  13.503
12745W        W78005  37.524  10.805  11.021
12746W        W78006  19.941  23.314  14.918
12747W        W78007   5.913  39.131  10.943
12748W        W78008  23.168  28.351  13.361
12749W        W78009  13.368  41.367   4.125
12750W        W78010  42.267  36.396   0.740
12751W        W78011  21.411  14.660   1.064
12752W        W78012  25.262   3.756  11.294
12753W        W78013  26.031  38.417  10.780
12754W        W78014  39.717  26.506   4.060
12755W        W78015  13.943  44.869  11.364
12756W        W78016  33.321  22.305  13.005
12757W        W78017  14.652  20.734  11.048
12758W        W78018  12.702  12.160   4.688
12759W        W78019  31.195  37.079  13.460
12760W        W78020  26.444  33.139  12.981
12761W        W78021  19.354  24.187  12.504
12762W        W78022  24.263  27.684   3.730
12763W        W78023  42.040  34.416  11.849
12764W        W78024  41.013  42.416   0.452
12765W        W78025  20.442  26.196   4.413
12766W        W78026  11.087  21.165   2.304
12767W        W78027  39.564  18.774   1.725
12768W        W78028   3.050  15.244  10.923
12769W        W78029   8.814   1.488  10.469
12770W        W78030  38.010   9.178   0.344
12771W        W78031  11.333  23.592   3.699
12772W        W78032  25.440  19.671   1.896
12773W        W78033  37.844  28.693   4.517
12774W        W78034  29.271  22.385   5.016
12775W        W78035  32.608  41.515  14.766
12776W        W78036  42.321  43.322   3.907
12777W        W78037   5.250  29.722  11.384
12778W        W78038  43.725  17.733  11.970
12779W        W78039  26.950  39.447  12.114
12780W        W78040  15.779   9.836  14.500
12781W        W78041  30.286  12.185  14.359
12782W        W78042  13.513   3.454  11.151
12783W        W78043  28.641  22.630   4.183
12784W        W78044  17.169  28.871  10.297
12785W        W78045  12.085   5.644   4.974
12786W        W78046   8.187  14.508  11.765
12787W        W78047  18.717   8.759   0.704
12788W        W78048  26.621  30.522  11.990
12789W        W78049  36.361  13.794   0.763
12790W        W78050  25.592  24.639  14.787
12791W        W78051   5.389  29.977   1.679
12792W        W78052  19.192  18.795   4.056
12793W        W78053  42.523  24.650  14.305
12794W        W78054  36.224  15.783  12.711
12795W        W78055   8.532  42.042  13.737
12796W        W78056  29.848  24.953   9.857
12797W        W78057  15.121  41.372  13.402
12798W        W78058   3.792  15.056  13.095
12799W        W78059  42.526   1.916   2.341
12800W        W78060  19.100  42.535  11.881
12801W        W78061  36.491   4.883  13.076
12802W        W78062  24.805  34.292  14.556
12803W        W78063   4.999  25.779  10.861
12804W        W78064  16.767   5.358   4.143
12805W        W78065  21.057  11.170   2.329
12806W        W78066  38.898  31.901  10.184
12807W        W78067  19.151  21.013  10.352
12808W        W78068  21.820   4.504  12.118
12809W        W78069  23.591  40.381   2.079
12810W        W78070   0.757  28.462  11.387
12811W        W78071  32.808  24.696   0.384
12812W        W78072  14.077  29.710   4.298
12813W        W78073  41.070  10.622  12.127
12814W        W78074  27.689  30.306  11.998
12815W        W78075  12.986  22.726  11.470
12816W        W78076  16.725  11.884   2.298
12817W        W78077   5.244  38.274  12.464
12818W        W78078   1.228   2.058  11.070
12819W        W78079   5.385  15.570  12.969
12820W        W78080  39.492  37.856   2.536
12821W        W78081  13.411  25.199  12.590
12822W        W78082   1.970  10.119  14.829
12823W        W78083  14.607   9.622   1.300
12824W        W78084  41.782  20.234   1.364
12825W        W78085  43.432  16.736   0.293
12826W        W78086   5.344  29.959  14.837
12827W        W78087  38.255   7.079  14.318
12828W        W78088  24.986   0.535  14.934
12829W        W78089  19.252  20.049  14.292
12830W        W78090  33.941  43.160  13.071
12831W        W78091  33.491  34.418   2.780
12832W        W78092  17.726   9.563   1.163
12833W        W78093  17.687   3.428   0.671
12834W        W78094  42.826   3.378   3.345
12835W        W78095  17.496   9.232  12.562
12836W        W78096  29.111   4.884  10.707
12837W        W78097   2.399  30.476   2.189
12838W        W78098  31.230  23.342   2.210
12839W        W78099  22.235  12.757  12.318
12840W        W78100  43.411  33.830  14.391
12841W        W78101  31.140   0.758   1.802
12842W        W78102  14.695  17.952  10.605
12843W        W78103  15.532   6.460   1.313
12844W        W78104  24.121  30.817   3.121
12845W        W78105  42.726  44.594   0.365
12846W        W78106  18.738  23.836   4.839
12847W        W78107  41.758  26.584  11.088
12848W        W78108   1.917  16.573  10.806
12849W        W78109  20.245  37.568  11.105
12850W        W78110  28.761  37.442   2.853
12851W        W78111   2.827  25.708  12.973
12852W        W78112  15.211  17.647  11.276
12853W        W78113   8.010   2.473   4.089
12854W        W78114  43.968  30.705  12.584
12855W        W78115  39.887  16.797  12.616
12856W        W78116   7.885  31.530  14.180
12857W        W78117  40.069  12.207   1.921
12858W        W78118  16.489  41.145  12.871
12859W        W78119  42.839  31.939  10.401
12860W        W78120  30.528  32.635   2.351
12861W        W78121  17.996  23.656  14.392
12862W        W78122   3.744  43.829  14.417
12863W        W78123  43.689  33.443   4.092
12864W        W78124  37.366   2.492  14.418
12865W        W78125   2.420  26.132   2.202
12866W        W78126   5.424  30.499  11.017
12867W        W78127  43.359   4.810   9.944
12868W        W78128  26.994  26.779  10.761
12869W        W78129   5.973  22.440   0.839
12870W        W78130  10.856  40.632  12.454
12871W        W78131   6.541  25.290  14.479
12872W        W78132  22.001  37.816  12.551
12873W        W78133  26.561  32.148   0.545
12874W        W78134  12.710   3.137  14.794
12875W        W78135   6.838   5.276   1.817
12876W        W78136  30.899   8.656  14.556
12877W        W78137  22.789  29.985  11.151
12878W        W78138  36.384   6.687  13.572
12879W        W78139  10.336   1.008   1.662
12880W        W78140  40.999  30.992   4.173
12881W        W78141  16.076  12.548   4.756
12882W        W78142  15.198   7.711   2.765
12883W        W78143  37.861   4.930  11.212
12884W        W78144  35.406  31.690   4.551
12885W        W78145  29.585  22.527  11.082
12886W        W78146  32.107  44.255   2.429
12887W        W78147  43.367  13.463  14.588
12888W        W78148  21.953  40.656  11.102
12889W        W78149  44.769  39.714  12.020
12890W        W78150  38.393  39.052   1.727
12891W        W78151  36.374   7.191   0.439
12892W        W78152  41.519  25.494  12.747
12893W        W78153  15.220   6.157  11.987
12894W        W78154   8.912  23.628  14.993
12895W        W78155  13.895  27.619  12.577
12896W        W78156  40.895  44.289  13.455
12897W        W78157  40.756  26.079  14.423
12898W        W78158   9.877  32.891   0.792
12899W        W78159   9.278   9.439   1.530
12900W        W78160  11.398  44.365   0.200
12901W        W78161  27.040  29.143  12.581
12902W        W78162  30.930  28.619  12.552
12903W        W78163  21.530  23.255   2.742
12904W        W78164  13.786  31.644   0.394
12905W        W78165   2.163   4.282  14.937
12906W        W78166  32.085  28.036   3.819
12907W        W78167   5.661   7.177  13.014
12908W        W78168  27.086  20.975   0.098
12909W        W78169  28.456  25.168  13.600
12910W        W78170  16.066  22.529  14.047
12911W        W78171   6.739  30.114  11.034
12912W        W78172  35.720  43.300   2.950
12913W        W78173  21.145   2.906   4.201
12914W        W78174  32.835  32.583   0.288
12915W        W78175  32.961  33.544   2.767
12916W        W78176  26.741  16.496  14.503
12917W        W78177  28.812  38.308   2.328
12918W        W78178  37.789  43.976  10.499
12919W        W78179   4.821  19.746  10.702
12920W        W78180  26.601  23.125   3.276
12921W        W78181  43.533  27.403  11.941
12922W        W78182  39.781  36.950   3.267
12923W        W78183  36.920  39.902  14.863
12924W        W78184   9.986  28.462  13.609
12925W        W78185   4.953  31.649   0.526
12926W        W78186  36.936  36.056  14.899
12927W        W78187  25.281  21.699  14.159
12928W        W78188  14.595  40.342   2.218
12929W        W78189  44.763  23.965   1.646
12930W        W78190  14.319  37.118   4.685
12931W        W78191  38.113   1.852   3.083
12932W        W78192  40.036  20.043  11.110
12933W        W78193  16.759   1.970   2.886
12934W        W78194  30.255   1.026   4.627
12935W        W78195  16.623   1.795  12.526
12936W        W78196  32.118  44.240   0.143
12937W        W78197  17.215  12.180   2.882
12938W        W78198  31.463  14.134   1.694
12939W        W78199  42.519  17.265  10.587
12940W        W78200  21.527  32.893  14.442
12941W        W78201  13.614  20.386   2.395
12942W        W78202  19.129  17.692   2.437
12943W        W78203  22.038  33.658  10.696
12944W        W78204  30.398  29.950  13.476
12945W        W78205   2.438  22.052  12.144
12946W        W78206   2.767  13.338   3.638
12947W        W78207   5.022  26.122  11.572
12948W        W78208   0.355  27.097   4.025
12949W        W78209  15.583  28.633   4.117
12950W        W78210   7.188   4.604   1.014
12951W        W78211  25.608   8.996  12.297
12952W        W78212   7.893   3.936   0.838
12953W        W78213  25.015  19.710  14.996
12954W        W78214   3.809   2.018   3.427
12955W        W78215   9.422   7.532   1.808
12956W        W78216  10.984  19.979  14.421
12957W        W78217  14.246  29.682   3.012
12958W        W78218  38.546  14.132  10.637
12959W        W78219  42.096  18.939   0.594
12960W        W78220   8.610  38.075   3.684
12961W        W78221  26.039  28.705  11.915
12962W        W78222   1.160  31.032  11.937
12963W        W78223  11.390   0.597   0.868
12964W        W78224  23.001   7.302   0.756
12965W        W78225  19.347  25.897   3.127
12966W        W78226   1.381  31.942  10.660
12967W        W78227  10.827  10.352   3.117
12968W        W78228   7.385  39.432  14.328
12969W        W78229  25.260   2.750   3.714
12970W        W78230  33.120  21.072   0.689
12971W        W78231  22.937  41.152   0.365
12972W        W78232   4.837  40.073   3.756
12973W        W78233  40.366  29.943  14.950
12974W        W78234  26.741  18.766  12.381
12975W        W78235  26.552  32.181   3.194
12976W        W78236  12.562  10.333  13.054
12977W        W78237   3.349  27.903  12.919
12978W        W78238   2.212  44.553   0.290
12979W        W78239  15.115   4.254   2.146
12980W        W78240   4.128  37.841   0.425
12981W        W78241  14.171  40.868   0.489
12982W        W78242  41.125  43.273   1.996
12983W        W78243  42.191  14.653   1.445
12984W        W78244  36.880   8.905   0.837
12985W        W78245  25.137  24.429   0.415
12986W        W78246   0.876   9.143  14.227
12987W        W78247  14.696  17.427  10.612
12988W        W78248  11.008  24.446   1.876
12989W        W78249   3.793  36.079   1.688
12990W        W78250  40.310  11.554  11.559
12991W        W78251  31.371  31.529  13.081
12992W        W78252  24.391  43.189  12.074
12993W        W78253  33.059  20.270  12.470
12994W        W78254   3.462   9.007  14.922
12995W        W78255  17.042  16.261  11.229
12996W        W78256   3.650  20.178   4.114
12997W        W78257  31.516  38.938   4.370
12998W        W78258  23.987  40.087   2.284
12999W        W78259  27.717   4.389   0.453
13000W        W78260  23.283  16.159   3.141
13001W        W78261  37.542  44.280  14.942
13002W        W78262  12.628   8.146  13.222
13003W        W78263  29.886  26.390   0.420
13004W        W78264  12.837   1.683  11.453
13005W        W78265  12.578  29.580  11.870
13006W        W78266  28.950  28.128   2.884
13007W        W78267  33.133  41.455  10.540
13008W        W78268  38.073   4.773   0.581
13009W        W78269  38.789  30.051   1.256
13010W        W78270   4.636   9.372   2.304
13011W        W78271  24.636  10.388   0.281
13012W        W78272  28.591  20.610  14.971
13013W        W78273  34.603  12.289   4.627
13014W        W78274   3.218   7.357   0.836
13015W        W78275   8.047  43.331   0.743
13016W        W78276   9.244   4.285  13.475
13017W        W78277  41.373  34.793   2.908
13018W        W78278   0.459  19.285   4.382
13019W        W78279  13.721  35.603  11.547
13020W        W78280  32.495   2.978  12.599
13021W        W78281  18.239  39.068  14.969
13022W        W78282   9.102  42.661   2.380
13023W        W78283  41.158   2.790   0.232
13024W        W78284  11.313  39.500  14.772
13025W        W78285  32.664  22.203   0.282
13026W        W78286  35.037  21.086  13.806
13027W        W78287  44.749   5.370   1.854
13028W        W78288  37.393   9.750   0.771
13029W        W78289   3.252  31.570   4.458
13030W        W78290  37.807  29.921   2.154
13031W        W78291  41.409   8.124  10.647
13032W        W78292   2.470  37.844  14.332
13033W        W78293  25.194  12.554  13.107
13034W        W78294  38.392  17.066   0.525
13035W        W78295  26.288  35.578  13.971
13036W        W78296  18.108  30.006   0.909
13037W        W78297  30.824   0.757  14.231
13038W        W78298   9.094  35.045  11.046
13039W        W78299  32.034  44.331   4.766
13040W        W78300   6.722  42.738   4.408
13041W        W78301  18.483   9.929  13.488
13042W        W78302  32.672  39.197   3.243
13043W        W78303  27.430   5.905   4.478
13044W        W78304  13.591  17.753   4.336
13045W        W78305  13.585  44.862  14.276
13046W        W78306   1.221   1.439  12.120
13047W        W78307  39.704  27.531  11.569
13048W        W78308  11.247  28.509  13.045
13049W        W78309  24.924   2.919  14.552
13050W        W78310  25.986  20.530   4.022
13051W        W78311  37.035  13.123  14.720
13052W        W78312   3.004  35.423   2.719
13053W        W78313  42.063   8.115   4.195
13054W        W78314  43.377  31.967  12.625
13055W        W78315  36.673  39.342  11.149
13056W        W78316   1.912  26.484   0.203
13057W        W78317  38.833  43.841   0.149
13058W        W78318  15.976  36.090  11.627
13059W        W78319  21.494  37.031   4.093
13060W        W78320  31.491  37.460  11.668
13061W        W78321  23.935  15.178   3.791
13062W        W78322  33.849  15.272   4.523
13063W        W78323  36.405   6.782   1.249
13064W        W78324  22.691  15.783  10.789
13065W        W78325  40.411  36.876   1.128
13066W        W78326  14.361  23.631  12.507
13067W        W78327  11.468   7.558  11.223
13068W        W78328  17.590  38.519  12.913
13069W        W78329  42.298  36.462  13.418
13070W        W78330  42.801  13.318   2.398
13071W        W78331  18.190   3.668  11.435
13072W        W78332  22.094   7.693  11.768
13073W        W78333  35.353   6.386   1.918
13074W        W78334  18.321  29.798   2.775
13075W        W78335  10.291  40.541  10.872
13076W        W78336  11.637  35.621  11.109
13077W        W78337  33.809   7.858  11.655
13078W        W78338  20.198  40.043  13.801
13079W        W78339  12.753  10.250  10.259
13080W        W78340  13.848   8.832   2.413
13081W        W78341   1.564  18.458   4.150
13082W        W78342  22.886  32.955  11.477
13083W        W78343  34.797  16.738   3.946
13084W        W78344  29.527  40.194  11.619
13085W        W78345  16.032  20.137   3.436
13086W        W78346  18.685   2.001  11.938
13087W        W78347  41.501  16.548  14.311
13088W        W78348   7.235  38.273   1.871
13089W        W78349   0.257  34.002   1.782
13090W        W78350  35.767  42.727  13.525
13091W        W78351  32.531  10.128   0.493
13092W        W78352   3.396  28.592  12.070
13093W        W78353  29.752  34.926   0.870
13094W        W78354  24.749  33.904  14.876
13095W        W78355   3.288   6.788  10.653
13096W        W78356  37.529  29.353  14.867
13097W        W78357   4.845  15.111  11.597
13098W        W78358   5.415  23.470  10.159
13099W        W78359  37.269  42.081  12.143
13100W        W78360  24.979  10.950  11.454
13101W        W78361  27.377  33.231  11.126
13102W        W78362  32.664  36.328  13.550
13103W        W78363   3.372  23.230   3.281
13104W        W78364  18.759   8.896   4.373
13105W        W78365  39.014  17.335   1.949
13106W        W78366  15.202   1.246   3.587
13107W        W78367  17.993   2.670  11.168
13108W        W78368  14.597  33.995  10.542
13109W        W78369  36.826  38.848   3.683
13110W        W78370  10.442   6.405  12.712
13111W        W78371  27.505  39.426   4.550
13112W        W78372  20.722  14.252  11.172
13113W        W78373  34.454   5.878   0.912
13114W        W78374   5.692   6.855   3.302
13115W        W78375   5.720   7.649  10.816
13116W        W78376  11.051  30.681   4.387
13117W        W78377  16.117  20.248  14.576
13118W        W78378  13.907   0.296  12.109
13119W        W78379  16.141  38.859  12.441
13120W        W78380   7.855  31.984  11.245
13121W        W78381   2.295   2.910   3.270
13122W        W78382  33.430  20.562   4.070
13123W        W78383   1.287  16.532  14.374
13124W        W78384  37.587  13.706  11.633
13125W        W78385  30.416  24.554   3.177
13126W        W78386   8.360  23.113  12.467
13127W        W78387  24.655  30.980   4.844
13128W        W78388  27.173  14.454   4.476
13129W        W78389  21.594  12.038   9.692
13130W        W78390  33.541  20.827  13.010
13131W        W78391  42.617  43.535   2.818
13132W        W78392  40.276  25.914   4.630
13133W        W78393  11.228  19.686   0.306
13134W        W78394  29.151  24.530  13.495
13135W        W78395  30.852   6.454  14.947
13136W        W78396  41.927   5.848  14.465
13137W        W78397  19.587  13.533   0.983
13138W        W78398   7.865  36.149  13.026
13139W        W78399  39.812  32.193   1.142
13140W        W78400  38.071   0.674   2.144
13141W        W78401  18.217  43.781   4.424
13142W        W78402  22.329  34.159   2.905
13143W        W78403  17.211  43.922   4.558
13144W        W78404  39.771  36.672   1.748
13145W        W78405   8.564  19.170   3.602
13146W        W78406  15.609  31.606  12.652
13147W        W78407  12.826  38.480  11.114
13148W        W78408   2.544  12.245  13.865
13149W        W78409  37.965  43.867   0.425
13150W        W78410  29.748  35.433   3.173
13151W        W78411  26.616   6.359  12.570
13152W        W78412  41.804  43.926   4.372
13153W        W78413  33.660  42.864  10.516
13154W        W78414  33.997  40.941  13.116
13155W        W78415  21.070   5.453   0.262
13156W        W78416  11.932  35.780  11.506
13157W        W78417  23.552  19.756   1.752
13158W        W78418  13.834   6.706  13.482
13159W        W78419  34.944  20.249   0.460
13160W        W78420  41.881   3.837   4.951
13161W        W78421  25.400  42.404   2.186
13162W        W78422  44.342  10.827   0.802
13163W        W78423  26.012   6.856   3.736
13164W        W78424  28.396  26.049  12.019
13165W        W78425  13.161   5.919  11.429
13166W        W78426  43.572  35.530  10.757
13167W        W78427  23.606  42.876   3.609
13168W        W78428   7.027  39.992   4.462
13169W        W78429  30.620  12.178   3.485
13170W        W78430  26.661  36.034   2.686
13171W        W78431  22.262  40.360  13.570
13172W        W78432  37.621   6.276   4.561
13173W        W78433  13.820  28.153  13.003
13174W        W78434  17.309  37.461  11.611
13175W        W78435  30.204  20.737   0.790
13176W        W78436   9.292  32.659   3.781
13177W        W78437  31.803  20.585  13.973
13178W        W78438  21.716  35.904  11.880
13179W        W78439  32.193  40.752  13.461
13180W        W78440  20.692  31.250  12.362
13181W        W78441  34.570  21.756   3.285
13182W        W78442  18.091  39.832  13.561
13183W        W78443   7.886  42.792   0.046
13184W        W78444  11.696  42.571   1.346
13185W        W78445  28.622  28.773  12.510
13186W        W78446  42.846  24.996   4.440
13187W        W78447  42.896  24.132   2.224
13188W        W78448   6.152  19.269  11.601
13189W        W78449   8.250  35.494   1.191
13190W        W78450   2.313  15.165   2.836
13191W        W78451  10.514  32.394   2.940
13192W        W78452   1.437   9.260  10.704
13193W        W78453   0.106  43.980  13.686
13194W        W78454   7.394  21.416  13.379
13195W        W78455   7.713  15.275  11.967
13196W        W78456  33.101  38.329  10.888
13197W        W78457  38.960  40.327  12.922
13198W        W78458  43.983   7.392   2.823
13199W        W78459  37.051  37.538   4.977
13200W        W78460  10.610  15.742  11.168
13201W        W78461  25.066  13.865   3.238
13202W        W78462  22.218   8.974   0.151
13203W        W78463  17.846  21.654   4.194
13204W        W78464  44.810   1.425  11.654
13205W        W78465  40.142   2.226   4.925
13206W        W78466  37.563  20.660  11.989
13207W        W78467  35.763   0.785   0.431
13208W        W78468  29.051  20.512   4.808
13209W        W78469  16.761  10.815  12.527
13210W        W78470  14.209  39.310  11.181
13211W        W78471   5.684  13.578  10.554
13212W        W78472  26.254  42.506   0.303
13213W        W78473  15.365   3.716   3.625
13214W        W78474   1.844   9.188   3.858
13215W        W78475  41.060   4.265  13.417
13216W        W78476   0.530  34.611   2.712
13217W        W78477   9.431  25.979  12.046
13218W        W78478   6.151  30.616  12.040
13219W        W78479   5.221  16.168   3.061
13220W        W78480  41.316  26.178  10.682
13221W        W78481  29.430   1.623  14.515
13222W        W78482  41.400  39.794  12.136
13223W        W78483   3.423  15.145  11.843
13224W        W78484  17.814  24.728  13.458
13225W        W78485   0.530  39.070  11.881
13226W        W78486  26.802  30.917  13.596
13227W        W78487  21.455  13.413   1.270
13228W        W78488  26.907  21.563  14.500
13229W        W78489  44.345   9.212   3.118
13230W        W78490   4.133  27.685  14.916
13231W        W78491  24.617  27.021  14.787
13232W        W78492   9.201   4.355   1.613
13233W        W78493  25.505  42.450  11.249
13234W        W78494  43.934  44.387  12.959
13235W        W78495  37.067  26.940   2.955
13236W        W78496  13.670  15.568   2.789
13237W        W78497   7.247  16.289   0.416
13238W        W78498  35.056   6.902  12.216
13239W        W78499  18.794  18.888   3.126
13240W        W78500   1.997  34.962  13.417
13241W        W78501  44.199  44.474  12.523
13242W        W78502  35.763  41.716  13.901
13243W        W78503  31.828  24.598  10.260
13244W        W78504   8.379   4.966   2.033
13245W        W78505  42.447  10.719   1.495
13246W        W78506  25.009   4.347  14.408
13247W        W78507  43.912   2.833  11.557
13248W        W78508  44.685   9.539  14.644
13249W        W78509   8.860  25.621  10.339
13250W        W78510  39.410  40.576   3.680
13251W        W78511  16.128  23.128   0.373
13252W        W78512  10.638   6.846   1.793
13253W        W78513  10.410  28.423  13.313
13254W        W78514  44.197  12.621  13.041
13255W        W78515  40.370  41.786   4.214
13256W        W78516  28.076  37.790  10.783
13257W        W78517  26.962  26.071  13.600
13258W        W78518   0.486  13.335   4.284
13259W        W78519  10.358  21.451   1.816
13260W        W78520   7.695  20.824   0.852
13261W        W78521  23.080  19.221  13.036
13262W        W78522  36.959  40.184   0.965
13263W        W78523  34.215  20.689  13.443
13264W        W78524  37.406  43.388   3.676
13265W        W78525  39.054  24.328  14.439
13266W        W78526  12.335  36.339   2.867
13267W        W78527  16.056   7.617  11.674
13268W        W78528   5.266  12.892  13.978
13269W        W78529   8.631  42.444   1.588
13270W        W78530  22.044   1.020  11.908
13271W        W78531   2.808  18.729   0.046
13272W        W78532  34.371  37.055   4.106
13273W        W78533   3.628  33.357  14.008
13274W        W78534  40.362  27.061   5.038
13275W        W78535   7.320   0.255   0.833
13276W        W78536  12.115  35.812  10.444
13277W        W78537  23.530  40.566  14.910
13278W        W78538   7.876  40.838  12.096
13279W        W78539   1.502  29.154  12.842
13280W        W78540  39.101  41.361  11.497
13281W        W78541  18.232   4.947   3.878
13282W        W78542  21.709   3.397  13.107
13283W        W78543  35.957  15.677  10.878
13284W        W78544  16.472  15.884   0.779
13285W        W78545  39.392  11.970  11.863
13286W        W78546  33.791  38.647  11.935
13287W        W78547  42.291   2.537   3.686
13288W        W78548  42.880  39.307   2.959
13289W        W78549  19.150  42.091  11.185
13290W        W78550   6.508   7.732   3.678
13291W        W78551  28.042   1.245   3.074
13292W        W78552  35.039  12.619   3.725
13293W        W78553  34.122  38.928   1.212
13294W        W78554  19.250  27.120  14.279
13295W        W78555  18.514  18.633  11.763
13296W        W78556   3.875  38.605  11.132
13297W        W78557  38.006  39.090   3.998
13298W        W78558  17.036  24.302   3.198
13299W        W78559   1.081  24.431   5.316
13300W        W78560   6.490   6.762  12.960
13301W        W78561  40.957  31.201   3.213
13302W        W78562  34.510  36.641   2.878
13303W        W78563  44.577  36.880   3.610
13304W        W78564  26.095  28.971   3.993
13305W        W78565  34.131  27.931   2.479
13306W        W78566   5.401  17.257   1.354
13307W        W78567  24.242  12.633   1.442
13308W        W78568   5.326  43.873  11.269
13309W        W78569  15.834  26.172   4.078
13310W        W78570  37.295  23.455   1.643
13311W        W78571  12.595  36.899   4.224
13312W        W78572  12.019  44.337   4.944
13313W        W78573  23.044  14.642  11.014
13314W        W78574   8.762   4.230   4.673
13315W        W78575  27.541   7.169   0.950
13316W        W78576   0.891  32.217   0.901
13317W        W78577  12.684   9.305   2.899
13318W        W78578  10.766  13.071  12.460
13319W        W78579   0.287  19.860  14.568
13320W        W78580  36.464   3.932  10.661
13321W        W78581  12.804  39.809   3.745
13322W        W78582  33.652   8.445   0.201
13323W        W78583  43.566  19.042  10.666
13324W        W78584   6.910  39.111  11.176
13325W        W78585  26.530   1.201   1.723
13326W        W78586  22.860  17.816   5.422
13327W        W78587  15.036  37.530  13.434
13328W        W78588  44.454  37.559   4.853
13329W        W78589   3.286  19.553  14.288
13330W        W78590  11.707  17.138  10.383
13331W        W78591  43.271   6.529   1.658
13332W        W78592  40.290  10.792   3.748
13333W        W78593  17.377  15.385  14.410
13334W        W78594  33.489  21.271  14.851
13335W        W78595  33.515  23.498   1.281
13336W        W78596  40.506  34.342   1.370
13337W        W78597   7.960  41.374   5.133
13338W        W78598  24.930  27.046  11.603
13339W        W78599  41.117   7.364  12.945
13340W        W78600  41.058  16.515   3.738
13341W        W78601  24.194  16.269  11.304
13342W        W78602  41.285   1.170  11.974
13343W        W78603  26.600  28.024  12.102
13344W        W78604  30.738   8.756   2.699
13345W        W78605  35.392  12.600  13.443
13346W        W78606  13.421  41.863  14.991
13347W        W78607  39.325  18.807  14.525
13348W        W78608  15.106   9.726   1.238
13349W        W78609  26.872  26.309   0.027
13350W        W78610  31.397  38.545  14.256
13351W        W78611  12.384  39.009  10.634
13352W        W78612  35.393  43.059   3.958
13353W        W78613   6.968   3.711  14.490
13354W        W78614   8.224   8.328   1.612
13355W        W78615  14.118  24.601  12.836
13356W        W78616  32.642   7.805  13.776
13357W        W78617   9.328  21.762  13.026
13358W        W78618  42.786   7.330  10.768
13359W        W78619  41.552  28.935  13.322
13360W        W78620   9.426   6.976   2.291
13361W        W78621  11.300  25.447  10.946
13362W        W78622  14.752  16.844  13.318
13363W        W78623   1.815  17.511   0.834
13364W        W78624   2.197   0.221  14.486
13365W        W78625  26.461  10.824  12.472
13366W        W78626  34.616  35.590   3.655
13367W        W78627  40.591  40.105   0.226
13368W        W78628   9.323  38.982   0.912
13369W        W78629  37.285  31.573  11.555
13370W        W78630   4.440  43.908  14.096
13371W        W78631   2.144   1.303  13.309
13372W        W78632   3.483  19.753  14.777
13373W        W78633  33.848   3.489  11.836
13374W        W78634   1.180   4.195   0.006
13375W        W78635  22.125  40.226   4.705
13376W        W78636  28.111  37.268  14.801
13377W        W78637   1.199   8.701  13.916
13378W        W78638  41.720   9.166   3.646
13379W        W78639  36.427  17.712  14.543
13380W        W78640  36.385  18.860   5.000
13381W        W78641   0.993  40.721   1.440
13382W        W78642  40.629  22.720  12.684
13383W        W78643  42.491  28.447  13.635
13384W        W78644  17.650  22.068  12.530
13385W        W78645  32.606  22.772  10.702
13386W        W78646  38.691  24.473  13.229
13387W        W78647   7.223   9.684   0.277
13388W        W78648   2.444   4.765  13.887
13389W        W78649  18.775  34.421   4.281
13390W        W78650  22.772  22.955   1.200
13391W        W78651  23.940   7.721  12.894
13392W        W78652   1.912   6.920  14.046
13393W        W78653  33.172   5.698   3.637
13394W        W78654  34.907   7.718   3.288
13395W        W78655   5.547  23.272  13.547
13396W        W78656  44.274   5.123  11.367
13397W        W78657  43.947  12.462  11.372
13398W        W78658  15.235  16.076  11.506
13399W        W78659  33.861   0.938  14.198
13400W        W78660  16.668  27.089   2.162
13401W        W78661  24.034  13.618  10.691
13402W        W78662   5.244  33.405   4.867
13403W        W78663  12.765  13.171   4.507
13404W        W78664  41.517  34.472   3.821
13405W        W78665  25.694  43.957  11.208
13406W        W78666  32.611  23.604  10.206
13407W        W78667  10.866  22.899  13.416
13408W        W78668  26.361  41.727   4.507
13409W        W78669   7.779  29.443  14.049
13410W        W78670  18.666  17.521  12.005
13411W        W78671  38.633  17.788   1.259
13412W        W78672  35.761  18.065  14.957
13413W        W78673  15.351   2.826   3.654
13414W        W78674  22.698   5.922  14.446
13415W        W78675  38.456  19.057   0.429
13416W        W78676   5.829  29.010   9.862
13417W        W78677  19.347  27.908  13.817
13418W        W78678  39.893  17.729   4.047
13419W        W78679  44.239  27.052   0.705
13420W        W78680  16.258  11.209  14.758
13421W        W78681  33.567  33.513  10.726
13422W        W78682  24.167  35.398   1.281
13423W        W78683   5.356   9.668   1.645
13424W        W78684  17.952  11.319   2.649
13425W        W78685  37.419  23.729  13.371
13426W        W78686  41.901  13.088  14.214
13427W        W78687  18.674  35.213  14.669
13428W        W78688  18.469  29.551  13.043
13429W        W78689  20.893  44.076   4.396
13430W        W78690  24.564  18.945  14.318
13431W        W78691  27.787  12.813  12.580
13432W        W78692  20.739  24.361   1.321
13433W        W78693   8.989   2.322  13.716
13434W        W78694  32.045  30.168  11.204
13435W        W78695  13.906   6.290  10.740
13436W        W78696   6.768   2.889   3.904
13437W        W78697  10.905   6.396  11.984
13438W        W78698   8.708   7.877  10.917
13439W        W78699  30.364  21.627  12.470
13440W        W78700  26.000  21.394   2.253
13441W        W78701  30.618  37.622   4.220
13442W        W78702  24.403  11.880   5.037
13443W        W78703  17.695  29.719  14.903
13444W        W78704  39.447  20.553   2.510
13445W        W78705  41.765   7.795   3.474
13446W        W78706  22.000  13.239  13.286
13447W        W78707  29.612   5.894  14.834
13448W        W78708  43.380  34.483   5.110
13449W        W78709  12.211  25.737   3.784
13450W        W78710  24.652  32.061   4.083
13451W        W78711  12.734  40.441  13.622
13452W        W78712   7.729  31.110  12.286
13453W        W78713  31.392   9.716  12.610
13454W        W78714  32.400  17.766  11.127
13455W        W78715  23.315   9.827   3.639
13456W        W78716  38.882   8.746  13.956
13457W        W78717  22.727  18.007  11.113
13458W        W78718  32.056  32.932  14.593
13459W        W78719  43.146   9.851   1.743
13460W        W78720  11.356  11.181  12.520
13461W        W78721  44.214   7.493   1.347
13462W        W78722  14.169  39.805  11.974
13463W        W78723  28.968  38.867  13.529
13464W        W78724  41.421  31.088  13.534
13465W        W78725  16.334  26.200   2.818
13466W        W78726  11.869  38.266   3.693
13467W        W78727  27.722  39.332   0.964
13468W        W78728  43.922  40.505   4.860
13469W        W78729  25.736  35.986   5.138
13470W        W78730  40.450   3.397   0.637
13471W        W78731  19.960   3.407  13.026
13472W        W78732  30.451  29.006   3.785
13473W        W78733  39.604  42.286   1.904
13474W        W78734  25.239  39.027   2.897
13475W        W78735  18.993  39.485   1.674
13476W        W78736  15.640  11.411  11.528
13477W        W78737  40.256  27.755  13.975
13478W        W78738  42.247  12.802   3.579
13479W        W78739  11.118  37.963   0.403
13480W        W78740  26.234  14.376   4.597
13481W        W78741  34.453  32.039   4.592
13482W        W78742  39.442  14.293  14.186
13483W        W78743   2.069  41.937   2.198
13484W        W78744  13.639  17.986  12.951
13485W        W78745  24.737   2.634  12.434
13486W        W78746  40.019  19.034   4.768
13487W        W78747   9.277   4.288   0.305
13488W        W78748   2.365  43.311   0.801
13489W        W78749   7.770  42.005   0.759
13490W        W78750   3.847   3.350  13.344
13491W        W78751  25.646  40.132  13.980
13492W        W78752  28.479  21.950   3.020
13493W        W78753   5.710  14.644   3.336
13494W        W78754  24.107  29.812   1.807
13495W        W78755   6.950   5.835  12.940
13496W        W78756   3.708   7.713   4.786
13497W        W78757   7.007   4.172  13.462
13498W        W78758  27.744  27.695  12.571
13499W        W78759  18.190  13.272  13.447
13500W        W78760  31.134   4.129   0.444
13501W        W78761   5.711  17.053   3.626
13502W        W78762   7.692  11.606   4.151
13503W        W78763  27.288  19.621   4.588
13504W        W78764   9.271  44.480  11.939
13505W        W78765   5.948  17.257  10.815
13506W        W78766  39.312  13.201   0.215
13507W        W78767   6.428  42.502   2.709
13508W        W78768  15.582   2.180   2.745
13509W        W78769  41.993  20.564  12.027
13510W        W78770  44.501  15.889  11.868
13511W        W78771   0.970   4.993   2.229
13512W        W78772  14.596   5.347   1.029
13513W        W78773  13.083  28.666  11.053
13514W        W78774  18.135  25.265  12.336
13515W        W78775  13.817  24.932  14.842
13516W        W78776  36.972  11.241  11.587
13517W        W78777  42.050  41.270  12.558
13518W        W78778  22.255  19.631   2.676
13519W        W78779  31.989  44.627   3.919
13520W        W78780   0.817   6.963   4.088
13521W        W78781  15.723  34.850  10.933
13522W        W78782  14.252   4.507  11.407
13523W        W78783  23.740  19.434  10.765
13524W        W78784  18.128  42.267   2.710
13525W        W78785  17.736  36.038  13.531
13526W        W78786  26.726  27.679   3.830
13527W        W78787  25.958  30.030  13.985
13528W        W78788  19.972  43.205   2.829
13529W        W78789  12.823  29.659  13.703
13530W        W78790  39.413  39.333   4.151
13531W        W78791   1.788  27.130  14.013
13532W        W78792  41.506  25.209  13.213
13533W        W78793  31.031   9.185   3.416
13534W        W78794  39.463  28.327  13.180
13535W        W78795  37.847  35.871   1.817
13536W        W78796  25.948  12.488  11.196
13537W        W78797  13.767  15.833   1.309
13538W        W78798  32.681  14.370  11.231
13539W        W78799   0.487  36.521  10.988
13540W        W78800  30.111  15.664  13.434
13541W        W78801   8.635  43.432  11.148
13542W        W78802  35.917  40.360   0.395
13543W        W78803  14.802  27.541  11.122
13544W        W78804  26.688  39.121  14.906
13545W        W78805  36.172  21.146   1.842
13546W        W78806  39.588  29.585  12.655
13547W        W78807  28.258  33.252   3.510
13548W        W78808  40.801  42.102   3.610
13549W        W78809  24.668  24.687  11.904
13550W        W78810  19.353  39.901  14.020
13551W        W78811  17.318  34.646  10.693
13552W        W78812  11.182  38.579  14.948
13553W        W78813  24.090  23.814   4.582
13554W        W78814  15.709  37.934  11.090
13555W        W78815  12.118  33.407   2.810
13556W        W78816  28.248   3.437   2.430
13557W        W78817  33.933  19.470  11.500
13558W        W78818  12.045   3.420   0.500
13559W        W78819  20.620   8.902   4.572
13560W        W78820  11.933  25.217   0.477
13561W        W78821   9.488  19.592  11.255
13562W        W78822   4.648  27.619  14.884
13563W        W78823   7.946  28.241  14.769
13564W        W78824  30.633   6.969   1.660
13565W        W78825   6.352  37.475   2.320
13566W        W78826   8.905  12.621   2.295
13567W        W78827  33.515  41.432  14.892
13568W        W78828  35.221  24.872  13.797
13569W        W78829  44.311  35.604  11.198
13570W        W78830  23.672  31.451   3.341
13571W        W78831  18.614  21.741  12.138
13572W        W78832   0.748  23.275  12.131
13573W        W78833   8.433  23.497  14.790
13574W        W78834  20.630  36.508  10.595
13575W        W78835  44.255  32.649   0.859
13576W        W78836  36.392  41.038   2.271
13577W        W78837   9.030  44.931  11.922
13578W        W78838   1.861  12.745  10.589
13579W        W78839  27.948  38.894   0.751
13580W        W78840  19.790  15.006  13.770
13581W        W78841  40.860  26.228   2.796
13582W        W78842   9.870  10.255  11.087
13583W        W78843  12.077  24.253   3.664
13584W        W78844  18.331  23.246  14.332
13585W        W78845  10.622  42.448  14.942
13586W        W78846  27.494  42.812   1.837
13587W        W78847   0.159   9.347  14.826
13588W        W78848   9.752  42.341   0.787
13589W        W78849  34.959  20.452  12.688
13590W        W78850  18.844  41.157   5.111
13591W        W78851  38.462   4.095  14.288
13592W        W78852  39.062   0.059   4.552
13593W        W78853  26.991   1.039   5.086
13594W        W78854  36.551  33.343   3.660
13595W        W78855   6.883  38.275  12.937
13596W        W78856  18.210  36.120   2.206
13597W        W78857  34.188  24.099  11.710
13598W        W78858   4.941  11.257   3.683
13599W        W78859  18.478  10.252   3.171
13600W        W78860   6.318  11.679  13.446
13601W        W78861  37.021   5.301   1.333
13602W        W78862  30.950  20.486  11.105
13603W        W78863   6.921  36.173   4.445
13604W        W78864  15.037  37.604   0.479
13605W        W78865  30.038  41.783  11.764
13606W        W78866   9.588  34.042   0.476
13607W        W78867  39.622   4.933   3.769
13608W        W78868  34.585  28.423  14.566
13609W        W78869  11.694  32.840  13.817
13610W        W78870  30.569   0.948  12.348
13611W        W78871  22.038  29.174   1.760
13612W        W78872  25.458  11.167  11.255
13613W        W78873  30.092  22.486  13.520
13614W        W78874   9.708   8.365  13.284
13615W        W78875  23.663  18.234  13.092
13616W        W78876  10.256  22.171   4.601
13617W        W78877   8.292   2.906   4.167
13618W        W78878   3.697   5.102  14.561
13619W        W78879  22.269  12.192  10.579
13620W        W78880  29.616  40.945   2.190
13621W        W78881  31.757  37.779  13.468
13622W        W78882  28.121  17.538  12.161
13623W        W78883  16.160  41.094   4.163
13624W        W78884  21.556  32.266   3.152
13625W        W78885  35.114  38.849  11.122
13626W        W78886   1.457  32.732   1.717
13627W        W78887  34.118  18.412   1.311
13628W        W78888  42.340  32.214   2.279
13629W        W78889  34.517  20.587   2.850
13630W        W78890  34.872   0.971  13.507
13631W        W78891  41.849  11.843   0.792
13632W        W78892   0.866  28.906   4.479
13633W        W78893  10.275  29.377  10.813
13634W        W78894  18.349  41.534   0.872
13635W        W78895  40.818  10.723  10.787
13636W        W78896  13.370   2.667   2.809
13637W        W78897  41.330   1.079  11.437
13638W        W78898   0.320  27.332   1.634
13639W        W78899  36.651  33.090   0.118
13640W        W78900  40.139   1.746  11.629
13641W        W78901  31.250  13.050   3.584
13642W        W78902  25.672  44.943   1.231
13643W        W78903  11.762   4.971  10.459
13644W        W78904  27.541  14.018   1.352
13645W        W78905  31.394  43.519   2.764
13646W        W78906  15.537  23.767   0.783
13647W        W78907  21.019  19.340  11.526
13648W        W78908  31.331  36.302   4.359
13649W        W78909   4.873  44.065  11.464
13650W        W78910  10.727   5.993   4.894
13651W        W78911   1.461  44.854   1.638
13652W        W78912  20.738  15.116  12.308
13653W        W78913  20.066   3.016   0.220
13654W        W78914  37.368  21.092   1.426
13655W        W78915   7.562  24.212  13.424
13656W        W78916  26.649   1.384  11.148
13657W        W78917  10.796  14.868   0.645
13658W        W78918  13.660  14.879  11.195
13659W        W78919  30.224   3.345   0.911
13660W        W78920   7.828  36.803  14.528
13661W        W78921   7.318   5.117   3.370
13662W        W78922  37.398  20.626   1.646
13663W        W78923  43.840  16.234   3.155
13664W        W78924  40.930   9.782  10.642
13665W        W78925   2.250  37.164   4.174
13666W        W78926  44.755  18.634  11.383
13667W        W78927  30.613  37.870   2.138
13668W        W78928  36.112  19.613  14.008
13669W        W78929  30.575   0.519   2.962
13670W        W78930  43.365   5.879  11.425
13671W        W78931  13.316  26.317   1.454
13672W        W78932  25.293  10.861   0.829
13673W        W78933  19.321  16.004   0.129
13674W        W78934  12.583   8.397   4.882
13675W        W78935  32.740  29.394   3.661
13676W        W78936  18.693  44.935   0.392
13677W        W78937  43.149   0.807  12.100
13678W        W78938   6.588   4.801   4.118
13679W        W78939  39.477  33.751   2.764
13680W        W78940   8.798   0.296   2.199
13681W        W78941  18.161  27.119  10.944
13682W        W78942   6.650  16.718  11.633
13683W        W78943  38.130  29.537   3.795
13684W        W78944   6.394   4.557  11.391
13685W        W78945  41.049   5.371   1.848
13686W        W78946   9.784   2.821  10.505
13687W        W78947   2.762  31.779  11.458
13688W        W78948  44.450   6.719   2.845
13689W        W78949  14.889  18.476   1.742
13690W        W78950  10.114  15.297  10.558
13691W        W78951  35.543   5.865  14.228
13692W        W78952  25.266  27.897  14.565
13693W        W78953  22.365   8.323   2.179
13694W        W78954  43.749  21.781  14.774
13695W        W78955  26.314  34.507   2.841
13696W        W78956  17.264  24.278  12.741
13697W        W78957  11.132  36.755  12.105
13698W        W78958  23.167   2.524  14.802
13699W        W78959   0.547  44.158  14.287
13700W        W78960  19.625  36.515  11.540
13701W        W78961  44.773  44.971   2.925
13702W        W78962  43.361  14.643   1.715
13703W        W78963  11.998  43.294  13.324
13704W        W78964   8.752  37.098   1.746
13705W        W78965  18.326  12.105  12.937
13706W        W78966  22.593   5.967  13.490
13707W        W78967  16.705  29.194  12.454
13708W        W78968  25.671  29.158   0.659
13709W        W78969  29.055  43.592   1.127
13710W        W78970  14.308   5.012  11.494
13711W        W78971  39.205   0.035  14.800
13712W        W78972  36.435   7.863   4.606
13713W        W78973  39.362  11.740   0.316
13714W        W78974  41.582  34.466   4.885
13715W        W78975  13.124  10.690   4.751
13716W        W78976  27.057  30.885   3.187
13717W        W78977  13.157  33.485  11.918
13718W        W78978  44.782  14.150  13.787
13719W        W78979  10.179   4.360  14.255
13720W        W78980  10.740  33.521   1.447
13721W        W78981  14.152  32.216  14.089
13722W        W78982   7.334  40.014  12.578
13723W        W78983  24.180  24.745  13.776
13724W        W78984   4.102  29.311   3.718
13725W        W78985   0.443   9.821   4.300
13726W        W78986   1.715  24.499   3.409
13727W        W78987   6.977   8.108   2.397
13728W        W78988   9.362  27.738   1.413
13729W        W78989  28.145  11.499   1.992
13730W        W78990   3.424  26.307   2.369
13731W        W78991  17.472  32.553  13.047
13732W        W78992  23.490  39.112  12.413
13733W        W78993  19.562  24.357  13.775
13734W        W78994  17.240   4.713   4.050
13735W        W78995  15.296  42.977   2.947
13736W        W78996  39.770   3.218   1.999
13737W        W78997  17.244   0.566  11.173
13738W        W78998   4.138  27.109  12.476
13739W        W78999  30.588  31.073  11.376
13740W        W79000  15.284  12.356   2.728
13741W        W79001  37.686  27.414  14.449
13742W        W79002  39.672  43.361   2.633
13743W        W79003  11.263  29.324   0.724
13744W        W79004  16.014  17.620   0.267
13745W        W79005  18.967   6.213  10.639
13746W        W79006  37.310  38.305  11.084
13747W        W79007  21.491   5.674  14.840
13748W        W79008  18.593  40.918  14.814
13749W        W79009  33.136  44.015   1.386
13750W        W79010  10.227  39.375  13.988
13751W        W79011  17.990  38.071   1.724
13752W        W79012  17.026  16.258  12.597
13753W        W79013  34.782  32.988   1.512
13754W        W79014   9.600  41.392   3.652
13755W        W79015  22.984  31.940   0.374
13756W        W79016   3.784  30.970  13.523
13757W        W79017  17.246  32.932   0.861
13758W        W79018  13.323  44.465   0.352
13759W        W79019  36.896  23.154   1.832
13760W        W79020  40.091  36.690  12.844
13761W        W79021  20.522  10.678  14.423
13762W        W79022  27.113  30.395  14.259
13763W        W79023  27.615   5.212   4.156
13764W        W79024  38.518  18.261   1.095
13765W        W79025  39.968  25.651   1.321
13766W        W79026  14.800   6.648  13.191
13767W        W79027   4.069  32.163   1.266
13768W        W79028  24.419  11.651  11.644
13769W        W79029  25.150  39.937   4.856
13770W        W79030  20.298   4.945   0.334
13771W        W79031   8.914  22.531  10.597
13772W        W79032  33.758  38.100   3.322
13773W        W79033  28.289  22.490   4.555
13774W        W79034  41.508  17.160  12.488
13775W        W79035   2.218   8.982  14.418
13776W        W79036  16.083  16.730   2.364
13777W        W79037  40.896  42.185   2.247
13778W        W79038  40.910   2.771   4.580
13779W        W79039  10.370  40.285  14.484
13780W        W79040  33.035  40.786   0.039
13781W        W79041  35.096   9.626   4.377
13782W        W79042   1.257  43.862   1.862
13783W        W79043  22.330  15.753  10.293
13784W        W79044  36.727  31.977  14.715
13785W        W79045  42.309  26.007  13.631
13786W        W79046   6.340  37.383  13.798
13787W        W79047  21.645  33.466   4.299
13788W        W79048  21.547  31.101  14.816
13789W        W79049  35.804  10.148  14.338
13790W        W79050  42.019  36.881  13.537
13791W        W79051   5.332  35.408  10.758
13792W        W79052  19.592  41.859  11.064
13793W        W79053  20.514  25.943  12.161
13794W        W79054  27.910   9.944  11.577
13795W        W79055  24.748  30.152  11.180
13796W        W79056  42.379  18.855   3.829
13797W        W79057   5.692  10.633  14.994
13798W        W79058  10.202   5.119  11.136
13799W        W79059  13.320   0.963   4.154
13800W        W79060  17.065   7.765   4.319
13801W        W79061  12.562  37.746  14.063
13802W        W79062  11.343   9.527  12.806
13803W        W79063  35.382   4.136  13.726
13804W        W79064  32.786  44.898   2.031
13805W        W79065  15.034  10.848   1.837
13806W        W79066  33.808  39.529  11.850
13807W        W79067  37.275  44.955  11.729
13808W        W79068  10.647  24.153  10.679
13809W        W79069  36.859   7.425  14.513
13810W        W79070  22.053  32.648  10.556
13811W        W79071  37.401   6.431   0.418
13812W        W79072  27.929  13.645  14.470
13813W        W79073   9.572  18.559   5.130
13814W        W79074  30.698  42.568   4.108
13815W        W79075   0.448  15.301   1.898
13816W        W79076   4.170  11.775   4.923
13817W        W79077  18.002  22.203   1.933
13818W        W79078  40.336   0.319  11.689
13819W        W79079  28.628  13.820  13.826
13820W        W79080   2.420   6.185  11.404
13821W        W79081  24.503  15.016   2.332
13822W        W79082  27.271  36.424   4.922
13823W        W79083  18.290   1.443   1.480
13824W        W79084  42.486  43.081  13.923
13825W        W79085  29.132  28.553   3.659
13826W        W79086  23.818  28.762   1.139
13827W        W79087  13.756  20.898   5.067
13828W        W79088  26.099   1.681   4.609
13829W        W79089  18.387  15.398  12.462
13830W        W79090   6.728  15.656  11.605
13831W        W79091  37.954   1.442  14.868
13832W        W79092  19.362  16.788   4.109
13833W        W79093  19.457  16.726   0.725
13834W        W79094  27.274   1.533   2.688
13835W        W79095  21.767   3.898   3.139
13836W        W79096  44.852  36.617  12.361
13837W        W79097   4.207  31.530  12.509
13838W        W79098  30.454  29.616   4.480
13839W        W79099  12.421  26.030  12.485
13840W        W79100  15.283  32.467   2.364
13841W        W79101  30.539  18.255  13.005
13842W        W79102  11.932   0.212   2.334
13843W        W79103  22.289  42.991  10.755
13844W        W79104  28.505  13.148   3.371
13845W        W79105  30.524  19.283  13.128
13846W        W79106  38.215  13.316  11.901
13847W        W79107  31.145  23.748  14.352
13848W        W79108  33.602   4.775  10.517
13849W        W79109  30.948  23.038   0.046
13850W        W79110  17.077  30.658  11.090
13851W        W79111  33.551  28.451  13.458
13852W        W79112  17.525   2.490   2.226
13853W        W79113   7.821  42.909   0.534
13854W        W79114  36.630  36.320   0.251
13855W        W79115  13.755  16.720   2.144
13856W        W79116   4.341  13.371  12.983
13857W        W79117  23.905   8.364  10.142
13858W        W79118  12.001  19.776   4.105
13859W        W79119   5.703  31.648  14.719
13860W        W79120   5.248  12.230   2.330
13861W        W79121   3.088  13.319   0.809
13862W        W79122  44.706   7.983  14.722
13863W        W79123  32.178   6.927  13.850
13864W        W79124  22.205  41.876   4.302
13865W        W79125  14.446  33.360   2.898
13866W        W79126   0.133   4.964   0.113
13867W        W79127  26.561   5.197   4.167
13868W        W79128   0.540  29.113  12.896
13869W        W79129  41.097   7.275   3.108
13870W        W79130  36.484   8.437   2.678
13871W        W79131  34.292  36.136   2.339
13872W        W79132  27.365  44.974  12.833
13873W        W79133  41.917  39.291   1.998
13874W        W79134  36.210   5.356   4.197
13875W        W79135   1.303  38.513  10.761
13876W        W79136  11.797  32.001  14.907
13877W        W79137   5.788  10.806  10.659
13878W        W79138  20.009   7.324   4.153
13879W        W79139  40.897  33.698   1.736
13880W        W79140  12.804   6.977   1.681
13881W        W79141  12.366  35.678   1.300
13882W        W79142  14.522  22.034  11.566
13883W        W79143   7.942   9.310  14.961
13884W        W79144  33.889  20.264  13.554
13885W        W79145  10.232  11.423  10.649
13886W        W79146  13.645  33.878  12.122
13887W        W79147  21.111  20.483   2.586
13888W        W79148  13.692   4.046  14.076
13889W        W79149  20.761  22.612  10.778
13890W        W79150  18.125  18.532   5.063
13891W        W79151  20.678   9.989   3.678
13892W        W79152   3.033  13.580   0.365
13893W        W79153  33.049  21.125   0.153
13894W        W79154  18.175  41.366   3.387
13895W        W79155  43.763   6.614  12.610
13896W        W79156   3.775  33.594  14.768
13897W        W79157  15.081  30.499   1.741
13898W        W79158   5.433  20.281  13.951
13899W        W79159  41.834  30.376   4.067
13900W        W79160  23.395  13.365   2.234
13901W        W79161  20.555  21.055  14.935
13902W        W79162  33.560  16.280   2.768
13903W        W79163   9.806  40.376   0.499
13904W        W79164  39.930   2.682  13.972
13905W        W79165   2.779  35.993  12.800
13906W        W79166  42.047   4.941   3.053
13907W        W79167   5.827  12.711   1.522
13908W        W79168  11.828  29.987  14.614
13909W        W79169  15.184  37.509  13.943
13910W        W79170   2.335  15.304  11.864
13911W        W79171  40.278  18.993   0.642
13912W        W79172  27.414  44.403  11.524
13913W        W79173  13.172  10.790   0.442
13914W        W79174  13.248  33.922   2.688
13915W        W79175  25.553  38.725   0.844
13916W        W79176  30.140   4.775   3.853
13917W        W79177  44.789  37.054  11.686
13918W        W79178  31.486  38.482   2.573
13919W        W79179   9.307   9.191   3.359
13920W        W79180   0.853   3.699   2.505
13921W        W79181  24.746   3.708  11.268
13922W        W79182  18.276  31.292   4.895
13923W        W79183  33.064  16.580   0.460
13924W        W79184  33.109  42.918   1.461
13925W        W79185  40.495  28.170  11.575
13926W        W79186  14.902  14.562  14.755
13927W        W79187  16.189  37.450   2.816
13928W        W79188  42.768  10.056   2.065
13929W        W79189  13.328  36.072   1.238
13930W        W79190  10.401  24.588   1.000
13931W        W79191  14.028  22.780  11.102
13932W        W79192  36.026  16.766   2.413
13933W        W79193  26.967   5.186   3.363
13934W        W79194  37.310  40.492   3.128
13935W        W79195  10.341  34.677  13.817
13936W        W79196  31.547  30.380   4.122
13937W        W79197  24.955  12.068  10.467
13938W        W79198  30.414  27.584   0.470
13939W        W79199  28.607  27.475   4.848
13940W        W79200  25.726  39.371   4.218
13941W        W79201  32.245   6.331   1.325
13942W        W79202   5.521  43.815   1.930
13943W        W79203  43.899  41.810  10.663
13944W        W79204   7.835   7.732   0.528
13945W        W79205  11.367  17.078  14.565
13946W        W79206   0.331  43.137  11.582
13947W        W79207  32.330  33.240   2.689
13948W        W79208  26.582   5.793  11.250
13949W        W79209   1.366  43.352   1.848
13950W        W79210  31.903  34.137  14.804
13951W        W79211  27.338  24.074   1.609
13952W        W79212  23.457  42.368  11.127
13953W        W79213  17.556  43.226   4.432
13954W        W79214   8.354  32.151  14.557
13955W        W79215  44.937  26.197  12.311
13956W        W79216  26.167  23.136   0.875
13957W        W79217  23.060   6.065   4.839
13958W        W79218  32.443  30.070  14.317
13959W        W79219  33.063  17.094   1.375
13960W        W79220  39.432  18.314   0.992
13961W        W79221  35.892  12.681  12.128
13962W        W79222  17.431  23.298   1.878
13963W        W79223  39.532  40.438  12.365
13964W        W79224  16.215  17.601  12.685
13965W        W79225   2.941  34.057   1.385
13966W        W79226   1.522   5.829   4.272
13967W        W79227   2.501   3.365   2.194
13968W        W79228  32.696  31.047   2.105
13969W        W79229  32.728   9.029  12.116
13970W        W79230   1.472  11.800   4.952
13971W        W79231  34.658  11.306  12.053
13972W        W79232  42.782   8.634   1.729
13973W        W79233   4.238  37.044  12.541
13974W        W79234  38.141   0.169   4.010
13975W        W79235   0.497  21.638  11.473
13976W        W79236  19.741  27.676  14.876
13977W        W79237  42.933  20.965  10.738
13978W        W79238  30.592  25.491   1.866
13979W        W79239   9.068  38.479  14.976
13980W        W79240  16.108  22.340   0.040
13981W        W79241  35.178  32.640  12.384
13982W        W79242   8.139  24.711   0.435
13983W        W79243  23.097  12.581  13.458
13984W        W79244  31.499   3.848  13.349
13985W        W79245   1.013  38.117  14.884
13986W        W79246  14.640   4.708  13.524
13987W        W79247  40.573  30.708  10.713
13988W        W79248  44.389  24.971  10.086
13989W        W79249  12.211   8.911   0.530
13990W        W79250   2.427  26.823  12.114
13991W        W79251  35.102  31.239  13.575
13992W        W79252  24.517   3.748  14.960
13993W        W79253   6.378  26.416   0.780
13994W        W79254  39.528  41.253  12.242
13995W        W79255   6.628   1.119  12.050
13996W        W79256   8.884  10.743  13.391
13997W        W79257  15.083  28.037  14.721
13998W        W79258  38.783  11.704   2.740
13999W        W79259  14.062  36.154   2.424
14000W        W79260  24.750  40.906   4.587
14001W        W79261  10.547  42.806   3.197
14002W        W79262  33.979   0.479  12.524
14003W        W79263   4.455  19.973  13.875
14004W        W79264  40.951   0.474  13.833
14005W        W79265  26.655   7.111   3.781
14006W        W79266  14.302  29.387  12.847
14007W        W79267  25.625  12.164  14.399
14008W        W79268   0.810  28.263  12.380
14009W        W79269  18.778  33.179  11.118
14010W        W79270   1.111  17.826   1.573
14011W        W79271  34.050   7.808  14.446
14012W        W79272  21.433  36.650  11.660
14013W        W79273  13.816  14.404  11.169
14014W        W79274  33.793  12.403  14.415
14015W        W79275   8.360  20.271  12.170
14016W        W79276  14.913  34.505   2.332
14017W        W79277   4.587  25.534  11.050
14018W        W79278   9.752   3.385   1.267
14019W        W79279  20.364  16.506   4.222
14020W        W79280  14.030  24.205  13.157
14021W        W79281  14.098  12.329   3.828
14022W        W79282  15.473   8.599   4.307
14023W        W79283  34.596  26.635  13.850
14024W        W79284  35.315   5.912   0.398
14025W        W79285  14.587  15.705  13.634
14026W        W79286  26.960  25.680   2.224
14027W        W79287  20.319  40.478  14.614
14028W        W79288  25.649  37.453  11.545
14029W        W79289   2.506   2.975   3.734
14030W        W79290  19.257  32.538   3.378
14031W        W79291  27.994  44.945  14.363
14032W        W79292   0.418  15.663  10.281
14033W        W79293   1.755  37.108   1.210
14034W        W79294   0.546  15.272  11.487
14035W        W79295  14.159   4.282   3.338
14036W        W79296  36.971  42.597  12.121
14037W        W79297  39.986  34.585   0.795
14038W        W79298   3.832   6.588  14.798
14039W        W79299  37.111  12.234  14.488
14040W        W79300  23.968   2.341   4.717
14041W        W79301  24.510   4.451  14.470
14042W        W79302  22.300  25.020  11.210
14043W        W79303   6.532   6.437  12.530
14044W        W79304   8.927  10.764   4.118
14045W        W79305  21.247  20.625  14.415
14046W        W79306  34.623   8.683  11.115
14047W        W79307  23.959  41.175  10.864
14048W        W79308  23.167   7.324  14.343
14049W        W79309  19.725   3.927   4.191
14050W        W79310  27.973  40.327   4.500
14051W        W79311   8.858   5.177  11.133
14052W        W79312  43.173  40.594   3.664
14053W        W79313  11.670   5.493   2.801
14054W        W79314  44.802  42.555  13.884
14055W        W79315  44.346  23.368  11.971
14056W        W79316  41.046  28.985  13.378
14057W        W79317  23.315  14.133   3.623
14058W        W79318  18.552  14.615  12.219
14059W        W79319   2.030  27.987   3.007
14060W        W79320  15.069  37.138  11.199
14061W        W79321   5.664  33.251  14.970
14062W        W79322  26.051  32.600   1.511
14063W        W79323   6.161  13.308  13.250
14064W        W79324  14.886  31.065  12.924
14065W        W79325   5.922   3.685   2.870
14066W        W79326   1.551  21.543  12.519
14067W        W79327  41.231  13.385  14.875
14068W        W79328  20.258  41.309  13.370
14069W        W79329  28.214  21.514   2.083
14070W        W79330  12.387   3.371   2.280
14071W        W79331  24.016  41.620   2.262
14072W        W79332  40.577  14.646  12.552
14073W        W79333  43.614  36.525   4.483
14074W        W79334  19.834  44.438   1.381
14075W        W79335  30.575  37.936   5.209
14076W        W79336  11.299  18.313   2.845
14077W        W79337  16.679  27.432  11.960
14078W        W79338  22.693  20.649  11.537
14079W        W79339   3.979  20.974  12.451
14080W        W79340  37.285   4.548   1.794
14081W        W79341   9.823  14.428  11.334
14082W        W79342   6.441  23.630   0.701
14083W        W79343  43.369  31.941  13.130
14084W        W79344  28.145  35.752  12.843
14085W        W79345  30.458  37.973   0.733
14086W        W79346  39.911  14.535  14.272
14087W        W79347  40.960  19.044  14.793
14088W        W79348   6.057  37.020   3.131
14089W        W79349  12.322  37.693  13.359
14090W        W79350   6.224   5.439  13.801
14091W        W79351  25.958  14.382   4.171
14092W        W79352  19.798   0.515  13.394
14093W        W79353  40.920  32.583  12.592
14094W        W79354  23.803   3.326  13.832
14095W        W79355   8.897  37.743  11.019
14096W        W79356  37.772  11.855   4.646
14097W        W79357   5.698  34.067   4.567
14098W        W79358  26.167   1.923   0.524
14099W        W79359  42.984  36.003   2.821
14100W        W79360   6.555  36.864   3.225
14101W        W79361   6.802   8.909   4.227
14102W        W79362  44.878  39.789  13.239
14103W        W79363  25.460  34.646  13.574
14104W        W79364  35.983  34.378  10.717
14105W        W79365   6.225  44.013  14.784
14106W        W79366  29.216   7.731  11.548
14107W        W79367   3.313  13.600  14.821
14108W        W79368  11.032  37.504   0.958
14109W        W79369   7.727   1.316   0.925
14110W        W79370   4.919  33.581   3.741
14111W        W79371  20.291  29.184   0.399
14112W        W79372  20.726  35.034   4.303
14113W        W79373  12.085   0.362  14.469
14114W        W79374  16.782  27.746   0.055
14115W        W79375  37.444   4.870  10.454
14116W        W79376  38.532  11.662   2.308
14117W        W79377  23.560  22.591  14.664
14118W        W79378  43.782  20.596   4.020
14119W        W79379   7.467  44.338   0.042
14120W        W79380  23.238   3.213  12.943
14121W        W79381  38.554  32.944  10.640
14122W        W79382  10.627  36.011   2.836
14123W        W79383  23.343  24.012  13.889
14124W        W79384  40.947  34.816  14.564
14125W        W79385  10.914  23.707   3.115
14126W        W79386  14.147   2.959   3.380
14127W        W79387  37.883  25.367  10.696
14128W        W79388   9.463  26.796   4.094
14129W        W79389  14.584  25.863   1.795
14130W        W79390  30.894  17.121   1.777
14131W        W79391   6.863   8.623   2.367
14132W        W79392  22.563  14.705   3.562
14133W        W79393  23.820  29.891  11.193
14134W        W79394   3.733  34.868  10.610
14135W        W79395  24.586  19.551   2.387
14136W        W79396   1.242  29.250  12.400
14137W        W79397  29.444  20.987   1.776
14138W        W79398  22.251   0.241  14.116
14139W        W79399  18.129   3.840  13.234
14140W        W79400   6.636  19.671   1.545
14141W        W79401  31.691  37.280  13.400
14142W        W79402  13.551   3.632  11.905
14143W        W79403  22.917  22.672  14.181
14144W        W79404   5.288  13.852   4.003
14145W        W79405  42.841  23.970   4.145
14146W        W79406  27.981  12.067   0.723
14147W        W79407  34.891  42.825  14.467
14148W        W79408  31.948  38.820  10.772
14149W        W79409  14.129   9.909   1.960
14150W        W79410  21.677  41.166  12.566
14151W        W79411  43.978  34.383   1.932
14152W        W79412   9.885  29.652  11.555
14153W        W79413  21.514  44.864  10.672
14154W        W79414   3.855  10.951   2.269
14155W        W79415  17.482  19.891   0.848
14156W        W79416   2.783  36.205   1.668
14157W        W79417  13.918  27.727  14.625
14158W        W79418  39.754  27.021   1.381
14159W        W79419   5.885  32.240  10.001
14160W        W79420  44.737   4.352   4.384
14161W        W79421  34.596  21.461  11.125
14162W        W79422  29.008  11.182   1.906
14163W        W79423  18.259  20.240   3.682
14164W        W79424   9.280   1.911   3.053
14165W        W79425   6.349  17.604   3.606
14166W        W79426  18.297   6.448   2.131
14167W        W79427  33.980   6.296  13.756
14168W        W79428  10.231   8.011  14.370
14169W        W79429  30.625  19.613  11.164
14170W        W79430  21.674   6.598   1.039
14171W        W79431  19.099  18.555  13.684
14172W        W79432  27.650  20.104  10.721
14173W        W79433  22.735  25.522   3.687
14174W        W79434  11.118  38.458  11.511
14175W        W79435  31.999  32.052   3.694
14176W        W79436  12.876  43.050   4.114
14177W        W79437  34.918  31.046  13.131
14178W        W79438  37.195   4.334  10.216
14179W        W79439  36.896  36.014   1.013
14180W        W79440  23.695  28.086   2.243
14181W        W79441   0.391  24.323  14.014
14182W        W79442  10.113  40.948  12.050
14183W        W79443   8.627  11.222  11.641
14184W        W79444  41.846  16.246   3.220
14185W        W79445  36.360   5.053   0.463
14186W        W79446  18.111  15.797   2.810
14187W        W79447  31.072   6.191  12.271
14188W        W79448   0.451   6.596   4.231
14189W        W79449   7.637   2.786  13.315
14190W        W79450  24.077  43.919  14.281
14191W        W79451  37.086  30.666   3.534
14192W        W79452  19.953  25.404   2.868
14193W        W79453  21.233  44.746   4.345
14194W        W79454   8.386  29.007   4.146
14195W        W79455  11.207  37.169   4.054
14196W        W79456  24.482  18.097  14.664
14197W        W79457   7.102  12.448   0.868
14198W        W79458  27.708  27.051   0.532
14199W        W79459  36.900  20.266   1.088
14200W        W79460  13.972  15.615  10.514
14201W        W79461  44.568  31.477  12.686
14202W        W79462  13.173  26.435   2.740
14203W        W79463  30.594  11.723  14.316
14204W        W79464   2.451  29.220   0.765
14205W        W79465  21.284  13.841   0.291
14206W        W79466  40.392  40.824  11.505
14207W        W79467   8.373  38.506  13.773
14208W        W79468  42.840  13.440  12.148
14209W        W79469  10.085   0.387  12.465
14210W        W79470  22.484  36.666  12.579
14211W        W79471  29.282  34.346  12.658
14212W        W79472  26.509   0.053  14.246
14213W        W79473  18.237  22.674   1.136
14214W        W79474  41.866  23.457   3.774
14215W        W79475  38.596   4.346   3.143
14216W        W79476   6.460  44.977  11.542
14217W        W79477   1.631  12.631  14.883
14218W        W79478  19.059  12.735  10.619
14219W        W79479  44.736  24.603  14.525
14220W        W79480   3.340  29.938  12.880
14221W        W79481   4.163   7.776   1.639
14222W        W79482   0.008   6.010  14.854
14223W        W79483   7.994  40.115  12.511
14224W        W79484  23.588  44.798  11.459
14225W        W79485  11.384  39.636  11.922
14226W        W79486  43.564   6.648  13.649
14227W        W79487  17.350   9.766  10.971
14228W        W79488  36.447  29.171  12.397
14229W        W79489   9.323  43.252  13.747
14230W        W79490  31.082   7.158  14.424
14231W        W79491  36.867  33.741   3.059
14232W        W79492  35.492   9.937  13.925
14233W        W79493   9.758  32.611   0.269
14234W        W79494  38.538  34.009  14.853
14235W        W79495  36.581  24.007   4.016
14236W        W79496  38.459  43.708  13.412
14237W        W79497  31.443  42.088  13.470
14238W        W79498  29.602   8.177   2.291
14239W        W79499  27.970   4.683   2.716
14240W        W79500  29.453  13.672  13.403
14241W        W79501  11.279  32.353   3.628
14242W        W79502  41.146  21.075  11.792
14243W        W79503  44.553  11.809   3.393
14244W        W79504  43.852   4.358   2.184
14245W        W79505  10.619   4.217   2.785
14246W        W79506  19.555  40.580  12.491
14247W        W79507  40.491  15.327  13.064
14248W        W79508   5.365   0.561   0.449
14249W        W79509  43.742   7.107  12.555
14250W        W79510  31.507  23.370  12.941
14251W        W79511   2.805   8.675   0.982
14252W        W79512  32.877  21.799   3.095
14253W        W79513  28.713  18.300  13.484
14254W        W79514   3.409  40.996   2.758
14255W        W79515  26.579  14.676  14.026
14256W        W79516  19.131  38.372  14.441
14257W        W79517  39.428  17.042   0.592
14258W        W79518   0.486   2.626   4.514
14259W        W79519  32.312  27.376  14.801
14260W        W79520  12.172  41.445   4.718
14261W        W79521  36.404  36.844   3.258
14262W        W79522  23.074  44.354  13.022
14263W        W79523  18.200   1.136   4.613
14264W        W79524  23.205  21.279   3.397
14265W        W79525  44.438   7.304   1.809
14266W        W79526  29.548  35.936   2.244
14267W        W79527  20.141  17.859   0.275
14268W        W79528  31.876  19.791   2.721
14269W        W79529   3.663  22.633   4.612
14270W        W79530   3.623  24.004  14.798
14271W        W79531  27.846  25.616  10.759
14272W        W79532  10.590  43.431   0.770
14273W        W79533  25.997   2.704  12.915
14274W        W79534   6.199  42.018  10.681
14275W        W79535   8.731  42.438   3.279
14276W        W79536  21.119  24.115  11.125
14277W        W79537   4.847  34.018   2.854
14278W        W79538   4.807  41.037  10.642
14279W        W79539  19.286  15.808   1.358
14280W        W79540  31.087  33.170   3.647
14281W        W79541  16.723  10.846   0.724
14282W        W79542  39.103   3.741   1.907
14283W        W79543  19.585  32.987   1.774
14284W        W79544  22.757  40.165   2.705
14285W        W79545  26.341  11.743   4.012
14286W        W79546   2.741  29.155  11.595
14287W        W79547   1.858  23.018   3.891
14288W        W79548  31.564   5.452  13.835
14289W        W79549  21.794  41.577   1.820
14290W        W79550  39.396   2.956   1.096
14291W        W79551  43.309  43.378   4.236
14292W        W79552   4.621  14.837  10.725
14293W        W79553   2.937  39.950   4.345
14294W        W79554  19.369   8.386  10.501
14295W        W79555  19.505  14.078  12.602
14296W        W79556  24.145   6.002   2.026
14297W        W79557  24.974  14.783  11.123
14298W        W79558  13.333  28.484   2.757
14299W        W79559  13.291  40.331  11.823
14300W        W79560  44.027  26.369   0.447
14301W        W79561  14.160  30.968   1.219
14302W        W79562  39.184   1.194   0.320
14303W        W79563  34.504  27.633   1.260
14304W        W79564   5.271  17.796   0.485
14305W        W79565  22.012  42.378  12.494
14306W        W79566  26.716  27.038  12.951
14307W        W79567  32.584  10.339   4.867
14308W        W79568  31.329  38.433   1.650
14309W        W79569  36.904  15.522   0.318
14310W        W79570   6.875  10.391   0.812
14311W        W79571  39.335   8.873  14.217
14312W        W79572  37.593  16.261  12.375
14313W        W79573  32.530  26.463  13.025
14314W        W79574  26.640   1.181  10.681
14315W        W79575   9.291  19.964  10.979
14316W        W79576  37.824  41.966  10.747
14317W        W79577  44.802  34.272  14.825
14318W        W79578   0.345   3.773   2.379
14319W        W79579   1.218   5.969  14.382
14320W        W79580  30.390  22.672  12.136
14321W        W79581  37.685  16.618  12.012
14322W        W79582  11.438   7.618   0.430
14323W        W79583  38.759   5.909  11.195
14324W        W79584  33.770  18.882  13.021
14325W        W79585  27.468  30.402   2.734
14326W        W79586   3.215  35.878   4.116
14327W        W79587   1.767  18.329   3.687
14328W        W79588  37.388  20.621   2.173
14329W        W79589  15.284  30.604   0.339
14330W        W79590  41.336  30.173   1.940
14331W        W79591  28.904   0.094   2.727
14332W        W79592  29.507   8.488  13.755
14333W        W79593  26.757  33.520  10.662
14334W        W79594  27.563  44.657   3.980
14335W        W79595   8.941  38.964  14.835
14336W        W79596  17.195  32.108  14.750
14337W        W79597  22.188   2.881   0.777
14338W        W79598  11.127  16.177  11.664
14339W        W79599  36.247  12.309  12.193
14340W        W79600  43.812  24.247  14.414
14341W        W79601  23.056  37.411   0.878
14342W        W79602  39.342  32.838  12.881
14343W        W79603  14.236  25.866  12.765
14344W        W79604   6.400  10.764  11.532
14345W        W79605  39.592  26.635  14.484
14346W        W79606  19.087  35.162   1.949
14347W        W79607  14.864  31.709  14.486
14348W        W79608  13.250  15.073  10.965
14349W        W79609  30.008  42.601  14.368
14350W        W79610  36.321  29.470   3.852
14351W        W79611   7.753   3.268  11.565
14352W        W79612   5.500  40.604  10.633
14353W        W79613   6.825  44.366  11.554
14354W        W79614  30.583   2.386   1.793
14355W        W79615  17.190   0.045  11.200
14356W        W79616  32.010  34.018   3.528
14357W        W79617   3.313   5.644   0.771
14358W        W79618  14.126  31.282  13.326
14359W        W79619  22.019  23.641  11.128
14360W        W79620  39.496  18.296   1.539
14361W        W79621  41.429  20.271  12.999
14362W        W79622  17.548  36.574   0.457
14363W        W79623  31.961   9.446  10.457
14364W        W79624  32.172  43.382   2.773
14365W        W79625  37.848   8.357   0.353
14366W        W79626  11.347   1.340   2.128
14367W        W79627  40.919   0.384  12.515
14368W        W79628  28.397   4.365   1.804
14369W        W79629   7.935   2.310  11.719
14370W        W79630  22.036  31.910  11.937
14371W        W79631  23.197   8.642  13.782
14372W        W79632  11.416   1.882   3.263
14373W        W79633  36.974   5.778  11.446
14374W        W79634  17.969  11.550   0.408
14375W        W79635  37.819  14.231   3.756
14376W        W79636  43.806   6.820   2.154
14377W        W79637  12.550  11.914   1.840
14378W        W79638  30.390   0.180   0.305
14379W        W79639  10.390  37.160  13.880
14380W        W79640  18.823  27.141   2.710
14381W        W79641  11.161   8.205  11.948
14382W        W79642  28.723  18.256  12.576
14383W        W79643   1.030  42.508  11.549
14384W        W79644  20.294   7.347  10.710
14385W        W79645   8.870  42.057  10.733
14386W        W79646   1.848   3.159   3.318
14387W        W79647  25.561  37.387  11.026
14388W        W79648  15.155  33.395  14.927
14389W        W79649  33.692   7.837   4.887
14390W        W79650  30.391   1.297  14.516
14391W        W79651  40.277   8.751  13.892
14392W        W79652  24.526  30.087   3.623
14393W        W79653  34.860  36.715  12.932
14394W        W79654  12.292  38.974  11.523
14395W        W79655  25.941   2.847   2.348
14396W        W79656  29.874  42.334  13.408
14397W        W79657   4.209   2.863   3.253
14398W        W79658  29.486   3.306   3.189
14399W        W79659   0.441  21.968   1.556
14400W        W79660  29.382  19.670  11.647
14401W        W79661  21.629  18.340  14.023
14402W        W79662  37.805  10.251   4.352
14403W        W79663  16.476   7.306   2.171
14404W        W79664   6.152  33.006  13.483
14405W        W79665  38.404  42.827  13.517
14406W        W79666  26.171  12.153   1.382
14407W        W79667   8.034  35.351   4.111
14408W        W79668  31.014  20.273   3.155
14409W        W79669  40.193  40.902   4.698
14410W        W79670   0.536   9.090   0.077
14411W        W79671  32.965  14.340   4.979
14412W        W79672  31.950   2.263   2.607
14413W        W79673  20.965   4.125  14.804
14414W        W79674   3.708   8.243   4.758
14415W        W79675  12.814  16.612  11.475
14416W        W79676  21.530  11.895  13.535
14417W        W79677  28.330  29.495   3.634
14418W        W79678   1.430   6.167  11.360
14419W        W79679  19.555  26.835   3.182
14420W        W79680  41.320  17.722   2.202
14421W        W79681  34.392  30.381   0.083
14422W        W79682  16.359  31.027  14.984
14423W        W79683  38.124  24.555   2.999
14424W        W79684  36.165  37.437   2.205
14425W        W79685  37.850  16.520  12.801
14426W        W79686  24.130   0.681  13.006
14427W        W79687  39.509  23.142  11.141
14428W        W79688   2.994   9.657  14.499
14429W        W79689  21.240  28.685   3.684
14430W        W79690  29.767  18.444   0.230
14431W        W79691  19.505   9.797  14.210
14432W        W79692  11.767  22.824   0.843
14433W        W79693  30.222  28.659   0.196
14434W        W79694  16.939  12.262   1.784
14435W        W79695   8.255   5.221  13.684
14436W        W79696   7.382   1.421  11.953
14437W        W79697   9.810  33.276   1.649
14438W        W79698   4.240  44.219  13.622
14439W        W79699  39.477   9.734  14.383
14440W        W79700   8.319  24.182   4.158
14441W        W79701  32.822  43.253  13.469
14442W        W79702  35.976   7.216  11.247
14443W        W79703   6.886   9.061   5.133
14444W        W79704  30.172  33.325  10.689
14445W        W79705  37.639  35.488  12.442
14446W        W79706  32.742  27.934   4.501
14447W        W79707   7.471  16.832   0.986
14448W        W79708  30.730  17.263  10.707
14449W        W79709   5.620  32.578  14.746
14450W        W79710  20.986   6.868   2.046
14451W        W79711   8.103  19.058  12.638
14452W        W79712   6.443  38.428   0.401
14453W        W79713  34.804  39.345  13.010
14454W        W79714   2.950  19.004  11.666
14455W        W79715  33.139  25.080   0.445
14456W        W79716  40.038  22.155   2.880
14457W        W79717  44.306  18.489  11.903
14458W        W79718  18.248   9.798   3.151
14459W        W79719  21.536  20.023   4.551
14460W        W79720  40.049  39.504   4.829
14461W        W79721  38.495  23.985   0.375
14462W        W79722   8.212   9.768   1.064
14463W        W79723   2.090  15.327  12.326
14464W        W79724  26.215  13.768  14.053
14465W        W79725   8.301  10.087   3.228
14466W        W79726  39.833  23.761  11.604
14467W        W79727  44.443  35.060  14.018
14468W        W79728  38.044  40.318  10.609
14469W        W79729  34.558  31.595  10.653
14470W        W79730   9.815   0.059  14.395
14471W        W79731  37.809  43.424   1.772
14472W        W79732  41.235  21.135   4.278
14473W        W79733  32.147  39.278   3.291
14474W        W79734  31.578  40.465  10.637
14475W        W79735  39.346  19.574  13.717
14476W        W79736   4.172  36.398   3.910
14477W        W79737   4.750  29.362  12.609
14478W        W79738   3.485   8.181  13.087
14479W        W79739   7.561  26.068   4.952
14480W        W79740  44.233  40.858   1.920
14481W        W79741   5.835   9.177  12.058
14482W        W79742  26.712  27.546  11.461
14483W        W79743  33.164   4.493   4.468
14484W        W79744  13.155   6.493  11.133
14485W        W79745   4.361   3.207   2.231
14486W        W79746  25.437  14.987   3.525
14487W        W79747  30.597  38.827   2.688
14488W        W79748   0.257   9.415   1.910
14489W        W79749  28.132   5.133  11.540
14490W        W79750  25.739  36.572   3.818
14491W        W79751  26.503  32.560   0.853
14492W        W79752  29.171  36.450  13.494
14493W        W79753  21.211  42.540   1.854
14494W        W79754  15.148  23.900   2.335
14495W        W79755   6.996   9.684   2.197
14496W        W79756   9.424  10.057  12.903
14497W        W79757  23.245  28.961  14.030
14498W        W79758  28.989  30.671  11.955
14499W        W79759  38.518   6.216   4.897
14500W        W79760  14.377   7.314  10.785
14501W        W79761  32.754  17.028  11.108
14502W        W79762   7.271   9.062  14.476
14503W        W79763  36.353  23.860   1.669
14504W        W79764  19.550   5.316  14.427
14505W        W79765  33.884  22.832   2.828
14506W        W79766   4.207   1.582   1.764
14507W        W79767  11.605  33.064   1.685
14508W        W79768  26.000  32.135  13.945
14509W        W79769  13.635  24.484   2.816
14510W        W79770  30.799   7.424   2.814
14511W        W79771   8.371  16.025   2.432
14512W        W79772   0.035  38.824   2.845
14513W        W79773   5.549  28.114  13.021
14514W        W79774  42.419  11.786   2.396
14515W        W79775  14.104  29.639  13.368
14516W        W79776   7.612  35.369  14.057
14517W        W79777  10.575   0.809   2.450
14518W        W79778   7.410  27.662  12.531
14519W        W79779   4.365  11.628  12.520
14520W        W79780  27.642  16.314  12.215
14521W        W79781  38.194  16.473  14.820
14522W        W79782  36.634   4.214  14.487
14523W        W79783  25.772  16.688  14.125
14524W        W79784   9.866  30.183   3.122
14525W        W79785  39.901  44.185  11.304
14526W        W79786  22.035   9.732   0.403
14527W        W79787   8.299  37.909  13.073
14528W        W79788  38.318  43.759  12.098
14529W        W79789  12.387  20.040  12.864
14530W        W79790  18.331   7.653   1.049
14531W        W79791   6.320   1.507   1.340
14532W        W79792   2.487  29.461   3.206
14533W        W79793   0.921  37.671   3.578
14534W        W79794  37.587  35.425  13.976
14535W        W79795  24.964   2.747   3.278
14536W        W79796  34.184  40.407  14.374
14537W        W79797  19.514  13.400   4.240
14538W        W79798  31.579   1.342   4.274
14539W        W79799  17.996  26.647  14.027
14540W        W79800  21.438  43.448   1.620
14541W        W79801  19.211   6.461   4.513
14542W        W79802  26.966  35.274  10.294
14543W        W79803  41.375  40.333   5.037
14544W        W79804   0.587  11.148   3.238
14545W        W79805  34.950   8.241  14.397
14546W        W79806  42.743  20.601  14.405
14547W        W79807  18.647  15.196   2.580
14548W        W79808   4.360   5.566  10.543
14549W        W79809   3.444   4.643  13.996
14550W        W79810  11.908  11.221  13.406
14551W        W79811  17.023  24.445  10.977
14552W        W79812  40.526  34.614  12.554
14553W        W79813  14.794  40.262  10.573
14554W        W79814  19.599  44.415  12.447
14555W        W79815  41.329  27.793   1.939
14556W        W79816  13.668  24.755  11.136
14557W        W79817   1.846  10.213   0.474
14558W        W79818  33.542  20.060   4.149
14559W        W79819  27.587  39.054  14.868
14560W        W79820  21.555  38.501   1.037
14561W        W79821  15.981  12.043   4.550
14562W        W79822   5.874  24.181  11.609
14563W        W79823  22.965   0.402  11.107
14564W        W79824  42.001  13.209   4.612
14565W        W79825  44.132   9.747  12.134
14566W        W79826   6.893  12.046   4.315
14567W        W79827  19.741  35.252  10.303
14568W        W79828  32.364  26.375   1.964
14569W        W79829  22.094  34.609   3.649
14570W        W79830   1.873  15.658  12.000
14571W        W79831  23.948  10.335  11.084
14572W        W79832  25.316  11.713   1.004
14573W        W79833  43.401  24.524  14.271
14574W        W79834  13.213  18.759  11.227
14575W        W79835  20.568  24.998  14.278
14576W        W79836  26.996  27.506  13.818
14577W        W79837  12.086  13.631  12.230
14578W        W79838  16.068  10.807   0.011
14579W        W79839  38.821  36.813   1.180
14580W        W79840  38.451  31.440   2.323
14581W        W79841  22.016  28.039  13.399
14582W        W79842  32.738  19.653   4.549
14583W        W79843   7.286   7.036   0.570
14584W        W79844  11.413  39.417  13.409
14585W        W79845  29.401  28.980  14.417
14586W        W79846  27.685   9.384   1.279
14587W        W79847  32.749   6.953  13.815
14588W        W79848   1.951   1.466   2.163
14589W        W79849   7.327  39.254  13.820
14590W        W79850  10.707   0.269  12.431
14591W        W79851  33.434  33.290   4.724
14592W        W79852  28.942   2.875  13.528
14593W        W79853   3.258  13.990   0.183
14594W        W79854  31.927   5.392   2.630
14595W        W79855  18.261  44.097   1.787
14596W        W79856  15.241  22.980   3.361
14597W        W79857   4.678  42.635   4.046
14598W        W79858  36.137  23.979   3.436
14599W        W79859  13.553  21.813   3.627
14600W        W79860  20.505  38.656   3.191
14601W        W79861  39.215  15.751  14.346
14602W        W79862  29.547  23.462   4.362
14603W        W79863  16.016  40.291   1.311
14604W        W79864  20.826  35.434  12.444
14605W        W79865  23.500  34.600   3.051
14606W        W79866  43.554  40.089  13.970
14607W        W79867  38.338  20.187   3.701
14608W        W79868  41.441   7.316   1.769
14609W        W79869  40.812   7.956  13.644
14610W        W79870  30.083  30.183  11.171
14611W        W79871   6.231  19.601   5.037
14612W        W79872  33.853   0.439  13.233
14613W        W79873  31.017  23.911  12.614
14614W        W79874  39.821  36.539   2.980
14615W        W79875  36.126   8.916   1.197
14616W        W79876  40.916   1.228  10.629
14617W        W79877  44.521  16.736   2.849
14618W        W79878  32.246   8.354  12.524
14619W        W79879  17.710  20.077  13.071
14620W        W79880  25.756  39.334   1.841
14621W        W79881  26.090  35.017  10.401
14622W        W79882  23.710  21.162   3.301
14623W        W79883  24.613  42.222  13.659
14624W        W79884  10.312  33.997   1.937
14625W        W79885  38.040   0.652  13.935
14626W        W79886  15.677  42.335  12.955
14627W        W79887  26.156   3.533   1.992
14628W        W79888  24.115  22.109   0.346
14629W        W79889  42.630   9.186  12.941
14630W        W79890  34.660  43.661  12.190
14631W        W79891  22.913   4.831  11.896
14632W        W79892   7.594  33.194  12.011
14633W        W79893   8.313  16.933   0.907
14634W        W79894   6.188  36.009   1.619
14635W        W79895  25.565   7.116   0.800
14636W        W79896   7.235  26.486   1.418
14637W        W79897   0.728  13.750  13.221
14638W        W79898   5.809  28.611   4.993
14639W        W79899  17.827  35.470  10.626
14640W        W79900   1.193  13.740  13.447
14641W        W79901   9.919   0.847   4.022
14642W        W79902   6.658  38.532  10.797
14643W        W79903  43.472  25.461   0.761
14644W        W79904  44.606   7.831   2.158
14645W        W79905  30.541  26.180  13.384
14646W        W79906  14.264  10.577  13.894
14647W        W79907  33.195  17.173  12.558
14648W        W79908  14.768   6.656   4.134
14649W        W79909  12.264  43.866   4.889
14650W        W79910  31.515   9.315   2.674
14651W        W79911  29.654  25.059  10.639
14652W        W79912  27.614  24.533   4.647
14653W        W79913  36.041  12.331  13.994
14654W        W79914   2.048  23.889  14.404
14655W        W79915   0.578  22.772  14.933
14656W        W79916   6.393  18.724  13.506
14657W        W79917   6.386  10.247   4.550
14658W        W79918   0.548  12.834  11.654
14659W        W79919  44.774   8.433  11.881
14660W        W79920  42.018  10.192   2.132
14661W        W79921  22.785  42.921   2.186
14662W        W79922  30.811   7.426  14.838
14663W        W79923  40.381   2.457  13.996
14664W        W79924  14.132  28.069   4.654
14665W        W79925  17.035  28.148  10.768
14666W        W79926  32.440  25.179   2.769
14667W        W79927   6.214  19.192   2.247
14668W        W79928   4.424  37.538  12.478
14669W        W79929  42.018   9.287   0.811
14670W        W79930   7.944  24.816   0.940
14671W        W79931   0.914  42.858  10.615
14672W        W79932  42.911  30.875  14.368
14673W        W79933  21.665   4.287   9.809
14674W        W79934   1.248   7.615  11.998
14675W        W79935  25.008  15.149   4.667
14676W        W79936  44.777   9.507  12.752
14677W        W79937  30.026  37.224   2.221
14678W        W79938  32.940  34.834   1.237
14679W        W79939  42.061   6.294   5.035
14680W        W79940  35.300  12.834   3.264
14681W        W79941  37.514  25.265  12.801
14682W        W79942   0.461  38.448  14.961
14683W        W79943   5.714  43.936   3.691
14684W        W79944  36.390  39.505  10.750
14685W        W79945  30.454   4.858   1.272
14686W        W79946  36.966  15.843  13.460
14687W        W79947  24.803  14.565   2.374
14688W        W79948  31.129  11.826  14.222
14689W        W79949  33.119  25.167   3.350
14690W        W79950  16.247   1.828  14.685
14691W        W79951  32.560  25.951  12.998
14692W        W79952  44.068  25.477  12.549
14693W        W79953  33.857  15.360  14.484
14694W        W79954  28.839  28.131  13.747
14695W        W79955   3.716   3.606   3.328
14696W        W79956  10.734  18.689  12.198
14697W        W79957   6.334  37.219  13.170
14698W        W79958  27.894  31.664   0.950
14699W        W79959  10.316  25.584   9.987
14700W        W79960  35.178  43.514  14.259
14701W        W79961   7.740   9.143   2.669
14702W        W79962  38.384  17.009  10.582
14703W        W79963  10.363  22.554   0.333
14704W        W79964  19.200  24.664   2.827
14705W        W79965  24.630  26.546   0.488
14706W        W79966   2.822  15.099  11.737
14707W        W79967  35.022  42.355  14.236
14708W        W79968  19.698  37.983   1.782
14709W        W79969  38.477  33.948   1.666
14710W        W79970  33.213  16.439  13.069
14711W        W79971  19.486  37.287   4.557
14712W        W79972  43.849  33.877   1.750
14713W        W79973  38.436   6.213   1.981
14714W        W79974   7.652  23.959  11.207
14715W        W79975  36.638  29.871   3.662
14716W        W79976  39.232   4.943  14.454
14717W        W79977  25.986  25.230   2.462
14718W        W79978  18.892   1.664   2.416
14719W        W79979  41.791  22.642   3.247
14720W        W79980  17.091  22.582   3.598
14721W        W79981   0.249  17.076   1.246
14722W        W79982  37.901  12.102   3.449
14723W        W79983  44.806  42.291   3.697
14724W        W79984  22.819   6.542   4.768
14725W        W79985  39.243  41.718   0.440
14726W        W79986  22.729  38.578   1.954
14727W        W79987  13.996  12.329  11.562
14728W        W79988  10.901   0.460  13.819
14729W        W79989  17.184   9.066   1.843
14730W        W79990   7.360  43.876  11.044
14731W        W79991  26.276   1.441   2.801
14732W        W79992  13.364  21.571  12.684
14733W        W79993  18.647  40.983  11.491
14734W        W79994  24.623  27.198  12.877
14735W        W79995   0.674  28.679   3.726
14736W        W79996  29.766  23.086   2.453
14737W        W79997  39.914  27.176   4.321
14738W        W79998  30.075   8.393   2.245
14739W        W79999   7.024  10.204   1.317
14740W        W80000   7.707  14.020   3.203
14741W        W80001  33.731  21.681   2.017
14742W        W80002  22.714  16.786   1.688
14743W        W80003   6.307  37.691   3.779
14744W        W80004  26.498  23.004  11.637
14745W        W80005   8.540  35.847  13.239
14746W        W80006  11.304   8.797  13.500
14747W        W80007  16.548  43.731   3.237
14748W        W80008   6.367  28.184   3.173
14749W        W80009  42.058  35.860  12.935
14750W        W80010  12.147  16.311  13.130
14751W        W80011  32.862  36.996  14.300
14752W        W80012  22.645  28.135  14.031
14753W        W80013  25.120  21.041  11.241
14754W        W80014  13.062  27.965   3.821
14755W        W80015  12.352  40.307  11.563
14756W        W80016   2.995  19.583  10.525
14757W        W80017  29.892  44.847  14.509
14758W        W80018  13.199  31.576  13.072
14759W        W80019  10.450  39.961   3.825
14760W        W80020  31.307  20.737   4.614
14761W        W80021  26.566  38.970  12.352
14762W        W80022  33.440   0.697   4.162
14763W        W80023   0.012  30.198   0.829
14764W        W80024  16.202  26.319  10.660
14765W        W80025  43.496  43.467  12.408
14766W        W80026   6.047  19.988  12.789
14767W        W80027  31.395  34.485   2.843
14768W        W80028  23.894  37.550   3.199
14769W        W80029  40.652  35.762   2.310
14770W        W80030  26.673  44.373  11.997
14771W        W80031  35.071  19.645  13.318
14772W        W80032  30.104  28.207   2.776
14773W        W80033   6.033  20.085   0.912
14774W        W80034   8.590   1.341   3.098
14775W        W80035  38.809  34.941  10.138
14776W        W80036  35.133   7.935   2.823
14777W        W80037  20.799  11.811   4.261
14778W        W80038  31.003  14.192  12.969
14779W        W80039  38.526  29.011   1.769
14780W        W80040  20.166  20.527   2.406
14781W        W80041  30.961  43.865  13.172
14782W        W80042   6.304  40.119  13.973
14783W        W80043  17.734  44.800   3.663
14784W        W80044  39.419  18.009   3.070
14785W        W80045  27.187  16.225   0.790
14786W        W80046  23.486  35.306   4.307
14787W        W80047   1.587  36.462  14.694
14788W        W80048  25.917  19.607   2.118
14789W        W80049  17.343  33.438   3.607
14790W        W80050  13.924   5.493  12.244
14791W        W80051   7.053  43.317   0.361
14792W        W80052  31.394  37.866   4.556
14793W        W80053  26.428  44.571   3.152
14794W        W80054  19.516  34.692   2.665
14795W        W80055  26.014  27.686   0.339
14796W        W80056  34.162   4.382  13.842
14797W        W80057  25.473  35.541   3.660
14798W        W80058   4.020   8.401  14.425
14799W        W80059   0.654   8.474   4.238
14800W        W80060  44.926  19.747   2.243
14801W        W80061   8.020  18.536   0.332
14802W        W80062  17.296  19.790  12.947
14803W        W80063  39.510  28.851   2.601
14804W        W80064  42.963   6.095  13.536
14805W        W80065   2.035  33.664   1.176
14806W        W80066   3.532  31.616   1.898
14807W        W80067  44.813  37.927  12.539
14808W        W80068  19.292   5.665   2.373
14809W        W80069  31.976  42.844  14.722
14810W        W80070  33.262   6.843  14.820
14811W        W80071   9.366  36.547  11.883
14812W        W80072   8.211  26.997   2.605
14813W        W80073   1.416   5.235   3.600
14814W        W80074   6.823   3.668  12.036
14815W        W80075  17.646  42.955   3.630
14816W        W80076  26.924  22.984  14.290
14817W        W80077  26.519   5.946   4.682
14818W        W80078  18.336  23.475  13.451
14819W        W80079  22.405  11.902  13.386
14820W        W80080  25.340  29.928   1.428
14821W        W80081   7.233   3.241   1.856
14822W        W80082  38.622  32.888   1.715
14823W        W80083  31.492  34.184   4.144
14824W        W80084  33.375  37.998   0.398
14825W        W80085  29.625  21.120  13.639
14826W        W80086  33.975  13.567  13.721
14827W        W80087  22.275  29.097   1.288
14828W        W80088   6.370  11.181   4.398
14829W        W80089  37.391  43.381   4.551
14830W        W80090  33.279   9.678   4.731
14831W        W80091  27.639  19.995  11.219
14832W        W80092   7.359  44.700  12.561
14833W        W80093  37.357  26.450   5.076
14834W        W80094  34.141  13.256  13.344
14835W        W80095  37.576  26.245  11.727
14836W        W80096  10.658  38.467  14.230
14837W        W80097  27.945  17.802   1.319
14838W        W80098  23.973   4.870  12.235
14839W        W80099  11.163  10.582   3.679
14840W        W80100  22.612   3.637   0.468
14841W        W80101   8.800  19.941   4.624
14842W        W80102  18.647  38.628   2.682
14843W        W80103   1.480   0.914   0.442
14844W        W80104   5.315  33.864   2.674
14845W        W80105  14.547   1.896  10.677
14846W        W80106  30.023  40.225  11.414
14847W        W80107   7.316  31.053   3.697
14848W        W80108  27.747   3.327   2.169
14849W        W80109  25.559   0.114   2.613
14850W        W80110  25.137  28.478   0.302
14851W        W80111  29.868  26.412   5.364
14852W        W80112  40.870  12.652  12.900
14853W        W80113  14.433  15.136   2.127
14854W        W80114   3.138   7.678   2.856
14855W        W80115  26.294  23.592   4.143
14856W        W80116  15.973   9.932   0.667
14857W        W80117  38.824   4.393   4.348
14858W        W80118   6.374  44.549  13.966
14859W        W80119  24.457  32.005  12.529
14860W        W80120  44.681   3.450   2.656
14861W        W80121  30.530   1.359   3.293
14862W        W80122  30.353   4.355   3.399
14863W        W80123   5.747  38.032  13.869
14864W        W80124  29.134  39.832  13.796
14865W        W80125  20.521  23.092  13.168
14866W        W80126   9.260  30.388   1.283
14867W        W80127  10.774  11.456   0.929
14868W        W80128  13.077  35.105  13.069
14869W        W80129  40.364   3.652  11.060
14870W        W80130  30.144  17.158   4.832
14871W        W80131  12.183  27.576  13.784
14872W        W80132   3.252  10.882   1.879
14873W        W80133  22.266  29.542  10.756
14874W        W80134  38.416  30.445  14.138
14875W        W80135  23.150   6.335   4.415
14876W        W80136   8.676  30.541  11.150
14877W        W80137   0.202  20.028  13.301
14878W        W80138   4.749  42.700  13.164
14879W        W80139  23.607  19.306   3.203
14880W        W80140   8.209  30.750  13.444
14881W        W80141  30.507   7.139  11.728
14882W        W80142   6.647  33.813   4.575
14883W        W80143  14.570   3.749   4.678
14884W        W80144   0.472  32.533   1.771
14885W        W80145  37.145  23.583  13.783
14886W        W80146  42.083   3.820  13.062
14887W        W80147  31.521  20.304   3.314
14888W        W80148  26.061  29.913  12.369
14889W        W80149   5.208   9.231  14.316
14890W        W80150  39.890  26.887  12.867
14891W        W80151  27.640   7.440   4.732
14892W        W80152  21.675  18.276   5.042
14893W        W80153  13.755  35.343   3.683
14894W        W80154  31.570  12.378  11.963
14895W        W80155  16.317  16.804   1.125
14896W        W80156   0.745  13.433   3.573
14897W        W80157   4.145   0.653   4.317
14898W        W80158  14.354   6.251  10.978
14899W        W80159  33.354  23.482  12.019
14900W        W80160  11.117  17.778   0.811
14901W        W80161  36.409  29.647   4.338
14902W        W80162  35.128   7.144   3.055
14903W        W80163   8.135  29.732  13.333
14904W        W80164   7.263  15.118   1.226
14905W        W80165  18.180  23.206   4.641
14906W        W80166   3.597   1.044   1.338
14907W        W80167  32.164  11.981  13.414
14908W        W80168  22.547  17.370  11.848
14909W        W80169  15.693   5.986   3.752
14910W        W80170   4.441  34.973   2.979
14911W        W80171  42.592  10.669   4.142
14912W        W80172  15.326  41.815   1.451
14913W        W80173  16.881  38.704  11.133
14914W        W80174  42.849   0.843  10.720
14915W        W80175   5.622  34.353   0.778
14916W        W80176   9.763  35.417  13.558
14917W        W80177  22.933  43.271   1.317
14918W        W80178   4.829   3.529  11.022
14919W        W80179  28.411  16.687  10.078
14920W        W80180  32.245  19.210   5.005
14921W        W80181  21.167  37.871  12.934
14922W        W80182  35.514   9.918   4.502
14923W        W80183  39.325  33.677  12.432
14924W        W80184  35.365  36.909  14.545
14925W        W80185  29.524  26.769   0.349
14926W        W80186  27.337  29.440   3.680
14927W        W80187  34.123  14.281  12.554
14928W        W80188  31.023  30.432   3.259
14929W        W80189  37.375  21.277  13.879
14930W        W80190  41.407  25.268   3.258
14931W        W80191  27.593  14.151   4.877
14932W        W80192  21.480   9.404   3.674
14933W        W80193  20.794  20.705   2.218
14934W        W80194  19.291   2.280  12.552
14935W        W80195  10.277   4.238   0.554
14936W        W80196   8.053  34.494   2.233
14937W        W80197  17.292  30.575  11.592
14938W        W80198  12.336   4.813  14.081
14939W        W80199  14.587  26.134  11.270
14940W        W80200  25.108  33.817  11.599
14941W        W80201  16.225  29.678  11.226
14942W        W80202  40.771  13.827  11.637
14943W        W80203  13.036  33.176  11.529
14944W        W80204  20.287   8.492   1.025
14945W        W80205  19.676  20.888  14.768
14946W        W80206   8.434  34.569   3.177
14947W        W80207   2.086  33.864  13.990
14948W        W80208  38.477  26.147  12.849
14949W        W80209   5.235  13.716  11.636
14950W        W80210  31.703  16.639   2.699
14951W        W80211  35.976  32.882  11.585
14952W        W80212  24.232   7.705   0.630
14953W        W80213  32.593  39.329   2.710
14954W        W80214  10.193  31.057   9.476
14955W        W80215  22.681  25.779  11.444
14956W        W80216  26.400  23.519   0.500
14957W        W80217  42.772  33.812  14.813
14958W        W80218  21.716  16.563  12.512
14959W        W80219  27.762   6.679   2.331
14960W        W80220  12.716  39.844  12.351
14961W        W80221  31.945  40.383   3.857
14962W        W80222  43.098  27.389   3.188
14963W        W80223   7.361  44.965   3.249
14964W        W80224  12.109  18.620   1.735
14965W        W80225  31.199   5.389  11.243
14966W        W80226  27.618  10.522  13.902
14967W        W80227  42.054   3.362   5.106
14968W        W80228  35.035   5.173  11.102
14969W        W80229  27.749  24.625   3.729
14970W        W80230   0.009  19.776  10.666
14971W        W80231  20.706   4.308   2.172
14972W        W80232   5.396  38.652   0.860
14973W        W80233  23.576   9.244  12.487
14974W        W80234   5.452  44.986   2.358
14975W        W80235  29.015  33.053   0.175
14976W        W80236  30.457  29.902  11.465
14977W        W80237  39.018  15.678   5.056
14978W        W80238  16.343  12.440  13.026
14979W        W80239  31.352   1.940  13.968
14980W        W80240  27.244  15.952   4.611
14981W        W80241  27.981  22.180   2.298
14982W        W80242  36.921  22.738   4.555
14983W        W80243  35.594  20.185   3.756
14984W        W80244  29.431   3.374   4.087
14985W        W80245  37.987  19.821  12.514
14986W        W80246  18.031  41.921   1.655
14987W        W80247   5.161  39.981  12.103
14988W        W80248  42.466   7.342   2.890
14989W        W80249  23.136  37.405   1.399
14990W        W80250  26.125  39.949   4.535
14991W        W80251   8.883  15.115  14.454
14992W        W80252  20.154  37.379   0.540
14993W        W80253  34.444  38.424  13.377
14994W        W80254  43.484   0.352  12.940
14995W        W80255  38.994  22.673  10.618
14996W        W80256  31.046  31.967  12.999
14997W        W80257   1.008   2.881   3.539
14998W        W80258  23.423  14.250  11.712
14999W        W80259  40.887  30.635   0.060
15000W        W80260  37.435  18.570  10.620
15001W        W80261   1.509  29.891   3.677
15002W        W80262  22.799  43.700  11.001
15003W        W80263  44.357  13.706   1.178
15004W        W80264   3.400  42.570   3.614
15005W        W80265  12.375  19.049   2.808
15006W        W80266  29.624  21.133  13.099
15007W        W80267  24.671  20.715   3.679
15008W        W80268  39.308  20.178   2.864
15009W        W80269   7.766  25.391   4.103
15010W        W80270  23.252  25.406  11.526
15011W        W80271  26.530  14.860   1.057
15012W        W80272  33.164  15.681  13.484
15013W        W80273  13.619  23.124  11.096
15014W        W80274  43.877  10.003  12.896
15015W        W80275   4.874  20.700  12.855
15016W        W80276  38.562  25.229   4.180
15017W        W80277  41.828   4.873  11.591
15018W        W80278   6.239  40.634  14.065
15019W        W80279  36.551  17.582  13.590
15020W        W80280   5.361  21.047   3.291
15021W        W80281  12.307  12.648   4.247
15022W        W80282  44.257  11.611   0.369
15023W        W80283   3.109  14.672  11.609
15024W        W80284  32.114   1.770  11.195
15025W        W80285  34.565  23.733   0.232
15026W        W80286  10.853   0.743   0.382
15027W        W80287  28.439  27.075   2.267
15028W        W80288  40.514  26.125   1.482
15029W        W80289  29.989  11.216  11.135
15030W        W80290  35.564  13.703   0.353
15031W        W80291  15.143  43.856   0.895
15032W        W80292   4.335  26.594   1.623
15033W        W80293  38.501   2.616  11.496
15034W        W80294  37.091  18.830  13.908
15035W        W80295  36.040  17.270  11.573
15036W        W80296  37.424  15.462  11.593
15037W        W80297  20.021  31.056  12.888
15038W        W80298   1.733  12.308   2.152
15039W        W80299   4.100  20.252   3.207
15040W        W80300  40.854  39.339   2.246
15041W        W80301   2.025  36.860   0.303
15042W        W80302  25.070   8.283   2.140
15043W        W80303  35.007  28.882  11.200
15044W        W80304  32.264  31.902  10.604
15045W        W80305   7.447  13.686   4.103
15046W        W80306  33.106  13.112   4.856
15047W        W80307  19.212   0.348   0.784
15048W        W80308  12.847  27.520   3.719
15049W        W80309  35.865  24.927   2.455
15050W        W80310  23.743   3.811   2.730
15051W        W80311   5.132  23.051   2.703
15052W        W80312   3.334  41.452  12.271
15053W        W80313  25.729  30.578  14.455
15054W        W80314  12.776  19.090   1.881
15055W        W80315  31.367  32.006  12.083
15056W        W80316  21.681   9.436  10.681
15057W        W80317  10.723  26.171   0.914
15058W        W80318  21.672  11.566   0.880
15059W        W80319   6.218  41.340   3.227
15060W        W80320  31.885   5.705   1.943
15061W        W80321   2.499  24.522   3.673
15062W        W80322  16.575   4.664   1.507
15063W        W80323  28.016  15.753  11.184
15064W        W80324   1.070   5.980  11.009
15065W        W80325  44.447  23.028   0.778
15066W        W80326  39.893   4.691   2.150
15067W        W80327  34.451  17.507  13.027
15068W        W80328  14.062  27.942   2.307
15069W        W80329  20.790  41.525   1.848
15070W        W80330  34.811  15.648   2.662
15071W        W80331  20.283   8.383  13.443
15072W        W80332  20.651  23.275   3.769
15073W        W80333  36.909   5.853  10.907
15074W        W80334  31.145   3.923   4.489
15075W        W80335  32.671   9.920   3.608
15076W        W80336  16.354  15.841   1.307
15077W        W80337  43.348  43.317  11.402
15078W        W80338   7.277  13.888   2.379
15079W        W80339   2.754   5.698  13.027
15080W        W80340  13.657  14.328  14.266
15081W        W80341  26.780  34.165  11.641
15082W        W80342  15.200  36.493   4.741
15083W        W80343  25.533   3.471   1.144
15084W        W80344  29.358  22.919  13.919
15085W        W80345  24.849   2.998   2.410
15086W        W80346  35.856   7.220   0.376
15087W        W80347  14.676  35.420   4.720
15088W        W80348   9.358   2.856   3.446
15089W        W80349  10.817   5.901  12.064
15090W        W80350  36.140   1.916   0.895
15091W        W80351   3.740  24.870  13.124
15092W        W80352  33.681  19.789  13.092
15093W        W80353  21.150  29.079  11.135
15094W        W80354  31.095  10.127  12.021
15095W        W80355  41.005  29.162   4.274
15096W        W80356  34.457   0.230  13.416
15097W        W80357  43.116  40.069   2.836
15098W        W80358  38.864   7.303  10.745
15099W        W80359  44.253  16.840   3.704
15100W        W80360  43.749  30.928  10.920
15101W        W80361  44.910  27.691  12.516
15102W        W80362  19.584  10.087   2.234
15103W        W80363  34.567  10.993  14.542
15104W        W80364  42.257  15.803  14.863
15105W        W80365   7.705  25.515   3.254
15106W        W80366  30.779  28.250   4.096
15107W        W80367  25.770  25.739  10.875
15108W        W80368   2.587  18.748   3.815
15109W        W80369  30.210  10.232   3.800
15110W        W80370  21.111  21.302  11.983
15111W        W80371  19.756  30.955  14.866
15112W        W80372  24.051  32.792   3.216
15113W        W80373  37.482  17.624   0.760
15114W        W80374  30.581  10.256  11.934
15115W        W80375  15.289  22.198  11.187
15116W        W80376  14.738  34.857  11.311
15117W        W80377  31.112   4.962   2.357
15118W        W80378  13.691   1.288   1.637
15119W        W80379   4.425   1.701  12.041
15120W        W80380  32.031  31.450   3.027
15121W        W80381  37.826  31.672   0.435
15122W        W80382  26.566   7.892  14.553
15123W        W80383  29.955   1.430  11.950
15124W        W80384  30.170  18.208  12.517
15125W        W80385   7.937  30.610   4.181
15126W        W80386   4.364  13.237   2.926
15127W        W80387  10.615  38.827   0.811
15128W        W80388  41.765   0.380  12.085
15129W        W80389   5.989  24.145   4.560
15130W        W80390  44.893   6.854  12.914
15131W        W80391   0.940  17.157   2.147
15132W        W80392  40.167  18.278  13.411
15133W        W80393  13.406  19.105   2.680
15134W        W80394  28.611  43.071   5.273
15135W        W80395  15.112  11.094   3.240
15136W        W80396  37.536  25.235   2.044
15137W        W80397  14.670  11.871  12.182
15138W        W80398  32.220   4.768  13.005
15139W        W80399   0.905  11.890  13.436
15140W        W80400  30.339  16.651   4.530
15141W        W80401  29.421  25.302  13.289
15142W        W80402  32.711   4.920   1.175
15143W        W80403  29.012  40.903   2.858
15144W        W80404   8.685  32.204  13.614
15145W        W80405  41.782  11.803  14.244
15146W        W80406  35.109   7.314   0.952
15147W        W80407  19.208  16.114  11.128
15148W        W80408   1.338  14.669   3.869
15149W        W80409   7.338  39.030  12.049
15150W        W80410   0.316   3.706   4.158
15151W        W80411  26.079   2.900  14.839
15152W        W80412   9.291  13.653   3.812
15153W        W80413  27.297  43.540  11.330
15154W        W80414  14.833   6.916   2.769
15155W        W80415  36.174   3.251   1.277
15156W        W80416  23.673  44.750   3.180
15157W        W80417  23.643  39.702   4.745
15158W        W80418  25.720   2.750  10.255
15159W        W80419  15.077   5.725   2.714
15160W        W80420  43.533  33.928   3.370
15161W        W80421  10.793   5.055   3.879
15162W        W80422  33.405  27.322   4.162
15163W        W80423  17.766  36.214   2.848
15164W        W80424   4.195  21.228  11.448
15165W        W80425  41.479  25.457  14.104
15166W        W80426   7.761   1.219  11.179
15167W        W80427   6.288  17.173  13.268
15168W        W80428  37.333  24.225   2.118
15169W        W80429   5.206  38.140  13.342
15170W        W80430  15.218  23.162  14.911
15171W        W80431   8.481  39.989  12.530
15172W        W80432  44.011  22.135  13.527
15173W        W80433  19.957  16.034  13.958
15174W        W80434  33.311  36.472   1.686
15175W        W80435  29.265  36.536   3.789
15176W        W80436   8.903  24.821   0.916
15177W        W80437  25.177  32.158   1.558
15178W        W80438  12.781  21.478   3.830
15179W        W80439  11.427  44.214  13.906
15180W        W80440  43.728  44.354   1.901
15181W        W80441   7.282  15.164   4.542
15182W        W80442  23.982  23.144   3.974
15183W        W80443   0.906   6.694   1.234
15184W        W80444   1.163  18.797   3.430
15185W        W80445  28.608  15.855  13.540
15186W        W80446  37.319  44.713  12.184
15187W        W80447  25.176  42.945   4.564
15188W        W80448  35.362   7.176   4.107
15189W        W80449  42.309  37.081  13.928
15190W        W80450  32.105  36.981  13.540
15191W        W80451  31.732   6.301   1.199
15192W        W80452   4.456   4.524   1.818
15193W        W80453   5.459  42.410   0.458
15194W        W80454   4.731  15.656  13.374
15195W        W80455   2.165   7.909   4.625
15196W        W80456   2.199  29.560   3.653
15197W        W80457  30.251  44.989   4.714
15198W        W80458  29.722  31.501  12.131
15199W        W80459  19.015  34.130  11.176
15200W        W80460  32.283  32.996   4.256
15201W        W80461  10.754  18.600   2.393
15202W        W80462   5.783   5.757   4.165
15203W        W80463  26.220  25.281  12.979
15204W        W80464  25.133  16.726  13.595
15205W        W80465   2.998  27.524  11.062
15206W        W80466  29.437  26.492  12.689
15207W        W80467  20.642   9.839   2.657
15208W        W80468  35.400  36.115  14.084
15209W        W80469  15.668  10.426   2.296
15210W        W80470  11.070  23.422  11.845
15211W        W80471  20.451  23.525  14.327
15212W        W80472  20.776  43.303  13.476
15213W        W80473  10.333   0.729   0.386
15214W        W80474  36.907   9.704  10.826
15215W        W80475  38.925   3.936   1.466
15216W        W80476  24.265   2.421   3.926
15217W        W80477   8.170  16.766  11.557
15218W        W80478  39.404  16.984   1.891
15219W        W80479  44.320  36.625  14.909
15220W        W80480   5.801   1.993  11.350
15221W        W80481  36.572  22.498   0.909
15222W        W80482  13.745  44.776   0.328
15223W        W80483  20.004  44.158  13.300
15224W        W80484  36.307  21.787   4.165
15225W        W80485  32.108  30.778  14.546
15226W        W80486  15.447  25.503   1.825
15227W        W80487  19.942  15.502  13.852
15228W        W80488   2.378  27.489  12.069
15229W        W80489  15.595  29.723   1.737
15230W        W80490  14.700   8.924   2.755
15231W        W80491  22.092   0.229   2.731
15232W        W80492  14.740  35.549   0.309
15233W        W80493  10.160  33.093   4.081
15234W        W80494  35.106  28.599   3.503
15235W        W80495  28.497  39.929   3.968
15236W        W80496  18.679  25.377  12.118
15237W        W80497   5.855   8.927   1.752
15238W        W80498  41.390   5.792  11.661
15239W        W80499  26.843  18.832   2.201
15240W        W80500   7.865  34.565  10.842
15241W        W80501  32.479  10.945  11.960
15242W        W80502  43.840   5.638  12.781
15243W        W80503  42.750  38.306   0.755
15244W        W80504  29.683  39.995   3.726
15245W        W80505  18.052  44.639  12.414
15246W        W80506  29.606  27.573   1.835
15247W        W80507  42.412  17.898   2.813
15248W        W80508   6.410   6.076   3.700
15249W        W80509  44.083  10.667  12.600
15250W        W80510  13.156  33.062  14.296
15251W        W80511  10.319  20.352   0.720
15252W        W80512  27.483  12.297   3.605
15253W        W80513  27.019  16.021   4.170
15254W        W80514   0.368  32.068   4.296
15255W        W80515   0.798  36.151  10.266
15256W        W80516  25.172  41.845   3.692
15257W        W80517  44.334  31.117   1.643
15258W        W80518   8.386   0.209  12.938
15259W        W80519  16.653   5.878  13.453
15260W        W80520  13.701  13.645   2.610
15261W        W80521  33.374  16.178  14.591
15262W        W80522  32.293   5.831   4.841
15263W        W80523  11.753  33.631   4.201
15264W        W80524  11.342  15.285   3.683
15265W        W80525  39.551  10.587  13.727
15266W        W80526  42.185   4.231   1.414
15267W        W80527   9.117  33.545   2.386
15268W        W80528   5.581  43.468  11.512
15269W        W80529  25.730  29.414  13.870
15270W        W80530  42.418  10.404   0.770
15271W        W80531  27.011  22.990   2.187
15272W        W80532  32.267  41.081  13.839
15273W        W80533  20.983  26.181   2.655
15274W        W80534  28.384  22.547  12.958
15275W        W80535  32.287  26.544   3.589
15276W        W80536  16.859  23.767  11.106
15277W        W80537  34.653  25.593   1.394
15278W        W80538  21.841  36.549   2.261
15279W        W80539  35.463  13.134  10.803
15280W        W80540  37.357   2.776  11.495
15281W        W80541  19.133   4.251   0.975
15282W        W80542   7.656   1.848   2.502
15283W        W80543  11.226   7.848  12.395
15284W        W80544  32.013  11.595   1.242
15285W        W80545  24.816  24.058   1.283
15286W        W80546  34.728  41.923  10.495
15287W        W80547  20.031  31.207  11.938
15288W        W80548  33.064   4.824   4.080
15289W        W80549  33.953   4.012   0.859
15290W        W80550  17.629  44.449   2.561
15291W        W80551   5.657  13.228   4.517
15292W        W80552   5.179   5.827   3.264
15293W        W80553  39.040  28.907   3.168
15294W        W80554  15.782   7.546   1.360
15295W        W80555  29.701  19.581  13.433
15296W        W80556  32.973  30.142  10.762
15297W        W80557   6.149  16.756   1.281
15298W        W80558   4.608  27.140  10.706
15299W        W80559  25.220  15.837  14.139
15300W        W80560  34.928   5.205  14.140
15301W        W80561  22.119  30.681   3.825
15302W        W80562  37.169   5.283   2.198
15303W        W80563  29.140  23.413   2.410
15304W        W80564  10.804  26.843  11.723
15305W        W80565  28.665  21.106   0.356
15306W        W80566  32.233  28.643  13.128
15307W        W80567   9.811  35.945   0.811
15308W        W80568   5.394  23.790  14.864
15309W        W80569  36.430   9.477  11.124
15310W        W80570  35.957   3.420  11.361
15311W        W80571   0.479   5.088   4.256
15312W        W80572  43.535  25.637   1.865
15313W        W80573   3.690  29.001  12.048
15314W        W80574   7.278   6.095   3.195
15315W        W80575  40.862  41.928  13.601
15316W        W80576   6.403  27.654  14.512
15317W        W80577   9.885  18.575   2.171
15318W        W80578  33.098  42.275  11.191
15319W        W80579   2.626  23.278  13.331
15320W        W80580   2.254  31.326  14.938
15321W        W80581  42.891  41.526  13.381
15322W        W80582  27.599  44.688  11.895
15323W        W80583  10.123  24.181  10.733
15324W        W80584  42.080  31.464  11.057
15325W        W80585  41.461  19.292  14.879
15326W        W80586  15.704  44.759  12.085
15327W        W80587  14.094  40.431   0.235
15328W        W80588  27.025  30.669  11.705
15329W        W80589  22.642  30.366  11.524
15330W        W80590  28.651  43.530  12.999
15331W        W80591  42.493  16.802  12.878
15332W        W80592  21.103  21.906   3.689
15333W        W80593  28.593  17.032   2.227
15334W        W80594  20.265  37.085   1.851
15335W        W80595  19.840   8.396   3.226
15336W        W80596  28.201  37.731  10.127
15337W        W80597   6.913  38.293  13.828
15338W        W80598  16.263  13.168   3.743
15339W        W80599  31.236  18.583  12.031
15340W        W80600  20.137   7.480  14.516
15341W        W80601  14.387   1.007  12.183
15342W        W80602  17.154  27.593  12.874
15343W        W80603  12.564  15.237   1.261
15344W        W80604  25.255   1.439   1.894
15345W        W80605  13.442   3.249  13.957
15346W        W80606  28.147  29.391  12.157
15347W        W80607  25.007  33.911  12.558
15348W        W80608  24.645  20.499  14.333
15349W        W80609  27.272  35.533   1.145
15350W        W80610  28.501  18.615   4.568
15351W        W80611  35.920  20.337  13.345
15352W        W80612  17.978  27.428  13.019
15353W        W80613  26.401   6.275   1.243
15354W        W80614  22.477  44.717  14.898
15355W        W80615  34.571  36.308  13.136
15356W        W80616   6.315  34.465   1.855
15357W        W80617   6.167   2.757   2.726
15358W        W80618  22.157   9.016  11.953
15359W        W80619   6.144   0.398  10.931
15360W        W80620  24.718  31.917   2.667
15361W        W80621   4.461  31.874   4.547
15362W        W80622   3.640  30.665  11.597
15363W        W80623  43.193   3.011   3.347
15364W        W80624  27.703  25.518   2.730
15365W        W80625  35.368  25.594   0.963
15366W        W80626  33.603   4.200   3.598
15367W        W80627  19.713   1.675   0.357
15368W        W80628  34.103   3.263  12.260
15369W        W80629  18.045  19.126   0.616
15370W        W80630  35.402  22.053  11.760
15371W        W80631   6.127  38.863  14.278
15372W        W80632  42.862  31.343  13.404
15373W        W80633  41.578  42.618   1.209
15374W        W80634  39.893  18.517  12.081
15375W        W80635  20.637  15.977   2.637
15376W        W80636  42.744  15.704  11.602
15377W        W80637  11.856  12.344  13.381
15378W        W80638  44.348  27.348  11.926
15379W        W80639  36.343   7.895   0.832
15380W        W80640   5.678  33.756  14.893
15381W        W80641  17.154  40.759   4.093
15382W        W80642  32.808  41.886  14.462
15383W        W80643  15.803  12.295  13.884
15384W        W80644   5.384  38.156   0.772
15385W        W80645  38.353  38.613  10.413
15386W        W80646  20.152  33.465  12.187
15387W        W80647  33.910  25.794   0.795
15388W        W80648   8.224  25.907  14.477
15389W        W80649  30.591  30.753   2.214
15390W        W80650  27.566  19.211   0.487
15391W        W80651  16.041   3.900  10.698
15392W        W80652  19.182   3.199   3.700
15393W        W80653  13.122   7.964  13.337
15394W        W80654  13.266  30.497   2.133
15395W        W80655  35.122  19.523  12.754
15396W        W80656  16.258  13.014  14.056
15397W        W80657  41.132  22.444   1.768
15398W        W80658  35.086  32.054  11.968
15399W        W80659  21.449  44.911   0.771
15400W        W80660  35.450   2.411   3.936
15401W        W80661   4.935  34.285  10.994
15402W        W80662  15.699  24.954   2.668
15403W        W80663  18.535   5.478  14.951
15404W        W80664  21.112  22.795   1.353
15405W        W80665  13.353   7.145   0.838
15406W        W80666  43.309  20.608   4.589
15407W        W80667   7.799  14.090  12.518
15408W        W80668  31.296   2.913  11.533
15409W        W80669  44.891  19.958  14.897
15410W        W80670   1.401  22.473  11.995
15411W        W80671  19.648  31.108   4.309
15412W        W80672  13.148  44.743   2.968
15413W        W80673  30.974  24.103   1.111
15414W        W80674  33.174  30.884   2.306
15415W        W80675  27.227  28.630  11.432
15416W        W80676  32.948  25.755   2.088
15417W        W80677  35.044  27.161   2.064
15418W        W80678   8.347   7.933   0.367
15419W        W80679  10.458   9.501  11.959
15420W        W80680  37.330   6.744  13.857
15421W        W80681  28.053  18.943  11.540
15422W        W80682  28.385   1.200   0.307
15423W        W80683  30.927  15.129   4.768
15424W        W80684   1.260  42.994  12.908
15425W        W80685  16.718  41.590  13.787
15426W        W80686  14.181   2.953   0.470
15427W        W80687  31.183   5.882   3.679
15428W        W80688  34.434  20.630   1.735
15429W        W80689   1.648   4.354  14.844
15430W        W80690   4.699  43.540   4.092
15431W        W80691  29.150  33.171   2.384
15432W        W80692  35.374   0.135  12.417
15433W        W80693  19.306  37.255   1.293
15434W        W80694  15.702  13.216   0.528
15435W        W80695  29.747  25.500   1.550
15436W        W80696  40.473  28.099  12.948
15437W        W80697  29.537  28.994  10.919
15438W        W80698  39.309  40.251  14.866
15439W        W80699  32.512  26.400  10.648
15440W        W80700  43.272  16.390   2.288
15441W        W80701  17.003  29.150   1.160
15442W        W80702  33.088  27.055  14.415
15443W        W80703  18.456  40.350   0.927
15444W        W80704  27.842  15.814  10.037
15445W        W80705  10.584  39.835   2.302
15446W        W80706  20.688  27.339   3.142
15447W        W80707   9.818  27.536  14.283
15448W        W80708  12.059   4.121   1.029
15449W        W80709  14.796  13.032   4.619
15450W        W80710  14.664  25.588  12.876
15451W        W80711  32.165   0.768  12.434
15452W        W80712  33.092  32.504  11.302
15453W        W80713  21.605  43.299  11.641
15454W        W80714  27.021  23.304   1.206
15455W        W80715   7.281  19.060   3.211
15456W        W80716  11.449  38.849  11.625
15457W        W80717  29.495  31.581  11.659
15458W        W80718  26.051  41.328  11.693
15459W        W80719  25.877  43.458   0.303
15460W        W80720  14.269  15.967  12.060
15461W        W80721   8.491  12.770  14.046
15462W        W80722  15.457  30.132   3.091
15463W        W80723  16.111   5.236   2.197
15464W        W80724  18.240  43.211  14.557
15465W        W80725  21.345  19.738  11.576
15466W        W80726  15.821  22.584  10.791
15467W        W80727  17.294  14.859   3.291
15468W        W80728   6.706  15.823  10.759
15469W        W80729  37.991  31.674   1.349
15470W        W80730  37.797  16.045  11.154
15471W        W80731  19.784  30.177  11.073
15472W        W80732  26.137  40.031  11.298
15473W        W80733   7.698  30.433  13.611
15474W        W80734  17.363  42.233  14.279
15475W        W80735  28.006  44.225  13.477
15476W        W80736   5.467  21.455  10.340
15477W        W80737  43.530   0.009   2.063
15478W        W80738  40.758  17.052  11.351
15479W        W80739  28.064  20.531  11.458
15480W        W80740  36.111   6.648  14.457
15481W        W80741  34.160  25.858   1.249
15482W        W80742   8.084  40.970   0.884
15483W        W80743   4.514  38.950   4.122
15484W        W80744  17.981  38.840   1.232
15485W        W80745  33.987  22.940   3.315
15486W        W80746  22.965  17.584  11.614
15487W        W80747  26.026  26.167  12.094
15488W        W80748   0.582  24.297  10.770
15489W        W80749  35.803   6.015  12.837
15490W        W80750  20.684  21.812  12.815
15491W        W80751  23.254  22.034  12.523
15492W        W80752  39.394  37.296   3.207
15493W        W80753  15.668  36.523   1.987
15494W        W80754  30.244  25.689  13.240
15495W        W80755  34.875  12.869  11.111
15496W        W80756  43.846  40.525  13.916
15497W        W80757  15.767  29.711  11.552
15498W        W80758  41.777  19.173  13.527
15499W        W80759  35.322  10.196  10.739
15500W        W80760  26.253  44.674   0.084
15501W        W80761  28.981  35.521  12.646
15502W        W80762   0.004  40.616  14.979
15503W        W80763  31.838  28.985  11.615
15504W        W80764  28.411  18.353  12.147
15505W        W80765  17.235   9.228  10.192
15506W        W80766   6.718  13.295   4.381
15507W        W80767  38.975  12.180  11.611
15508W        W80768  40.032  21.237   1.414
15509W        W80769  32.029  44.363   1.434
15510W        W80770   0.742  21.225  11.249
15511W        W80771  38.839  21.310   0.216
15512W        W80772  31.305  33.834   2.884
15513W        W80773  10.793  19.448   3.261
15514W        W80774  21.678  36.400  12.073
15515W        W80775  35.951  29.028   3.203
15516W        W80776  38.950  43.877  13.306
15517W        W80777   4.901  35.240  11.032
15518W        W80778  26.195  12.457   4.205
15519W        W80779   1.807   5.390   1.833
15520W        W80780  23.652  27.956   1.727
15521W        W80781  17.645   4.744   4.624
15522W        W80782  43.513   6.868  13.125
15523W        W80783   7.176  31.661  13.248
15524W        W80784  16.644  19.037   3.118
15525W        W80785  12.801   3.625   0.938
15526W        W80786  23.723  29.148  11.507
15527W        W80787  35.626  23.160  14.385
15528W        W80788   5.743  21.696   3.429
15529W        W80789   0.252  25.245   2.729
15530W        W80790   9.951  40.748   1.879
15531W        W80791   1.836  19.003   0.505
15532W        W80792  25.520  17.124  13.971
15533W        W80793   6.373  36.618  14.892
15534W        W80794  42.725   8.599  10.903
15535W        W80795  19.509  14.138   4.320
15536W        W80796  44.218  32.054   9.793
15537W        W80797  20.043   0.000   4.916
15538W        W80798   3.711  38.865   3.223
15539W        W80799  39.069  18.313   1.862
15540W        W80800  31.561  37.992  11.297
15541W        W80801  20.369  38.321   2.325
15542W        W80802  14.649  34.671  12.275
15543W        W80803  26.625  29.793   2.707
15544W        W80804   5.548  35.944  11.494
15545W        W80805  31.836  42.486  13.967
15546W        W80806  32.781  12.757  10.670
15547W        W80807  14.253  15.389  14.441
15548W        W80808  28.526  43.875   1.985
15549W        W80809  27.646  38.027  13.844
15550W        W80810   1.419   9.122   3.551
15551W        W80811   5.040  31.182   4.457
15552W        W80812   3.172  39.640   2.714
15553W        W80813  30.096  31.456   2.036
15554W        W80814  19.992   8.547   1.968
15555W        W80815   3.941   4.887  13.908
15556W        W80816  33.183  22.784  12.864
15557W        W80817  12.618  29.083   5.571
15558W        W80818  44.049  30.423   3.869
15559W        W80819   8.759  25.729  13.245
15560W        W80820   8.711  30.814  13.291
15561W        W80821  36.429  38.089   3.344
15562W        W80822  21.073  26.218  11.761
15563W        W80823   7.388  17.477  12.933
15564W        W80824   2.869  30.438   4.460
15565W        W80825   3.561   4.004   1.395
15566W        W80826  39.313  28.008   3.160
15567W        W80827  37.404   1.439  13.871
15568W        W80828  18.514  41.680   3.633
15569W        W80829  36.850   6.426   5.041
15570W        W80830  28.507  17.291   0.413
15571W        W80831  12.094   6.400  12.918
15572W        W80832  43.868   1.040   1.311
15573W        W80833  28.129  43.127  11.105
15574W        W80834  10.588  36.872  14.623
15575W        W80835  42.262  19.110   4.279
15576W        W80836  44.275  11.785  12.617
15577W        W80837   8.713  32.856  11.917
15578W        W80838  28.180   2.361  12.592
15579W        W80839  16.754  20.650  14.429
15580W        W80840  31.042  10.769  10.487
15581W        W80841  12.896  33.678   0.352
15582W        W80842   9.870  17.187  11.394
15583W        W80843   4.415  22.070   1.457
15584W        W80844   5.176   8.330   0.084
15585W        W80845  22.053  43.989   2.865
15586W        W80846   5.817   2.943  13.010
15587W        W80847  14.118   0.376   4.314
15588W        W80848  25.953  22.475  14.799
15589W        W80849  14.018  28.661   2.886
15590W        W80850  18.317  44.742  12.862
15591W        W80851  16.609  31.555  12.604
15592W        W80852  39.872  33.597   1.079
15593W        W80853  43.486   4.922  13.046
15594W        W80854  22.582  11.103  14.049
15595W        W80855   8.784   9.765   3.703
15596W        W80856  19.532  16.619  14.295
15597W        W80857  43.313  35.665   4.944
15598W        W80858   8.107  42.077   1.529
15599W        W80859   8.174  16.058  11.040
15600W        W80860  38.074  37.941  13.489
15601W        W80861  25.233  29.890   0.173
15602W        W80862  35.003  21.265  12.834
15603W        W80863  27.224   6.598   2.331
15604W        W80864  26.591  18.589  11.932
15605W        W80865  18.041   0.442  13.976
15606W        W80866  24.133   6.234  12.767
15607W        W80867  22.249  28.140   4.612
15608W        W80868  39.023  13.612  12.062
15609W        W80869   9.815  10.749  12.600
15610W        W80870  10.433  39.385  10.776
15611W        W80871  21.736   7.433   0.344
15612W        W80872   4.945  32.762   2.092
15613W        W80873  38.624   7.876   0.477
15614W        W80874  24.383  35.610   1.682
15615W        W80875  20.825  44.644  13.477
15616W        W80876   1.368  29.611   2.329
15617W        W80877  10.758  39.341   0.988
15618W        W80878  40.266   6.650  10.957
15619W        W80879  17.112  11.685   3.653
15620W        W80880  13.101  38.423   1.615
15621W        W80881   5.267  22.478  11.106
15622W        W80882  20.152  40.414  11.557
15623W        W80883   7.809  39.811  12.083
15624W        W80884  15.795  25.129   1.766
15625W        W80885  13.364  11.233   1.798
15626W        W80886  21.333  21.202   4.984
15627W        W80887  32.711   5.290  10.860
15628W        W80888  38.074  34.812  11.805
15629W        W80889  22.164  21.458   4.405
15630W        W80890  18.912  40.049   0.494
15631W        W80891  32.351   5.424  12.391
15632W        W80892  28.536  34.924  14.527
15633W        W80893  22.215  43.514   1.822
15634W        W80894  33.434  14.215  13.057
15635W        W80895   9.452   0.834  13.360
15636W        W80896   8.350  44.528   2.295
15637W        W80897  36.912  44.202  13.136
15638W        W80898   6.345   9.686   3.874
15639W        W80899  31.878  10.140   4.512
15640W        W80900  29.639  21.461   3.316
15641W        W80901  28.117  27.375  13.390
15642W        W80902   3.964   7.586   4.028
15643W        W80903  41.507  21.213   3.812
15644W        W80904  13.034  16.033  13.070
15645W        W80905  41.476  19.948   1.695
15646W        W80906  12.779   6.197  12.101
15647W        W80907  23.074  23.662  11.207
15648W        W80908  15.805  44.863   3.004
15649W        W80909  41.602  29.334   2.712
15650W        W80910  30.681  26.455  14.828
15651W        W80911  17.520  36.843  13.061
15652W        W80912  35.859  11.815  14.487
15653W        W80913   2.671   8.760  14.448
15654W        W80914  21.553  36.867  12.985
15655W        W80915  42.577   3.415  14.453
15656W        W80916  21.115  40.410   4.520
15657W        W80917  12.261  35.460   3.101
15658W        W80918  43.278  21.283  13.019
15659W        W80919  39.970  19.607   3.717
15660W        W80920  31.661  20.140  13.767
15661W        W80921   0.240  43.761   0.790
15662W        W80922  18.033  18.587   4.566
15663W        W80923  23.938  17.108   3.645
15664W        W80924  19.718  40.998   4.166
15665W        W80925   5.012  40.025  12.618
15666W        W80926   7.975   5.424  12.499
15667W        W80927   0.756  17.715  14.861
15668W        W80928  43.976  37.829   4.173
15669W        W80929  33.003  44.517   0.023
15670W        W80930  18.476  19.540   2.602
15671W        W80931  34.448  31.248   4.812
15672W        W80932  11.527  19.517  10.259
15673W        W80933  15.520  20.163  13.075
15674W        W80934  11.681   8.878  13.865
15675W        W80935  38.201   8.187   0.028
15676W        W80936  31.174  24.555   3.845
15677W        W80937   1.907  24.519   4.953
15678W        W80938  12.359   3.316   0.903
15679W        W80939  22.528  33.162   1.745
15680W        W80940   7.452   8.776   0.364
15681W        W80941  33.357  11.685  10.735
15682W        W80942   1.293  27.522   0.876
15683W        W80943  16.890  44.487   0.787
15684W        W80944   0.257  22.861  13.840
15685W        W80945  24.631  26.554   4.184
15686W        W80946  10.797  23.603   3.672
15687W        W80947  27.698  42.845  12.898
15688W        W80948  22.770   7.252   4.124
15689W        W80949  12.805   2.799   1.115
15690W        W80950  24.475  11.060  14.614
15691W        W80951  30.160  42.946  11.582
15692W        W80952   8.854  37.120   0.952
15693W        W80953  32.669  43.324   1.839
15694W        W80954  42.363  31.054   3.013
15695W        W80955  35.008   9.720  10.654
15696W        W80956  27.445  44.792  11.215
15697W        W80957  14.824  25.481  11.806
15698W        W80958  41.296  40.999  13.018
15699W        W80959   2.792  10.565  10.724
15700W        W80960   5.630  16.060  11.155
15701W        W80961  27.671  36.017  12.917
15702W        W80962  43.063  37.408   3.685
15703W        W80963  14.847  38.272   4.205
15704W        W80964   8.019   3.101   2.643
15705W        W80965  16.957  37.507   3.338
15706W        W80966   5.654   9.405   4.048
15707W        W80967  26.441  44.760  12.927
15708W        W80968  15.689  31.592   2.501
15709W        W80969  16.861   0.952  11.649
15710W        W80970   9.858   1.454  14.943
15711W        W80971   3.758   4.447   1.205
15712W        W80972   1.211  40.763   4.344
15713W        W80973   8.345  44.239   1.866
15714W        W80974  24.348  24.509  12.313
15715W        W80975  25.212  19.087  12.963
15716W        W80976  41.300  36.077   1.477
15717W        W80977  16.371  11.962  12.855
15718W        W80978  19.724  11.154  12.062
15719W        W80979   6.837  41.952  11.163
15720W        W80980  19.825   5.761  13.442
15721W        W80981  12.899  36.682   0.720
15722W        W80982  21.804   9.100  11.041
15723W        W80983  24.746  11.078  10.620
15724W        W80984  40.407   0.438  10.785
15725W        W80985  14.223  26.741   2.793
15726W        W80986  38.460   9.744   2.836
15727W        W80987  37.027  19.733   0.884
15728W        W80988  32.112  12.222  13.891
15729W        W80989  10.873   3.008  11.704
15730W        W80990  29.457  44.167   3.911
15731W        W80991  32.782   9.699  11.571
15732W        W80992  18.644  13.815   3.897
15733W        W80993   0.002  23.690   2.571
15734W        W80994  22.280  17.727  11.056
15735W        W80995  34.512  40.330   2.162
15736W        W80996  42.536  34.088  13.893
15737W        W80997  29.554  40.351   0.385
15738W        W80998  43.208  29.600   4.679
15739W        W80999  33.055  14.454  14.942
15740W        W81000  16.007   4.758  13.578
15741W        W81001  31.666  32.150   4.653
15742W        W81002  34.783  38.142  10.703
15743W        W81003  32.326  41.838   0.721
15744W        W81004  33.083   1.210  10.738
15745W        W81005  39.066  15.631   0.658
15746W        W81006   9.633  36.201   3.781
15747W        W81007  12.122  31.915  12.962
15748W        W81008  11.618  23.219  14.646
15749W        W81009   7.305  29.206   2.184
15750W        W81010   4.292  16.772  10.941
15751W        W81011   7.447  36.630   2.463
15752W        W81012  31.114  11.666   1.663
15753W        W81013  37.115   6.271  12.511
15754W        W81014  37.987   1.474   1.732
15755W        W81015  12.433  42.995  11.541
15756W        W81016  34.487  16.270  12.485
15757W        W81017  16.751  17.861   3.672
15758W        W81018  12.885   9.945   1.670
15759W        W81019  14.897  23.171  13.440
15760W        W81020  19.582  40.976   1.350
15761W        W81021  30.125  35.223   2.320
15762W        W81022   2.448  25.358  12.055
15763W        W81023   1.056  32.338  12.646
15764W        W81024  13.241  42.920  14.831
15765W        W81025  25.725  43.644  13.504
15766W        W81026  34.565  32.209   0.430
15767W        W81027  16.237  37.431   1.268
15768W        W81028  31.245  32.790   2.242
15769W        W81029  42.855  41.332   0.838
15770W        W81030   3.481  15.762  13.855
15771W        W81031  12.314  24.058  13.080
15772W        W81032  13.853   1.659   2.372
15773W        W81033  24.094  12.066  11.590
15774W        W81034   7.938  25.998   2.301
15775W        W81035   8.197  30.651  12.912
15776W        W81036   5.900  30.472   3.490
15777W        W81037  39.878  30.606   4.724
15778W        W81038  16.146  39.148  13.452
15779W        W81039  43.761  20.784   1.828
15780W        W81040  29.974  26.512   4.101
15781W        W81041  24.786  30.082   3.175
15782W        W81042  27.552  23.912  11.729
15783W        W81043  20.458   1.297   3.601
15784W        W81044  25.858  35.140  14.380
15785W        W81045  23.646  11.751  13.444
15786W        W81046  37.419   2.879   2.848
15787W        W81047  36.955   6.863   3.018
15788W        W81048  28.699  20.013   4.042
15789W        W81049   9.661  22.804   0.857
15790W        W81050  12.850  41.960   3.672
15791W        W81051   1.910  23.486   4.071
15792W        W81052  27.055  35.000   9.864
15793W        W81053  35.390  43.570   3.228
15794W        W81054  24.220   6.297  11.753
15795W        W81055   2.068  37.014   0.800
15796W        W81056  38.328  36.798   0.900
15797W        W81057  27.692   2.501  12.507
15798W        W81058  16.158  40.421   1.800
15799W        W81059  10.074  37.334   3.217
15800W        W81060  10.718  23.809   0.369
15801W        W81061  13.589  29.559  13.312
15802W        W81062  16.328  30.490   1.425
15803W        W81063  43.950  19.473   0.247
15804W        W81064  12.309  31.526  11.250
15805W        W81065  24.740  38.105  14.994
15806W        W81066  25.061  17.431  11.222
15807W        W81067  32.542  13.691   1.460
15808W        W81068  37.940  10.457   2.691
15809W        W81069  11.383   6.080   1.674
15810W        W81070  37.199  37.885   2.772
15811W        W81071  41.288   4.185   0.517
15812W        W81072  33.409  16.115  13.430
15813W        W81073  39.691  21.758  11.624
15814W        W81074   0.301  42.903   5.001
15815W        W81075   4.749  39.409  14.556
15816W        W81076  29.556  19.615  14.961
15817W        W81077  30.973  18.781  12.458
15818W        W81078  13.191  30.639  14.482
15819W        W81079  13.114  11.787  13.818
15820W        W81080  22.495   1.220  13.315
15821W        W81081  15.792  41.879   5.208
15822W        W81082   7.269  39.831  11.594
15823W        W81083  37.276  44.546  12.889
15824W        W81084   1.786  36.392   1.873
15825W        W81085  38.313  17.253   4.714
15826W        W81086  19.000  43.692   3.979
15827W        W81087  29.522  23.823  10.423
15828W        W81088  44.938  30.674  13.299
15829W        W81089  30.684  24.077   1.963
15830W        W81090  18.377   4.764  14.086
15831W        W81091  26.930  36.034   4.616
15832W        W81092  34.054  30.650  12.904
15833W        W81093  30.525   5.458  12.355
15834W        W81094  23.138  41.771   4.288
15835W        W81095   0.982  33.134   2.837
15836W        W81096  35.983  26.234  12.978
15837W        W81097   9.991  26.422   3.731
15838W        W81098  40.996  23.659   2.651
15839W        W81099  38.735  29.373  13.398
15840W        W81100  31.407  31.019   4.184
15841W        W81101   8.707   5.347  13.902
15842W        W81102  41.186  30.160  11.995
15843W        W81103  40.829  21.020   2.290
15844W        W81104  39.974  27.113   1.848
15845W        W81105  20.198  38.770  10.594
15846W        W81106  15.129   6.878  11.180
15847W        W81107  43.789  44.811   3.891
15848W        W81108  25.658  33.709   1.026
15849W        W81109   1.809  32.684  11.970
15850W        W81110  16.870   0.588   2.850
15851W        W81111  44.839  10.296   1.004
15852W        W81112  25.101  34.357  13.841
15853W        W81113  43.502  18.778  11.102
15854W        W81114   7.127   0.710  14.934
15855W        W81115  26.091  10.238  12.522
15856W        W81116  40.145  38.284  11.992
15857W        W81117  30.716   9.434   0.873
15858W        W81118  28.153  16.613   0.323
15859W        W81119  14.625  31.192  14.393
15860W        W81120  29.076  33.660   3.369
15861W        W81121  20.025  17.354   3.115
15862W        W81122  30.047   3.577   3.346
15863W        W81123  27.963  16.300   2.592
15864W        W81124  19.509  14.162   3.136
15865W        W81125  41.816   8.289   0.245
15866W        W81126  18.428  15.569  10.281
15867W        W81127  20.076  25.008  12.586
15868W        W81128   0.915   0.723  12.325
15869W        W81129  14.949  31.925   3.504
15870W        W81130  44.372  41.059   4.340
15871W        W81131   2.266  42.203   2.675
15872W        W81132  25.252  16.481   4.979
15873W        W81133  11.433  35.382   3.689
15874W        W81134  38.628  17.523   3.881
15875W        W81135  25.270   2.448  13.389
15876W        W81136  20.233  43.096   4.624
15877W        W81137  39.813  28.441   1.356
15878W        W81138  22.214  44.075  11.913
15879W        W81139   3.412  21.378  14.232
15880W        W81140  13.622  31.327  11.693
15881W        W81141  39.940   9.062  10.429
15882W        W81142   2.214   1.151  10.724
15883W        W81143  37.263  12.065   2.404
15884W        W81144  28.121  38.497  14.380
15885W        W81145  36.963   3.520   0.764
15886W        W81146  34.568  41.978  10.986
15887W        W81147  33.014  30.258  11.770
15888W        W81148  15.749  17.662  13.582
15889W        W81149  20.383  19.091  10.531
15890W        W81150  25.420  30.994  13.552
15891W        W81151  13.868  19.083   1.822
15892W        W81152  17.216  12.767  14.890
15893W        W81153  44.412   3.118   1.712
15894W        W81154  28.068   3.187   4.647
15895W        W81155   2.644  23.351   4.947
15896W        W81156  30.510  43.567  12.328
15897W        W81157  33.985   4.004  13.532
15898W        W81158  32.679  12.201  13.373
15899W        W81159  36.446  19.078  13.555
15900W        W81160  16.300  23.235   0.885
15901W        W81161  34.885  33.247  14.743
15902W        W81162  37.323  13.216   2.893
15903W        W81163  15.099  27.183   1.826
15904W        W81164  34.778  36.013   0.904
15905W        W81165   2.771   0.836  12.606
15906W        W81166  35.943  15.388   2.340
15907W        W81167  39.247   9.394   1.288
15908W        W81168  14.627  39.348   3.219
15909W        W81169   3.313  32.187  11.547
15910W        W81170  27.689  35.057   4.596
15911W        W81171  34.955   9.571   3.846
15912W        W81172   6.635  44.631   0.379
15913W        W81173  27.768  21.225  12.553
15914W        W81174  42.263  18.775   4.792
15915W        W81175  17.112   4.436  12.907
15916W        W81176  25.281  43.943  12.619
15917W        W81177  25.254  24.271   2.965
15918W        W81178  16.225  32.636   4.565
15919W        W81179  11.781   7.856   4.513
15920W        W81180  29.485   2.859   2.459
15921W        W81181   4.466  10.524  13.758
15922W        W81182   3.517  40.844   1.914
15923W        W81183  42.572  22.959   0.954
15924W        W81184   7.834  10.113   1.022
15925W        W81185  38.832  12.435  10.809
15926W        W81186   9.480  30.524   3.045
15927W        W81187  36.446  25.169   2.182
15928W        W81188  23.561   6.125  11.024
15929W        W81189  23.700  23.639  13.831
15930W        W81190  33.012   9.807   1.272
15931W        W81191  11.009  43.274   2.607
15932W        W81192  41.750  40.887   0.357
15933W        W81193  44.533   6.597   4.326
15934W        W81194  43.470  22.080   3.974
15935W        W81195   2.793   9.962   0.896
15936W        W81196  33.011  29.927  12.604
15937W        W81197  28.066  19.241   3.034
15938W        W81198  20.055  23.053   3.544
15939W        W81199   7.268  21.475   4.257
15940W        W81200   6.818  11.321  10.793
15941W        W81201   1.235  17.685  10.431
15942W        W81202  24.084  39.951   4.544
15943W        W81203   2.222  39.830  12.173
15944W        W81204  34.848  43.015   4.076
15945W        W81205  32.983   3.509  14.322
15946W        W81206  32.682  11.744   2.119
15947W        W81207  42.521  16.462  10.418
15948W        W81208  34.542   4.136  10.705
15949W        W81209  36.660  23.218   2.970
15950W        W81210  22.562   2.292   3.278
15951W        W81211  19.301  18.636   2.335
15952W        W81212  32.552  11.285   1.877
15953W        W81213  38.835  16.671   4.704
15954W        W81214   0.782  31.049  13.130
15955W        W81215  25.696  11.590  13.422
15956W        W81216   1.044  42.343  10.752
15957W        W81217  10.149  28.156   0.513
15958W        W81218  22.222  16.983   3.262
15959W        W81219  17.663  13.703   4.646
15960W        W81220  43.443   2.370  12.860
15961W        W81221  20.490   3.698   4.010
15962W        W81222  31.417  40.589  11.631
15963W        W81223  37.159  26.569   1.781
15964W        W81224  30.356  23.478   0.792
15965W        W81225  39.396  13.054   2.728
15966W        W81226  30.407   0.258   9.984
15967W        W81227  42.748  32.686  11.793
15968W        W81228  31.556  15.822  13.273
15969W        W81229   4.260  38.975   3.187
15970W        W81230  44.872  14.646   1.820
15971W        W81231  37.709  43.772  14.991
15972W        W81232  28.902  17.616   0.053
15973W        W81233  14.735  44.761   2.176
15974W        W81234  14.443  39.519  11.603
15975W        W81235   4.972   5.742   0.888
15976W        W81236  43.328  22.925  11.961
15977W        W81237  38.825  24.959   1.492
15978W        W81238   7.328   8.421  13.886
15979W        W81239  17.578  43.480   0.013
15980W        W81240  10.522   2.265  13.931
15981W        W81241  39.863  15.406   0.989
15982W        W81242  13.872  44.439   4.711
15983W        W81243   6.917  36.164   3.308
15984W        W81244   0.429  41.357   1.930
15985W        W81245  31.179  19.620   1.767
15986W        W81246  37.650  14.205   0.820
15987W        W81247   4.401  27.490   1.293
15988W        W81248  21.985  31.329  11.189
15989W        W81249  17.659  44.993  10.600
15990W        W81250  14.797  34.847  13.026
15991W        W81251  30.621  21.195  14.583
15992W        W81252  44.429  17.252   2.278
15993W        W81253   2.259   9.499   3.176
15994W        W81254   3.436  38.834  12.022
15995W        W81255  39.772   1.431  12.506
15996W        W81256   8.896  36.829   2.165
15997W        W81257  38.806  28.615   1.533
15998W        W81258  34.611  31.793  12.565
15999W        W81259  19.824  11.768   4.153
16000W        W81260  24.622   9.655   2.404
16001W        W81261   4.316  36.873  11.416
16002W        W81262  16.177   6.505  12.399
16003W        W81263  23.467  38.627  12.002
16004W        W81264  23.612  11.742  14.373
16005W        W81265   1.182  22.806   0.442
16006W        W81266  42.464  13.211  11.889
16007W        W81267  27.719   5.417   0.094
16008W        W81268  10.415  41.775  11.884
16009W        W81269  13.013  35.763  13.870
16010W        W81270  30.600  16.658   0.284
16011W        W81271  37.166  11.740   3.765
16012W        W81272   1.958  19.324   1.596
16013W        W81273  33.242   8.749   4.650
16014W        W81274  27.607  14.862  13.975
16015W        W81275   4.510  31.810  14.405
16016W        W81276   0.848  34.393   1.384
16017W        W81277  38.176  18.046   3.529
16018W        W81278  24.144  32.819  13.905
16019W        W81279  33.280  15.401  11.182
16020W        W81280  10.561   2.142   4.967
16021W        W81281  32.241  35.340   3.794
16022W        W81282  13.817  34.152   0.476
16023W        W81283  36.849  29.221  13.298
16024W        W81284  37.469  15.231   2.485
16025W        W81285   8.582   8.716   3.121
16026W        W81286   8.507  22.304  14.149
16027W        W81287  31.949  27.804   0.798
16028W        W81288  14.054   5.673  14.408
16029W        W81289  27.515  13.266   0.753
16030W        W81290  14.621  31.499   4.650
16031W        W81291   3.829  44.125  11.185
16032W        W81292  28.571  36.093   1.150
16033W        W81293  16.819  41.534   1.847
16034W        W81294   9.683  36.961  14.310
16035W        W81295  32.295   2.496  14.752
16036W        W81296  17.564   5.988   0.304
16037W        W81297   7.843  10.221   3.653
16038W        W81298  40.488  22.406   5.047
16039W        W81299  19.386  41.405  12.361
16040W        W81300  26.375  18.676  13.516
16041W        W81301  19.144   3.880  10.458
16042W        W81302  24.746   3.741   3.656
16043W        W81303  43.939  41.446  10.308
16044W        W81304  18.861  23.382  11.420
16045W        W81305  34.327  29.844  10.769
16046W        W81306  38.907  20.696  12.745
16047W        W81307  18.306   7.856  10.762
16048W        W81308  42.418   6.779   3.498
16049W        W81309  34.330  28.148   2.904
16050W        W81310   0.475  26.639   0.900
16051W        W81311  39.864  42.874  10.744
16052W        W81312  26.792   4.800  13.032
16053W        W81313  44.393  36.841  13.523
16054W        W81314   2.348  44.718  13.453
16055W        W81315   7.420   8.874  12.511
16056W        W81316  32.846  15.216   2.509
16057W        W81317   8.200  10.377   2.778
16058W        W81318  39.295  27.018  12.551
16059W        W81319  38.955  20.497   1.120
16060W        W81320  34.855  35.572   0.233
16061W        W81321   4.065  35.983  11.981
16062W        W81322   3.314   3.159   4.126
16063W        W81323  25.526  10.293   3.117
16064W        W81324  12.311  34.975   0.080
16065W        W81325  19.716  38.577  10.658
16066W        W81326  33.724  17.629  10.632
16067W        W81327  25.142  30.473   4.662
16068W        W81328  30.979  27.115  13.339
16069W        W81329  14.543  36.885  14.349
16070W        W81330  16.018   2.906  13.096
16071W        W81331  29.741  35.887   1.748
16072W        W81332  30.397  34.435   3.714
16073W        W81333  41.123  21.445  14.459
16074W        W81334  12.800  44.199  13.966
16075W        W81335  30.823  21.500   2.794
16076W        W81336  14.752   1.219   4.244
16077W        W81337  15.677   3.800   1.842
16078W        W81338  23.072  10.653   0.422
16079W        W81339   5.744  39.031   3.110
16080W        W81340  16.556   6.876   4.207
16081W        W81341  13.445   1.753  10.780
16082W        W81342   9.867  15.703   0.963
16083W        W81343  24.140   9.842   2.151
16084W        W81344  29.083  30.263  11.444
16085W        W81345   4.878   8.027   5.183
16086W        W81346   3.182  10.406  14.696
16087W        W81347  35.244   2.486   3.473
16088W        W81348  21.530  10.133  14.187
16089W        W81349  24.960  22.840  12.520
16090W        W81350   9.270  36.991   1.268
16091W        W81351   0.918  29.227   0.028
16092W        W81352  12.360  11.687  14.369
16093W        W81353  32.404   7.928   0.140
16094W        W81354  33.802   1.986  12.410
16095W        W81355   4.729   7.345  10.793
16096W        W81356  13.288  28.583  14.390
16097W        W81357  34.923  22.075   0.891
16098W        W81358  12.070   3.291   3.624
16099W        W81359  35.011  43.113   1.746
16100W        W81360  24.488  28.597  12.832
16101W        W81361   1.231  30.463   1.345
16102W        W81362  15.250  38.307   3.805
16103W        W81363  41.880   6.720   3.561
16104W        W81364   4.823   7.662   0.402
16105W        W81365   2.420  32.670  12.499
16106W        W81366  43.561   0.674  14.519
16107W        W81367   2.230  24.296  10.664
16108W        W81368  39.424   7.335  13.439
16109W        W81369  21.928  31.572  10.743
16110W        W81370  36.354  27.208   2.989
16111W        W81371   0.927  28.185  14.983
16112W        W81372  23.765  26.381   4.200
16113W        W81373  34.457   6.470   3.601
16114W        W81374   4.403   0.898   1.802
16115W        W81375  11.709  41.535   0.653
16116W        W81376   6.209  23.129   1.372
16117W        W81377  28.779  42.748   1.019
16118W        W81378  11.329   1.217  13.848
16119W        W81379   1.504   2.394   0.317
16120W        W81380  10.277  32.072  10.674
16121W        W81381  14.611  14.005   0.967
16122W        W81382  16.094  15.373  11.488
16123W        W81383  24.637  14.555  14.348
16124W        W81384  10.286   2.736   0.976
16125W        W81385   4.328  22.986   0.411
16126W        W81386  10.240  27.975  13.545
16127W        W81387  34.590  23.190  14.377
16128W        W81388  21.219   2.023   0.487
16129W        W81389   3.423  15.541   2.683
16130W        W81390  39.971  14.104  13.429
16131W        W81391   7.700  22.766  12.537
16132W        W81392  29.463  28.425  12.107
16133W        W81393   8.258  30.813  11.074
16134W        W81394   2.472  11.342   0.737
16135W        W81395  31.036   7.222  11.340
16136W        W81396  16.336   4.176   1.386
16137W        W81397   0.875  31.843   4.782
16138W        W81398  23.679  33.431   0.489
16139W        W81399  26.535   0.941   1.278
16140W        W81400  15.530   1.252  12.922
16141W        W81401   5.144   3.992   4.548
16142W        W81402  14.165  28.631   1.670
16143W        W81403  21.631  15.148  14.003
16144W        W81404  24.650   8.150   4.044
16145W        W81405  26.577  22.253   0.710
16146W        W81406  29.523   4.403   1.744
16147W        W81407   7.068  32.071   1.885
16148W        W81408  35.705  10.442  12.608
16149W        W81409  33.398  33.214   3.396
16150W        W81410  42.512   0.096  12.192
16151W        W81411  35.415   2.867   4.162
16152W        W81412  42.039  16.546  12.033
16153W        W81413   4.501  19.212  11.037
16154W        W81414  40.056  11.856   3.224
16155W        W81415  25.446  28.596   1.755
16156W        W81416   3.021   1.893   2.317
16157W        W81417  40.785  33.904   1.275
16158W        W81418  22.178  14.768  14.932
16159W        W81419  37.966  20.141   2.304
16160W        W81420  34.167  29.800   0.648
16161W        W81421   0.040  22.838  14.906
16162W        W81422   0.485  42.004   1.290
16163W        W81423  18.821  15.250  13.365
16164W        W81424  13.301   6.165  11.932
16165W        W81425  31.847  15.123   3.128
16166W        W81426  12.117  11.213   2.851
16167W        W81427   9.484  27.445   2.706
16168W        W81428  38.274   6.571  12.507
16169W        W81429  41.227  10.399  13.287
16170W        W81430  13.624  26.612   0.667
16171W        W81431  15.256   6.382  11.341
16172W        W81432  19.282  18.683  14.215
16173W        W81433  44.958   9.182  12.344
16174W        W81434  27.051  42.700   3.925
16175W        W81435  21.089   3.512   1.253
16176W        W81436   8.749  43.972  11.186
16177W        W81437  29.032   0.506  14.895
16178W        W81438  22.940   6.628  14.001
16179W        W81439  36.860  33.418   1.843
16180W        W81440  19.039  28.433   3.812
16181W        W81441  10.669  23.310   0.487
16182W        W81442  39.061  21.172   2.784
16183W        W81443  17.670   2.344   0.437
16184W        W81444  42.569  39.614  11.483
16185W        W81445  25.983  23.964  11.658
16186W        W81446  44.310  29.249   0.502
16187W        W81447  20.704   4.976   3.292
16188W        W81448  11.239  32.098   4.084
16189W        W81449  14.530  39.411  13.484
16190W        W81450  44.802  31.055   0.920
16191W        W81451  35.295   8.394   2.022
16192W        W81452  18.035   0.490  14.897
16193W        W81453  36.659  24.008   0.441
16194W        W81454   9.180   7.242  12.979
16195W        W81455  43.920  10.205   0.763
16196W        W81456  29.311  21.108   2.781
16197W        W81457  29.591  10.304   2.755
16198W        W81458  34.561  25.620  12.978
16199W        W81459  31.385   9.877   0.442
16200W        W81460  38.731  17.611  13.426
16201W        W81461  27.177   2.728  10.967
16202W        W81462  28.205   5.869  10.745
16203W        W81463  35.884   4.448  13.016
16204W        W81464   1.928  37.511   0.720
16205W        W81465   1.190  28.955  10.234
16206W        W81466  41.518  42.422   3.196
16207W        W81467   0.207  24.849  10.143
16208W        W81468  35.379   3.702  14.033
16209W        W81469   3.428  38.298  12.026
16210W        W81470  14.025   1.302  12.354
16211W        W81471  41.337  11.737  14.516
16212W        W81472   2.490  34.697   0.282
16213W        W81473  25.724  15.316  11.046
16214W        W81474   2.240  26.601  11.655
16215W        W81475  26.450  29.088   1.105
16216W        W81476  30.673  34.830   4.205
16217W        W81477  33.622  10.588  11.579
16218W        W81478  44.362  25.560  10.876
16219W        W81479  28.125  34.024   4.633
16220W        W81480  36.040  31.573   1.351
16221W        W81481   8.159  15.726   2.828
16222W        W81482  28.651  38.536  13.124
16223W        W81483  24.428  30.444   3.281
16224W        W81484  21.766  24.725  12.907
16225W        W81485  32.997   6.962   0.843
16226W        W81486  16.684  43.774  12.071
16227W        W81487   5.467  35.058  11.980
16228W        W81488  16.305  42.735   4.939
16229W        W81489  30.323   8.945   1.768
16230W        W81490  40.756  43.059   4.728
16231W        W81491   9.829  22.379  10.748
16232W        W81492  41.226   5.232   2.313
16233W        W81493  15.181   3.985   3.212
16234W        W81494  18.647  43.544   2.886
16235W        W81495  41.549  29.799  12.388
16236W        W81496  36.451  30.577  11.016
16237W        W81497  10.257  29.583   0.193
16238W        W81498  14.855   2.062   3.839
16239W        W81499  11.253   1.078   1.275
16240W        W81500  10.494  37.178  10.204
16241W        W81501  43.939  10.803  11.730
16242W        W81502  41.792  39.309   4.286
16243W        W81503  22.708  22.739  12.139
16244W        W81504   3.312  34.359  14.853
16245W        W81505  23.635  24.207   4.130
16246W        W81506  33.146  21.796   2.660
16247W        W81507   5.324   2.553   1.725
16248W        W81508  40.120  40.463   1.673
16249W        W81509  15.677  33.131   4.198
16250W        W81510  38.122  20.556   0.446
16251W        W81511  13.869   5.828  13.928
16252W        W81512   5.750  28.623  11.648
16253W        W81513  44.286   5.105   1.762
16254W        W81514  30.455  15.313   2.345
16255W        W81515  15.541  20.740   3.685
16256W        W81516   7.387  28.276  13.950
16257W        W81517  12.695   1.715   2.390
16258W        W81518  22.746   3.829   3.102
16259W        W81519  25.959  42.880   1.713
16260W        W81520  10.884  34.344  13.081
16261W        W81521  33.691  10.611   2.844
16262W        W81522   3.853  40.643  14.055
16263W        W81523  42.486  23.438   2.248
16264W        W81524  37.165  41.722  12.790
16265W        W81525  11.120  16.758   4.565
16266W        W81526  19.833  44.732  10.253
16267W        W81527  43.021  15.771   4.434
16268W        W81528  24.895  42.070  10.504
16269W        W81529  39.023  21.802   4.114
16270W        W81530  42.058   6.806  14.510
16271W        W81531  35.482  42.610  14.290
16272W        W81532  43.771   9.137  10.269
16273W        W81533  37.801  12.604   4.832
16274W        W81534  28.127  39.715  12.918
16275W        W81535  39.013  39.744   2.712
16276W        W81536  39.268  31.032  13.064
16277W        W81537  20.328  25.328  11.096
16278W        W81538  28.262  38.029   0.854
16279W        W81539  25.550  40.346  12.821
16280W        W81540  36.390   9.817  12.645
16281W        W81541  43.986  25.771  12.142
16282W        W81542  25.126  21.050  10.346
16283W        W81543  21.455  27.106   0.483
16284W        W81544  16.433  34.841  12.373
16285W        W81545  24.132  40.559  14.011
16286W        W81546  19.607  38.800  11.114
16287W        W81547  19.626  13.218   3.227
16288W        W81548  17.077   6.297   5.121
16289W        W81549  30.110   2.904  12.954
16290W        W81550  13.590   3.824   0.574
16291W        W81551  32.098  18.776  12.467
16292W        W81552  16.142   9.464   3.438
16293W        W81553   0.825   3.764  14.913
16294W        W81554  11.383  22.972   1.270
16295W        W81555  44.468  30.572  12.516
16296W        W81556  11.268  11.612   0.742
16297W        W81557  42.024  42.119  13.599
16298W        W81558  30.084   8.416  12.104
16299W        W81559  11.213   6.562  14.316
16300W        W81560  41.679  19.013  12.125
16301W        W81561   5.259  11.680  10.784
16302W        W81562  38.385   1.203   1.564
16303W        W81563  32.065  24.200   5.555
16304W        W81564  22.604  22.433  13.843
16305W        W81565  34.301   7.860  14.900
16306W        W81566  43.791   6.124  12.664
16307W        W81567   6.362  41.208  12.541
16308W        W81568   9.077  10.258  13.233
16309W        W81569  10.904  26.639  14.391
16310W        W81570  32.503   7.792  13.275
16311W        W81571  22.755  23.542   4.533
16312W        W81572   6.192   7.030   4.189
16313W        W81573   0.454  30.274  11.997
16314W        W81574   4.333  36.379   2.903
16315W        W81575  26.509   1.738   1.707
16316W        W81576   5.931  40.310  14.360
16317W        W81577   1.345  25.062   1.872
16318W        W81578  17.289  31.496  10.380
16319W        W81579   9.094  17.848   3.569
16320W        W81580  28.630  19.308   2.117
16321W        W81581  22.045  20.758  10.091
16322W        W81582  33.335  39.625  11.640
16323W        W81583  32.320  15.391   2.602
16324W        W81584   3.671  35.516  14.789
16325W        W81585  22.211  34.932  12.851
16326W        W81586  35.366  11.916   3.648
16327W        W81587  32.988  28.225  13.086
16328W        W81588  23.632  40.377  11.557
16329W        W81589  28.000  31.574  11.460
16330W        W81590  32.708  39.055  14.731
16331W        W81591   9.266  30.633  14.237
16332W        W81592  35.485  41.829   1.881
16333W        W81593  39.864   8.964   1.780
16334W        W81594  23.890  35.415  14.444
16335W        W81595  34.054  21.072  14.062
16336W        W81596  21.507  23.073   0.159
16337W        W81597  36.864   8.157   0.407
16338W        W81598  34.591  44.764  13.598
16339W        W81599  10.226   3.000   0.092
16340W        W81600  43.898  16.645   4.448
16341W        W81601  39.174  28.901  11.127
16342W        W81602  32.510   5.765  10.732
16343W        W81603  35.796  43.826   0.752
16344W        W81604  38.855  27.893   4.471
16345W        W81605  10.183  13.964   2.893
16346W        W81606  32.058  18.129  14.677
16347W        W81607  36.742  21.123   2.299
16348W        W81608  15.392  34.297  10.811
16349W        W81609  21.766  42.020   4.065
16350W        W81610  32.571  25.538   2.393
16351W        W81611   1.980  16.243  11.439
16352W        W81612  35.572  37.037  12.105
16353W        W81613  29.635   2.967  12.161
16354W        W81614  16.539  24.664  12.011
16355W        W81615  20.608   8.681   2.644
16356W        W81616  37.419  10.842  14.318
16357W        W81617  41.854   4.245  12.784
16358W        W81618  31.699  22.533   3.646
16359W        W81619   0.018  27.986  12.928
16360W        W81620  18.078  41.738   4.750
16361W        W81621  36.641  19.733   2.382
16362W        W81622  17.539  38.524   3.320
16363W        W81623   2.193   9.294  11.281
16364W        W81624  41.500  32.775  10.722
16365W        W81625  12.210  35.160   1.263
16366W        W81626   3.402  21.130   3.779
16367W        W81627   2.171  33.460   4.960
16368W        W81628  24.618  22.700   0.452
16369W        W81629  36.887  34.405   0.509
16370W        W81630   3.004  40.875   0.999
16371W        W81631  10.555  19.815   1.444
16372W        W81632  33.872  21.191   1.302
16373W        W81633  16.909  13.698   3.510
16374W        W81634  39.314  15.600   2.160
16375W        W81635  37.228  38.576   3.914
16376W        W81636  39.180  31.586   1.679
16377W        W81637  43.058  39.486   4.927
16378W        W81638  25.078   2.845   0.045
16379W        W81639  19.666  23.460   2.661
16380W        W81640  26.623  35.163  13.936
16381W        W81641  31.625  38.994  11.524
16382W        W81642  37.115  31.934   3.115
16383W        W81643   4.005  44.370  12.908
16384W        W81644  35.904  40.470   2.378
16385W        W81645   0.404  25.215   0.842
16386W        W81646   3.782  21.111   1.467
16387W        W81647   0.446  21.443  11.945
16388W        W81648  34.506  11.350   3.642
16389W        W81649  24.614   0.765   3.942
16390W        W81650  28.660  20.984  11.142
16391W        W81651   9.502  22.242  13.937
16392W        W81652  21.359  41.018  13.872
16393W        W81653  27.702  19.649   0.225
16394W        W81654  33.395  27.340   0.328
16395W        W81655  10.494  16.277   2.267
16396W        W81656  38.770   9.608   0.626
16397W        W81657  39.784  38.470  14.500
16398W        W81658  18.489  44.981   3.243
16399W        W81659  13.404  25.943   2.914
16400W        W81660  12.571  12.833  14.921
16401W        W81661  22.806  39.983   4.236
16402W        W81662  21.125  21.959  11.764
16403W        W81663  14.787  12.266  14.874
16404W        W81664   9.158  40.054  13.043
16405W        W81665   5.913  22.603   3.920
16406W        W81666  44.803  22.699  10.864
16407W        W81667   2.868   4.774  12.974
16408W        W81668  33.089  34.481  13.915
16409W        W81669   6.445  17.188   1.388
16410W        W81670  38.042  35.262   4.458
16411W        W81671  22.018  35.007   4.571
16412W        W81672   8.150  22.564  12.404
16413W        W81673  15.626  37.579   4.615
16414W        W81674   9.943  18.194   3.856
16415W        W81675  10.113  36.818   3.307
16416W        W81676  21.287  43.166   0.307
16417W        W81677  42.235  18.345   3.887
16418W        W81678  10.306  13.251   0.439
16419W        W81679  28.770  18.778  14.333
16420W        W81680  41.147  16.855   1.614
16421W        W81681   2.209  29.165   1.220
16422W        W81682  16.594  21.669   3.638
16423W        W81683   3.692  30.518   4.226
16424W        W81684  15.161  30.566  11.623
16425W        W81685  35.015  38.070  13.416
16426W        W81686  24.775  17.650  11.614
16427W        W81687  20.082  28.037  14.743
16428W        W81688  36.492  16.034  11.445
16429W        W81689  42.493  42.285   3.117
16430W        W81690  30.408  44.953   0.904
16431W        W81691   2.892  36.096  13.731
16432W        W81692   3.265  41.296  13.875
16433W        W81693  21.236   0.331   1.693
16434W        W81694  11.193   1.675   3.685
16435W        W81695  19.175  38.544   0.845
16436W        W81696   8.170   2.332  14.675
16437W        W81697  35.647   2.822  13.031
16438W        W81698   8.465  17.771  11.519
16439W        W81699  23.770   4.633   1.303
16440W        W81700   1.037  36.106  11.457
16441W        W81701  24.738  31.875   1.639
16442W        W81702  28.951   1.073  12.732
16443W        W81703  24.896  23.576   0.838
16444W        W81704  25.761   6.643  10.751
16445W        W81705  32.730  17.057  12.384
16446W        W81706  39.474  18.487  14.077
16447W        W81707  43.324  35.946   4.514
16448W        W81708  39.096   2.518  10.747
16449W        W81709  34.283  44.767  11.754
16450W        W81710  36.069  13.671  14.436
16451W        W81711  18.227  23.221   2.867
16452W        W81712   3.657  12.661  10.990
16453W        W81713  33.584  32.572  11.170
16454W        W81714  34.582   9.287   3.609
16455W        W81715  29.123  17.847   4.387
16456W        W81716  34.156  15.441   4.142
16457W        W81717  17.597  21.881   0.426
16458W        W81718   0.842  15.460  12.542
16459W        W81719   1.293  11.091   5.390
16460W        W81720   1.910  17.592   2.681
16461W        W81721  42.842   9.098  10.984
16462W        W81722  19.862  10.699   4.179
16463W        W81723  41.606  29.618  14.660
16464W        W81724  33.678  43.873  14.197
16465W        W81725  37.102  11.131  13.069
16466W        W81726  26.216  36.417  13.801
16467W        W81727   2.689  20.648   3.355
16468W        W81728  19.054  40.570   2.188
16469W        W81729   5.184  14.012   1.712
16470W        W81730   4.643  41.797  13.286
16471W        W81731  29.676  16.698  14.052
16472W        W81732   4.004  23.044   4.540
16473W        W81733  27.046   4.011   3.731
16474W        W81734   1.078  41.053  14.884
16475W        W81735   6.427  11.964   4.133
16476W        W81736  22.874  17.590  13.086
16477W        W81737  31.447  37.197   0.279
16478W        W81738   8.346  19.068  11.532
16479W        W81739   8.896   3.241  12.200
16480W        W81740  20.077  34.412   3.360
16481W        W81741   4.895  41.303   4.098
16482W        W81742   6.327  39.060  11.693
16483W        W81743   9.692  25.216   1.726
16484W        W81744   1.796   9.572  12.432
16485W        W81745   5.935  43.907  10.759
16486W        W81746   8.288  41.395  13.021
16487W        W81747  38.473  43.483  12.499
16488W        W81748  42.417  41.059  10.773
16489W        W81749  24.627  28.711  14.495
16490W        W81750  32.997  21.566   4.763
16491W        W81751  14.031  26.420  13.463
16492W        W81752  36.401  28.716   4.474
16493W        W81753  19.617  42.937  14.319
16494W        W81754  11.069  21.091   1.351
16495W        W81755  34.265  40.303  11.416
16496W        W81756  21.466  17.579  12.513
16497W        W81757  21.780  31.701  11.463
16498W        W81758  18.324   3.534  13.592
16499W        W81759  16.382  24.415   3.795
16500W        W81760   2.386  18.147   2.392
16501W        W81761  10.340  30.024  14.913
16502W        W81762  21.235   8.115  13.166
16503W        W81763   0.152   3.001  13.989
16504W        W81764  33.216  19.733   4.384
16505W        W81765  39.428   3.954   1.291
16506W        W81766   2.164  12.620  13.864
16507W        W81767  28.027  29.256  10.733
16508W        W81768  24.204   6.965   4.096
16509W        W81769  31.050  14.894   1.784
16510W        W81770  20.434  31.638  12.085
16511W        W81771   0.395   1.977  12.951
16512W        W81772  12.004  14.777   2.737
16513W        W81773   7.832  39.240  13.607
16514W        W81774  17.484   4.297  11.450
16515W        W81775  18.049  25.111   1.446
16516W        W81776  26.396  34.498   0.959
16517W        W81777   7.701   8.267   0.429
16518W        W81778  28.228  29.199  13.967
16519W        W81779  41.050   1.426   2.805
16520W        W81780  16.503  27.707  13.783
16521W        W81781  33.501  24.897   4.656
16522W        W81782   8.531  22.651   1.895
16523W        W81783  15.498   9.738  10.292
16524W        W81784  38.135  18.307   0.741
16525W        W81785  32.941  16.200  12.390
16526W        W81786  15.987  34.242  11.578
16527W        W81787  21.513  14.659   3.476
16528W        W81788  30.185  29.860  13.947
16529W        W81789  40.503  13.838   2.232
16530W        W81790  39.274  37.777   0.830
16531W        W81791  13.346   6.715   1.728
16532W        W81792   4.516  41.572   0.640
16533W        W81793  27.983   8.180  12.751
16534W        W81794  23.834   1.338   1.825
16535W        W81795  22.919  18.216  14.353
16536W        W81796   7.315  36.177  14.435
16537W        W81797  27.473  41.188  11.134
16538W        W81798  23.686  13.526  12.894
16539W        W81799  34.269  36.884   1.701
16540W        W81800  28.182  13.007  12.330
16541W        W81801  44.060  40.996   1.383
16542W        W81802  24.935   6.994  12.420
16543W        W81803  29.788  20.524   1.079
16544W        W81804   9.316   3.718   1.129
16545W        W81805   3.736   0.616  14.925
16546W        W81806  34.798   2.367  14.979
16547W        W81807  20.564  31.946  13.066
16548W        W81808  44.663  25.431   5.751
16549W        W81809  39.520   4.768   2.766
16550W        W81810  14.805  35.344  12.925
16551W        W81811  20.457  20.248   1.280
16552W        W81812   9.304  19.007  13.524
16553W        W81813  38.021  31.067  11.693
16554W        W81814  40.526   6.934   3.709
16555W        W81815  33.907   8.701   3.164
16556W        W81816  19.081  41.089   1.244
16557W        W81817  34.833  26.603  12.992
16558W        W81818   5.702   9.187   3.217
16559W        W81819  14.664  19.519   0.295
16560W        W81820  18.534  15.260  10.708
16561W        W81821  26.157  23.938  13.571
16562W        W81822   7.754  36.258   1.213
16563W        W81823  35.515  15.607   0.328
16564W        W81824  35.979  15.086   1.462
16565W        W81825   3.361   6.320   2.326
16566W        W81826  24.167  30.702  13.894
16567W        W81827  24.250  11.249   2.196
16568W        W81828   5.135  29.607  14.459
16569W        W81829  18.152   4.495   3.041
16570W        W81830  34.959  14.216   4.614
16571W        W81831   8.694  30.397   2.852
16572W        W81832  28.471  15.533  11.007
16573W        W81833  19.177  10.406  10.683
16574W        W81834  40.122  29.693   4.801
16575W        W81835  21.011  10.814   3.645
16576W        W81836  14.111  28.513  13.324
16577W        W81837   6.335  17.132   4.833
16578W        W81838  36.747  29.407  10.406
16579W        W81839  21.014  38.055   4.586
16580W        W81840  24.129   9.283   0.668
16581W        W81841  19.682  40.469   4.383
16582W        W81842   7.236  30.280  13.407
16583W        W81843  19.262   1.752  11.719
16584W        W81844  41.581   0.408   4.041
16585W        W81845  12.623  33.800   4.021
16586W        W81846  35.176  44.944   3.169
16587W        W81847  24.957  18.227  14.366
16588W        W81848   1.884  33.955  14.859
16589W        W81849   0.569  10.927   4.712
16590W        W81850  25.082  33.173   2.488
16591W        W81851  22.080  21.755  13.805
16592W        W81852  39.262  25.605   2.696
16593W        W81853  35.303   2.472   0.883
16594W        W81854  20.302  26.670  11.711
16595W        W81855   5.669  43.942  12.645
16596W        W81856   0.152   9.104  11.077
16597W        W81857  37.786   9.476   4.486
16598W        W81858  14.186   4.581   1.404
16599W        W81859  37.286   1.890   3.561
16600W        W81860  39.684   8.638   0.980
16601W        W81861  24.007  21.773   3.293
16602W        W81862  14.408   9.749   2.913
16603W        W81863  13.423  21.153   2.756
16604W        W81864  30.050  39.044   4.144
16605W        W81865   2.730   3.005   2.516
16606W        W81866  18.788   4.624   2.850
16607W        W81867  33.498  22.776   0.786
16608W        W81868  31.306  36.324   0.650
16609W        W81869  35.703  43.476  12.949
16610W        W81870  16.141   9.476   0.975
16611W        W81871  31.200  30.582  11.312
16612W        W81872  43.703  18.802   4.556
16613W        W81873  19.041  36.575   4.526
16614W        W81874  21.296  42.278   3.314
16615W        W81875  41.992  37.359   4.668
16616W        W81876  27.865  31.189   1.787
16617W        W81877  40.506   7.110  12.144
16618W        W81878   5.324   3.084   0.239
16619W        W81879  26.490  38.411  12.473
16620W        W81880   9.250   8.966   4.694
16621W        W81881   8.326  36.881   2.865
16622W        W81882  14.680  34.490   4.397
16623W        W81883  43.246  15.687  11.599
16624W        W81884  38.822  44.958   1.715
16625W        W81885  21.261  15.573  11.167
16626W        W81886  32.385  30.493  12.387
16627W        W81887  42.535  10.747  13.641
16628W        W81888  44.665  29.710  14.463
16629W        W81889  21.734  28.636   1.678
16630W        W81890  36.596   8.596   0.382
16631W        W81891  42.796   3.824   2.734
16632W        W81892  20.354  43.468   3.279
16633W        W81893  20.894  28.133   0.824
16634W        W81894  31.756  23.531   9.595
16635W        W81895  14.787  28.622  11.705
16636W        W81896   5.933  17.308   4.024
16637W        W81897  38.437  28.562   3.937
16638W        W81898  21.841   1.376  12.213
16639W        W81899  10.190  24.353  13.091
16640W        W81900  10.600  20.760  10.372
16641W        W81901   5.839  29.062   3.237
16642W        W81902  32.978  29.089   3.291
16643W        W81903  26.568   9.435   2.783
16644W        W81904  31.628   7.155   3.140
16645W        W81905   6.747  15.764  12.562
16646W        W81906  17.190  14.545   4.583
16647W        W81907  10.136  20.247   3.417
16648W        W81908  37.895  14.255   4.640
16649W        W81909  31.091  17.662  13.453
16650W        W81910   7.006  43.381   2.769
16651W        W81911  13.479  33.930   2.196
16652W        W81912  37.905  31.573  12.031
16653W        W81913  20.147  17.679   3.518
16654W        W81914   0.310   7.147  12.067
16655W        W81915  38.305  42.199  10.617
16656W        W81916  31.996  21.202   3.546
16657W        W81917  18.095  40.332   4.723
16658W        W81918   1.922  35.882   4.402
16659W        W81919  29.003  21.545  13.178
16660W        W81920  33.091  22.177   3.461
16661W        W81921  12.905   1.849  14.876
16662W        W81922   6.437  36.074   0.739
16663W        W81923  33.092  30.863  12.780
16664W        W81924  24.942  40.498  11.863
16665W        W81925  11.367  27.758   3.398
16666W        W81926  19.308  35.207   4.339
16667W        W81927  28.440   5.600  12.946
16668W        W81928  43.760   5.013   1.777
16669W        W81929  26.703  25.892   1.441
16670W        W81930  26.500  32.528  11.861
16671W        W81931  39.953  35.769   1.874
16672W        W81932  11.347  12.764   3.819
16673W        W81933  31.651  29.601   1.524
16674W        W81934  21.073  28.599   1.000
16675W        W81935  15.103  21.157   4.887
16676W        W81936  34.108  12.599   4.694
16677W        W81937  17.299  11.237   3.451
16678W        W81938  33.467   5.835   4.186
16679W        W81939  14.127  14.143   0.001
16680W        W81940   5.041   4.117   4.043
16681W        W81941  40.894   7.130   1.718
16682W        W81942   4.835  31.494  12.990
16683W        W81943  26.997  33.074   4.373
16684W        W81944   0.744  27.567   0.820
16685W        W81945  40.017   7.858  14.995
16686W        W81946  18.003   4.740   0.355
16687W        W81947  12.126  22.768  11.272
16688W        W81948  30.247  12.664  10.748
16689W        W81949  11.845  36.497   4.400
16690W        W81950  15.807  16.149  13.755
16691W        W81951  32.519  19.689   5.013
16692W        W81952   7.295  37.538   2.384
16693W        W81953  43.398  13.976   4.740
16694W        W81954  31.942  15.504   3.465
16695W        W81955   0.361  18.222  13.421
16696W        W81956   9.437  25.039   3.596
16697W        W81957   8.073   8.342  12.404
16698W        W81958  27.308  19.647  13.399
16699W        W81959  11.477  26.962   2.689
16700W        W81960   9.383  38.707   1.347
16701W        W81961  26.614   8.966  12.086
16702W        W81962   3.328  11.620   0.666
16703W        W81963  17.586  35.956  12.487
16704W        W81964  25.196  39.479   1.195
16705W        W81965  36.894   9.896   0.584
16706W        W81966  43.341  37.659   3.357
16707W        W81967  42.372   4.471  11.035
16708W        W81968  24.744  17.218   2.323
16709W        W81969  19.618  32.140  13.030
16710W        W81970  25.189  20.520  14.401
16711W        W81971   9.140  14.316  14.509
16712W        W81972  16.749  30.349   2.334
16713W        W81973  43.374  41.015  12.312
16714W        W81974  16.689  32.158  11.986
16715W        W81975  14.696   3.305   3.979
16716W        W81976   0.618   1.237   2.006
16717W        W81977  33.656  34.901  10.930
16718W        W81978  12.505  35.673  13.815
16719W        W81979  22.278  32.928   4.485
16720W        W81980  14.895  20.364   0.907
16721W        W81981   9.836  35.005  12.743
16722W        W81982   4.897  23.174  11.070
16723W        W81983  29.505  16.652  10.707
16724W        W81984  10.934  20.036   2.418
16725W        W81985  26.255  13.325  11.085
16726W        W81986  38.485  12.035  13.482
16727W        W81987  27.110  40.570  12.940
16728W        W81988  39.187  10.853   2.655
16729W        W81989  16.529  23.970   2.371
16730W        W81990  24.287   0.612   0.440
16731W        W81991   8.579  43.181  11.593
16732W        W81992  41.335  15.174  10.283
16733W        W81993  15.860  24.080   0.011
16734W        W81994  42.533   0.928   0.331
16735W        W81995  13.070  31.953  11.107
16736W        W81996  28.988   1.530  11.103
16737W        W81997  13.848  39.643  12.350
16738W        W81998  24.793  28.261   2.813
16739W        W81999  22.943   9.402   1.459
16740W        W82000   5.766   2.893   2.394
16741W        W82001  27.465  33.293  14.227
16742W        W82002  27.967  38.614  11.296
16743W        W82003  25.501  16.024  10.052
16744W        W82004  11.884  40.092  11.967
16745W        W82005  27.704  36.565   2.023
16746W        W82006  34.892   3.966   4.433
16747W        W82007  17.449   8.742   4.033
16748W        W82008  41.437  34.408  11.746
16749W        W82009  10.439  31.128   1.028
16750W        W82010  32.994  11.621  12.085
16751W        W82011  20.032  19.144   2.300
16752W        W82012  42.382  13.362  10.551
16753W        W82013  38.923  29.428  14.277
16754W        W82014  43.513  42.853   2.443
16755W        W82015  13.161  43.098  13.830
16756W        W82016  40.537   9.696   4.495
16757W        W82017  41.346  44.838  12.814
16758W        W82018  39.792  40.441   0.693
16759W        W82019  26.672  35.845   0.403
16760W        W82020   3.730  30.159  14.598
16761W        W82021  30.677  42.788  11.944
16762W        W82022  28.917  43.907   3.832
16763W        W82023  34.613  35.733   2.369
16764W        W82024  43.229   7.720  12.822
16765W        W82025   8.163  34.477   0.715
16766W        W82026  38.787  10.467   4.281
16767W        W82027   6.372  19.483   4.139
16768W        W82028  36.471  20.400  13.979
16769W        W82029  23.077  28.613  12.898
16770W        W82030  16.483  29.486  13.859
16771W        W82031  23.618  33.842  11.141
16772W        W82032   4.760  13.561   1.297
16773W        W82033  25.624  27.943   2.125
16774W        W82034  12.394  38.042  14.473
16775W        W82035  11.950  44.808   4.156
16776W        W82036  35.687  37.303  14.459
16777W        W82037  12.427  26.109   1.733
16778W        W82038  25.276  29.537   5.412
16779W        W82039  20.433  17.598  11.105
16780W        W82040  38.397  34.879   1.367
16781W        W82041  41.765   4.727   2.647
16782W        W82042   4.803  16.713  11.673
16783W        W82043   2.678  18.811  13.412
16784W        W82044  29.447  15.647   2.333
16785W        W82045   5.846  26.310   5.088
16786W        W82046   3.742   2.822  13.136
16787W        W82047  43.454  17.640  14.056
16788W        W82048  36.552  16.790  11.024
16789W        W82049  36.664  43.059  11.993
16790W        W82050  39.956  28.732  11.173
16791W        W82051  27.365  17.742  14.993
16792W        W82052  18.418   7.719   2.754
16793W        W82053  14.550  30.663  10.686
16794W        W82054  33.657  17.086  12.340
16795W        W82055   2.310  35.890  14.796
16796W        W82056  24.054  22.264   3.410
16797W        W82057   7.939  23.801   0.917
16798W        W82058  40.226  25.468   2.870
16799W        W82059  34.132  35.096   1.973
16800W        W82060  20.124  37.910   1.432
16801W        W82061  39.961  29.105   0.808
16802W        W82062  25.573  30.556   5.045
16803W        W82063  21.235  18.850  14.245
16804W        W82064  32.642  35.792   0.295
16805W        W82065   1.090  41.901  12.081
16806W        W82066  37.890  33.979  10.684
16807W        W82067  12.959  19.333   0.506
16808W        W82068  44.833  28.863   3.526
16809W        W82069  40.053  24.551  12.475
16810W        W82070  38.370  11.080  14.655
16811W        W82071  35.106  26.675   4.083
16812W        W82072   7.221  37.896  14.975
16813W        W82073  43.467   8.784  12.457
16814W        W82074  35.127  13.165   1.637
16815W        W82075  24.250  17.137   9.567
16816W        W82076  12.167  40.807  11.085
16817W        W82077  16.653  40.482  12.418
16818W        W82078  14.529   5.415  14.326
16819W        W82079  11.617   8.402  10.671
16820W        W82080  31.072  19.501  11.992
16821W        W82081   8.759  14.059  13.365
16822W        W82082  35.513  22.020  14.440
16823W        W82083   4.262   0.874   3.806
16824W        W82084  22.447   0.450  14.552
16825W        W82085  19.771  23.989  11.109
16826W        W82086  17.551  37.963   1.464
16827W        W82087  18.529   5.414  12.499
16828W        W82088  35.645   5.519   3.227
16829W        W82089  27.446  34.867  13.841
16830W        W82090  42.064  19.268   3.815
16831W        W82091  34.510  33.623   0.744
16832W        W82092  24.090  28.552   3.399
16833W        W82093  29.991  23.080   3.057
16834W        W82094   8.085  14.961   1.792
16835W        W82095  38.135  15.680   0.903
16836W        W82096  23.464  13.643  13.373
16837W        W82097  33.565  24.209   3.163
16838W        W82098   7.445  31.483  11.008
16839W        W82099  28.272  23.737  11.537
16840W        W82100  29.270  39.704   5.002
16841W        W82101  11.675   3.932  14.877
16842W        W82102  42.716  32.246  10.003
16843W        W82103  23.603  20.972   1.290
16844W        W82104  21.017  35.466   9.934
16845W        W82105  22.595  40.975  13.512
16846W        W82106  27.989  35.120   3.256
16847W        W82107  23.635  41.396  14.247
16848W        W82108  17.980   6.992  13.320
16849W        W82109   5.859  26.434   1.346
16850W        W82110  41.464   8.613  11.993
16851W        W82111  17.156   6.325   0.130
16852W        W82112  17.051  31.153   3.180
16853W        W82113  20.245  18.205  12.243
16854W        W82114  13.791  10.563   2.766
16855W        W82115  29.107  30.635  12.848
16856W        W82116  29.590  28.355   2.971
16857W        W82117  14.557  38.059  13.735
16858W        W82118  13.713  18.052  11.532
16859W        W82119   8.375  20.741   0.799
16860W        W82120  25.706  44.356  13.825
16861W        W82121  14.357   8.105  14.952
16862W        W82122   1.492  37.931  11.935
16863W        W82123  39.022  30.832  13.488
16864W        W82124  12.072   8.863   3.119
16865W        W82125  38.534  19.556  11.648
16866W        W82126  34.848  26.250   0.783
16867W        W82127  22.726  25.653  12.823
16868W        W82128  41.728  40.330  14.792
16869W        W82129   5.964   2.414  10.342
16870W        W82130  28.156  28.381  14.517
16871W        W82131  24.145  32.062  14.577
16872W        W82132  39.819  28.468  11.592
16873W        W82133   6.139  40.543   2.873
16874W        W82134  16.620   5.749  11.434
16875W        W82135   5.122   0.694   1.262
16876W        W82136  44.923  18.548   3.632
16877W        W82137  17.056  17.967  13.444
16878W        W82138  23.609  44.298  12.190
16879W        W82139  24.020  32.651  13.430
16880W        W82140  11.299  39.262   0.262
16881W        W82141  10.884   7.917   3.164
16882W        W82142  22.899  40.557  11.985
16883W        W82143  30.907  10.124   1.738
16884W        W82144  28.904  29.591  10.871
16885W        W82145  38.092  10.019   0.311
16886W        W82146  36.173  14.388  11.875
16887W        W82147  17.217  26.240  10.760
16888W        W82148   0.454   9.148  12.146
16889W        W82149  39.407  37.633   3.594
16890W        W82150  11.594  22.626   4.131
16891W        W82151  39.257  19.300  14.490
16892W        W82152  43.800   1.254  13.128
16893W        W82153  42.880  38.801  12.394
16894W        W82154  28.434  22.205   2.572
16895W        W82155  11.589  35.379   2.190
16896W        W82156  31.046  38.483   2.831
16897W        W82157  26.288   2.794  12.132
16898W        W82158   6.859   4.235  12.111
16899W        W82159   2.529  37.484   1.939
16900W        W82160  23.749  34.106  11.558
16901W        W82161  31.650   7.187   0.736
16902W        W82162  22.068  32.534   1.818
16903W        W82163  24.946   9.257   2.602
16904W        W82164  13.332  23.672   2.701
16905W        W82165  39.226   0.749   2.650
16906W        W82166  35.522  22.363   4.177
16907W        W82167   2.557  16.148   2.717
16908W        W82168   3.215  16.522  11.094
16909W        W82169  30.694  12.512   2.887
16910W        W82170  15.673   5.027   1.231
16911W        W82171  35.363   4.844  14.302
16912W        W82172  42.985  19.034  13.944
16913W        W82173   5.845  26.531  11.657
16914W        W82174  18.346  30.026  12.467
16915W        W82175  15.623  36.328   4.472
16916W        W82176  29.964   9.430   1.339
16917W        W82177  32.601  41.961   4.602
16918W        W82178  17.838  32.291   4.211
16919W        W82179  27.397   0.063   3.642
16920W        W82180   1.019   9.164  13.478
16921W        W82181  37.431   2.973  12.980
16922W        W82182  37.372   3.303  11.540
16923W        W82183  20.913  34.878  11.132
16924W        W82184  37.888  37.754  11.622
16925W        W82185  33.906  11.796  11.255
16926W        W82186   1.177   5.244  11.673
16927W        W82187  41.302  37.037   3.306
16928W        W82188  33.957  13.567   1.688
16929W        W82189  27.535  43.918   0.559
16930W        W82190  44.364   4.204  11.756
16931W        W82191  26.135  40.022  11.977
16932W        W82192  22.032  43.022   1.850
16933W        W82193   6.272   2.641  12.062
16934W        W82194   4.808   9.779   1.512
16935W        W82195  38.506  20.414   3.272
16936W        W82196  44.228  26.581  14.417
16937W        W82197  26.469  31.061   4.892
16938W        W82198  11.722  42.478   4.548
16939W        W82199  35.639  20.192   4.329
16940W        W82200  19.038   6.423  12.104
16941W        W82201  12.317  24.207  14.038
16942W        W82202  15.123  27.158   4.680
16943W        W82203  12.632  20.595   1.736
16944W        W82204  42.710  29.162   0.315
16945W        W82205  23.963   8.349   3.689
16946W        W82206  32.743  25.379  12.474
16947W        W82207   5.367  24.254  11.544
16948W        W82208  15.557   7.280   0.319
16949W        W82209  27.099   8.210   9.679
16950W        W82210  29.483  36.759  13.789
16951W        W82211   7.414   7.662  11.036
16952W        W82212  33.410  39.133  14.232
16953W        W82213  10.799   8.640   2.214
16954W        W82214  29.110   4.256   0.638
16955W        W82215  33.532  27.639   2.714
16956W        W82216  39.895  16.929   1.312
16957W        W82217  22.507  13.859  11.825
16958W        W82218   6.894  10.861  13.489
16959W        W82219   5.301  28.254   0.416
16960W        W82220  38.873  21.102   4.598
16961W        W82221  43.474  22.620   3.356
16962W        W82222  29.263  33.954   0.792
16963W        W82223   3.658   2.329  12.640
16964W        W82224  24.733  14.419  12.974
16965W        W82225  13.425  44.963  13.774
16966W        W82226  37.343  22.429  11.647
16967W        W82227  31.815  36.454  12.595
16968W        W82228   4.333   0.338  13.109
16969W        W82229   5.338  12.116   1.010
16970W        W82230  17.427  21.141  10.841
16971W        W82231   2.324  38.351   4.535
16972W        W82232  29.949   4.786   1.282
16973W        W82233  40.745  13.131  13.067
16974W        W82234  16.429  14.290  11.313
16975W        W82235  10.501   6.897  12.518
16976W        W82236  30.031  23.523   0.415
16977W        W82237  17.801  34.012   0.872
16978W        W82238  41.502  19.116   0.969
16979W        W82239  31.637  28.733   1.207
16980W        W82240  14.589  25.438   0.792
16981W        W82241   3.725  33.369   1.293
16982W        W82242  10.815  22.950   4.662
16983W        W82243   4.854  16.518   3.765
16984W        W82244  35.947  44.214   1.970
16985W        W82245   5.936  22.894  11.714
16986W        W82246   0.562  44.690  13.464
16987W        W82247  12.158  31.462   3.369
16988W        W82248   2.317  11.883   4.966
16989W        W82249   4.875  43.018  10.899
16990W        W82250  32.815  18.034   0.332
16991W        W82251  14.095  20.458   3.706
16992W        W82252   6.166  13.400   3.241
16993W        W82253  10.269  35.982   1.802
16994W        W82254   4.895   4.313  10.340
16995W        W82255   1.391  12.806  11.625
16996W        W82256  41.030  37.304   2.617
16997W        W82257  11.096   8.752   3.106
16998W        W82258  25.531  32.712  11.135
16999W        W82259   5.364  27.167   3.215
17000W        W82260  40.849  37.787   2.809
17001W        W82261   6.275  18.782  11.672
17002W        W82262  33.476  41.092  11.360
17003W        W82263  27.682  12.279  10.977
17004W        W82264   0.315  44.691   1.182
17005W        W82265  22.480  21.594   0.891
17006W        W82266  28.517   6.340   1.693
17007W        W82267   1.411  13.031   2.374
17008W        W82268  41.977  42.661  11.630
17009W        W82269  44.813  29.384   0.467
17010W        W82270  27.684  23.730   1.765
17011W        W82271  29.555  24.267   0.817
17012W        W82272  43.098  42.277  10.656
17013W        W82273   2.005  17.078  13.502
17014W        W82274  26.217  36.631   4.024
17015W        W82275  24.075  17.797  12.602
17016W        W82276  11.878  25.988  12.634
17017W        W82277   0.295   4.796  11.792
17018W        W82278  16.022  38.987   2.423
17019W        W82279  15.765   5.353  13.001
17020W        W82280  30.753  33.832   3.153
17021W        W82281  16.080   0.923   2.380
17022W        W82282  11.050   9.595  13.220
17023W        W82283  43.965  44.442  14.356
17024W        W82284  18.573   1.329   4.950
17025W        W82285   6.884  32.929   0.415
17026W        W82286  14.083  13.234   0.001
17027W        W82287   0.265  35.403   3.744
17028W        W82288   9.860  31.905   0.840
17029W        W82289  36.921   4.220  12.918
17030W        W82290  35.812  30.135   2.292
17031W        W82291  14.190  12.598  13.749
17032W        W82292  43.881  31.817   4.265
17033W        W82293   3.841  29.757  12.948
17034W        W82294  35.579  11.037   0.220
17035W        W82295  39.989  29.799   0.863
17036W        W82296   1.681  25.813  14.041
17037W        W82297   0.818  34.998  14.930
17038W        W82298   4.398  35.040  13.053
17039W        W82299  32.340  41.638  12.054
17040W        W82300  37.477  12.758   1.903
17041W        W82301   7.715  43.130  14.691
17042W        W82302  36.425  15.702  12.240
17043W        W82303   0.794  14.789   3.312
17044W        W82304   7.079  37.005  10.701
17045W        W82305   8.109   3.762  13.941
17046W        W82306   4.029  39.831   3.041
17047W        W82307  28.391  39.126  11.915
17048W        W82308   1.311  16.642   0.287
17049W        W82309  12.861  23.501  11.173
17050W        W82310  36.447   5.765   4.566
17051W        W82311  25.146  40.078   4.348
17052W        W82312   3.692  18.679   3.669
17053W        W82313  36.949   5.863  10.383
17054W        W82314  15.490  36.129   2.355
17055W        W82315   9.278  18.910   4.318
17056W        W82316  19.874  21.465   4.100
17057W        W82317  44.070  39.534   1.689
17058W        W82318  20.668  41.377   0.443
17059W        W82319  15.652  17.302   4.409
17060W        W82320   1.258  43.417  13.949
17061W        W82321  24.620  26.984   3.299
17062W        W82322  12.245  20.288   2.186
17063W        W82323  32.961  19.625   0.676
17064W        W82324  27.988  10.593   4.214
17065W        W82325  11.861  12.705   4.520
17066W        W82326   3.902   4.244   1.705
17067W        W82327  23.931  42.073  14.514
17068W        W82328  42.366  26.259   4.856
17069W        W82329   0.066  27.528   2.710
17070W        W82330  16.693  38.712   1.265
17071W        W82331  39.833  24.038  11.186
17072W        W82332  31.180  34.071  13.099
17073W        W82333   1.353  26.150  13.802
17074W        W82334  17.223  22.242  11.914
17075W        W82335  13.835  30.487  12.264
17076W        W82336  18.800  34.510   0.307
17077W        W82337  42.367   5.297  13.823
17078W        W82338  40.770  37.320  12.962
17079W        W82339  21.375  15.954   2.261
17080W        W82340  19.259  24.536  10.600
17081W        W82341   2.334  38.127   3.226
17082W        W82342  20.367  24.984  13.018
17083W        W82343   1.773  24.638   0.777
17084W        W82344   7.617   3.838  14.050
17085W        W82345  32.623  19.678  13.386
17086W        W82346  33.583  27.682  11.674
17087W        W82347   8.889   0.962   3.276
17088W        W82348  38.372  33.627  14.506
17089W        W82349  23.029  14.201   1.217
17090W        W82350   9.707  21.185  10.654
17091W        W82351  11.162   9.245  12.427
17092W        W82352  24.682   1.187   3.690
17093W        W82353  34.115  20.030  10.822
17094W        W82354  44.052   4.514  14.330
17095W        W82355   4.807  24.611  14.483
17096W        W82356  28.259  30.830  11.557
17097W        W82357  33.515   5.208  12.089
17098W        W82358  16.180   5.314   4.194
17099W        W82359   9.109   9.878   1.309
17100W        W82360   0.276  33.027   1.739
17101W        W82361  34.425  42.728  11.549
17102W        W82362   3.638  34.915  11.376
17103W        W82363  16.797  33.680   0.534
17104W        W82364   2.753   2.882  13.009
17105W        W82365  41.287  29.603   4.198
17106W        W82366  24.713  38.291   4.095
17107W        W82367  39.357  41.506   4.698
17108W        W82368  28.473  26.765   1.704
17109W        W82369   7.864  17.057  11.081
17110W        W82370   1.836   1.330  11.480
17111W        W82371  15.137  40.654  12.617
17112W        W82372   1.947  32.514  13.775
17113W        W82373   0.870  15.039  14.954
17114W        W82374  35.929  29.086  11.243
17115W        W82375   2.966  37.284  12.489
17116W        W82376  39.572  14.688  12.495
17117W        W82377   4.748  37.008   0.983
17118W        W82378  18.807   1.496  11.766
17119W        W82379  29.430  22.018  11.636
17120W        W82380  39.300   1.952  14.886
17121W        W82381   1.980  15.577   2.710
17122W        W82382  24.116  13.304  11.113
17123W        W82383  21.358  32.179  10.151
17124W        W82384   7.760  35.915  11.614
17125W        W82385  25.499  19.927  13.387
17126W        W82386  37.079  22.032   0.297
17127W        W82387  14.538  43.985   1.636
17128W        W82388   6.970  31.739   1.446
17129W        W82389   6.314  21.163   3.359
17130W        W82390  37.893  31.653   3.398
17131W        W82391  16.888  12.174  12.013
17132W        W82392  14.182  11.954  14.383
17133W        W82393   4.587  33.596  12.208
17134W        W82394  20.591  23.267   0.022
17135W        W82395  41.788  13.369  14.996
17136W        W82396  20.605  20.529   2.719
17137W        W82397  12.722  38.109   3.080
17138W        W82398  44.531  18.297   2.817
17139W        W82399  12.737  24.945   4.551
17140W        W82400  27.376   4.334   2.923
17141W        W82401  21.641  42.277  13.416
17142W        W82402   6.259  39.088  10.373
17143W        W82403  44.129   7.306  11.352
17144W        W82404  35.510  16.365   1.278
17145W        W82405  44.402  41.233  11.159
17146W        W82406  38.341   9.931   3.821
17147W        W82407  29.439  16.076  11.484
17148W        W82408  15.316  35.873  10.792
17149W        W82409  28.754  24.189  12.054
17150W        W82410   6.109  41.237  12.098
17151W        W82411  39.312  16.625  13.802
17152W        W82412   3.780   6.556  12.793
17153W        W82413   6.256  16.313  13.988
17154W        W82414   3.753  21.456   1.996
17155W        W82415  34.521  20.581   3.822
17156W        W82416   2.947  13.184  13.935
17157W        W82417  22.497   4.312  14.990
17158W        W82418  37.194  36.915  13.110
17159W        W82419   3.167  43.818   4.404
17160W        W82420  14.943  33.248   2.768
17161W        W82421   4.459  43.071   4.212
17162W        W82422  43.813  39.374  11.284
17163W        W82423  37.988   2.233   0.948
17164W        W82424  33.823   6.450  11.978
17165W        W82425  26.950  35.796   5.073
17166W        W82426  32.822  43.900   4.022
17167W        W82427  44.104  40.040   0.972
17168W        W82428  13.302   4.258  14.972
17169W        W82429  16.177  10.319  10.138
17170W        W82430  40.744  24.110   2.672
17171W        W82431  32.729  24.155  10.382
17172W        W82432  40.345   2.843  14.338
17173W        W82433   8.513   2.965   1.856
17174W        W82434  36.028   3.146  14.822
17175W        W82435  31.361   6.340   0.641
17176W        W82436  42.862  16.845  12.358
17177W        W82437  21.323  17.810   3.690
17178W        W82438  40.267   0.996   4.512
17179W        W82439  44.519  17.766   1.414
17180W        W82440  29.888  26.059   3.237
17181W        W82441  37.418  19.115   3.326
17182W        W82442   0.780  11.735   0.626
17183W        W82443  44.307  40.961   3.419
17184W        W82444  16.442  37.664   3.285
17185W        W82445  27.267   8.027  14.798
17186W        W82446  11.870  41.844   0.279
17187W        W82447   1.156  17.647   2.083
17188W        W82448  18.110  34.017   2.478
17189W        W82449  25.790  25.410  14.265
17190W        W82450  13.848  20.179  13.180
17191W        W82451  37.478  24.720  13.413
17192W        W82452  19.043  25.736  12.145
17193W        W82453   2.558  40.786  13.004
17194W        W82454   0.834   6.753   4.567
17195W        W82455  41.558  22.363  12.068
17196W        W82456   9.402  40.436   0.827
17197W        W82457   3.911   3.301   4.571
17198W        W82458   9.331  26.285   4.100
17199W        W82459  44.390  16.193  14.381
17200W        W82460   6.381  30.857  11.582
17201W        W82461  18.687  33.165   3.853
17202W        W82462  29.930   3.481  12.149
17203W        W82463  17.702  42.726  11.555
17204W        W82464  38.121   0.194   3.213
17205W        W82465  16.897   4.368  13.394
17206W        W82466   4.209  23.823  12.555
17207W        W82467  43.623  42.246  10.641
17208W        W82468  31.199  32.669  11.140
17209W        W82469   4.112  34.918   3.746
17210W        W82470   5.631  39.844  14.353
17211W        W82471   9.407  36.187  14.923
17212W        W82472  11.724  21.753   0.824
17213W        W82473  23.978  43.068  11.725
17214W        W82474  28.223   5.398   0.178
17215W        W82475  37.370  35.818   0.927
17216W        W82476  16.271  10.138  10.614
17217W        W82477  24.619  27.936   4.555
17218W        W82478  36.551  25.420  10.847
17219W        W82479  13.297   0.357   3.510
17220W        W82480  11.187  20.107  14.906
17221W        W82481  29.054  37.120  14.135
17222W        W82482  26.744  43.310  11.384
17223W        W82483  33.576  11.886   0.930
17224W        W82484  41.489   3.897   4.614
17225W        W82485  30.135   4.966   2.258
17226W        W82486  12.974  19.125  10.949
17227W        W82487  44.527  37.432  14.344
17228W        W82488  32.577   4.623   1.558
17229W        W82489  20.758  15.391  13.866
17230W        W82490  27.674  25.399  11.615
17231W        W82491  20.293   7.190  13.815
17232W        W82492  12.540  19.267   2.341
17233W        W82493   2.554  39.883   1.926
17234W        W82494  14.978  20.935  10.697
17235W        W82495  33.850   0.866   1.481
17236W        W82496   6.872  36.250   1.304
17237W        W82497  10.257   0.494   3.019
17238W        W82498  34.260  30.088  13.901
17239W        W82499   0.107  26.998   0.889
17240W        W82500  24.680  42.439  13.003
17241W        W82501   8.291  34.100  13.958
17242W        W82502  29.154  12.788  14.204
17243W        W82503  26.647  43.925   3.378
17244W        W82504  13.038  23.215   1.014
17245W        W82505  30.541   2.710   1.149
17246W        W82506  35.319  13.131  12.661
17247W        W82507  18.451  14.375  11.775
17248W        W82508  18.189  20.681  11.716
17249W        W82509   4.187   2.397  13.501
17250W        W82510  17.372  21.599   2.209
17251W        W82511   8.888  26.783  12.437
17252W        W82512  13.211  10.832   3.861
17253W        W82513   5.338  20.554   0.846
17254W        W82514  30.972  19.657   2.238
17255W        W82515  13.197   3.921  12.790
17256W        W82516  12.367  44.333  11.227
17257W        W82517  30.715  28.345  12.974
17258W        W82518  23.526   8.965   2.329
17259W        W82519   1.940  35.676   1.527
17260W        W82520   0.748  35.357  14.437
17261W        W82521  41.506   1.726  13.455
17262W        W82522   1.903  25.985   3.207
17263W        W82523  22.658  17.672  10.217
17264W        W82524  30.909  12.186   0.738
17265W        W82525   9.806  31.892   2.350
17266W        W82526  11.301  44.266   2.652
17267W        W82527   2.327  16.947  11.159
17268W        W82528  26.214   9.502   1.260
17269W        W82529  25.719  15.678   1.837
17270W        W82530  25.974  22.417  13.230
17271W        W82531  38.406  15.167   3.338
17272W        W82532   9.690  28.892  13.709
17273W        W82533  36.609  23.685   2.693
17274W        W82534   0.374   3.258   3.241
17275W        W82535  38.132  42.743  12.967
17276W        W82536  40.392  14.119   1.802
17277W        W82537   7.262  39.276   0.785
17278W        W82538  24.004  24.054   2.590
17279W        W82539  33.549   1.386   4.806
17280W        W82540  12.144  25.011   0.896
17281W        W82541   3.362  18.297   3.840
17282W        W82542   3.939  19.985   0.716
17283W        W82543   6.639  17.269  13.968
17284W        W82544  14.841  37.339  10.759
17285W        W82545  36.445  41.441  14.444
17286W        W82546  24.686  30.985   2.179
17287W        W82547  38.079  15.628   4.155
17288W        W82548  33.184   3.015  11.050
17289W        W82549  36.351  17.194  14.533
17290W        W82550  39.730   3.839  14.328
17291W        W82551  40.399  43.582  12.593
17292W        W82552  37.589   5.369   4.800
17293W        W82553  22.196  23.321  13.984
17294W        W82554  44.542  30.101   4.242
17295W        W82555  31.991  28.994  12.393
17296W        W82556  36.565  40.289  13.124
17297W        W82557  25.143   1.314   4.949
17298W        W82558  19.245  26.073  13.985
17299W        W82559  30.688  10.104  12.863
17300W        W82560  25.693  20.073   2.106
17301W        W82561  11.246  39.967  12.577
17302W        W82562   7.816  39.148   3.762
17303W        W82563  15.225  36.025   0.993
17304W        W82564   5.860   9.957   1.781
17305W        W82565  42.499  18.791  10.730
17306W        W82566  38.276  16.145  10.990
17307W        W82567  11.721  30.883  10.624
17308W        W82568   5.403  11.811   2.613
17309W        W82569  24.003   7.847  13.763
17310W        W82570  15.128  26.581   4.158
17311W        W82571  39.061  12.847  10.579
17312W        W82572  36.352  28.930  11.557
17313W        W82573   3.967   9.845  10.995
17314W        W82574  26.611  17.012  13.146
17315W        W82575  39.003  20.838   0.215
17316W        W82576   6.477  21.570  14.377
17317W        W82577  35.432  29.145   0.228
17318W        W82578  20.470  23.626   4.215
17319W        W82579  25.968  19.408   0.513
17320W        W82580  27.687  14.248  11.598
17321W        W82581  13.252  12.378   0.038
17322W        W82582  39.369  30.360  13.885
17323W        W82583  36.076  22.323   3.321
17324W        W82584  13.536  28.399  11.135
17325W        W82585   5.369   9.891   2.698
17326W        W82586  37.600   6.473  12.524
17327W        W82587  37.074  11.129   3.328
17328W        W82588  24.925  41.386  11.113
17329W        W82589  42.593  43.485  13.576
17330W        W82590  16.613  13.974  12.419
17331W        W82591  25.266  24.647   5.040
17332W        W82592  11.183   3.287  13.236
17333W        W82593  26.887  18.764   3.105
17334W        W82594  37.743   0.115  13.036
17335W        W82595  20.269  36.773   5.008
17336W        W82596  10.954  37.502  13.056
17337W        W82597  42.838  42.821   4.906
17338W        W82598  28.122   4.290  13.315
17339W        W82599  44.778  29.566  12.392
17340W        W82600  12.977   1.339   3.796
17341W        W82601  38.781  26.369   1.200
17342W        W82602  24.648   8.258   1.069
17343W        W82603  17.009  17.853  13.946
17344W        W82604   6.988  40.861   4.329
17345W        W82605  42.035  13.810  13.891
17346W        W82606  23.042  28.249   0.125
17347W        W82607  17.852   6.066  11.203
17348W        W82608  20.434  21.214   1.170
17349W        W82609  11.742  24.933   3.984
17350W        W82610  24.949  41.335   4.825
17351W        W82611  37.701   8.892  10.097
17352W        W82612  33.958  19.214   4.892
17353W        W82613  32.901  14.125   0.905
17354W        W82614  32.680  23.820  14.819
17355W        W82615  33.940  17.046  11.494
17356W        W82616  38.651  19.079   3.236
17357W        W82617  35.152  18.796  14.769
17358W        W82618  23.809  42.389  14.011
17359W        W82619  38.105   6.536  14.299
17360W        W82620  27.110  14.718  14.042
17361W        W82621  14.634  37.904   4.559
17362W        W82622  10.764  40.389  10.736
17363W        W82623  11.262   4.230   0.376
17364W        W82624  43.988  20.229  14.428
17365W        W82625  14.320  11.072  11.168
17366W        W82626  37.981   9.216   3.527
17367W        W82627   4.333  17.611  12.628
17368W        W82628  44.036  28.613   3.663
17369W        W82629  22.218  14.146   0.661
17370W        W82630  34.410  17.528   0.364
17371W        W82631  28.692  37.180  11.901
17372W        W82632   5.002   7.332  11.215
17373W        W82633  43.351   2.794   0.310
17374W        W82634  13.269  32.002   3.998
17375W        W82635  24.289  34.543   2.960
17376W        W82636  15.241   8.986  12.548
17377W        W82637  35.580  20.488   2.265
17378W        W82638  10.294  28.890  13.539
17379W        W82639  21.046  37.134   5.062
17380W        W82640   8.463  15.934   1.925
17381W        W82641  43.464   7.866  11.511
17382W        W82642  16.666  12.946   3.996
17383W        W82643  25.703  41.451   0.793
17384W        W82644  39.206  37.398  14.934
17385W        W82645   0.475   2.997  12.003
17386W        W82646  24.647  40.526   1.866
17387W        W82647   2.718  34.190   0.936
17388W        W82648  40.318  39.539  11.684
17389W        W82649   6.426   7.767   0.509
17390W        W82650  10.900  18.116  10.728
17391W        W82651   8.804  17.283   3.901
17392W        W82652  26.990  33.923   1.309
17393W        W82653   6.756  27.254   0.912
17394W        W82654  33.027  14.588  11.578
17395W        W82655  33.593  41.486  11.663
17396W        W82656  34.668   7.518  11.209
17397W        W82657  11.820  44.407   4.461
17398W        W82658  10.043   3.276  10.719
17399W        W82659  38.649  26.937  14.272
17400W        W82660  19.640  41.517  11.421
17401W        W82661  44.250  43.226   1.340
17402W        W82662  13.099  44.819   4.883
17403W        W82663  36.407  22.188  13.993
17404W        W82664  23.716  23.012   0.518
17405W        W82665  14.500  28.801  13.562
17406W        W82666  19.738   3.759   4.682
17407W        W82667  10.823  20.187   4.202
17408W        W82668  39.325  36.865   1.874
17409W        W82669  39.305  15.190  14.807
17410W        W82670   7.564  36.974   3.516
17411W        W82671  24.504  41.615   2.769
17412W        W82672  32.274  40.889   1.537
17413W        W82673  37.155  40.664  14.202
17414W        W82674  14.657  24.427  14.878
17415W        W82675  29.141  38.962   3.674
17416W        W82676   6.979  29.623   1.094
17417W        W82677  33.599   4.205   4.487
17418W        W82678   3.064   4.145   3.299
17419W        W82679  43.023  21.157  13.496
17420W        W82680  42.052  43.423  11.132
17421W        W82681   5.089  12.738   2.275
17422W        W82682  23.298  39.507   1.410
17423W        W82683  34.430   0.228  12.475
17424W        W82684  38.032   4.768   2.485
17425W        W82685   2.560   6.057  10.147
17426W        W82686  23.055  21.681  11.551
17427W        W82687  25.831   4.496  13.012
17428W        W82688  31.923   1.951  11.657
17429W        W82689   6.747  25.034  13.616
17430W        W82690  29.180  43.981   1.438
17431W        W82691  26.442  24.490   0.722
17432W        W82692  36.914   1.211   2.095
17433W        W82693  15.473  20.636   1.371
17434W        W82694  43.371  42.172   4.515
17435W        W82695  21.608  26.965   2.223
17436W        W82696  16.700  10.267  13.467
17437W        W82697  14.433  28.798   2.600
17438W        W82698  40.735  24.493  14.931
17439W        W82699  43.074  15.561  11.133
17440W        W82700  37.414  35.347  12.901
17441W        W82701  36.599  14.723   3.738
17442W        W82702  15.249  11.342   1.886
17443W        W82703   4.361  11.250  12.887
17444W        W82704  13.792  28.207  10.729
17445W        W82705  24.794   8.364   1.595
17446W        W82706   4.940  16.076   1.862
17447W        W82707  24.273  12.162   2.775
17448W        W82708  26.885  40.530   3.307
17449W        W82709  20.094  25.567  13.023
17450W        W82710   3.994  11.908  12.810
17451W        W82711  27.108  33.578   3.205
17452W        W82712   3.402   3.690   2.285
17453W        W82713  31.406  34.436   3.681
17454W        W82714   0.031  32.602  12.438
17455W        W82715  22.576   5.368   1.422
17456W        W82716  37.937   8.996  11.877
17457W        W82717  16.025   7.915   1.679
17458W        W82718  28.582   3.459   2.896
17459W        W82719   4.389   6.277  11.119
17460W        W82720  36.074   9.748  14.545
17461W        W82721   1.883  13.786   2.155
17462W        W82722  17.111  15.625   1.800
17463W        W82723  22.471  27.644   4.102
17464W        W82724  11.227   4.735  14.439
17465W        W82725  34.073  13.268  14.408
17466W        W82726  19.640   5.002  10.027
17467W        W82727  16.256   1.359   0.908
17468W        W82728   3.914  30.542   4.756
17469W        W82729  44.774   0.582   2.288
17470W        W82730   0.718  10.274   3.592
17471W        W82731  17.153  21.721  14.283
17472W        W82732  44.423  20.237   3.809
17473W        W82733  26.473  42.312  11.129
17474W        W82734  34.464  43.767   5.198
17475W        W82735  13.957  35.630   3.239
17476W        W82736  15.604  13.268   2.327
17477W        W82737  17.530   8.280  12.550
17478W        W82738  12.893   0.329   2.700
17479W        W82739  17.436  40.455  10.099
17480W        W82740   1.421  19.791   0.170
17481W        W82741  37.181  17.424   3.265
17482W        W82742   5.745  20.532  13.523
17483W        W82743  13.706  18.643  10.487
17484W        W82744  31.436  13.708   0.826
17485W        W82745  28.964  35.177  11.041
17486W        W82746  29.977   7.320   1.195
17487W        W82747   5.699  25.565  14.727
17488W        W82748  24.444  20.702  13.670
17489W        W82749  37.547   1.055   4.182
17490W        W82750  15.776  25.004  14.528
17491W        W82751  22.093  34.820  14.856
17492W        W82752  10.617  15.163  10.598
17493W        W82753  35.024  39.507   1.767
17494W        W82754  31.474  41.994   1.945
17495W        W82755   7.635  40.073  13.405
17496W        W82756  32.022  12.557  13.059
17497W        W82757  28.058   2.040  13.002
17498W        W82758  31.327  22.088   3.601
17499W        W82759  14.635   6.960  11.056
17500W        W82760  38.019  24.226   4.282
17501W        W82761   5.420  31.579   0.739
17502W        W82762   6.956  21.539   3.815
17503W        W82763  17.157   7.424   0.884
17504W        W82764  21.705  14.107   1.977
17505W        W82765  42.828  24.787  11.456
17506W        W82766  26.148  24.063  14.089
17507W        W82767  15.552  44.619  13.360
17508W        W82768  13.211   8.733  14.843
17509W        W82769   8.413  24.609   0.872
17510W        W82770   0.737   6.194   1.463
17511W        W82771  20.073  43.633  11.619
17512W        W82772  28.408  37.483  12.361
17513W        W82773  28.696  27.881   0.019
17514W        W82774  30.408   0.375  11.659
17515W        W82775  16.233  43.996  11.929
17516W        W82776  15.630  12.634   1.704
17517W        W82777  24.877  13.139   4.852
17518W        W82778  36.935  23.621   4.189
17519W        W82779  22.871  23.212   4.977
17520W        W82780   6.383  12.585  14.406
17521W        W82781  11.384  22.161   0.940
17522W        W82782   9.444  34.046   3.651
17523W        W82783  14.782  19.852   0.918
17524W        W82784   3.493  36.110   0.569
17525W        W82785  25.537  40.577  14.833
17526W        W82786  12.555   8.858   0.892
17527W        W82787   6.814  28.941  14.807
17528W        W82788   1.704  33.099   0.007
17529W        W82789   7.318   6.936   1.692
17530W        W82790   9.767  13.884   3.709
17531W        W82791  36.582  33.220   1.420
17532W        W82792  37.340   6.015  10.684
17533W        W82793  41.243  14.367   3.176
17534W        W82794  40.698  43.005   3.691
17535W        W82795  36.491  37.125   0.496
17536W        W82796  26.485   8.747  11.567
17537W        W82797  20.656  25.543  10.711
17538W        W82798   6.187  28.663  14.537
17539W        W82799   2.970  19.119   4.645
17540W        W82800  11.678  30.713  12.835
17541W        W82801  22.067  27.452  12.649
17542W        W82802   0.333  33.126   0.240
17543W        W82803  28.438   2.343  10.902
17544W        W82804   5.995   3.532  12.754
17545W        W82805  36.656  12.862  13.498
17546W        W82806  34.541  42.503   0.901
17547W        W82807  27.917  26.380   1.337
17548W        W82808  44.923  13.955  12.880
17549W        W82809   8.719  42.039   0.373
17550W        W82810  41.528  29.164   2.215
17551W        W82811   9.407  10.567  12.934
17552W        W82812   4.702  28.232   0.459
17553W        W82813   3.177  22.617   4.943
17554W        W82814  31.978  36.406   2.144
17555W        W82815  11.747  12.299   3.157
17556W        W82816   2.994   9.398  12.847
17557W        W82817  44.245  42.307  13.285
17558W        W82818  32.547   6.668   0.828
17559W        W82819   1.874  17.071   2.587
17560W        W82820  23.492  22.395  10.766
17561W        W82821  19.616   9.650  14.703
17562W        W82822  10.605  39.844  13.830
17563W        W82823   4.912   7.350   2.168
17564W        W82824  12.898  31.432  13.462
17565W        W82825   6.909  17.103   2.262
17566W        W82826  14.897  37.805  11.615
17567W        W82827   6.752  35.687   3.169
17568W        W82828   8.701  32.607   1.148
17569W        W82829   5.129  18.251  10.675
17570W        W82830  15.242  27.703  14.339
17571W        W82831  38.777  22.182   1.763
17572W        W82832  27.932  43.718  13.421
17573W        W82833  37.464  35.219  10.670
17574W        W82834  43.422  36.080  14.794
17575W        W82835  24.042   9.317   1.635
17576W        W82836  26.737  26.086   2.451
17577W        W82837  24.567  29.978  10.747
17578W        W82838  25.137  35.981   1.723
17579W        W82839  16.798   0.039   0.333
17580W        W82840   7.578  26.380   2.364
17581W        W82841  39.946  30.524  12.087
17582W        W82842   9.934  38.710   3.546
17583W        W82843   3.491  18.137  11.665
17584W        W82844   5.823  26.794   4.629
17585W        W82845   5.798   7.766   0.473
17586W        W82846  43.389   7.171  14.477
17587W        W82847  42.388  41.027  13.938
17588W        W82848  33.540  35.279  12.440
17589W        W82849  13.290  14.638   2.400
17590W        W82850  44.758   1.363   2.642
17591W        W82851   8.326  31.122   3.022
17592W        W82852  35.595  19.235   1.884
17593W        W82853  19.750  13.118   0.623
17594W        W82854   3.283   0.017  12.013
17595W        W82855  38.883  37.105   1.993
17596W        W82856  32.894  30.645  14.870
17597W        W82857  16.265  18.563   1.475
17598W        W82858  34.040   4.799   3.232
17599W        W82859  38.390  39.526  11.409
17600W        W82860   9.804  42.845   3.755
17601W        W82861  32.523  22.478   2.331
17602W        W82862  37.662  29.749  11.180
17603W        W82863  30.600  29.377  13.013
17604W        W82864   3.456  37.976  11.613
17605W        W82865  36.881  15.164   0.981
17606W        W82866  32.952   3.326   4.890
17607W        W82867  25.460  27.023   3.661
17608W        W82868   5.715  29.522  11.456
17609W        W82869  42.792  23.365  13.167
17610W        W82870  25.754  34.172   3.781
17611W        W82871  21.686   1.409   1.883
17612W        W82872  24.564  10.273  13.394
17613W        W82873  26.004  16.726   4.600
17614W        W82874  39.298  32.361   0.237
17615W        W82875   4.318  27.107   4.632
17616W        W82876  41.771  30.587   2.110
17617W        W82877  30.690  44.804   0.467
17618W        W82878  11.409   0.587  12.650
17619W        W82879  42.553   6.915  14.350
17620W        W82880  34.022  23.555   1.175
17621W        W82881  31.783   4.265   4.100
17622W        W82882  10.896  15.628  14.889
17623W        W82883  21.173   8.095   4.692
17624W        W82884  22.916  16.435   0.328
17625W        W82885   1.118  36.353  14.508
17626W        W82886  40.835  33.097  11.268
17627W        W82887  32.991  32.224  14.920
17628W        W82888  18.035  30.683   2.638
17629W        W82889  32.532  10.678  10.659
17630W        W82890  26.181   1.740   3.603
17631W        W82891  22.345  12.638  11.540
17632W        W82892   7.703  38.947   1.846
17633W        W82893  43.384   7.630   2.675
17634W        W82894  34.085  12.646   1.479
17635W        W82895  14.233   0.819  11.220
17636W        W82896   4.816  17.067   2.835
17637W        W82897   8.357   6.340  10.867
17638W        W82898  40.505  23.212   3.267
17639W        W82899  43.369  42.822  12.692
17640W        W82900  32.890  40.440   2.236
17641W        W82901   0.949  11.370  14.863
17642W        W82902   3.125  43.209   3.293
17643W        W82903   1.443  35.832  11.571
17644W        W82904  28.606   1.835   4.771
17645W        W82905  27.150  10.574  11.638
17646W        W82906  41.398  32.455  13.924
17647W        W82907   5.196  10.343  13.692
17648W        W82908  36.485   6.993  14.011
17649W        W82909  14.829   8.602  14.406
17650W        W82910  28.656   2.282   4.355
17651W        W82911  34.836  28.921   1.752
17652W        W82912  27.171  37.452  11.551
17653W        W82913  14.726   0.995   0.797
17654W        W82914   4.436   4.793   3.480
17655W        W82915   8.201  24.960   4.767
17656W        W82916  39.992  10.505   0.879
17657W        W82917  42.922  17.264  11.350
17658W        W82918  14.653  19.178  13.622
17659W        W82919  15.314  44.982  13.021
17660W        W82920  17.235  20.680   0.800
17661W        W82921   6.076  42.850   1.376
17662W        W82922  28.831  40.057   0.780
17663W        W82923  44.431  28.850  11.198
17664W        W82924  44.898  10.639   1.381
17665W        W82925  34.608  43.367   1.946
17666W        W82926  20.208  41.735  13.646
17667W        W82927  10.660  31.910   4.140
17668W        W82928  31.872  36.048  14.947
17669W        W82929  23.586  10.738  14.105
17670W        W82930  10.320  35.528  10.688
17671W        W82931  44.073   3.635   1.310
17672W        W82932  18.707  21.728  13.006
17673W        W82933  42.066  36.790  10.868
17674W        W82934  14.689  13.272   0.279
17675W        W82935   6.843  40.846   3.828
17676W        W82936   9.144  10.399   3.803
17677W        W82937  22.039  30.469  13.971
17678W        W82938  23.676  25.187   0.812
17679W        W82939  25.429  33.014  12.878
17680W        W82940   6.893  25.610  10.720
17681W        W82941   4.854  23.084   4.397
17682W        W82942  44.351   0.425  13.978
17683W        W82943  22.892  27.896  14.773
17684W        W82944  43.510  20.360   0.941
17685W        W82945  19.355  41.247   0.808
17686W        W82946  26.922  43.893  14.011
17687W        W82947  17.396  14.984   0.351
17688W        W82948  22.240  19.314  14.408
17689W        W82949  11.642   4.730   3.758
17690W        W82950  10.319  43.711  11.700
17691W        W82951  29.758  33.000   3.764
17692W        W82952   0.721  26.204   2.651
17693W        W82953  18.678  30.898   1.654
17694W        W82954   5.745  24.017   4.114
17695W        W82955  30.970   3.781  13.400
17696W        W82956  42.992  43.933   1.837
17697W        W82957  17.734  20.498   2.860
17698W        W82958  10.966  32.085  14.411
17699W        W82959  40.297   8.748   4.328
17700W        W82960  36.910   6.727  14.733
17701W        W82961  44.507  28.608   3.832
17702W        W82962  24.626  27.735  13.372
17703W        W82963  39.942  25.333   0.454
17704W        W82964  41.189   5.902  11.227
17705W        W82965   1.613  43.528   2.310
17706W        W82966   6.566  29.113   0.486
17707W        W82967  31.268  22.205  12.129
17708W        W82968   1.474  25.093   0.874
17709W        W82969  33.345  34.814  14.239
17710W        W82970  28.600  35.390   1.682
17711W        W82971  33.479  43.414   4.593
17712W        W82972  32.982  44.841   0.976
17713W        W82973  30.185  37.999   1.199
17714W        W82974   6.222  35.325   2.859
17715W        W82975  17.944  33.899  13.233
17716W        W82976  13.364  15.574  14.374
17717W        W82977  17.478  34.029   3.785
17718W        W82978   3.828  41.585   3.722
17719W        W82979  37.595  44.871  10.430
17720W        W82980   0.341   7.904   2.455
17721W        W82981   7.322  12.820  13.358
17722W        W82982  33.911  44.886   4.581
17723W        W82983  25.147   7.404  12.695
17724W        W82984   5.818  36.068  12.321
17725W        W82985   8.765  32.535   3.628
17726W        W82986   2.228  24.169  13.098
17727W        W82987   1.190   6.952  12.602
17728W        W82988  44.017  15.510   0.459
17729W        W82989  25.147  10.550   2.267
17730W        W82990  38.138  41.793   2.845
17731W        W82991  34.570  13.149   0.776
17732W        W82992  37.232  22.012   4.649
17733W        W82993  11.793  42.011   2.328
17734W        W82994  22.484  30.459   4.676
17735W        W82995  13.310  37.583  14.434
17736W        W82996  38.158  41.029  11.189
17737W        W82997  37.097  34.946   3.067
17738W        W82998  44.662  13.606  12.611
17739W        W82999  21.855  11.629   3.373
17740W        W83000  24.078  15.960  10.880
17741W        W83001  20.279   5.185  10.676
17742W        W83002  33.631  27.008   2.182
17743W        W83003   3.475  31.719  11.443
17744W        W83004  24.629  22.234  13.004
17745W        W83005   9.770  12.161  11.631
17746W        W83006   6.195  27.723   3.348
17747W        W83007   9.256  26.592   3.659
17748W        W83008  18.528  18.131   1.861
17749W        W83009  26.966  39.473  11.056
17750W        W83010  39.587  28.015  11.677
17751W        W83011  20.315  19.594  12.004
17752W        W83012  39.204  33.001   4.588
17753W        W83013  19.257  34.767   1.226
17754W        W83014  39.988  43.921   0.069
17755W        W83015  25.018  31.264  13.980
17756W        W83016  44.682  33.322  14.755
17757W        W83017  12.262  19.043   3.456
17758W        W83018   6.480  24.615   3.814
17759W        W83019  44.025   3.408   3.804
17760W        W83020  16.084  26.613   1.395
17761W        W83021  34.397  25.047   0.623
17762W        W83022  16.133  39.663  13.482
17763W        W83023  12.061  33.068  12.638
17764W        W83024  22.504  38.549   1.011
17765W        W83025   4.907  32.347   3.416
17766W        W83026   6.422   2.937   3.132
17767W        W83027   8.178  33.017  13.536
17768W        W83028  31.880  16.293   0.391
17769W        W83029  10.210  10.671   3.719
17770W        W83030  31.427  22.313  14.878
17771W        W83031  16.861  18.061   1.035
17772W        W83032  11.257  27.910   0.685
17773W        W83033  18.021   7.227  12.831
17774W        W83034   7.076  38.443   3.783
17775W        W83035  24.176  21.232   4.236
17776W        W83036  36.062  10.152   3.684
17777W        W83037   0.086  17.157   1.743
17778W        W83038  19.532  34.169  14.329
17779W        W83039  42.441   7.758   4.283
17780W        W83040  34.683  18.211   1.988
17781W        W83041  41.432  34.965   3.904
17782W        W83042   6.357  37.338   3.399
17783W        W83043  19.884  30.109  12.030
17784W        W83044  19.552  31.650   0.180
17785W        W83045   5.361   4.040  13.299
17786W        W83046  30.396  11.361  13.975
17787W        W83047   8.406  17.024  11.164
17788W        W83048  14.490  26.189   4.768
17789W        W83049   1.506  28.031   2.852
17790W        W83050  33.746   5.128   4.187
17791W        W83051  40.814  34.820   4.676
17792W        W83052  17.290  35.992  10.107
17793W        W83053  10.743  42.255  13.041
17794W        W83054  21.587  43.563   4.449
17795W        W83055   4.436  42.138   3.299
17796W        W83056  12.554  40.372   1.322
17797W        W83057   9.406  24.478   0.027
17798W        W83058   4.327   9.151  13.879
17799W        W83059  36.409   9.936  10.911
17800W        W83060  14.537  41.517  11.576
17801W        W83061  13.955  16.743   3.293
17802W        W83062  14.374  39.545  14.097
17803W        W83063  24.716   4.495   1.083
17804W        W83064  10.352  20.959  12.551
17805W        W83065  21.277  38.844  14.815
17806W        W83066   8.272   7.032   9.848
17807W        W83067  16.163  40.617   4.975
17808W        W83068  31.359  40.391   9.599
17809W        W83069   6.113  40.770  11.200
17810W        W83070  27.260  12.605   2.344
17811W        W83071  26.818   3.389  13.836
17812W        W83072  15.007   5.367   2.314
17813W        W83073  21.239   6.989   2.472
17814W        W83074  11.755  11.596   3.708
17815W        W83075   8.470   2.091  10.571
17816W        W83076  31.055  32.440   2.576
17817W        W83077  19.467   6.680  13.782
17818W        W83078  13.422  11.430  14.957
17819W        W83079  23.565  29.979   1.059
17820W        W83080  35.932  26.379  11.315
17821W        W83081  26.953  38.583   4.530
17822W        W83082  17.488  10.986  11.159
17823W        W83083  12.091  13.611  14.567
17824W        W83084  11.552  19.768   1.638
17825W        W83085  10.247  40.540  11.376
17826W        W83086  14.854  21.204   2.574
17827W        W83087  28.752  35.564   3.282
17828W        W83088  28.989  36.590   3.369
17829W        W83089  11.309  19.302   1.678
17830W        W83090  40.098  40.367  11.276
17831W        W83091  36.185  16.227  14.372
17832W        W83092  36.898   7.006   2.147
17833W        W83093  31.039  24.420  12.492
17834W        W83094  33.134   8.964  13.804
17835W        W83095   5.211  22.503  12.947
17836W        W83096  36.887  29.793  13.347
17837W        W83097  15.074   4.920  12.434
17838W        W83098   8.739  20.103  14.355
17839W        W83099  21.424  44.112  13.937
17840W        W83100  28.239  12.518  12.476
17841W        W83101  10.353  44.773   0.504
17842W        W83102  22.279   9.672  12.628
17843W        W83103  10.240  44.560   5.325
17844W        W83104  40.770   7.730   4.897
17845W        W83105   9.728  15.490   0.129
17846W        W83106   6.781   2.712  12.142
17847W        W83107  26.387  25.167  12.027
17848W        W83108  10.624  34.256  14.755
17849W        W83109  16.199  23.223   1.771
17850W        W83110  43.313  21.671   3.647
17851W        W83111  27.182  39.963   1.240
17852W        W83112  23.528  26.590   2.323
17853W        W83113  32.924  12.668  12.021
17854W        W83114   9.931  33.389   1.128
17855W        W83115  43.454   7.687   4.539
17856W        W83116  36.038  15.228  11.130
17857W        W83117  35.351  15.462   0.814
17858W        W83118  11.283   5.631  10.981
17859W        W83119   9.262   8.940   0.660
17860W        W83120  10.126  24.498   2.755
17861W        W83121  26.458   9.683  13.342
17862W        W83122   8.144   6.768   1.842
17863W        W83123   6.250  16.577   0.410
17864W        W83124  29.990  44.506   3.302
17865W        W83125   2.823  11.265  13.450
17866W        W83126   7.456  34.684  14.450
17867W        W83127  11.787  32.086  10.299
17868W        W83128  14.566   6.999   4.596
17869W        W83129  38.936  26.397  12.916
17870W        W83130   4.404  27.240   2.181
17871W        W83131  34.807   6.165   4.039
17872W        W83132  22.506   4.175   1.842
17873W        W83133   9.374   5.274   3.559
17874W        W83134  30.417  31.877   0.445
17875W        W83135  30.310  19.132   2.824
17876W        W83136  23.982  44.671   3.584
17877W        W83137   8.767  40.287   2.380
17878W        W83138  32.554  19.042  14.482
17879W        W83139  17.876  11.426  11.059
17880W        W83140   4.929  16.231   2.389
17881W        W83141  35.434  28.327   4.873
17882W        W83142  18.212  18.893  12.818
17883W        W83143  18.176  36.427   4.673
17884W        W83144   4.991   7.443  14.267
17885W        W83145  14.317   3.631   3.863
17886W        W83146  11.882  37.548   4.760
17887W        W83147  12.279   4.374  12.196
17888W        W83148  40.173   4.641  13.432
17889W        W83149  10.667  40.344  14.914
17890W        W83150   9.043   3.849  11.934
17891W        W83151  30.020  12.329   4.154
17892W        W83152   2.671   3.935  11.594
17893W        W83153   3.579  11.762  13.096
17894W        W83154  14.076  29.808  14.884
17895W        W83155  43.530   3.230   3.704
17896W        W83156  24.932  37.608   3.317
17897W        W83157   3.268   9.737   0.843
17898W        W83158  33.877  37.857   2.595
17899W        W83159  33.527  38.362  11.546
17900W        W83160   6.645  18.517  11.945
17901W        W83161  23.036  38.546  12.820
17902W        W83162   8.118  17.003  12.426
17903W        W83163  39.925   9.784  13.454
17904W        W83164  21.567   5.691   0.731
17905W        W83165  23.671  12.254   1.342
17906W        W83166  44.343   7.118  14.470
17907W        W83167  27.112   3.929  11.642
17908W        W83168   0.279  31.587   3.190
17909W        W83169   1.852  26.996  12.547
17910W        W83170  10.346  27.663   0.438
17911W        W83171  39.127  17.648   1.174
17912W        W83172   8.197  43.280  11.936
17913W        W83173  31.508  17.487   3.216
17914W        W83174  26.252  20.110  13.807
17915W        W83175  37.951  23.073   2.779
17916W        W83176  41.728  17.855  12.417
17917W        W83177  42.773  41.531   1.391
17918W        W83178  29.081  43.878   1.921
17919W        W83179  34.978  26.599   0.432
17920W        W83180  12.231  27.286   1.230
17921W        W83181  18.066   9.032   0.776
17922W        W83182  41.722  15.084   1.859
17923W        W83183  19.801  36.918   2.026
17924W        W83184  31.578  40.489  12.130
17925W        W83185  35.610  42.250  13.330
17926W        W83186  33.455  10.892   4.706
17927W        W83187  11.351   5.352  11.434
17928W        W83188  35.044  18.549  11.833
17929W        W83189  28.202   0.472   0.041
17930W        W83190   3.277  35.637   2.316
17931W        W83191  20.481  28.139  13.311
17932W        W83192  25.776  16.267  13.801
17933W        W83193  24.053  37.563   0.938
17934W        W83194  40.877  17.381   4.753
17935W        W83195  19.271  10.902  14.823
17936W        W83196  33.168  11.666   2.906
17937W        W83197  13.236  17.699   4.959
17938W        W83198  23.119  41.340  13.111
17939W        W83199  20.131  35.889   0.403
17940W        W83200  38.025  31.360  14.136
17941W        W83201   5.853  10.263   3.324
17942W        W83202   7.100  22.689   0.718
17943W        W83203   7.338  42.256   1.132
17944W        W83204   1.334  32.134  13.289
17945W        W83205   3.937  34.629   4.135
17946W        W83206  20.757   6.425  11.487
17947W        W83207  14.876  41.523  12.449
17948W        W83208  15.768  22.578   0.413
17949W        W83209  35.722  26.331   3.347
17950W        W83210   9.916  32.713  13.504
17951W        W83211  23.171  29.148   0.294
17952W        W83212  24.683  23.282  10.169
17953W        W83213  25.533  29.106   1.698
17954W        W83214  23.006  10.368   0.007
17955W        W83215  36.310  28.067   4.119
17956W        W83216  24.883  35.694   0.795
17957W        W83217  15.647  40.524   1.705
17958W        W83218   8.602  20.522   4.212
17959W        W83219  12.606  38.529  14.426
17960W        W83220  11.219  29.915   3.755
17961W        W83221   3.340   3.828   4.920
17962W        W83222  31.587   5.625  10.788
17963W        W83223  30.195  28.536  14.319
17964W        W83224  22.322   1.029  11.090
17965W        W83225  35.162  15.444  11.155
17966W        W83226   9.747  44.498  10.103
17967W        W83227  17.894  15.248  14.467
17968W        W83228  27.358  40.748   3.523
17969W        W83229  10.785   5.716   0.974
17970W        W83230  27.379  23.774  13.994
17971W        W83231  11.101  17.857   1.949
17972W        W83232   0.470  27.167  12.542
17973W        W83233   2.890  16.489   1.737
17974W        W83234  16.140  36.207  13.908
17975W        W83235  43.103  44.702   2.033
17976W        W83236  10.069  15.484   0.526
17977W        W83237  30.492   1.418  14.048
17978W        W83238   1.441  11.324   0.679
17979W        W83239  30.468  40.761   4.538
17980W        W83240  43.827  29.521  13.406
17981W        W83241  20.591  22.771  11.763
17982W        W83242  31.448   1.435   2.311
17983W        W83243  14.022  21.729  13.363
17984W        W83244  35.820  36.411   3.182
17985W        W83245  31.517  24.204  12.434
17986W        W83246  20.504  11.766  13.192
17987W        W83247  14.878  21.883  14.221
17988W        W83248   2.481   7.206  13.964
17989W        W83249  28.033  13.233   2.112
17990W        W83250  33.824  20.526  11.398
17991W        W83251  44.379  43.040   2.424
17992W        W83252  19.019  42.995  11.646
17993W        W83253  39.043  20.032  14.853
17994W        W83254  35.172  40.131  12.213
17995W        W83255  34.808  11.706  10.555
17996W        W83256  37.569  33.699  10.337
17997W        W83257  19.286  41.457  13.334
17998W        W83258  38.845  14.573   4.903
17999W        W83259  21.706  29.954   3.704
18000W        W83260  39.855  19.544  12.088
18001W        W83261   5.267  27.588  14.979
18002W        W83262  25.043  20.388  12.120
18003W        W83263   0.910  33.553   0.174
18004W        W83264   9.696  31.390   2.248
18005W        W83265  28.573  33.823  11.010
18006W        W83266  36.635  11.236   1.773
18007W        W83267   0.951  33.098  14.353
18008W        W83268  38.723  15.608   4.092
18009W        W83269  25.662  43.248  10.725
18010W        W83270  44.015  43.055  13.444
18011W        W83271   0.929   5.397  12.957
18012W        W83272  35.985   7.147  14.467
18013W        W83273  24.300  29.435  13.092
18014W        W83274   7.280  10.508  11.101
18015W        W83275  32.439  28.358  12.124
18016W        W83276  14.983  38.511  11.969
18017W        W83277   3.336   6.340  13.363
18018W        W83278  42.825  21.063   3.562
18019W        W83279   2.927  12.896  14.384
18020W        W83280   3.926  40.437  11.656
18021W        W83281  42.701   5.266   0.837
18022W        W83282  22.692  34.653  13.402
18023W        W83283  39.493  43.542  12.459
18024W        W83284  13.300   0.912   2.201
18025W        W83285  11.623  10.095   3.651
18026W        W83286  41.900  11.143  11.510
18027W        W83287  42.245  40.987   0.448
18028W        W83288  30.071   4.468   0.863
18029W        W83289  16.110   2.348  13.585
18030W        W83290  37.661  30.416   2.190
18031W        W83291  25.227  44.719   1.358
18032W        W83292  11.972   7.232  12.361
18033W        W83293  39.439  42.243  14.454
18034W        W83294  12.312  26.186   5.145
18035W        W83295  27.827  26.205   4.700
18036W        W83296   3.624  18.482   0.766
18037W        W83297  29.379   3.101  14.214
18038W        W83298  40.057   3.741   4.592
18039W        W83299  25.113  28.258  10.848
18040W        W83300  19.269   8.219   4.662
18041W        W83301  43.052  38.022   3.171
18042W        W83302  39.525  17.314   3.753
18043W        W83303  15.525  40.780  12.927
18044W        W83304  10.246  43.658  12.198
18045W        W83305   2.887  15.682  11.135
18046W        W83306  20.029  42.395   4.111
18047W        W83307  40.447   7.300   2.840
18048W        W83308   4.427  28.453  11.188
18049W        W83309   7.739  33.066  13.895
18050W        W83310   1.808  38.130   4.623
18051W        W83311  42.384  41.626   1.800
18052W        W83312  14.311  17.984  12.167
18053W        W83313  39.863  17.169   1.759
18054W        W83314  21.620  25.939  13.628
18055W        W83315  34.581  33.971  11.169
18056W        W83316   9.746  41.094  14.286
18057W        W83317  20.291   6.837   0.317
18058W        W83318  27.217  31.706  12.577
18059W        W83319  40.384  44.753   0.169
18060W        W83320  25.101   2.029   2.580
18061W        W83321  22.954  39.857   2.225
18062W        W83322  29.188  36.352   0.943
18063W        W83323  32.081  44.878   1.361
18064W        W83324  31.030  25.442  12.255
18065W        W83325  30.506  29.917   1.058
18066W        W83326   9.164  12.383   2.717
18067W        W83327  27.849  11.890   5.285
18068W        W83328  28.848   7.108  14.914
18069W        W83329  38.595  39.040  10.227
18070W        W83330  37.240  36.591  12.573
18071W        W83331  22.660  41.937   0.718
18072W        W83332  33.814  41.967   1.032
18073W        W83333  32.052  36.490   1.640
18074W        W83334  35.809  22.610   0.334
18075W        W83335  25.749  28.173  13.231
18076W        W83336  41.503  26.622  11.555
18077W        W83337  19.785  36.165  12.124
18078W        W83338   8.653  42.749  14.041
18079W        W83339  18.775  14.797  10.684
18080W        W83340  10.702  30.724   0.288
18081W        W83341  26.664  16.860   0.897
18082W        W83342  13.814  36.898  11.091
18083W        W83343  16.645  33.532  11.930
18084W        W83344  25.164  38.750   9.894
18085W        W83345  10.701  20.333  11.698
18086W        W83346  15.623  15.669  14.967
18087W        W83347  40.981  29.025  10.784
18088W        W83348  15.249   1.839  11.696
18089W        W83349  17.605   9.327   2.070
18090W        W83350  35.405  11.012  11.719
18091W        W83351  13.468  30.992   0.422
18092W        W83352  15.191  31.576  10.634
18093W        W83353  44.089  34.600   3.871
18094W        W83354  33.945  13.732  14.190
18095W        W83355  38.699  43.613  10.814
18096W        W83356  30.651  39.004  11.645
18097W        W83357  11.657  18.702   2.794
18098W        W83358  28.317  17.713  13.309
18099W        W83359  37.103  39.516  10.932
18100W        W83360  29.185  22.189  11.207
18101W        W83361  30.898  38.884   3.565
18102W        W83362  19.810  42.439   0.949
18103W        W83363  21.842   7.959   0.270
18104W        W83364  28.545   7.777   1.020
18105W        W83365   1.788   6.410   0.819
18106W        W83366  42.471   7.390   3.903
18107W        W83367  40.307  11.058  10.719
18108W        W83368  12.415  42.355  12.049
18109W        W83369  16.288  41.091   0.426
18110W        W83370  17.637  28.224  11.609
18111W        W83371  34.881  36.123  14.866
18112W        W83372   6.418   1.566   2.284
18113W        W83373  10.566   4.653  12.870
18114W        W83374   7.186   0.927   0.390
18115W        W83375  15.456  34.468   1.229
18116W        W83376  40.269  43.494  11.590
18117W        W83377  21.307  28.992   4.129
18118W        W83378  11.994   9.438   5.497
18119W        W83379  27.091  14.881   0.323
18120W        W83380  14.181  13.249  10.573
18121W        W83381  36.378   0.234   1.794
18122W        W83382  11.585  31.328   1.393
18123W        W83383   9.256  20.762   3.365
18124W        W83384  39.899  30.144  14.018
18125W        W83385  15.331   5.178  14.512
18126W        W83386   6.100  34.520  11.942
18127W        W83387  42.355  25.161   3.801
18128W        W83388   4.868   0.813  10.963
18129W        W83389  10.681  13.808  13.603
18130W        W83390  20.198  14.651  11.812
18131W        W83391  44.452  26.250   3.259
18132W        W83392  32.891  18.108  11.777
18133W        W83393  15.260  40.359  11.860
18134W        W83394  31.940  37.561  10.703
18135W        W83395  19.258   6.475   3.590
18136W        W83396  44.131  23.753  10.277
18137W        W83397  34.164  13.771  13.288
18138W        W83398  20.557   8.379  14.396
18139W        W83399  34.787   3.739  10.984
18140W        W83400  28.076  33.349   2.626
18141W        W83401   5.240  31.080  10.818
18142W        W83402   6.875  27.711  14.743
18143W        W83403  38.881  39.801  14.419
18144W        W83404  27.163   1.150  13.829
18145W        W83405  13.584  10.698   1.874
18146W        W83406  29.135  22.915  12.800
18147W        W83407  25.114   0.986  13.821
18148W        W83408  41.921  19.745   3.091
18149W        W83409  13.704   3.274  13.080
18150W        W83410   6.921  12.652   4.391
18151W        W83411  19.572  16.133  14.463
18152W        W83412  13.060  11.213   2.684
18153W        W83413  13.029  30.782   4.991
18154W        W83414  22.233  16.566  12.153
18155W        W83415  31.663  24.227   3.271
18156W        W83416  42.065   4.288   2.678
18157W        W83417  42.865   1.184  13.998
18158W        W83418   4.399  10.979  13.331
18159W        W83419   1.246   5.835  13.873
18160W        W83420  29.388  16.721   0.901
18161W        W83421  12.322  30.035   4.728
18162W        W83422  28.378  25.376   0.806
18163W        W83423  42.527  19.282   2.368
18164W        W83424  17.702  33.028  13.107
18165W        W83425   4.065  26.579  12.018
18166W        W83426  25.201  43.513  10.656
18167W        W83427   0.467   3.252  13.669
18168W        W83428   5.435  22.789  13.325
18169W        W83429  30.129   1.424  14.933
18170W        W83430  41.928  35.282  11.693
18171W        W83431   0.821  34.195  12.099
18172W        W83432  13.705  23.666   3.068
18173W        W83433   5.773  41.041  10.836
18174W        W83434   2.390  28.299   4.945
18175W        W83435   7.717  11.332   2.302
18176W        W83436   4.227  34.515  13.745
18177W        W83437  17.118  18.810   0.946
18178W        W83438  18.607  40.502   0.432
18179W        W83439  42.887  25.094  10.507
18180W        W83440  43.826  39.362   2.587
18181W        W83441  13.342  30.732  13.066
18182W        W83442  14.912  21.016   3.617
18183W        W83443  30.987  43.954   2.693
18184W        W83444   8.864  42.246  14.096
18185W        W83445  27.006  32.068   4.354
18186W        W83446  34.007   4.729  10.187
18187W        W83447  22.946   0.562   4.588
18188W        W83448  31.177  30.616   0.196
18189W        W83449  11.844   7.396  11.889
18190W        W83450  13.579  19.512   1.882
18191W        W83451  13.825  30.984  14.855
18192W        W83452   1.866  10.170   2.809
18193W        W83453   1.943  26.706  11.202
18194W        W83454  39.401  30.562   1.705
18195W        W83455   4.192  10.899   1.359
18196W        W83456  28.641  35.507  10.748
18197W        W83457  13.321  23.395  11.402
18198W        W83458  29.010  34.886  10.604
18199W        W83459  41.249  11.850   4.580
18200W        W83460  13.359  41.427   3.388
18201W        W83461  29.430   8.355  12.911
18202W        W83462   6.703  12.923   4.015
18203W        W83463   0.343  27.600   3.157
18204W        W83464   5.734  13.804   3.743
18205W        W83465   0.201  27.119  12.081
18206W        W83466  19.168  18.225  12.613
18207W        W83467  38.421  40.066   1.763
18208W        W83468  12.325  42.921  14.995
18209W        W83469  12.596  15.938  14.967
18210W        W83470  14.190  18.146   0.514
18211W        W83471  30.950  38.415   1.296
18212W        W83472  15.750  31.008  13.982
18213W        W83473  25.620   9.960  12.623
18214W        W83474  38.090   9.276  10.907
18215W        W83475  35.441   5.129   0.149
18216W        W83476  36.387  19.487  11.881
18217W        W83477  27.244  25.568   5.005
18218W        W83478  16.071  29.216   3.674
18219W        W83479  34.873  21.349  11.533
18220W        W83480  19.644  11.697  10.596
18221W        W83481  44.388  22.619  13.557
18222W        W83482  43.076   9.788  14.763
18223W        W83483  41.306  13.892  12.316
18224W        W83484   5.711  30.287  13.470
18225W        W83485  33.955   0.973  13.325
18226W        W83486  18.302  26.634  13.607
18227W        W83487   3.143  36.889  10.880
18228W        W83488  44.808  36.361   2.891
18229W        W83489  24.270  33.099   0.908
18230W        W83490  25.269  14.613   0.246
18231W        W83491   2.242   3.778   2.339
18232W        W83492  18.029  42.405   0.289
18233W        W83493   6.231  29.183   0.878
18234W        W83494  26.206  27.581   4.659
18235W        W83495   8.883   4.394   3.199
18236W        W83496  14.298   6.538   3.861
18237W        W83497   0.941   5.269   4.396
18238W        W83498  27.193  40.833   4.934
18239W        W83499   3.911   1.894   2.918
18240W        W83500  19.688   8.714   3.630
18241W        W83501  24.207   0.996  12.015
18242W        W83502  42.231  27.264  13.938
18243W        W83503  25.764   0.457   1.220
18244W        W83504   7.764   5.727  11.183
18245W        W83505  16.695  20.062   1.838
18246W        W83506  42.813  28.898  12.539
18247W        W83507   0.839  44.210   3.609
18248W        W83508  22.557  28.496  12.648
18249W        W83509  35.593  41.829  12.929
18250W        W83510  12.346  17.145   0.399
18251W        W83511   4.342  13.485  14.993
18252W        W83512  34.079  22.989   0.351
18253W        W83513   6.343  19.483   3.228
18254W        W83514  25.939  39.858  14.672
18255W        W83515  18.021  13.888  11.623
18256W        W83516  12.364  29.530  12.803
18257W        W83517  18.051  36.419  13.078
18258W        W83518  20.972  13.192   1.313
18259W        W83519  23.570  24.300   0.633
18260W        W83520  29.425  27.826   3.137
18261W        W83521  31.847  24.717   3.283
18262W        W83522   5.977  10.697  12.449
18263W        W83523  34.860  35.792   4.195
18264W        W83524  18.742  29.708  12.631
18265W        W83525  24.027  19.549  13.337
18266W        W83526  35.095   4.118  14.972
18267W        W83527  31.044  39.050  10.896
18268W        W83528   4.856   2.377   2.631
18269W        W83529   3.214   2.770  13.421
18270W        W83530  44.053  34.009  14.799
18271W        W83531  27.680  40.448   2.023
18272W        W83532  43.637  12.810  12.644
18273W        W83533  38.892   2.378   1.404
18274W        W83534   9.947  11.684   4.273
18275W        W83535   5.388   0.298   2.835
18276W        W83536  28.411  41.914  12.487
18277W        W83537  10.722  22.352   2.146
18278W        W83538  32.438  24.685   0.038
18279W        W83539  24.650  27.050   4.257
18280W        W83540  39.340  31.027  12.096
18281W        W83541  14.929  26.636   2.242
18282W        W83542  14.384  37.788  14.420
18283W        W83543  42.555  23.693   3.769
18284W        W83544  36.786   2.525  13.564
18285W        W83545  33.005   7.139   3.684
18286W        W83546  10.159   8.337  12.134
18287W        W83547   8.369  37.190   3.638
18288W        W83548   8.842  16.772   4.069
18289W        W83549  35.007   8.316  11.673
18290W        W83550   6.210   0.167   5.150
18291W        W83551  39.797  10.444   0.405
18292W        W83552  41.927  30.527  14.294
18293W        W83553  44.983  27.930  11.140
18294W        W83554  42.781  13.917   3.624
18295W        W83555   6.675  15.673  13.624
18296W        W83556   5.309  25.674  12.496
18297W        W83557  22.470   6.827   4.006
18298W        W83558  13.414  34.397  13.968
18299W        W83559   4.967   5.699   2.799
18300W        W83560  20.762  13.475   4.743
18301W        W83561  33.105  17.523   3.554
18302W        W83562  41.051  36.360   4.140
18303W        W83563  17.173  26.760   3.344
18304W        W83564   2.819   5.201  14.967
18305W        W83565   3.619  43.402  12.677
18306W        W83566  10.087  18.690   1.625
18307W        W83567  16.162  40.018   0.431
18308W        W83568  28.138   8.343   1.491
18309W        W83569   1.851  33.036   4.979
18310W        W83570  39.828  30.919  14.391
18311W        W83571  12.336  19.065   3.954
18312W        W83572  29.891   6.683   3.416
18313W        W83573  43.895  10.745  13.576
18314W        W83574   2.220  19.789  13.363
18315W        W83575  29.951   4.680   0.362
18316W        W83576  40.503   0.771  11.179
18317W        W83577   5.723  31.410  13.535
18318W        W83578  18.978  39.330  11.391
18319W        W83579  28.923  19.268   0.816
18320W        W83580  34.426  42.496   1.427
18321W        W83581   4.907   4.414   2.976
18322W        W83582  15.692  33.102  13.408
18323W        W83583  16.025  14.295  10.489
18324W        W83584  39.385  29.379   1.879
18325W        W83585  14.148  13.372   2.655
18326W        W83586  40.525  32.994   4.093
18327W        W83587  18.021   9.877  11.589
18328W        W83588  41.852  10.605  13.894
18329W        W83589  21.254  33.714  11.620
18330W        W83590  39.325   5.790  13.863
18331W        W83591  26.498  21.543  10.472
18332W        W83592  42.959  18.561  11.479
18333W        W83593   0.553  14.682  12.688
18334W        W83594  43.489   8.595  14.376
18335W        W83595  22.917  39.003   0.688
18336W        W83596  26.949   5.581  10.204
18337W        W83597  30.851  16.564   3.684
18338W        W83598  41.615  36.639  11.122
18339W        W83599   0.434  32.926  12.061
18340W        W83600  34.935  33.508   2.875
18341W        W83601  21.953  16.372  13.767
18342W        W83602  34.488  38.565   4.493
18343W        W83603  30.498   4.959   2.672
18344W        W83604  40.270   5.836  12.454
18345W        W83605  18.482   3.165  14.460
18346W        W83606  33.286  28.017   1.983
18347W        W83607   3.777   6.360  10.698
18348W        W83608  20.956  14.532   1.350
18349W        W83609  33.672  10.464  12.406
18350W        W83610  17.967  42.475  10.622
18351W        W83611  44.136  34.342  13.011
18352W        W83612   5.281  41.835   0.426
18353W        W83613  27.049  44.131   4.692
18354W        W83614  26.997  38.346  13.402
18355W        W83615   1.343  19.152  13.599
18356W        W83616   2.947  22.934   2.399
18357W        W83617  37.782  15.264   2.085
18358W        W83618  41.297   4.928  11.672
18359W        W83619  12.533  16.559  12.347
18360W        W83620  25.351   6.909  12.713
18361W        W83621  43.839  35.948  10.554
18362W        W83622   3.522  44.578  11.233
18363W        W83623  35.050  34.021   1.150
18364W        W83624  11.298  33.178  14.771
18365W        W83625  14.380  10.262   4.562
18366W        W83626  17.225  31.055   1.245
18367W        W83627  15.695  27.924   0.563
18368W        W83628  42.458  39.407   1.643
18369W        W83629  44.333   8.277   2.097
18370W        W83630  30.396  16.318  13.264
18371W        W83631  30.711  21.458   0.879
18372W        W83632   5.862  29.199   1.749
18373W        W83633   4.848  37.753   0.039
18374W        W83634  12.300  18.837   2.174
18375W        W83635   1.349   8.646  13.402
18376W        W83636  42.325  15.605  10.914
18377W        W83637  42.044   5.191   2.627
18378W        W83638  42.386  41.558  13.873
18379W        W83639  25.534   4.232  11.211
18380W        W83640   0.782  26.504   1.784
18381W        W83641  21.159  28.481  13.990
18382W        W83642  21.853  40.968   3.016
18383W        W83643   2.931   0.470  13.852
18384W        W83644   9.460  27.068   1.256
18385W        W83645   8.217  42.381   1.906
18386W        W83646   8.013   8.468   3.829
18387W        W83647  31.697  20.299   1.405
18388W        W83648  11.150  36.130  10.692
18389W        W83649  10.779  18.111   1.647
18390W        W83650   1.931   3.249  13.084
18391W        W83651  36.082   6.760   0.286
18392W        W83652  11.385  28.640   2.356
18393W        W83653  20.685   2.339   2.212
18394W        W83654  44.760  11.492   2.634
18395W        W83655  30.100  40.536   4.249
18396W        W83656  14.599  17.805   5.020
18397W        W83657  23.530  13.815  14.617
18398W        W83658  34.118  34.236  13.812
18399W        W83659  10.342  42.739   4.562
18400W        W83660  13.390  17.389  11.251
18401W        W83661  17.160   2.054  11.766
18402W        W83662   4.162  12.290   1.470
18403W        W83663  28.888  21.591   0.266
18404W        W83664  43.776  29.121  14.339
18405W        W83665  26.264  32.366   1.911
18406W        W83666  39.495  12.292   1.065
18407W        W83667  32.454  28.139  13.078
18408W        W83668   9.197  36.415   2.114
18409W        W83669   0.476  14.058   2.276
18410W        W83670  22.692  32.524  12.651
18411W        W83671  10.306   3.351   2.353
18412W        W83672  37.388  21.914   0.863
18413W        W83673  39.266  17.605   4.576
18414W        W83674  44.806  10.545   3.089
18415W        W83675  36.514   7.030  14.512
18416W        W83676  31.970  10.910  14.488
18417W        W83677  37.318  11.205  12.612
18418W        W83678  15.392   7.389  13.570
18419W        W83679  11.745   8.841   1.306
18420W        W83680  22.350  44.797   2.826
18421W        W83681  17.502  44.904   4.215
18422W        W83682  17.147   7.677   0.425
18423W        W83683  24.949  25.922   3.763
18424W        W83684  42.461  43.012  14.817
18425W        W83685  32.460  31.375   0.956
18426W        W83686  36.473   4.279   0.956
18427W        W83687  18.227   2.740  13.114
18428W        W83688  14.667  44.464  11.177
18429W        W83689   8.672  37.338  14.219
18430W        W83690   6.081  37.384   1.411
18431W        W83691  35.472  28.011  12.079
18432W        W83692  10.200  44.538   3.296
18433W        W83693  14.779   2.262  12.056
18434W        W83694  41.999  40.185   3.984
18435W        W83695  18.796  18.683   2.320
18436W        W83696  28.213  38.708  12.903
18437W        W83697  39.520   0.546  13.261
18438W        W83698  28.458  22.321  10.763
18439W        W83699  43.263  10.972   4.979
18440W        W83700  32.395  41.108  10.623
18441W        W83701  17.026   4.718  10.340
18442W        W83702  12.364   5.218   4.766
18443W        W83703  26.201   8.608   2.733
18444W        W83704  21.991  23.796   1.693
18445W        W83705  43.660  13.146  13.967
18446W        W83706  19.925  42.486  10.620
18447W        W83707  40.768   9.090  11.695
18448W        W83708  17.676  21.132   2.187
18449W        W83709   2.338   3.171  14.637
18450W        W83710  15.718  21.606   0.535
18451W        W83711  40.913  14.064   1.998
18452W        W83712  13.891  31.876  12.053
18453W        W83713   4.613  38.605  14.918
18454W        W83714  27.202  28.673   1.395
18455W        W83715  39.823  35.779   2.693
18456W        W83716  18.812  29.325   3.375
18457W        W83717  16.148  34.579  11.220
18458W        W83718  41.548   0.694  11.170
18459W        W83719  28.124  44.780   1.424
18460W        W83720  35.014  32.091  10.236
18461W        W83721  29.701   2.306   0.726
18462W        W83722  13.899  24.899  13.296
18463W        W83723  22.220   8.319  12.466
18464W        W83724  19.835  38.362   1.447
18465W        W83725   2.200  20.084  11.465
18466W        W83726  27.659  29.617  10.588
18467W        W83727  30.710  42.300   1.579
18468W        W83728  16.770  43.775   3.709
18469W        W83729  16.517   5.536   2.341
18470W        W83730   8.244   8.793  10.600
18471W        W83731  18.127   6.928   2.327
18472W        W83732  24.917  10.316   0.761
18473W        W83733  44.966   6.327   4.270
18474W        W83734  22.257  23.715   1.256
18475W        W83735  33.115  18.650   0.312
18476W        W83736  11.441  33.155  14.281
18477W        W83737  15.805  15.769  10.258
18478W        W83738   6.857   9.276   3.835
18479W        W83739  15.576  14.799   3.461
18480W        W83740  27.065  20.833  12.337
18481W        W83741   5.235  36.336   1.716
18482W        W83742  32.557  26.376  14.769
18483W        W83743  13.308  31.175   1.720
18484W        W83744  31.411  29.836  12.613
18485W        W83745  17.194   4.615   4.968
18486W        W83746  18.230  15.636   2.303
18487W        W83747  29.136   5.810  13.547
18488W        W83748  12.242  21.996   0.974
18489W        W83749  17.350  15.583  11.984
18490W        W83750  31.995  17.960  12.889
18491W        W83751   1.058  10.932  13.412
18492W        W83752  31.116   8.973  14.041
18493W        W83753  41.046  11.250  14.316
18494W        W83754  43.244  26.973  14.823
18495W        W83755  30.292  21.044  14.928
18496W        W83756  19.517  11.191   1.518
18497W        W83757  13.797   9.774   0.951
18498W        W83758  35.560  30.478  13.265
18499W        W83759  37.790  15.871   3.727
18500W        W83760  20.193  13.602   3.227
18501W        W83761  42.983  41.352   3.120
18502W        W83762  34.272  19.046  13.011
18503W        W83763   8.227  20.264  12.682
18504W        W83764  34.070   3.707   0.007
18505W        W83765   7.388  13.460  12.977
18506W        W83766  17.604   3.379   1.198
18507W        W83767  18.233   8.621   0.538
18508W        W83768   7.770  26.252   5.396
18509W        W83769  17.174   9.335   2.923
18510W        W83770  30.581  42.698   0.382
18511W        W83771  16.685  42.708   1.134
18512W        W83772  27.895  40.371  12.358
18513W        W83773  39.179  38.115   2.189
18514W        W83774  15.222   8.262  10.201
18515W        W83775   5.558  20.096   0.734
18516W        W83776   7.660   8.669  11.537
18517W        W83777  23.021  44.889   3.517
18518W        W83778  41.931  40.750   0.815
18519W        W83779  30.640   8.224   4.131
18520W        W83780  27.674  25.067   1.475
18521W        W83781  20.966   7.228  13.114
18522W        W83782  42.492   6.671   4.545
18523W        W83783  24.042  44.645  13.049
18524W        W83784  25.552  39.060   2.485
18525W        W83785   7.222  25.902  12.867
18526W        W83786  17.010  41.251  12.858
18527W        W83787  34.182  11.349   0.828
18528W        W83788  12.615  38.549  12.924
18529W        W83789   5.299  36.957  12.904
18530W        W83790   1.221  32.120   3.866
18531W        W83791  37.103  37.112  14.306
18532W        W83792  40.748  43.100  12.947
18533W        W83793  10.316   0.748  11.563
18534W        W83794  38.309   1.895  11.914
18535W        W83795   5.938   4.867   1.555
18536W        W83796   1.493  43.270  14.874
18537W        W83797   8.316  43.945  14.833
18538W        W83798  24.633  17.285  10.867
18539W        W83799  16.089  11.541   4.727
18540W        W83800  36.214   9.778  13.133
18541W        W83801   1.911  12.833  12.454
18542W        W83802  16.198  19.258   2.891
18543W        W83803  21.327  37.822  12.289
18544W        W83804  39.918  18.155   2.711
18545W        W83805  22.714  25.471   2.471
18546W        W83806  20.185  36.377  13.953
18547W        W83807  11.885  10.722   0.839
18548W        W83808   2.322   7.660  14.820
18549W        W83809  26.075  24.171   1.339
18550W        W83810  20.092   8.025  11.121
18551W        W83811  19.699  20.252   1.785
18552W        W83812   1.392   7.849   1.715
18553W        W83813  37.955   4.757  14.122
18554W        W83814   9.239   6.772   2.769
18555W        W83815  13.567  38.563  11.515
18556W        W83816   8.032  35.073  12.100
18557W        W83817  35.666  32.926  13.798
18558W        W83818  41.705  25.217   4.211
18559W        W83819  20.046   7.926  12.438
18560W        W83820  22.827  38.172   0.808
18561W        W83821   5.279  29.184  13.435
18562W        W83822  35.960  38.065  12.451
18563W        W83823   0.668   1.225  11.175
18564W        W83824  26.297  24.482  12.532
18565W        W83825   6.263  36.588   0.742
18566W        W83826  28.430  39.336   0.446
18567W        W83827  35.386  38.153   1.196
18568W        W83828  19.152  34.135   0.489
18569W        W83829  20.661   1.746   3.737
18570W        W83830  31.875  19.202   3.674
18571W        W83831  31.149  31.360   0.688
18572W        W83832  16.175  28.150   3.745
18573W        W83833   8.664   9.800   4.602
18574W        W83834  21.452  39.973  11.704
18575W        W83835  31.180  29.639   0.251
18576W        W83836   7.169  24.438   3.742
18577W        W83837  28.257  30.633   4.787
18578W        W83838  26.773  15.313   2.345
18579W        W83839  19.064  42.455  12.400
18580W        W83840  13.035  30.900  11.957
18581W        W83841  30.900  27.955   3.176
18582W        W83842  27.873   4.202  11.476
18583W        W83843   4.680  35.346   4.380
18584W        W83844   7.343   5.164   2.862
18585W        W83845  13.874  18.060   0.907
18586W        W83846  11.242   5.742  13.779
18587W        W83847  38.774  26.770   2.524
18588W        W83848   1.531   8.325   4.059
18589W        W83849  28.565  39.490  14.450
18590W        W83850  37.218  23.806  10.767
18591W        W83851  35.395  39.008   1.849
18592W        W83852  43.326  30.536  14.324
18593W        W83853  24.312  13.961  11.600
18594W        W83854  32.463  17.886  12.599
18595W        W83855  12.904   0.155   3.184
18596W        W83856  39.842  31.939  12.854
18597W        W83857  19.724  41.272   1.893
18598W        W83858  18.783  16.220  12.975
18599W        W83859  32.438  38.862  10.976
18600W        W83860  18.759  30.936  13.776
18601W        W83861  33.539  26.852   0.281
18602W        W83862  12.654  30.084   2.587
18603W        W83863  37.269  28.424  13.474
18604W        W83864  34.055  28.777   2.077
18605W        W83865  20.252  43.816  11.186
18606W        W83866  15.894  17.383   1.023
18607W        W83867  41.897  40.245   0.827
18608W        W83868  11.635  22.517   1.263
18609W        W83869  42.363  31.805   1.320
18610W        W83870  29.127  17.007  11.482
18611W        W83871   5.143  22.554  11.838
18612W        W83872  40.518  34.415   3.139
18613W        W83873  30.943  23.768   2.331
18614W        W83874  38.852  35.412   1.295
18615W        W83875  25.301   3.528   0.246
18616W        W83876   8.955  19.779  10.632
18617W        W83877  26.083  44.733   4.794
18618W        W83878  10.895  28.614  13.393
18619W        W83879  25.925  24.256  12.199
18620W        W83880   2.155   9.976  10.652
18621W        W83881   5.436   4.466   4.634
18622W        W83882  37.901   3.776  12.554
18623W        W83883   7.666   9.743  13.832
18624W        W83884  23.991  16.229  13.855
18625W        W83885   1.475  21.012  14.266
18626W        W83886  39.765  35.033  10.523
18627W        W83887  25.149  42.242  12.513
18628W        W83888  23.031  20.784  10.608
18629W        W83889  35.323   9.150   1.347
18630W        W83890  28.096  15.897  13.422
18631W        W83891  44.043  26.459  14.917
18632W        W83892  23.738  32.911   1.715
18633W        W83893  38.991  33.666   3.870
18634W        W83894  19.386  11.754  13.847
18635W        W83895  19.366   3.739  12.585
18636W        W83896  32.620  25.724   0.330
18637W        W83897  40.912  44.394  12.324
18638W        W83898   3.647   9.319  13.631
18639W        W83899  29.533  15.241  12.840
18640W        W83900  28.141  19.493  12.902
18641W        W83901   3.783   0.002   2.060
18642W        W83902   8.189  31.502   4.493
18643W        W83903  10.084   0.070  12.884
18644W        W83904  33.337  12.398   2.322
18645W        W83905  13.377  12.759  13.762
18646W        W83906  12.842  33.151   0.416
18647W        W83907   5.129  21.034   1.335
18648W        W83908  18.160   1.213  13.008
18649W        W83909  40.949  33.323   4.704
18650W        W83910  17.249  29.512   0.868
18651W        W83911  22.065  27.652   0.611
18652W        W83912  35.327   3.783   3.689
18653W        W83913   9.678  31.605   1.237
18654W        W83914   7.819  21.268  11.002
18655W        W83915  12.945  33.183   2.248
18656W        W83916  19.254  28.951   4.956
18657W        W83917   7.326  44.907  12.089
18658W        W83918   2.386  14.118  10.599
18659W        W83919  12.927  42.557   1.008
18660W        W83920  16.194  13.896  10.800
18661W        W83921  15.423  11.187  12.043
18662W        W83922  12.445   3.979  14.383
18663W        W83923  16.242  42.773  11.283
18664W        W83924  31.707  13.807   0.401
18665W        W83925  42.592  44.260  14.983
18666W        W83926   2.468  38.480  12.099
18667W        W83927  12.049   7.799  12.635
18668W        W83928  15.093  22.157   4.299
18669W        W83929  24.100  30.825   3.641
18670W        W83930  17.679  43.067   1.245
18671W        W83931  17.846  30.495   0.228
18672W        W83932  38.944   8.690  14.506
18673W        W83933  21.245   0.815   4.985
18674W        W83934  13.306  44.367  14.846
18675W        W83935  40.496  37.917  13.851
18676W        W83936  19.170  32.476   3.899
18677W        W83937  43.487  16.234   0.447
18678W        W83938  12.985  44.263  10.615
18679W        W83939   9.195   5.035   2.205
18680W        W83940  39.300  33.526  10.994
18681W        W83941  39.587   1.299   0.669
18682W        W83942  43.520  21.593   1.514
18683W        W83943   3.802   7.796   0.237
18684W        W83944   4.369  31.042   4.258
18685W        W83945   4.808   9.288  13.982
18686W        W83946   2.513  35.676   1.693
18687W        W83947  21.208  33.602  13.546
18688W        W83948  40.145  20.245  13.321
18689W        W83949   1.565   2.698   0.745
18690W        W83950   0.854   8.515  14.858
18691W        W83951   5.326  29.847  12.682
18692W        W83952  23.261   9.166  11.282
18693W        W83953  39.918  20.857  10.712
18694W        W83954  31.716  14.179   2.827
18695W        W83955   7.726   5.297   0.471
18696W        W83956  19.554   1.254  14.363
18697W        W83957   5.217   7.819  14.763
18698W        W83958  21.797   9.884   2.406
18699W        W83959  30.894  31.266   4.307
18700W        W83960  39.811  39.500  11.583
18701W        W83961  27.713  11.098  12.639
18702W        W83962  19.505   4.978   5.000
18703W        W83963  12.226   1.964   1.242
18704W        W83964  42.948   2.270  13.602
18705W        W83965  23.463   3.531  13.336
18706W        W83966  14.772  26.491  13.973
18707W        W83967  28.655  25.329   1.241
18708W        W83968  34.482  21.614   4.678
18709W        W83969  19.679  28.594  14.201
18710W        W83970  13.689  15.174  10.697
18711W        W83971  19.606  25.952   4.489
18712W        W83972  21.006  26.615  14.373
18713W        W83973  28.631  21.219  13.017
18714W        W83974  23.971  25.589  14.846
18715W        W83975  31.691  22.798  12.538
18716W        W83976  19.621  22.265  12.983
18717W        W83977  28.539  29.178   3.200
18718W        W83978   8.824  42.803   2.811
18719W        W83979  11.706  27.919   4.718
18720W        W83980  18.753  23.208   0.324
18721W        W83981  44.056  18.103  11.049
18722W        W83982  42.997   6.853  10.807
18723W        W83983   7.448  35.996  12.446
18724W        W83984  19.770  30.494   0.065
18725W        W83985  37.451  24.982  12.371
18726W        W83986  15.684  35.971   1.306
18727W        W83987  42.890  22.569  13.186
18728W        W83988   8.908   7.783  13.487
18729W        W83989  24.963   9.279   1.696
18730W        W83990  21.687  31.358  14.387
18731W        W83991   4.477  37.374   1.924
18732W        W83992  10.139  39.029   0.748
18733W        W83993  43.589  40.514   3.362
18734W        W83994  36.131  12.614  14.415
18735W        W83995  27.141  29.836   3.184
18736W        W83996  29.336  11.104  13.068
18737W        W83997  26.146  16.781   3.112
18738W        W83998  42.550  15.648   1.582
18739W        W83999  33.385  29.741   5.025
18740W        W84000  14.981  10.466   3.185
18741W        W84001   1.037  11.031  12.093
18742W        W84002  33.017  43.262   4.864
18743W        W84003   5.626   4.413  12.974
18744W        W84004  42.946   4.904  13.075
18745W        W84005  23.130   3.083   1.759
18746W        W84006   1.959  38.970   2.865
18747W        W84007   5.323   8.276  14.574
18748W        W84008  24.888  31.549   1.054
18749W        W84009   5.478  41.401  13.572
18750W        W84010  26.987  37.244   3.619
18751W        W84011   1.769  21.245   3.762
18752W        W84012  38.330  21.080   3.232
18753W        W84013  40.202  14.562  11.508
18754W        W84014  20.126   9.032   1.823
18755W        W84015  37.731  43.818  14.033
18756W        W84016  12.747  44.274  11.568
18757W        W84017   1.011  27.367   0.419
18758W        W84018  28.712  30.876  14.865
18759W        W84019  30.503   5.316  12.872
18760W        W84020  34.125   0.248   0.884
18761W        W84021  24.166  26.605   4.455
18762W        W84022   3.292  18.673  14.789
18763W        W84023   0.762   5.719   2.585
18764W        W84024  44.428  26.750   4.154
18765W        W84025  40.302   3.390   1.165
18766W        W84026  10.202  44.477  14.516
18767W        W84027  41.562  42.955   4.089
18768W        W84028  22.229  37.526   3.240
18769W        W84029  41.300  11.879   9.678
18770W        W84030  38.086  20.789   0.929
18771W        W84031  18.052  39.759   2.300
18772W        W84032  13.670  35.504   2.805
18773W        W84033  43.078   0.454  14.498
18774W        W84034  18.704  44.051  14.112
18775W        W84035   6.973  20.658   3.298
18776W        W84036  38.989   3.204   2.436
18777W        W84037  38.417  37.475   2.459
18778W        W84038  30.345  30.971   4.717
18779W        W84039  11.724  21.244  13.135
18780W        W84040  22.248  15.629   0.265
18781W        W84041  26.547  36.240   3.273
18782W        W84042  44.291   7.365  13.078
18783W        W84043   8.814  44.948   4.532
18784W        W84044  24.910  21.458  14.415
18785W        W84045   5.724   4.732  10.796
18786W        W84046  29.439  41.147  14.459
18787W        W84047  36.163  15.858   2.296
18788W        W84048  14.845   3.299   4.464
18789W        W84049  25.997   5.464  10.232
18790W        W84050  35.127  37.318  11.945
18791W        W84051  24.677  13.614  11.432
18792W        W84052  33.573  26.906  12.494
18793W        W84053  10.694  24.521   1.432
18794W        W84054  29.301  33.523   4.881
18795W        W84055   7.398   4.689   3.085
18796W        W84056   9.785  36.099  10.971
18797W        W84057  40.961  15.074  11.277
18798W        W84058  10.362  12.566  13.935
18799W        W84059  23.829   5.138   2.259
18800W        W84060  17.680  15.088   2.891
18801W        W84061  37.359  37.593  12.964
18802W        W84062  25.619  37.945   4.091
18803W        W84063  15.171  39.100  11.173
18804W        W84064  10.473  44.314  10.639
18805W        W84065  30.234   8.865   3.631
18806W        W84066  28.922  35.550   0.004
18807W        W84067  20.696   2.927  13.328
18808W        W84068   6.265  39.920  13.505
18809W        W84069  38.127   3.717   4.268
18810W        W84070  43.233   4.231  12.553
18811W        W84071   8.644  32.946   3.285
18812W        W84072   6.778  30.916   3.654
18813W        W84073  17.524  32.883   1.307
18814W        W84074  43.799  37.896  10.562
18815W        W84075  18.145  20.419  13.053
18816W        W84076  44.749  34.359  13.902
18817W        W84077  14.214  36.872  13.528
18818W        W84078  19.857  15.644   3.241
18819W        W84079  23.258  39.801  14.647
18820W        W84080  44.039   9.608   3.030
18821W        W84081  16.201  36.063   0.768
18822W        W84082  12.707   4.704   3.699
18823W        W84083  37.038   3.226  14.291
18824W        W84084  19.250  12.405   1.333
18825W        W84085   7.456  34.716  13.009
18826W        W84086  21.723  10.722   1.930
18827W        W84087  24.648  22.484   1.413
18828W        W84088  37.386  21.971   1.905
18829W        W84089   4.833  32.356  10.191
18830W        W84090  23.069  22.654  11.178
18831W        W84091  14.613  27.049   2.372
18832W        W84092   6.061  16.353  12.659
18833W        W84093  39.504  18.887  13.555
18834W        W84094  15.981   1.380   1.836
18835W        W84095   9.307  17.570  14.083
18836W        W84096  37.702  19.665  12.084
18837W        W84097  28.920  26.509   2.366
18838W        W84098  12.586   0.553  14.412
18839W        W84099   6.748  31.857   2.307
18840W        W84100   5.921  21.262   4.607
18841W        W84101  16.078   0.831   2.891
18842W        W84102   5.396  24.101   1.341
18843W        W84103   0.016  18.478  12.457
18844W        W84104  33.977  41.840   4.566
18845W        W84105   2.203  39.905   0.474
18846W        W84106  39.104   1.474  11.827
18847W        W84107  42.097  35.434   3.596
18848W        W84108  35.029   6.404  12.329
18849W        W84109   7.764  21.168   3.278
18850W        W84110  21.719  25.053   1.753
18851W        W84111  24.800  38.124  12.096
18852W        W84112  22.487  15.814   3.047
18853W        W84113  18.225   9.287  11.356
18854W        W84114  27.551  26.118   1.001
18855W        W84115   3.879   7.306   4.493
18856W        W84116   8.398  34.852   0.981
18857W        W84117  25.041  38.610   0.250
18858W        W84118   1.991  19.446  12.522
18859W        W84119  39.275  11.685  12.657
18860W        W84120   8.877  25.626  11.662
18861W        W84121   3.722   3.290  10.873
18862W        W84122  27.007  29.910  12.030
18863W        W84123  38.832   4.866   4.154
18864W        W84124  13.352  21.980  14.906
18865W        W84125  41.291   9.208  11.721
18866W        W84126  25.110  38.847  13.844
18867W        W84127  23.553   5.595   2.297
18868W        W84128  23.769  21.627  11.650
18869W        W84129  21.070  18.897   0.298
18870W        W84130  19.670  19.482  14.754
18871W        W84131  34.907  28.903   2.661
18872W        W84132  14.718  16.307   4.672
18873W        W84133  40.584  38.321  10.528
18874W        W84134  34.421   0.863  10.326
18875W        W84135  39.654  35.473   0.952
18876W        W84136   1.381  28.211  13.268
18877W        W84137  26.664   6.782   2.405
18878W        W84138  30.897   0.782   0.513
18879W        W84139  31.113   6.392  12.732
18880W        W84140  27.822   0.934  12.433
18881W        W84141  24.925  20.077  14.377
18882W        W84142  11.203  11.414  13.888
18883W        W84143   5.390  28.436  13.428
18884W        W84144  43.749  26.686   1.591
18885W        W84145  21.239  15.187  13.650
18886W        W84146  10.763  12.610   3.123
18887W        W84147  16.691  15.114  13.983
18888W        W84148   2.716  35.888   3.894
18889W        W84149  30.342  25.871   0.346
18890W        W84150  17.315  30.366   3.235
18891W        W84151  28.104  24.646  11.911
18892W        W84152  19.508  43.807  14.457
18893W        W84153  30.005  29.223   5.193
18894W        W84154  11.590  21.117   1.387
18895W        W84155  13.848   8.914   3.347
18896W        W84156   1.272  34.854   1.239
18897W        W84157   1.227  41.866  12.574
18898W        W84158  19.143  40.505   0.409
18899W        W84159   3.430   4.865   1.261
18900W        W84160   6.176   3.399   3.204
18901W        W84161  10.271  28.008   2.885
18902W        W84162   7.059   4.492  14.774
18903W        W84163  11.282  36.419   1.954
18904W        W84164  38.434  16.747  13.243
18905W        W84165  42.623  10.829  10.629
18906W        W84166  30.572  10.444   0.853
18907W        W84167  41.449  27.190  11.603
18908W        W84168  13.409  14.098  11.227
18909W        W84169  25.057   5.513  14.404
18910W        W84170  43.397   3.883   1.870
18911W        W84171   1.403  31.704   4.825
18912W        W84172  37.801  25.893   1.093
18913W        W84173  32.992  29.198   1.208
18914W        W84174  33.831   5.345  13.501
18915W        W84175   1.563  44.053   1.475
18916W        W84176  29.100  27.551   0.219
18917W        W84177  11.048  19.754   1.540
18918W        W84178  38.573  23.476   2.132
18919W        W84179   7.829  27.229  13.100
18920W        W84180   2.140  13.191  11.490
18921W        W84181   8.869  33.036   4.962
18922W        W84182  12.437   9.343   0.734
18923W        W84183  37.278   7.174   1.349
18924W        W84184  11.261  32.115  13.453
18925W        W84185  38.565   8.062  14.373
18926W        W84186  19.338  24.284   3.209
18927W        W84187  41.480  36.322  14.976
18928W        W84188  21.293   1.859  14.590
18929W        W84189  38.970  31.329  13.422
18930W        W84190  38.957  34.937   2.180
18931W        W84191   5.149   7.220  12.058
18932W        W84192  20.169   1.734  12.466
18933W        W84193  39.067  32.909  12.094
18934W        W84194   8.960   5.463   4.117
18935W        W84195  41.436  13.210   2.777
18936W        W84196  29.595  25.523  11.958
18937W        W84197  44.383  14.231   3.884
18938W        W84198  15.879  23.742  13.930
18939W        W84199  13.752   3.191   2.192
18940W        W84200  19.740  33.313   1.378
18941W        W84201  28.412   3.386  13.050
18942W        W84202  36.080  19.302  12.481
18943W        W84203  35.029  27.400   2.918
18944W        W84204  35.112   4.827   4.205
18945W        W84205  32.930  28.521  14.323
18946W        W84206  27.217  25.151   1.291
18947W        W84207  37.298   9.065  14.839
18948W        W84208  32.695  39.041  12.779
18949W        W84209   9.713  41.101  11.066
18950W        W84210  41.763  15.703  14.725
18951W        W84211  26.671  14.253  13.533
18952W        W84212  22.429   6.945   1.846
18953W        W84213  19.123  17.039   3.299
18954W        W84214   6.296  24.532   2.248
18955W        W84215  34.069  43.657  13.012
18956W        W84216   1.430   3.852  13.955
18957W        W84217  18.967   0.941  14.010
18958W        W84218  40.036  11.221  14.218
18959W        W84219  18.655  37.326   4.567
18960W        W84220   0.468  15.769   1.669
18961W        W84221  12.033  42.622   1.762
18962W        W84222   5.083   1.239   1.296
18963W        W84223  29.502  28.911   2.809
18964W        W84224  33.423  17.163   1.751
18965W        W84225   8.172  32.436   4.267
18966W        W84226  28.957  12.760  11.461
18967W        W84227  17.413  29.568  12.041
18968W        W84228  26.954   9.817   0.288
18969W        W84229  38.401  25.496  11.559
18970W        W84230   9.192  16.545   0.415
18971W        W84231  36.565  19.934   2.872
18972W        W84232  24.719   6.933   0.397
18973W        W84233  18.880  11.824  13.669
18974W        W84234   3.935  16.175  11.496
18975W        W84235  33.568  42.401   0.874
18976W        W84236  28.471  16.306   4.598
18977W        W84237   1.245   3.725  13.477
18978W        W84238   2.269  25.727  12.903
18979W        W84239  11.670  28.010  11.447
18980W        W84240  41.992  37.835   0.954
18981W        W84241  23.019  29.998  13.027
18982W        W84242  21.605  17.538  10.666
18983W        W84243   2.971  27.574   2.104
18984W        W84244  33.144  37.549   3.290
18985W        W84245  18.646  11.881   3.683
18986W        W84246  12.143  14.518  12.536
18987W        W84247  19.303   9.131   0.450
18988W        W84248  21.500  35.495  10.140
18989W        W84249  10.754  42.820   1.691
18990W        W84250  17.625   3.805  10.659
18991W        W84251  33.615  11.697  14.466
18992W        W84252   2.754  37.760   3.726
18993W        W84253  38.620  35.027  12.749
18994W        W84254  28.265  41.935  10.261
18995W        W84255   1.840  44.515   4.818
18996W        W84256  30.001  40.745  11.532
18997W        W84257   7.406  32.139   3.686
18998W        W84258  44.455  41.425  13.351
18999W        W84259  31.053  26.915   3.219
19000W        W84260  15.077  27.671   4.575
19001W        W84261  16.519  14.074   1.199
19002W        W84262  41.628   4.530   0.296
19003W        W84263  16.515  22.118   3.384
19004W        W84264  41.936   1.500   2.884
19005W        W84265  37.338  40.337  14.947
19006W        W84266  34.386  10.952  13.801
19007W        W84267  36.455  34.863  12.495
19008W        W84268  37.406   9.610  13.884
19009W        W84269  41.977  39.948  10.970
19010W        W84270  33.078  22.010   0.007
19011W        W84271  15.259  41.095   3.775
19012W        W84272  20.556   1.773  12.118
19013W        W84273  43.503  43.917   1.693
19014W        W84274  33.219   9.469  13.893
19015W        W84275   8.226  36.522  12.968
19016W        W84276   7.848   7.838   2.971
19017W        W84277  41.793   3.381  14.959
19018W        W84278  35.522  24.468  12.887
19019W        W84279  22.997   3.783  13.747
19020W        W84280  26.702   2.900   4.722
19021W        W84281  30.657   4.776  11.710
19022W        W84282  14.854  19.140   2.654
19023W        W84283  22.683  31.624   3.359
19024W        W84284  15.312   9.315   1.008
19025W        W84285  35.810  16.658   0.029
19026W        W84286  19.301   8.042   0.079
19027W        W84287  21.271   2.383   3.644
19028W        W84288  43.431  28.649   2.633
19029W        W84289  29.726   6.823   2.034
19030W        W84290  24.747  34.800   3.230
19031W        W84291  42.720  13.750   4.117
19032W        W84292  39.606  44.073  13.797
19033W        W84293   8.882  18.581   3.151
19034W        W84294  33.569  24.044  14.428
19035W        W84295  18.742  10.325   1.758
19036W        W84296  28.994   7.622  13.720
19037W        W84297  16.007  28.746   4.467
19038W        W84298  29.143  38.284  14.823
19039W        W84299  28.715   7.627  14.973
19040W        W84300  38.131  27.456  10.597
19041W        W84301  39.305  33.270   3.704
19042W        W84302  24.552  31.160  10.698
19043W        W84303   0.222  11.718  13.081
19044W        W84304   1.575  35.482  11.215
19045W        W84305  26.535  11.635  13.028
19046W        W84306  11.237  39.434   3.758
19047W        W84307   6.421  31.881  14.029
19048W        W84308  14.686  37.834  10.745
19049W        W84309  41.421   0.007  14.854
19050W        W84310  37.363  12.701   2.856
19051W        W84311  12.829  32.859  11.186
19052W        W84312  24.014  14.800   2.085
19053W        W84313  26.620  21.693  12.132
19054W        W84314   5.836  11.937  13.437
19055W        W84315  15.696  25.041  10.600
19056W        W84316  15.733   1.712  13.039
19057W        W84317  16.650  40.613   0.877
19058W        W84318  44.130  11.449  11.606
19059W        W84319  22.746  23.459   1.406
19060W        W84320  35.172  39.343  12.579
19061W        W84321  40.224  34.023  12.042
19062W        W84322  24.588  16.716   4.104
19063W        W84323  18.722  10.179  10.554
19064W        W84324   7.907  27.025   1.349
19065W        W84325  30.316  15.343   1.528
19066W        W84326   0.845  30.388  13.760
19067W        W84327  10.297  15.220   0.917
19068W        W84328  27.704  41.977  11.953
19069W        W84329  28.758  13.578  12.084
19070W        W84330  43.891  30.392  10.775
19071W        W84331  19.598   2.781   1.915
19072W        W84332  38.040  39.622  14.237
19073W        W84333  28.091  10.065  13.939
19074W        W84334  13.741   9.335  12.065
19075W        W84335   0.533  44.313  12.013
19076W        W84336  18.318  19.448  11.943
19077W        W84337  31.620  36.023  11.240
19078W        W84338   5.416  21.271   2.843
19079W        W84339  39.325   8.606   4.274
19080W        W84340  35.348   6.212  11.050
19081W        W84341  40.054   0.974   4.980
19082W        W84342  25.479  20.306   4.132
19083W        W84343  44.789  11.484   1.382
19084W        W84344  38.878   0.774  13.554
19085W        W84345  32.710   2.589   1.980
19086W        W84346  36.485  44.783   4.945
19087W        W84347  20.825  22.545   5.010
19088W        W84348  39.328  42.661  12.085
19089W        W84349  19.289  31.495  10.754
19090W        W84350  27.112  22.113  10.869
19091W        W84351  22.457  10.452   0.757
19092W        W84352  27.629  31.610   1.389
19093W        W84353   2.720   6.283  11.012
19094W        W84354  23.941   6.379   2.299
19095W        W84355  39.166   6.079  12.446
19096W        W84356  32.904  41.739   2.870
19097W        W84357   0.513  31.600  12.590
19098W        W84358   7.800  35.143  10.733
19099W        W84359   0.695  19.306  13.807
19100W        W84360   9.482  14.126  11.610
19101W        W84361  44.711  30.297  12.012
19102W        W84362  43.835  25.617   3.833
19103W        W84363  26.158  27.132   4.193
19104W        W84364  43.566  25.960   2.264
19105W        W84365   2.807  25.116   1.963
19106W        W84366   1.369  15.071  12.899
19107W        W84367   3.875   9.682  14.471
19108W        W84368   3.204  19.069   3.351
19109W        W84369  22.693  14.917  14.961
19110W        W84370  41.559   0.430   1.661
19111W        W84371  23.571  10.649  11.768
19112W        W84372  18.012  36.920   2.662
19113W        W84373  27.252  20.736  14.226
19114W        W84374  44.433  12.861   1.448
19115W        W84375  32.146  41.483  10.218
19116W        W84376  15.690  13.325   4.640
19117W        W84377  29.073  28.595  13.796
19118W        W84378  26.901  39.348   3.754
19119W        W84379  12.765   3.928  11.522
19120W        W84380  12.877  22.416   3.574
19121W        W84381  29.130  34.910  13.373
19122W        W84382  37.616  37.498   5.071
19123W        W84383  17.031  40.984   0.864
19124W        W84384  18.957  39.459  14.707
19125W        W84385  16.854  22.170  13.668
19126W        W84386  29.861  38.430  10.690
19127W        W84387  23.042  16.113  13.787
19128W        W84388  25.531  25.851  14.092
19129W        W84389  14.191  24.560  11.162
19130W        W84390   1.928  25.973   2.302
19131W        W84391   3.134  44.698  12.970
19132W        W84392  17.707  10.320  11.651
19133W        W84393  16.661  11.759   1.803
19134W        W84394   6.230  25.854  12.056
19135W        W84395   6.284  42.315  11.935
19136W        W84396  23.359  35.503   2.395
19137W        W84397  44.752  42.490  11.253
19138W        W84398  29.967   5.874   1.372
19139W        W84399  18.755  12.529   4.633
19140W        W84400  32.813  44.404   0.764
19141W        W84401  31.918  32.914   2.653
19142W        W84402  40.704   8.044   1.719
19143W        W84403  23.316   1.626  14.942
19144W        W84404  42.379  24.533   1.132
19145W        W84405  24.307  30.052   0.320
19146W        W84406   9.014  36.764   0.384
19147W        W84407   7.997  11.049   0.905
19148W        W84408   0.020  31.952  14.843
19149W        W84409  32.067  10.399   2.702
19150W        W84410  32.036  38.318   2.308
19151W        W84411  27.679  39.661   2.720
19152W        W84412  31.551  44.780   4.159
19153W        W84413  19.822  20.210  12.478
19154W        W84414  29.451  32.541   3.674
19155W        W84415  39.386  20.034   2.366
19156W        W84416  15.339  18.500  11.167
19157W        W84417  14.603  24.277   0.607
19158W        W84418  21.156  31.380   3.710
19159W        W84419  28.448  37.836   1.702
19160W        W84420   1.706  25.480   1.855
19161W        W84421  29.036  44.921   4.020
19162W        W84422  16.679  25.695   1.806
19163W        W84423  25.663  28.068   0.204
19164W        W84424  43.296  26.538  11.996
19165W        W84425  26.110   4.671   0.430
19166W        W84426  36.837  40.462   1.903
19167W        W84427  26.451  31.316  11.095
19168W        W84428  11.806  32.431  14.561
19169W        W84429  20.412  35.407   4.141
19170W        W84430  43.989  19.949   2.142
19171W        W84431  44.632   0.079   5.130
19172W        W84432  32.906  32.046   1.187
19173W        W84433  41.771  25.593   1.203
19174W        W84434  29.196  29.524  14.181
19175W        W84435   8.407   4.080   0.766
19176W        W84436  24.604  24.663   1.434
19177W        W84437  10.730  42.639   1.205
19178W        W84438  44.956  33.411  12.866
19179W        W84439  33.070  38.959   4.145
19180W        W84440   4.806   9.489  14.490
19181W        W84441  38.480  31.545  13.495
19182W        W84442  20.082   0.927   3.572
19183W        W84443  21.998  13.666   1.934
19184W        W84444  11.880  33.446  14.503
19185W        W84445   9.402  32.041  14.346
19186W        W84446  33.671  27.726   3.268
19187W        W84447  22.659  30.494  14.827
19188W        W84448   6.450   9.320   3.529
19189W        W84449   2.517  25.726   0.099
19190W        W84450  39.324  13.327  14.087
19191W        W84451  21.083  11.581   1.675
19192W        W84452  27.018  17.353  14.571
19193W        W84453  17.913   0.368  12.614
19194W        W84454   8.631  10.134  10.739
19195W        W84455  42.316  12.223   0.392
19196W        W84456   1.165  42.373   4.577
19197W        W84457   1.436  42.544   2.192
19198W        W84458  44.838  27.710  11.605
19199W        W84459  32.882  41.288   2.666
19200W        W84460  41.202  28.155  13.770
19201W        W84461  13.581  44.944  12.824
19202W        W84462   0.737  22.673  14.038
19203W        W84463  36.567  41.302   4.644
19204W        W84464  24.934  27.663  12.957
19205W        W84465  34.121  20.837  10.789
19206W        W84466  44.972  35.592   3.342
19207W        W84467  13.410  12.171   1.282
19208W        W84468  40.643  27.593   4.217
19209W        W84469  21.987  43.992  11.460
19210W        W84470   8.484  35.618  14.873
19211W        W84471  17.151  36.467  10.628
19212W        W84472  16.699  39.038   0.792
19213W        W84473   0.465   3.280   1.064
19214W        W84474  22.867  33.629  10.243
19215W        W84475  34.825  34.526   1.805
19216W        W84476  42.588  11.501   2.006
19217W        W84477  41.355   7.087  12.530
19218W        W84478  44.935   6.121  14.157
19219W        W84479   9.164  19.067  12.451
19220W        W84480  43.629   2.765  11.970
19221W        W84481  22.566   1.003   4.541
19222W        W84482  34.587   5.539   1.309
19223W        W84483  17.399  42.618  13.293
19224W        W84484  26.264  43.402   5.013
19225W        W84485  19.666  30.556  14.504
19226W        W84486  30.130  33.630  11.459
19227W        W84487  32.391  17.354   0.449
19228W        W84488   1.060   1.822  10.646
19229W        W84489  16.146  32.607  11.987
19230W        W84490  12.318  41.965  13.881
19231W        W84491   1.990  33.074   3.152
19232W        W84492  40.810   8.862  12.533
19233W        W84493  34.909  30.280  13.401
19234W        W84494  33.127  24.505  11.201
19235W        W84495  30.106  31.156  11.210
19236W        W84496  44.745  44.504  13.670
19237W        W84497  41.080   7.112   0.014
19238W        W84498  33.887  41.545   2.730
19239W        W84499   3.287  32.821  14.983
19240W        W84500   8.874  36.622  13.420
19241W        W84501  41.432  36.998   4.680
19242W        W84502  36.136  17.822  13.382
19243W        W84503  28.779  26.161   5.042
19244W        W84504  27.672  13.292  14.752
19245W        W84505  11.272  28.980  13.455
19246W        W84506  42.327  11.101   3.387
19247W        W84507  42.327  34.442   4.172
19248W        W84508  34.329  32.071  11.467
19249W        W84509  20.685  32.076  14.074
19250W        W84510  23.011  42.801  11.460
19251W        W84511  41.026   2.796   2.618
19252W        W84512  10.078  39.097   0.252
19253W        W84513  21.448  39.725  10.748
19254W        W84514  26.624  37.631  13.074
19255W        W84515  11.157  30.663   4.892
19256W        W84516   7.238   8.335   0.196
19257W        W84517  33.867  17.457  12.598
19258W        W84518   4.799  43.647  14.496
19259W        W84519  20.177  27.104  11.956
19260W        W84520   6.890  23.588  11.425
19261W        W84521  33.039  34.523  13.100
19262W        W84522   6.313  34.583  13.875
19263W        W84523  20.172  40.976   2.132
19264W        W84524  22.148  25.947   0.725
19265W        W84525  13.990  44.846  12.497
19266W        W84526   0.283  41.356  13.896
19267W        W84527  33.124  19.313   2.854
19268W        W84528  37.143  11.316   1.917
19269W        W84529  23.985  41.982   4.904
19270W        W84530  16.915  22.418  14.142
19271W        W84531  38.988  30.325  13.484
19272W        W84532  38.789  41.931   3.120
19273W        W84533  16.849   4.425   4.242
19274W        W84534  12.020  38.561  11.405
19275W        W84535   1.858  11.980   3.338
19276W        W84536  23.618  12.869  11.980
19277W        W84537  37.126  15.111   2.863
19278W        W84538  39.382  12.930  11.387
19279W        W84539   2.481  17.662   2.628
19280W        W84540   5.397  34.192   0.333
19281W        W84541  21.705   7.227  13.841
19282W        W84542  26.991  42.934   1.910
19283W        W84543  14.232  35.629  14.046
19284W        W84544  10.006  41.274   3.324
19285W        W84545  15.242  24.158  14.463
19286W        W84546  27.655  18.668  12.630
19287W        W84547  13.298  31.112   0.899
19288W        W84548  15.102  37.892  10.440
19289W        W84549  40.738   8.839   4.089
19290W        W84550  41.965  16.827   1.874
19291W        W84551  35.142  44.250  12.069
19292W        W84552  30.110  42.706   2.375
19293W        W84553   0.904  36.368  10.716
19294W        W84554  22.527  28.282   0.986
19295W        W84555  35.762  20.838  12.438
19296W        W84556  44.967   5.846  12.028
19297W        W84557  14.224  10.517  12.465
19298W        W84558  31.145  39.339   3.414
19299W        W84559  19.765  24.920   2.751
19300W        W84560   8.859   8.646   3.570
19301W        W84561  38.459  39.012   0.338
19302W        W84562  37.642   1.748  11.669
19303W        W84563  29.600   0.419   3.610
19304W        W84564  44.238  14.285   2.386
19305W        W84565  43.765  35.563  13.479
19306W        W84566   1.949  34.920  12.041
19307W        W84567  27.100  30.835  10.738
19308W        W84568   1.640   1.277  13.406
19309W        W84569  16.131   8.146   2.342
19310W        W84570  23.727  38.395   4.550
19311W        W84571  43.071  15.659  12.940
19312W        W84572  23.690  38.442   1.925
19313W        W84573  20.528  38.337  12.200
19314W        W84574  20.718  32.654  10.565
19315W        W84575  11.678  36.922  11.583
19316W        W84576  29.085  27.385   1.764
19317W        W84577  10.193  41.370  11.554
19318W        W84578  34.406   4.186   0.704
19319W        W84579  16.125  15.197  10.984
19320W        W84580  32.108  18.507  11.062
19321W        W84581  35.652  36.546  14.296
19322W        W84582  41.377  12.812   2.416
19323W        W84583  44.345  30.238  10.144
19324W        W84584   9.152  43.241  11.559
19325W        W84585  34.558  26.933  14.313
19326W        W84586  23.082  36.038   3.954
19327W        W84587   0.342  20.473  13.507
19328W        W84588  38.967  34.578  13.957
19329W        W84589  30.505  12.717   0.410
19330W        W84590  15.676  39.622  11.213
19331W        W84591   7.741   2.358   2.584
19332W        W84592  44.764  31.182  11.018
19333W        W84593  42.505  38.959   3.196
19334W        W84594  22.256  33.839  14.760
19335W        W84595   8.250  14.973  11.569
19336W        W84596  28.011  17.216   2.887
19337W        W84597  34.842   7.440  14.121
19338W        W84598  43.334  18.285   3.165
19339W        W84599  29.132  30.244  14.091
19340W        W84600  35.734  20.776  11.445
19341W        W84601   7.705  38.702   2.352
19342W        W84602   8.469  34.695  13.800
19343W        W84603  41.094   2.419  12.450
19344W        W84604   8.827  27.685  12.420
19345W        W84605  20.162  33.105   2.625
19346W        W84606  33.494   0.484  12.357
19347W        W84607  39.457   4.915  13.903
19348W        W84608  29.995  23.583   3.232
19349W        W84609  10.745  16.516  12.008
19350W        W84610   5.698  14.062   4.263
19351W        W84611   6.737  38.039  14.231
19352W        W84612  40.079   8.257  10.981
19353W        W84613   8.862  20.358  12.012
19354W        W84614  38.468   5.672   1.952
19355W        W84615  24.622  30.457  14.062
19356W        W84616  44.453  19.017  10.213
19357W        W84617  23.854  38.348  12.797
19358W        W84618  39.640   6.167  12.812
19359W        W84619  21.311   3.195  14.893
19360W        W84620  41.397  23.674   0.810
19361W        W84621   4.874  23.584  14.443
19362W        W84622  30.852  23.100  14.104
19363W        W84623  26.399  41.250   4.777
19364W        W84624  15.016   8.625   1.795
19365W        W84625   4.939   6.922  14.304
19366W        W84626  11.050  42.920   3.231
19367W        W84627   1.510  11.042  11.893
19368W        W84628  22.844  33.151   0.870
19369W        W84629  42.020  26.125   1.217
19370W        W84630  10.811  43.961  10.456
19371W        W84631  18.026  13.756   0.371
19372W        W84632  12.712  41.939   1.289
19373W        W84633  40.049  12.158  14.106
19374W        W84634  10.274  18.591  11.399
19375W        W84635  30.400  25.932  12.033
19376W        W84636  38.365   3.369   1.633
19377W        W84637  33.983   6.249   4.906
19378W        W84638  26.956  25.584  13.396
19379W        W84639  13.424  23.495  13.814
19380W        W84640  15.945  30.188  11.619
19381W        W84641   6.399  21.325  10.996
19382W        W84642  23.692   3.447   3.321
19383W        W84643   6.473  44.824   2.283
19384W        W84644  24.761  21.238   0.282
19385W        W84645  36.786  36.458   0.763
19386W        W84646   7.890  31.474  10.732
19387W        W84647   2.006   8.827  11.349
19388W        W84648  32.673  23.059  11.626
19389W        W84649  29.418  21.002  11.929
19390W        W84650  19.603   1.516  13.395
19391W        W84651  41.798  33.116   3.273
19392W        W84652  34.221  28.881  10.658
19393W        W84653  12.590  30.403  14.828
19394W        W84654  33.622  39.320   4.788
19395W        W84655  20.959  35.337   1.318
19396W        W84656  43.928  20.475  13.006
19397W        W84657   4.062  29.019   0.859
19398W        W84658   4.097  15.102  12.369
19399W        W84659  13.537  34.519  12.487
19400W        W84660  34.592  42.133  13.350
19401W        W84661  11.059  17.069   2.350
19402W        W84662  12.134   8.105   0.975
19403W        W84663   9.335  34.983   4.599
19404W        W84664  26.156   8.105   1.224
19405W        W84665  35.389  11.446   3.450
19406W        W84666  27.796  27.020  11.049
19407W        W84667   2.080  22.905  10.795
19408W        W84668  38.229  22.993   4.752
19409W        W84669  12.234  30.967   3.224
19410W        W84670  16.160   1.870  12.287
19411W        W84671  35.787   3.827  13.706
19412W        W84672   8.934  19.191   0.918
19413W        W84673  12.404   0.300   2.545
19414W        W84674  16.223  12.655   3.760
19415W        W84675  13.725  41.010  12.625
19416W        W84676  11.765  27.134   0.827
19417W        W84677   6.538  20.062   0.846
19418W        W84678  11.444   0.400   2.421
19419W        W84679  22.959   0.497   2.494
19420W        W84680  16.907  14.595  10.989
19421W        W84681  26.495  34.618   1.919
19422W        W84682  16.623  39.643  12.670
19423W        W84683  34.669  27.594   4.118
19424W        W84684  13.144   1.794  12.461
19425W        W84685  21.388  21.705  12.151
19426W        W84686  26.040  21.167   3.172
19427W        W84687  24.967   7.785  14.766
19428W        W84688  21.548  31.815  14.569
19429W        W84689  20.722   9.796   2.103
19430W        W84690   6.662  25.457  12.175
19431W        W84691   1.287  28.528  14.059
19432W        W84692   8.896  42.793  11.638
19433W        W84693   1.211  39.594   2.837
19434W        W84694  28.404  17.892  13.782
19435W        W84695   0.172   0.513   2.661
19436W        W84696  36.152  28.458  11.594
19437W        W84697  44.872   8.160   0.877
19438W        W84698   0.188  25.691   0.985
19439W        W84699  41.678  15.265   5.079
19440W        W84700  27.634  24.978  12.536
19441W        W84701  43.456  10.839  11.581
19442W        W84702  23.223  44.509   0.859
19443W        W84703   0.844  12.296   0.080
19444W        W84704  34.308  39.931   3.983
19445W        W84705   4.496  34.906  11.108
19446W        W84706  22.305  44.331   4.725
19447W        W84707   8.966  42.474   0.313
19448W        W84708  29.992  38.274   3.383
19449W        W84709   8.584  34.893   4.097
19450W        W84710  12.129  33.523  11.421
19451W        W84711   8.306  27.435  13.115
19452W        W84712   8.455  29.036   3.631
19453W        W84713  18.964   3.835   1.961
19454W        W84714  26.667  20.366   0.983
19455W        W84715  40.569  42.995   3.091
19456W        W84716  19.569  30.094  10.599
19457W        W84717  25.157  33.169  10.751
19458W        W84718  22.134  26.481  13.768
19459W        W84719  43.919  39.297  10.785
19460W        W84720  24.240  25.230   2.771
19461W        W84721  40.107  40.909  14.864
19462W        W84722   2.218   7.425  11.132
19463W        W84723  11.210  44.410   3.224
19464W        W84724  19.180  42.864  10.535
19465W        W84725   2.362  42.314   0.938
19466W        W84726  33.394   9.477  12.496
19467W        W84727   2.748  18.542  11.650
19468W        W84728  32.474   9.438  11.226
19469W        W84729  24.700  16.005   0.508
19470W        W84730  37.443  32.035   4.982
19471W        W84731  14.665  14.648  13.394
19472W        W84732  24.496  34.842  10.739
19473W        W84733  22.988   1.295   3.006
19474W        W84734  34.205   6.862   2.710
19475W        W84735  36.412   1.376   3.311
19476W        W84736  36.792  36.903   1.874
19477W        W84737  29.179  43.248   2.598
19478W        W84738  43.331  39.761  11.452
19479W        W84739  29.138  12.326  13.298
19480W        W84740  20.714   8.247   0.918
19481W        W84741  28.631  31.174  11.515
19482W        W84742  19.343  30.015  12.169
19483W        W84743  31.007  22.066   0.211
19484W        W84744  26.001  28.531   1.734
19485W        W84745  13.393   3.443  12.654
19486W        W84746   3.028  27.498  12.851
19487W        W84747  42.012  44.718   0.683
19488W        W84748  17.761  35.501   0.130
19489W        W84749   6.789  14.285   2.594
19490W        W84750  39.931  29.591  13.108
19491W        W84751  30.632  11.885   1.794
19492W        W84752  16.273  22.054  11.955
19493W        W84753  10.844  38.853  10.254
19494W        W84754  15.351  32.421  11.575
19495W        W84755   1.919  35.368   4.267
19496W        W84756  27.158  10.981  10.711
19497W        W84757  23.554  23.859  12.627
19498W        W84758  41.332   1.857  14.444
19499W        W84759   2.347   9.019   3.058
19500W        W84760   2.580  32.788   0.983
19501W        W84761  39.788  42.047  14.789
19502W        W84762   8.555  38.486  11.530
19503W        W84763  30.672  44.336   1.675
19504W        W84764  31.517  32.437   1.438
19505W        W84765  22.366  43.875   0.876
19506W        W84766  16.878  15.760  11.923
19507W        W84767   6.682   7.202  11.566
19508W        W84768  27.238  27.968  13.876
19509W        W84769  14.123   8.753   0.782
19510W        W84770  21.064  27.466   0.517
19511W        W84771  11.366   5.989   2.198
19512W        W84772  25.940  22.298   0.332
19513W        W84773  26.229  28.084  11.140
19514W        W84774  22.737  10.171   0.421
19515W        W84775  25.662  29.058  13.127
19516W        W84776  24.742  41.363   3.195
19517W        W84777  21.239  16.698   2.355
19518W        W84778  37.342   0.113  10.826
19519W        W84779  31.931  24.985  11.686
19520W        W84780  44.924  37.759   1.284
19521W        W84781  33.296  14.732   2.555
19522W        W84782  16.517   0.862   4.131
19523W        W84783   6.345  16.636  13.528
19524W        W84784   6.670  26.933   9.696
19525W        W84785  31.949  29.611  12.042
19526W        W84786   7.875  30.569  10.856
19527W        W84787  16.265  19.939  14.990
19528W        W84788   1.870   4.529  12.142
19529W        W84789   1.539   0.017   3.662
19530W        W84790   6.567   4.960   2.153
19531W        W84791  12.307  16.798  14.007
19532W        W84792  17.713   8.026   1.422
19533W        W84793  34.511  20.512   0.376
19534W        W84794   0.448  39.414   0.485
19535W        W84795  35.411  41.770   3.354
19536W        W84796  12.426  33.514   0.483
19537W        W84797  21.707   3.276   3.731
19538W        W84798  24.113  11.938  14.306
19539W        W84799  27.557  19.364  10.141
19540W        W84800  43.372  27.400  10.017
19541W        W84801  32.923  21.326  11.476
19542W        W84802  42.940  18.583   0.332
19543W        W84803   3.845  43.047   1.981
19544W        W84804   6.182  29.658   4.238
19545W        W84805  27.950  37.084   1.580
19546W        W84806  34.565  29.894  14.287
19547W        W84807   3.797   4.641   4.349
19548W        W84808  18.721  22.528   1.422
19549W        W84809  31.757  19.110  14.805
19550W        W84810  30.250   5.924   2.282
19551W        W84811   1.441   7.603   1.259
19552W        W84812  44.785  24.996   0.344
19553W        W84813  25.847  23.630   2.411
19554W        W84814  30.001  37.983  10.456
19555W        W84815   5.727   9.000  13.832
19556W        W84816  10.730  35.848  14.952
19557W        W84817  21.575  11.755  11.101
19558W        W84818  24.751  26.547  14.981
19559W        W84819  39.724   7.757   4.217
19560W        W84820  11.602   0.110  12.853
19561W        W84821  15.906  30.726  10.521
19562W        W84822  31.097  44.844   4.402
19563W        W84823  43.301  23.135   2.077
19564W        W84824   3.892   7.192   3.570
19565W        W84825  31.188   8.176  13.551
19566W        W84826   9.583   8.703   2.900
19567W        W84827  41.587  19.131   2.446
19568W        W84828  13.297   2.967   0.731
19569W        W84829   4.730  33.299   3.330
19570W        W84830  30.360  42.014  10.794
19571W        W84831  38.638  32.995  14.390
19572W        W84832  44.912   7.761   1.695
19573W        W84833  16.458  38.602   0.817
19574W        W84834   8.733  19.529   1.317
19575W        W84835  12.908  16.863   2.292
19576W        W84836   7.824  43.282  12.918
19577W        W84837  10.331  15.170   3.728
19578W        W84838   4.848  28.107  10.539
19579W        W84839  14.574  18.715  14.932
19580W        W84840  16.130  25.543  11.149
19581W        W84841  42.755  43.179   0.311
19582W        W84842  36.050  41.587  12.858
19583W        W84843  38.515  30.626   4.654
19584W        W84844   6.977   8.012  11.200
19585W        W84845  12.960  44.736   4.403
19586W        W84846  20.897  33.097   3.288
19587W        W84847  23.689  36.020  11.921
19588W        W84848  10.791  19.605   1.042
19589W        W84849  44.334  42.050   3.879
19590W        W84850  35.345  34.470   3.644
19591W        W84851  11.728  28.563   0.140
19592W        W84852   6.304  21.672   4.615
19593W        W84853  27.972  25.904  13.375
19594W        W84854  18.800  44.633  13.039
19595W        W84855  16.218   9.222   1.460
19596W        W84856  23.308  29.887  11.131
19597W        W84857  43.540  20.533  13.334
19598W        W84858  40.737  37.460  13.846
19599W        W84859  40.286  41.062  14.364
19600W        W84860  37.067  13.822   3.597
19601W        W84861  10.209  22.307   2.312
19602W        W84862  25.162  44.335   4.694
19603W        W84863  23.190  25.115  13.506
19604W        W84864   3.734  22.285  10.831
19605W        W84865  10.587  38.697   1.630
19606W        W84866  20.509  20.250   2.131
19607W        W84867  24.773  14.565   0.389
19608W        W84868  30.161  13.743   0.275
19609W        W84869  35.755  17.608   3.008
19610W        W84870   9.311  44.440  12.900
19611W        W84871   7.631   0.561  12.429
19612W        W84872  16.621   5.196   4.695
19613W        W84873  20.516  23.042  14.094
19614W        W84874  23.698   6.988  11.231
19615W        W84875  26.833   5.322  13.369
19616W        W84876  27.980  21.219   2.419
19617W        W84877  41.824  24.589   2.816
19618W        W84878   8.797  44.346   2.060
19619W        W84879  41.385  30.806   2.790
19620W        W84880  26.817  21.005   3.685
19621W        W84881  10.697  21.067   2.640
19622W        W84882  11.413  13.730  14.078
19623W        W84883   2.479   9.460  14.476
19624W        W84884  18.649  26.512  11.406
19625W        W84885  34.443   3.577   1.293
19626W        W84886  43.516   6.796  10.686
19627W        W84887  16.071  17.637   2.225
19628W        W84888   5.275  44.510   2.359
19629W        W84889  31.634   2.424  14.763
19630W        W84890  31.645   2.845  13.015
19631W        W84891  30.727  41.444  13.968
19632W        W84892  22.515  39.018   2.138
19633W        W84893  18.180   0.751  10.866
19634W        W84894   4.894  44.872   9.779
19635W        W84895   7.853  33.678   1.026
19636W        W84896  23.459  23.190  12.011
19637W        W84897  13.337  31.469  10.957
19638W        W84898  34.995  31.589  10.978
19639W        W84899  32.862  39.523  12.007
19640W        W84900   2.841  26.624  13.330
19641W        W84901  36.049   2.900   3.398
19642W        W84902  38.343   2.548  12.453
19643W        W84903  24.654  44.239   1.790
19644W        W84904  31.865  20.784   1.301
19645W        W84905   8.138  42.873  13.549
19646W        W84906  15.578  34.927  14.835
19647W        W84907   6.197   9.454  13.057
19648W        W84908  42.986  23.996  11.198
19649W        W84909  40.248  12.562  10.777
19650W        W84910   1.296  40.434  12.519
19651W        W84911   2.652  39.907  11.371
19652W        W84912   2.072   0.737   3.965
19653W        W84913  13.906  18.181  12.417
19654W        W84914  43.508  36.074   3.664
19655W        W84915   3.472  25.575   0.495
19656W        W84916  28.659  25.228   3.125
19657W        W84917   3.839  34.400   4.594
19658W        W84918   4.488  17.072  12.478
19659W        W84919  32.470  18.981   0.397
19660W        W84920   1.212  13.396  11.495
19661W        W84921  33.494  17.705   2.323
19662W        W84922  29.722  28.200  14.874
19663W        W84923   9.984  37.431   1.729
19664W        W84924  34.899  24.789   4.474
19665W        W84925  34.413  28.905   2.841
19666W        W84926  39.440   4.458   2.140
19667W        W84927  44.883  21.308   0.472
19668W        W84928  25.201  10.687  12.728
19669W        W84929  18.252  28.265   4.190
19670W        W84930  15.321   2.237  10.448
19671W        W84931   6.395  22.573  14.199
19672W        W84932   8.709   4.786  14.599
19673W        W84933  32.898  31.158  11.484
19674W        W84934  34.151  30.982  13.485
19675W        W84935  10.974  34.064   2.800
19676W        W84936  39.342  31.404  13.921
19677W        W84937  20.502  38.947   0.342
19678W        W84938  44.185   5.415   0.984
19679W        W84939  23.756  41.064   4.379
19680W        W84940  29.488   1.333   1.831
19681W        W84941   9.570  11.922   0.875
19682W        W84942  28.412  19.953   0.663
19683W        W84943  38.430  29.873   4.147
19684W        W84944  30.557  31.658   4.325
19685W        W84945  11.782   7.695  10.169
19686W        W84946   1.952   3.843  13.912
19687W        W84947  40.475  20.334  11.086
19688W        W84948  23.040   9.836   4.085
19689W        W84949   2.454   8.516   2.949
19690W        W84950  44.577  22.188  12.619
19691W        W84951  23.691  36.819   1.458
19692W        W84952  40.856  24.986  12.451
19693W        W84953  28.089  17.349   3.815
19694W        W84954  19.162  31.494  12.547
19695W        W84955   6.717  34.703  10.733
19696W        W84956  30.390  13.203  13.599
19697W        W84957   8.266  41.264   3.194
19698W        W84958  43.475  44.026  13.775
19699W        W84959  44.529  16.791   1.016
19700W        W84960  44.196  17.173  13.797
19701W        W84961  37.609  14.051  13.619
19702W        W84962   9.383  43.730  11.614
19703W        W84963   3.724  19.988  11.511
19704W        W84964  12.889   4.426  11.623
19705W        W84965  12.823  22.714   1.098
19706W        W84966   0.089  16.760  13.776
19707W        W84967  20.216  33.553  12.692
19708W        W84968  26.037  38.721  11.197
19709W        W84969  14.108  38.336  14.656
19710W        W84970  25.999  30.447  14.878
19711W        W84971  31.145   9.805  14.791
19712W        W84972  42.016  39.500   2.463
19713W        W84973  20.606  36.210   2.719
19714W        W84974  17.111  29.943  12.213
19715W        W84975  23.940  21.241   2.465
19716W        W84976  21.762   9.237   3.239
19717W        W84977  31.376  20.103  13.332
19718W        W84978  29.067  24.628  12.146
19719W        W84979  25.263  12.604   1.374
19720W        W84980  43.485  36.904  12.540
19721W        W84981  26.482   6.326   4.230
19722W        W84982   9.024  30.408   3.241
19723W        W84983  37.157  36.384   0.341
19724W        W84984  40.443  11.979  12.501
19725W        W84985  31.578  43.220   4.237
19726W        W84986   3.388  37.772   3.893
19727W        W84987  28.865  15.295   0.929
19728W        W84988  15.724   9.396  11.566
19729W        W84989  36.980  21.049   2.801
19730W        W84990   9.770  34.717   0.528
19731W        W84991  28.731  31.348   2.785
19732W        W84992  37.142   9.703   4.140
19733W        W84993  31.581   3.233  14.442
19734W        W84994  20.024  42.109  10.963
19735W        W84995  29.837  25.974   9.745
19736W        W84996  15.172  25.515   3.346
19737W        W84997  31.734  28.321   4.157
19738W        W84998  30.912  38.782   0.881
19739W        W84999   4.381  16.595   3.349
19740W        W85000  31.739  40.114   0.713
19741W        W85001  22.111  14.104   1.211
19742W        W85002  23.084  35.986  14.272
19743W        W85003  20.135  20.738   2.870
19744W        W85004  23.974   0.905  12.490
19745W        W85005  30.921  12.913   3.217
19746W        W85006   2.487  17.206  11.608
19747W        W85007  15.621  44.933   0.802
19748W        W85008   8.943  21.563  12.336
19749W        W85009  27.649  21.274  10.362
19750W        W85010  41.566  36.850  13.277
19751W        W85011  29.766  17.260   0.273
19752W        W85012  15.798  28.788   0.395
19753W        W85013  15.315  13.804   4.405
19754W        W85014   0.583   0.447   3.746
19755W        W85015  11.718  18.810   0.860
19756W        W85016  38.343  44.197  13.511
19757W        W85017  43.852  13.681   1.244
19758W        W85018  33.388  42.802  13.446
19759W        W85019  10.251   9.114   0.472
19760W        W85020  39.087   7.298  11.208
19761W        W85021  25.795  32.622   1.971
19762W        W85022  42.392  41.003   0.942
19763W        W85023  25.257  15.780   0.091
19764W        W85024  21.262  44.448  10.486
19765W        W85025   8.683  10.298  14.333
19766W        W85026  42.450   6.439   2.591
19767W        W85027  17.376  10.046   1.693
19768W        W85028  35.334  30.160   4.587
19769W        W85029  11.199   7.401  13.482
19770W        W85030  28.683  14.780  12.538
19771W        W85031   2.418  36.328   5.015
19772W        W85032  40.800  37.839  10.769
19773W        W85033  43.793  16.590  12.467
19774W        W85034   6.695   5.019   2.643
19775W        W85035  20.520  35.421   9.780
19776W        W85036  16.096  32.353   4.153
19777W        W85037  26.052  35.943  10.949
19778W        W85038  10.778   4.333   0.674
19779W        W85039  24.691   0.703   3.438
19780W        W85040  28.269   9.938   3.831
19781W        W85041   7.807   4.917   2.836
19782W        W85042  44.242  38.949   1.201
19783W        W85043  39.354   2.736  11.546
19784W        W85044   3.132  11.300  14.884
19785W        W85045  14.487   3.194  11.104
19786W        W85046  31.408   7.572  14.817
19787W        W85047  39.761  25.172   1.304
19788W        W85048   8.509  10.900  13.079
19789W        W85049  21.659  38.443   0.031
19790W        W85050  13.600  35.911  11.943
19791W        W85051  12.829  28.485  10.618
19792W        W85052   1.715   1.240   0.090
19793W        W85053  35.179  14.848   2.398
19794W        W85054  33.955  28.064   4.169
19795W        W85055   5.175  32.487   0.747
19796W        W85056  34.019   9.936   1.231
19797W        W85057  15.706  30.104  11.170
19798W        W85058   3.918   9.238   3.828
19799W        W85059  33.997  26.373  13.157
19800W        W85060   9.410   0.379  13.099
19801W        W85061  11.734  30.172  12.951
19802W        W85062  23.115   7.375   0.253
19803W        W85063  21.521  32.703   1.266
19804W        W85064   4.707  36.846   3.327
19805W        W85065   8.723  39.636   0.842
19806W        W85066   5.568  38.387   2.144
19807W        W85067   1.821  31.466   3.923
19808W        W85068   8.358   7.639  12.155
19809W        W85069   9.457   4.699  12.284
19810W        W85070  21.214  14.431  14.385
19811W        W85071  39.540   0.378   3.623
19812W        W85072  40.388   2.035   3.753
19813W        W85073  20.638  12.505  11.108
19814W        W85074  26.952  31.978   4.889
19815W        W85075   9.280  25.446  10.714
19816W        W85076  34.042   6.818  11.066
19817W        W85077  25.481   4.335   2.828
19818W        W85078  35.527   6.521  13.449
19819W        W85079  24.585  10.062   3.731
19820W        W85080  27.455  36.166  11.101
19821W        W85081  13.299  40.061  13.434
19822W        W85082  21.955  16.586   0.032
19823W        W85083  34.058  12.841   2.904
19824W        W85084  28.960  26.654   4.996
19825W        W85085  11.310  33.214   2.908
19826W        W85086  32.225  36.300  10.482
19827W        W85087  41.753  19.700   4.033
19828W        W85088   7.637  14.567   0.451
19829W        W85089  44.270  36.951   4.052
19830W        W85090  18.762  24.613  10.750
19831W        W85091   8.271  17.800  13.440
19832W        W85092  43.762   0.555   2.148
19833W        W85093  11.532  33.094  12.625
19834W        W85094  32.699  19.022  13.904
19835W        W85095  26.875  34.098  12.463
19836W        W85096  23.420  40.613   4.333
19837W        W85097  33.467  40.274  13.515
19838W        W85098  16.093  11.742   0.389
19839W        W85099  23.952   9.433  12.080
19840W        W85100  30.017  28.972   3.216
19841W        W85101  42.925   3.425  11.319
19842W        W85102  38.247  14.679  12.501
19843W        W85103  38.354   0.807  13.531
19844W        W85104  43.958  40.680  14.477
19845W        W85105   6.360  26.704  11.920
19846W        W85106  23.189  38.050  13.429
19847W        W85107  29.345   9.571   3.851
19848W        W85108   2.594  10.844   0.732
19849W        W85109   1.226  13.089   0.335
19850W        W85110   1.899  37.856   3.239
19851W        W85111  42.438  41.867   2.276
19852W        W85112  12.170  25.214   3.793
19853W        W85113  10.196  37.163  14.398
19854W        W85114   7.564  35.018   3.235
19855W        W85115  13.178  10.101  14.447
19856W        W85116   0.898  20.188   2.839
19857W        W85117  25.729   8.457   3.219
19858W        W85118  25.972   5.106  12.116
19859W        W85119  40.423  17.010   0.610
19860W        W85120   6.010   7.840   3.660
19861W        W85121  23.585  24.748   2.447
19862W        W85122  33.393  28.655  12.260
19863W        W85123  20.887  18.185   4.527
19864W        W85124  39.950  39.950   1.513
19865W        W85125  19.028  12.080  12.529
19866W        W85126  29.500  29.544   0.063
19867W        W85127  12.428  14.642  14.880
19868W        W85128  32.711  20.296   0.154
19869W        W85129  28.977  33.139   4.123
19870W        W85130   6.758  29.519  10.594
19871W        W85131  33.161  13.557  10.944
19872W        W85132   3.200  12.905   3.637
19873W        W85133  23.435  13.069   3.111
19874W        W85134   4.335  24.614   3.695
19875W        W85135  25.357  10.239  14.192
19876W        W85136   6.857  27.452  10.956
19877W        W85137  29.055  18.972   3.044
19878W        W85138  32.865   9.101   3.205
19879W        W85139  18.738  35.886   4.495
19880W        W85140  16.794  16.080   3.177
19881W        W85141  14.996  27.646  13.406
19882W        W85142  35.137   6.479   3.793
19883W        W85143  32.248   4.268   3.122
19884W        W85144   8.297  29.172  14.238
19885W        W85145  26.820   1.054   3.283
19886W        W85146  29.196  36.029  10.910
19887W        W85147  13.659  27.525   0.635
19888W        W85148  24.559  40.604   2.742
19889W        W85149  36.621  11.645   5.049
19890W        W85150  43.791   5.484   3.884
19891W        W85151  31.967   4.293  12.852
19892W        W85152  29.652  13.904  11.076
19893W        W85153  12.152  18.165  12.855
19894W        W85154  41.779  21.176   0.938
19895W        W85155  25.477  23.229   2.338
19896W        W85156  27.938  22.558  10.646
19897W        W85157  39.002  36.889  11.492
19898W        W85158   7.635   8.112   1.789
19899W        W85159  26.019   4.809   2.607
19900W        W85160  12.090  13.325   3.769
19901W        W85161  24.586  29.463  10.740
19902W        W85162  22.203   5.965  14.331
19903W        W85163  17.333  35.335   1.543
19904W        W85164  16.786  43.038   0.600
19905W        W85165  18.966  12.123   4.976
19906W        W85166  13.823  14.678  10.729
19907W        W85167  37.589  44.084   2.800
19908W        W85168   5.921   8.148   3.241
19909W        W85169  42.840  23.194   1.878
19910W        W85170  41.562   3.280  14.475
19911W        W85171  15.836  26.504  11.663
19912W        W85172  17.007  41.487  11.560
19913W        W85173  40.900  30.014  13.842
19914W        W85174  12.711  41.541   4.736
19915W        W85175  10.215  44.288  14.009
19916W        W85176  12.242   2.890   1.292
19917W        W85177  37.475   6.870   4.658
19918W        W85178  40.601   0.335   4.248
19919W        W85179  16.545  27.256   2.653
19920W        W85180   7.774  34.045  14.042
19921W        W85181  18.324  34.457   2.191
19922W        W85182  26.198  42.424   1.726
19923W        W85183  36.116   1.398  13.337
19924W        W85184   0.300  11.958   1.743
19925W        W85185  37.935  19.743  10.859
19926W        W85186  24.225   6.854  14.624
19927W        W85187  10.900  25.545   4.035
19928W        W85188   7.594  17.585   2.520
19929W        W85189  33.370   0.126   1.128
19930W        W85190  36.048  19.827  12.482
19931W        W85191  43.016  33.647  11.506
19932W        W85192  27.199  29.376  10.652
19933W        W85193  11.205   0.768   2.708
19934W        W85194  12.767  23.927  14.834
19935W        W85195   9.277  28.703  10.311
19936W        W85196  41.435   0.979   1.577
19937W        W85197  28.140   2.598  11.228
19938W        W85198   0.698  29.987   1.380
19939W        W85199  17.768  10.514  12.449
19940W        W85200  33.018  29.881   5.379
19941W        W85201  43.902   2.319   2.582
19942W        W85202   8.443  17.244  10.707
19943W        W85203  11.814  18.061  13.375
19944W        W85204  31.986  32.407   1.231
19945W        W85205  44.179  23.277  12.948
19946W        W85206  29.896  13.651   0.738
19947W        W85207  20.486   4.758   2.300
19948W        W85208  32.407  27.923  10.308
19949W        W85209  27.262  14.191  11.880
19950W        W85210  37.537  30.049  10.772
19951W        W85211  25.780   9.116  10.450
19952W        W85212  30.619  26.838  10.266
19953W        W85213  32.889   3.624  11.616
19954W        W85214  12.297  29.499   4.694
19955W        W85215  15.085  18.382  11.611
19956W        W85216  28.933  35.285  14.018
19957W        W85217  26.457  38.580  13.273
19958W        W85218  27.242  29.166  14.807
19959W        W85219  43.719  43.183   1.328
19960W        W85220  28.853  15.315   1.908
19961W        W85221  14.868   9.978  14.039
19962W        W85222  37.072   1.480   1.686
19963W        W85223  41.177  26.404  12.588
19964W        W85224  24.536   2.804  13.731
19965W        W85225  10.682  20.916   5.253
19966W        W85226  31.570  29.179  13.958
19967W        W85227  44.909  24.784  12.519
19968W        W85228  40.305  33.028  11.511
19969W        W85229  34.960  33.070  12.585
19970W        W85230   5.315  41.763   4.748
19971W        W85231  20.294   3.772   1.350
19972W        W85232  29.534  22.460  13.772
19973W        W85233   6.248  37.885  10.990
19974W        W85234  13.234   4.672  10.733
19975W        W85235  23.548  10.102  10.040
19976W        W85236   4.146   7.272   1.791
19977W        W85237  20.175  25.725  11.418
19978W        W85238  43.387   1.211  12.803
19979W        W85239  30.425  17.759   2.380
19980W        W85240  11.659  36.228  11.636
19981W        W85241   5.394   5.240  11.071
19982W        W85242  39.445  31.472   2.134
19983W        W85243  11.696  39.815  12.359
19984W        W85244  14.240  34.377   3.085
19985W        W85245  42.919  23.606  10.777
19986W        W85246  37.623  33.086   0.463
19987W        W85247  30.074   5.230  12.537
19988W        W85248   1.549  28.504  11.108
19989W        W85249  27.222   5.362  14.964
19990W        W85250  38.518  38.056   2.814
19991W        W85251  44.452  29.212   4.404
19992W        W85252   7.929  32.903  12.588
19993W        W85253  19.385   8.150   3.250
19994W        W85254   8.776  25.304   0.483
19995W        W85255  41.401  28.901  14.212
19996W        W85256  22.536  15.364  13.645
19997W        W85257  33.995   2.888  14.758
19998W        W85258  23.492  37.570   2.817
19999W        W85259   2.429  10.555   3.588
20000W        W85260  16.540  36.985  11.641
20001W        W85261  36.093  27.250  10.269
20002W        W85262  44.492  12.998   5.071
20003W        W85263  32.742   4.800   3.662
20004W        W85264  18.092  16.586   2.452
20005W        W85265   9.035   8.223   2.411
20006W        W85266  23.697  42.891  13.293
20007W        W85267   9.221  41.822   3.109
20008W        W85268   5.127  23.766   2.292
20009W        W85269   0.701  30.980   4.563
20010W        W85270  28.225  22.288   1.354
20011W        W85271  40.095  17.494   2.747
20012W        W85272  44.164  15.156   0.828
20013W        W85273   3.238   1.970  11.560
20014W        W85274  21.212   2.769   2.756
20015W        W85275   3.283   8.498   4.613
20016W        W85276   1.755  18.555   0.194
20017W        W85277  22.741   7.296   1.284
20018W        W85278   3.306  33.348   5.257
20019W        W85279  28.739   7.687   2.690
20020W        W85280  13.639   9.064  11.297
20021W        W85281  38.462   4.346  14.819
20022W        W85282  15.388  29.720   0.632
20023W        W85283   3.253  37.776  12.050
20024W        W85284  25.731  25.282  10.581
20025W        W85285   7.146  41.502   1.963
20026W        W85286  21.580  23.168   4.909
20027W        W85287   6.911   9.085  12.032
20028W        W85288  29.974  26.709  11.684
20029W        W85289   8.439  12.081  13.324
20030W        W85290  27.398  25.976  12.653
20031W        W85291  21.531  30.506  14.003
20032W        W85292   0.099   3.946   4.569
20033W        W85293   8.155  27.331  12.282
20034W        W85294   3.711  35.235  12.129
20035W        W85295   9.799  31.370  12.957
20036W        W85296  22.991   6.242  13.677
20037W        W85297  38.354   6.886  12.904
20038W        W85298  36.760  26.083  11.544
20039W        W85299  25.197  14.953   4.230
20040W        W85300  32.987  27.113   4.398
20041W        W85301  15.225  12.435  13.086
20042W        W85302  14.026  32.823  14.149
20043W        W85303  43.288  23.045   0.162
20044W        W85304  16.467  15.075  11.668
20045W        W85305   8.728   4.419  13.395
20046W        W85306  38.188  38.313  14.771
20047W        W85307  18.865   8.948  11.128
20048W        W85308  31.772  27.058  11.462
20049W        W85309  22.621  34.881   1.106
20050W        W85310   8.177  40.031  13.340
20051W        W85311  27.141  15.484   2.677
20052W        W85312  44.725  16.315   3.092
20053W        W85313  10.764  35.474  11.047
20054W        W85314   1.483  22.005  13.316
20055W        W85315  36.934  10.388   2.826
20056W        W85316  28.681  22.553   0.390
20057W        W85317  22.219  23.386  11.536
20058W        W85318  12.223   5.707  10.219
20059W        W85319   6.340  26.688   0.351
20060W        W85320  22.217   2.354  10.800
20061W        W85321  30.597   7.487   4.856
20062W        W85322  27.936  27.577   0.731
20063W        W85323  13.648  38.474  14.483
20064W        W85324  27.990  43.953   4.869
20065W        W85325   7.244  10.655   4.351
20066W        W85326  11.413  43.793   2.190
20067W        W85327  28.041  39.884   0.279
20068W        W85328   8.860  41.700  13.902
20069W        W85329  30.314  38.851  13.450
20070W        W85330  25.640  35.933   1.852
20071W        W85331  15.551  21.639   1.040
20072W        W85332  17.217  14.358   1.246
20073W        W85333  32.088  36.836   4.652
20074W        W85334  31.659  10.678   2.101
20075W        W85335  10.229  21.099   2.408
20076W        W85336   9.317  15.474   3.649
20077W        W85337  43.572   7.723   2.172
20078W        W85338  41.888  32.831   3.706
20079W        W85339  16.045   6.885   4.298
20080W        W85340   2.790  35.333  13.722
20081W        W85341  39.028   3.920   4.313
20082W        W85342  26.194  25.898   4.706
20083W        W85343  22.485  19.815   4.689
20084W        W85344  21.037   1.950   3.428
20085W        W85345  34.843   0.532   3.590
20086W        W85346   1.892   6.920  14.989
20087W        W85347  20.190  18.680   3.233
20088W        W85348  27.572  38.566   3.715
20089W        W85349   7.322  21.937  12.500
20090W        W85350   6.679  33.402   4.262
20091W        W85351  18.613   7.832  13.353
20092W        W85352   1.741  44.329  10.694
20093W        W85353  11.334  37.729   3.207
20094W        W85354   7.734   0.798  11.439
20095W        W85355  14.039  24.521   1.817
20096W        W85356  12.617  19.491  11.113
20097W        W85357   2.310  41.949   3.630
20098W        W85358   8.823  10.137   1.880
20099W        W85359  13.754  21.689  11.913
20100W        W85360  40.267  20.343   1.280
20101W        W85361  22.224   6.092  10.818
20102W        W85362  27.549  43.304  10.933
20103W        W85363  13.069  16.809  14.986
20104W        W85364  12.134  13.572   3.306
20105W        W85365  31.496  10.580  10.779
20106W        W85366   2.168  27.576   1.756
20107W        W85367  14.139  11.134   1.142
20108W        W85368  22.677  10.926  12.808
20109W        W85369  12.312   9.098  14.602
20110W        W85370  10.851  27.205   0.899
20111W        W85371   5.450   4.577   3.594
20112W        W85372  26.360  27.307   3.756
20113W        W85373  31.127  22.672  11.926
20114W        W85374  17.687   6.955   1.928
20115W        W85375  17.202  12.330  11.433
20116W        W85376  19.968  33.615   0.002
20117W        W85377  44.868  14.548   0.948
20118W        W85378  27.275  28.772   3.193
20119W        W85379  10.427  16.855   2.993
20120W        W85380   3.970  38.867  10.040
20121W        W85381  39.042  12.129   2.833
20122W        W85382  26.637  42.799  11.187
20123W        W85383  44.627  39.355  10.394
20124W        W85384  16.695  44.868  11.111
20125W        W85385  44.380  29.759   1.453
20126W        W85386  18.554  10.995  13.435
20127W        W85387  27.128  12.231   0.567
20128W        W85388  13.691  16.259  13.328
20129W        W85389  33.563  31.739   2.333
20130W        W85390  13.819  13.115  12.083
20131W        W85391   9.657   1.431  13.484
20132W        W85392  10.555  13.485   5.132
20133W        W85393   2.311  34.832  14.792
20134W        W85394  12.366  18.625  12.986
20135W        W85395  27.889  43.103   4.390
20136W        W85396  35.591   9.641   3.134
20137W        W85397  22.076   3.671  10.392
20138W        W85398  19.971  15.580   4.156
20139W        W85399  15.282   7.691   0.806
20140W        W85400   5.153  33.463   1.700
20141W        W85401  27.571   5.428  14.580
20142W        W85402  40.307  26.371  11.990
20143W        W85403  12.679  27.617  13.534
20144W        W85404  10.821  14.633  14.738
20145W        W85405  10.643  43.914  13.467
20146W        W85406  33.562  15.137   2.778
20147W        W85407  40.476  19.742   3.546
20148W        W85408  16.666  31.345   2.357
20149W        W85409  30.611  25.012   0.300
20150W        W85410  32.454  34.817  11.695
20151W        W85411  21.708  38.094   2.559
20152W        W85412   5.145  37.873   0.432
20153W        W85413  29.089  24.656   4.009
20154W        W85414  15.546  10.895   1.961
20155W        W85415  35.599  26.237   5.299
20156W        W85416   1.534   1.939  14.987
20157W        W85417  29.979   2.190   3.637
20158W        W85418  18.570  25.710  13.153
20159W        W85419  16.732  37.437   2.874
20160W        W85420   8.330  19.706   4.074
20161W        W85421  15.714  22.956  14.772
20162W        W85422  28.456   6.593  12.492
20163W        W85423  43.333  33.801  13.410
20164W        W85424  24.154  40.607  14.531
20165W        W85425  34.543  26.457   2.747
20166W        W85426  19.519  30.215  11.568
20167W        W85427  33.644   7.898  13.363
20168W        W85428  17.808   1.483  12.712
20169W        W85429  37.597  19.798   2.187
20170W        W85430  30.069   7.914  12.017
20171W        W85431   8.497   8.723  12.528
20172W        W85432  23.995  39.050   3.234
20173W        W85433  13.395   5.419   3.630
20174W        W85434  18.089  25.195   2.364
20175W        W85435  10.972  37.776  11.128
20176W        W85436  16.355   7.352  14.296
20177W        W85437  29.657  27.484  12.267
20178W        W85438  21.095  37.579  13.961
20179W        W85439  14.877   0.898  13.986
20180W        W85440  26.713  10.685   3.151
20181W        W85441  39.879  10.196   1.291
20182W        W85442  22.743  32.034  12.479
20183W        W85443  42.349   7.075   1.760
20184W        W85444  18.595  18.565  14.048
20185W        W85445  28.576  16.655  14.843
20186W        W85446   0.241  43.567   1.301
20187W        W85447  16.218  18.543  12.377
20188W        W85448   9.656  35.483  12.578
20189W        W85449  24.216  28.405   1.212
20190W        W85450   4.274   8.301  12.568
20191W        W85451  17.483  42.899   2.172
20192W        W85452  36.891  31.540   3.375
20193W        W85453  41.768  20.169   3.839
20194W        W85454  26.215  30.752  11.751
20195W        W85455  10.729  38.043   2.171
20196W        W85456  34.383  34.320   4.283
20197W        W85457  17.931  12.684   4.520
20198W        W85458  44.900  35.121   0.273
20199W        W85459  40.080   7.342  13.032
20200W        W85460   3.399  19.161   1.356
20201W        W85461  10.176  34.565  12.097
20202W        W85462  12.060  29.579  11.809
20203W        W85463  20.656  12.987   4.615
20204W        W85464  15.005  25.040  14.029
20205W        W85465  25.846  37.372   4.753
20206W        W85466  31.317  30.579   1.539
20207W        W85467   4.668   3.013  11.035
20208W        W85468  32.087  22.167  10.252
20209W        W85469  29.431   0.103  14.413
20210W        W85470  31.558  31.151   2.320
20211W        W85471  37.811  27.572   4.601
20212W        W85472   5.494  17.282  12.697
20213W        W85473  18.407  44.661   0.849
20214W        W85474  31.143   0.185  13.626
20215W        W85475  15.080  18.865  11.462
20216W        W85476   7.335  41.952  11.432
20217W        W85477  38.758  28.349   2.366
20218W        W85478   0.548  12.227   0.532
20219W        W85479  27.716   5.440  11.541
20220W        W85480  40.741   2.323   1.398
20221W        W85481  16.127  42.892   1.867
20222W        W85482  30.028  15.286  12.802
20223W        W85483  17.759  34.335   2.203
20224W        W85484  24.150  33.146  13.468
20225W        W85485  17.209  44.999  10.305
20226W        W85486   1.164  36.203   5.045
20227W        W85487  12.636   3.256   1.336
20228W        W85488  11.810  36.436   1.190
20229W        W85489  12.262  43.026  12.515
20230W        W85490   5.001   4.752  14.809
20231W        W85491  19.733  38.235  12.576
20232W        W85492  38.849  11.992   4.993
20233W        W85493  29.265  32.068   1.248
20234W        W85494  23.653  23.025  12.917
20235W        W85495   3.792  23.564  11.981
20236W        W85496  26.468  34.843  13.555
20237W        W85497  23.262  19.833   1.088
20238W        W85498  21.485  10.542   4.718
20239W        W85499  39.384   0.902  14.916
20240W        W85500  11.532  27.582  10.159
20241W        W85501  19.418   7.490   1.334
20242W        W85502   8.236  39.337   1.802
20243W        W85503  32.955  16.176  10.834
20244W        W85504   7.796  40.355   4.658
20245W        W85505  31.517  39.554   3.721
20246W        W85506  35.821  41.496   1.641
20247W        W85507  31.958  24.213  13.547
20248W        W85508  33.352  35.322  14.278
20249W        W85509  20.512  29.824  10.676
20250W        W85510  15.793  17.100   0.581
20251W        W85511   1.538  10.968  11.062
20252W        W85512  14.771  24.688  12.369
20253W        W85513  29.082  40.455   0.548
20254W        W85514   2.465  18.886   2.898
20255W        W85515  23.673  18.833   0.744
20256W        W85516  16.165  31.313   3.127
20257W        W85517  42.653  17.112  13.257
20258W        W85518   8.219  18.545  14.750
20259W        W85519   1.247  20.565   3.870
20260W        W85520  38.834  27.869  13.291
20261W        W85521  14.069  16.869  11.172
20262W        W85522  22.771  27.085   2.371
20263W        W85523  19.784  11.984   5.129
20264W        W85524   4.918  43.996  10.957
20265W        W85525   3.949  40.230   0.924
20266W        W85526  34.607   4.900  12.429
20267W        W85527  40.856  18.727   2.126
20268W        W85528  30.578  20.672   2.929
20269W        W85529  32.368  40.356   2.275
20270W        W85530  16.688  18.598  12.749
20271W        W85531  15.155  13.989   0.873
20272W        W85532  39.106   4.161   3.366
20273W        W85533  14.798   2.299  13.046
20274W        W85534  23.734  27.134   4.500
20275W        W85535  27.120  26.172   1.304
20276W        W85536   2.498   4.657  14.811
20277W        W85537  16.030  30.707  11.017
20278W        W85538   4.838  12.315  12.349
20279W        W85539  36.717  39.381   2.649
20280W        W85540   8.768  12.829   0.506
20281W        W85541  29.972  18.122   4.098
20282W        W85542  16.813   1.253  14.248
20283W        W85543  30.741   8.816   3.673
20284W        W85544   1.879  43.966   2.316
20285W        W85545  32.442  43.477  14.776
20286W        W85546  14.309  37.428  10.012
20287W        W85547  29.171  41.702  12.984
20288W        W85548  40.341  16.666  14.233
20289W        W85549  35.566  28.397   2.379
20290W        W85550  30.752  13.551   1.541
20291W        W85551  40.384  11.582  10.709
20292W        W85552   5.200  28.511   0.855
20293W        W85553  17.182  15.299   0.713
20294W        W85554  26.149  14.308   3.221
20295W        W85555  26.026  18.391   0.181
20296W        W85556  29.222  31.228   3.567
20297W        W85557  19.694   9.980   5.045
20298W        W85558  44.515   8.845  14.216
20299W        W85559   2.993   6.317   0.578
20300W        W85560  26.835   0.319   4.437
20301W        W85561   1.056   6.069   5.053
20302W        W85562   7.128  29.658  10.254
20303W        W85563  19.474  43.801  12.229
20304W        W85564  44.349  26.749   3.356
20305W        W85565  42.846   4.404   3.390
20306W        W85566   9.684  17.082   0.915
20307W        W85567  43.363  31.394   4.840
20308W        W85568   1.441   5.225   2.218
20309W        W85569  12.176  24.416   4.158
20310W        W85570   4.876  39.252   0.421
20311W        W85571   7.677  10.701   4.070
20312W        W85572  41.512  16.737   0.308
20313W        W85573  38.324  13.954   4.433
20314W        W85574  16.624   3.157   1.793
20315W        W85575  41.422  36.018  11.103
20316W        W85576   5.274   2.914   2.125
20317W        W85577  20.104  29.711  13.028
20318W        W85578   2.526   8.083  11.925
20319W        W85579   6.146  18.749  12.643
20320W        W85580   2.724   1.888  11.565
20321W        W85581  13.341  26.598  12.853
20322W        W85582   0.270  10.716   1.748
20323W        W85583  20.728   0.433   1.443
20324W        W85584  36.842   0.743  13.538
20325W        W85585  23.052   5.379   1.173
20326W        W85586  28.533  41.241   4.247
20327W        W85587  37.074  28.331   1.750
20328W        W85588   3.741   0.280  14.354
20329W        W85589  21.984  38.331   2.155
20330W        W85590  42.809   0.450  11.928
20331W        W85591  15.976  13.317   0.966
20332W        W85592  18.290  20.589  10.281
20333W        W85593   1.687   2.269   2.787
20334W        W85594  17.069  13.096   3.661
20335W        W85595  19.259  21.136  11.865
20336W        W85596   2.970  12.417   1.843
20337W        W85597  30.233  33.921   3.225
20338W        W85598   3.425  14.854   0.422
20339W        W85599  41.964  36.384  14.285
20340W        W85600  44.920  19.216   0.377
20341W        W85601  19.662  27.651   0.814
20342W        W85602  22.887  31.834   5.015
20343W        W85603  15.696   7.200   3.163
20344W        W85604   8.950  35.797  10.502
20345W        W85605  12.523  32.886   1.776
20346W        W85606  17.458   2.937   0.965
20347W        W85607  36.599  25.066   1.707
20348W        W85608  27.925  23.597  11.885
20349W        W85609  35.330  18.237   0.856
20350W        W85610  17.621  11.676   0.012
20351W        W85611   3.394  32.939   2.579
20352W        W85612  40.772  34.974  12.892
20353W        W85613  15.541  38.854  13.994
20354W        W85614  35.809   4.576  14.430
20355W        W85615   5.409  13.348   4.044
20356W        W85616  41.456  32.091  13.537
20357W        W85617  17.461  43.730   0.462
20358W        W85618  13.677  34.516   1.843
20359W        W85619  24.911  38.023   2.836
20360W        W85620  10.906   4.468  13.197
20361W        W85621  38.684  34.456  13.559
20362W        W85622   3.741  10.343   4.767
20363W        W85623  40.184  38.831   5.100
20364W        W85624  37.554  15.656  10.765
20365W        W85625  14.559  40.724   3.015
20366W        W85626   0.592   0.050   1.431
20367W        W85627  26.192  40.546  11.210
20368W        W85628  30.472  35.265  12.579
20369W        W85629  37.785   6.235   3.529
20370W        W85630  10.762  19.996   1.911
20371W        W85631  14.726  42.993   0.830
20372W        W85632  44.223  35.073   5.408
20373W        W85633  13.611  38.508   4.232
20374W        W85634  15.189  30.026   1.938
20375W        W85635   5.095  17.647  13.809
20376W        W85636  32.702   6.466   3.720
20377W        W85637  39.275  38.461   3.711
20378W        W85638  12.657   5.284  12.555
20379W        W85639  19.122  26.057  14.525
20380W        W85640  42.522   4.332   1.779
20381W        W85641  14.279  28.531   2.178
20382W        W85642   4.379  21.718   3.866
20383W        W85643   9.425  27.924  13.079
20384W        W85644  22.151   9.809  11.462
20385W        W85645  10.613  44.485  12.125
20386W        W85646  43.033  12.609   2.679
20387W        W85647   6.907  31.525   4.132
20388W        W85648  32.399  24.274  11.606
20389W        W85649  32.369   0.844  11.089
20390W        W85650  28.539   9.813   3.346
20391W        W85651  34.962   6.052   0.776
20392W        W85652  15.681  33.115   1.859
20393W        W85653  39.983   4.842  13.890
20394W        W85654  23.975  15.276   2.359
20395W        W85655  25.618   2.298  10.702
20396W        W85656   2.715   5.656   1.434
20397W        W85657   3.267  40.344  14.756
20398W        W85658  38.824   2.859  12.732
20399W        W85659  33.024  30.139  13.623
20400W        W85660   3.804  44.442  13.395
20401W        W85661  39.623  19.186   2.068
20402W        W85662  32.360  33.601  12.060
20403W        W85663  19.178  35.526  14.477
20404W        W85664  35.823  38.526   2.895
20405W        W85665  22.352  35.870   2.316
20406W        W85666   9.619  34.558   2.854
20407W        W85667   8.941  36.547  14.767
20408W        W85668   3.472  18.528  11.184
20409W        W85669  36.994  44.308  10.789
20410W        W85670  27.147  44.849   0.260
20411W        W85671  35.666   5.511  11.746
20412W        W85672  17.866  26.897  12.459
20413W        W85673  30.118  33.395  13.029
20414W        W85674  12.848  42.021   2.198
20415W        W85675  20.225   0.715  12.498
20416W        W85676  37.009   9.153  11.721
20417W        W85677  14.778  33.755  10.102
20418W        W85678  25.435  31.533  13.504
20419W        W85679   4.381   6.665  13.085
20420W        W85680  32.232  37.133  10.794
20421W        W85681   2.816   0.459  13.352
20422W        W85682   1.886  33.363   3.599
20423W        W85683  12.288  41.512  11.656
20424W        W85684  42.279   5.409  12.403
20425W        W85685   0.807  41.872  14.500
20426W        W85686  32.142  34.034  12.250
20427W        W85687  30.782  10.560   0.352
20428W        W85688  14.563   1.208  13.152
20429W        W85689  17.100  32.675   4.500
20430W        W85690  11.890   9.068  12.024
20431W        W85691  16.196  16.406  11.364
20432W        W85692  32.033  10.453  10.679
20433W        W85693  27.007   1.949  12.943
20434W        W85694  35.611  31.921  13.281
20435W        W85695  35.152  29.563   2.124
20436W        W85696  12.255  34.607   4.284
20437W        W85697  32.115  11.363  10.771
20438W        W85698   0.313  15.066   9.731
20439W        W85699  14.160  28.542  12.813
20440W        W85700   3.806  18.355   2.239
20441W        W85701  16.093  40.163   3.764
20442W        W85702  23.182  26.861  13.114
20443W        W85703  41.605  18.980   0.431
20444W        W85704  38.907  11.499  13.917
20445W        W85705  18.071   0.407  11.234
20446W        W85706  19.616  38.527  11.549
20447W        W85707  25.153   0.025  14.043
20448W        W85708  21.097   0.765  13.767
20449W        W85709  35.901  14.750  12.812
20450W        W85710  21.604  16.680   0.693
20451W        W85711  12.286  35.877   4.912
20452W        W85712  11.804  19.812   1.164
20453W        W85713   6.203  23.029   4.360
20454W        W85714  44.777  36.930   4.103
20455W        W85715  17.606  39.942   0.026
20456W        W85716  35.749  23.709  10.923
20457W        W85717  16.252  28.487   0.316
20458W        W85718  37.007   3.262  12.856
20459W        W85719  19.819  42.287  12.889
20460W        W85720  20.676  35.984  14.765
20461W        W85721  13.261  21.313   2.281
20462W        W85722   7.890  43.288  13.784
20463W        W85723   8.375   8.642  12.048
20464W        W85724  31.526   8.558   2.323
20465W        W85725  16.756  42.552   2.790
20466W        W85726  22.522  18.290   0.318
20467W        W85727  42.844  40.500  11.665
20468W        W85728  30.355  27.137   4.555
20469W        W85729   6.455   6.747  12.141
20470W        W85730  19.209   4.304  13.872
20471W        W85731  33.805  27.749  12.954
20472W        W85732  25.926  11.274  11.070
20473W        W85733   9.310   2.814   4.435
20474W        W85734   3.718  10.750   1.675
20475W        W85735   2.361   2.685  13.752
20476W        W85736  40.948  12.074  11.218
20477W        W85737   0.804  19.135   2.704
20478W        W85738  25.108   8.193  10.802
20479W        W85739  40.428   1.149  13.919
20480W        W85740  10.756  31.738   0.466
20481W        W85741  35.607  19.514  12.549
20482W        W85742  22.302  27.468  11.230
20483W        W85743  42.806  20.578   4.331
20484W        W85744  20.475  32.663  12.820
20485W        W85745  14.790   8.262   3.534
20486W        W85746  27.058  23.190  13.276
20487W        W85747   7.422  42.450  11.505
20488W        W85748  40.983   9.801  12.844
20489W        W85749  17.139  27.243   1.022
20490W        W85750  38.519  22.046  11.674
20491W        W85751  10.894  20.685   2.914
20492W        W85752  30.574  22.653   2.244
20493W        W85753  44.005  22.525   4.092
20494W        W85754  42.989  28.673  13.878
20495W        W85755  39.901  43.335   4.750
20496W        W85756  24.230  40.147   4.090
20497W        W85757  41.267   8.853  13.905
20498W        W85758  42.772  21.533   3.320
20499W        W85759  31.445  12.643  12.461
20500W        W85760  26.621  12.369   1.274
20501W        W85761  37.508  11.692   2.706
20502W        W85762  28.180   2.363  14.910
20503W        W85763  32.891  38.159  13.801
20504W        W85764  40.230   0.878   3.612
20505W        W85765  28.060  13.835   2.299
20506W        W85766   0.844  42.552  14.002
20507W        W85767  27.206  14.766  10.652
20508W        W85768  21.778  34.636  14.454
20509W        W85769  27.236  40.387  14.756
20510W        W85770  12.635  18.316   1.445
20511W        W85771  35.807  37.689   1.879
20512W        W85772  37.322   0.636   1.857
20513W        W85773   7.473   2.262   0.796
20514W        W85774  24.164  24.443  11.845
20515W        W85775  18.969  15.327   4.137
20516W        W85776  36.842  23.748   0.850
20517W        W85777  22.264  20.231  13.558
20518W        W85778  13.784   7.245  14.989
20519W        W85779  14.537  25.599  13.407
20520W        W85780   6.867   3.418   3.757
20521W        W85781  27.791  18.462  10.807
20522W        W85782   3.855  40.058   3.857
20523W        W85783  34.037  17.573  14.564
20524W        W85784  43.492  21.066   4.327
20525W        W85785   4.227   2.593   3.685
20526W        W85786   1.972  16.592   3.986
20527W        W85787  15.577  14.733   0.356
20528W        W85788  28.184   4.641   3.227
20529W        W85789  36.727  27.541  11.907
20530W        W85790  29.016  32.355  10.700
20531W        W85791  21.581  32.126  12.092
20532W        W85792  38.794  31.401  10.020
20533W        W85793  41.709  10.279  13.458
20534W        W85794  23.090  38.187  10.321
20535W        W85795  42.600  12.765  12.562
20536W        W85796  36.368  11.922  11.557
20537W        W85797  17.668  23.148   4.508
20538W        W85798  10.877  12.775   4.036
20539W        W85799  44.084   7.994   1.287
20540W        W85800  42.421  43.376   4.422
20541W        W85801  31.613  16.318  12.532
20542W        W85802  20.540   5.817   4.484
20543W        W85803  16.762  37.762  13.453
20544W        W85804  31.963  24.504  10.737
20545W        W85805  19.889  36.523   1.252
20546W        W85806   7.369   0.159  11.632
20547W        W85807  11.866  24.519   3.086
20548W        W85808   5.500   4.920  13.023
20549W        W85809  42.516  29.787   0.497
20550W        W85810  25.164  23.144   0.984
20551W        W85811  10.255  14.697  14.030
20552W        W85812  38.706  21.775   0.049
20553W        W85813  13.425  27.613  14.781
20554W        W85814  27.819  11.386   3.812
20555W        W85815   8.273   7.769  10.650
20556W        W85816  13.338  36.810  10.955
20557W        W85817   6.355   4.392  10.417
20558W        W85818   2.558  29.187  10.271
20559W        W85819  29.094   1.866  11.462
20560W        W85820  28.238  23.500   2.710
20561W        W85821   3.626   8.750   4.919
20562W        W85822  19.802  38.783  14.218
20563W        W85823  20.989  14.816   4.774
20564W        W85824  34.076   1.576   3.291
20565W        W85825  20.617  44.378   4.055
20566W        W85826  24.898  16.164   4.747
20567W        W85827  25.646   7.710  13.120
20568W        W85828  28.339  21.635   3.417
20569W        W85829  30.494  40.820  14.553
20570W        W85830  22.001  38.300   3.685
20571W        W85831  11.805  33.227   4.568
20572W        W85832  41.082  39.485  11.867
20573W        W85833  17.086  19.685   1.117
20574W        W85834   7.400  28.244  11.650
20575W        W85835  24.498  19.619   3.438
20576W        W85836  38.045   9.070  14.842
20577W        W85837  27.702  26.123   0.519
20578W        W85838  26.791  44.395   5.116
20579W        W85839  10.258  35.126  13.008
20580W        W85840  17.582  31.333   4.262
20581W        W85841  43.134  14.303   3.532
20582W        W85842   7.372  31.426  14.101
20583W        W85843  37.947  26.545   0.492
20584W        W85844  24.071  44.004  12.167
20585W        W85845  31.619  32.221  14.769
20586W        W85846  30.052  10.694   3.576
20587W        W85847  21.483  18.990  12.557
20588W        W85848  33.475   4.977   3.785
20589W        W85849  12.409  11.339  13.493
20590W        W85850  39.053  27.092  13.943
20591W        W85851   6.253  12.056  14.493
20592W        W85852  35.607   5.268   2.285
20593W        W85853  20.527   7.255  12.846
20594W        W85854  33.900   5.883   1.793
20595W        W85855  29.807  14.553   3.253
20596W        W85856  11.876  16.230   4.430
20597W        W85857  19.778  21.237  13.823
20598W        W85858  36.652  28.560  10.547
20599W        W85859  14.372  42.757   3.719
20600W        W85860  40.573  43.268  14.711
20601W        W85861   8.789  13.278   0.242
20602W        W85862   4.758   7.163  13.881
20603W        W85863   8.444  16.325  10.675
20604W        W85864  36.443  39.404   4.678
20605W        W85865  10.277  27.667  13.978
20606W        W85866   8.322  21.809  14.074
20607W        W85867   8.250  21.304  13.904
20608W        W85868   5.296  20.240  13.471
20609W        W85869  12.177  13.317  11.491
20610W        W85870  17.502  35.560  12.839
20611W        W85871   7.833  40.957  13.532
20612W        W85872  24.547  43.737   4.629
20613W        W85873  26.132  11.347  13.951
20614W        W85874  16.846  23.246   0.953
20615W        W85875  30.004  17.256   4.340
20616W        W85876  38.025  37.842  11.012
20617W        W85877  11.253  19.961   4.437
20618W        W85878  41.986  17.365  12.506
20619W        W85879  16.668  24.075   1.392
20620W        W85880   4.849  11.244  12.096
20621W        W85881  12.633  30.059   1.927
20622W        W85882   2.081  11.802  14.540
20623W        W85883  16.290  37.531  11.646
20624W        W85884   3.168  38.341   2.565
20625W        W85885   8.736  15.499   1.878
20626W        W85886   2.267  31.160  11.257
20627W        W85887  33.048  14.030  14.082
20628W        W85888  33.563  26.182  14.976
20629W        W85889  14.226   3.032  11.547
20630W        W85890  20.900  19.856   3.874
20631W        W85891  22.275  15.695   3.865
20632W        W85892   6.707  23.539  10.534
20633W        W85893  38.317  34.960  10.439
20634W        W85894  30.228  21.193   4.119
20635W        W85895  34.847   1.191  11.137
20636W        W85896   7.483   7.753   1.337
20637W        W85897  20.300  14.147  13.012
20638W        W85898   2.315   7.865  12.772
20639W        W85899  32.191  35.497   0.364
20640W        W85900  23.619   1.783   0.331
20641W        W85901  18.276  12.624   4.137
20642W        W85902  32.514  31.545  14.455
20643W        W85903   3.465  16.045   2.705
20644W        W85904  26.526  38.584   3.734
20645W        W85905  19.140  31.998  12.896
20646W        W85906  21.650  25.998   1.905
20647W        W85907  22.084   1.192  14.057
20648W        W85908  29.219  42.938  11.964
20649W        W85909  42.039  41.545  13.034
20650W        W85910  26.445   2.048  11.134
20651W        W85911  38.397   1.032  13.070
20652W        W85912   7.287  13.617   1.425
20653W        W85913  31.357  19.606  11.522
20654W        W85914  22.464  12.320  11.123
20655W        W85915  23.461  39.451  13.989
20656W        W85916  31.393  41.964  10.702
20657W        W85917  13.707  30.934  12.504
20658W        W85918  34.638   9.732  14.477
20659W        W85919   9.370   0.110   3.359
20660W        W85920  36.456  15.248   3.713
20661W        W85921  18.580  27.552   3.725
20662W        W85922  44.992  20.100   1.715
20663W        W85923  37.902  39.947  11.899
20664W        W85924   8.288  24.165   2.770
20665W        W85925  23.151  18.293  13.109
20666W        W85926  31.860  42.605  12.116
20667W        W85927   2.195  10.858   1.090
20668W        W85928   7.001  36.654   3.408
20669W        W85929   5.758   4.106   4.842
20670W        W85930  18.058  43.242  12.620
20671W        W85931  10.693  24.951  13.848
20672W        W85932  40.627   7.974   0.774
20673W        W85933   5.885  44.547   4.651
20674W        W85934   1.699  17.544  10.707
20675W        W85935  42.170  38.844   4.097
20676W        W85936  34.488   5.956   3.659
20677W        W85937  14.360  32.716   4.376
20678W        W85938  11.175   1.558   0.790
20679W        W85939   8.854  43.461  13.490
20680W        W85940  42.397  37.474   0.089
20681W        W85941  35.011  19.672   5.080
20682W        W85942  22.189  29.076   0.427
20683W        W85943  11.762   3.427  14.686
20684W        W85944  44.783   2.436  10.646
20685W        W85945  15.103  13.910  13.560
20686W        W85946  34.978  10.655  14.500
20687W        W85947  28.679  27.715   3.864
20688W        W85948  14.775   9.588  11.427
20689W        W85949  20.535  38.871  13.610
20690W        W85950  10.197  37.674  14.330
20691W        W85951  32.944   2.364  13.427
20692W        W85952  39.071  32.441   4.643
20693W        W85953  14.803   8.093  14.501
20694W        W85954  19.041  26.312   1.855
20695W        W85955   9.224  24.566  13.185
20696W        W85956  23.133  36.486  13.890
20697W        W85957   0.845  26.119  13.957
20698W        W85958  18.316  19.163   1.545
20699W        W85959  17.350  35.516  10.365
20700W        W85960  31.316   2.711  10.661
20701W        W85961  32.947  30.082   0.582
20702W        W85962  25.804  24.473   3.369
20703W        W85963  26.668  37.110   4.746
20704W        W85964  42.357   4.359  14.964
20705W        W85965  23.745   1.803  13.795
20706W        W85966  26.601  41.608   0.832
20707W        W85967   9.879   9.631  14.463
20708W        W85968  12.659   8.782   1.829
20709W        W85969  40.037  17.154  13.377
20710W        W85970  24.844   4.705  13.089
20711W        W85971   8.256  13.011  13.082
20712W        W85972  11.958  15.164  14.740
20713W        W85973  29.878  26.743   2.820
20714W        W85974  34.390  21.742   4.189
20715W        W85975  29.910   3.181  11.696
20716W        W85976   2.670  20.068   2.370
20717W        W85977  27.063  32.388  14.509
20718W        W85978   5.626  32.483   4.678
20719W        W85979  12.302  30.015  13.062
20720W        W85980   2.532  36.436  12.528
20721W        W85981  42.357  36.932  14.867
20722W        W85982  12.148  14.678  14.428
20723W        W85983   2.557   1.092   0.234
20724W        W85984  18.990  40.350  13.316
20725W        W85985  12.715  13.203  10.620
20726W        W85986  22.130  24.022   0.845
20727W        W85987   1.709  21.801  10.230
20728W        W85988   6.478   2.787  12.529
20729W        W85989  34.718  20.139   2.998
20730W        W85990   7.400  32.922   0.655
20731W        W85991  39.054   9.344  10.513
20732W        W85992  39.768  23.489   0.716
20733W        W85993  37.660  21.682  13.826
20734W        W85994  21.055  27.016  13.558
20735W        W85995  30.603   6.448  12.516
20736W        W85996   2.730  34.926  14.048
20737W        W85997  38.272  35.392   3.278
20738W        W85998  34.204  39.858  12.089
20739W        W85999  42.980  36.991   2.763
20740W        W86000  22.278  19.750  10.263
20741W        W86001   9.422  25.149  11.978
20742W        W86002  36.378  38.450   2.226
20743W        W86003  12.385  21.613   0.269
20744W        W86004  36.932  39.120   2.082
20745W        W86005  28.259  20.974  13.290
20746W        W86006  18.733  44.514  14.739
20747W        W86007   8.604  42.855  11.195
20748W        W86008  19.097   5.747   1.878
20749W        W86009  14.629  43.298  13.892
20750W        W86010  25.510  34.462  13.066
20751W        W86011   2.463   3.270   0.727
20752W        W86012  30.676   3.282   2.106
20753W        W86013  27.534  26.495   3.742
20754W        W86014  11.592  32.449  11.481
20755W        W86015  16.163   5.728  11.750
20756W        W86016  25.330  30.443   4.168
20757W        W86017  13.106   0.611  14.226
20758W        W86018   7.440  20.669   3.073
20759W        W86019  23.588   6.492   5.367
20760W        W86020  20.080  21.252   0.033
20761W        W86021  28.117   1.383  10.790
20762W        W86022  16.656  35.798  11.913
20763W        W86023   5.529   9.197   1.450
20764W        W86024  18.871  40.336   0.004
20765W        W86025  28.045   3.344  13.457
20766W        W86026  14.747  30.396  11.106
20767W        W86027  33.973   3.870   4.358
20768W        W86028  26.755  33.906  14.330
20769W        W86029   4.265  16.610   1.871
20770W        W86030   1.527  40.206   0.513
20771W        W86031   4.752  34.627   2.746
20772W        W86032  24.972  12.154   4.618
20773W        W86033  42.380  20.006  12.620
20774W        W86034   5.802   0.053   1.114
20775W        W86035   3.373  36.659   3.267
20776W        W86036  29.496   3.360   1.644
20777W        W86037  41.687   3.450   2.788
20778W        W86038  35.283  33.952   3.717
20779W        W86039  24.059  40.536  10.273
20780W        W86040  42.751  43.028   3.635
20781W        W86041  37.760  27.707  12.041
20782W        W86042  25.503  23.177   0.183
20783W        W86043  43.399  34.731  10.292
20784W        W86044  26.686  11.669  13.528
20785W        W86045   2.204  27.995  12.026
20786W        W86046  35.454   9.217  11.059
20787W        W86047  32.917  17.216   3.920
20788W        W86048  33.587   1.802  10.086
20789W        W86049  43.273  42.530  12.156
20790W        W86050  22.041   8.864  13.573
20791W        W86051   6.568  17.086  12.832
20792W        W86052   5.848  11.918   0.399
20793W        W86053  27.153   6.973  10.855
20794W        W86054   9.717  41.900   3.832
20795W        W86055  31.356  23.186   4.981
20796W        W86056  43.009  26.470  14.845
20797W        W86057  15.219  19.728   3.878
20798W        W86058  19.045  17.607  12.629
20799W        W86059  41.014   1.068  13.066
20800W        W86060   6.169  18.971   3.910
20801W        W86061  32.551   9.921  11.986
20802W        W86062   7.245   9.536   3.626
20803W        W86063   1.008  20.687  12.772
20804W        W86064  17.326   5.967  12.973
20805W        W86065   4.005  33.882  14.213
20806W        W86066  17.128   4.304   0.924
20807W        W86067  24.428  37.139   5.219
20808W        W86068  25.073  12.757  14.585
20809W        W86069   1.171   6.486  14.375
20810W        W86070  31.354   4.269  14.989
20811W        W86071  32.356  13.057  13.497
20812W        W86072  21.450  26.574  14.853
20813W        W86073  20.045   2.811   1.139
20814W        W86074  23.420  26.646   1.280
20815W        W86075  44.887  20.002  13.932
20816W        W86076  38.324  28.613   2.399
20817W        W86077  37.226  14.045   1.772
20818W        W86078  31.537  22.003   2.208
20819W        W86079  35.344  14.209   3.844
20820W        W86080  35.945   0.194  13.367
20821W        W86081   5.889  24.213   1.527
20822W        W86082  33.956  13.867   2.121
20823W        W86083  28.901  43.328  13.402
20824W        W86084  38.973  22.433   1.329
20825W        W86085  37.768  18.084   3.849
20826W        W86086  41.771  35.354  12.177
20827W        W86087  20.870   4.982   9.843
20828W        W86088  39.943  22.247  12.749
20829W        W86089  18.582  34.464  13.331
20830W        W86090  11.967  37.746  12.955
20831W        W86091  24.160  18.736  11.759
20832W        W86092  11.671  41.527  13.287
20833W        W86093  42.184  27.183   1.254
20834W        W86094   9.826  32.650  12.658
20835W        W86095  43.274  35.362  11.714
20836W        W86096  41.808  36.411  13.241
20837W        W86097  42.403  16.596  12.419
20838W        W86098  16.831  13.776  14.928
20839W        W86099  19.574  42.355   4.597
20840W        W86100   1.201   8.286  10.806
20841W        W86101  37.566  20.800   2.638
20842W        W86102   9.836  21.142   9.959
20843W        W86103   2.637  44.721  11.858
20844W        W86104  18.224  16.337  14.423
20845W        W86105  36.879  22.058  14.800
20846W        W86106   8.891  11.575  13.774
20847W        W86107  11.816  20.853   3.735
20848W        W86108  30.766  15.352  12.497
20849W        W86109  34.563  29.430  11.974
20850W        W86110   8.759  39.871  14.499
20851W        W86111  21.270   5.912  10.753
20852W        W86112  19.620  11.407   2.900
20853W        W86113   6.837  28.715  11.477
20854W        W86114  29.423  31.488  14.430
20855W        W86115  33.255   6.372   1.722
20856W        W86116  28.539  28.265  12.556
20857W        W86117  28.658  44.538  11.593
20858W        W86118  18.485  38.990   3.244
20859W        W86119  35.332  32.142   3.691
20860W        W86120   1.243  33.635  10.898
20861W        W86121  31.445  37.409   1.452
20862W        W86122  21.243  40.261   0.017
20863W        W86123  28.072  31.910  12.637
20864W        W86124  29.156   0.452  12.070
20865W        W86125  34.537   2.028  12.118
20866W        W86126  38.946  18.191   2.364
20867W        W86127  34.123  11.259  14.448
20868W        W86128  19.264  37.312   0.278
20869W        W86129   0.161   7.452   3.226
20870W        W86130  30.553   5.995  11.042
20871W        W86131  31.999  40.549  11.003
20872W        W86132  14.802  25.606  11.309
20873W        W86133  28.686  16.167  13.064
20874W        W86134   4.444   0.930   4.645
20875W        W86135   0.757  40.960   4.124
20876W        W86136   3.410  42.794   3.139
20877W        W86137   7.460  25.142  11.745
20878W        W86138  17.142  36.231  12.522
20879W        W86139  39.763  38.622   2.826
20880W        W86140   7.652  40.976   2.429
20881W        W86141   5.623  25.261  10.267
20882W        W86142  21.372  23.078   4.042
20883W        W86143  39.898  10.459  12.894
20884W        W86144  27.036  16.389   2.134
20885W        W86145   4.909   5.360  14.927
20886W        W86146   9.517   5.707  12.525
20887W        W86147  23.474  29.518   3.320
20888W        W86148  28.444  10.033   2.841
20889W        W86149  14.716   6.929   5.467
20890W        W86150   8.872   8.195  14.365
20891W        W86151  12.037  35.798  14.036
20892W        W86152  42.935   0.982   3.116
20893W        W86153  20.013  13.197   2.340
20894W        W86154  16.618  41.028  13.708
20895W        W86155   0.262  41.243  14.409
20896W        W86156  22.136  41.466  12.378
20897W        W86157  17.598  23.095  13.845
20898W        W86158  27.881   2.367   2.944
20899W        W86159  24.673  43.768   0.868
20900W        W86160   6.298  21.170  12.003
20901W        W86161  14.617  15.543  14.127
20902W        W86162  37.571  36.624   2.635
20903W        W86163   9.873  36.337  13.664
20904W        W86164  40.130  42.495   4.267
20905W        W86165  20.027  11.354  14.518
20906W        W86166  14.308   2.891   2.904
20907W        W86167  26.965  42.905  11.578
20908W        W86168  35.435  10.476   1.725
20909W        W86169  33.146  26.478   0.203
20910W        W86170  40.734  40.941  12.352
20911W        W86171  41.376   2.869  12.399
20912W        W86172   7.096  35.152   4.501
20913W        W86173  19.578  25.130  12.544
20914W        W86174  40.748  35.758   4.458
20915W        W86175  14.023  36.827  14.435
20916W        W86176  13.132  12.956   2.382
20917W        W86177  30.575   6.449   1.645
20918W        W86178   5.379  15.046  12.965
20919W        W86179  33.910   9.152  12.123
20920W        W86180  24.556  21.078   4.703
20921W        W86181   3.718  40.383  13.535
20922W        W86182  14.547  16.861   4.135
20923W        W86183  27.231  19.208  13.074
20924W        W86184  38.329  40.293  13.491
20925W        W86185  23.539  19.736  13.495
20926W        W86186  40.835  15.147   2.379
20927W        W86187  11.677  17.129   4.663
20928W        W86188  11.324  41.545  11.784
20929W        W86189  37.047  19.695  10.786
20930W        W86190  35.790  14.476   3.603
20931W        W86191  38.865  28.722  11.492
20932W        W86192  35.858  30.015  12.476
20933W        W86193  28.037  40.243   0.722
20934W        W86194  20.575   9.769   3.185
20935W        W86195   8.387  16.639   3.785
20936W        W86196  29.280  10.692  13.896
20937W        W86197  11.986   3.583  12.869
20938W        W86198  14.670  39.792  10.815
20939W        W86199  20.650  11.406   2.064
20940W        W86200  23.903  26.051   0.668
20941W        W86201  39.492   8.348  13.429
20942W        W86202  43.113  35.165   5.008
20943W        W86203  25.997  43.626   1.301
20944W        W86204   1.361   3.834   2.594
20945W        W86205  36.888   1.026  11.662
20946W        W86206   1.730  12.487   3.559
20947W        W86207   7.359  15.319  13.662
20948W        W86208   9.819  18.629  11.100
20949W        W86209  32.544   2.950  13.983
20950W        W86210  13.794  30.708  11.039
20951W        W86211  44.907  38.536  12.322
20952W        W86212  28.887  15.645  12.071
20953W        W86213  12.158  37.370   1.511
20954W        W86214   4.463  40.783  11.003
20955W        W86215  36.989  43.475  11.980
20956W        W86216  23.078   0.431   0.761
20957W        W86217  26.912   0.233  11.731
20958W        W86218  36.061  40.999  10.589
20959W        W86219   6.335   8.229   0.704
20960W        W86220  15.099  10.173  14.510
20961W        W86221  32.337   0.231  14.417
20962W        W86222  20.315  13.111   0.583
20963W        W86223   0.177   6.334  12.079
20964W        W86224  23.211  38.552  11.555
20965W        W86225  12.301  42.472  13.726
20966W        W86226  28.513  37.384   3.300
20967W        W86227  28.748  31.740   4.225
20968W        W86228  15.692  13.609  14.325
20969W        W86229   2.494  18.297  14.951
20970W        W86230  44.105  36.365  12.216
20971W        W86231  14.785   3.643   3.193
20972W        W86232   0.711  32.432   2.781
20973W        W86233  30.736  14.670   4.970
20974W        W86234  16.134   3.872   2.703
20975W        W86235  38.199  22.038   3.680
20976W        W86236   2.211  22.563   1.342
20977W        W86237  29.356  24.637   2.686
20978W        W86238  10.798  20.539  13.571
20979W        W86239  24.591  32.923  13.263
20980W        W86240  16.310  22.050   2.028
20981W        W86241   1.805  28.469  12.598
20982W        W86242   7.231  42.019  11.935
20983W        W86243  40.402  20.013  14.415
20984W        W86244  15.362  35.172   3.316
20985W        W86245  25.621   8.240  11.549
20986W        W86246  44.245  38.087  13.877
20987W        W86247   8.326  32.272   3.802
20988W        W86248  41.580   7.489  13.092
20989W        W86249  15.881   4.787  11.986
20990W        W86250  19.187  44.757   0.464
20991W        W86251  17.048  38.470  14.985
20992W        W86252  44.933   6.922   2.699
20993W        W86253  41.810  35.494   2.777
20994W        W86254  24.588  33.046  13.763
20995W        W86255  22.488  20.640   1.947
20996W        W86256   4.432  42.773   0.002
20997W        W86257  36.770  19.626   1.870
20998W        W86258  44.471  43.732   4.239
20999W        W86259   8.387  11.389   1.966
21000W        W86260   5.067  10.073   1.861
21001W        W86261   1.801  11.086  14.998
21002W        W86262  34.985  15.511   0.443
21003W        W86263   8.268  21.028   3.184
21004W        W86264   4.393  19.233   1.641
21005W        W86265  29.780  18.612   5.012
21006W        W86266  19.461   3.763  11.188
21007W        W86267  43.249   1.756   0.500
21008W        W86268   6.252   5.330  10.894
21009W        W86269  44.989  43.292   0.907
21010W        W86270   5.121  26.483   1.124
21011W        W86271  28.770  43.138   1.570
21012W        W86272  40.691  31.539   2.826
21013W        W86273  33.412  20.061   3.254
21014W        W86274  42.447   9.180  11.654
21015W        W86275  20.808  41.499  11.037
21016W        W86276  15.042  30.165   3.402
21017W        W86277  33.589  13.588  14.971
21018W        W86278   6.181  19.744  12.285
21019W        W86279   0.229  14.563  11.031
21020W        W86280   8.460  32.389  12.026
21021W        W86281  41.084  19.479  14.071
21022W        W86282  14.818  39.328  13.910
21023W        W86283  19.925  11.093  11.150
21024W        W86284  23.582  43.958   0.595
21025W        W86285  17.483  39.918   3.360
21026W        W86286   4.163   8.120  11.711
21027W        W86287   6.400  44.935   0.766
21028W        W86288  34.212  27.561  14.037
21029W        W86289  27.180  39.890   4.467
21030W        W86290   0.232   7.877   2.952
21031W        W86291  12.268  11.543   3.239
21032W        W86292   0.740   1.467  13.036
21033W        W86293  26.542  22.847   3.719
21034W        W86294  42.466  35.566   2.254
21035W        W86295  10.247  24.990   2.806
21036W        W86296  11.117   9.802  10.781
21037W        W86297  21.214  40.965   4.633
21038W        W86298  43.066   0.895   3.602
21039W        W86299   8.344  24.487   2.134
21040W        W86300  10.673  42.228   3.699
21041W        W86301   0.854  40.407   4.484
21042W        W86302  12.576  31.819   4.037
21043W        W86303  37.052  24.253   3.307
21044W        W86304  28.663  25.457  14.863
21045W        W86305  13.902  13.800   0.335
21046W        W86306  35.061  22.265  14.342
21047W        W86307  17.260  33.122  12.377
21048W        W86308  18.381  22.745  10.720
21049W        W86309  37.488  34.722  10.678
21050W        W86310  37.624  23.572  11.882
21051W        W86311  33.358   1.168   4.363
21052W        W86312   8.441   7.817   1.739
21053W        W86313  36.042  13.144  14.887
21054W        W86314   4.296  33.699  11.539
21055W        W86315  44.256  37.899  14.365
21056W        W86316  36.843  37.825   1.881
21057W        W86317  36.627   8.330   1.705
21058W        W86318  31.027   7.107  10.354
21059W        W86319  24.760  23.180   5.325
21060W        W86320   5.449  26.425  10.184
21061W        W86321   8.763  30.699   1.400
21062W        W86322  20.199   7.658  12.955
21063W        W86323  23.939  35.857  13.246
21064W        W86324  17.700  16.813  10.682
21065W        W86325  36.752  33.837   3.551
21066W        W86326  13.532  33.171  11.582
21067W        W86327  34.719  12.622  14.313
21068W        W86328  36.423  44.900   0.437
21069W        W86329  32.311  31.635  14.005
21070W        W86330  14.612   8.172   1.220
21071W        W86331  29.619  17.493   1.950
21072W        W86332  18.369  26.996   4.876
21073W        W86333  22.691  22.064   3.332
21074W        W86334  41.664  21.683   0.314
21075W        W86335   2.969   2.832  12.054
21076W        W86336  33.507  14.824  13.838
21077W        W86337  36.614  30.655   3.214
21078W        W86338  36.582  34.018  13.803
21079W        W86339  25.582   6.184  11.877
21080W        W86340  31.314   7.219   1.145
21081W        W86341  41.281  31.873  13.092
21082W        W86342   2.884  24.695  12.657
21083W        W86343   7.875  30.937  11.387
21084W        W86344  38.514  12.702  12.904
21085W        W86345  31.296   6.012  10.567
21086W        W86346   0.700  23.326   3.810
21087W        W86347   5.453  38.904   1.837
21088W        W86348   5.685  12.288  12.406
21089W        W86349  41.947  35.143  13.439
21090W        W86350  26.945  41.108   3.502
21091W        W86351  11.253  15.249  12.018
21092W        W86352   4.490  19.506   0.046
21093W        W86353  39.033  35.399   4.605
21094W        W86354  33.498  38.033   2.901
21095W        W86355  27.470  31.850   0.696
21096W        W86356   9.335  24.527  13.710
21097W        W86357  44.430  40.927  10.335
21098W        W86358  24.957  19.090  13.415
21099W        W86359  14.152  27.096   3.789
21100W        W86360  43.141  31.598  12.028
21101W        W86361  30.968  20.463   2.675
21102W        W86362  44.777  25.676   3.877
21103W        W86363  17.617  13.577  11.605
21104W        W86364  33.234  29.328   2.936
21105W        W86365  39.304  44.445  11.584
21106W        W86366  13.345  23.634   1.113
21107W        W86367  10.753  10.904  12.221
21108W        W86368  18.072  16.248   1.487
21109W        W86369  22.552  30.071  10.694
21110W        W86370  40.106  11.886  12.893
21111W        W86371   7.789   9.319   4.076
21112W        W86372  11.143  18.302   0.716
21113W        W86373   5.484  23.462  12.018
21114W        W86374   2.964  37.511  14.434
21115W        W86375   4.455   9.878   4.476
21116W        W86376  13.437  39.922  13.910
21117W        W86377   9.878  31.002   1.864
21118W        W86378  16.691  34.617   1.804
21119W        W86379  33.450   6.754  14.342
21120W        W86380   5.178  42.380   0.978
21121W        W86381  15.801  29.236  12.937
21122W        W86382  19.540  20.679   0.511
21123W        W86383  12.171   3.853   0.255
21124W        W86384  11.630  21.086  10.172
21125W        W86385  35.403  37.512   3.152
21126W        W86386  40.206  19.586  10.888
21127W        W86387  40.334   8.412   1.928
21128W        W86388  36.757  39.092   5.038
21129W        W86389  27.501  34.019  12.091
21130W        W86390  30.544  37.425  14.510
21131W        W86391  34.868  17.576  12.058
21132W        W86392  34.521  43.810  13.774
21133W        W86393  31.186  29.433   1.341
21134W        W86394   6.876  20.192  13.822
21135W        W86395   9.189  27.246  12.368
21136W        W86396  17.001  13.597  11.107
21137W        W86397  16.213  42.081   1.302
21138W        W86398   7.937   0.790   4.537
21139W        W86399  21.515  42.585  12.371
21140W        W86400  12.230  18.533   1.216
21141W        W86401  12.772  21.847  12.923
21142W        W86402   3.691  35.648   4.199
21143W        W86403  10.892  14.576  12.882
21144W        W86404  38.894  38.007  13.792
21145W        W86405  35.752  11.457   1.673
21146W        W86406  15.325  33.812   3.668
21147W        W86407  23.668   2.756  14.809
21148W        W86408  36.859  31.747  12.498
21149W        W86409  20.213  14.326  11.418
21150W        W86410  10.124  32.575  14.347
21151W        W86411  17.623  36.068  11.459
21152W        W86412  34.378  37.381   0.822
21153W        W86413  39.931   6.712   2.473
21154W        W86414  40.536  27.397   0.895
21155W        W86415  27.685  11.285   2.750
21156W        W86416  29.499  42.970  10.169
21157W        W86417  13.231  28.590   1.870
21158W        W86418   2.971  27.919   0.941
21159W        W86419  18.206   8.870  13.612
21160W        W86420  21.338   2.833  11.522
21161W        W86421  32.284  23.956   2.836
21162W        W86422   6.325  44.496  11.597
21163W        W86423  19.736  39.327  12.043
21164W        W86424   7.481   8.214   3.104
21165W        W86425   6.280  41.779  11.123
21166W        W86426  35.601  18.509   2.167
21167W        W86427  15.292  39.873   0.524
21168W        W86428   2.326  26.988   3.804
21169W        W86429  42.993  16.677   2.620
21170W        W86430  12.145  18.609   2.617
21171W        W86431  17.811  21.420   3.099
21172W        W86432   3.923  29.458  13.371
21173W        W86433  37.008  24.995  13.994
21174W        W86434  24.229  41.829  12.116
21175W        W86435   4.617  22.567   1.397
21176W        W86436  24.963   5.666  11.514
21177W        W86437   1.707  28.842  13.884
21178W        W86438   5.271   8.342  13.559
21179W        W86439  38.661  22.300  10.718
21180W        W86440  32.885  42.298  13.024
21181W        W86441   3.949   5.312  10.739
21182W        W86442   1.789  39.551   2.257
21183W        W86443  12.068  32.631  11.511
21184W        W86444  33.179  43.756  14.320
21185W        W86445  21.322  20.608   2.157
21186W        W86446  33.421  44.259  10.177
21187W        W86447  16.514  15.425   2.280
21188W        W86448  30.425  20.626   2.454
21189W        W86449  36.169  26.566   3.217
21190W        W86450  37.859  13.713   4.528
21191W        W86451  25.316  35.670   9.980
21192W        W86452  27.009  11.516  10.713
21193W        W86453  33.947   7.794  12.137
21194W        W86454   9.354  42.105  12.317
21195W        W86455  44.717   8.961  11.925
21196W        W86456  23.967  26.115  14.226
21197W        W86457   1.495  18.641  10.788
21198W        W86458  33.496   1.927  14.830
21199W        W86459   8.486  24.157  14.530
21200W        W86460  26.720  31.457   3.714
21201W        W86461  40.147  38.329  14.854
21202W        W86462  26.500   0.552   4.110
21203W        W86463  44.560  24.437  12.031
21204W        W86464   5.535  39.714   1.479
21205W        W86465   4.433  27.150   0.734
21206W        W86466  21.600  36.561  14.197
21207W        W86467  27.002  11.824   2.732
21208W        W86468  44.574   3.037   4.590
21209W        W86469  22.699   4.407   2.256
21210W        W86470  43.988  24.959  12.543
21211W        W86471  44.223  40.288   3.781
21212W        W86472  40.110  15.749   2.349
21213W        W86473  13.027   1.473  14.468
21214W        W86474  21.088  10.681  10.961
21215W        W86475   5.266  17.536   0.040
21216W        W86476   6.684  22.535  10.824
21217W        W86477  19.002   3.713   2.834
21218W        W86478  22.746   7.689   0.502
21219W        W86479  16.952  21.260  13.921
21220W        W86480  25.739   6.451  14.745
21221W        W86481  17.158  25.490   2.656
21222W        W86482  31.451   5.322  12.864
21223W        W86483   2.987  23.874  14.412
21224W        W86484  24.739  44.524   1.347
21225W        W86485  27.938  10.931  13.319
21226W        W86486  15.256   3.457   3.144
21227W        W86487  43.845   6.226   2.676
21228W        W86488  30.216  38.044   2.463
21229W        W86489  27.677  31.778   3.756
21230W        W86490  13.675  12.275   0.825
21231W        W86491  41.611  37.479  10.495
21232W        W86492   8.187  38.770   0.322
21233W        W86493  21.209  20.554   9.742
21234W        W86494   8.258  23.679  13.928
21235W        W86495  32.592  10.385  12.934
21236W        W86496  14.817   7.167   1.315
21237W        W86497  15.080  43.821   0.375
21238W        W86498  23.465  12.315   2.424
21239W        W86499   7.529  29.068  13.810
21240W        W86500  24.033  34.365   0.295
21241W        W86501  22.961  26.269  14.342
21242W        W86502  27.084   0.651   4.760
21243W        W86503  16.857  40.808   1.334
21244W        W86504   7.870   5.286  10.336
21245W        W86505  44.791  30.931   0.026
21246W        W86506   1.891  31.430   2.891
21247W        W86507  12.349  27.980  14.884
21248W        W86508  19.125  20.417   0.305
21249W        W86509  21.149  10.361  12.587
21250W        W86510  22.013   0.551  12.129
21251W        W86511  17.817  11.734  13.572
21252W        W86512  12.840  21.691  14.408
21253W        W86513  31.501  36.319   2.889
21254W        W86514   6.163  30.506   1.796
21255W        W86515  14.205  43.492   4.625
21256W        W86516  11.844  21.595   0.343
21257W        W86517   6.183   2.373  13.397
21258W        W86518   3.407  23.162  14.051
21259W        W86519  21.871  23.983   3.170
21260W        W86520  35.797   9.321   1.245
21261W        W86521   4.599   9.695  12.143
21262W        W86522  10.278  18.562  11.987
21263W        W86523  44.499  31.644   2.763
21264W        W86524  19.312  12.848   2.331
21265W        W86525   0.310   6.244   0.755
21266W        W86526  18.040  24.304   2.407
21267W        W86527  23.928   7.150   0.011
21268W        W86528  39.914  20.001  13.714
21269W        W86529  14.845  19.726  12.890
21270W        W86530  33.848  28.688   3.479
21271W        W86531  15.488  31.532   4.300
21272W        W86532  37.223  11.514  10.481
21273W        W86533  21.729  22.168   0.456
21274W        W86534  36.847  18.791   2.789
21275W        W86535  14.107  20.183   2.300
21276W        W86536  41.731  40.455  13.845
21277W        W86537  40.770  27.733   0.545
21278W        W86538   8.769   9.103  13.088
21279W        W86539  32.037   0.651  14.777
21280W        W86540  32.561  28.887   1.380
21281W        W86541   7.908  40.204  10.357
21282W        W86542  17.499  21.637   1.326
21283W        W86543   5.935  13.094   1.108
21284W        W86544   6.503  10.623   0.300
21285W        W86545   2.285  37.024  14.884
21286W        W86546  22.160  13.653   1.432
21287W        W86547  31.761   3.056  13.489
21288W        W86548   2.474  34.128   3.157
21289W        W86549   6.128  34.350   9.828
21290W        W86550  32.729   1.567   3.609
21291W        W86551  23.228  18.086   0.648
21292W        W86552  26.988  32.797  13.515
21293W        W86553   8.967  40.950   4.202
21294W        W86554  21.406  27.908   1.370
21295W        W86555  31.274  18.425   3.648
21296W        W86556  14.926  34.947   3.135
21297W        W86557  21.932  31.394  13.904
21298W        W86558   9.939  41.142   2.834
21299W        W86559  14.535  13.111   1.866
21300W        W86560  28.373  21.559   0.258
21301W        W86561  29.564  35.132  12.102
21302W        W86562  27.115  22.668   0.362
21303W        W86563  28.627   4.551  14.440
21304W        W86564   3.265  38.120   3.044
21305W        W86565  44.916  29.481  11.901
21306W        W86566  35.549  19.533  11.662
21307W        W86567  14.308   5.491  11.620
21308W        W86568   0.855  32.277   4.398
21309W        W86569  27.245  37.229  11.050
21310W        W86570  41.924   0.877  12.136
21311W        W86571  37.349  29.023  11.476
21312W        W86572  24.525  42.496   2.405
21313W        W86573   2.753  24.249  13.344
21314W        W86574  13.566  23.737  14.269
21315W        W86575  31.026   7.076   0.168
21316W        W86576   0.659  37.461   3.173
21317W        W86577  18.987  11.248  12.512
21318W        W86578  14.611  42.497   0.887
21319W        W86579  13.539   3.514   3.583
21320W        W86580  30.489  12.668   3.333
21321W        W86581  22.841  27.205   4.872
21322W        W86582  17.854  18.068   9.813
21323W        W86583  38.432   7.212   2.830
21324W        W86584   1.978  29.575   1.947
21325W        W86585  30.047  34.603  11.609
21326W        W86586  14.732  15.757   3.845
21327W        W86587  44.468   2.882  13.365
21328W        W86588  29.513   1.111  11.077
21329W        W86589  42.546  15.244   2.711
21330W        W86590  12.167  12.823  11.832
21331W        W86591   7.005  43.024  14.900
21332W        W86592  17.212  27.024  14.692
21333W        W86593  15.268  25.637  11.997
21334W        W86594  21.559   7.392   1.205
21335W        W86595  36.043  40.417  13.229
21336W        W86596  14.111  12.793   1.797
21337W        W86597  17.696   5.171   3.208
21338W        W86598   9.063  37.411   1.458
21339W        W86599  18.037  32.277  14.429
21340W        W86600  30.914  34.638   1.295
21341W        W86601   9.429   3.283   0.297
21342W        W86602  43.352  17.554   0.767
21343W        W86603  11.282  41.104   4.144
21344W        W86604  24.274  27.082   2.105
21345W        W86605  33.910  26.288   0.942
21346W        W86606  29.509  39.920  12.059
21347W        W86607   5.916  26.691   5.624
21348W        W86608  16.631  23.133  13.869
21349W        W86609  30.497  32.875   0.415
21350W        W86610   6.683  26.419   9.717
21351W        W86611  11.068   1.364  11.186
21352W        W86612  10.885  37.500  11.576
21353W        W86613  16.115  24.676   3.423
21354W        W86614  23.007  12.579   0.259
21355W        W86615  34.433  19.209  14.873
21356W        W86616  13.686  13.585   2.098
21357W        W86617  10.760  34.865  11.741
21358W        W86618  43.475   8.631  12.964
21359W        W86619  39.280  15.732   1.160
21360W        W86620   6.862  31.568  14.014
21361W        W86621  20.313   3.228  10.669
21362W        W86622  14.619  44.542   0.719
21363W        W86623  23.722   3.673   9.907
21364W        W86624  15.337  43.774  13.560
21365W        W86625  28.959  26.876   4.534
21366W        W86626  28.909   0.873  10.606
21367W        W86627  15.663  24.580  14.847
21368W        W86628  20.842  32.259  10.915
21369W        W86629   2.795  10.625   1.882
21370W        W86630  33.856  30.381   3.754
21371W        W86631   3.457  14.061  12.975
21372W        W86632  31.863   1.821  10.665
21373W        W86633  22.490  32.620  10.074
21374W        W86634  20.299   1.642   4.082
21375W        W86635   8.876  11.235   1.870
21376W        W86636  44.795  42.990   5.086
21377W        W86637  36.724  14.527  13.002
21378W        W86638  32.580  30.277  13.863
21379W        W86639   0.832  39.577  13.985
21380W        W86640   1.209  25.509   3.152
21381W        W86641  33.206   7.388   4.569
21382W        W86642  26.579  16.220  13.249
21383W        W86643  11.318  31.676   4.582
21384W        W86644   3.361  29.706  13.861
21385W        W86645  24.005   1.038  14.721
21386W        W86646   8.861   8.205  13.817
21387W        W86647  27.676  28.621  13.165
21388W        W86648   7.614   4.304   1.927
21389W        W86649  18.708   7.377   2.986
21390W        W86650   4.270  21.472  13.779
21391W        W86651  26.064  27.397  14.877
21392W        W86652  22.220  19.636   2.152
21393W        W86653  27.194  42.337   0.747
21394W        W86654  12.497  25.652  14.000
21395W        W86655  18.215   5.617   1.315
21396W        W86656  12.035   4.440  11.301
21397W        W86657  38.467  30.556   1.657
21398W        W86658   5.525  26.035  11.607
21399W        W86659  23.121  26.258   4.651
21400W        W86660  22.376  26.545  12.518
21401W        W86661  33.570  24.211   1.796
21402W        W86662  21.257  11.926   0.794
21403W        W86663  34.500  38.580  12.402
21404W        W86664  40.948  10.177  11.002
21405W        W86665  29.484   9.978   3.589
21406W        W86666  20.222  23.658  13.376
21407W        W86667  43.975  19.210   1.124
21408W        W86668  27.002   8.250   1.446
21409W        W86669  36.505  15.837  13.712
21410W        W86670  15.023  17.138   2.775
21411W        W86671  15.907  21.700  11.095
21412W        W86672  23.153  41.386  14.501
21413W        W86673  41.442  26.463  13.841
21414W        W86674   7.574  26.480  12.263
21415W        W86675  41.250   5.289   3.605
21416W        W86676  35.341  33.793  10.717
21417W        W86677  13.704  30.477  13.332
21418W        W86678  25.761  13.561   2.866
21419W        W86679  12.173  32.923  13.958
21420W        W86680  39.086  27.119  10.859
21421W        W86681  44.910  12.064   0.796
21422W        W86682  24.770  13.653  14.713
21423W        W86683   2.760  20.591   4.281
21424W        W86684  37.379  10.674   1.219
21425W        W86685  16.229  22.960   3.282
21426W        W86686   7.600  19.253   3.619
21427W        W86687  27.919  21.770   4.217
21428W        W86688  18.020   0.031   0.802
21429W        W86689  35.772  11.843   3.315
21430W        W86690  16.045   6.713  13.302
21431W        W86691  21.287  12.684   4.052
21432W        W86692   3.342   4.479   4.541
21433W        W86693   2.498  12.948  14.672
21434W        W86694   1.914  10.170  12.030
21435W        W86695  32.885   0.583   3.441
21436W        W86696  42.240   9.703   2.846
21437W        W86697  43.528  15.876  12.819
21438W        W86698  16.417  34.083  11.842
21439W        W86699  41.470   4.314   3.379
21440W        W86700  35.905   6.870  13.473
21441W        W86701   8.012  42.849   4.238
21442W        W86702  34.918  24.177   0.729
21443W        W86703   6.260  15.055   1.383
21444W        W86704   9.686  40.330   3.578
21445W        W86705  14.915  32.114  10.813
21446W        W86706   8.527  13.881   3.254
21447W        W86707  30.095   4.180   0.394
21448W        W86708  22.617   0.202   1.426
21449W        W86709  35.898   9.805  11.132
21450W        W86710  32.595   6.919   4.564
21451W        W86711  21.856   2.203  13.176
21452W        W86712   3.210  42.473   0.337
21453W        W86713  15.114  26.560   3.285
21454W        W86714   2.167  36.957  11.171
21455W        W86715  30.180   7.780  11.516
21456W        W86716   4.231  18.095  12.965
21457W        W86717  41.545  38.103   2.365
21458W        W86718  17.023   1.874  12.215
21459W        W86719  18.585  10.356   5.374
21460W        W86720  25.729  23.305   2.814
21461W        W86721  37.816  41.921   3.262
21462W        W86722   2.398  16.397   1.864
21463W        W86723   3.982  38.455  13.357
21464W        W86724   7.792   5.711  12.085
21465W        W86725   1.145  24.106  12.947
21466W        W86726  12.989  14.832  12.545
21467W        W86727   5.873  32.560  10.456
21468W        W86728  18.101   9.105   1.962
21469W        W86729  16.048  19.124   3.741
21470W        W86730  14.209  30.560  11.315
21471W        W86731  37.032  22.524   0.151
21472W        W86732   8.428  15.223   0.279
21473W        W86733  14.263  40.450   3.342
21474W        W86734  20.755   3.982   1.210
21475W        W86735  39.979   0.179   4.823
21476W        W86736  39.963  21.500   4.064
21477W        W86737  37.729  21.540   1.159
21478W        W86738  31.580   6.157  12.485
21479W        W86739  21.264  41.844   1.477
21480W        W86740  15.411  17.739   1.561
21481W        W86741   7.103  41.520  12.047
21482W        W86742  36.752  15.751  12.647
21483W        W86743  29.333  41.810   3.353
21484W        W86744  39.376  32.947  11.684
21485W        W86745  39.105  17.742   2.620
21486W        W86746  19.480  37.534  13.401
21487W        W86747  34.508   0.257  10.985
21488W        W86748   1.851  12.794   2.266
21489W        W86749  27.782  13.656   1.911
21490W        W86750  25.582  43.903   1.178
21491W        W86751  15.126  18.562   4.559
21492W        W86752  44.017  35.368   3.293
21493W        W86753  32.598   2.755   1.485
21494W        W86754  33.643   7.736   3.925
21495W        W86755  42.004  19.130  11.621
21496W        W86756  25.557  20.998   4.627
21497W        W86757  10.240  10.937   0.067
21498W        W86758  44.184   2.745   4.172
21499W        W86759  29.648  34.069   1.188
21500W        W86760  18.625  29.200  12.600
21501W        W86761  35.867  23.617   3.189
21502W        W86762  44.691  38.800  11.098
21503W        W86763   8.013  44.510  13.385
21504W        W86764  12.658  18.194  14.734
21505W        W86765   6.821  40.977  13.378
21506W        W86766  32.383  38.309   0.801
21507W        W86767  11.309  23.590  13.923
21508W        W86768  19.727  18.320  12.395
21509W        W86769  37.869  29.590  12.000
21510W        W86770  42.280  26.530   4.126
21511W        W86771  14.793  24.621   4.441
21512W        W86772   7.077   6.577   0.737
21513W        W86773  24.140  31.139   4.829
21514W        W86774  20.400  29.008   0.952
21515W        W86775  39.982   8.565  12.199
21516W        W86776  43.211  10.676  14.328
21517W        W86777  33.955  18.045   4.951
21518W        W86778  32.132  38.238  11.443
21519W        W86779  21.985   2.342  12.665
21520W        W86780   2.863  41.282  11.831
21521W        W86781  43.396  24.086   3.023
21522W        W86782  14.087   0.801  12.553
21523W        W86783  15.529  40.965  12.020
21524W        W86784  14.587  26.152  13.615
21525W        W86785  14.553  39.830   1.892
21526W        W86786  12.165   9.610  14.757
21527W        W86787  32.362  13.161  10.747
21528W        W86788  23.705  12.589   3.965
21529W        W86789   4.993  17.590   1.359
21530W        W86790  40.546   2.369  13.521
21531W        W86791  29.501  27.918  11.947
21532W        W86792   1.449   3.492   3.317
21533W        W86793  16.650   5.569   0.961
21534W        W86794  21.065   1.704  12.802
21535W        W86795  21.080  42.487   2.863
21536W        W86796   1.854   8.729   0.430
21537W        W86797  27.970  19.213  10.757
21538W        W86798   0.919  32.376  13.478
21539W        W86799  25.042  22.559  13.337
21540W        W86800  16.908  26.710  12.482
21541W        W86801  21.629   1.460  14.729
21542W        W86802  21.401  12.051   2.965
21543W        W86803  40.500  29.582  13.274
21544W        W86804  28.002  22.884   1.776
21545W        W86805   8.680  44.090   3.703
21546W        W86806  13.246  36.923   0.986
21547W        W86807  44.743  10.118  12.926
21548W        W86808  36.236  17.239  13.356
21549W        W86809   3.677  28.677  11.604
21550W        W86810  16.234  30.179  14.512
21551W        W86811   4.929  10.533  14.562
21552W        W86812  26.617  18.296  13.293
21553W        W86813   6.573   2.215  12.100
21554W        W86814  21.972  37.330  12.850
21555W        W86815  26.732   6.284  14.790
21556W        W86816  15.412  18.711  13.440
21557W        W86817  36.975  26.930   4.635
21558W        W86818  38.449   5.442   2.416
21559W        W86819  39.872  28.607  12.946
21560W        W86820   8.952  42.053   1.788
21561W        W86821  18.153  24.020   3.362
21562W        W86822  37.496  23.602   3.186
21563W        W86823  34.475  40.487  10.998
21564W        W86824  12.771  44.767   0.741
21565W        W86825  22.432  34.907  14.303
21566W        W86826   0.913  32.696  14.706
21567W        W86827  25.983  14.432   1.860
21568W        W86828  38.012  34.012  14.613
21569W        W86829   2.856   4.939  12.110
21570W        W86830  39.500  21.269  11.570
21571W        W86831  31.654  34.329   0.284
21572W        W86832  29.698  40.035   2.774
21573W        W86833  13.415  25.267  14.929
21574W        W86834  24.527  13.593   2.416
21575W        W86835  26.376  44.206   2.289
21576W        W86836  24.653  40.495  14.431
21577W        W86837  18.794  19.244   1.746
21578W        W86838  17.350  37.369  10.206
21579W        W86839  20.562  17.490   3.235
21580W        W86840   1.334  19.731  12.853
21581W        W86841  15.779  29.009   3.272
21582W        W86842  44.839  11.065   2.950
21583W        W86843  17.725   7.340   0.058
21584W        W86844  15.703  34.799  13.038
21585W        W86845  27.032  17.210   0.890
21586W        W86846  23.522  40.966  14.524
21587W        W86847  37.069   3.793  13.577
21588W        W86848   1.437  40.850  13.340
21589W        W86849  22.270  42.737   3.453
21590W        W86850   3.940   2.000   2.398
21591W        W86851   4.398  20.125  13.159
21592W        W86852  29.907  14.119   1.395
21593W        W86853   5.240  39.389   2.778
21594W        W86854  38.631  22.276   2.265
21595W        W86855  20.037  34.610   3.838
21596W        W86856  39.303  28.963   3.616
21597W        W86857  37.957   9.415  12.202
21598W        W86858   0.436  15.812   3.542
21599W        W86859  21.692  21.191  13.642
21600W        W86860  22.515  32.399  10.550
21601W        W86861  31.024  34.030  11.586
21602W        W86862  22.590  37.126   1.918
21603W        W86863  18.407   4.199   2.159
21604W        W86864  15.862  14.340  13.766
21605W        W86865   6.874  43.606   1.445
21606W        W86866  20.135  16.628  10.210
21607W        W86867  16.029  40.873  12.904
21608W        W86868  41.360  21.642   4.064
21609W        W86869  29.491  35.399  12.563
21610W        W86870  39.780  26.041  13.583
21611W        W86871  36.525  15.846  13.168
21612W        W86872  19.103  35.253   1.410
21613W        W86873   3.688  42.788  13.386
21614W        W86874  39.117   3.721  11.200
21615W        W86875  23.497  42.913  11.559
21616W        W86876  24.850  15.777  12.322
21617W        W86877  28.124  38.660   2.307
21618W        W86878   4.987  33.297  10.295
21619W        W86879  28.228  11.846  10.402
21620W        W86880  22.630  33.663   1.775
21621W        W86881  34.200  15.962   4.102
21622W        W86882  39.998  16.706  13.103
21623W        W86883   9.716  31.466   3.737
21624W        W86884  15.069   4.366  14.936
21625W        W86885   0.061  18.063   4.795
21626W        W86886  38.999  32.786   2.031
21627W        W86887  44.973   1.836  13.433
21628W        W86888  14.787   6.157  13.014
21629W        W86889  31.108  27.146  12.385
21630W        W86890   7.816  37.771   2.203
21631W        W86891  21.277  34.451   0.940
21632W        W86892  18.719  18.234  13.391
21633W        W86893  33.655  25.738   3.182
21634W        W86894  42.379  12.067   2.812
21635W        W86895  12.863  35.536  11.970
21636W        W86896   5.840   4.106   0.925
21637W        W86897  12.352   1.808  11.526
21638W        W86898   9.475  37.528  12.988
21639W        W86899  41.913   6.206   4.442
21640W        W86900  30.083  20.085   1.365
21641W        W86901  44.722  22.831   4.585
21642W        W86902   2.894  33.470  12.872
21643W        W86903  22.751  26.587   4.067
21644W        W86904  29.596  23.258  12.327
21645W        W86905  17.676  14.579   1.488
21646W        W86906  28.722   9.280  12.486
21647W        W86907  23.176  32.450  12.792
21648W        W86908  21.446  41.921  13.033
21649W        W86909  19.791  33.105   0.173
21650W        W86910  38.723   7.436   4.065
21651W        W86911  27.788  12.751  13.435
21652W        W86912  40.275  10.394   3.350
21653W        W86913  34.502  27.149  14.799
21654W        W86914   6.554  14.278  12.261
21655W        W86915   5.321  38.982   4.574
21656W        W86916  11.431   0.625  12.109
21657W        W86917  10.130   6.616  12.331
21658W        W86918   5.424  26.393  13.285
21659W        W86919   7.606  28.102  13.516
21660W        W86920   6.757  12.863  10.741
21661W        W86921   7.217  31.111  14.498
21662W        W86922   7.319   0.338  13.868
21663W        W86923  22.723   0.739   4.134
21664W        W86924  18.137  41.902   4.231
21665W        W86925  27.406  23.313  11.817
21666W        W86926  19.720  41.114   2.907
21667W        W86927   6.230  19.672  11.288
21668W        W86928  20.700  34.897   1.416
21669W        W86929  12.283  37.870   2.929
21670W        W86930  30.041  13.653  14.793
21671W        W86931  23.017   2.242  11.172
21672W        W86932  25.182   6.877   1.071
21673W        W86933  36.624  24.408  13.346
21674W        W86934  14.911  33.194  14.516
21675W        W86935   7.938  25.953   3.143
21676W        W86936  11.690  24.393   4.007
21677W        W86937  32.158  17.298  13.940
21678W        W86938  39.457  40.134   3.930
21679W        W86939  32.119   0.571   4.206
21680W        W86940  16.188  23.717  11.659
21681W        W86941  14.867   7.270  13.594
21682W        W86942  20.643  27.972   4.490
21683W        W86943   3.242  28.419  11.609
21684W        W86944  22.096  10.925   3.360
21685W        W86945  14.230  37.786  11.920
21686W        W86946  10.008   0.508  13.618
21687W        W86947  14.376  41.743  10.990
21688W        W86948  31.873  11.676  10.419
21689W        W86949  34.829  13.877  11.065
21690W        W86950  34.283  43.188   3.835
21691W        W86951  40.713   2.398   5.495
21692W        W86952  34.455  22.084   2.368
21693W        W86953  24.624  38.385   0.488
21694W        W86954  36.839   8.729  12.570
21695W        W86955   6.788  39.094   0.856
21696W        W86956  22.939  35.586  11.258
21697W        W86957   9.736  14.651   3.231
21698W        W86958  26.107   5.469   4.146
21699W        W86959  32.818  38.037   1.993
21700W        W86960  28.009  40.963  11.752
21701W        W86961   1.476  39.111  13.017
21702W        W86962   6.823  13.911  14.858
21703W        W86963   5.648  39.529  14.905
21704W        W86964   1.966  10.608   0.092
21705W        W86965  25.700   0.301  11.942
21706W        W86966   7.076  23.120  13.001
21707W        W86967  19.519  42.828  11.384
21708W        W86968  30.894   5.249   1.963
21709W        W86969  37.061  17.414   4.096
21710W        W86970  23.996   5.678  12.432
21711W        W86971  21.960  19.174  12.528
21712W        W86972  38.949  21.062   1.757
21713W        W86973   6.136   9.025   0.374
21714W        W86974  40.953  42.926   0.377
21715W        W86975   8.830   1.801   0.294
21716W        W86976  43.867  20.027   0.783
21717W        W86977  42.586   8.798  12.622
21718W        W86978  32.373  10.958  11.105
21719W        W86979  41.288   8.113  12.507
21720W        W86980  35.087   7.705   4.331
21721W        W86981  39.316  24.035  13.480
21722W        W86982  26.001  14.003   2.807
21723W        W86983   3.354  42.863   2.120
21724W        W86984  22.020   9.337  14.772
21725W        W86985  14.855  19.201  14.109
21726W        W86986  42.105  12.938   5.036
21727W        W86987   2.813  19.188   3.681
21728W        W86988  34.005  43.761  10.893
21729W        W86989  30.111  19.339  12.812
21730W        W86990  24.166  26.944  13.073
21731W        W86991   8.281  13.880  14.923
21732W        W86992  14.807  10.308  11.933
21733W        W86993  36.528  26.771  12.483
21734W        W86994  43.886  15.784  14.025
21735W        W86995  40.981  26.636  14.566
21736W        W86996   3.704  42.591   2.400
21737W        W86997   1.424  43.289   2.748
21738W        W86998  28.960  32.469   3.481
21739W        W86999  33.365  11.701  13.936
21740W        W87000  27.277  16.758   0.146
21741W        W87001   8.387  30.671  14.641
21742W        W87002  39.579  38.632  12.595
21743W        W87003  26.058  14.787   3.850
21744W        W87004  44.980  14.065   0.776
21745W        W87005  20.665   5.459   1.185
21746W        W87006  19.261  26.698   2.746
21747W        W87007  15.238  28.584  10.974
21748W        W87008  13.092   6.257   2.619
21749W        W87009   2.285  31.591   4.128
21750W        W87010   5.870  33.395  14.508
21751W        W87011  33.106  11.897  13.468
21752W        W87012  30.943  39.495   4.424
21753W        W87013  34.787  43.720   0.452
21754W        W87014  25.732  30.493  11.725
21755W        W87015  38.966  26.873   4.788
21756W        W87016  30.139   7.609   0.781
21757W        W87017  11.685  42.046   1.366
21758W        W87018  11.243  35.940   1.710
21759W        W87019   4.066  14.740  14.911
21760W        W87020   6.699  26.380   3.216
21761W        W87021  22.028  32.402  13.781
21762W        W87022  22.158  43.961   2.333
21763W        W87023   7.808  16.609  13.780
21764W        W87024   2.972   7.642  13.324
21765W        W87025  20.566  22.803   3.570
21766W        W87026   1.193  33.155  14.957
21767W        W87027  19.866  35.680  13.408
21768W        W87028  13.248  35.545   1.344
21769W        W87029  34.820  22.296  11.090
21770W        W87030  34.075   0.365  10.354
21771W        W87031   7.730  27.002  14.051
21772W        W87032  29.159   4.402  13.042
21773W        W87033  29.940  40.034   4.173
21774W        W87034  24.813  16.491  10.896
21775W        W87035  11.247  25.900  11.391
21776W        W87036  31.410   4.718  13.376
21777W        W87037  27.925  10.340  12.138
21778W        W87038   3.328  44.301  11.615
21779W        W87039  18.736  29.025  11.791
21780W        W87040   5.469  17.367  10.641
21781W        W87041   3.152   6.864   3.302
21782W        W87042   3.079  39.016   2.084
21783W        W87043  12.272  10.628   4.886
21784W        W87044  38.487   9.630   1.422
21785W        W87045  25.368  18.748   0.927
21786W        W87046   5.306  23.608   1.140
21787W        W87047  24.109  24.756   1.243
21788W        W87048  29.035  35.104   0.325
21789W        W87049  44.809  25.090  10.386
21790W        W87050   1.944  11.232   0.846
21791W        W87051  41.962  33.844  11.711
21792W        W87052  20.637  37.044  13.307
21793W        W87053  44.733  26.733  14.412
21794W        W87054  27.416   3.680   2.367
21795W        W87055  18.146  20.245   0.951
21796W        W87056   9.745  33.897   4.055
21797W        W87057  44.344   1.385  12.388
21798W        W87058  27.326  19.466  13.870
21799W        W87059  33.360  10.411   3.224
21800W        W87060  22.703  11.341   1.126
21801W        W87061  19.963   4.217   4.751
21802W        W87062   1.012  31.115   0.389
21803W        W87063   9.457  41.874   1.061
21804W        W87064  22.281   6.014   0.314
21805W        W87065  25.027  25.542  12.936
21806W        W87066  21.906  13.164   0.369
21807W        W87067  16.567   7.801   3.877
21808W        W87068  21.020   1.839   0.045
21809W        W87069  23.216   6.297  12.540
21810W        W87070  10.357  42.354   4.140
21811W        W87071   2.729  43.330   2.489
21812W        W87072   7.813  35.593   2.054
21813W        W87073   3.671  11.718   2.843
21814W        W87074  26.074  34.334   2.393
21815W        W87075  10.813   7.361  14.407
21816W        W87076  30.001   8.640  14.990
21817W        W87077   0.859   4.720   1.797
21818W        W87078  20.146  42.001   2.308
21819W        W87079  34.000  29.465  10.597
21820W        W87080  36.543  44.350   0.757
21821W        W87081  13.146  20.561   4.252
21822W        W87082  16.800  26.640   0.755
21823W        W87083  38.549  36.076  11.507
21824W        W87084  39.202   2.689   0.639
21825W        W87085  16.086  44.498   4.017
21826W        W87086  20.825  29.837  13.368
21827W        W87087   1.507  24.161  11.268
21828W        W87088  25.770   5.285   0.920
21829W        W87089   4.442  24.438   1.794
21830W        W87090  40.350  27.915  11.113
21831W        W87091  16.087  40.123  10.526
21832W        W87092  17.300  11.809   2.373
21833W        W87093   5.436  14.802  13.443
21834W        W87094  26.763   4.897  11.101
21835W        W87095  10.684   6.519  14.065
21836W        W87096   4.343  33.129   2.714
21837W        W87097  27.933  27.643   1.255
21838W        W87098  33.109  41.828  12.920
21839W        W87099  39.155  32.607   0.684
21840W        W87100   7.709   5.849  13.429
21841W        W87101   2.276   1.197   1.241
21842W        W87102  35.149  17.675   4.782
21843W        W87103  40.090   4.385   3.297
21844W        W87104  35.182  40.358   1.061
21845W        W87105  24.622   3.694   1.783
21846W        W87106  20.319  37.412   1.367
21847W        W87107  36.571  43.222   2.693
21848W        W87108  25.953  22.994   4.543
21849W        W87109  30.635   7.533  11.419
21850W        W87110  40.846  23.486  14.106
21851W        W87111  43.932  25.603  11.134
21852W        W87112  15.114  19.275  13.381
21853W        W87113  43.960   3.673  13.068
21854W        W87114   5.137  20.225  12.957
21855W        W87115  35.784   8.681   1.734
21856W        W87116  29.685  31.149  14.926
21857W        W87117  24.223  40.917  11.227
21858W        W87118  40.470   3.003   4.719
21859W        W87119  34.111  13.238   3.532
21860W        W87120  44.460  14.937  14.846
21861W        W87121  34.945   3.885  13.810
21862W        W87122   7.225  29.369  14.786
21863W        W87123  36.919   8.645  11.669
21864W        W87124  22.013  18.329   0.390
21865W        W87125   2.634  21.242   2.372
21866W        W87126  15.328  24.079   3.719
21867W        W87127  11.205  11.863   1.683
21868W        W87128  16.679  34.948  11.936
21869W        W87129  16.698  43.777  14.276
21870W        W87130  21.574  15.224   4.846
21871W        W87131  38.327  39.085  10.674
21872W        W87132  15.174  44.275   0.111
21873W        W87133   1.392   9.772  10.610
21874W        W87134  31.958   8.218  12.930
21875W        W87135   3.998  27.951  14.003
21876W        W87136  18.312  27.998   1.008
21877W        W87137  43.361  42.813  13.562
21878W        W87138  43.238  44.293   3.214
21879W        W87139   8.267   4.518  14.302
21880W        W87140   2.230   3.944   4.577
21881W        W87141  20.811  42.737   4.451
21882W        W87142   4.339  32.055   2.678
21883W        W87143  30.160  35.072   4.646
21884W        W87144  21.721  18.834  13.952
21885W        W87145   2.928  33.969  13.045
21886W        W87146  23.478   4.477  14.477
21887W        W87147  24.098  30.422   2.791
21888W        W87148  41.374  15.186   3.583
21889W        W87149  12.787  15.636   3.709
21890W        W87150  12.158  33.544   3.843
21891W        W87151  18.181  16.804   0.027
21892W        W87152  10.195  42.227  12.018
21893W        W87153  22.275  17.206  13.775
21894W        W87154  18.170  43.506  11.682
21895W        W87155  24.271  21.600   1.736
21896W        W87156   7.693   3.664   2.431
21897W        W87157   2.935  31.799  14.192
21898W        W87158  18.636  26.819   2.289
21899W        W87159   0.831   4.392  12.917
21900W        W87160  33.703  16.170  10.673
21901W        W87161   8.353  44.458   1.393
21902W        W87162   4.039  29.570   1.461
21903W        W87163  12.217  14.154  11.206
21904W        W87164  20.606  39.850  14.065
21905W        W87165  17.087   7.497  11.562
21906W        W87166  24.951  35.811   0.022
21907W        W87167   6.115   8.438  10.838
21908W        W87168   7.254  21.143   3.214
21909W        W87169  21.531  28.156   1.818
21910W        W87170  10.459  34.589   0.829
21911W        W87171   4.842  28.145  11.900
21912W        W87172  25.518   4.657   1.710
21913W        W87173  30.221  44.114  13.816
21914W        W87174  36.909  26.433   4.815
21915W        W87175  26.716  15.169  11.085
21916W        W87176   5.963  43.750   3.257
21917W        W87177  36.509   8.251  11.900
21918W        W87178  41.825  22.201   2.961
21919W        W87179  12.206  37.452  13.785
21920W        W87180  14.942  27.004  10.719
21921W        W87181  40.281  22.612   2.841
21922W        W87182  22.338  42.008   2.259
21923W        W87183  25.249  18.180  13.003
21924W        W87184  16.059   0.416  11.592
21925W        W87185  25.177  33.656  12.092
21926W        W87186  33.895  19.914   3.321
21927W        W87187  16.146   1.886   0.611
21928W        W87188  25.550   9.611   1.842
21929W        W87189  10.363  31.876   3.696
21930W        W87190   6.165  41.471   4.661
21931W        W87191  17.012  13.059   0.945
21932W        W87192  11.896  18.711  12.075
21933W        W87193  43.961  14.196  12.558
21934W        W87194  11.588  33.075   3.415
21935W        W87195  13.736  36.514  12.933
21936W        W87196  30.641  40.516   3.495
21937W        W87197  38.828   8.710   0.416
21938W        W87198  36.458  37.500  12.221
21939W        W87199   4.756  10.134  13.552
21940W        W87200  39.124  43.476   0.858
21941W        W87201   1.521  25.586  11.120
21942W        W87202  37.423  10.258  14.997
21943W        W87203  31.993  39.248   1.729
21944W        W87204  22.446  14.837   4.597
21945W        W87205   5.265  15.728   0.706
21946W        W87206   2.831  11.846   4.856
21947W        W87207  32.906  20.190   3.205
21948W        W87208  38.286  20.046   1.434
21949W        W87209  33.126  36.270   4.643
21950W        W87210  35.052  41.364   3.341
21951W        W87211   0.285   6.915   0.406
21952W        W87212  27.460  21.463   3.203
21953W        W87213  11.909  22.124  10.734
21954W        W87214  37.537   8.895  11.550
21955W        W87215  24.498   3.251  11.276
21956W        W87216  35.006   3.969  13.294
21957W        W87217   7.738  28.392  14.324
21958W        W87218  10.659  31.257   0.281
21959W        W87219  15.642  15.750  11.562
21960W        W87220  18.596  16.373   4.627
21961W        W87221   7.762   5.272   0.995
21962W        W87222  21.978  31.405  12.979
21963W        W87223  14.976  29.840  14.905
21964W        W87224   5.764   8.426  12.500
21965W        W87225  41.365  44.413   2.581
21966W        W87226  39.162  15.340  11.549
21967W        W87227  43.955   2.432  14.640
21968W        W87228  37.044  33.452   3.780
21969W        W87229  28.213  44.489   0.835
21970W        W87230  42.447  32.602  14.795
21971W        W87231  12.221   3.293   0.016
21972W        W87232  29.158   1.995   1.284
21973W        W87233   0.026   6.248   1.411
21974W        W87234  23.961  26.654   1.995
21975W        W87235  10.351  16.834  10.649
21976W        W87236  10.879  44.310   1.426
21977W        W87237  41.063  18.707   1.642
21978W        W87238   1.000   5.487   2.144
21979W        W87239   7.323  28.426  13.120
21980W        W87240  11.882   6.756  14.603
21981W        W87241  36.505  42.444  14.953
21982W        W87242  26.004  30.678   1.287
21983W        W87243  29.226   4.889  12.876
21984W        W87244  19.987  28.072  13.389
21985W        W87245   8.838  37.876   1.395
21986W        W87246  20.645  13.026  11.304
21987W        W87247   0.533  39.097  12.847
21988W        W87248  34.976   5.750   3.764
21989W        W87249  20.308  33.862   4.416
21990W        W87250  12.835  24.994   0.110
21991W        W87251  33.027  11.294  10.757
21992W        W87252   4.930  27.508  13.980
21993W        W87253  10.647  17.523   0.810
21994W        W87254  29.115  25.523   5.689
21995W        W87255  24.085  31.385  14.775
21996W        W87256  16.766  34.043  11.062
21997W        W87257  42.658   5.752  12.485
21998W        W87258  25.130   0.308  11.130
21999W        W87259  14.699  37.112  13.442
22000W        W87260  34.046  32.384   0.626
22001W        W87261   2.966  27.908  12.498
22002W        W87262  17.069  31.527   3.608
22003W        W87263   1.752  22.652   2.576
22004W        W87264  42.087  31.016   2.262
22005W        W87265   9.929   9.133  14.341
22006W        W87266  29.088  29.657  11.902
22007W        W87267  19.690  33.922  13.890
22008W        W87268  36.171  27.216   3.466
22009W        W87269  38.383  37.392  13.049
22010W        W87270  21.244  33.498   0.935
22011W        W87271  37.087  31.109  11.348
22012W        W87272   2.804  18.305   1.740
22013W        W87273  18.312  37.751  11.974
22014W        W87274   3.215  14.156  10.956
22015W        W87275  22.045  28.606   4.798
22016W        W87276  14.580  30.384   2.692
22017W        W87277  21.675  38.592   3.421
22018W        W87278  26.225  39.123   4.210
22019W        W87279  10.399  10.375   2.769
22020W        W87280   5.403  17.725   2.395
22021W        W87281  32.887   5.968   1.740
22022W        W87282  12.408  15.357  11.130
22023W        W87283  19.979   3.744  14.807
22024W        W87284  43.858   2.051  13.566
22025W        W87285   7.839  15.318   1.520
22026W        W87286  32.533  44.619   2.420
22027W        W87287   6.796  43.240  13.825
22028W        W87288  12.102  13.572   1.377
22029W        W87289  26.622  11.655  11.175
22030W        W87290  40.542  24.839  12.026
22031W        W87291  39.974  19.565   1.891
22032W        W87292  39.807  20.087  12.951
22033W        W87293  32.064  31.481   3.638
22034W        W87294   4.519  27.514  14.367
22035W        W87295  15.638   0.483   0.860
22036W        W87296   5.803   2.872  11.586
22037W        W87297  40.319  24.366  12.071
22038W        W87298  17.954   4.329   4.582
22039W        W87299  17.519  27.357   4.460
22040W        W87300  16.624  13.146  14.383
22041W        W87301  33.006  24.674  14.782
22042W        W87302   8.639  26.678   1.437
22043W        W87303  16.657   9.890  14.409
22044W        W87304  20.511  19.148  12.291
22045W        W87305  40.553  23.692   2.389
22046W        W87306  19.448  20.734   1.022
22047W        W87307  26.483  34.671  14.046
22048W        W87308  25.570  10.480  10.652
22049W        W87309   5.936  41.830  14.355
22050W        W87310  28.563   0.884  13.952
22051W        W87311  30.572  12.309   1.294
22052W        W87312   1.018  20.010   0.403
22053W        W87313   6.594  14.020   3.927
22054W        W87314  15.741  44.231  12.123
22055W        W87315  29.883  27.508  13.260
22056W        W87316   6.167   2.416  14.276
22057W        W87317   4.174  34.117  13.398
22058W        W87318   8.100   9.705   4.177
22059W        W87319  32.385  13.581  13.438
22060W        W87320  35.257   0.294  14.942
22061W        W87321  26.269  34.377   3.789
22062W        W87322   3.884  12.820  13.908
22063W        W87323  23.584  33.153  12.823
22064W        W87324  10.664  30.246  13.468
22065W        W87325   3.905  13.491   4.212
22066W        W87326  39.349  20.455   0.259
22067W        W87327   1.844  12.321  12.427
22068W        W87328  15.109  38.881  12.922
22069W        W87329  17.157  44.477  10.351
22070W        W87330  19.452  41.003  13.531
22071W        W87331  21.718  40.644  11.569
22072W        W87332  35.576  15.872   4.250
22073W        W87333  16.261  29.627   1.248
22074W        W87334  17.077  42.488   4.273
22075W        W87335  11.661  22.573  13.298
22076W        W87336  11.437  33.523  13.048
22077W        W87337  18.189  11.369  14.507
22078W        W87338  13.079  16.202   2.639
22079W        W87339  41.766  10.647  12.614
22080W        W87340  21.564  11.789  12.102
22081W        W87341  29.566  19.478   0.883
22082W        W87342  20.228  15.821   3.793
22083W        W87343   3.734  44.904   2.568
22084W        W87344  40.758  24.455  11.134
22085W        W87345  32.472  17.610   2.177
22086W        W87346  25.405  37.677  14.278
22087W        W87347  25.986  18.252  14.378
22088W        W87348  34.530   2.640  13.836
22089W        W87349  34.415  28.446  13.636
22090W        W87350  41.022  17.968   1.179
22091W        W87351   5.755  28.517   0.691
22092W        W87352  20.191  40.455  14.104
22093W        W87353  26.036  43.335   2.599
22094W        W87354   6.719  26.669   1.826
22095W        W87355   7.288  32.008   0.365
22096W        W87356   9.094   6.647   1.890
22097W        W87357  40.934  32.337   4.656
22098W        W87358   2.631  16.128   3.603
22099W        W87359  31.388   6.330   2.070
22100W        W87360  41.742   7.142  14.219
22101W        W87361   3.760  26.696   0.762
22102W        W87362  28.940  15.719   2.224
22103W        W87363   8.553  44.909  14.429
22104W        W87364   9.679  15.977  14.915
22105W        W87365  34.347   0.122   3.405
22106W        W87366   5.274  13.245   2.468
22107W        W87367  14.723   1.940   4.737
22108W        W87368   0.937  24.755   0.226
22109W        W87369  34.043  31.268   1.812
22110W        W87370  18.187   0.782   0.317
22111W        W87371   0.030   0.688  11.267
22112W        W87372  18.290  18.210  11.586
22113W        W87373  19.705   2.020   3.768
22114W        W87374   5.160  14.238  11.174
22115W        W87375  30.670   1.981  12.011
22116W        W87376  31.840  14.291  11.029
22117W        W87377  25.928   8.132  11.963
22118W        W87378   4.753  24.527   2.254
22119W        W87379  31.029  18.014  13.848
22120W        W87380  14.313   1.444  14.401
22121W        W87381  18.514  14.398  10.490
22122W        W87382   2.860  32.221  13.806
22123W        W87383  13.828   1.636   3.490
22124W        W87384  17.056  31.995  13.388
22125W        W87385  30.427  26.713   0.579
22126W        W87386  37.138  27.509  13.764
22127W        W87387  18.098   2.182   4.153
22128W        W87388   3.662   6.107  11.995
22129W        W87389   5.920  22.409  11.505
22130W        W87390  36.476  44.942  13.474
22131W        W87391  23.633   0.939  12.869
22132W        W87392   8.336  22.665  13.830
22133W        W87393  28.438   5.249  10.589
22134W        W87394   4.898  39.548   0.876
22135W        W87395  32.605  22.043   2.736
22136W        W87396  31.612  44.873   2.617
22137W        W87397  41.740   6.375   0.906
22138W        W87398   6.866  36.879  11.173
22139W        W87399  41.856  25.555   3.236
22140W        W87400  15.653   2.228  14.404
22141W        W87401  25.308  19.470  13.532
22142W        W87402  25.750   5.043   0.280
22143W        W87403   2.352  22.828   1.765
22144W        W87404  42.261  14.648  12.931
22145W        W87405   7.216  18.733  12.573
22146W        W87406  32.864  38.325   1.012
22147W        W87407  44.910  42.575  12.115
22148W        W87408  18.258   9.209   4.950
22149W        W87409  38.574   5.456  13.615
22150W        W87410   5.649   0.498  10.812
22151W        W87411   6.675  42.896  12.430
22152W        W87412  41.491  39.965  11.198
22153W        W87413  27.840  13.148  11.901
22154W        W87414  39.900  18.022  11.981
22155W        W87415  41.195  44.868   2.814
22156W        W87416   1.001   7.236   0.878
22157W        W87417  35.901   7.987   3.308
22158W        W87418  39.819  23.517   1.226
22159W        W87419  36.363  41.997   0.195
22160W        W87420  12.190  15.764  10.227
22161W        W87421  16.632  12.898   4.522
22162W        W87422   4.945  32.231   2.173
22163W        W87423  34.345  38.763   1.663
22164W        W87424  11.495  38.983  10.777
22165W        W87425  29.494   2.597  14.328
22166W        W87426  13.361  21.614   4.496
22167W        W87427  20.113  31.470   1.706
22168W        W87428  43.012  15.877  12.046
22169W        W87429  30.288  33.621   0.061
22170W        W87430  22.926  31.361  11.136
22171W        W87431  15.272  44.510  12.888
22172W        W87432  16.327  29.990   4.118
22173W        W87433  14.890   6.805   4.982
22174W        W87434  26.552  12.239   4.643
22175W        W87435  19.707   3.794  14.371
22176W        W87436  11.310  33.542  13.968
22177W        W87437  10.803  36.073   1.959
22178W        W87438  25.992   8.634  14.768
22179W        W87439   6.966  42.704  13.011
22180W        W87440  21.879  19.929  10.691
22181W        W87441   3.493  13.885  10.624
22182W        W87442   1.884  19.700  12.993
22183W        W87443   7.111   4.233   1.363
22184W        W87444  25.026  43.892   1.754
22185W        W87445   8.302   6.970   1.375
22186W        W87446   6.026  10.482  13.357
22187W        W87447  31.257   9.647  11.964
22188W        W87448  14.116  24.220  13.682
22189W        W87449  34.098  21.927   3.089
22190W        W87450  37.278  37.914  12.560
22191W        W87451  21.504  23.580  12.108
22192W        W87452  33.953  24.553  11.609
22193W        W87453   9.712   3.798  12.566
22194W        W87454  25.609  42.308   4.376
22195W        W87455  31.491  31.388   3.792
22196W        W87456   9.883  35.532   2.602
22197W        W87457  37.214  27.691  12.022
22198W        W87458  15.682  10.260  13.848
22199W        W87459  41.178  42.493  13.816
22200W        W87460  40.119  29.206  11.092
22201W        W87461   8.122  24.161  11.158
22202W        W87462  32.994  24.036  13.582
22203W        W87463   4.567   1.090   2.782
22204W        W87464  37.862   4.241   4.185
22205W        W87465  36.769  12.134  12.442
22206W        W87466   1.522  20.161  12.137
22207W        W87467   9.664  43.302  11.667
22208W        W87468  32.606  44.314   3.266
22209W        W87469  26.652  38.314   3.302
22210W        W87470  32.679  41.414  13.743
22211W        W87471  22.902  25.244   1.247
22212W        W87472  18.466  37.826   1.607
22213W        W87473   0.410  39.844   3.888
22214W        W87474  10.827  41.951  14.841
22215W        W87475   1.129   7.122  12.110
22216W        W87476  29.450  35.132  11.306
22217W        W87477  18.263  28.528   1.057
22218W        W87478  38.403   8.390   3.758
22219W        W87479  24.689  39.440   0.992
22220W        W87480  39.619   7.083   3.305
22221W        W87481  20.051  15.626  12.900
22222W        W87482  42.163  44.737  13.940
22223W        W87483   4.459  23.528  12.935
22224W        W87484  17.961  25.991  12.520
22225W        W87485   7.292  39.416  10.972
22226W        W87486  14.348  14.280   3.095
22227W        W87487  15.087  24.555   0.711
22228W        W87488  41.262  15.320   3.084
22229W        W87489  18.599  32.707  13.418
22230W        W87490  23.101  32.501   0.737
22231W        W87491  17.829  28.324   0.240
22232W        W87492   9.260  13.072   2.253
22233W        W87493   6.485  16.788  14.977
22234W        W87494  44.933  11.689   3.070
22235W        W87495  41.757  44.505   0.260
22236W        W87496  24.123  31.258  14.009
22237W        W87497   6.124  38.405  13.897
22238W        W87498  22.645  36.107   1.523
22239W        W87499  13.804  34.034  13.988
22240W        W87500  13.370   7.429   1.244
22241W        W87501  25.232   1.796  12.473
22242W        W87502   2.262  44.948   4.015
22243W        W87503   0.709  33.960  11.615
22244W        W87504  25.208  23.694  13.101
22245W        W87505  30.946   8.350   3.739
22246W        W87506  15.713   8.849  12.382
22247W        W87507   2.781  35.951   0.684
22248W        W87508  13.671   5.862   1.859
22249W        W87509  30.021   1.998   4.364
22250W        W87510  33.383   5.823   1.822
22251W        W87511  14.349  44.500   4.536
22252W        W87512  42.849  25.000  12.346
22253W        W87513  43.699  10.145   2.371
22254W        W87514  30.870  42.092  14.601
22255W        W87515  38.918  29.093  13.881
22256W        W87516  20.735   5.902  10.693
22257W        W87517  13.350  13.304   1.034
22258W        W87518  41.968  23.145   3.208
22259W        W87519   1.824  34.528   4.709
22260W        W87520  32.594  22.973   0.680
22261W        W87521   0.218  26.221   2.595
22262W        W87522  30.676   9.331  13.540
22263W        W87523  22.678   5.437  12.430
22264W        W87524  18.048  20.960   0.324
22265W        W87525  40.433  16.214   2.992
22266W        W87526  44.269  18.632  13.844
22267W        W87527  25.748  37.381  14.007
22268W        W87528  27.877  43.773  12.152
22269W        W87529  34.473  13.653   0.919
22270W        W87530  31.785  32.229   4.134
22271W        W87531  12.070  29.199  14.473
22272W        W87532  34.239   9.697   4.604
22273W        W87533  26.487  38.795   3.247
22274W        W87534  25.756   5.174   2.303
22275W        W87535  34.593  16.908   1.500
22276W        W87536  27.059  39.923  12.879
22277W        W87537  12.301  41.973   0.037
22278W        W87538  16.597  22.475   2.584
22279W        W87539  44.003  18.886  10.467
22280W        W87540  31.994  39.502   1.289
22281W        W87541  10.227   0.070   4.409
22282W        W87542  26.950   7.860   1.786
22283W        W87543  13.786  39.904  13.503
22284W        W87544  25.994   3.794   3.318
22285W        W87545  11.359  17.106  13.637
22286W        W87546  19.940   0.244   3.182
22287W        W87547  29.761   3.799  10.303
22288W        W87548  12.615   1.322   1.928
22289W        W87549  42.517  17.581  12.611
22290W        W87550  42.257  11.012   4.419
22291W        W87551   2.025  39.436   3.286
22292W        W87552  26.059  35.509  10.243
22293W        W87553  36.807  42.052  10.836
22294W        W87554  34.797  14.722  12.121
22295W        W87555  23.568  23.201   4.294
22296W        W87556  40.039  34.513  13.830
22297W        W87557   0.993   4.477   4.077
22298W        W87558  43.937  16.042  13.140
22299W        W87559  23.530  12.801   4.793
22300W        W87560  43.925  24.187  10.533
22301W        W87561  24.841  31.702  14.209
22302W        W87562  33.451  19.759   2.267
22303W        W87563   9.177  35.387   0.428
22304W        W87564  23.816  27.989  10.887
22305W        W87565  18.368  12.177  10.671
22306W        W87566  28.478  44.864  13.124
22307W        W87567  17.104  40.520   4.722
22308W        W87568  24.015  25.970  10.688
22309W        W87569  33.706  17.190  13.853
22310W        W87570  26.064  33.130   4.120
22311W        W87571  18.513   9.146  12.810
22312W        W87572  27.675   3.731  13.370
22313W        W87573   3.026  42.994   0.372
22314W        W87574  25.687  33.415  12.058
22315W        W87575  14.802  31.020   3.448
22316W        W87576  20.242  23.020   0.302
22317W        W87577  13.786  20.828   2.635
22318W        W87578  32.604  43.274  14.310
22319W        W87579   2.513  43.912   1.362
22320W        W87580   3.388   7.253   4.331
22321W        W87581  34.143   5.008   0.496
22322W        W87582  12.577  22.536  14.581
22323W        W87583   6.070  20.770   3.105
22324W        W87584  35.170  24.981  14.299
22325W        W87585  18.244   8.639  12.700
22326W        W87586  43.920   8.943   1.152
22327W        W87587   4.850  30.023  11.528
22328W        W87588  11.753   5.530  12.861
22329W        W87589  30.230  26.542  13.075
22330W        W87590  14.833  14.683   4.721
22331W        W87591   7.237  18.710  13.116
22332W        W87592  23.729   4.874   1.792
22333W        W87593  43.444   5.773   1.278
22334W        W87594  23.064  30.096  11.581
22335W        W87595  12.382  13.124   3.141
22336W        W87596  18.346  36.551  11.346
22337W        W87597  17.518  33.158   2.725
22338W        W87598  44.570   1.876  12.490
22339W        W87599  32.408   3.769  11.761
22340W        W87600  30.206  33.051   3.523
22341W        W87601  22.782   2.794   0.378
22342W        W87602  10.455  34.442  11.669
22343W        W87603  28.493   9.129  13.902
22344W        W87604  27.882  26.055  12.002
22345W        W87605  41.946   7.351   3.694
22346W        W87606  38.870  16.795   4.159
22347W        W87607  39.813   7.650  11.708
22348W        W87608   9.122  14.818   1.333
22349W        W87609  37.750  31.206   2.598
22350W        W87610  37.016  31.135   2.314
22351W        W87611   8.753  35.398  11.664
22352W        W87612  31.414  28.270  11.144
22353W        W87613  14.824  30.162   4.311
22354W        W87614  44.417   8.926  10.667
22355W        W87615  24.566  32.989  12.758
22356W        W87616  11.663  36.212   1.624
22357W        W87617  12.490  33.979  13.869
22358W        W87618  18.991  35.386   3.759
22359W        W87619  13.315  31.645   0.974
22360W        W87620   6.722  38.248   1.236
22361W        W87621  23.145  27.746  12.768
22362W        W87622  21.948  37.133   0.758
22363W        W87623   2.220  19.340   4.892
22364W        W87624  27.507   4.289   1.729
22365W        W87625  13.177  41.080  10.453
22366W        W87626  42.523   8.193   3.994
22367W        W87627  26.108  31.496   1.635
22368W        W87628  10.883  42.697  14.525
22369W        W87629  10.395   2.808  13.148
22370W        W87630   8.509  36.828   0.423
22371W        W87631  27.767  10.615  12.938
22372W        W87632  44.622  41.332   3.278
22373W        W87633   3.394  29.451   3.243
22374W        W87634  14.052   8.283   4.147
22375W        W87635   5.897   3.901   2.400
22376W        W87636  27.648   3.928  11.854
22377W        W87637  40.539  35.628  10.972
22378W        W87638   4.909  18.984  11.281
22379W        W87639   1.020  21.000   4.051
22380W        W87640   8.872  14.594   1.724
22381W        W87641  21.033  25.946  11.322
22382W        W87642  37.044  39.266  13.995
22383W        W87643   4.878  41.614  10.951
22384W        W87644  20.951   1.035  10.985
22385W        W87645   1.414  21.250  11.690
22386W        W87646  13.348  36.594  14.434
22387W        W87647   2.211  40.576   3.234
22388W        W87648  40.553  14.366   2.295
22389W        W87649  31.675   6.198  11.648
22390W        W87650  11.770  27.729   3.074
22391W        W87651  30.631  17.193   0.338
22392W        W87652  14.333   3.792   2.353
22393W        W87653  39.020  20.319  10.534
22394W        W87654   1.360   9.861  12.631
22395W        W87655   3.062   6.857  14.391
22396W        W87656  15.125  28.562  13.069
22397W        W87657  24.108  12.248   3.276
22398W        W87658   7.473  20.578  14.408
22399W        W87659   0.922  23.497   2.686
22400W        W87660  32.115  10.814   4.418
22401W        W87661   6.891  40.216   3.662
22402W        W87662  21.173  31.308  12.573
22403W        W87663  42.981  22.214  11.773
22404W        W87664   8.368   9.844   1.907
22405W        W87665  10.331  29.679  13.027
22406W        W87666  25.661  34.015  10.922
22407W        W87667  20.772   8.874  13.027
22408W        W87668  37.535  13.589   4.146
22409W        W87669  40.855  40.308   2.233
22410W        W87670  21.254  41.081   1.023
22411W        W87671  36.325  31.689   1.859
22412W        W87672  41.826  20.986   5.165
22413W        W87673  35.354   1.931   0.420
22414W        W87674   3.939  34.088   2.784
22415W        W87675  26.723  29.664   1.828
22416W        W87676   1.783  26.943   1.386
22417W        W87677  12.295   6.872  11.789
22418W        W87678  18.809  19.559  14.937
22419W        W87679  13.319   8.217   1.447
22420W        W87680  27.392   3.379   3.021
22421W        W87681  16.500  30.506  14.236
22422W        W87682   0.789   3.009   1.966
22423W        W87683  41.903  41.350   1.704
22424W        W87684  30.614  39.778   2.674
22425W        W87685  18.174  38.031  11.570
22426W        W87686  32.003  34.945  11.003
22427W        W87687  17.760   3.120   5.379
22428W        W87688   5.939  12.861  11.576
22429W        W87689  19.951  35.208  11.200
22430W        W87690  39.763  18.710   0.980
22431W        W87691  27.093  19.701  12.933
22432W        W87692  35.932  18.592   3.659
22433W        W87693  33.895  40.760   3.204
22434W        W87694  12.337  41.515   3.139
22435W        W87695  16.291  34.287   0.888
22436W        W87696   0.779   3.198  10.752
22437W        W87697  20.415   5.900   9.687
22438W        W87698  13.596   0.954  12.418
22439W        W87699   1.504   4.462   4.187
22440W        W87700  35.395  27.046   3.771
22441W        W87701  36.374  17.277   3.551
22442W        W87702  43.452  42.286  14.867
22443W        W87703  36.542   3.273   4.542
22444W        W87704  41.879  39.585  12.050
22445W        W87705  30.346   2.766   0.368
22446W        W87706   1.309  37.608  14.547
22447W        W87707   2.274  23.138   4.176
22448W        W87708  22.200  31.914  14.864
22449W        W87709  23.328  15.142  12.250
22450W        W87710  28.937   3.395  14.882
22451W        W87711  17.096  18.235  14.736
22452W        W87712  20.698  21.126  13.892
22453W        W87713  25.789  17.140   1.937
22454W        W87714  16.110  41.460  13.568
22455W        W87715  17.993  14.119   3.306
22456W        W87716  43.593  17.983  13.585
22457W        W87717  43.882  20.273   1.733
22458W        W87718   9.007  11.447  12.515
22459W        W87719  14.318  12.624   1.330
22460W        W87720  21.339  20.043   1.779
22461W        W87721  17.398  42.347   3.902
22462W        W87722   7.419  13.872  13.284
22463W        W87723  40.280  24.741  12.926
22464W        W87724  16.229  30.117   1.068
22465W        W87725  13.035  21.151  12.641
22466W        W87726   0.996  44.223  10.248
22467W        W87727   9.295  38.819   4.590
22468W        W87728  41.499  37.349  13.385
22469W        W87729   1.250  38.817   2.423
22470W        W87730  11.808  28.137   4.272
22471W        W87731  16.049  33.938   1.859
22472W        W87732  13.960  44.635  12.985
22473W        W87733  25.629  26.619  11.435
22474W        W87734  38.106  33.190   2.300
22475W        W87735  22.630   2.354  14.505
22476W        W87736   3.176  32.674  10.829
22477W        W87737  13.883  37.508   3.449
22478W        W87738  34.869  37.602  13.214
22479W        W87739  26.851  35.330  14.894
22480W        W87740  36.078  42.478   3.394
22481W        W87741   9.500  16.078   4.306
22482W        W87742   9.688   7.129   9.739
22483W        W87743   9.244  33.156   0.089
22484W        W87744  40.624  33.474  13.794
22485W        W87745   3.435  11.146  10.743
22486W        W87746  29.578   8.795   0.775
22487W        W87747  11.586  23.499  11.966
22488W        W87748  27.992  44.999   2.739
22489W        W87749  26.252  30.356  14.420
22490W        W87750  15.625  38.827  12.426
22491W        W87751  34.826  37.074  13.337
22492W        W87752  31.658  23.140  11.542
22493W        W87753  27.715  40.980  13.887
22494W        W87754  22.410  23.115  14.892
22495W        W87755  40.602   5.633   1.857
22496W        W87756  33.164   0.003  14.944
22497W        W87757   4.394  32.891   3.173
22498W        W87758  12.162  10.921  12.263
22499W        W87759  20.567   6.727   1.726
22500W        W87760  23.020   3.225  13.400
22501W        W87761  16.787   7.450  14.019
22502W        W87762   7.467  15.571  11.198
22503W        W87763  31.123   1.413  12.451
22504W        W87764  36.206  10.387  12.006
22505W        W87765  20.821   3.460  14.005
22506W        W87766   6.804   8.360   0.931
22507W        W87767   9.947  24.511   0.025
22508W        W87768  31.775  38.256  10.051
22509W        W87769  33.040  18.529   3.741
22510W        W87770  38.601  30.647  11.893
22511W        W87771  31.233  44.974   1.317
22512W        W87772   2.023  40.836   2.060
22513W        W87773   7.377  31.310   4.129
22514W        W87774  32.886  10.620  11.969
22515W        W87775  23.490  25.546  13.558
22516W        W87776  22.219  36.179   0.848
22517W        W87777  38.100  41.502  10.073
22518W        W87778  37.331  39.178   2.390
22519W        W87779  20.565  29.471  11.184
22520W        W87780   4.346  41.331   2.143
22521W        W87781   3.650  44.850   0.297
22522W        W87782  22.427  18.148   5.450
22523W        W87783  31.390  34.059  14.938
22524W        W87784  40.859  20.924   1.282
22525W        W87785   9.367  16.707  12.047
22526W        W87786  11.452  17.068  11.599
22527W        W87787  12.372  17.575   0.699
22528W        W87788  44.297  30.994   4.129
22529W        W87789  19.494  44.139  12.999
22530W        W87790  10.636  10.908   2.356
22531W        W87791  13.406   8.266  11.642
22532W        W87792  19.226  38.008  11.876
22533W        W87793   2.010   1.051   2.492
22534W        W87794   1.931   2.923  12.148
22535W        W87795  11.032   0.903   2.208
22536W        W87796   4.193  24.703  13.375
22537W        W87797  44.802   4.852  11.916
22538W        W87798   4.701  23.163   2.219
22539W        W87799  23.660  19.982  14.454
22540W        W87800  41.776   0.711   2.862
22541W        W87801  36.898  39.602  14.403
22542W        W87802   7.510  42.796  10.213
22543W        W87803   5.028  19.488  13.939
22544W        W87804  23.285  21.616   1.788
22545W        W87805  44.895  15.144   0.090
22546W        W87806   4.057   1.844   3.842
22547W        W87807  29.430  37.965   4.546
22548W        W87808  23.718   2.515   3.244
22549W        W87809   6.345  22.583   3.607
22550W        W87810   1.190  44.030   1.036
22551W        W87811  35.951  19.966   1.434
22552W        W87812  14.310  40.106   0.612
22553W        W87813  44.765  29.055  12.484
22554W        W87814  21.844  35.482  12.170
22555W        W87815  22.993  27.082  12.119
22556W        W87816   4.791  44.790   0.472
22557W        W87817  37.955  35.478  13.616
22558W        W87818  15.549  13.261  13.878
22559W        W87819  24.255  17.110   2.221
22560W        W87820  25.046  35.536  14.545
22561W        W87821  23.783  29.052   4.599
22562W        W87822   5.908  23.713  12.866
22563W        W87823  20.550  19.212  12.812
22564W        W87824  43.354   3.329  13.884
22565W        W87825  34.592  19.480   0.268
22566W        W87826   4.936  26.000   0.241
22567W        W87827  36.571  17.625  13.089
22568W        W87828  18.466  43.966  11.634
22569W        W87829  32.592   2.948   4.985
22570W        W87830   5.177   6.316  14.702
22571W        W87831  24.957  12.286   0.380
22572W        W87832  28.504  16.330   2.651
22573W        W87833  25.003   4.177  11.198
22574W        W87834  38.858  42.712   1.150
22575W        W87835   9.131   9.696  13.847
22576W        W87836  33.054  15.218   1.806
22577W        W87837  29.766  41.051  13.110
22578W        W87838  14.762  11.167  11.453
22579W        W87839  24.283  14.220  11.142
22580W        W87840  19.606  14.625   4.111
22581W        W87841  14.895  26.653  11.259
22582W        W87842   6.660  35.074   0.837
22583W        W87843  11.122  24.913   2.823
22584W        W87844  33.994  13.058  10.546
22585W        W87845   7.500   1.725   4.547
22586W        W87846  17.999  34.033   3.930
22587W        W87847  19.105   8.685  13.579
22588W        W87848  31.658   7.442  12.509
22589W        W87849   7.108  42.465   0.729
22590W        W87850   5.007  22.234   1.330
22591W        W87851   2.068   6.980  10.254
22592W        W87852  40.528  11.367   4.554
22593W        W87853   4.246  25.728  12.441
22594W        W87854  44.150  23.681  11.623
22595W        W87855  36.303  24.366   3.756
22596W        W87856   1.722  39.028   2.404
22597W        W87857  26.805  32.483  11.448
22598W        W87858  31.195  17.046  10.839
22599W        W87859   8.375  24.537  14.963
22600W        W87860  27.987  23.741  14.602
22601W        W87861   4.438  42.305   0.287
22602W        W87862  13.852  21.138  13.557
22603W        W87863   6.872  27.771   0.937
22604W        W87864  27.611   2.765  13.752
22605W        W87865  28.746  44.220   1.674
22606W        W87866  44.925   2.362   1.715
22607W        W87867  16.741   8.582  11.073
22608W        W87868   0.375  11.239  13.866
22609W        W87869   7.698  24.600  11.769
22610W        W87870  27.035   4.312   1.236
22611W        W87871  23.913   0.430   2.400
22612W        W87872  40.759  15.689  11.698
22613W        W87873   7.955  22.092   1.814
22614W        W87874  26.015  34.913   2.862
22615W        W87875  43.979  21.173  12.127
22616W        W87876  33.397   9.998  10.820
22617W        W87877   3.264  24.937   1.251
22618W        W87878  34.334  39.190   1.999
22619W        W87879  24.615  26.721  11.921
22620W        W87880   6.210   8.789  12.437
22621W        W87881  39.251   4.316  10.731
22622W        W87882   8.165  29.683  14.301
22623W        W87883   1.359  16.619   4.659
22624W        W87884   0.273  12.404   3.214
22625W        W87885   6.958   4.719  11.187
22626W        W87886  37.044  44.746  11.072
22627W        W87887  18.164  28.686  10.683
22628W        W87888  44.420   1.942   3.886
22629W        W87889  38.697  34.581   0.168
22630W        W87890  24.534  43.925  13.093
22631W        W87891  10.207   5.758   2.781
22632W        W87892   2.206   4.630   0.306
22633W        W87893  18.702  15.748  14.954
22634W        W87894   5.946  14.881  13.403
22635W        W87895  41.932  21.079  11.951
22636W        W87896  27.666  18.772  13.952
22637W        W87897  15.598  18.525   2.730
22638W        W87898  39.311   7.813   2.887
22639W        W87899  21.241  17.545   4.117
22640W        W87900  11.671   8.242   0.833
22641W        W87901  34.042   3.434   1.601
22642W        W87902  26.764  34.118   4.596
22643W        W87903  17.037   6.787   2.295
22644W        W87904   1.586   2.682   4.065
22645W        W87905  41.629  37.519  11.521
22646W        W87906  27.960  29.876   0.504
22647W        W87907  18.666  30.642  13.098
22648W        W87908  39.691  31.044  12.482
22649W        W87909  21.207  14.675  13.436
22650W        W87910  39.807  29.614  11.174
22651W        W87911  17.180  12.754  10.802
22652W        W87912   5.788  36.745  13.482
22653W        W87913   4.357  20.013  10.659
22654W        W87914  21.549   8.757   3.171
22655W        W87915  29.640   9.927  14.151
22656W        W87916  33.883   1.195   5.529
22657W        W87917  31.535  10.375   4.161
22658W        W87918   6.906  26.142   3.653
22659W        W87919   8.564   7.795  14.029
22660W        W87920  30.710  11.138  11.640
22661W        W87921   7.070   4.227   1.890
22662W        W87922  11.800  15.498   3.713
22663W        W87923  10.333  15.229  13.989
22664W        W87924  30.637  37.385   0.030
22665W        W87925  28.578  38.447   1.553
22666W        W87926   3.032  32.343   0.232
22667W        W87927  16.773  38.575   4.339
22668W        W87928  14.191  27.238  12.425
22669W        W87929  12.270  21.849   4.132
22670W        W87930  11.344   8.511  11.520
22671W        W87931   0.245  32.093  11.711
22672W        W87932  40.943   9.679  13.352
22673W        W87933   1.548  40.610   2.120
22674W        W87934   2.792   0.988   1.254
22675W        W87935  24.509   5.671  12.493
22676W        W87936  29.436  27.030   1.950
22677W        W87937  43.235  31.889  11.609
22678W        W87938  34.783  10.690  10.691
22679W        W87939  27.994   5.726  14.769
22680W        W87940  16.312  21.672   4.069
22681W        W87941  37.927  25.995   2.222
22682W        W87942  37.647  39.368   2.757
22683W        W87943  27.960  22.315   4.995
22684W        W87944  13.625  28.818   2.274
22685W        W87945   0.102  27.394   3.662
22686W        W87946  36.228  40.598  13.996
22687W        W87947  37.434  11.654  12.400
22688W        W87948  38.372  18.051  12.574
22689W        W87949  22.751  30.946  13.074
22690W        W87950  38.894  14.515   0.882
22691W        W87951   9.220  43.743  13.841
22692W        W87952  15.524  22.459  12.866
22693W        W87953  39.758  25.276  14.093
22694W        W87954  31.476  29.362   0.571
22695W        W87955  29.427  26.956   2.912
22696W        W87956  14.227  16.062   1.219
22697W        W87957  33.814   5.711  10.393
22698W        W87958  21.252  44.862   2.411
22699W        W87959   7.340   9.332   2.383
22700W        W87960  14.834  12.832  10.590
22701W        W87961  39.244  30.442  11.100
22702W        W87962   1.720  26.235   3.641
22703W        W87963  34.826  11.817   4.612
22704W        W87964  33.159   6.172   1.258
22705W        W87965  17.298   7.600  10.188
22706W        W87966   7.270  18.168  10.668
22707W        W87967  36.684   1.987  13.993
22708W        W87968  29.382  41.518   1.845
22709W        W87969  18.254  39.363  14.508
22710W        W87970  30.610  17.746  12.930
22711W        W87971  42.372   7.622  12.941
22712W        W87972  17.158  33.918  11.400
22713W        W87973  19.213  30.428  12.528
22714W        W87974  10.133  15.979   0.342
22715W        W87975  26.726  32.452  12.782
22716W        W87976  33.087   4.014  11.884
22717W        W87977  21.584  21.460   2.418
22718W        W87978   2.970  27.502   0.344
22719W        W87979  39.924  29.461   2.133
22720W        W87980  17.797   0.832   4.496
22721W        W87981  21.798   2.920   0.392
22722W        W87982   9.880  42.914   1.741
22723W        W87983  15.582  44.236  13.881
22724W        W87984  38.794  25.790   2.807
22725W        W87985  42.428  23.718  14.037
22726W        W87986  24.268  23.531  11.810
22727W        W87987  34.893  40.780  11.101
22728W        W87988  44.299  18.625   4.602
22729W        W87989  27.475  40.324   4.342
22730W        W87990  15.820   8.300  12.489
22731W        W87991  15.712  27.527  14.433
22732W        W87992  35.396   6.163   4.087
22733W        W87993   9.646  23.701  13.477
22734W        W87994  43.724  23.491  12.644
22735W        W87995  24.490  34.432   4.014
22736W        W87996  24.958  19.473   4.967
22737W        W87997  16.723  14.118   3.751
22738W        W87998  34.991   8.710   0.522
22739W        W87999  38.312  14.464   2.144
22740W        W88000  10.034  36.717  14.607
22741W        W88001  27.603  18.065   2.471
22742W        W88002  42.360  10.758  12.656
22743W        W88003  41.472  41.675   2.570
22744W        W88004  24.168  30.522  12.498
22745W        W88005   3.272  42.352   1.812
22746W        W88006  29.428  44.836  10.966
22747W        W88007  43.398  41.930   3.364
22748W        W88008  14.255   4.137   4.560
22749W        W88009  29.882  25.071   4.814
22750W        W88010   5.801   3.878  14.926
22751W        W88011  42.782  17.499   2.484
22752W        W88012  26.600   4.426   4.527
22753W        W88013  43.974   4.240  13.045
22754W        W88014  16.883  29.454   2.318
22755W        W88015   1.956  14.053   1.713
22756W        W88016  19.054  38.962  13.492
22757W        W88017  22.221   5.001   2.344
22758W        W88018  20.168  29.679   0.273
22759W        W88019   4.870  15.607   1.041
22760W        W88020  15.998   7.626  14.571
22761W        W88021  16.618  12.744  13.455
22762W        W88022  19.928  41.923  14.436
22763W        W88023   3.364  33.858   1.600
22764W        W88024  36.227  34.522  13.453
22765W        W88025  23.839  12.396  14.257
22766W        W88026  11.780   8.154   3.578
22767W        W88027  12.226  42.353   4.782
22768W        W88028  18.136  35.259   1.879
22769W        W88029  31.786  16.684  11.376
22770W        W88030  23.992  17.144  13.662
22771W        W88031  42.816  40.305  13.521
22772W        W88032  16.644  31.470   2.860
22773W        W88033  21.306  14.394  12.897
22774W        W88034   6.139  21.463   4.170
22775W        W88035  17.837  42.747  12.535
22776W        W88036   0.904  20.440   1.295
22777W        W88037  10.172  41.727  13.311
22778W        W88038  34.431   3.468   1.941
22779W        W88039  13.510   2.324   1.468
22780W        W88040  37.840  18.996   4.295
22781W        W88041  27.972  12.158  12.204
22782W        W88042  41.631  40.500   4.591
22783W        W88043  13.127  20.430  12.508
22784W        W88044  29.904  27.641   1.393
22785W        W88045   4.657  40.515   5.070
22786W        W88046   4.677  22.271   3.106
22787W        W88047   7.199   5.697  11.204
22788W        W88048   8.868  25.414  12.854
22789W        W88049  22.204  28.573  11.192
22790W        W88050  29.893  31.917  11.880
22791W        W88051   0.489  30.017  12.434
22792W        W88052  28.049  35.053  14.439
22793W        W88053  15.053   6.867   4.481
22794W        W88054  43.866  43.571  12.006
22795W        W88055  12.966  42.289  13.562
22796W        W88056  38.590  39.773   4.796
22797W        W88057   1.181  38.009  14.048
22798W        W88058  17.047  32.600  14.871
22799W        W88059  21.527  40.244  13.665
22800W        W88060  41.388  42.193  11.108
22801W        W88061  18.263  38.547  13.577
22802W        W88062  44.320  19.265   4.138
22803W        W88063  40.457  27.689  10.646
22804W        W88064  28.047  34.168  13.140
22805W        W88065  34.486   2.610  10.543
22806W        W88066  27.369  31.464  14.012
22807W        W88067  20.128  27.185   1.364
22808W        W88068  23.649   4.358   1.825
22809W        W88069  31.666  25.726   1.303
22810W        W88070  33.051  33.985  13.992
22811W        W88071   7.744  10.339  13.072
22812W        W88072  27.156  24.766   3.140
22813W        W88073  15.257  22.892   2.377
22814W        W88074  17.232  42.879  11.669
22815W        W88075  41.311  22.762   3.038
22816W        W88076  10.719  33.681   1.943
22817W        W88077  16.660  28.006   1.002
22818W        W88078  43.270  28.017  10.873
22819W        W88079   5.838  12.600   0.994
22820W        W88080  22.500  23.423   2.329
22821W        W88081   7.275   6.739   1.219
22822W        W88082  30.207  19.809   4.509
22823W        W88083  25.073  44.888  10.632
22824W        W88084  12.571  25.687   3.134
22825W        W88085  39.233   9.920   3.545
22826W        W88086  39.315  33.143  12.476
22827W        W88087  41.447   2.116  12.654
22828W        W88088  15.750  35.633  10.587
22829W        W88089   9.253  37.984   0.830
22830W        W88090   8.770  40.878  14.651
22831W        W88091   1.318  21.990  11.824
22832W        W88092   2.245   7.381   2.713
22833W        W88093  14.525  19.189   3.798
22834W        W88094  16.323  26.123  12.603
22835W        W88095  36.849  12.875   3.674
22836W        W88096  40.000  32.039  14.785
22837W        W88097  13.873  12.663  12.962
22838W        W88098  23.644  25.122  10.750
22839W        W88099  24.568  40.018   3.706
22840W        W88100   2.285  20.684   2.116
22841W        W88101   4.951   1.835   4.703
22842W        W88102  12.097  12.032   0.037
22843W        W88103  40.033  33.340  11.233
22844W        W88104  39.967  31.353   2.102
22845W        W88105  17.010  32.019   4.943
22846W        W88106  14.641   8.150   4.977
22847W        W88107  17.999  28.460   1.867
22848W        W88108  20.009  18.526  13.326
22849W        W88109   9.752  21.260  13.889
22850W        W88110   3.466  19.172  12.515
22851W        W88111   6.787  35.071  14.443
22852W        W88112   0.467  10.265  12.828
22853W        W88113  31.376  15.375  13.467
22854W        W88114  43.958  10.285  13.338
22855W        W88115  25.706   6.222  11.392
22856W        W88116  28.107   0.861  14.236
22857W        W88117  28.952  28.106  10.761
22858W        W88118  36.270   2.389  13.546
22859W        W88119  18.963  35.665   1.910
22860W        W88120  16.211  40.276  14.987
22861W        W88121  13.775  35.087  11.567
22862W        W88122  41.886  40.397   2.267
22863W        W88123  33.784  20.091   2.865
22864W        W88124  20.015  17.685   1.228
22865W        W88125  41.326  18.644  12.018
22866W        W88126  42.164  33.389   4.196
22867W        W88127  25.002  28.544  12.937
22868W        W88128  26.208  39.828   0.677
22869W        W88129   1.234  16.205  13.958
22870W        W88130  17.166  36.024  11.150
22871W        W88131   5.458  20.741  14.195
22872W        W88132  28.468   9.835   0.269
22873W        W88133  43.601  16.735  13.817
22874W        W88134   6.713  36.497  11.483
22875W        W88135  40.202  13.620   1.824
22876W        W88136  34.498  18.441  13.052
22877W        W88137   3.764  35.409  11.547
22878W        W88138  21.031  31.461   1.202
22879W        W88139   4.499  26.204  11.583
22880W        W88140  14.847   8.639  12.604
22881W        W88141  30.981   6.264  14.057
22882W        W88142  14.632   0.867  10.500
22883W        W88143  18.727  23.322   2.985
22884W        W88144  35.101   9.709   0.230
22885W        W88145  20.498  33.888  10.028
22886W        W88146  14.567  39.509  12.115
22887W        W88147  32.354   8.506   0.747
22888W        W88148  26.815  43.125   3.691
22889W        W88149  23.955  37.588   2.147
22890W        W88150  18.161   5.891  12.400
22891W        W88151  14.245  29.211   4.836
22892W        W88152  43.480  25.003   3.159
22893W        W88153  24.274   1.640   4.608
22894W        W88154   7.922  36.521  14.959
22895W        W88155  32.579  35.148   0.488
22896W        W88156  34.379   8.468   3.164
22897W        W88157   2.852  38.541   0.790
22898W        W88158  40.459  35.346   4.556
22899W        W88159  19.759  20.609  12.053
22900W        W88160   9.533  40.079  11.209
22901W        W88161  25.080  16.121  11.136
22902W        W88162  33.837  10.653   0.081
22903W        W88163  13.008  33.872  13.538
22904W        W88164  20.576  16.047   4.105
22905W        W88165  31.383  34.183  10.958
22906W        W88166  14.223  34.008   3.435
22907W        W88167  44.722  23.142   1.969
22908W        W88168  12.514  23.314   3.113
22909W        W88169  42.313   3.482  13.412
22910W        W88170  34.790  28.596   3.081
22911W        W88171  30.566   9.883   3.607
22912W        W88172  15.232   2.909  14.647
22913W        W88173  39.096  37.797  12.811
22914W        W88174   6.270   4.953  14.424
22915W        W88175  29.740  37.451   4.040
22916W        W88176  28.484  39.438   1.361
22917W        W88177  20.950  36.553   2.473
22918W        W88178   0.662  14.945   3.788
22919W        W88179   5.727   2.446  12.914
22920W        W88180  10.787  31.811  14.926
22921W        W88181  23.490  39.890   2.286
22922W        W88182  39.622   9.554  11.691
22923W        W88183  30.075   9.305   3.822
22924W        W88184  27.874  25.201   0.847
22925W        W88185  37.632  14.645  11.317
22926W        W88186   9.196   4.533  14.449
22927W        W88187   3.907  18.158   3.830
22928W        W88188  16.208  32.367   0.893
22929W        W88189  24.562  37.931  12.523
22930W        W88190  18.924   7.658   1.299
22931W        W88191  27.384   2.324  12.920
22932W        W88192   4.485  22.535  10.637
22933W        W88193  25.726  15.763   2.760
22934W        W88194  10.923   1.697   3.207
22935W        W88195  39.518  29.315   2.385
22936W        W88196  42.981  39.090  14.693
22937W        W88197  44.491  36.106  14.701
22938W        W88198  25.608   7.642   1.609
22939W        W88199  10.484   2.068   0.506
22940W        W88200  16.556   4.359   0.040
22941W        W88201  28.656   1.289  12.369
22942W        W88202   1.312  27.167   4.034
22943W        W88203  18.144  14.193   0.981
22944W        W88204  24.226  39.836   0.463
22945W        W88205  34.427  11.109  12.487
22946W        W88206  38.471  17.221   0.019
22947W        W88207  29.542  31.226  13.986
22948W        W88208  42.893  20.621   3.280
22949W        W88209  44.758   6.214   3.415
22950W        W88210  10.281  11.728   1.994
22951W        W88211   1.324  33.523   2.353
22952W        W88212  17.788  31.150   4.744
22953W        W88213  34.810  19.492   2.182
22954W        W88214  35.449  14.124   4.390
22955W        W88215  35.103   5.852   1.249
22956W        W88216  22.492   2.731   2.134
22957W        W88217  42.444  40.869   2.813
22958W        W88218  30.152  21.192  12.286
22959W        W88219   1.639  32.438   3.811
22960W        W88220  31.847  27.567   2.109
22961W        W88221  30.932   4.459   4.120
22962W        W88222  38.036  35.655   3.690
22963W        W88223   4.804  42.202  13.002
22964W        W88224  26.614  40.966   4.269
22965W        W88225  24.754   6.951  10.844
22966W        W88226  21.000  36.815  11.306
22967W        W88227  17.752  39.393   0.645
22968W        W88228  29.130  41.964  13.442
22969W        W88229   8.665  11.511   3.287
22970W        W88230  40.002  12.770   1.373
22971W        W88231  21.696   5.833  14.346
22972W        W88232  12.938  42.921  11.382
22973W        W88233  30.953  37.350   2.345
22974W        W88234  25.052   5.765  10.647
22975W        W88235  25.047  27.082   0.737
22976W        W88236  10.375  24.680   4.130
22977W        W88237   6.593  33.471   1.834
22978W        W88238  30.470   8.468   1.900
22979W        W88239  21.988  20.082  11.165
22980W        W88240   8.200   6.769   2.759
22981W        W88241  36.315  10.208  14.334
22982W        W88242   5.183  44.008   3.697
22983W        W88243  19.245  13.293  10.791
22984W        W88244   8.270  34.675   3.660
22985W        W88245  14.578  15.667   1.907
22986W        W88246  25.336  18.523   3.496
22987W        W88247  33.345  30.950   0.450
22988W        W88248  32.851  28.560   1.802
22989W        W88249  24.658  41.299   0.516
22990W        W88250   5.938  12.123   4.172
22991W        W88251   7.371  44.453   3.268
22992W        W88252  41.554  30.402  10.702
22993W        W88253  29.470  22.999   0.458
22994W        W88254  36.314  32.603  14.350
22995W        W88255  39.537   5.575   0.194
22996W        W88256   6.690  38.497   4.109
22997W        W88257  42.555  17.648   0.482
22998W        W88258  29.127  40.410   0.024
22999W        W88259  42.019   0.543   3.293
23000W        W88260  32.178  36.961   1.431
23001W        W88261  17.964   3.076   0.924
23002W        W88262  43.709  25.816   4.797
23003W        W88263   4.369   7.342   3.693
23004W        W88264  17.404  22.215   3.282
23005W        W88265  35.946   5.764   0.787
23006W        W88266  20.267  41.762   1.396
23007W        W88267  13.839  10.165  12.578
23008W        W88268  42.546  35.693   0.310
23009W        W88269  32.560   9.845  13.857
23010W        W88270  32.029  23.234  11.200
23011W        W88271  43.785  18.954   0.168
23012W        W88272  34.976  31.995   1.820
23013W        W88273   6.905   1.962  11.161
23014W        W88274  21.504  15.507   2.915
23015W        W88275  42.866   4.339   4.764
23016W        W88276  23.282  42.113  13.937
23017W        W88277  20.388  29.297  11.640
23018W        W88278  30.484  37.250   1.454
23019W        W88279  17.080  18.154  10.300
23020W        W88280  32.045  43.369   4.462
23021W        W88281  14.112   1.736  13.161
23022W        W88282  11.012  20.862   0.886
23023W        W88283  39.139  19.829  12.186
23024W        W88284  41.589   8.101  14.250
23025W        W88285   7.472  14.347  11.385
23026W        W88286  44.909  24.580   3.630
23027W        W88287  32.044  16.292   2.915
23028W        W88288  30.126  38.875  11.636
23029W        W88289  19.880  37.907   5.314
23030W        W88290  12.085  17.642  12.600
23031W        W88291   4.026  36.545  14.273
23032W        W88292  33.588  32.931  14.860
23033W        W88293  22.558  34.595   3.097
23034W        W88294  22.611  37.424   2.910
23035W        W88295  27.505  41.585  12.187
23036W        W88296  32.061  33.212   2.242
23037W        W88297  21.648  43.601  14.595
23038W        W88298  33.574  37.535   3.654
23039W        W88299   7.650  33.316  12.914
23040W        W88300  16.411   6.057   2.439
23041W        W88301   0.667  18.704  11.719
23042W        W88302  15.154  42.014   3.958
23043W        W88303  32.285  12.521  13.489
23044W        W88304  38.858  37.214  13.249
23045W        W88305  37.591  21.661  12.452
23046W        W88306  28.688  40.535  13.381
23047W        W88307   2.818  21.447  11.515
23048W        W88308  41.536   6.983   0.446
23049W        W88309  19.231  16.269   0.990
23050W        W88310  13.106  31.847   1.411
23051W        W88311  15.299   7.470   3.346
23052W        W88312   4.434  33.635   0.621
23053W        W88313  15.784  19.739  13.395
23054W        W88314  35.313  18.069  12.955
23055W        W88315   2.027   2.833  11.640
23056W        W88316  41.276  38.318   0.683
23057W        W88317   7.249   9.657  12.866
23058W        W88318  26.134  38.537  14.869
23059W        W88319   3.571  13.325   3.851
23060W        W88320  21.829  19.678  14.311
23061W        W88321  26.530   7.755  13.003
23062W        W88322  11.729  17.943   3.219
23063W        W88323  22.624  20.070  13.944
23064W        W88324  41.759  15.377  13.498
23065W        W88325  17.305  33.888   0.736
23066W        W88326  16.287   8.796   2.782
23067W        W88327  21.292   6.447   1.361
23068W        W88328   3.388  41.680   0.038
23069W        W88329  25.208   8.967  11.174
23070W        W88330  10.997   2.896  14.652
23071W        W88331  11.089  18.958   4.961
23072W        W88332  18.046  37.829  14.518
23073W        W88333   8.773   8.902  11.195
23074W        W88334   7.418  33.434   0.851
23075W        W88335   2.417  38.619   3.243
23076W        W88336  33.695  25.041  10.484
23077W        W88337  35.888   5.078   4.503
23078W        W88338  37.272  25.596   1.749
23079W        W88339  34.800  28.404  11.024
23080W        W88340  35.913  25.478  12.432
23081W        W88341   7.205  38.794   1.827
23082W        W88342  44.898  19.068   3.402
23083W        W88343  21.009  29.138   3.654
23084W        W88344  24.466  21.554   4.553
23085W        W88345  28.474  19.822  12.764
23086W        W88346  16.814  31.788   0.938
23087W        W88347  37.413  44.900   2.181
23088W        W88348  12.696  25.753   4.049
23089W        W88349  21.529  17.604  13.500
23090W        W88350  35.514  27.655   1.440
23091W        W88351  13.877   0.281   2.110
23092W        W88352  40.943   2.799  12.119
23093W        W88353  11.828  42.986  14.256
23094W        W88354  30.705  11.330   0.375
23095W        W88355  41.806  39.089   3.818
23096W        W88356  33.489  43.061  10.991
23097W        W88357  40.378  20.306   2.787
23098W        W88358  33.381  12.093   1.406
23099W        W88359  11.704  17.560   1.337
23100W        W88360  28.957  43.913  12.792
23101W        W88361  26.204  43.962  11.122
23102W        W88362  38.034  39.014   4.489
23103W        W88363  31.996   3.775  13.064
23104W        W88364   0.074  11.178  12.593
23105W        W88365  42.062  30.970  14.051
23106W        W88366  19.444   2.883  14.692
23107W        W88367  13.483   7.167  12.086
23108W        W88368  17.054  26.676   3.843
23109W        W88369  26.395  20.183   3.938
23110W        W88370  23.910  18.033  13.516
23111W        W88371  10.612  25.575   5.483
23112W        W88372  39.018  11.391   4.728
23113W        W88373  25.116   3.449  13.370
23114W        W88374  30.330   3.712   0.563
23115W        W88375  36.496  42.459   4.119
23116W        W88376  18.324  36.242   3.105
23117W        W88377  21.188  12.486   4.959
23118W        W88378   9.280   2.410  12.517
23119W        W88379  11.382   9.092  12.003
23120W        W88380   1.342  12.315  13.309
23121W        W88381  11.880  33.936   2.858
23122W        W88382  33.029   1.756   1.881
23123W        W88383  29.304  20.195   0.575
23124W        W88384  28.507  11.717  12.990
23125W        W88385  19.008  27.340   0.968
23126W        W88386  40.094  44.262   3.663
23127W        W88387  27.451   9.874   1.207
23128W        W88388  44.366  34.121   1.729
23129W        W88389  18.532  22.266   3.684
23130W        W88390  14.186  20.566  10.346
23131W        W88391   9.400  18.193  12.647
23132W        W88392  44.158  23.234   3.743
23133W        W88393  21.633   0.729  13.549
23134W        W88394  35.772  33.020  14.821
23135W        W88395  38.982  36.625   2.198
23136W        W88396  42.509  22.028   2.179
23137W        W88397  21.063  15.295   5.018
23138W        W88398  32.843  16.107   0.459
23139W        W88399  28.902   2.177   1.938
23140W        W88400  12.369  39.064  13.464
23141W        W88401  14.823  26.463   4.535
23142W        W88402   4.918  36.097  12.053
23143W        W88403  20.972   8.422  11.269
23144W        W88404  38.275  43.766  13.918
23145W        W88405  43.435  22.001  11.658
23146W        W88406  18.083   7.171  13.812
23147W        W88407  33.728  43.699  12.167
23148W        W88408  28.226  16.684  13.142
23149W        W88409  35.528  16.977  12.532
23150W        W88410  40.355  44.235   0.280
23151W        W88411  19.719  21.862  14.917
23152W        W88412   2.736  13.151  13.258
23153W        W88413  10.679  23.539   2.278
23154W        W88414  21.699  44.253  12.017
23155W        W88415  12.631  17.849  11.658
23156W        W88416  32.200  17.579   3.777
23157W        W88417  14.768  19.343   0.775
23158W        W88418  38.847  23.465   1.408
23159W        W88419  12.669  12.649   2.387
23160W        W88420   9.573  44.343  10.985
23161W        W88421  22.972  14.820   3.867
23162W        W88422  43.254  24.659   2.319
23163W        W88423  24.596  19.561   1.441
23164W        W88424  10.535  28.507   0.713
23165W        W88425  40.707  14.734  13.758
23166W        W88426  34.024  18.713  12.031
23167W        W88427  36.125  22.839  14.974
23168W        W88428  39.815  29.113  14.780
23169W        W88429  27.709   9.301  12.524
23170W        W88430  38.236   6.865   1.147
23171W        W88431  12.241  12.108  14.102
23172W        W88432  21.808  22.128  13.481
23173W        W88433  13.399  23.275   2.379
23174W        W88434  11.129   0.917   4.642
23175W        W88435  25.576   4.367   5.392
23176W        W88436   4.896  20.527  13.337
23177W        W88437   4.422  17.272  13.435
23178W        W88438   7.442  12.321   3.741
23179W        W88439   6.760  22.004   3.155
23180W        W88440  22.506  39.108  13.684
23181W        W88441   8.275  43.221   1.245
23182W        W88442  32.434  33.909   0.764
23183W        W88443  39.818   7.710   1.381
23184W        W88444  38.127  43.379   2.757
23185W        W88445  25.033   9.432  11.093
23186W        W88446  10.539  29.467  14.761
23187W        W88447  14.875  36.219   5.044
23188W        W88448  33.149   9.216   2.792
23189W        W88449  38.985  38.600   2.373
23190W        W88450  14.677  15.823   4.916
23191W        W88451  39.079   0.416   1.639
23192W        W88452  31.897  32.451   2.871
23193W        W88453  43.285  17.210   2.372
23194W        W88454  34.570  25.956  13.396
23195W        W88455   3.338  37.103   4.188
23196W        W88456  21.489   8.883   3.670
23197W        W88457  20.798  43.847   0.981
23198W        W88458   2.956  39.626   1.682
23199W        W88459  41.326  38.498   3.142
23200W        W88460  30.395  35.912  14.779
23201W        W88461   3.189  19.052  12.975
23202W        W88462  17.257  33.503   2.319
23203W        W88463  33.576   6.250  11.563
23204W        W88464   7.192  13.794   0.567
23205W        W88465  38.070  35.633   1.360
23206W        W88466  21.517  21.501  12.607
23207W        W88467  20.220  18.975   0.776
23208W        W88468  15.361  24.177  14.954
23209W        W88469   7.922   3.251  13.349
23210W        W88470  31.690  27.435   3.530
23211W        W88471   4.856   3.316   1.493
23212W        W88472  14.238  32.892   2.157
23213W        W88473  19.030  22.792  14.674
23214W        W88474   6.320   4.309  13.561
23215W        W88475  29.251  34.086  11.954
23216W        W88476  16.729  38.518   4.855
23217W        W88477  21.963  37.578  11.623
23218W        W88478  27.089  21.085  14.597
23219W        W88479   3.870  19.592   4.740
23220W        W88480  36.449  15.079   3.213
23221W        W88481  34.934  13.253  14.833
23222W        W88482  30.224  37.070   2.694
23223W        W88483  44.739  13.436   4.957
23224W        W88484  39.941  28.965   2.306
23225W        W88485  15.240  14.808   2.226
23226W        W88486  11.150  44.170  14.363
23227W        W88487  15.263  14.191  12.869
23228W        W88488  28.416  31.211   0.184
23229W        W88489  30.043  16.887  14.895
23230W        W88490  40.982   7.733  10.668
23231W        W88491   1.731  26.458  11.630
23232W        W88492  33.102   4.598   0.447
23233W        W88493   6.818  26.834  13.643
23234W        W88494  43.566  14.615   4.650
23235W        W88495  20.035  41.813   4.078
23236W        W88496  23.571  27.692  10.533
23237W        W88497  39.877  42.269   4.667
23238W        W88498  27.088  19.079   2.748
23239W        W88499   5.853  43.997  13.160
23240W        W88500  34.740  15.687  13.626
23241W        W88501  20.835  20.052  12.590
23242W        W88502  39.721  15.566   4.244
23243W        W88503   1.774  17.776   0.002
23244W        W88504  19.512  43.938   0.387
23245W        W88505   7.382  19.557  14.670
23246W        W88506  42.913  37.322   2.356
23247W        W88507  26.380  42.626   5.068
23248W        W88508  15.590  27.088   4.946
23249W        W88509  11.775  31.832  12.060
23250W        W88510   9.895  29.848   4.507
23251W        W88511  32.019  29.884   2.881
23252W        W88512  25.640  36.345   3.358
23253W        W88513  22.595  42.098  13.477
23254W        W88514  18.540  34.890   0.594
23255W        W88515  14.857  21.340  13.429
23256W        W88516  10.631   2.534   2.153
23257W        W88517  21.142  23.494   3.016
23258W        W88518   4.250   6.122  10.652
23259W        W88519  29.682   2.808   1.491
23260W        W88520   8.482  20.660  10.422
23261W        W88521  15.336  21.891   2.332
23262W        W88522  40.975   5.954   2.835
23263W        W88523   5.657  35.872  11.010
23264W        W88524  41.742  32.574  12.025
23265W        W88525  25.433  41.919   4.706
23266W        W88526   0.720  19.116  12.519
23267W        W88527  42.772  15.213  13.266
23268W        W88528  39.998  37.832   2.512
23269W        W88529   7.253  39.935  11.090
23270W        W88530  29.308  14.716  11.700
23271W        W88531  43.162  12.036  14.439
23272W        W88532  34.348  18.078   0.469
23273W        W88533  21.159  35.638   3.718
23274W        W88534  38.781  42.166  13.932
23275W        W88535  44.364  31.334   3.311
23276W        W88536  18.087   1.238  13.526
23277W        W88537  37.315  18.104  11.523
23278W        W88538  41.787  26.825  10.129
23279W        W88539  23.679  26.893   2.721
23280W        W88540  34.044   6.724   3.796
23281W        W88541  35.498  15.771  10.529
23282W        W88542   9.798  44.226   3.157
23283W        W88543   2.311  18.730   4.242
23284W        W88544   9.754   1.145   2.693
23285W        W88545  26.736  27.000  12.048
23286W        W88546  17.056  14.628   0.235
23287W        W88547  35.998  31.361   0.278
23288W        W88548  24.359  10.083  14.294
23289W        W88549  36.970  14.859  14.985
23290W        W88550  30.918  23.658   4.362
23291W        W88551   4.859  40.749   1.805
23292W        W88552   4.535  32.857  11.141
23293W        W88553   1.795  20.801   2.174
23294W        W88554  20.569  35.978   0.653
23295W        W88555  21.057  17.813  13.456
23296W        W88556  18.161  17.907   3.801
23297W        W88557  35.289  38.457  11.390
23298W        W88558  28.174  44.494  10.694
23299W        W88559   1.475  39.033   0.667
23300W        W88560  18.626  39.964   4.501
23301W        W88561  16.811  35.415   1.307
23302W        W88562  20.981  36.796  13.624
23303W        W88563  14.099  39.033  12.820
23304W        W88564  16.728  29.973   1.001
23305W        W88565  24.747  41.343   1.784
23306W        W88566  26.058  15.427  13.290
23307W        W88567  40.692  44.987   2.754
23308W        W88568  43.848  33.568  14.165
23309W        W88569  16.816  19.575  12.978
23310W        W88570   2.969  19.583  13.837
23311W        W88571  20.765  42.257   4.636
23312W        W88572  33.122   5.631   2.224
23313W        W88573  29.552  30.100   3.854
23314W        W88574  40.790  28.194   5.048
23315W        W88575  34.117  43.921   2.102
23316W        W88576  28.550  34.613   4.166
23317W        W88577  26.621  15.597   3.549
23318W        W88578  40.155  17.564  10.732
23319W        W88579   9.777  13.248  14.078
23320W        W88580   7.019   9.122   4.652
23321W        W88581  15.238   1.775   3.610
23322W        W88582  19.704  22.586   3.724
23323W        W88583  24.451  15.772   2.810
23324W        W88584  17.790  16.622  14.711
23325W        W88585  29.662  18.960   0.965
23326W        W88586  23.440   4.080   0.415
23327W        W88587  23.980   4.253   2.849
23328W        W88588  10.264   7.778  12.176
23329W        W88589   7.228  32.875  10.766
23330W        W88590  29.515  12.256   4.299
23331W        W88591  19.210  40.953  12.600
23332W        W88592  11.376  25.788   4.136
23333W        W88593  22.362  16.632  10.820
23334W        W88594  29.193  39.854  10.843
23335W        W88595  23.961  43.006  12.305
23336W        W88596  24.115   1.788   1.406
23337W        W88597  29.155   7.113   3.653
23338W        W88598   3.546  27.421  12.826
23339W        W88599  42.952  30.436   1.515
23340W        W88600  31.788  37.331   0.652
23341W        W88601  36.653   7.771  12.032
23342W        W88602  17.619  16.487   2.655
23343W        W88603  34.913  13.089  11.564
23344W        W88604  43.346  42.504  13.970
23345W        W88605  24.564  28.045   4.042
23346W        W88606  38.716  16.943  11.981
23347W        W88607   5.688  15.378  12.533
23348W        W88608  13.393  28.565  11.598
23349W        W88609  36.928   2.730   0.318
23350W        W88610  22.179  22.739  12.187
23351W        W88611  16.971  30.966  11.481
23352W        W88612  14.220  44.239   0.685
23353W        W88613  38.270   0.704   0.834
23354W        W88614  18.946   1.050  12.043
23355W        W88615  36.844  41.878   0.044
23356W        W88616   2.850  44.470  12.599
23357W        W88617  29.144  16.311  11.126
23358W        W88618  41.101  14.620   3.605
23359W        W88619  28.879  25.992  11.641
23360W        W88620  13.478  37.437  12.642
23361W        W88621  24.233  15.576  12.868
23362W        W88622   1.177  38.947  13.777
23363W        W88623  10.907  35.981  12.577
23364W        W88624  34.987   6.201   4.528
23365W        W88625  24.536  29.140   2.130
23366W        W88626   6.700  27.577  11.849
23367W        W88627   7.952   5.647  12.998
23368W        W88628  23.454  32.123  11.532
23369W        W88629  30.423  29.603  14.790
23370W        W88630  26.971  37.610   2.143
23371W        W88631  29.449   8.373   1.787
23372W        W88632  28.436  19.300   9.871
23373W        W88633  24.077  44.890   0.903
23374W        W88634  40.976  28.948   4.750
23375W        W88635  14.669  44.329  12.176
23376W        W88636  28.636  21.790   0.726
23377W        W88637  20.596  34.681  11.957
23378W        W88638  29.762   7.575   3.422
23379W        W88639  21.088  35.685   0.462
23380W        W88640  17.207  12.261   0.464
23381W        W88641  25.210  13.567   1.030
23382W        W88642  22.712  16.330  11.645
23383W        W88643  41.442   1.874  13.936
23384W        W88644   1.314  14.323   0.722
23385W        W88645  35.421  27.218  13.372
23386W        W88646   6.706   2.797  10.976
23387W        W88647  35.984   7.370  12.625
23388W        W88648  18.924  44.331   3.067
23389W        W88649   6.971   1.468   1.650
23390W        W88650  24.582  30.700   2.857
23391W        W88651  16.232  12.023  13.824
23392W        W88652  39.305  25.776  14.313
23393W        W88653  28.079  20.005  11.463
23394W        W88654  41.159   6.346   1.742
23395W        W88655  25.146   6.797   4.579
23396W        W88656  34.353  40.864  14.598
23397W        W88657  20.589  13.700  10.628
23398W        W88658  12.285  25.760   4.691
23399W        W88659  31.862  29.030  10.736
23400W        W88660  17.919  23.624   0.248
23401W        W88661  20.085  20.240   3.002
23402W        W88662   1.744  40.404  14.861
23403W        W88663   3.395   3.929  10.376
23404W        W88664  14.603  22.261   4.447
23405W        W88665  44.303   6.926  11.045
23406W        W88666   7.405  37.368  13.957
23407W        W88667  19.088   9.750  11.627
23408W        W88668  28.918   3.183  10.607
23409W        W88669  25.248   1.865   0.464
23410W        W88670   0.605  32.808   4.926
23411W        W88671  28.623  31.471   4.671
23412W        W88672  11.901  13.333  13.386
23413W        W88673  26.464   5.200  12.985
23414W        W88674  36.813  21.494   0.819
23415W        W88675  23.074   9.195  13.097
23416W        W88676  32.719  28.643  12.923
23417W        W88677  40.126  16.458  11.388
23418W        W88678   7.228   8.701   4.922
23419W        W88679  33.227  24.144   2.749
23420W        W88680  13.860  14.667   2.278
23421W        W88681   6.963  35.601  13.452
23422W        W88682   7.927   9.280  14.038
23423W        W88683   5.244  20.042   2.214
23424W        W88684  17.134  42.978  13.015
23425W        W88685   5.502  35.456  11.647
23426W        W88686   3.884  21.490   0.991
23427W        W88687   0.255  28.552   3.449
23428W        W88688  17.009  33.415   3.203
23429W        W88689   0.376   8.833   0.486
23430W        W88690  14.565  32.194   3.257
23431W        W88691  24.661   0.720   0.887
23432W        W88692  10.653   7.270  13.482
23433W        W88693  37.504   2.225  14.885
23434W        W88694  34.174  14.334   2.160
23435W        W88695  32.751  43.570   3.631
23436W        W88696   2.910  19.524  11.593
23437W        W88697  42.090  34.899  12.007
23438W        W88698  38.316  34.113   2.766
23439W        W88699  14.490  13.007  11.358
23440W        W88700   9.330  29.230  14.443
23441W        W88701  25.874  35.982  13.324
23442W        W88702  39.349  27.491   3.777
23443W        W88703  10.266   0.986   2.858
23444W        W88704  21.582  37.517  13.197
23445W        W88705  16.743  14.159   2.773
23446W        W88706  36.543  34.149  13.303
23447W        W88707  26.619  13.624  12.333
23448W        W88708  44.721  16.608  12.142
23449W        W88709  34.054  27.428  11.700
23450W        W88710  14.836  42.333  12.413
23451W        W88711  36.280  42.879  13.485
23452W        W88712   1.021  26.352   2.261
23453W        W88713  12.832  42.085  11.915
23454W        W88714  30.179  16.979   0.386
23455W        W88715  33.326  30.498  13.362
23456W        W88716  20.585  36.723  13.976
23457W        W88717  25.626   0.429   2.195
23458W        W88718  17.667  20.571  13.265
23459W        W88719  16.047   3.430  13.212
23460W        W88720  23.411  26.037   4.307
23461W        W88721   4.385   8.739   0.968
23462W        W88722   0.647  20.437  13.083
23463W        W88723  19.709  39.906   3.129
23464W        W88724  39.018  34.596   2.548
23465W        W88725  15.852   0.520   0.356
23466W        W88726   9.769  14.604   4.548
23467W        W88727  26.872  40.924   0.394
23468W        W88728  25.573  18.099   3.648
23469W        W88729  14.376  15.776  11.468
23470W        W88730  31.177   3.156  12.133
23471W        W88731   6.697  20.158   2.671
23472W        W88732  12.310  34.010   3.636
23473W        W88733  44.830  25.124   1.727
23474W        W88734  32.219  22.004   0.045
23475W        W88735  36.824  28.823  12.360
23476W        W88736  16.514  39.968   4.355
23477W        W88737  39.615  40.822  10.455
23478W        W88738  24.433  17.759  12.993
23479W        W88739  10.313  42.690   1.927
23480W        W88740  33.362  39.286  11.225
23481W        W88741  29.075  27.868  13.347
23482W        W88742  13.581  29.065   0.348
23483W        W88743  20.835  16.909  12.854
23484W        W88744  18.287  39.076   0.878
23485W        W88745  37.281  17.633  14.385
23486W        W88746  14.343  35.189   2.237
23487W        W88747  31.376  18.340   2.947
23488W        W88748  34.048  27.377   1.423
23489W        W88749  33.014  28.532  13.792
23490W        W88750  29.527  25.982  14.801
23491W        W88751   1.378   9.589  13.499
23492W        W88752  24.652   9.926   2.835
23493W        W88753  37.975   4.258   2.298
23494W        W88754  10.248  24.036  11.512
23495W        W88755  20.752   3.363  10.412
23496W        W88756  40.525  30.205   0.363
23497W        W88757  35.425  31.209   1.940
23498W        W88758  44.968  13.570   4.086
23499W        W88759  34.196   6.983  13.872
23500W        W88760  23.920  43.297  14.262
23501W        W88761   3.398  22.743  12.323
23502W        W88762   0.349   5.921  14.435
23503W        W88763  40.843   8.655  11.165
23504W        W88764  42.770  40.467   2.825
23505W        W88765  34.153  33.739   3.074
23506W        W88766  19.214   4.178   3.837
23507W        W88767  40.422  23.563  14.442
23508W        W88768  28.098  31.055  13.587
23509W        W88769  13.744  27.216  12.849
23510W        W88770  14.091  19.544  13.827
23511W        W88771   8.291  29.983  12.889
23512W        W88772  10.248  21.087  13.946
23513W        W88773  42.929  26.447   1.265
23514W        W88774  26.468  36.600  14.206
23515W        W88775  17.782  39.823  11.460
23516W        W88776  30.133  37.604  11.272
23517W        W88777  32.500   1.373  11.148
23518W        W88778   4.452  44.722  14.472
23519W        W88779   8.921  40.484   0.636
23520W        W88780  13.996  28.577  11.062
23521W        W88781   7.335  38.530  12.948
23522W        W88782  42.793  34.101   1.933
23523W        W88783  21.689  26.774   0.852
23524W        W88784  19.736   1.456  12.387
23525W        W88785   9.150  40.100  13.551
23526W        W88786  25.163  42.588   3.253
23527W        W88787  10.836  44.768  12.499
23528W        W88788   3.407  33.570  11.574
23529W        W88789  19.642   6.842  13.006
23530W        W88790  12.908  28.452  11.486
23531W        W88791  24.023   9.108   0.187
23532W        W88792  23.178  22.829   2.130
23533W        W88793  22.827   7.798   1.532
23534W        W88794  36.668  17.081  13.616
23535W        W88795  26.667  39.504  14.534
23536W        W88796   8.705   7.351  13.270
23537W        W88797  29.717  19.956   0.338
23538W        W88798  37.473  10.780   3.239
23539W        W88799  42.870  23.768  11.722
23540W        W88800  20.216   4.561   5.014
23541W        W88801  42.303  24.678  13.848
23542W        W88802  38.780  16.646  13.625
23543W        W88803  10.869  28.155   1.808
23544W        W88804   5.925   2.488  11.266
23545W        W88805  12.265  34.165  14.547
23546W        W88806  17.035  30.608   3.594
23547W        W88807   1.258   1.917   2.620
23548W        W88808   0.007  27.967   3.247
23549W        W88809  32.566  22.437  14.320
23550W        W88810   8.068   1.901  12.015
23551W        W88811  14.642  41.222  11.183
23552W        W88812  17.769  26.679  14.487
23553W        W88813   4.477  25.029  11.938
23554W        W88814  28.379  19.256   0.745
23555W        W88815  29.146  19.437  12.784
23556W        W88816  28.159   1.659   0.761
23557W        W88817  26.190  42.810   4.219
23558W        W88818  13.557  43.873   3.104
23559W        W88819   6.689  41.263  12.949
23560W        W88820  12.534  35.973  10.731
23561W        W88821   5.794   0.730  12.585
23562W        W88822  38.942  17.774   0.292
23563W        W88823  10.084  10.847  14.569
23564W        W88824   5.898   1.885   1.374
23565W        W88825  37.922  28.979  13.811
23566W        W88826   6.957   0.331  13.097
23567W        W88827  22.559  41.504   0.420
23568W        W88828  13.620  38.254  10.708
23569W        W88829  15.622  17.093  14.071
23570W        W88830  11.259  22.158   0.026
23571W        W88831  37.590  37.228  13.256
23572W        W88832  43.741  23.477  14.061
23573W        W88833  36.830   5.067   0.897
23574W        W88834  35.010  44.448  13.391
23575W        W88835  20.730   1.209   4.025
23576W        W88836  19.165  24.145   3.670
23577W        W88837  25.411  43.979  14.804
23578W        W88838  16.762  21.187   2.328
23579W        W88839  15.845  43.712   9.937
23580W        W88840   3.924  26.022  14.082
23581W        W88841  18.185  39.053  11.596
23582W        W88842  23.968  18.833  14.850
23583W        W88843   2.398  26.898   0.692
23584W        W88844  19.159  41.335   3.127
23585W        W88845  34.160  22.581  13.022
23586W        W88846  30.050  19.031   3.264
23587W        W88847  22.066  28.827  13.088
23588W        W88848   0.363  34.316  13.350
23589W        W88849  15.960  24.686  14.084
23590W        W88850  29.094  13.649  12.930
23591W        W88851   2.957  41.542   2.439
23592W        W88852   8.741  14.481   4.585
23593W        W88853  34.392   1.159   3.190
23594W        W88854  11.086   4.912  14.905
23595W        W88855  35.650  43.819   1.814
23596W        W88856  39.961  19.124   3.904
23597W        W88857  42.495  36.620   0.307
23598W        W88858  11.679  27.150   3.989
23599W        W88859  13.155  20.658   2.423
23600W        W88860  39.692  19.834   2.880
23601W        W88861   4.878  32.054  11.440
23602W        W88862  17.749  32.253  11.071
23603W        W88863   7.107   4.885   4.175
23604W        W88864  33.006  41.253  12.758
23605W        W88865  10.379   1.875  12.929
23606W        W88866  11.447  44.480   1.155
23607W        W88867  39.823   4.138  12.899
23608W        W88868  10.950  37.320   2.006
23609W        W88869  40.906  22.588  14.758
23610W        W88870  26.068  20.852   3.570
23611W        W88871  30.900  40.782  10.631
23612W        W88872  28.977   2.255   0.319
23613W        W88873  41.584  44.938   0.867
23614W        W88874  18.249  10.571   0.457
23615W        W88875  35.057   7.514  10.879
23616W        W88876   5.418  32.535   2.181
23617W        W88877  44.345  18.611  11.074
23618W        W88878  43.391  15.810  14.211
23619W        W88879  12.045  20.628   0.790
23620W        W88880  44.800  35.408   0.719
23621W        W88881  20.172  31.417  13.485
23622W        W88882  32.383  23.681  13.305
23623W        W88883  25.454  23.338  12.274
23624W        W88884  24.018   1.344  14.262
23625W        W88885  37.631  38.062  10.740
23626W        W88886  14.681  44.571   2.641
23627W        W88887  17.860  40.495  14.911
23628W        W88888  26.943  38.988  11.630
23629W        W88889   4.915   2.800   2.925
23630W        W88890  36.545  31.184  14.260
23631W        W88891  24.340   1.476   3.356
23632W        W88892  15.824  27.137   4.138
23633W        W88893  26.657  44.278   1.829
23634W        W88894   9.330  17.467   4.496
23635W        W88895   5.319  21.848   3.696
23636W        W88896  15.969  43.415   0.885
23637W        W88897  17.427  23.805  10.278
23638W        W88898  12.629  15.801   4.172
23639W        W88899   2.980  28.376  13.308
23640W        W88900   3.337   3.514  11.669
23641W        W88901   8.840  22.720  13.711
23642W        W88902  12.116  44.277  13.473
23643W        W88903  26.158  11.268   4.121
23644W        W88904   9.717  31.890  14.837
23645W        W88905  41.032  19.014   1.228
23646W        W88906  18.721  43.797   0.887
23647W        W88907   0.667  30.950  12.133
23648W        W88908  26.740   2.229  14.381
23649W        W88909  15.154  18.006  13.941
23650W        W88910  10.785  24.272  11.549
23651W        W88911  40.785  42.538   3.926
23652W        W88912   6.698  19.608   1.018
23653W        W88913   5.960  27.020   3.134
23654W        W88914   6.194  20.928   0.869
23655W        W88915  24.474  22.119  14.795
23656W        W88916  18.156  20.480  11.235
23657W        W88917   4.423  21.219   3.109
23658W        W88918  18.854  28.972   0.302
23659W        W88919  11.300   6.790  12.936
23660W        W88920   1.055   1.858  11.536
23661W        W88921  27.584  22.134   4.412
23662W        W88922  27.523  44.709  12.410
23663W        W88923   7.476   4.427  12.423
23664W        W88924  12.955  23.694   0.762
23665W        W88925   5.435  14.441  10.721
23666W        W88926   1.620  12.222   2.943
23667W        W88927  41.976  39.929   0.418
23668W        W88928   7.090  43.036   4.590
23669W        W88929   0.299  32.495  11.109
23670W        W88930  15.172  27.015   0.506
23671W        W88931   7.147   6.635   3.773
23672W        W88932  12.294  38.138   2.478
23673W        W88933  41.748  30.619  14.808
23674W        W88934  39.146  29.357  12.515
23675W        W88935  32.941  28.069  13.583
23676W        W88936  18.578  41.729  12.166
23677W        W88937  26.216  31.929  13.526
23678W        W88938  17.682  18.654  13.511
23679W        W88939  38.076  22.219  11.048
23680W        W88940  40.531  27.231   0.024
23681W        W88941   8.921  31.645   2.426
23682W        W88942  21.504  35.931  12.836
23683W        W88943  34.673   7.852   4.678
23684W        W88944   4.229  37.008  14.314
23685W        W88945   6.692   6.277   1.389
23686W        W88946  20.260  21.567   3.287
23687W        W88947   8.903  35.039   1.814
23688W        W88948   1.809  26.664   2.679
23689W        W88949   5.524  12.561  12.911
23690W        W88950   3.268  12.851  11.276
23691W        W88951   2.108  30.835  14.806
23692W        W88952   7.965  14.454   1.329
23693W        W88953   9.541   5.997   3.192
23694W        W88954  43.809  26.027  10.685
23695W        W88955  28.555   0.184  10.324
23696W        W88956   2.947  24.486  14.839
23697W        W88957  30.121  41.581   1.179
23698W        W88958  10.027  35.861   3.900
23699W        W88959  28.406  32.296  13.785
23700W        W88960  38.392  42.940   0.966
23701W        W88961   3.372   3.809   0.003
23702W        W88962   9.108  20.114  13.338
23703W        W88963  29.535  30.130   4.357
23704W        W88964  38.850  32.387   2.305
23705W        W88965  11.676  22.759   2.919
23706W        W88966   5.852  26.894   4.103
23707W        W88967  27.949  38.900  11.732
23708W        W88968  39.417  26.887   0.926
23709W        W88969   6.472   4.418  12.419
23710W        W88970   8.358   3.487   2.789
23711W        W88971  28.929  32.003   1.848
23712W        W88972  26.283   1.031   3.348
23713W        W88973  38.042  38.153   3.002
23714W        W88974   5.173   6.510  11.588
23715W        W88975   7.158  14.359  12.966
23716W        W88976  24.515   9.240   1.425
23717W        W88977  12.867  37.997  11.182
23718W        W88978  38.039  39.837   3.103
23719W        W88979  23.079  31.514   0.962
23720W        W88980  33.156   8.706   2.353
23721W        W88981  32.759  43.979   1.033
23722W        W88982  19.347   9.260  14.935
23723W        W88983  41.584   4.262   2.870
23724W        W88984   6.801  26.170   0.927
23725W        W88985   3.125  12.079   3.183
23726W        W88986   3.718  29.737  14.232
23727W        W88987  44.560   1.536   2.180
23728W        W88988  10.294  17.961   4.129
23729W        W88989  42.826  44.851   1.018
23730W        W88990  24.429   1.483   0.561
23731W        W88991  27.029  15.392   0.429
23732W        W88992  20.066  14.458  10.950
23733W        W88993  44.275  13.854   4.558
23734W        W88994  27.680  24.402  11.723
23735W        W88995  35.598  38.043  14.129
23736W        W88996  36.521  13.926  14.293
23737W        W88997   3.118   3.697   3.560
23738W        W88998  38.455  24.758  12.477
23739W        W88999  40.793  24.577   2.435
23740W        W89000  12.810  15.828   2.268
23741W        W89001  33.927  41.123  14.880
23742W        W89002  44.389  21.991   0.680
23743W        W89003  26.188  13.441   1.856
23744W        W89004   4.316   2.743   2.483
23745W        W89005   8.299  28.946   2.883
23746W        W89006   7.605   2.181  12.969
23747W        W89007   0.097  32.017   1.925
23748W        W89008  14.372  39.026  12.387
23749W        W89009   0.298  29.523  12.628
23750W        W89010   9.211  13.452   1.408
23751W        W89011  36.632  30.096  12.959
23752W        W89012  41.332  27.535   1.419
23753W        W89013   4.160  40.314   2.891
23754W        W89014   4.640  41.063  14.278
23755W        W89015  13.216  17.665   1.330
23756W        W89016  25.583  20.095   1.582
23757W        W89017   5.019  31.798  13.737
23758W        W89018  43.318   5.166   1.312
23759W        W89019  13.791  37.385  12.126
23760W        W89020  40.540  43.371   0.710
23761W        W89021  15.514   9.826   1.556
23762W        W89022  38.587  10.107   4.604
23763W        W89023   2.241  22.264   3.463
23764W        W89024  42.958   9.430   3.724
23765W        W89025  12.752  23.206  13.862
23766W        W89026  32.599  36.375   0.271
23767W        W89027  26.591  28.429   0.231
23768W        W89028  23.679  39.844  13.709
23769W        W89029  27.420  41.059   2.681
23770W        W89030  21.682  10.245   1.190
23771W        W89031  40.732  34.482  13.061
23772W        W89032  14.347  10.350  10.536
23773W        W89033  33.604  20.767  14.360
23774W        W89034  15.813  16.378  12.389
23775W        W89035  33.597  10.798  10.345
23776W        W89036  40.811  33.847   3.695
23777W        W89037  29.653   8.990  13.765
23778W        W89038   2.782  38.067   4.517
23779W        W89039   2.383  28.551   3.177
23780W        W89040   8.298   6.034  13.028
23781W        W89041  15.828  37.093   4.712
23782W        W89042  41.938   5.943  13.406
23783W        W89043  14.578  40.785   1.487
23784W        W89044  38.354   4.853  12.952
23785W        W89045  30.742  29.931   0.572
23786W        W89046  16.478   2.556   1.865
23787W        W89047  35.476  19.777  13.017
23788W        W89048  33.089  44.715   2.866
23789W        W89049  16.139   4.690   2.786
23790W        W89050  24.965   5.906  12.398
23791W        W89051  27.647   6.411  13.680
23792W        W89052  23.647  33.804  14.490
23793W        W89053  25.819  25.632   0.351
23794W        W89054  26.121  38.857  12.632
23795W        W89055  34.302   3.380  11.617
23796W        W89056   9.192  22.977   4.734
23797W        W89057  30.562  12.975  14.975
23798W        W89058   2.907  37.787  12.521
23799W        W89059  34.903   1.413   3.842
23800W        W89060  24.992  11.598   4.581
23801W        W89061   8.936   1.525   2.286
23802W        W89062   1.564  19.559  11.646
23803W        W89063  35.580   9.443   4.230
23804W        W89064  12.613   5.661   4.863
23805W        W89065   9.772  36.792  13.406
23806W        W89066  34.073  30.183  11.097
23807W        W89067  39.318  28.983  14.816
23808W        W89068   2.671  29.358   3.738
23809W        W89069  23.965   0.878   2.071
23810W        W89070   2.350  33.661  14.397
23811W        W89071  22.939  19.554   4.662
23812W        W89072  17.242  35.966   4.467
23813W        W89073   4.886  36.275   4.536
23814W        W89074  43.805  16.559  10.745
23815W        W89075  23.506  21.556  13.439
23816W        W89076  24.708  38.922  12.458
23817W        W89077  40.301  21.269  13.481
23818W        W89078  22.256   7.438   1.768
23819W        W89079   3.663   6.726   2.371
23820W        W89080   2.280   6.862   3.630
23821W        W89081   4.460  19.729  11.068
23822W        W89082   2.161  25.195  11.634
23823W        W89083  27.466  44.506   4.535
23824W        W89084  11.330  35.957   0.759
23825W        W89085  27.664  23.821  14.993
23826W        W89086  22.049  38.580   0.780
23827W        W89087  37.046  35.075   1.544
23828W        W89088  12.810  30.620  13.754
23829W        W89089   4.479  23.973  11.268
23830W        W89090   4.427  43.047  12.957
23831W        W89091  44.652  20.508  11.082
23832W        W89092  10.797  41.874  10.538
23833W        W89093  37.994  11.986   0.213
23834W        W89094  34.563  12.781   2.836
23835W        W89095  44.011  11.147   0.294
23836W        W89096  12.644   5.964  11.580
23837W        W89097   7.755  27.880  14.387
23838W        W89098  34.280   6.231   1.863
23839W        W89099  26.576  32.701   3.180
23840W        W89100   4.721  21.827  11.557
23841W        W89101  33.587  34.630   2.317
23842W        W89102  42.311   7.296  11.594
23843W        W89103   3.425  41.159   3.771
23844W        W89104  21.625  29.134  10.687
23845W        W89105  42.198  17.743  12.235
23846W        W89106  36.795  32.378  11.419
23847W        W89107  25.081  32.607  10.716
23848W        W89108  10.614  35.416   4.027
23849W        W89109  21.230   7.268  14.012
23850W        W89110  15.217  13.048   0.369
23851W        W89111  22.172  30.661   2.786
23852W        W89112   1.968   3.446   0.851
23853W        W89113  25.672  12.296   4.306
23854W        W89114   8.914  15.113   0.049
23855W        W89115  40.585  39.283  13.923
23856W        W89116  33.672  11.360   0.879
23857W        W89117  14.149  25.485   4.462
23858W        W89118  20.678   5.926  11.576
23859W        W89119  21.141  18.693   1.224
23860W        W89120  35.873  11.111   1.255
23861W        W89121   0.759   7.372  12.841
23862W        W89122   4.470  32.470   1.355
23863W        W89123  42.384  35.532  14.338
23864W        W89124  17.738  13.555   1.451
23865W        W89125   9.251   2.697  11.449
23866W        W89126  12.436  28.427  11.665
23867W        W89127  44.457  35.963   4.642
23868W        W89128  21.321  16.725  12.920
23869W        W89129  18.636  30.408  13.559
23870W        W89130   5.886  13.544   4.159
23871W        W89131  11.412   6.503   1.972
23872W        W89132  29.838  29.756   5.282
23873W        W89133   6.216  27.763   0.407
23874W        W89134  26.298  16.547  14.974
23875W        W89135   3.191  20.103   1.373
23876W        W89136  26.725  37.607   4.660
23877W        W89137   9.055   7.660  11.465
23878W        W89138  13.206   2.006   1.185
23879W        W89139   3.153  22.312  11.568
23880W        W89140  18.475   7.150   3.407
23881W        W89141   9.588  26.578   0.454
23882W        W89142   7.665  12.739  12.038
23883W        W89143  37.019  25.262  12.529
23884W        W89144  13.816  25.024   2.961
23885W        W89145  39.013  24.485   2.375
23886W        W89146   5.973  44.741   3.243
23887W        W89147  34.217   9.852   1.788
23888W        W89148  44.564   6.220  14.519
23889W        W89149  40.256  20.614   3.696
23890W        W89150  12.838  18.126  10.841
23891W        W89151   3.572  24.056   0.725
23892W        W89152  24.674  40.040   4.585
23893W        W89153  15.153  16.272  12.880
23894W        W89154   9.827  29.137  11.650
23895W        W89155   4.266  26.190   4.630
23896W        W89156  29.640  19.073  14.551
23897W        W89157   8.627  24.591   2.808
23898W        W89158  25.556  20.448   5.511
23899W        W89159  41.681  23.847   1.206
23900W        W89160  41.043  20.674   0.870
23901W        W89161  18.678   6.770   3.147
23902W        W89162  31.496  26.192  13.143
23903W        W89163  16.698  22.017   2.377
23904W        W89164  31.680  21.791  10.884
23905W        W89165  29.433   8.220   3.703
23906W        W89166  31.988  37.760  12.990
23907W        W89167   7.797   9.239   1.599
23908W        W89168  11.560  38.653  12.915
23909W        W89169  35.013  16.131   2.731
23910W        W89170  39.523  42.495  14.923
23911W        W89171  35.365  25.082   2.167
23912W        W89172  25.974   6.875  11.978
23913W        W89173  21.226  27.688   0.063
23914W        W89174  32.679  17.675   2.868
23915W        W89175  30.170  38.444   2.929
23916W        W89176  23.210   3.363   0.054
23917W        W89177  27.581  15.220   2.760
23918W        W89178  23.669  17.262  14.052
23919W        W89179  26.668  28.611  13.351
23920W        W89180  43.002  15.215  12.712
23921W        W89181   1.225  38.054   3.765
23922W        W89182  36.095   2.724  12.058
23923W        W89183  26.519   8.704  14.876
23924W        W89184  12.792  24.285  13.836
23925W        W89185  33.809  17.153  14.343
23926W        W89186   1.714  26.457   3.151
23927W        W89187  39.899  42.881   1.257
23928W        W89188  13.452  37.425   2.758
23929W        W89189   6.256  26.575   3.970
23930W        W89190   7.260  14.865   2.234
23931W        W89191  36.812  30.103   2.334
23932W        W89192  36.671  42.900   4.488
23933W        W89193   4.763  21.734   1.682
23934W        W89194  19.537  29.019   1.162
23935W        W89195  11.145  30.614  12.204
23936W        W89196  18.495   3.864   0.820
23937W        W89197  26.626  11.236   4.353
23938W        W89198  39.809   5.083  11.500
23939W        W89199  40.257  23.573  12.275
23940W        W89200  14.839  33.150  13.354
23941W        W89201  21.257  19.814  10.309
23942W        W89202  37.672   0.353   2.109
23943W        W89203  25.859   7.667   2.822
23944W        W89204  17.975  12.601   2.385
23945W        W89205   8.746  28.046   0.987
23946W        W89206  35.909  12.568  13.525
23947W        W89207  24.978  36.520  13.425
23948W        W89208  33.865   4.484  12.854
23949W        W89209  12.352   5.390  14.818
23950W        W89210  44.962  44.359  11.156
23951W        W89211  25.440   7.790  14.552
23952W        W89212  19.295  27.304   1.867
23953W        W89213  24.959  32.156  13.983
23954W        W89214  19.753  13.576  14.757
23955W        W89215  39.280  26.078  13.601
23956W        W89216  31.767  43.984  11.156
23957W        W89217  26.951  25.159   2.275
23958W        W89218  39.818  13.738  14.961
23959W        W89219  40.515   5.395  12.239
23960W        W89220   4.846  11.083   1.827
23961W        W89221   8.951  36.807   4.905
23962W        W89222  32.654   3.814   0.023
23963W        W89223  31.916  16.731   1.576
23964W        W89224  37.578  14.581   4.086
23965W        W89225  13.111  37.917  12.514
23966W        W89226  40.426  36.193   3.239
23967W        W89227  15.859  31.679   3.965
23968W        W89228  42.068  22.532   1.817
23969W        W89229  43.004  25.310   0.535
23970W        W89230   8.001   3.343   4.138
23971W        W89231  22.047  14.744   3.878
23972W        W89232  17.421  32.372  10.670
23973W        W89233  27.929  23.052   0.416
23974W        W89234  43.386   4.171   2.655
23975W        W89235   7.563  18.683  11.686
23976W        W89236  18.546  41.455   4.745
23977W        W89237   9.637  26.033  14.800
23978W        W89238  27.149  29.300   3.209
23979W        W89239  32.419  18.028   4.587
23980W        W89240  16.818  33.247  13.015
23981W        W89241   7.759  22.494   4.076
23982W        W89242  42.394  17.712  11.635
23983W        W89243  25.607   7.543   1.095
23984W        W89244  23.179  44.848  12.909
23985W        W89245  35.030  26.737  14.226
23986W        W89246  40.421  34.918   0.255
23987W        W89247  41.763   3.349   0.920
23988W        W89248  41.001  36.521  13.946
23989W        W89249   9.107  12.614   4.663
23990W        W89250  27.615   9.830   3.368
23991W        W89251  33.776  14.752   1.957
23992W        W89252  38.374  39.971  11.698
23993W        W89253  14.717  26.811   1.815
23994W        W89254  20.010  18.541  11.058
23995W        W89255   1.889  32.572   3.373
23996W        W89256  27.121   6.604  10.343
23997W        W89257  25.395   0.824  14.810
23998W        W89258  20.164   2.546  12.059
23999W        W89259  30.021  12.543   1.324
24000W        W89260  18.545   5.717   1.964
24001W        W89261   8.455   9.322   4.669
24002W        W89262  35.468   5.877   3.598
24003W        W89263  30.906  19.538  12.897
24004W        W89264  32.090  14.111  11.870
24005W        W89265  17.558  16.226   4.836
24006W        W89266  16.422  11.753   2.712
24007W        W89267  39.453  18.135  12.978
24008W        W89268  38.883   2.902  11.731
24009W        W89269  27.743   4.772   2.242
24010W        W89270   9.027  13.934   1.434
24011W        W89271  36.934   2.159   4.166
24012W        W89272   3.624  16.767   1.276
24013W        W89273  35.041  30.618   3.233
24014W        W89274  42.335  29.188  11.564
24015W        W89275  18.642  37.205   5.043
24016W        W89276  40.320  42.324  12.091
24017W        W89277   6.706  22.219   4.122
24018W        W89278  17.586  18.209  10.263
24019W        W89279  10.634  44.755   1.579
24020W        W89280  43.423  33.518  11.166
24021W        W89281  34.460   6.210  12.884
24022W        W89282  39.769  15.746  14.355
24023W        W89283  17.696  41.414   0.980
24024W        W89284  32.526  42.316   0.880
24025W        W89285  19.798   4.871  12.896
24026W        W89286  30.064  43.240   2.711
24027W        W89287  24.926  27.756  12.073
24028W        W89288   0.673   9.242  13.062
24029W        W89289   8.756   2.569  14.101
24030W        W89290  34.477  13.073  10.814
24031W        W89291  32.082   4.486   1.451
24032W        W89292  38.012  36.196   0.265
24033W        W89293  17.138   8.110  11.837
24034W        W89294   2.601  30.791  11.145
24035W        W89295  18.374  19.114  11.525
24036W        W89296  36.207   1.407   2.845
24037W        W89297  35.140  25.494  10.251
24038W        W89298  19.062  26.449   3.627
24039W        W89299  37.114  44.309   9.784
24040W        W89300  33.383   0.872  13.293
24041W        W89301  38.758  32.502  11.848
24042W        W89302  41.389   6.206   2.204
24043W        W89303  17.309  11.435   4.602
24044W        W89304  21.023  14.112   3.956
24045W        W89305  39.891  42.920  12.843
24046W        W89306  37.411  38.574   0.917
24047W        W89307  40.020   7.094   3.627
24048W        W89308  28.556  36.010   3.121
24049W        W89309  44.763  20.580   4.043
24050W        W89310   8.632  11.865   1.986
24051W        W89311  11.904  17.163  14.476
24052W        W89312  32.527  26.912   4.502
24053W        W89313  29.978  40.867  14.514
24054W        W89314  15.056  21.663   1.309
24055W        W89315  12.906  24.614  11.639
24056W        W89316  22.443  31.461  13.865
24057W        W89317  17.814  33.608   2.650
24058W        W89318  44.163  16.109   2.158
24059W        W89319  33.163  27.684   4.983
24060W        W89320  40.449  11.594  13.549
24061W        W89321  11.206   8.115  12.840
24062W        W89322  30.305  22.667   4.716
24063W        W89323  21.292   1.536   0.405
24064W        W89324  14.356   5.851   3.267
24065W        W89325  22.419  10.712   3.739
24066W        W89326  36.794  20.707  12.458
24067W        W89327  18.976  14.113   4.304
24068W        W89328  11.705   2.658   3.113
24069W        W89329   1.473  39.838   4.604
24070W        W89330  18.333  42.381  14.262
24071W        W89331  29.263  16.198   1.107
24072W        W89332  44.216  28.469  13.818
24073W        W89333  11.218  30.286  13.020
24074W        W89334  22.419  25.653  14.837
24075W        W89335  32.606  36.515  14.396
24076W        W89336   0.254  18.672  11.104
24077W        W89337  38.067   5.310  13.884
24078W        W89338   8.620  32.716  14.494
24079W        W89339   8.062  14.110   1.747
24080W        W89340  18.538  19.981  14.734
24081W        W89341  21.586  22.829   4.515
24082W        W89342   4.969   0.787  10.453
24083W        W89343  13.161  38.038   3.380
24084W        W89344   7.773  44.782   3.571
24085W        W89345  33.286  44.793   5.040
24086W        W89346  32.095   2.512  12.383
24087W        W89347  10.528  32.143   0.224
24088W        W89348  22.611  32.403  12.155
24089W        W89349   7.652  16.500   0.638
24090W        W89350  28.140  11.017  10.754
24091W        W89351   2.791  31.516   4.222
24092W        W89352  15.549   3.987   1.065
24093W        W89353  31.681  24.519   3.727
24094W        W89354  44.135  39.769   3.758
24095W        W89355  27.369  20.029   0.423
24096W        W89356  21.693  19.599   3.687
24097W        W89357  40.401  18.281  11.134
24098W        W89358  22.382  17.758  13.122
24099W        W89359  16.135  24.679   1.064
24100W        W89360  34.998  39.635  14.323
24101W        W89361  20.627  20.509  10.181
24102W        W89362  26.427  20.691  10.919
24103W        W89363  27.546  19.606  14.323
24104W        W89364  34.603   7.372   1.015
24105W        W89365   0.285  41.937  12.499
24106W        W89366  10.125   1.633  13.321
24107W        W89367  21.812  10.628  12.471
24108W        W89368   0.763   3.689  12.442
24109W        W89369  37.022  12.171  11.569
24110W        W89370  16.948  11.744   2.747
24111W        W89371   8.128  32.414  12.424
24112W        W89372  28.764  13.812  10.771
24113W        W89373  18.712  37.450  11.405
24114W        W89374   5.236  23.700   3.138
24115W        W89375   8.445  21.246   0.886
24116W        W89376  12.897  16.239   4.118
24117W        W89377  35.524   8.121  14.541
24118W        W89378  16.890  36.063   1.815
24119W        W89379  19.509   6.169  12.095
24120W        W89380  31.872   1.274  14.048
24121W        W89381  13.698  13.107   1.881
24122W        W89382  18.062  26.631  14.929
24123W        W89383  30.045  32.805  12.059
24124W        W89384  40.861  22.232   0.645
24125W        W89385  18.428  44.380  10.782
24126W        W89386  16.833  18.338  10.725
24127W        W89387  44.910  16.259  12.456
24128W        W89388  28.030  18.470  11.737
24129W        W89389  31.028  40.220   2.543
24130W        W89390   7.400  16.654   3.312
24131W        W89391  35.920   1.726  14.061
24132W        W89392  27.929  41.133   4.139
24133W        W89393  26.101   2.787  13.780
24134W        W89394  32.833  35.832  14.812
24135W        W89395  28.636   5.129   3.291
24136W        W89396  38.581  43.438   0.917
24137W        W89397  30.927  14.085  14.399
24138W        W89398  34.586   9.173  10.986
24139W        W89399  31.608  27.926   2.399
24140W        W89400  39.376  39.668  12.994
24141W        W89401  18.530  40.495   2.295
24142W        W89402   8.966   8.112   1.146
24143W        W89403  29.365   4.785  13.528
24144W        W89404  33.129  17.634   1.332
24145W        W89405  18.086  39.540  12.275
24146W        W89406  27.223  15.397  12.488
24147W        W89407  24.631  43.002   1.629
24148W        W89408  14.876  22.169  13.475
24149W        W89409   1.393   1.374   1.450
24150W        W89410   6.307  31.113   4.524
24151W        W89411  35.578   6.810  14.410
24152W        W89412  31.413  21.827  14.359
24153W        W89413  16.128   1.499  14.106
24154W        W89414  34.516  30.580   2.987
24155W        W89415  28.294   6.188   1.228
24156W        W89416  34.525  36.881  14.698
24157W        W89417  21.579  36.999  15.000
24158W        W89418  12.772  17.832   1.507
24159W        W89419   4.731  20.608  12.006
24160W        W89420  32.387  14.867  12.934
24161W        W89421  28.555  31.720  10.276
24162W        W89422  28.634  30.529   4.463
24163W        W89423  17.143  42.769   3.799
24164W        W89424  34.451  37.459  11.747
24165W        W89425   7.197  25.050   2.786
24166W        W89426  25.491  24.574  13.011
24167W        W89427   2.177  20.173   1.491
24168W        W89428  42.625  26.242  11.165
24169W        W89429   4.968  44.701  12.806
24170W        W89430  13.249  28.725  13.878
24171W        W89431  38.434  29.494  14.484
24172W        W89432  41.972  17.399  11.667
24173W        W89433  12.875  24.436  14.823
24174W        W89434  25.431  36.597  13.133
24175W        W89435  41.756   8.015   5.024
24176W        W89436  32.621   8.361  12.087
24177W        W89437  40.787  22.029  13.867
24178W        W89438   1.364  31.633  13.125
24179W        W89439   1.916  39.408  13.202
24180W        W89440  22.649   4.928   3.139
24181W        W89441   1.993  39.978  10.694
24182W        W89442  36.574  27.874   1.771
24183W        W89443  31.542  13.368   2.113
24184W        W89444  29.600   5.212  11.727
24185W        W89445  43.574  31.627   0.824
24186W        W89446  29.751   6.206  11.987
24187W        W89447  32.330   7.339   2.821
24188W        W89448  36.599   9.768  14.594
24189W        W89449  29.463   6.564  11.661
24190W        W89450  28.155  25.182   1.282
24191W        W89451  31.452  28.520   0.683
24192W        W89452  32.432   6.962   0.300
24193W        W89453  33.999   7.433  12.515
24194W        W89454  15.690  19.759   2.363
24195W        W89455  21.049  15.792   0.922
24196W        W89456  11.348  13.221   3.142
24197W        W89457  13.877   2.701  10.761
24198W        W89458  14.702  25.934   0.866
24199W        W89459   5.413  15.506   2.333
24200W        W89460  37.931   4.664   1.984
24201W        W89461  43.559   9.172   1.460
24202W        W89462   3.781  22.274  13.726
24203W        W89463   8.651   2.025  12.784
24204W        W89464  14.222   9.288  14.087
24205W        W89465  25.480  27.632  13.887
24206W        W89466   7.313  37.099   4.547
24207W        W89467  29.374  35.444  11.713
24208W        W89468  10.279  28.437   4.932
24209W        W89469   6.261   8.601   1.651
24210W        W89470   3.782  28.702   4.249
24211W        W89471  20.584  42.392   2.762
24212W        W89472  42.684  44.040  13.523
24213W        W89473  34.113  35.128  11.689
24214W        W89474  36.319  41.621   0.953
24215W        W89475   9.782  35.885  13.369
24216W        W89476   7.084  28.632   0.671
24217W        W89477  22.219  40.605   2.779
24218W        W89478  15.944  21.268   1.750
24219W        W89479   9.989  13.241   1.737
24220W        W89480   6.296  41.771  14.957
24221W        W89481  21.748  37.258  11.108
24222W        W89482  14.066  28.013  13.476
24223W        W89483   2.498  42.535  14.599
24224W        W89484  29.701   4.292   2.222
24225W        W89485  29.990  43.370  14.970
24226W        W89486  29.456  30.409  11.124
24227W        W89487  34.053   4.412   1.170
24228W        W89488  12.266   1.735   2.660
24229W        W89489  27.821  17.953  10.008
24230W        W89490  28.922  35.866   0.785
24231W        W89491  43.396  12.310   0.419
24232W        W89492  25.103  38.963  11.612
24233W        W89493  25.420  15.812   2.304
24234W        W89494   2.364   6.141  14.823
24235W        W89495   0.505   9.648  12.009
24236W        W89496   5.144  27.398  13.368
24237W        W89497   4.653  28.073   2.547
24238W        W89498  27.606   2.331   3.398
24239W        W89499  11.311  44.011   1.405
24240W        W89500  25.638  29.416  14.725
24241W        W89501  10.439  30.043  12.571
24242W        W89502  40.387   8.849  14.794
24243W        W89503  19.979  40.568   1.207
24244W        W89504  24.645   1.298   4.776
24245W        W89505  44.208  21.558   3.210
24246W        W89506  35.542  19.018  11.671
24247W        W89507   6.829  28.907  12.462
24248W        W89508  32.456   4.405  12.671
24249W        W89509  29.952  10.367   4.270
24250W        W89510  21.495   8.296   0.466
24251W        W89511  17.149  32.889  11.564
24252W        W89512  21.569  24.094   1.694
24253W        W89513   2.814  44.482   4.676
24254W        W89514  25.014  20.185   4.375
24255W        W89515  40.924  15.042   3.368
24256W        W89516  29.287  19.739  10.715
24257W        W89517  15.828  17.198   2.346
24258W        W89518  19.028   3.038  13.984
24259W        W89519   2.834  30.677   3.785
24260W        W89520  18.606  12.630   1.493
24261W        W89521  20.350   4.972   9.756
24262W        W89522  21.693  16.257   1.679
24263W        W89523   6.143  38.732  10.728
24264W        W89524  42.695  43.738  13.113
24265W        W89525  12.902  43.837  13.337
24266W        W89526  26.266  33.340   4.559
24267W        W89527  36.936  16.537  14.179
24268W        W89528  12.553  34.023   0.550
24269W        W89529  36.142   1.380   2.228
24270W        W89530  11.731  44.312  12.545
24271W        W89531  34.327  39.422  11.848
24272W        W89532  24.689  12.292  12.348
24273W        W89533  37.410  18.571   1.125
24274W        W89534   6.212   4.637   0.263
24275W        W89535  27.976  18.124  14.500
24276W        W89536  15.087  35.335  12.482
24277W        W89537  21.637  29.369  13.617
24278W        W89538  18.664   3.760  11.609
24279W        W89539  35.637  28.499  11.723
24280W        W89540  17.144  41.485   3.319
24281W        W89541  20.574  39.973   3.659
24282W        W89542  27.641  14.195   3.303
24283W        W89543  37.161  42.264  11.150
24284W        W89544  28.358   5.820   4.381
24285W        W89545  44.766   3.014  10.582
24286W        W89546  39.040  24.098  13.007
24287W        W89547  30.842  31.797   0.807
24288W        W89548  35.617  22.617  13.905
24289W        W89549   5.090  12.372  13.165
24290W        W89550  34.437  12.949  14.966
24291W        W89551   3.915  23.943   3.597
24292W        W89552  21.699  13.011   4.956
24293W        W89553   9.167  42.545  13.281
24294W        W89554   2.301  32.671   1.934
24295W        W89555  33.552  11.141  10.733
24296W        W89556  40.593  41.164  11.128
24297W        W89557   3.831  43.836   0.336
24298W        W89558   5.398  33.586  11.120
24299W        W89559   0.828  31.555  13.049
24300W        W89560  28.601  10.333   3.231
24301W        W89561  10.484  29.915  11.638
24302W        W89562  27.489  23.563  10.960
24303W        W89563  26.003  19.560   2.621
24304W        W89564  26.115  28.447  14.936
24305W        W89565  23.482  43.451   0.491
24306W        W89566  22.182   0.925   3.092
24307W        W89567  12.399  30.841  13.978
24308W        W89568  38.140  39.499   2.643
24309W        W89569  27.706  40.005   2.318
24310W        W89570   7.232  12.330  14.370
24311W        W89571  41.069   1.340   1.449
24312W        W89572  36.606  16.488  14.571
24313W        W89573  25.135  40.084  10.635
24314W        W89574  23.631   4.342  11.551
24315W        W89575  12.837   0.941   0.365
24316W        W89576  15.501   2.345   4.704
24317W        W89577   8.731   8.370   3.994
24318W        W89578  13.211  14.528  14.477
24319W        W89579  34.670  12.226   0.466
24320W        W89580  11.724  21.844  11.155
24321W        W89581  21.684  26.563   4.551
24322W        W89582   0.759  10.797   2.643
24323W        W89583  24.936  14.571   4.036
24324W        W89584   9.666  43.916   1.260
24325W        W89585   5.206  44.790   1.904
24326W        W89586  23.788   3.958  13.388
24327W        W89587  22.760  14.606   0.364
24328W        W89588  25.655  30.766   3.931
24329W        W89589  37.340  18.662   3.567
24330W        W89590  38.298   0.437  14.455
24331W        W89591  43.816  18.079   4.213
24332W        W89592  27.959  39.490  12.106
24333W        W89593  37.046   5.381  14.091
24334W        W89594   4.947  34.083   1.313
24335W        W89595   2.373  42.414   4.928
24336W        W89596  17.080  36.259   0.682
24337W        W89597  12.528  34.606   2.954
24338W        W89598  30.304  13.645  10.532
24339W        W89599  29.251  39.443   3.364
24340W        W89600  37.988  25.272   1.795
24341W        W89601  23.659  14.056  13.064
24342W        W89602  29.595  32.637   4.576
24343W        W89603  13.371  16.806   4.829
24344W        W89604  36.089   8.249   1.693
24345W        W89605   0.912  40.771   3.116
24346W        W89606  29.840  18.283  11.022
24347W        W89607  15.388   9.874  12.471
24348W        W89608   2.050   6.187   0.401
24349W        W89609   0.755  43.889   2.244
24350W        W89610  41.033  35.778   1.910
24351W        W89611  15.277  24.633   0.241
24352W        W89612   9.986  24.658  10.116
24353W        W89613  44.503   2.551   4.752
24354W        W89614  11.133  42.231  14.370
24355W        W89615  35.489  36.891   0.536
24356W        W89616  18.280  13.121  12.065
24357W        W89617   2.482  28.542   1.808
24358W        W89618   7.014  32.301   1.423
24359W        W89619  32.631   0.538  12.400
24360W        W89620  18.809  24.149  14.364
24361W        W89621  36.951  33.623  13.917
24362W        W89622  14.326  23.320   2.449
24363W        W89623   2.414   8.901   4.865
24364W        W89624  41.739   1.935   3.218
24365W        W89625   0.760  38.138   3.402
24366W        W89626  22.176  18.251  12.399
24367W        W89627  13.368   9.730   3.665
24368W        W89628   0.985  26.928  12.282
24369W        W89629  10.219  11.863   3.001
24370W        W89630  40.780  19.597  12.066
24371W        W89631   4.686   6.224   4.581
24372W        W89632  42.408  26.978  10.683
24373W        W89633  16.204   8.795  12.548
24374W        W89634   7.693  21.287  13.855
24375W        W89635   9.381   9.685   0.255
24376W        W89636  32.947  39.559  11.308
24377W        W89637  27.736  35.934   2.747
24378W        W89638  35.560   6.226   3.205
24379W        W89639  29.365   6.888  14.869
24380W        W89640  44.418  26.122   0.207
24381W        W89641  43.765   0.787  12.778
24382W        W89642  14.394  17.996   0.993
24383W        W89643  14.728   7.386   0.856
24384W        W89644   6.815  29.598   1.912
24385W        W89645  42.019  34.158   0.344
24386W        W89646  15.573   7.647  13.099
24387W        W89647   1.883  13.544  12.138
24388W        W89648   7.416  29.698  12.567
24389W        W89649   3.351  35.109  11.734
24390W        W89650  34.181  23.537   1.657
24391W        W89651  28.589   7.636  14.060
24392W        W89652   0.375  17.728  13.630
24393W        W89653  33.027  30.258   5.735
24394W        W89654   5.777  29.159   0.610
24395W        W89655   5.854  27.460   2.173
24396W        W89656  13.623  24.269  11.844
24397W        W89657  17.151  36.505   2.309
24398W        W89658  22.742  17.154  12.847
24399W        W89659   1.942  28.551  14.766
24400W        W89660   6.752  10.158   2.278
24401W        W89661   1.251  14.622  10.990
24402W        W89662   0.908  19.503  12.238
24403W        W89663  16.856  24.951  13.398
24404W        W89664  12.646   2.632   4.008
24405W        W89665  42.276   4.480  12.552
24406W        W89666  25.310  30.800  11.648
24407W        W89667  24.392  30.706   4.048
24408W        W89668  39.642  44.995   2.299
24409W        W89669  22.756  37.326  12.025
24410W        W89670   2.408  11.053  12.876
24411W        W89671  39.117  34.022  12.094
24412W        W89672  41.367  30.272   4.461
24413W        W89673   2.501  31.382   1.824
24414W        W89674  20.051  28.917   1.791
24415W        W89675  17.808  34.686  12.279
24416W        W89676  14.467   8.601   4.063
24417W        W89677  29.978   0.897  13.561
24418W        W89678  18.804  42.891   1.152
24419W        W89679  42.397  43.293   3.369
24420W        W89680  15.110  14.568   2.672
24421W        W89681  10.816  35.353   4.494
24422W        W89682   5.777  17.811  10.656
24423W        W89683  21.691  25.492  12.009
24424W        W89684   5.272  35.863   3.592
24425W        W89685  35.576   6.709   4.076
24426W        W89686  43.402   2.671  11.516
24427W        W89687  28.666  19.644   4.907
24428W        W89688  42.506  41.547   3.173
24429W        W89689  21.609  11.797   0.402
24430W        W89690  21.233  10.170  11.106
24431W        W89691  26.240  43.338   4.191
24432W        W89692  40.737  17.102  12.890
24433W        W89693  39.233   9.940  11.306
24434W        W89694  33.204  31.200   2.752
24435W        W89695  30.797  30.708  11.667
24436W        W89696  18.166  43.255  10.824
24437W        W89697   9.174   4.281   4.102
24438W        W89698  18.709  31.483  14.509
24439W        W89699  29.243  16.525  11.589
24440W        W89700  36.606  27.514   2.658
24441W        W89701  18.778   2.247  12.421
24442W        W89702  22.244  14.447  11.405
24443W        W89703  20.882   8.644   9.940
24444W        W89704  34.465  33.381  12.942
24445W        W89705  36.145  15.156   4.134
24446W        W89706  27.510   0.403   2.823
24447W        W89707   6.254   1.444  11.054
24448W        W89708  30.957  11.779   0.171
24449W        W89709  21.236  41.359  11.409
24450W        W89710  41.012  27.141  14.845
24451W        W89711  32.438  20.136   1.888
24452W        W89712  40.504  39.022   4.144
24453W        W89713  11.866  17.233   5.140
24454W        W89714  34.224  19.636  12.897
24455W        W89715  23.840  26.634  13.473
24456W        W89716  43.312  16.318   2.811
24457W        W89717  22.496   5.422  14.418
24458W        W89718  22.427  13.176   0.306
24459W        W89719  10.796  40.354   0.640
24460W        W89720   6.218  20.822  14.063
24461W        W89721   8.868  30.655   0.008
24462W        W89722  26.241  31.718  11.487
24463W        W89723  39.745  13.287  11.687
24464W        W89724  25.076   1.241  12.046
24465W        W89725  31.809  17.747   1.048
24466W        W89726  23.043  14.540  14.883
24467W        W89727  10.435  39.027  14.885
24468W        W89728  32.599   6.750  10.750
24469W        W89729  41.181   7.395   4.790
24470W        W89730  14.324  14.327  13.632
24471W        W89731  30.697  26.012  13.873
24472W        W89732  30.619  32.945   3.184
24473W        W89733  27.611  14.220   4.369
24474W        W89734  23.037   5.411  13.905
24475W        W89735  39.032  32.026   1.963
24476W        W89736  15.110  12.104  11.674
24477W        W89737  20.527  23.278  11.136
24478W        W89738  23.230  33.474  14.479
24479W        W89739  19.342  34.593   0.259
24480W        W89740  28.462  16.733  11.785
24481W        W89741  21.676  23.985   4.399
24482W        W89742  26.013  13.355  12.896
24483W        W89743   7.248   1.354  13.537
24484W        W89744   2.587  42.298   3.078
24485W        W89745   4.434   8.276  14.129
24486W        W89746   3.043  13.292  11.233
24487W        W89747  33.330  23.369   0.018
24488W        W89748  35.927  14.688  13.982
24489W        W89749  21.104  42.680   0.262
24490W        W89750   3.952  30.095  12.542
24491W        W89751  26.297   4.286   0.804
24492W        W89752  14.682  15.210   1.670
24493W        W89753   3.507  29.537   0.107
24494W        W89754   2.369  22.254   3.960
24495W        W89755  42.450  35.487  13.819
24496W        W89756  27.212   9.802   0.731
24497W        W89757  31.391  22.827   3.218
24498W        W89758  40.267  13.408   3.730
24499W        W89759   1.070  23.216   9.898
24500W        W89760  10.154   0.910  10.761
24501W        W89761  29.602   1.622   9.600
24502W        W89762  36.362  40.528   2.150
24503W        W89763   2.658  42.827  13.422
24504W        W89764  20.057  35.982   3.711
24505W        W89765  37.763  12.101   2.450
24506W        W89766   0.423  37.113  14.365
24507W        W89767  34.441   5.236   3.142
24508W        W89768  25.969  38.570  13.035
24509W        W89769  35.574   9.091  12.921
24510W        W89770   7.884  40.823   0.435
24511W        W89771  21.153  18.588  10.534
24512W        W89772  40.919  11.232  14.830
24513W        W89773   9.598  12.459   4.497
24514W        W89774  40.721  32.266   0.241
24515W        W89775  28.115  12.712  12.963
24516W        W89776  39.380  35.053   2.445
24517W        W89777  41.341  18.239  13.324
24518W        W89778  28.042  26.747   2.411
24519W        W89779  11.271   8.251   3.050
24520W        W89780  22.581  15.339  10.505
24521W        W89781   9.790   7.896   1.873
24522W        W89782   5.891   6.699   1.266
24523W        W89783  35.855  40.821  13.522
24524W        W89784  40.185  31.594   2.967
24525W        W89785  34.127  32.993  13.011
24526W        W89786   9.550  16.641   2.252
24527W        W89787  36.904  39.456   4.405
24528W        W89788  40.479   4.402  14.268
24529W        W89789  12.455  37.301  11.242
24530W        W89790  26.992   0.744   1.355
24531W        W89791  16.003  17.344  10.925
24532W        W89792  38.506   3.966  12.487
24533W        W89793  34.603   1.408  14.475
24534W        W89794  30.535  29.403  11.536
24535W        W89795  42.483  35.920   2.724
24536W        W89796  41.833  31.374   2.019
24537W        W89797  32.603  14.157  11.686
24538W        W89798  11.020  38.449   2.837
24539W        W89799  29.186  39.894  11.372
24540W        W89800  32.704  18.684   0.780
24541W        W89801  11.869  15.675  12.368
24542W        W89802   1.897  18.151   2.164
24543W        W89803  40.125   1.858   3.357
24544W        W89804  26.877  40.358  11.606
24545W        W89805  35.074  35.666   2.179
24546W        W89806  36.109  35.907  10.718
24547W        W89807  25.398  35.743   0.847
24548W        W89808  20.842  42.171  11.485
24549W        W89809   3.381  15.262  10.504
24550W        W89810  32.614  23.687  13.792
24551W        W89811  17.350  23.458  11.099
24552W        W89812   5.929  30.512  11.116
24553W        W89813  32.555  30.627  14.353
24554W        W89814  12.093  35.808  10.975
24555W        W89815  13.403  18.167  12.549
24556W        W89816   8.068  34.832   4.126
24557W        W89817   1.269  35.945  14.836
24558W        W89818  41.923  21.550  12.130
24559W        W89819  12.839  42.063   4.653
24560W        W89820  31.864   6.430  11.234
24561W        W89821   8.206  41.130   2.340
24562W        W89822   7.594  15.017  12.417
24563W        W89823  39.327   6.386   0.240
24564W        W89824  38.889  10.449   0.361
24565W        W89825   8.918  41.881  12.762
24566W        W89826  15.511   6.026   4.220
24567W        W89827  38.340   9.761  11.458
24568W        W89828  29.450   1.030  11.929
24569W        W89829  14.668  11.490  14.477
24570W        W89830  25.059  31.802  13.214
24571W        W89831  10.436   4.569   1.815
24572W        W89832  30.497  15.833   4.112
24573W        W89833  29.520  28.652  12.576
24574W        W89834  17.282  20.195   2.895
24575W        W89835  24.660  10.566   3.725
24576W        W89836  37.938  28.050  10.723
24577W        W89837  11.847   0.840   1.763
24578W        W89838  28.733  30.001  11.187
24579W        W89839   6.867  33.024   1.896
24580W        W89840  14.399   7.895  11.094
24581W        W89841  34.398   6.733   0.778
24582W        W89842  26.762  34.549   3.083
24583W        W89843   0.225  20.784  13.080
24584W        W89844  35.147  31.559  14.002
24585W        W89845   3.988  25.919   3.062
24586W        W89846  36.710  35.023   3.404
24587W        W89847   1.844  26.076   0.960
24588W        W89848  13.301  39.626  12.573
24589W        W89849   1.285  36.087  10.970
24590W        W89850   2.691  24.206  12.843
24591W        W89851  17.627  25.726   0.944
24592W        W89852   9.769  10.554   3.333
24593W        W89853  15.768  17.340  12.691
24594W        W89854  32.686   4.927  10.487
24595W        W89855  30.398  39.099  13.021
24596W        W89856  14.322  29.078   0.881
24597W        W89857  24.410  17.238   0.786
24598W        W89858  24.515  22.124  10.754
24599W        W89859  37.816  27.133   1.746
24600W        W89860  37.997  25.162   1.250
24601W        W89861  18.004  14.736   3.780
24602W        W89862  43.471  31.634   1.758
24603W        W89863  24.481  36.591  12.198
24604W        W89864  26.492  33.069  13.774
24605W        W89865  14.864   8.885   3.226
24606W        W89866  27.791   5.781  14.290
24607W        W89867   3.169  15.347   2.264
24608W        W89868  42.864  29.486   1.302
24609W        W89869   2.231  10.093   3.679
24610W        W89870   8.661  17.627  14.819
24611W        W89871   7.170  15.234   4.051
24612W        W89872  32.460  20.144  14.326
24613W        W89873  26.248   0.894  14.505
24614W        W89874  20.190  28.684  14.042
24615W        W89875  24.039  27.180  12.614
24616W        W89876  38.357  41.488   1.191
24617W        W89877  17.538   7.257   2.937
24618W        W89878  41.304  33.902   1.466
24619W        W89879  11.149  17.329   0.002
24620W        W89880   2.729  23.790  13.939
24621W        W89881  14.741   0.493   3.819
24622W        W89882  15.219  27.265  12.049
24623W        W89883  14.030   5.725   4.051
24624W        W89884  40.847  11.803   0.578
24625W        W89885  25.690  38.779  12.358
24626W        W89886   5.757   4.370   0.091
24627W        W89887   5.687   3.672  13.495
24628W        W89888  15.734  23.759   3.603
24629W        W89889  44.325   9.906   3.312
24630W        W89890  27.384   1.337   0.394
24631W        W89891   1.736   8.724   3.649
24632W        W89892  26.505   5.729  13.919
24633W        W89893  29.137  31.054   1.329
24634W        W89894  37.820  18.544  12.090
24635W        W89895  37.548  41.714  12.425
24636W        W89896   0.651   0.927   1.121
24637W        W89897  23.170  43.486  14.553
24638W        W89898  38.444  37.362   4.659
24639W        W89899  24.963  19.905  12.209
24640W        W89900  24.611  42.683  13.445
24641W        W89901  17.262  22.928  11.235
24642W        W89902  25.533  44.613  13.394
24643W        W89903  16.298   2.960  14.652
24644W        W89904  41.251  20.472   0.419
24645W        W89905  39.949  26.508  14.869
24646W        W89906  32.211  21.486  14.001
24647W        W89907  40.476  15.359  13.982
24648W        W89908  43.996  37.124  13.391
24649W        W89909  37.298  39.103  12.765
24650W        W89910   5.917  27.576  13.705
24651W        W89911   8.924   0.818  13.350
24652W        W89912   9.162  24.509  10.732
24653W        W89913  24.474  38.645  13.078
24654W        W89914  36.586   2.477   1.383
24655W        W89915  14.637  20.447   2.860
24656W        W89916  26.387  40.773  13.821
24657W        W89917  23.200  17.113   0.823
24658W        W89918  35.128  29.232  11.604
24659W        W89919   3.789  35.275  13.884
24660W        W89920  11.095   6.841   2.721
24661W        W89921   1.825  14.776   4.047
24662W        W89922  24.859  36.657   3.290
24663W        W89923  35.449   9.466   3.680
24664W        W89924  31.566  27.467  13.368
24665W        W89925  43.835  30.930  11.963
24666W        W89926  27.557  24.575  14.347
24667W        W89927  27.989  11.832  12.959
24668W        W89928   1.760  38.292   0.377
24669W        W89929  37.956  32.008  11.693
24670W        W89930  44.535   5.704   4.887
24671W        W89931  30.408  37.014  14.214
24672W        W89932  36.963  35.533   1.756
24673W        W89933  22.992  44.315   2.225
24674W        W89934   5.305  35.094   2.344
24675W        W89935   4.817  14.370   4.692
24676W        W89936  10.690  23.627  13.560
24677W        W89937   7.148  20.326  10.685
24678W        W89938  19.556   8.219   0.485
24679W        W89939  16.891  21.175  14.450
24680W        W89940  42.816  44.994  12.640
24681W        W89941   7.461  13.068   3.551
24682W        W89942  35.054   1.034  14.938
24683W        W89943  11.831  25.137  14.142
24684W        W89944  34.610  30.964  14.441
24685W        W89945  26.166  28.858   2.413
24686W        W89946  40.728   3.707   2.747
24687W        W89947   7.956  15.607   2.371
24688W        W89948  13.856  32.906   0.062
24689W        W89949  39.094  42.876   0.332
24690W        W89950  22.617  18.103  13.852
24691W        W89951  38.770  11.724   3.605
24692W        W89952   0.228   3.967  10.957
24693W        W89953   7.938  25.593   2.766
24694W        W89954  28.138  29.956   0.030
24695W        W89955  33.894  32.126  14.234
24696W        W89956  26.682  16.670  14.019
24697W        W89957  27.440  26.384  14.782
24698W        W89958  42.845  25.357  10.990
24699W        W89959  33.812  20.033  11.238
24700W        W89960   1.286  22.466   3.689
24701W        W89961   7.843   5.715   4.338
24702W        W89962  39.478  31.342   0.396
24703W        W89963  25.466   8.537  14.512
24704W        W89964  37.797  38.014   4.602
24705W        W89965  35.508  37.790   0.538
24706W        W89966  41.276  17.744  12.594
24707W        W89967   4.942  44.032   4.174
24708W        W89968   7.299  42.010   2.001
24709W        W89969  11.845  44.542  13.890
24710W        W89970  30.040  25.165  11.508
24711W        W89971  28.228   9.079  11.654
24712W        W89972  15.640  16.516  12.889
24713W        W89973  28.342   6.193  13.805
24714W        W89974  14.131  23.651   1.658
24715W        W89975  22.997   6.728   2.684
24716W        W89976   3.023   3.930  14.535
24717W        W89977  12.711  40.622   3.366
24718W        W89978   0.246  15.717  11.601
24719W        W89979  10.245  40.084   0.488
24720W        W89980  21.610  42.352  14.601
24721W        W89981  25.952   9.926  13.892
24722W        W89982   7.651   7.357  12.422
24723W        W89983  34.998  11.269  13.453
24724W        W89984   8.880  41.555   1.907
24725W        W89985   1.780  10.902   1.889
24726W        W89986  12.049  34.028   2.234
24727W        W89987  19.360   2.366  11.013
24728W        W89988  33.943   8.845   2.678
24729W        W89989  14.292  41.961   2.243
24730W        W89990  24.843  43.629   0.375
24731W        W89991  26.551  42.291  13.807
24732W        W89992  16.535  22.512  14.527
24733W        W89993  40.765  33.335  10.661
24734W        W89994  18.244  15.185  11.134
24735W        W89995   1.784  36.250  10.742
24736W        W89996  14.010  11.864   4.614
24737W        W89997  14.070  31.453   1.398
24738W        W89998  10.885  43.708  12.612
24739W        W89999  11.245   3.315  14.875
24740W        W90000  14.658   4.689  14.927
24741W        W90001  16.224  43.861  13.332
24742W        W90002   2.983  35.492   0.766
24743W        W90003  19.133   9.679   3.181
24744W        W90004  31.681  37.022   2.827
24745W        W90005  26.682  35.476  12.924
24746W        W90006  21.228  22.547   2.799
24747W        W90007  38.060  26.125  11.878
24748W        W90008  11.802  29.429   4.516
24749W        W90009  21.838   1.219  11.206
24750W        W90010  34.912  40.937   4.069
24751W        W90011   2.155  30.126  12.211
24752W        W90012  42.189  21.505  13.494
24753W        W90013  35.071  29.708  12.035
24754W        W90014  20.620  36.930   0.012
24755W        W90015  40.324  11.718   3.673
24756W        W90016  34.302   1.886   0.386
24757W        W90017   9.187  12.030   0.512
24758W        W90018  39.800  12.594   2.763
24759W        W90019  30.474   3.866  10.787
24760W        W90020  24.749  23.601   3.228
24761W        W90021  32.394  20.733  13.131
24762W        W90022  43.662   7.558  11.145
24763W        W90023  15.732  14.131  14.235
24764W        W90024   8.658  10.492  12.358
24765W        W90025  32.829  12.028  11.184
24766W        W90026  24.210  32.594   4.519
24767W        W90027  44.886  17.233  10.680
24768W        W90028  32.069   3.692  13.977
24769W        W90029   6.663  36.346   4.865
24770W        W90030  13.600  18.959  12.708
24771W        W90031  30.939   5.271   4.761
24772W        W90032  25.952   8.269   3.669
24773W        W90033  26.482  22.932   2.826
24774W        W90034   6.764  20.132   2.156
24775W        W90035   0.460  14.296   4.148
24776W        W90036   7.485  38.523  14.474
24777W        W90037  16.505  32.591  14.793
24778W        W90038  41.857  12.077   3.530
24779W        W90039  15.729  15.698   3.539
24780W        W90040  14.638   8.984   1.719
24781W        W90041   9.142  34.456  11.214
24782W        W90042   6.256  17.856  12.500
24783W        W90043  35.884  16.294   2.217
24784W        W90044  41.873  39.506  13.915
24785W        W90045  34.951  22.100   3.397
24786W        W90046  37.889   0.652   3.372
24787W        W90047  31.974  28.163   3.316
24788W        W90048   3.210   4.863   0.371
24789W        W90049   9.834   9.171   4.651
24790W        W90050  16.609  17.730  12.380
24791W        W90051  41.329  16.841  13.364
24792W        W90052  37.661  25.769   3.161
24793W        W90053  25.148   3.758  12.916
24794W        W90054  21.970  34.722   4.141
24795W        W90055  22.239  32.125  13.362
24796W        W90056  16.675   6.136   3.087
24797W        W90057  37.374  23.978   4.559
24798W        W90058  32.871  32.791  12.255
24799W        W90059  14.759  18.227   3.779
24800W        W90060  31.467  31.886   3.769
24801W        W90061   9.543  20.523  14.336
24802W        W90062   5.455  23.216   3.076
24803W        W90063  42.853   7.124  12.565
24804W        W90064  12.896  24.877   1.409
24805W        W90065   2.764  44.008   3.708
24806W        W90066  20.162  26.638  11.139
24807W        W90067  38.105   5.046   3.367
24808W        W90068   8.260  13.093   1.374
24809W        W90069   4.768  40.213  10.264
24810W        W90070  22.038  13.889   4.606
24811W        W90071   7.524   1.081  12.313
24812W        W90072  34.843   3.161  14.804
24813W        W90073  38.388  22.016   3.165
24814W        W90074   5.944   6.752  12.077
24815W        W90075   9.064  41.735   1.377
24816W        W90076  24.603   6.205  12.568
24817W        W90077  21.093  31.390   0.239
24818W        W90078  32.894   0.563   3.957
24819W        W90079   2.283  43.706  12.958
24820W        W90080  42.904  40.913   4.120
24821W        W90081  38.560  42.827  14.046
24822W        W90082  35.973  42.856  11.262
24823W        W90083  14.640  31.994  11.764
24824W        W90084  16.052  32.443  13.763
24825W        W90085   6.393  41.786   4.312
24826W        W90086  24.687  26.215  11.589
24827W        W90087  40.273  10.596   1.320
24828W        W90088   1.572  38.816   4.840
24829W        W90089  10.374  27.688  13.116
24830W        W90090   6.928  18.732   2.922
24831W        W90091  12.264  26.681  13.768
24832W        W90092   7.852  36.964  13.509
24833W        W90093  37.915  35.148   1.319
24834W        W90094  36.888  35.418   3.153
24835W        W90095  23.686  27.072  11.222
24836W        W90096  35.425  39.943  13.427
24837W        W90097  26.149  23.774  13.075
24838W        W90098  35.276  14.549  13.617
24839W        W90099  14.961  25.091   1.854
24840W        W90100  26.834  44.400  10.029
24841W        W90101  15.785   5.939  10.340
24842W        W90102  22.475  38.169  11.677
24843W        W90103  20.259  34.374  13.902
24844W        W90104  10.181  42.086   3.710
24845W        W90105  22.853   5.176   3.626
24846W        W90106   3.088  33.967   2.489
24847W        W90107   0.828  18.103   2.368
24848W        W90108   6.954  25.651   0.926
24849W        W90109  32.618  34.600  12.498
24850W        W90110  12.765  34.954  14.837
24851W        W90111  20.523  25.423  12.088
24852W        W90112   6.168   1.020  12.849
24853W        W90113  17.142  34.907   2.819
24854W        W90114  14.251  29.740   4.795
24855W        W90115  31.791   8.998  10.700
24856W        W90116  27.491  18.062   3.350
24857W        W90117  18.582  38.464   4.111
24858W        W90118  40.055   7.375  14.807
24859W        W90119  26.542  44.211   0.733
24860W        W90120  27.403   8.836  11.098
24861W        W90121  16.407  37.945   4.884
24862W        W90122  10.935  34.475  11.407
24863W        W90123  20.047   2.361   0.845
24864W        W90124  20.363  34.998   3.698
24865W        W90125  35.423  14.835  11.618
24866W        W90126  16.699  38.338   0.416
24867W        W90127  29.152  19.727   3.621
24868W        W90128  26.080  43.437   0.803
24869W        W90129  35.157  41.361  14.417
24870W        W90130  18.054   1.649   4.147
24871W        W90131   4.863   3.043  11.905
24872W        W90132  11.753  25.736   3.526
24873W        W90133  43.818  40.610  11.610
24874W        W90134   5.770  14.597  12.970
24875W        W90135  20.459  13.173  11.749
24876W        W90136   7.698   3.238  14.270
24877W        W90137  19.045  18.183   0.982
24878W        W90138  31.082  29.075  13.070
24879W        W90139  39.346  39.536   1.240
24880W        W90140  33.976  36.571   2.286
24881W        W90141   8.666   4.994   2.858
24882W        W90142  29.211  20.263  14.513
24883W        W90143   6.896  20.160   3.157
24884W        W90144  11.693  25.973   3.080
24885W        W90145  26.600  43.815  14.854
24886W        W90146   5.997  29.854  13.416
24887W        W90147  27.545  32.748  11.122
24888W        W90148   2.868  24.128   1.122
24889W        W90149  43.008  30.906   1.717
24890W        W90150  39.271  29.197  12.994
24891W        W90151  36.601  33.944   4.026
24892W        W90152  39.981  42.607   1.733
24893W        W90153   8.361   6.208  14.363
24894W        W90154  13.040  25.943   1.191
24895W        W90155  20.195  24.040  10.812
24896W        W90156  33.151  15.265   0.043
24897W        W90157  20.067  11.771   2.814
24898W        W90158  11.247  35.907   3.408
24899W        W90159   0.104  39.040   0.420
24900W        W90160   3.786  16.869  14.256
24901W        W90161  11.022  13.467  13.816
24902W        W90162  24.573  33.263   1.680
24903W        W90163  11.662   8.464   2.271
24904W        W90164  44.001  23.156   0.044
24905W        W90165  23.111   5.196   3.180
24906W        W90166  41.461   5.506   0.359
24907W        W90167  43.968  39.025   0.733
24908W        W90168   9.786  28.368  13.030
24909W        W90169  43.019  44.076  12.914
24910W        W90170  41.381  39.326   3.618
24911W        W90171  21.599  27.691   2.679
24912W        W90172  10.206  42.526  12.509
24913W        W90173   4.808  38.938  14.351
24914W        W90174   0.428  25.760   2.756
24915W        W90175  18.219  35.044   2.356
24916W        W90176  32.087   9.198   4.216
24917W        W90177  20.520   7.618  11.119
24918W        W90178  25.956  39.490   3.305
24919W        W90179  40.775  20.301   4.172
24920W        W90180  22.771  43.414   2.326
24921W        W90181  44.352  16.022   3.306
24922W        W90182  36.958  42.886   2.064
24923W        W90183  15.150  33.563  12.924
24924W        W90184  24.365  15.215  14.664
24925W        W90185   3.443  29.494  11.042
24926W        W90186  26.973  22.581   3.702
24927W        W90187  38.081  13.796  11.721
24928W        W90188   0.183  16.816   4.691
24929W        W90189  40.301  36.452   2.270
24930W        W90190  15.697  28.580  14.334
24931W        W90191  21.650  19.242   0.850
24932W        W90192  14.809  36.794   3.855
24933W        W90193   4.191  10.147   2.290
24934W        W90194   6.249  26.170   2.136
24935W        W90195   5.861  41.016  14.851
24936W        W90196  13.905   6.185  12.580
24937W        W90197   7.037  40.291  13.407
24938W        W90198   3.646  32.432   1.445
24939W        W90199  13.234   1.487  11.179
24940W        W90200  27.216  22.883   4.069
24941W        W90201   3.121  39.816   3.336
24942W        W90202   1.994   2.906   3.750
24943W        W90203   9.386  21.496  13.504
24944W        W90204  17.330  20.909  14.329
24945W        W90205  38.409  10.416   3.655
24946W        W90206  23.541   7.867  11.689
24947W        W90207   6.671  25.388   1.307
24948W        W90208  10.420   7.328   1.761
24949W        W90209  34.428  28.207   4.364
24950W        W90210  15.965  21.169  14.264
24951W        W90211  36.314  13.621   3.184
24952W        W90212   0.769  18.217  14.964
24953W        W90213  21.676  17.446   3.843
24954W        W90214  28.715  28.388  11.618
24955W        W90215  25.546  39.467  10.141
24956W        W90216  37.573  12.097  12.167
24957W        W90217  18.764  32.030   2.371
24958W        W90218   3.083  12.204  13.771
24959W        W90219  33.363  33.760   4.964
24960W        W90220   3.746  18.268  12.104
24961W        W90221   0.026  37.249   1.327
24962W        W90222  12.166  24.854  11.757
24963W        W90223  14.649  21.272  10.965
24964W        W90224  29.671  17.813   2.815
24965W        W90225  16.221   4.879  10.659
24966W        W90226  34.627  10.839  13.361
24967W        W90227  31.713  20.277  14.677
24968W        W90228  10.268   0.049   3.900
24969W        W90229  31.015  18.071   2.629
24970W        W90230  33.981   4.959  12.105
24971W        W90231  36.792   7.071  11.461
24972W        W90232   6.541   8.309  10.529
24973W        W90233  39.074  11.631  12.190
24974W        W90234   0.800  24.449  14.314
24975W        W90235   0.798  36.758   4.624
24976W        W90236  42.830  20.088  12.390
24977W        W90237  12.259  40.960  10.599
24978W        W90238   6.627  11.805  13.032
24979W        W90239  44.726  32.862   0.988
24980W        W90240  30.639  38.587   3.135
24981W        W90241  36.113   1.640   0.089
24982W        W90242  19.582  33.846  14.734
24983W        W90243  24.946  28.492  13.869
24984W        W90244  25.741  17.070  12.535
24985W        W90245  44.421  42.287   3.380
24986W        W90246   8.267  19.947  11.176
24987W        W90247  39.888  10.130   0.003
24988W        W90248   7.189  14.599   1.321
24989W        W90249  15.624  34.904  13.905
24990W        W90250  17.967  17.237   1.644
24991W        W90251  20.136  32.364   4.228
24992W        W90252  43.466   0.748  13.617
24993W        W90253   3.666  30.170  10.799
24994W        W90254  24.066   5.602   2.407
24995W        W90255   3.300  37.287   0.800
24996W        W90256  44.465  33.042  12.854
24997W        W90257  26.181  12.695   2.609
24998W        W90258  16.329  39.861  14.018
24999W        W90259  43.642  26.405  12.801
25000W        W90260  44.522   0.494   3.775
25001W        W90261  11.119  21.697   0.839
25002W        W90262  24.134  25.510   3.616
25003W        W90263   5.209  38.921  13.990
25004W        W90264  34.098  34.703   2.293
25005W        W90265  24.957  43.786   3.877
25006W        W90266  28.823  41.579   3.448
25007W        W90267  34.305  23.673   3.285
25008W        W90268  43.303   6.858  12.446
25009W        W90269  13.809   0.740   1.876
25010W        W90270  16.654  19.103   2.626
25011W        W90271  39.050  13.807   2.038
25012W        W90272  25.795  29.940   1.706
25013W        W90273  10.697  16.256  12.522
25014W        W90274  13.147   1.242  12.465
25015W        W90275   7.826  40.605   4.206
25016W        W90276  34.831  17.629  11.538
25017W        W90277  22.085  24.394   3.406
25018W        W90278  11.332  14.122  11.961
25019W        W90279  36.679  24.130  14.491
25020W        W90280  38.689   8.828  12.993
25021W        W90281  30.015   5.337  10.722
25022W        W90282   1.249  16.194   0.944
25023W        W90283  43.524  30.302   1.231
25024W        W90284   0.016  23.640  13.045
25025W        W90285  10.374  20.756  14.336
25026W        W90286   7.008  33.682  12.456
25027W        W90287  36.055  41.186  13.222
25028W        W90288   9.619  10.732  12.137
25029W        W90289  43.890  11.823  11.981
25030W        W90290  27.919   6.498   1.040
25031W        W90291  17.344   4.621  12.491
25032W        W90292  15.864  22.083   1.222
25033W        W90293  37.531  25.965   0.428
25034W        W90294  32.148   2.534   4.082
25035W        W90295  41.341   0.303  13.050
25036W        W90296   2.937   7.818   0.904
25037W        W90297  33.069   8.223  14.427
25038W        W90298  15.606  11.182   3.409
25039W        W90299  33.165   2.298  12.382
25040W        W90300  31.393  31.872   1.752
25041W        W90301  31.927  28.135  10.263
25042W        W90302   4.984  18.493  13.909
25043W        W90303  22.110  27.975  12.594
25044W        W90304  40.074  29.873  13.529
25045W        W90305   3.046   8.781  12.067
25046W        W90306  14.193  43.419  10.609
25047W        W90307  14.612   2.748   3.289
25048W        W90308  26.521  30.140  14.026
25049W        W90309  34.808  20.407  11.899
25050W        W90310  42.351   3.195   3.217
25051W        W90311  37.865   2.426   5.054
25052W        W90312  35.258  42.029   2.316
25053W        W90313  31.430  40.048   3.867
25054W        W90314  13.028   6.137  13.220
25055W        W90315   8.873  43.407   1.234
25056W        W90316  40.884  26.678  11.940
25057W        W90317   5.103  38.933  10.839
25058W        W90318  10.753  41.847   1.790
25059W        W90319  25.781  15.995   3.645
25060W        W90320  44.387  34.980  10.570
25061W        W90321  35.666   1.469   0.330
25062W        W90322  44.975  19.761   1.262
25063W        W90323  11.912  10.212  11.545
25064W        W90324  10.720  28.158   4.865
25065W        W90325   0.133   9.279   0.441
25066W        W90326  43.740  25.436   0.244
25067W        W90327  40.822  44.220   1.756
25068W        W90328  27.121   0.805   4.201
25069W        W90329  42.985  25.355  14.183
25070W        W90330  14.840   8.638   1.306
25071W        W90331  11.335  18.138   0.268
25072W        W90332  11.857   9.751   4.663
25073W        W90333  18.932  20.441   1.353
25074W        W90334   3.477  19.195   3.768
25075W        W90335   6.376  28.604   9.783
25076W        W90336   3.271  15.080   1.833
25077W        W90337   0.945  22.564   4.958
25078W        W90338  29.027   9.370   4.206
25079W        W90339   0.884  41.142  11.132
25080W        W90340  36.614  39.866   4.478
25081W        W90341   0.835   4.514   2.304
25082W        W90342  13.533  16.610   0.877
25083W        W90343  39.237  40.669   2.769
25084W        W90344   2.593  41.313   2.698
25085W        W90345  23.044   2.706   4.124
25086W        W90346  16.548   3.224  11.264
25087W        W90347   0.371  37.487   4.443
25088W        W90348   6.395  17.435  10.108
25089W        W90349  28.480  26.396   9.874
25090W        W90350  32.818  14.134   1.416
25091W        W90351  20.108  25.738  11.916
25092W        W90352   5.750  35.683  10.553
25093W        W90353   8.641  15.878   3.269
25094W        W90354  26.719  24.672  11.296
25095W        W90355   6.900  26.297  14.521
25096W        W90356   7.021  25.013   1.332
25097W        W90357  24.063   2.182  12.807
25098W        W90358  19.323  28.241   2.848
25099W        W90359   3.352  23.187   0.032
25100W        W90360  11.890   3.682   2.348
25101W        W90361   5.446   8.378  12.104
25102W        W90362   5.809  30.206  12.072
25103W        W90363  12.383  29.469   4.192
25104W        W90364  17.706  37.793   3.972
25105W        W90365  14.122  40.106   1.884
25106W        W90366  10.688  21.174  14.316
25107W        W90367   5.966  11.261   2.713
25108W        W90368   0.796  10.894  13.863
25109W        W90369  38.099  36.574   3.651
25110W        W90370  22.394  35.049   0.221
25111W        W90371   6.594  23.042   3.557
25112W        W90372  30.619  18.153   4.911
25113W        W90373   1.574  41.340  14.525
25114W        W90374  37.541  40.185  10.702
25115W        W90375  23.989  33.970   3.165
25116W        W90376  41.504   8.631   1.279
25117W        W90377  20.462   7.412   1.370
25118W        W90378  28.996   1.453   4.645
25119W        W90379   8.810  23.961   0.381
25120W        W90380   0.562  28.111  12.831
25121W        W90381  25.470  31.274  14.848
25122W        W90382  33.145  41.795  14.871
25123W        W90383  25.238  34.080   5.459
25124W        W90384  44.823  40.428   0.787
25125W        W90385  32.632  39.598  14.725
25126W        W90386  36.264  38.310  11.105
25127W        W90387  26.318  25.301  13.795
25128W        W90388  10.318  12.583   3.438
25129W        W90389  38.465  27.842   0.402
25130W        W90390  30.193  21.019   2.867
25131W        W90391  26.126  21.702  13.043
25132W        W90392  30.709  35.541  13.035
25133W        W90393  23.488  21.572  14.976
25134W        W90394  28.209   9.414   1.211
25135W        W90395  33.598   7.377  12.156
25136W        W90396   6.247  34.976  11.537
25137W        W90397  13.092  36.204  13.162
25138W        W90398  27.486  23.673  12.180
25139W        W90399   0.044  23.235   5.681
25140W        W90400  42.803   8.287   0.852
25141W        W90401  42.492   7.520  11.170
25142W        W90402  21.102  17.072  10.189
25143W        W90403  18.053  39.815   4.635
25144W        W90404  32.258  27.133  11.294
25145W        W90405   3.330  42.240  13.427
25146W        W90406  24.100  18.732  14.370
25147W        W90407  27.190  32.850   3.554
25148W        W90408  32.960  44.514  13.062
25149W        W90409  24.195   0.321  12.087
25150W        W90410  18.116  11.481   1.314
25151W        W90411  29.659  31.732  14.025
25152W        W90412  36.825  22.803  11.614
25153W        W90413  41.689  29.644   0.169
25154W        W90414   4.800  14.343   1.875
25155W        W90415  16.838  17.200   0.025
25156W        W90416  32.325  37.911  12.562
25157W        W90417  44.176  23.783  12.924
25158W        W90418  32.490   5.046   2.429
25159W        W90419   9.996  18.629  12.451
25160W        W90420   3.572  24.382  11.185
25161W        W90421  22.643  23.275   2.813
25162W        W90422   3.877  37.145   4.410
25163W        W90423  31.407   9.388  14.549
25164W        W90424  39.307  30.187  11.590
25165W        W90425  22.101  28.603   1.209
25166W        W90426  21.852  42.035  12.114
25167W        W90427  44.538   1.672   3.451
25168W        W90428   3.707   2.969  14.836
25169W        W90429  22.278  43.748  11.086
25170W        W90430  11.559  10.665  14.517
25171W        W90431  35.124  26.916  11.200
25172W        W90432  32.404  12.592   2.132
25173W        W90433  40.612  38.303   0.676
25174W        W90434   2.815  31.713  13.675
25175W        W90435  12.297  26.508   3.340
25176W        W90436  13.732  38.860   0.785
25177W        W90437   5.198   5.418   1.268
25178W        W90438  30.938   8.235   1.858
25179W        W90439  36.370  16.291   4.591
25180W        W90440  38.912  40.311  10.592
25181W        W90441  29.006  12.300  11.235
25182W        W90442  13.720  30.035  13.059
25183W        W90443  41.158  23.776   1.254
25184W        W90444  29.177  25.621  12.961
25185W        W90445  33.169  20.299   3.645
25186W        W90446   8.254  14.875  12.599
25187W        W90447   7.202  13.923   3.295
25188W        W90448   0.042  34.943   0.773
25189W        W90449  41.162   2.926  13.834
25190W        W90450  31.676   1.355   1.438
25191W        W90451  14.174  18.459   4.114
25192W        W90452  27.237   5.308  11.472
25193W        W90453  21.743  41.208   0.921
25194W        W90454  32.333  35.315  11.855
25195W        W90455  24.995   9.802   0.708
25196W        W90456  31.102  38.834  13.950
25197W        W90457   9.316  28.595   4.549
25198W        W90458  15.073  15.312  14.382
25199W        W90459  13.635  42.213  14.661
25200W        W90460   3.956   7.469  11.530
25201W        W90461   5.700  42.063  10.525
25202W        W90462   4.874  31.771  11.912
25203W        W90463  18.811   4.053  14.472
25204W        W90464  11.220   0.483  11.182
25205W        W90465  28.131   1.049  11.186
25206W        W90466  15.649  42.366  13.559
25207W        W90467  36.477   7.705  13.469
25208W        W90468  29.842   2.889  14.083
25209W        W90469  24.056  11.628  13.881
25210W        W90470   5.730  12.767  14.811
25211W        W90471  42.306  20.763   2.694
25212W        W90472  38.555  44.847   1.251
25213W        W90473  13.728  24.004   2.661
25214W        W90474  36.310  40.911  14.405
25215W        W90475  28.071  42.517  14.259
25216W        W90476   2.317  41.245   0.209
25217W        W90477   6.652   5.326   4.751
25218W        W90478  41.297  33.620   3.737
25219W        W90479  38.154  43.301  13.356
25220W        W90480  12.926  35.551   4.083
25221W        W90481   5.184  11.202   1.402
25222W        W90482   2.187  15.746  12.617
25223W        W90483  39.515  20.074   3.333
25224W        W90484  37.929  42.382   3.426
25225W        W90485   4.887  29.640   4.493
25226W        W90486  34.940   7.211   3.532
25227W        W90487  27.880  21.538  14.316
25228W        W90488   3.711  19.419   5.212
25229W        W90489  23.397   8.096   1.747
25230W        W90490  39.382   3.475   3.771
25231W        W90491   0.402  39.327  11.454
25232W        W90492  26.399   0.168  10.632
25233W        W90493   2.881  13.172   5.101
25234W        W90494  23.341  19.161  14.821
25235W        W90495   5.898  18.828   4.322
25236W        W90496   2.877   9.214  14.244
25237W        W90497  34.525  30.465  12.114
25238W        W90498  14.442  16.672   0.985
25239W        W90499  42.915  18.552  13.766
25240W        W90500  23.543   8.716  14.466
25241W        W90501  39.754  33.396  12.573
25242W        W90502  27.094  10.283  14.008
25243W        W90503  35.322  35.070   1.257
25244W        W90504   1.704  16.158   4.110
25245W        W90505  13.125  40.609  12.238
25246W        W90506  25.833  15.700  11.377
25247W        W90507  37.306  43.203   3.223
25248W        W90508  32.956  20.507  11.963
25249W        W90509  29.126  26.744  11.173
25250W        W90510  19.557  18.311   0.836
25251W        W90511  37.330  39.539   4.646
25252W        W90512   3.481  13.168  13.913
25253W        W90513   5.547  30.399   2.545
25254W        W90514   7.891  27.415  11.669
25255W        W90515  31.653  19.260  10.823
25256W        W90516   8.046  13.436   2.811
25257W        W90517   2.839  13.649   4.936
25258W        W90518  42.207  12.036  12.030
25259W        W90519  27.594  19.142  14.980
25260W        W90520  18.649  44.711  12.033
25261W        W90521  43.871  14.253  13.572
25262W        W90522  34.766  43.107  11.516
25263W        W90523  21.261  11.436  13.975
25264W        W90524   1.291  27.025  14.099
25265W        W90525  33.215  30.509   0.792
25266W        W90526  16.238  26.152   1.171
25267W        W90527  16.325   6.278  14.603
25268W        W90528  34.852  14.050   0.166
25269W        W90529   7.178  19.539   1.196
25270W        W90530  25.087  19.645   2.731
25271W        W90531  30.978   0.284   3.690
25272W        W90532  15.050  39.399  13.434
25273W        W90533  23.038  28.731  11.901
25274W        W90534  27.704  44.721  10.752
25275W        W90535   3.931  32.871  11.640
25276W        W90536  31.795   8.881   2.625
25277W        W90537  40.999  17.607   0.016
25278W        W90538  36.483   9.364  13.311
25279W        W90539  16.783  10.561   3.370
25280W        W90540  41.908  11.099   2.081
25281W        W90541  36.388   3.773  14.373
25282W        W90542   2.667  35.363  12.011
25283W        W90543   1.478  12.186  12.817
25284W        W90544  43.778  24.564  12.932
25285W        W90545   8.315  35.167  13.994
25286W        W90546  36.418  37.331  11.750
25287W        W90547  27.000   2.776   0.177
25288W        W90548   3.840  43.966   4.158
25289W        W90549  26.860  28.741   0.995
25290W        W90550  15.668  35.943  12.194
25291W        W90551   2.669  28.686  10.332
25292W        W90552  38.552   9.907   3.343
25293W        W90553  18.334  23.789   3.808
25294W        W90554  23.605  10.281  13.874
25295W        W90555  26.116  17.145   0.828
25296W        W90556   3.639  12.282   3.235
25297W        W90557  22.228  42.540   1.817
25298W        W90558   8.893  23.294   0.912
25299W        W90559   5.433   9.595  11.157
25300W        W90560  33.364  37.395  12.912
25301W        W90561  14.845  37.100   1.817
25302W        W90562  39.010  34.238  12.553
25303W        W90563  36.352  31.702   4.786
25304W        W90564  40.831  44.006   4.146
25305W        W90565  26.541  34.824   5.034
25306W        W90566  44.311  34.456  11.646
25307W        W90567  27.600  27.299   0.988
25308W        W90568   4.095  39.266   1.428
25309W        W90569  32.874  39.492  12.951
25310W        W90570  36.733  22.210  12.249
25311W        W90571   7.674  31.425   4.520
25312W        W90572  30.994  43.103  10.127
25313W        W90573  43.157  17.008  13.424
25314W        W90574  42.901  21.722  11.995
25315W        W90575  15.237   6.629   5.345
25316W        W90576  13.539  17.024   2.785
25317W        W90577  38.654  43.014  12.405
25318W        W90578  11.806  35.542   3.357
25319W        W90579  24.497  22.539  13.398
25320W        W90580  14.168   3.299   4.790
25321W        W90581   0.233   4.281   2.703
25322W        W90582  31.395  25.005  11.986
25323W        W90583  20.263   8.250   4.626
25324W        W90584   7.845   5.078  13.960
25325W        W90585   8.138  21.552  14.799
25326W        W90586  31.824   2.847   4.307
25327W        W90587  22.720  10.465   4.074
25328W        W90588  11.342   6.170  11.102
25329W        W90589  38.377  27.577   4.629
25330W        W90590   9.913   7.065  12.486
25331W        W90591  33.369  40.124  10.279
25332W        W90592  32.112   5.974  11.504
25333W        W90593  18.145  27.497   1.991
25334W        W90594   8.460  33.947   1.878
25335W        W90595  37.069  13.226  13.297
25336W        W90596  42.625  42.455  10.647
25337W        W90597   6.404  15.522   5.070
25338W        W90598  20.908  12.166   2.794
25339W        W90599  25.782  37.257   2.840
25340W        W90600  17.168  28.051  12.609
25341W        W90601  20.316  30.522   3.663
25342W        W90602   3.956  27.608  12.529
25343W        W90603  32.049  29.980  13.887
25344W        W90604   4.366  27.869  13.079
25345W        W90605   9.490  24.200   4.834
25346W        W90606  34.903  42.721   4.503
25347W        W90607  43.005  44.927  12.148
25348W        W90608   8.711  27.403  14.202
25349W        W90609  15.753  37.431  11.623
25350W        W90610  38.554  37.331  12.176
25351W        W90611   6.543  31.007  13.073
25352W        W90612  30.851  27.284   4.681
25353W        W90613   1.442  36.331   1.027
25354W        W90614  30.936  32.595   4.510
25355W        W90615   8.666  21.989   3.169
25356W        W90616  42.924  10.833  13.331
25357W        W90617  27.251   5.351   3.752
25358W        W90618  27.966  21.037  14.643
25359W        W90619   1.885   2.407   1.030
25360W        W90620   1.887  37.452  11.206
25361W        W90621  23.937  10.143  13.079
25362W        W90622   1.632  36.621   3.746
25363W        W90623  31.116  12.618  12.039
25364W        W90624  21.723  23.084  13.429
25365W        W90625  42.488   3.686  13.879
25366W        W90626   7.868  44.771  10.352
25367W        W90627  23.043  18.850   2.596
25368W        W90628  37.037  22.467   2.791
25369W        W90629  15.819   5.283  14.379
25370W        W90630  21.303   9.251   0.293
25371W        W90631  21.398  34.471   2.849
25372W        W90632  34.915   5.858  12.927
25373W        W90633   4.767  19.786  14.318
25374W        W90634  27.944  13.261   4.134
25375W        W90635  17.893  19.261  11.648
25376W        W90636  15.482  35.827   9.991
25377W        W90637  39.495  27.393   0.862
25378W        W90638  31.423  22.233  13.884
25379W        W90639  23.084  34.340   4.178
25380W        W90640   4.577  18.709   0.870
25381W        W90641  10.290  26.538   1.218
25382W        W90642  40.975  43.970   2.921
25383W        W90643  26.035   2.192   3.890
25384W        W90644  27.590  22.524  12.335
25385W        W90645  20.089  25.828   1.940
25386W        W90646  27.021   2.267   2.280
25387W        W90647  37.881  37.392  11.240
25388W        W90648   7.521  12.777   4.949
25389W        W90649  25.158  24.719   4.432
25390W        W90650  42.838   6.343   2.913
25391W        W90651  24.557  35.626  13.385
25392W        W90652  27.021  25.399   0.859
25393W        W90653   6.727  30.971  11.225
25394W        W90654   9.372  11.649   4.301
25395W        W90655  31.512   3.804  10.468
25396W        W90656  26.582  30.911   2.874
25397W        W90657  18.296  36.965  12.416
25398W        W90658  43.909  18.415   0.046
25399W        W90659  43.314   5.051  11.043
25400W        W90660  33.946  25.713   1.754
25401W        W90661  33.715  36.772  10.779
25402W        W90662  30.302  43.649  13.570
25403W        W90663  30.445  26.841   4.142
25404W        W90664  16.746  44.996  13.935
25405W        W90665  22.385   2.737   4.019
25406W        W90666  27.298  22.994  12.296
25407W        W90667  31.757  38.155  14.444
25408W        W90668  44.487  42.825   1.590
25409W        W90669  40.819  16.326  10.642
25410W        W90670   4.224   1.858  11.610
25411W        W90671  12.857   2.382  13.035
25412W        W90672  34.820  12.282   2.858
25413W        W90673  14.722  11.251   1.949
25414W        W90674  30.082  18.110  11.430
25415W        W90675   0.008  26.344   1.453
25416W        W90676   1.393  33.416   3.371
25417W        W90677  20.543   6.175  11.088
25418W        W90678  22.452  24.716   0.786
25419W        W90679   8.191  41.585  14.884
25420W        W90680  35.554  11.091  14.699
25421W        W90681  15.594  12.549  14.286
25422W        W90682   9.092  37.137  12.978
25423W        W90683  41.827   2.126   0.476
25424W        W90684  20.992  10.650   2.226
25425W        W90685  13.729  11.691  14.374
25426W        W90686  11.276  32.513   0.453
25427W        W90687  33.965  41.374   4.848
25428W        W90688  26.213  31.279   2.132
25429W        W90689  34.592  36.929   0.725
25430W        W90690  16.665   5.074   1.154
25431W        W90691  25.430  37.171   4.507
25432W        W90692  40.576  37.301   2.863
25433W        W90693  28.001  23.743  10.983
25434W        W90694  21.087  32.392   4.630
25435W        W90695   1.762  37.461  14.774
25436W        W90696   9.198   8.147   4.317
25437W        W90697   7.934  37.752   3.146
25438W        W90698  15.401  40.046   2.429
25439W        W90699  29.565   4.915   1.639
25440W        W90700  23.752   6.458  11.981
25441W        W90701   1.382   2.974  14.381
25442W        W90702  44.595  14.324   0.533
25443W        W90703  27.969  32.899   3.188
25444W        W90704  12.765  32.416  12.602
25445W        W90705  31.490  37.931   3.188
25446W        W90706  15.220  12.165   0.882
25447W        W90707  23.275   6.720   2.251
25448W        W90708  28.412   3.719   0.489
25449W        W90709   8.787  41.010   1.954
25450W        W90710  14.863  10.602  12.954
25451W        W90711   1.456  23.199   3.175
25452W        W90712  43.837  39.456  13.963
25453W        W90713  30.964   0.249  14.110
25454W        W90714  15.053  12.396  14.027
25455W        W90715  35.448  28.454  13.560
25456W        W90716   0.722  13.998   1.385
25457W        W90717  17.206  44.451  12.996
25458W        W90718  43.508  39.314  11.681
25459W        W90719  23.045  36.616   3.133
25460W        W90720  20.187  26.411  13.776
25461W        W90721  19.183  43.869  13.831
25462W        W90722  25.518  30.901   1.337
25463W        W90723  40.352  27.868  13.455
25464W        W90724  16.196  27.861  13.405
25465W        W90725  40.971  21.430  11.464
25466W        W90726  44.314   2.771   1.249
25467W        W90727   8.656  36.091   2.622
25468W        W90728   3.173   2.505   1.751
25469W        W90729  15.807  16.641   2.825
25470W        W90730   0.381  42.289  13.903
25471W        W90731  10.720   8.993   4.569
25472W        W90732  21.633  16.991  10.717
25473W        W90733   7.866   5.144   1.997
25474W        W90734  40.611  11.717  12.924
25475W        W90735   8.621  15.194  13.438
25476W        W90736  16.835  41.252  11.988
25477W        W90737  33.759  36.096   2.411
25478W        W90738  16.859  32.384  10.676
25479W        W90739   7.040   0.967   3.967
25480W        W90740  10.824  38.028  14.836
25481W        W90741  33.694  34.580   1.111
25482W        W90742  12.575  40.174  14.061
25483W        W90743  20.247   0.312   2.763
25484W        W90744  37.403  35.096   0.240
25485W        W90745  31.912  43.370  12.622
25486W        W90746  21.641  38.628   2.407
25487W        W90747  27.155   5.977   0.760
25488W        W90748  18.131  20.125   1.974
25489W        W90749  22.341  14.370   3.165
25490W        W90750  28.488  40.972  11.127
25491W        W90751  43.716  25.125  11.253
25492W        W90752  40.553  15.401  12.092
25493W        W90753  44.273  29.100  12.490
25494W        W90754  35.569  38.566   0.899
25495W        W90755  14.241   1.840   4.942
25496W        W90756   9.636  38.263   1.232
25497W        W90757   8.436  42.499   0.318
25498W        W90758  41.690   7.154  10.786
25499W        W90759  29.432  20.199   2.693
25500W        W90760  32.289  21.496   2.072
25501W        W90761   8.581   0.752   2.883
25502W        W90762  18.674   0.770  12.383
25503W        W90763  33.970  26.413   5.339
25504W        W90764  25.546  31.052   4.890
25505W        W90765  33.575  37.591  14.461
25506W        W90766  30.973  27.201   5.173
25507W        W90767  38.805  32.403  10.296
25508W        W90768  44.410   5.329   2.244
25509W        W90769  33.126  31.248  11.938
25510W        W90770  11.947  44.636   1.344
25511W        W90771  36.108  20.668   4.530
25512W        W90772  30.410  30.433  11.471
25513W        W90773   6.174  29.586   3.715
25514W        W90774  24.125  27.676  13.509
25515W        W90775  40.188  13.335   0.061
25516W        W90776  19.544  33.824   1.312
25517W        W90777  17.799  35.498   0.636
25518W        W90778  43.920  11.595  14.981
25519W        W90779  31.130  16.041  13.964
25520W        W90780  13.138  31.168   3.156
25521W        W90781  37.531  21.035   4.047
25522W        W90782  17.174  39.578  14.335
25523W        W90783  33.157  23.639   1.988
25524W        W90784   1.649  43.457   4.101
25525W        W90785  26.126  37.937  10.587
25526W        W90786  27.741  40.944   2.256
25527W        W90787  13.625   1.789   1.461
25528W        W90788  20.100   8.828   3.331
25529W        W90789  14.831   7.674   3.267
25530W        W90790  44.060   3.700   3.209
25531W        W90791   8.191  40.766   3.093
25532W        W90792  32.605  28.157   5.185
25533W        W90793  44.267   9.207  14.964
25534W        W90794  38.493   2.204  13.822
25535W        W90795  21.718  27.652  14.364
25536W        W90796  21.108  43.713   3.170
25537W        W90797   9.584  35.362  14.036
25538W        W90798  37.286  44.822   2.681
25539W        W90799  15.645   1.681  14.083
25540W        W90800  33.294  26.042   2.349
25541W        W90801  41.832  10.083   0.276
25542W        W90802  24.969  28.435   1.244
25543W        W90803  24.430  34.956  14.915
25544W        W90804  14.354  41.519  12.566
25545W        W90805  18.396   1.384  10.820
25546W        W90806  43.822  16.777   0.785
25547W        W90807  36.467  41.471  12.431
25548W        W90808  30.723  26.486  12.951
25549W        W90809  18.769  22.066  13.398
25550W        W90810  37.066  23.987   3.820
25551W        W90811  34.370   3.105  10.656
25552W        W90812  10.073   6.885  11.193
25553W        W90813   2.306   8.565   0.713
25554W        W90814  35.612  15.703  11.879
25555W        W90815   7.454  42.972  10.773
25556W        W90816  39.953  29.982   2.130
25557W        W90817  30.406   8.369  14.473
25558W        W90818  38.753   6.928   0.938
25559W        W90819  26.941  11.207  11.132
25560W        W90820   3.751  11.893   0.866
25561W        W90821   9.756  44.977   3.691
25562W        W90822  40.104  28.516  10.729
25563W        W90823  20.529  30.331  10.880
25564W        W90824  24.404  38.869   0.352
25565W        W90825  39.779   3.009  11.455
25566W        W90826  14.718  25.558   3.811
25567W        W90827  33.229  12.376   4.573
25568W        W90828  38.396  10.147  10.286
25569W        W90829  34.199  39.794   3.254
25570W        W90830  12.149  32.601   0.495
25571W        W90831   0.861  34.537  12.491
25572W        W90832  33.861  30.558  13.394
25573W        W90833  37.148  21.037  11.451
25574W        W90834  28.077   8.254  13.297
25575W        W90835  14.741   7.766   9.789
25576W        W90836   1.307  24.688   0.578
25577W        W90837  40.290  31.099   1.225
25578W        W90838  28.616  40.872   0.895
25579W        W90839  42.920  17.298   0.667
25580W        W90840  37.074   6.302  13.941
25581W        W90841  37.800   0.249  14.159
25582W        W90842  11.975  43.944  11.466
25583W        W90843  35.839  22.810   3.165
25584W        W90844  38.267   8.807  12.229
25585W        W90845  44.947  16.497   0.222
25586W        W90846  14.645  41.142  13.378
25587W        W90847  25.375   5.224   0.600
25588W        W90848  37.735  18.850  12.484
25589W        W90849  16.010  29.963   3.118
25590W        W90850   9.608  17.211   3.158
25591W        W90851  37.045  25.880   0.591
25592W        W90852  23.489  42.865   2.628
25593W        W90853  20.668   1.889   0.452
25594W        W90854  43.758  25.594  12.966
25595W        W90855  23.066  42.230   3.983
25596W        W90856  12.271  37.017  11.607
25597W        W90857   6.278  14.094   0.363
25598W        W90858   8.552  18.468  11.806
25599W        W90859   3.795  39.879  12.524
25600W        W90860   6.901  25.897   3.199
25601W        W90861  42.927  41.781  12.892
25602W        W90862  42.574  14.612   2.431
25603W        W90863   8.002  41.921  12.335
25604W        W90864   4.482  27.260   0.219
25605W        W90865  34.122  33.225   3.199
25606W        W90866   9.271  10.743   0.732
25607W        W90867  21.727  15.586  11.504
25608W        W90868   6.330  32.563   4.010
25609W        W90869  27.462  33.494   1.700
25610W        W90870   6.729  31.041  13.560
25611W        W90871  28.134  42.714   0.427
25612W        W90872   3.929   4.708  12.616
25613W        W90873   1.239  14.382  13.756
25614W        W90874  38.001  35.100   2.240
25615W        W90875  37.767  19.458   1.543
25616W        W90876   5.275  32.312  12.514
25617W        W90877   7.381   9.338  14.014
25618W        W90878  30.633  33.966  11.931
25619W        W90879  12.683  39.306   1.218
25620W        W90880   8.809   0.430  14.544
25621W        W90881  10.737  24.999   3.169
25622W        W90882  16.063  15.594  13.612
25623W        W90883  41.172   0.354  10.379
25624W        W90884   5.892  33.439  10.980
25625W        W90885  29.964  42.248   4.504
25626W        W90886  19.855  29.170  14.867
25627W        W90887  14.675  39.127   3.698
25628W        W90888   1.362  41.453  12.884
25629W        W90889  18.051   4.992  11.930
25630W        W90890  33.617  23.555   0.429
25631W        W90891  19.677  12.603  14.130
25632W        W90892   6.252  44.261   1.217
25633W        W90893  27.232  16.908   4.011
25634W        W90894  38.986  18.307  10.668
25635W        W90895   1.315   6.207   4.564
25636W        W90896  26.061   3.149   4.304
25637W        W90897   6.700  17.583  12.500
25638W        W90898  33.635  30.543   4.220
25639W        W90899  39.930  38.069  12.446
25640W        W90900  35.115  11.688  11.381
25641W        W90901  17.781  11.177  11.953
25642W        W90902  29.662  26.111   2.362
25643W        W90903  26.351  15.652   1.303
25644W        W90904  29.525  30.581   4.631
25645W        W90905  24.616   8.846   1.749
25646W        W90906  23.153  22.675   3.192
25647W        W90907  34.860  30.595  11.744
25648W        W90908  19.278   0.829   4.010
25649W        W90909  10.403   9.824  13.798
25650W        W90910  33.533   5.448   4.540
25651W        W90911   3.850  22.596   2.758
25652W        W90912  38.326  34.292  13.871
25653W        W90913  16.943  27.030  10.520
25654W        W90914  26.107  17.076  11.533
25655W        W90915  44.652  42.142  10.841
25656W        W90916  16.641  26.608  14.861
25657W        W90917  43.901   5.611   3.386
25658W        W90918  34.600  21.599  14.563
25659W        W90919  34.121   7.179   4.555
25660W        W90920  33.728  15.756   4.120
25661W        W90921   8.154  26.604   0.644
25662W        W90922   1.838  24.389  14.350
25663W        W90923  21.526  31.587   0.036
25664W        W90924  17.366   9.223  14.436
25665W        W90925   3.543   5.091   1.704
25666W        W90926  10.761  14.586  11.856
25667W        W90927   9.760  16.120   4.763
25668W        W90928  40.469   5.402   0.161
25669W        W90929  42.641   5.630   3.249
25670W        W90930  11.296  20.996   2.756
25671W        W90931  31.024  34.160   3.864
25672W        W90932   0.814  44.712   0.451
25673W        W90933   8.284  30.941   2.420
25674W        W90934  19.234  33.815  13.606
25675W        W90935  22.693   3.697  13.289
25676W        W90936  18.819  39.728   3.542
25677W        W90937  20.700   8.806   0.754
25678W        W90938  12.367   0.809  11.518
25679W        W90939  36.997  16.749  12.887
25680W        W90940  23.110  23.759   1.163
25681W        W90941  36.974  39.577   3.394
25682W        W90942  35.875  36.769   0.832
25683W        W90943  12.598   1.996  10.546
25684W        W90944  33.329   7.994  11.571
25685W        W90945  42.842  19.195   1.188
25686W        W90946   3.097   7.654   4.205
25687W        W90947  42.960  31.844   0.007
25688W        W90948  12.232  20.988   2.710
25689W        W90949  24.239  13.295   3.436
25690W        W90950  33.142   1.252  11.629
25691W        W90951  24.906  11.824  11.611
25692W        W90952  43.944  44.892  13.337
25693W        W90953  33.212   8.174  13.498
25694W        W90954   1.291  39.798  12.644
25695W        W90955   6.074  14.366  11.423
25696W        W90956   3.802   5.187  12.004
25697W        W90957   2.233  35.430   4.693
25698W        W90958   7.745   2.003   3.944
25699W        W90959   7.179  34.525  13.407
25700W        W90960   0.503  28.996   3.354
25701W        W90961  40.815   6.718  12.276
25702W        W90962   1.815   8.392   0.849
25703W        W90963  10.836  15.520   5.059
25704W        W90964  29.450  30.630   1.387
25705W        W90965  26.032   5.884  12.929
25706W        W90966  32.026   8.432   2.456
25707W        W90967  44.018  19.445  11.356
25708W        W90968  18.542  29.929  13.397
25709W        W90969  17.042  42.018   1.752
25710W        W90970  43.355  41.342   2.743
25711W        W90971  38.079   5.503   1.209
25712W        W90972   6.122  35.546  13.850
25713W        W90973   0.644  34.069   4.107
25714W        W90974  16.475  23.691   3.463
25715W        W90975  26.261   1.937  13.405
25716W        W90976   9.623  15.086  12.431
25717W        W90977   9.969  20.706   0.806
25718W        W90978  43.201  15.556   0.762
25719W        W90979   4.673  25.611  14.334
25720W        W90980   3.190   6.376   4.543
25721W        W90981  26.755  33.404  11.954
25722W        W90982  10.188  20.845   1.254
25723W        W90983  26.505  27.509  11.944
25724W        W90984  31.998  16.216  11.445
25725W        W90985  39.487  37.471  12.565
25726W        W90986  44.486  35.456   0.296
25727W        W90987  14.839  10.802   4.058
25728W        W90988  34.703  32.431   4.323
25729W        W90989  17.165  16.862   1.512
25730W        W90990  14.689  29.382  12.430
25731W        W90991   5.829  18.105  12.229
25732W        W90992   4.933  34.678   3.633
25733W        W90993  25.249  33.405  12.562
25734W        W90994   9.168  43.170   2.218
25735W        W90995  22.076  34.023  11.893
25736W        W90996  43.216  22.953   1.583
25737W        W90997   7.676  20.594   0.347
25738W        W90998  13.856  38.014   0.209
25739W        W90999   4.393  26.620  14.511
25740W        W91000   2.935  20.144  12.015
25741W        W91001  30.659  21.965   0.841
25742W        W91002  42.050   7.861   1.384
25743W        W91003  29.026  24.406  11.673
25744W        W91004  35.306   5.218  12.049
25745W        W91005   2.516  16.801  14.874
25746W        W91006  15.595   4.990  13.823
25747W        W91007  22.986  38.444  11.998
25748W        W91008  20.500  27.109  14.951
25749W        W91009  10.975  24.924   1.651
25750W        W91010  25.278   7.168  13.150
25751W        W91011  11.796  22.615   4.604
25752W        W91012  10.608   9.675   1.284
25753W        W91013  39.348  42.345   4.740
25754W        W91014  42.440  44.943  13.561
25755W        W91015  35.782  25.999  12.524
25756W        W91016  19.237   6.851   0.190
25757W        W91017  16.227  25.878  11.549
25758W        W91018  14.561  21.765  13.345
25759W        W91019  17.061   3.612  12.488
25760W        W91020  25.297  41.535  13.857
25761W        W91021   9.391  41.944  10.718
25762W        W91022  13.151  34.422   2.747
25763W        W91023  43.695  26.956  11.223
25764W        W91024  28.603  29.290  12.537
25765W        W91025  26.269  26.154   2.210
25766W        W91026  37.433  28.756  13.871
25767W        W91027  39.290  12.940  13.724
25768W        W91028   0.404  42.599  13.479
25769W        W91029  37.103  20.836   4.277
25770W        W91030  33.479  30.373  11.482
25771W        W91031  15.646   5.371   0.788
25772W        W91032  14.850  14.386   2.262
25773W        W91033  26.145  11.981   4.413
25774W        W91034   4.311  34.153  12.896
25775W        W91035  42.244  31.482   3.784
25776W        W91036   5.960  19.027   1.827
25777W        W91037  13.322  27.634  11.957
25778W        W91038  35.893  22.722  11.935
25779W        W91039  11.652  10.869   2.182
25780W        W91040  39.606  18.154   3.950
25781W        W91041  16.756  13.852   0.794
25782W        W91042   0.272  21.671   3.585
25783W        W91043  26.154   1.335  11.070
25784W        W91044  35.850  32.967   0.399
25785W        W91045  19.005   1.267   2.813
25786W        W91046  32.291  30.187   3.200
25787W        W91047   1.954  41.700   3.904
25788W        W91048  39.337   8.909   3.837
25789W        W91049  13.285   3.156   1.891
25790W        W91050  23.667  30.865   0.476
25791W        W91051   8.234  31.886   4.146
25792W        W91052  16.220  42.007  12.891
25793W        W91053  13.585   6.945   1.319
25794W        W91054  27.781  18.032  11.547
25795W        W91055  31.465  38.091  14.011
25796W        W91056   9.704  19.076  12.465
25797W        W91057  18.917   7.204  11.078
25798W        W91058  42.789  39.323  12.408
25799W        W91059  23.591  25.982   2.435
25800W        W91060  38.599  44.215  12.036
25801W        W91061  18.909  12.547  13.337
25802W        W91062  18.723   5.043   3.625
25803W        W91063  35.137  34.391  12.359
25804W        W91064   5.628   5.926  11.073
25805W        W91065  11.659  23.061   4.383
25806W        W91066   2.841  43.440   4.607
25807W        W91067  29.412   8.236   4.584
25808W        W91068  41.118  17.576   2.655
25809W        W91069  24.702   7.860   1.445
25810W        W91070  23.707  43.468  11.604
25811W        W91071   4.132   7.428   2.681
25812W        W91072   1.032  25.447  13.487
25813W        W91073  41.267  15.121   1.599
25814W        W91074   8.434  12.359   3.666
25815W        W91075   1.771  27.943   3.439
25816W        W91076  44.486  13.034   0.412
25817W        W91077  19.499  42.574   4.113
25818W        W91078   4.204  42.739  13.332
25819W        W91079   0.064  31.389   2.765
25820W        W91080   0.197   5.622  10.757
25821W        W91081  10.155  39.062  12.045
25822W        W91082  19.792  33.875  12.888
25823W        W91083  35.346  31.501  11.638
25824W        W91084   9.482   9.399   0.681
25825W        W91085  36.634  19.690   4.578
25826W        W91086  36.135  29.048   1.240
25827W        W91087  31.384  26.665   0.485
25828W        W91088   1.630  44.025   3.202
25829W        W91089  21.985  11.223  10.581
25830W        W91090  10.839  20.493  14.508
25831W        W91091  42.839  33.555  10.509
25832W        W91092  22.275  22.977   2.593
25833W        W91093  38.758  24.946   2.392
25834W        W91094  43.949  21.222   2.394
25835W        W91095  30.643  11.234   2.882
25836W        W91096  32.481   1.203   0.299
25837W        W91097  18.681   8.493  11.991
25838W        W91098   6.946  17.690   4.209
25839W        W91099  22.177  29.763  12.050
25840W        W91100  24.962  38.571   2.759
25841W        W91101   6.450   1.377  12.455
25842W        W91102   9.961  29.618  10.062
25843W        W91103   5.401  16.324  10.706
25844W        W91104  17.561  32.069  12.892
25845W        W91105  34.155  40.482  13.310
25846W        W91106  12.856  11.418  14.745
25847W        W91107   5.954  36.078  11.821
25848W        W91108   2.250  10.843   9.961
25849W        W91109  37.736  23.941  10.740
25850W        W91110  23.471  42.362   2.524
25851W        W91111   0.987  17.048   3.653
25852W        W91112  28.562  13.208   2.109
25853W        W91113  32.648  42.084   1.957
25854W        W91114  18.163   7.990  13.543
25855W        W91115  35.987  21.575   2.063
25856W        W91116   0.861  27.780  12.542
25857W        W91117  26.627   1.216   0.854
25858W        W91118  21.604  38.561  14.523
25859W        W91119  42.797  18.671   4.041
25860W        W91120  19.865  25.402   3.612
25861W        W91121  32.138  18.047  13.383
25862W        W91122   7.446   4.869   1.894
25863W        W91123  43.722  10.325   0.297
25864W        W91124  42.369   5.130  13.093
25865W        W91125  23.938  15.805   0.845
25866W        W91126  24.631  19.837   1.891
25867W        W91127  26.284  23.569   3.245
25868W        W91128  29.155   2.905  12.371
25869W        W91129  40.409   0.275   0.197
25870W        W91130  41.487   3.819   3.133
25871W        W91131  11.124   9.334   2.375
25872W        W91132  26.544   0.713   0.780
25873W        W91133  25.068  20.213  11.645
25874W        W91134  39.080   1.772   2.671
25875W        W91135  28.598  34.252  13.947
25876W        W91136  29.038  36.026   2.263
25877W        W91137  41.660  24.977  14.232
25878W        W91138   1.288   7.866   0.332
25879W        W91139   7.682  23.496  14.558
25880W        W91140   9.450   6.754   3.626
25881W        W91141  42.921  10.311   1.649
25882W        W91142  13.949   5.497   1.142
25883W        W91143  20.269   1.877   0.818
25884W        W91144  41.303  23.437  14.433
25885W        W91145  29.078   4.148   0.128
25886W        W91146  36.517  32.466   0.927
25887W        W91147  18.007  18.987   1.944
25888W        W91148  12.593   0.885  12.870
25889W        W91149  39.926  16.198  13.258
25890W        W91150  32.242  40.675   0.166
25891W        W91151  22.242  30.954  13.828
25892W        W91152   5.635  15.726   0.312
25893W        W91153  19.625  15.698  14.818
25894W        W91154  39.550  26.685  11.615
25895W        W91155  33.944  25.025   4.943
25896W        W91156  16.578  18.828  11.559
25897W        W91157  22.484  16.525   4.083
25898W        W91158  29.784  20.274  11.975
25899W        W91159   6.885  12.349  10.773
25900W        W91160  37.639  16.674   1.428
25901W        W91161  20.544  36.073  11.664
25902W        W91162  35.812  19.553  14.428
25903W        W91163   6.006  34.336   1.148
25904W        W91164  16.103  12.184   0.665
25905W        W91165  13.816  30.232   0.535
25906W        W91166  27.750  38.972   4.633
25907W        W91167  35.978  38.636  10.774
25908W        W91168  12.186  23.393  14.536
25909W        W91169  26.746   2.475  11.070
25910W        W91170  13.253  17.634   0.311
25911W        W91171  24.672  43.569  10.642
25912W        W91172   3.707  14.748   3.597
25913W        W91173  13.569   1.380   0.161
25914W        W91174  38.913   4.372   0.076
25915W        W91175  16.387  39.449  11.637
25916W        W91176  38.603   7.389  13.838
25917W        W91177  36.820  18.702  13.489
25918W        W91178   6.113  34.963   0.131
25919W        W91179  18.746  16.081   2.779
25920W        W91180  44.360  21.458  13.918
25921W        W91181  38.775  24.251  11.545
25922W        W91182  19.597  43.962   1.355
25923W        W91183  24.913  17.584  14.256
25924W        W91184  13.259   4.740  12.124
25925W        W91185   4.373  41.373   4.597
25926W        W91186   9.612  16.105  10.414
25927W        W91187  16.290  14.955   2.349
25928W        W91188  23.080  20.439   0.411
25929W        W91189  36.978  18.278  10.705
25930W        W91190  14.652  22.945   1.649
25931W        W91191  18.516  37.995   1.124
25932W        W91192  12.655  26.862   5.475
25933W        W91193   2.737   4.963  14.451
25934W        W91194   0.750  30.527  14.238
25935W        W91195   3.451  26.581   0.316
25936W        W91196  31.918  17.797  11.541
25937W        W91197   3.572  32.612  13.464
25938W        W91198  22.129  15.075  13.864
25939W        W91199  28.527  40.258   1.964
25940W        W91200  25.834  23.280   3.645
25941W        W91201  32.004  10.438   0.884
25942W        W91202  39.060  11.324   1.950
25943W        W91203  41.406  32.809   1.155
25944W        W91204  19.439   9.387   0.908
25945W        W91205  32.137  17.479  12.814
25946W        W91206  34.499  23.399   3.665
25947W        W91207  28.483   9.480   2.918
25948W        W91208  22.740  38.892   2.578
25949W        W91209  24.577   2.157   3.618
25950W        W91210  28.006  32.890   1.728
25951W        W91211   4.178  20.654  12.107
25952W        W91212  10.332  15.044  14.461
25953W        W91213  35.280  34.085   4.438
25954W        W91214  29.003  43.477  14.327
25955W        W91215  35.402  33.357  13.906
25956W        W91216   8.341   6.296   1.782
25957W        W91217   7.313  28.934  12.994
25958W        W91218  23.681  34.658  13.852
25959W        W91219  15.833   4.147  11.091
25960W        W91220  34.086  37.379  12.135
25961W        W91221  28.687  44.846  12.012
25962W        W91222  41.376   4.299   3.910
25963W        W91223   3.997  21.646   4.275
25964W        W91224   1.435  13.358  13.833
25965W        W91225  13.341   7.774   2.715
25966W        W91226  22.646  12.199  11.606
25967W        W91227  26.748  15.555  12.585
25968W        W91228   4.322  43.089   3.370
25969W        W91229   7.266  19.204  12.794
25970W        W91230  35.100   9.225  11.567
25971W        W91231  28.555  28.585  13.619
25972W        W91232  32.688   1.899  13.953
25973W        W91233  30.013  39.326  11.867
25974W        W91234  29.636  42.905   0.254
25975W        W91235  21.643  35.173  13.760
25976W        W91236   5.804  31.049   4.666
25977W        W91237   9.284   5.644   1.366
25978W        W91238  11.879   0.559  12.838
25979W        W91239  34.303  40.424   4.557
25980W        W91240   3.751  37.034  14.524
25981W        W91241  26.391  27.903   5.072
25982W        W91242  35.154   9.346  12.740
25983W        W91243   4.572  16.514  13.963
25984W        W91244  26.734   9.315   3.640
25985W        W91245  32.686  13.584  12.577
25986W        W91246  43.930  43.461   0.936
25987W        W91247  41.266  15.235  13.525
25988W        W91248  22.956  23.700  12.061
25989W        W91249   8.095  37.590   1.335
25990W        W91250  34.593  11.743   1.291
25991W        W91251  42.517  31.994   2.854
25992W        W91252  37.847   8.196   3.684
25993W        W91253  22.672  30.474   2.782
25994W        W91254  43.686  43.928  13.297
25995W        W91255  15.854   8.895   1.276
25996W        W91256  29.612  13.870  12.954
25997W        W91257  18.901   8.277  10.694
25998W        W91258  31.355   1.069  13.553
25999W        W91259  37.923  39.303  12.475
26000W        W91260  19.250  25.936   0.041
26001W        W91261  34.770   0.812   1.382
26002W        W91262  43.833  15.393   3.108
26003W        W91263  30.425  22.344  10.801
26004W        W91264  25.700  11.910   1.350
26005W        W91265  30.011   9.105  11.377
26006W        W91266  40.279  12.052  11.628
26007W        W91267  13.131  29.587   3.726
26008W        W91268  42.437  42.783   0.275
26009W        W91269   2.164  30.365  14.012
26010W        W91270  28.963   0.922   3.389
26011W        W91271  43.799   3.909   2.815
26012W        W91272  41.902   4.927  12.450
26013W        W91273  30.603  21.078  13.535
26014W        W91274  21.752  39.782  12.084
26015W        W91275  10.244   4.090   1.793
26016W        W91276  19.282  27.135  12.416
26017W        W91277  44.702  19.096   1.969
26018W        W91278  17.994   5.394  12.490
26019W        W91279   0.288   5.116   2.929
26020W        W91280  26.426  13.827   3.183
26021W        W91281  42.878  28.255   0.867
26022W        W91282  43.528  29.036   0.067
26023W        W91283  32.980  34.839   0.674
26024W        W91284  18.045   9.553   0.750
26025W        W91285   6.710  10.391  12.569
26026W        W91286  15.179  40.618  14.424
26027W        W91287  16.360  36.527  11.479
26028W        W91288  39.107  43.052  11.239
26029W        W91289  21.438  24.283  14.256
26030W        W91290  12.496  43.007   3.159
26031W        W91291  27.194  21.776   4.120
26032W        W91292  19.070  32.030   3.390
26033W        W91293  39.549   0.446  14.727
26034W        W91294  29.625  36.499  14.220
26035W        W91295  27.388  20.324   1.833
26036W        W91296  25.646  24.641   4.598
26037W        W91297  29.234   7.565   2.718
26038W        W91298   9.103   7.133   4.582
26039W        W91299  39.176  24.683  10.245
26040W        W91300  11.829  40.874  12.787
26041W        W91301  33.209  38.070   3.339
26042W        W91302  20.259  23.425  11.572
26043W        W91303  38.873  16.769  10.668
26044W        W91304  15.731  38.520   3.684
26045W        W91305  26.922  26.108   3.640
26046W        W91306   7.816  24.987  14.286
26047W        W91307  13.552  13.237   3.834
26048W        W91308  30.809  39.355  11.276
26049W        W91309  42.212  37.802   0.447
26050W        W91310  39.151  44.540   4.569
26051W        W91311  15.175  28.657  13.988
26052W        W91312  44.353  26.024  11.649
26053W        W91313  42.288  31.332   0.374
26054W        W91314  20.322   0.263   3.530
26055W        W91315   6.183  33.693  11.917
26056W        W91316  41.383  17.109   3.338
26057W        W91317  42.537  20.029   3.413
26058W        W91318  20.605  15.610   1.787
26059W        W91319   3.504  37.405   1.797
26060W        W91320   8.562  20.754  13.513
26061W        W91321  10.621   9.169   2.263
26062W        W91322  42.222  13.574  11.543
26063W        W91323  42.002  32.133  11.968
26064W        W91324  10.091  21.763   1.020
26065W        W91325  23.739  42.466   3.896
26066W        W91326  22.768  44.510   3.790
26067W        W91327  28.203  37.464   4.657
26068W        W91328  10.065  18.073  14.036
26069W        W91329   2.388  38.597  12.596
26070W        W91330  16.578  31.370   0.758
26071W        W91331  30.597   7.399   4.320
26072W        W91332  21.343   6.135  11.897
26073W        W91333  38.257   9.338  13.905
26074W        W91334  32.381  27.215   4.883
26075W        W91335  27.484   3.491   4.462
26076W        W91336  32.683  43.688   1.442
26077W        W91337  41.352  24.205  10.670
26078W        W91338  17.334  34.625  13.096
26079W        W91339  21.581  23.726  12.954
26080W        W91340  11.986  33.964  14.931
26081W        W91341  29.015  42.007  11.590
26082W        W91342   1.942  16.541  13.586
26083W        W91343  19.097  44.048   4.348
26084W        W91344  11.645   9.790  11.670
26085W        W91345   8.637   6.435  13.136
26086W        W91346  11.243  14.592  12.127
26087W        W91347   4.499  11.498  13.437
26088W        W91348  22.570  18.826   4.930
26089W        W91349  41.395  13.367  10.695
26090W        W91350  20.776  21.270  13.388
26091W        W91351  16.472  26.060  12.115
26092W        W91352   9.742  21.497   0.741
26093W        W91353   8.264   7.368   4.070
26094W        W91354  27.782   8.493   1.060
26095W        W91355  43.004  27.031  14.356
26096W        W91356  35.631   7.208   3.153
26097W        W91357  33.963  10.482  11.963
26098W        W91358   2.947  41.244   4.435
26099W        W91359   8.877   8.092   0.231
26100W        W91360  38.914  32.802  12.588
26101W        W91361  31.005  31.518  14.764
26102W        W91362   8.228  38.321  12.770
26103W        W91363   0.323  43.487   3.327
26104W        W91364  32.453   2.413   4.973
26105W        W91365   6.932   7.381  14.344
26106W        W91366   2.244  39.428   2.812
26107W        W91367   4.019  29.545   0.235
26108W        W91368  10.102  17.686  13.539
26109W        W91369   4.355  37.450  11.618
26110W        W91370  34.871   8.207  12.163
26111W        W91371  30.065  20.213  11.545
26112W        W91372  44.985   2.294   2.234
26113W        W91373  12.129  24.547   0.309
26114W        W91374  43.422   6.809   2.484
26115W        W91375  26.797  10.731  12.949
26116W        W91376  39.440   0.799  11.962
26117W        W91377  17.745  13.501   4.125
26118W        W91378  27.477  36.008   0.230
26119W        W91379   6.143  35.596   2.378
26120W        W91380  39.839  10.367  10.546
26121W        W91381  22.540  28.640  11.608
26122W        W91382  24.226  13.425   1.970
26123W        W91383  37.484   2.317   0.774
26124W        W91384  44.258   6.215   4.097
26125W        W91385  36.679  19.061   3.643
26126W        W91386  20.116  32.894   0.507
26127W        W91387   2.074  31.041   3.207
26128W        W91388  22.192  34.099   3.806
26129W        W91389  17.477  42.288  10.657
26130W        W91390  42.795  30.014   1.788
26131W        W91391  25.206  44.933   1.833
26132W        W91392   5.140  33.111  13.290
26133W        W91393  29.946  35.791   0.778
26134W        W91394  23.673  43.857  12.470
26135W        W91395  21.445  29.920   4.166
26136W        W91396  28.526  11.560  13.513
26137W        W91397  26.075  16.886   0.305
26138W        W91398  44.924  10.248  14.058
26139W        W91399  38.800  18.654   2.217
26140W        W91400   3.699  13.662   4.657
26141W        W91401  42.648  17.799   4.541
26142W        W91402  28.582   2.194  14.463
26143W        W91403   2.768   9.115   4.163
26144W        W91404  31.613  13.911  11.947
26145W        W91405  34.540  35.058  13.712
26146W        W91406  14.799  23.064   2.577
26147W        W91407   0.325   2.400   3.703
26148W        W91408  23.670  44.812  14.228
26149W        W91409  10.842  20.961  12.044
26150W        W91410  20.874  18.016  13.036
26151W        W91411  11.577   5.357   4.208
26152W        W91412  39.743  11.832  13.871
26153W        W91413  23.547  19.389   0.793
26154W        W91414  41.994   7.783   4.594
26155W        W91415  13.267  20.796   1.425
26156W        W91416  25.065  22.562  14.660
26157W        W91417  35.338  27.973   4.071
26158W        W91418  26.927   2.784   2.269
26159W        W91419  28.109  39.606   4.128
26160W        W91420  11.221   2.185   3.717
26161W        W91421  23.488  29.699  13.467
26162W        W91422  35.943  18.293  13.390
26163W        W91423  24.218  36.303  13.075
26164W        W91424  14.578   6.183   4.168
26165W        W91425  42.983  35.818   4.128
26166W        W91426  41.340  42.866   1.736
26167W        W91427  11.625   1.412  14.552
26168W        W91428  37.500   2.429  12.876
26169W        W91429  17.137  41.516   4.562
26170W        W91430  14.297  16.762  14.640
26171W        W91431  27.118   7.620   3.171
26172W        W91432  30.433  25.400   3.588
26173W        W91433  32.203  28.590   4.077
26174W        W91434  18.301  26.410   2.171
26175W        W91435  14.862  38.445  13.552
26176W        W91436  38.229  29.205  11.064
26177W        W91437  22.426  16.049   3.494
26178W        W91438   3.139  42.131   3.678
26179W        W91439  31.267  35.477   0.252
26180W        W91440  33.238  24.778  11.973
26181W        W91441   8.647  21.046   4.097
26182W        W91442  36.940  18.367  12.534
26183W        W91443   7.911  26.165  10.252
26184W        W91444   8.337  10.682   0.746
26185W        W91445  35.472  33.939   3.233
26186W        W91446  40.101   6.595   3.702
26187W        W91447   9.279  33.148   4.138
26188W        W91448  21.680   5.984  13.472
26189W        W91449  21.061   1.278  12.518
26190W        W91450  16.218   6.719   3.844
26191W        W91451   6.922  11.186  14.477
26192W        W91452   9.223  30.213  11.966
26193W        W91453  28.555  25.968  14.842
26194W        W91454   6.304  20.459   0.065
26195W        W91455  38.092  12.971   0.303
26196W        W91456  44.440   0.928   2.786
26197W        W91457   1.649  19.215  14.020
26198W        W91458  18.074  40.008  12.943
26199W        W91459  37.339  30.312  12.435
26200W        W91460  20.338  36.513   5.444
26201W        W91461   1.416  38.846  12.119
26202W        W91462   4.763  19.561   1.433
26203W        W91463  22.759  23.974   3.598
26204W        W91464   5.461   4.089   3.715
26205W        W91465  26.960   0.025  11.239
26206W        W91466  36.093   8.354  14.819
26207W        W91467  22.866  37.628  12.449
26208W        W91468  26.916   4.148  12.387
26209W        W91469   8.451   5.700   2.759
26210W        W91470   5.940  39.761   0.301
26211W        W91471  42.936  34.175  13.549
26212W        W91472   9.254   6.760  10.616
26213W        W91473   9.698  32.951  11.672
26214W        W91474  35.508   8.963   4.428
26215W        W91475  25.896  26.752  14.133
26216W        W91476   2.309  13.200  13.592
26217W        W91477  18.023   8.365   2.335
26218W        W91478  14.063  16.180  11.616
26219W        W91479  25.001  25.402  13.457
26220W        W91480   5.405  32.973   3.026
26221W        W91481  42.914   7.163  11.227
26222W        W91482  15.986  37.817   3.102
26223W        W91483  42.937  17.498  13.403
26224W        W91484   2.833  44.283   4.166
26225W        W91485  15.144  42.540   2.241
26226W        W91486  28.573  42.516  14.053
26227W        W91487   8.407  33.161   3.708
26228W        W91488  32.737  19.094   2.553
26229W        W91489  16.263  10.646  10.550
26230W        W91490  42.984  34.606   2.371
26231W        W91491  17.590  42.073   1.416
26232W        W91492  10.746   1.205  12.442
26233W        W91493   6.132  25.249  10.184
26234W        W91494   1.691   3.920   4.540
26235W        W91495   9.465  17.540  11.514
26236W        W91496  10.705  11.955   3.774
26237W        W91497  20.801  36.961  11.898
26238W        W91498   1.338  22.005   4.504
26239W        W91499  27.958  33.218  14.392
26240W        W91500  25.889   9.238   1.682
26241W        W91501   6.218  23.053  14.106
26242W        W91502  32.021  43.377   1.873
26243W        W91503  31.322  12.744  10.711
26244W        W91504  44.318  29.236   1.383
26245W        W91505  34.351  36.405   1.885
26246W        W91506  42.252  13.357  13.886
26247W        W91507   4.825  30.624  10.181
26248W        W91508  28.225  14.783   2.497
26249W        W91509  38.863  11.150   1.253
26250W        W91510  36.435  39.076   3.402
26251W        W91511  11.655  25.640  10.594
26252W        W91512  13.870  10.196  13.931
26253W        W91513  32.063  41.430  14.418
26254W        W91514  23.518   2.231   0.595
26255W        W91515  10.693  14.034   2.780
26256W        W91516  17.373  28.911   3.346
26257W        W91517  11.700   6.476  10.194
26258W        W91518  17.835   9.487   3.576
26259W        W91519  19.716  12.074  11.042
26260W        W91520  12.187  32.482  12.982
26261W        W91521   7.941   0.284  10.749
26262W        W91522   6.836  43.806   0.944
26263W        W91523  28.154  23.317  11.269
26264W        W91524   2.606   4.903   3.097
26265W        W91525   8.934  12.576   4.149
26266W        W91526  14.456  28.619   0.706
26267W        W91527  39.847  38.468   3.298
26268W        W91528  20.555  44.231  14.986
26269W        W91529  39.791  43.100   1.713
26270W        W91530  27.144   8.391  13.006
26271W        W91531   8.664  32.538   4.569
26272W        W91532  27.518  10.411   2.335
26273W        W91533  11.420  34.900  13.497
26274W        W91534   3.974  34.381   1.415
26275W        W91535  34.913  44.461  11.660
26276W        W91536  25.639  22.920   1.723
26277W        W91537  16.040  30.541   3.806
26278W        W91538  17.575  44.257  13.522
26279W        W91539  17.945  11.744  13.030
26280W        W91540  39.430  42.072   3.898
26281W        W91541   4.525  22.686   4.468
26282W        W91542  31.250  13.179  14.466
26283W        W91543   3.882  44.052   3.265
26284W        W91544   6.398  26.935   0.792
26285W        W91545  42.046   3.046   4.524
26286W        W91546  17.128  28.201  11.590
26287W        W91547  15.360   7.019  10.035
26288W        W91548   2.468  40.293  13.101
26289W        W91549  18.786  44.719   4.882
26290W        W91550  12.691  18.172   3.343
26291W        W91551   8.498  44.105  11.708
26292W        W91552  18.628   4.248   3.974
26293W        W91553  41.099  30.696   1.869
26294W        W91554  22.699  25.742  13.972
26295W        W91555  39.112  36.652   4.867
26296W        W91556  21.524  13.832  10.755
26297W        W91557  21.196  42.848  11.110
26298W        W91558  38.003  13.318   4.124
26299W        W91559  12.044  27.904  12.361
26300W        W91560  21.120   1.423  10.669
26301W        W91561  19.770  23.208  11.570
26302W        W91562  18.244   1.698  13.191
26303W        W91563  16.000  41.915   0.839
26304W        W91564  11.304   2.478  14.555
26305W        W91565  16.805   1.906  13.863
26306W        W91566   2.185   4.850  10.718
26307W        W91567  42.314   7.810   2.305
26308W        W91568  14.232  35.630   3.756
26309W        W91569  32.211  36.032   1.863
26310W        W91570  22.479  38.545  12.008
26311W        W91571   2.402   1.299  13.771
26312W        W91572   8.618   1.201  13.116
26313W        W91573  30.096  24.470   0.154
26314W        W91574  31.330   6.402   1.552
26315W        W91575  23.701  34.110  10.689
26316W        W91576  29.538  17.352  11.429
26317W        W91577   3.717  35.378   2.373
26318W        W91578  19.679  13.734   3.366
26319W        W91579  28.412  42.064   3.309
26320W        W91580  30.773  34.992  11.761
26321W        W91581  32.146   2.614  13.893
26322W        W91582  13.309  29.738  12.898
26323W        W91583  20.576  15.000   2.883
26324W        W91584  14.849  33.387  12.473
26325W        W91585  11.358  20.593   3.108
26326W        W91586  34.087  44.740  14.483
26327W        W91587   1.291  37.999  10.926
26328W        W91588  32.854  24.744   3.214
26329W        W91589  44.392  24.607  12.495
26330W        W91590  18.999  19.495   2.682
26331W        W91591  19.328   5.682  14.768
26332W        W91592  43.569   2.235  10.608
26333W        W91593  35.537  17.546   1.894
26334W        W91594   5.928  42.799   3.233
26335W        W91595  38.010  30.167  13.512
26336W        W91596  33.088  25.495   2.511
26337W        W91597  11.844  30.653  13.357
26338W        W91598  25.988  15.915  14.486
26339W        W91599  20.350  38.053   9.928
26340W        W91600  27.549  43.972   4.594
26341W        W91601  33.018  10.347   1.270
26342W        W91602  21.771  16.029  13.399
26343W        W91603  22.309  37.160  14.200
26344W        W91604  31.151  40.814  11.091
26345W        W91605  24.931  10.081   2.407
26346W        W91606  24.561  31.447  13.820
26347W        W91607  35.598  28.516  14.412
26348W        W91608  10.682  19.101   4.202
26349W        W91609  24.477  23.149   3.218
26350W        W91610  28.069   9.226  11.135
26351W        W91611  43.816  16.186   4.146
26352W        W91612  23.429  15.349   1.993
26353W        W91613   6.794  32.700  13.998
26354W        W91614  28.082  16.597  14.751
26355W        W91615  28.411  32.942  11.005
26356W        W91616  29.884  17.144  13.867
26357W        W91617   2.963  33.893   0.563
26358W        W91618  27.679  24.088   5.007
26359W        W91619  12.270  20.156   1.696
26360W        W91620  15.867   1.499  10.624
26361W        W91621  29.265   5.989  12.062
26362W        W91622  14.110  25.882   4.803
26363W        W91623  26.233  34.486  11.005
26364W        W91624  20.134  40.341   2.761
26365W        W91625  25.941  29.105  13.529
26366W        W91626  26.673  36.645  14.674
26367W        W91627   7.739  39.934   0.694
26368W        W91628  29.518   0.269  11.743
26369W        W91629  20.189  24.292  11.989
26370W        W91630   8.578   4.200   1.263
26371W        W91631  32.867  29.766  11.678
26372W        W91632  36.539  10.594   0.301
26373W        W91633  17.511  19.541   2.897
26374W        W91634  29.526  38.337   3.602
26375W        W91635  33.463  28.280   3.839
26376W        W91636  10.398  35.013   0.039
26377W        W91637  30.140  10.798  10.850
26378W        W91638  27.336   9.008   0.259
26379W        W91639  14.710  33.576   4.601
26380W        W91640   4.012  36.639  11.069
26381W        W91641  11.989   9.901  12.497
26382W        W91642  41.669  30.261  12.134
26383W        W91643  21.187  15.101  10.942
26384W        W91644  19.842   8.765   2.423
26385W        W91645  16.720   5.645   3.270
26386W        W91646  13.230   8.352   1.929
26387W        W91647  11.840  22.783   0.309
26388W        W91648  17.372  29.072   2.143
26389W        W91649  16.891  23.613   0.247
26390W        W91650  34.615  25.733  10.390
26391W        W91651  27.736   7.862  12.421
26392W        W91652  31.455  42.837  13.948
26393W        W91653  24.491   8.888  10.496
26394W        W91654  33.538   7.972  14.482
26395W        W91655  42.029  41.368  14.243
26396W        W91656  16.221  20.119  12.647
26397W        W91657  34.507  12.138  10.686
26398W        W91658  39.108  34.975  13.072
26399W        W91659  28.708  12.357  11.668
26400W        W91660  15.582  38.896  10.756
26401W        W91661  43.526  39.011   2.387
26402W        W91662   5.744  26.071  14.976
26403W        W91663  23.949  41.099  13.005
26404W        W91664  23.191  31.501  10.709
26405W        W91665  30.913  42.848  13.075
26406W        W91666   7.088   5.144  14.447
26407W        W91667  18.479  43.699  12.077
26408W        W91668  38.517  11.518  13.517
26409W        W91669  14.830  13.803  11.647
26410W        W91670  44.493  29.478   0.940
26411W        W91671  22.644  10.324  11.451
26412W        W91672   3.215  15.618   4.296
26413W        W91673  33.623   1.141   3.907
26414W        W91674  35.922  32.238  14.293
26415W        W91675  37.083   5.966   1.954
26416W        W91676  27.757   5.249  12.443
26417W        W91677   8.236  27.293  13.739
26418W        W91678  41.008  11.699  13.518
26419W        W91679  15.881  11.752   0.853
26420W        W91680  30.098  18.548   3.388
26421W        W91681  25.607  13.663   4.307
26422W        W91682  37.310  13.703  13.023
26423W        W91683  14.736  42.232   2.247
26424W        W91684  41.531  44.290   3.581
26425W        W91685  44.543   6.242   2.317
26426W        W91686  37.590   5.774   3.229
26427W        W91687   7.876  33.786  12.396
26428W        W91688  15.779  11.614  14.080
26429W        W91689  10.013  27.462   0.892
26430W        W91690  11.789  16.674  11.475
26431W        W91691  37.589  13.251   1.959
26432W        W91692  34.487  25.133  13.241
26433W        W91693  39.293   2.462   0.022
26434W        W91694   9.484  32.375  13.528
26435W        W91695  43.511  24.131   3.589
26436W        W91696  22.251   4.833  14.048
26437W        W91697   7.797  43.970   1.231
26438W        W91698  29.604  38.421  11.577
26439W        W91699  24.977   2.424  14.717
26440W        W91700  27.053  38.935  12.128
26441W        W91701  35.029   1.924  10.101
26442W        W91702  33.464   5.747  14.397
26443W        W91703  32.318  14.574   2.202
26444W        W91704   1.304   0.545   4.783
26445W        W91705  35.390  15.530  12.367
26446W        W91706  19.539   8.621  11.621
26447W        W91707  43.003  32.801   1.517
26448W        W91708  29.613   0.413  13.987
26449W        W91709  26.699  38.094   2.841
26450W        W91710  21.042  14.022  11.607
26451W        W91711   9.314  24.227  12.793
26452W        W91712  23.948  31.568  11.920
26453W        W91713  17.491  37.482  11.105
26454W        W91714  42.834  29.958  12.324
26455W        W91715  37.254  29.688  14.589
26456W        W91716  23.368  23.238  11.104
26457W        W91717  35.226  36.036   5.031
26458W        W91718  43.550  43.335  14.933
26459W        W91719  17.574  25.122   3.265
26460W        W91720  11.615  32.697   4.658
26461W        W91721  41.149  21.938   1.817
26462W        W91722   1.740  17.446  13.752
26463W        W91723   0.295  28.928   2.658
26464W        W91724  22.598  41.533  13.518
26465W        W91725   1.281   0.516  12.645
26466W        W91726  10.665  13.985   5.047
26467W        W91727   8.910  12.373  12.635
26468W        W91728   0.269  28.489  14.959
26469W        W91729  30.489  30.526   4.036
26470W        W91730  39.413  44.441   5.029
26471W        W91731  13.818  31.076   1.711
26472W        W91732  31.516   5.592  13.321
26473W        W91733  44.467  27.441   1.305
26474W        W91734  31.962  14.474   5.106
26475W        W91735  39.998  29.543  11.646
26476W        W91736  32.993  26.077  14.881
26477W        W91737  16.133  20.690  14.852
26478W        W91738   6.880  19.762  14.580
26479W        W91739  11.618  16.915   3.912
26480W        W91740  37.823  39.417  13.431
26481W        W91741   6.623  36.959  11.648
26482W        W91742   6.855   3.639   1.860
26483W        W91743   2.886  34.061   0.054
26484W        W91744   6.103  33.567   3.207
26485W        W91745   3.227  39.076  11.095
26486W        W91746  25.989  32.853  10.579
26487W        W91747  24.560   5.101  13.971
26488W        W91748  11.589  39.928   2.227
26489W        W91749  23.106  31.043  14.780
26490W        W91750  17.233  43.750  10.797
26491W        W91751  42.834  35.348  12.159
26492W        W91752   5.210  34.628  12.145
26493W        W91753   2.727  33.566   5.028
26494W        W91754   1.770  22.032  10.701
26495W        W91755   2.359  35.958   4.652
26496W        W91756   1.386   5.209  10.502
26497W        W91757   1.988  41.401  14.832
26498W        W91758  30.446  29.214   1.913
26499W        W91759  23.074  12.124   2.717
26500W        W91760  23.477  44.251   3.163
26501W        W91761  29.083  23.983   3.630
26502W        W91762   6.390  22.622   4.121
26503W        W91763   1.403  36.584  12.078
26504W        W91764  21.944  18.810   0.171
26505W        W91765  37.497   4.186  14.024
26506W        W91766   5.995  32.911  11.083
26507W        W91767  32.164  22.629  12.027
26508W        W91768   9.344  40.868  14.883
26509W        W91769  31.103  20.236   0.857
26510W        W91770  37.011  10.434  13.875
26511W        W91771  20.727   5.689   5.439
26512W        W91772  15.287  34.586   0.709
26513W        W91773  34.096  29.340   0.846
26514W        W91774  15.916  18.316   0.749
26515W        W91775  42.305  23.239   3.697
26516W        W91776  29.710  37.991   2.375
26517W        W91777  23.692  31.619  10.670
26518W        W91778  35.553  41.456   3.745
26519W        W91779  18.645  26.765   4.503
26520W        W91780  33.502  17.092  13.400
26521W        W91781   1.417  39.050   2.845
26522W        W91782  26.573  20.223   2.622
26523W        W91783  27.709  37.380  11.643
26524W        W91784  44.353   6.704   4.799
26525W        W91785  41.425  20.955   1.749
26526W        W91786  22.855  35.310   4.566
26527W        W91787  18.692  17.543   2.695
26528W        W91788  18.686  42.439   0.937
26529W        W91789   6.767  27.582  10.475
26530W        W91790  39.982  37.839  14.756
26531W        W91791  26.955   1.771   1.232
26532W        W91792  35.984  32.492   0.771
26533W        W91793  41.038   2.501  12.979
26534W        W91794  38.041  38.413   2.142
26535W        W91795  22.483  16.580  14.328
26536W        W91796   9.219  44.332   2.372
26537W        W91797   2.225  44.298   1.513
26538W        W91798  34.398  34.708   2.709
26539W        W91799  12.847  26.110   4.435
26540W        W91800  20.179  12.339   2.206
26541W        W91801  18.497  30.653   2.432
26542W        W91802  42.469   2.468   0.769
26543W        W91803  19.011   0.540  12.021
26544W        W91804  17.172   7.114  13.810
26545W        W91805  13.455  40.784   4.667
26546W        W91806  15.854  34.193  12.451
26547W        W91807   1.967   8.682   2.926
26548W        W91808   6.112  24.567   0.295
26549W        W91809  25.727  31.656  14.350
26550W        W91810   0.737  14.514  10.868
26551W        W91811  17.162  41.503   5.095
26552W        W91812  21.048   4.230   5.593
26553W        W91813  27.224  35.673   2.100
26554W        W91814  32.463  18.655  10.660
26555W        W91815   9.988  43.076  14.422
26556W        W91816  37.812  39.345   2.243
26557W        W91817  40.908  42.775   2.278
26558W        W91818  34.189  43.906  12.045
26559W        W91819  34.947  29.763   9.846
26560W        W91820   0.659   9.408   3.176
26561W        W91821  29.512  39.540  10.592
26562W        W91822   2.418  11.031   3.737
26563W        W91823  41.555  16.616  11.580
26564W        W91824  14.215  42.903  12.117
26565W        W91825  31.079   8.811   4.062
26566W        W91826  25.070  10.651  13.218
26567W        W91827  34.013  13.675   0.685
26568W        W91828   1.926  33.089  11.142
26569W        W91829  23.475  40.564   1.625
26570W        W91830  20.391  15.709   3.338
26571W        W91831  35.557  23.229   2.083
26572W        W91832   0.883  33.597   2.643
26573W        W91833   5.480  18.621   0.466
26574W        W91834  27.127  41.216   1.776
26575W        W91835  13.911   8.253  11.894
26576W        W91836  39.243  44.267  10.775
26577W        W91837   4.451   9.737  13.621
26578W        W91838  14.114  20.208   1.387
26579W        W91839  13.161  32.357   1.334
26580W        W91840  29.814  24.697   4.445
26581W        W91841   2.479  31.033   4.519
26582W        W91842  37.382   0.067  13.880
26583W        W91843  18.302  23.983  13.594
26584W        W91844  41.016  43.007   4.149
26585W        W91845  28.022  15.189  14.012
26586W        W91846  31.082   3.199   2.910
26587W        W91847   9.812  41.479   4.132
26588W        W91848  37.344   6.249   3.221
26589W        W91849   0.897  15.792  10.493
26590W        W91850   6.711   7.178   1.420
26591W        W91851   3.301  33.908   1.027
26592W        W91852   8.364  13.293  11.208
26593W        W91853  28.846   9.666   3.731
26594W        W91854   5.170   4.967  13.532
26595W        W91855   0.152   4.220   0.804
26596W        W91856   5.323  39.144   0.132
26597W        W91857  39.845  32.287  11.121
26598W        W91858  40.715  44.321   4.877
26599W        W91859  14.348  24.077  14.632
26600W        W91860  18.329  44.244  12.903
26601W        W91861  44.938  32.863  14.530
26602W        W91862  19.875  28.869   0.306
26603W        W91863  33.592  32.588  10.640
26604W        W91864   3.840  25.768   9.860
26605W        W91865  23.538   0.445   0.474
26606W        W91866  35.852  31.532   4.909
26607W        W91867   8.433   7.086  11.284
26608W        W91868  19.596   5.240   3.143
26609W        W91869   0.088  33.674   2.911
26610W        W91870  37.918  11.775  12.383
26611W        W91871   6.905  10.359   2.761
26612W        W91872  28.709  19.188  14.027
26613W        W91873  34.023  21.579   0.986
26614W        W91874   2.433  38.800  13.331
26615W        W91875  15.538  21.466   2.056
26616W        W91876  21.014   7.731  12.481
26617W        W91877  32.644  11.166  14.425
26618W        W91878  26.932   9.693  12.464
26619W        W91879  32.198  17.842   2.896
26620W        W91880  40.304  43.333   3.787
26621W        W91881  14.746  27.998   2.778
26622W        W91882  26.066  35.097   4.256
26623W        W91883   9.766  22.862  11.700
26624W        W91884  17.233  29.009  12.100
26625W        W91885  44.342   3.935   0.449
26626W        W91886   2.385   5.367  14.305
26627W        W91887  24.106  29.508  12.556
26628W        W91888  18.159  18.789   1.007
26629W        W91889  14.316  29.175  14.540
26630W        W91890   5.591  21.586  13.311
26631W        W91891   8.777  41.059  11.941
26632W        W91892   0.297  33.990   0.696
26633W        W91893   7.266  36.514  10.742
26634W        W91894  32.531  44.478  11.449
26635W        W91895  31.826   4.176   1.888
26636W        W91896  39.059  43.469   3.638
26637W        W91897  38.855  37.611  10.992
26638W        W91898  35.971  39.341   4.903
26639W        W91899  16.743   8.135  14.846
26640W        W91900  34.590  25.009  14.274
26641W        W91901   2.345  13.133  12.888
26642W        W91902  14.755  18.827   2.120
26643W        W91903  27.290  34.066  11.611
26644W        W91904  14.287  44.620  13.897
26645W        W91905  24.155  27.720   4.585
26646W        W91906   7.375  13.271   0.433
26647W        W91907  44.666  38.519  10.681
26648W        W91908   6.862   0.247  14.876
26649W        W91909  11.888  39.982   3.865
26650W        W91910  43.199  29.550  13.729
26651W        W91911  32.586  11.658  14.331
26652W        W91912  41.990  33.956  11.205
26653W        W91913  13.881  31.366   4.192
26654W        W91914   9.680  12.087   1.415
26655W        W91915  31.318   3.214  10.331
26656W        W91916   1.556  18.798   3.768
26657W        W91917  14.298  32.213   1.506
26658W        W91918  30.603  34.626   1.961
26659W        W91919  38.153   5.456   5.579
26660W        W91920   2.773   5.018   0.727
26661W        W91921   8.511  32.253  12.734
26662W        W91922  43.995  37.989   0.691
26663W        W91923  11.329  26.927  14.328
26664W        W91924  12.750  12.140   3.785
26665W        W91925  41.023  24.008   3.102
26666W        W91926  19.339  12.374   2.172
26667W        W91927  44.234  44.564  11.626
26668W        W91928  32.714   4.750  12.388
26669W        W91929  18.203   7.844   1.516
26670W        W91930  44.574  31.037  14.537
26671W        W91931   3.413  40.350   0.265
26672W        W91932  26.567  37.044  14.992
26673W        W91933  30.438  36.455   2.486
26674W        W91934  26.124   7.185  13.154
26675W        W91935  25.197   7.820   1.251
26676W        W91936  24.086   8.215   0.766
26677W        W91937  21.075  36.727  14.216
26678W        W91938  25.456  13.656   2.010
26679W        W91939  40.777  30.070  12.994
26680W        W91940  12.856  35.501  11.469
26681W        W91941  30.530  26.576   1.056
26682W        W91942  19.136  14.323   0.771
26683W        W91943   0.685  40.408  13.390
26684W        W91944  20.993  39.830  11.509
26685W        W91945   0.899  38.944   2.817
26686W        W91946  42.039  22.655  13.342
26687W        W91947   2.810   0.041   2.148
26688W        W91948  23.793  10.973   0.593
26689W        W91949   1.158   9.187   0.689
26690W        W91950  43.043   8.845  10.581
26691W        W91951  29.140  25.712  14.150
26692W        W91952  29.146  14.445  12.634
26693W        W91953  35.990  44.746   2.840
26694W        W91954  29.596  36.343  10.761
26695W        W91955  30.496  18.499  14.902
26696W        W91956  36.069  17.493  13.770
26697W        W91957  14.139  41.431   2.304
26698W        W91958  10.878  30.854   0.965
26699W        W91959   8.888  32.152   2.238
26700W        W91960  26.980  33.397   1.416
26701W        W91961  19.568  14.072   0.945
26702W        W91962  18.727  33.864   3.308
26703W        W91963   3.456  40.360  13.053
26704W        W91964  14.368  36.027   1.427
26705W        W91965  30.504  31.188  14.012
26706W        W91966  23.453  23.120   3.266
26707W        W91967   8.743   0.248   3.121
26708W        W91968  34.456  17.344   2.415
26709W        W91969  27.608  25.226  12.973
26710W        W91970  44.424   2.947   3.733
26711W        W91971   6.143  20.954  10.699
26712W        W91972   8.917   1.476  12.115
26713W        W91973   8.245  36.107  14.276
26714W        W91974  34.355   5.668   1.788
26715W        W91975  22.001  22.612  13.415
26716W        W91976  25.001  44.794  11.130
26717W        W91977   3.609   3.830  14.052
26718W        W91978  36.766  25.530   0.858
26719W        W91979  24.461  23.193  12.201
26720W        W91980  24.693  16.236  12.073
26721W        W91981  10.596  44.985  12.014
26722W        W91982  43.711  24.674  10.533
26723W        W91983  25.468  18.205   0.873
26724W        W91984   0.332  19.290  12.188
26725W        W91985  10.330   9.884  14.341
26726W        W91986   8.998  30.415  12.407
26727W        W91987  24.773  19.754  14.012
26728W        W91988  41.050  24.392  13.558
26729W        W91989  23.586  12.193  14.708
26730W        W91990   1.819   7.216  14.557
26731W        W91991  37.734  26.058  13.474
26732W        W91992   6.921  17.567   1.395
26733W        W91993  14.511  15.201  10.995
26734W        W91994  39.291  36.917  13.191
26735W        W91995  40.794  28.760   3.444
26736W        W91996   5.340  22.577   2.627
26737W        W91997  38.776  29.093  12.951
26738W        W91998  19.838   0.763   4.050
26739W        W91999  32.069  43.700  11.583
26740W        W92000   1.969   1.230  14.616
26741W        W92001  35.368   1.984   2.630
26742W        W92002   4.984  12.008   4.316
26743W        W92003  10.828  10.277  13.045
26744W        W92004  19.099  32.054   1.444
26745W        W92005  23.249  17.176  11.470
26746W        W92006  32.394  30.380   3.678
26747W        W92007  27.157  40.039  12.370
26748W        W92008  13.801  42.876  13.008
26749W        W92009   4.607  34.530   4.908
26750W        W92010   0.391  11.886   0.970
26751W        W92011  28.723  24.984   0.762
26752W        W92012   8.116  28.169  13.461
26753W        W92013  30.549  11.596  10.682
26754W        W92014   5.658  21.701   2.936
26755W        W92015   3.749  39.511  14.929
26756W        W92016   2.822  17.832   4.298
26757W        W92017  16.859  31.059   1.876
26758W        W92018  21.093  24.191  13.271
26759W        W92019  17.655   8.448  11.009
26760W        W92020  18.128   1.754   3.635
26761W        W92021   0.466  21.502  13.376
26762W        W92022   4.421   5.091  10.743
26763W        W92023  12.807  23.072   4.671
26764W        W92024  37.112  25.097   1.798
26765W        W92025  35.927  13.935   4.840
26766W        W92026  32.403   5.656   1.816
26767W        W92027  20.692  14.440  11.658
26768W        W92028   3.425   3.039  11.472
26769W        W92029   0.866  23.504  13.651
26770W        W92030   3.349  34.159   0.321
26771W        W92031  42.745  28.602   2.327
26772W        W92032   2.148  32.415   3.800
26773W        W92033  44.337  20.409  11.462
26774W        W92034  14.846  44.375  12.647
26775W        W92035  18.737   8.349  13.384
26776W        W92036  20.194   5.571  10.022
26777W        W92037   6.065  34.583   0.682
26778W        W92038   8.475   3.709   3.237
26779W        W92039   7.419  12.775   4.453
26780W        W92040  13.169   2.167   1.861
26781W        W92041  43.831   2.841   1.025
26782W        W92042   4.823  26.623  11.496
26783W        W92043  10.638   3.288  12.554
26784W        W92044  26.933  44.502   0.971
26785W        W92045   7.877  29.527  12.426
26786W        W92046  17.503  28.038  13.497
26787W        W92047  25.034  17.473   4.921
26788W        W92048  23.575   2.500   5.529
26789W        W92049  27.464   0.838   1.568
26790W        W92050   2.149  22.401  12.384
26791W        W92051  30.031  37.338   1.714
26792W        W92052  18.856  44.416  10.509
26793W        W92053   5.898  34.831  13.326
26794W        W92054  38.382  42.427   1.723
26795W        W92055  19.123  31.588  14.237
26796W        W92056   0.092  24.549  11.130
26797W        W92057   7.601  10.916  10.998
26798W        W92058  33.538  34.378   3.669
26799W        W92059   2.764  32.015  12.254
26800W        W92060   1.954  28.726   4.105
26801W        W92061   7.798  33.102   0.372
26802W        W92062  10.256  28.850   3.568
26803W        W92063  13.760   1.186   2.134
26804W        W92064  23.763   9.756   2.911
26805W        W92065  12.270  26.244  12.049
26806W        W92066  19.551  17.793   0.986
26807W        W92067  17.236  18.118  12.987
26808W        W92068  28.642  36.679  14.363
26809W        W92069  39.460  26.766   4.864
26810W        W92070  35.565  19.227   0.617
26811W        W92071   8.697  24.663  11.638
26812W        W92072  41.593  34.323  13.531
26813W        W92073   6.616  12.432   1.522
26814W        W92074   5.164  12.745  11.870
26815W        W92075  41.646  18.090   4.024
26816W        W92076  40.553  11.111  11.582
26817W        W92077   1.460  40.558   2.638
26818W        W92078   0.770  43.710  13.105
26819W        W92079  36.478  12.634  13.964
26820W        W92080   4.312   6.499  12.372
26821W        W92081  41.356  16.853  11.162
26822W        W92082  30.112   5.760  13.554
26823W        W92083  36.959   8.092  13.165
26824W        W92084  42.776  26.038  13.421
26825W        W92085  21.241   8.401  14.468
26826W        W92086  42.231   0.875  12.995
26827W        W92087  28.359  21.868  10.160
26828W        W92088  11.812  28.718  11.091
26829W        W92089   8.445  38.380   1.797
26830W        W92090   5.374  25.424   1.754
26831W        W92091  44.250   6.323  12.489
26832W        W92092  40.171  38.032  14.313
26833W        W92093  29.654  17.534  13.562
26834W        W92094  22.834  28.207  11.597
26835W        W92095  20.766  30.600  12.983
26836W        W92096  19.583  15.741  11.078
26837W        W92097  35.415  41.532  12.539
26838W        W92098   7.834  32.208   3.144
26839W        W92099  13.176  34.855  12.622
26840W        W92100  30.207  29.087   1.392
26841W        W92101  21.802   4.136  12.484
26842W        W92102  39.890   3.316  13.462
26843W        W92103  10.974  32.640   2.831
26844W        W92104  40.544  29.641  12.776
26845W        W92105  43.303  16.979  11.555
26846W        W92106   6.514  44.517  12.494
26847W        W92107   8.382  36.043   4.655
26848W        W92108  26.214  40.807   4.555
26849W        W92109   8.434  31.325   0.769
26850W        W92110  18.583  26.606   1.793
26851W        W92111  12.291   6.309   3.097
26852W        W92112  29.073   1.019  14.952
26853W        W92113  12.206  43.560  12.330
26854W        W92114  29.269  35.914  10.400
26855W        W92115   4.797  24.504  10.722
26856W        W92116  28.504   1.299  12.932
26857W        W92117  36.978  40.581  14.689
26858W        W92118  34.431  33.473  14.783
26859W        W92119  37.517  22.307   2.761
26860W        W92120  30.085  40.900   1.927
26861W        W92121   5.489   0.995   4.456
26862W        W92122   1.252  44.755  11.531
26863W        W92123  29.137   1.516  12.416
26864W        W92124   9.312  36.463   4.789
26865W        W92125  16.831   8.853  12.874
26866W        W92126  14.982   2.354   2.115
26867W        W92127  12.686  14.481   1.954
26868W        W92128   4.797   8.482  13.415
26869W        W92129  12.132  16.101  11.593
26870W        W92130  41.835  31.881   4.159
26871W        W92131  13.122  21.378  13.105
26872W        W92132  20.330  18.897  14.248
26873W        W92133   9.952   6.621   3.555
26874W        W92134  30.957   0.781   3.245
26875W        W92135  42.863  39.808   0.384
26876W        W92136  14.274  13.241  12.590
26877W        W92137  38.323  24.724  12.974
26878W        W92138  14.531  44.963   4.692
26879W        W92139  28.666  21.966   1.224
26880W        W92140  36.484   0.981   2.314
26881W        W92141   6.217  35.836  13.262
26882W        W92142  36.953  22.525  14.618
26883W        W92143  36.196  43.273  11.091
26884W        W92144   2.221  37.571  14.986
26885W        W92145  37.205  35.531  14.313
26886W        W92146  40.774  37.843   3.698
26887W        W92147   9.554   3.784   0.293
26888W        W92148  43.235   5.695   2.391
26889W        W92149  33.083  13.339  11.404
26890W        W92150  20.570   2.101   4.112
26891W        W92151   0.661   4.695  10.557
26892W        W92152  24.936  26.807  13.146
26893W        W92153   2.625   5.261  12.721
26894W        W92154  15.546  19.491  11.881
26895W        W92155  34.606  31.934   3.151
26896W        W92156   5.325  39.833  13.029
26897W        W92157  23.162  23.028  11.518
26898W        W92158  13.741  27.111   3.459
26899W        W92159  39.212  27.777   1.310
26900W        W92160  30.685  34.340   3.301
26901W        W92161  40.969  29.930  12.537
26902W        W92162  34.802  27.122  12.947
26903W        W92163  16.999  17.753   0.032
26904W        W92164  14.186   5.289   2.750
26905W        W92165  16.780   1.498   0.993
26906W        W92166   5.197  21.112  12.881
26907W        W92167  17.351  38.511  13.575
26908W        W92168  26.444  10.166   1.818
26909W        W92169  27.358  38.751  13.418
26910W        W92170   6.732  41.015  14.701
26911W        W92171  35.475  35.591  13.334
26912W        W92172  25.600  44.351   3.913
26913W        W92173  24.213  21.253  11.115
26914W        W92174  36.940   6.719   1.277
26915W        W92175  18.948  23.664  11.879
26916W        W92176  44.490  40.566  12.862
26917W        W92177  39.347  22.714   3.294
26918W        W92178  23.932  23.700   2.208
26919W        W92179  15.931   6.677   1.837
26920W        W92180   4.387  35.402  14.280
26921W        W92181  17.542   0.735  10.230
26922W        W92182  13.085  32.193   3.145
26923W        W92183  19.299  12.857  13.394
26924W        W92184  10.239  33.344  12.587
26925W        W92185  12.815  31.988   2.736
26926W        W92186  24.705  15.770   5.071
26927W        W92187  41.734  27.993  11.148
26928W        W92188   1.777  15.866  13.524
26929W        W92189  29.424   2.450  10.809
26930W        W92190  30.385  24.481  10.724
26931W        W92191  41.421  25.119   0.401
26932W        W92192  29.877  16.008   0.140
26933W        W92193   5.793  21.415  12.035
26934W        W92194  13.811  24.047   1.876
26935W        W92195  34.168  14.824   2.304
26936W        W92196  13.722  16.819   0.436
26937W        W92197  27.013   7.614   2.238
26938W        W92198  15.110  13.099   3.051
26939W        W92199   8.636  34.819  12.902
26940W        W92200  35.886  34.735  14.773
26941W        W92201  13.851   9.234   0.858
26942W        W92202   5.910  17.754   2.278
26943W        W92203  35.409  35.160  12.336
26944W        W92204   3.798  17.531   4.815
26945W        W92205   4.938  18.022  11.114
26946W        W92206  12.808   1.722   0.964
26947W        W92207  31.319  18.929   2.874
26948W        W92208  39.817  35.834   4.899
26949W        W92209  13.637  24.154   3.208
26950W        W92210   3.907  32.975   3.344
26951W        W92211  14.410   2.030  11.697
26952W        W92212   2.783  23.150   4.188
26953W        W92213  28.074  37.501  13.422
26954W        W92214  32.285  20.534   0.291
26955W        W92215  36.488  21.753  14.369
26956W        W92216  41.467   5.893   2.654
26957W        W92217  27.657   6.360   3.255
26958W        W92218  44.890   8.263   3.905
26959W        W92219  20.993  39.797   3.866
26960W        W92220  42.083   9.045  14.059
26961W        W92221   9.567   1.436   3.574
26962W        W92222  29.532  42.085   2.910
26963W        W92223  39.447  38.024  10.908
26964W        W92224  10.864  11.302  14.547
26965W        W92225  20.069  27.539   4.203
26966W        W92226   1.073  43.287   4.935
26967W        W92227  33.428  35.346  10.747
26968W        W92228  33.523  17.295  12.939
26969W        W92229  44.905   0.984  13.549
26970W        W92230   9.973  37.303  10.167
26971W        W92231  31.373  39.895  12.365
26972W        W92232   0.830  30.394  10.711
26973W        W92233   3.169  28.693  12.537
26974W        W92234  22.754  11.475   3.746
26975W        W92235  18.158  22.413  11.072
26976W        W92236  31.510   2.238   0.250
26977W        W92237  42.728   0.711  14.898
26978W        W92238  36.564  10.121  12.276
26979W        W92239  11.651  43.969  13.101
26980W        W92240  36.412   8.678  10.554
26981W        W92241  29.155  19.184  14.311
26982W        W92242  27.370  22.345  12.773
26983W        W92243   6.192   3.260  11.539
26984W        W92244  30.354  44.796  11.879
26985W        W92245  24.880  23.295  13.071
26986W        W92246  19.755  27.124   4.213
26987W        W92247  23.475  10.846   1.349
26988W        W92248  32.165  10.633   2.243
26989W        W92249  37.319  30.028   2.245
26990W        W92250  12.112  13.237   0.712
26991W        W92251   4.875  41.541   4.565
26992W        W92252  23.670  26.977  13.993
26993W        W92253   9.798  27.480   1.374
26994W        W92254  28.715  24.218  13.457
26995W        W92255   1.279  12.753   3.488
26996W        W92256  36.471  17.290  14.037
26997W        W92257  15.272   8.797   0.776
26998W        W92258  33.610   8.744  12.005
26999W        W92259  16.686  44.012  14.732
27000W        W92260  34.930  13.171   4.536
27001W        W92261  44.723  28.141   2.882
27002W        W92262  11.681  26.641   0.470
27003W        W92263   4.461  11.008  12.431
27004W        W92264  16.837  24.171   0.893
27005W        W92265   2.993  20.252  11.105
27006W        W92266  24.565  27.525   1.410
27007W        W92267  39.733  30.084  13.066
27008W        W92268  25.639  41.425  14.286
27009W        W92269  14.895  33.110   0.275
27010W        W92270  42.661  27.738   3.787
27011W        W92271  36.125  14.092   1.149
27012W        W92272  28.949  16.935   0.748
27013W        W92273  21.699  11.197   3.155
27014W        W92274   9.934  40.225   1.885
27015W        W92275  10.320  19.263  13.179
27016W        W92276  23.620  42.358   4.898
27017W        W92277  30.579  30.546   4.556
27018W        W92278  36.621  16.090   1.895
27019W        W92279  16.336   7.460   3.494
27020W        W92280  29.021  21.403   4.710
27021W        W92281  33.621  11.190  14.491
27022W        W92282  13.788  30.898  13.908
27023W        W92283  21.103  37.336   1.680
27024W        W92284  12.920  14.172  11.077
27025W        W92285  42.730   2.016  12.212
27026W        W92286  29.588  42.432  11.467
27027W        W92287  14.107  14.969   0.376
27028W        W92288  12.839  20.931   2.115
27029W        W92289  22.145  17.196   2.742
27030W        W92290  16.686  35.379  11.643
27031W        W92291  39.117  34.845  14.385
27032W        W92292  26.852  15.508   0.916
27033W        W92293  31.190  23.467  13.925
27034W        W92294  26.453   6.783   2.870
27035W        W92295  19.117  16.226  12.066
27036W        W92296   5.410  42.361  10.833
27037W        W92297  13.676   9.156   2.867
27038W        W92298  42.341  28.543   3.199
27039W        W92299   9.662  14.199   1.938
27040W        W92300  29.100  44.830  11.514
27041W        W92301   2.024  34.295  10.679
27042W        W92302   4.437  32.378   3.184
27043W        W92303  26.193  19.949   1.873
27044W        W92304  10.792  19.694   0.017
27045W        W92305  43.068   4.967   0.531
27046W        W92306  12.289   4.257  13.515
27047W        W92307  13.667  14.607   2.758
27048W        W92308  30.081  19.513  11.149
27049W        W92309  32.915  11.788  14.799
27050W        W92310  43.863  30.401  11.722
27051W        W92311  22.137  30.380  14.876
27052W        W92312  30.599  38.222   2.768
27053W        W92313   5.722  25.529   0.258
27054W        W92314  30.018  18.286   1.035
27055W        W92315  35.115  30.752  14.429
27056W        W92316  15.686   0.030   3.470
27057W        W92317  31.211   2.415  13.846
27058W        W92318   4.077   3.964   3.394
27059W        W92319  33.613  12.172   3.660
27060W        W92320  16.724   2.303  12.268
27061W        W92321   9.345   9.511  11.102
27062W        W92322  17.827  37.407  13.396
27063W        W92323  28.909  27.010  12.521
27064W        W92324  41.424   0.760  12.287
27065W        W92325   6.252  32.879  11.544
27066W        W92326  10.905   9.229  12.874
27067W        W92327   4.611  34.094   4.602
27068W        W92328  17.849  28.824   2.247
27069W        W92329  24.696  21.656   4.103
27070W        W92330   2.472  16.857   3.198
27071W        W92331  15.091  12.181   4.748
27072W        W92332  22.080  40.749   4.012
27073W        W92333  42.827  33.972  12.161
27074W        W92334  21.492  33.104   0.363
27075W        W92335  17.931   5.131   1.370
27076W        W92336   4.654  13.006   4.750
27077W        W92337  39.027   2.905   1.446
27078W        W92338  33.212  29.198  10.662
27079W        W92339   6.436   5.846  13.007
27080W        W92340  14.732  24.168  14.324
27081W        W92341  16.725   5.184   1.974
27082W        W92342  37.301  38.767  12.369
27083W        W92343  11.165  43.298   3.696
27084W        W92344  11.694   3.261   2.674
27085W        W92345  31.433  12.843   2.218
27086W        W92346  12.761  18.278  11.904
27087W        W92347   5.890   3.608   0.712
27088W        W92348   3.335  22.458  11.110
27089W        W92349  36.301  10.094   4.139
27090W        W92350  24.602  39.342   4.971
27091W        W92351  20.303   3.449  13.953
27092W        W92352  40.274  24.446   3.688
27093W        W92353  44.301  35.631  14.830
27094W        W92354  30.316  14.231   0.276
27095W        W92355  31.421  13.197   2.590
27096W        W92356  43.510  20.193   4.846
27097W        W92357   1.300  20.885  13.559
27098W        W92358  14.637  24.117   2.369
27099W        W92359  15.050  29.106   4.635
27100W        W92360  16.421  22.521   3.082
27101W        W92361   9.567   1.815  12.513
27102W        W92362  22.048  43.457   2.832
27103W        W92363  37.806  42.661   5.169
27104W        W92364  28.194  36.947  10.536
27105W        W92365  10.741  37.058   2.744
27106W        W92366  10.129  37.376   1.242
27107W        W92367   9.935  21.219   2.012
27108W        W92368  16.497  17.519  13.116
27109W        W92369   1.615   3.951   3.543
27110W        W92370  12.507  31.193  10.942
27111W        W92371  17.811  23.770   3.665
27112W        W92372  18.357  33.995  14.983
27113W        W92373  12.108  25.763  11.922
27114W        W92374   1.118   5.315   2.611
27115W        W92375  14.130   3.947  10.742
27116W        W92376  27.763  13.672   0.972
27117W        W92377   6.717   8.711   4.723
27118W        W92378  20.789  30.999   0.974
27119W        W92379  41.630  18.690  14.515
27120W        W92380  20.175  30.630  14.772
27121W        W92381   7.762   9.631   0.779
27122W        W92382   5.168  11.624   1.094
27123W        W92383  23.607  12.745   2.714
27124W        W92384  36.419   2.346   2.721
27125W        W92385  17.116   6.420   1.077
27126W        W92386  43.477  19.218   0.977
27127W        W92387  21.563  33.425  10.685
27128W        W92388  25.134  44.919  12.433
27129W        W92389  16.291  27.577  12.975
27130W        W92390  17.075   9.959  13.902
27131W        W92391  23.888  11.564  11.573
27132W        W92392  12.430  11.338   2.462
27133W        W92393  26.301  21.671  11.725
27134W        W92394  33.633  16.786  12.963
27135W        W92395  23.552  36.881   5.603
27136W        W92396  38.469  40.282   4.570
27137W        W92397  41.441   8.210   3.431
27138W        W92398   5.885   3.629  10.462
27139W        W92399  13.569  21.079  12.663
27140W        W92400  16.563  33.173   1.742
27141W        W92401  23.317   2.601   1.661
27142W        W92402  20.365   2.197  13.330
27143W        W92403   0.522  33.376  14.410
27144W        W92404  32.871  21.097   4.946
27145W        W92405   6.840  43.291  11.589
27146W        W92406  42.755  26.682   0.259
27147W        W92407  18.465   8.199  12.943
27148W        W92408  36.465  26.210  13.938
27149W        W92409  20.784   7.041   0.263
27150W        W92410   1.857   0.020   1.350
27151W        W92411  30.303  17.750   1.478
27152W        W92412   9.912   4.938   2.704
27153W        W92413  11.163  40.968   2.735
27154W        W92414  22.169   7.296  13.511
27155W        W92415  39.534  39.776  13.493
27156W        W92416  10.097  25.087  14.974
27157W        W92417   7.999  28.987   3.340
27158W        W92418  41.300  12.183  12.521
27159W        W92419  42.154  15.598   3.697
27160W        W92420  33.626  38.977   3.248
27161W        W92421  15.653  30.577  11.429
27162W        W92422  22.705  39.514  13.459
27163W        W92423  24.049  30.002  10.720
27164W        W92424  28.392  24.132  11.210
27165W        W92425  19.160  24.181   1.209
27166W        W92426  32.663  22.090   0.790
27167W        W92427  19.281   3.027   4.186
27168W        W92428  29.058  21.520   1.468
27169W        W92429   7.921  14.224   2.299
27170W        W92430  11.353   1.825   4.182
27171W        W92431  43.246  27.492  14.887
27172W        W92432  41.524  15.627   1.534
27173W        W92433  38.608  28.067  11.992
27174W        W92434  12.652  16.586   0.804
27175W        W92435  29.046  29.008   4.436
27176W        W92436   1.939  24.466   2.389
27177W        W92437  44.951   7.727  11.559
27178W        W92438  25.571   0.486  14.387
27179W        W92439  18.637   9.582  13.070
27180W        W92440  43.035  30.241  11.910
27181W        W92441  24.166  10.739   2.001
27182W        W92442  14.299   7.833   4.620
27183W        W92443  27.615  18.195   1.425
27184W        W92444  39.371  21.719  11.218
27185W        W92445  20.678  38.577  12.636
27186W        W92446  34.389  21.687  12.668
27187W        W92447   8.144  24.118   1.821
27188W        W92448  37.554  39.822   0.268
27189W        W92449  42.798  30.616   0.591
27190W        W92450  24.997  16.721   5.376
27191W        W92451  43.598   6.355  11.474
27192W        W92452  33.065  12.040   0.840
27193W        W92453  24.265   2.301  10.650
27194W        W92454  39.445  11.844   0.812
27195W        W92455  11.756  28.202  13.262
27196W        W92456  12.804  30.018   3.617
27197W        W92457  38.814  14.731   2.833
27198W        W92458  29.702   5.736  10.593
27199W        W92459  13.833   6.219   3.737
27200W        W92460  31.460  43.571   0.830
27201W        W92461  12.576  27.703  14.527
27202W        W92462  27.243  30.295   4.051
27203W        W92463  40.520   8.821  12.091
27204W        W92464   2.258  31.996  12.216
27205W        W92465  17.887  21.026  13.994
27206W        W92466  43.948  19.479  13.840
27207W        W92467  43.434  43.227   4.719
27208W        W92468  13.123  26.129  13.506
27209W        W92469  29.412  42.314  14.696
27210W        W92470   3.889   7.951   1.206
27211W        W92471  14.553   2.196   4.244
27212W        W92472  38.248  17.326  11.471
27213W        W92473  17.770  32.694   2.711
27214W        W92474   9.089  29.112   2.660
27215W        W92475  34.400  22.120  12.938
27216W        W92476  35.995  20.275   3.181
27217W        W92477   4.351  39.932  12.807
27218W        W92478   8.517  42.721   4.163
27219W        W92479  26.089  12.287  12.454
27220W        W92480  19.514   8.383   2.809
27221W        W92481   3.824   2.314   3.888
27222W        W92482  29.510  32.856   1.805
27223W        W92483  41.917  10.317   0.750
27224W        W92484   4.418  23.199   3.190
27225W        W92485  24.146   3.381   3.601
27226W        W92486  20.625  23.123   4.265
27227W        W92487  38.540  21.040  10.586
27228W        W92488  28.084  17.730   9.614
27229W        W92489   5.438   6.410   3.556
27230W        W92490  37.904  14.235   2.580
27231W        W92491  41.737  22.433   3.722
27232W        W92492  32.573  15.666   0.348
27233W        W92493  44.292   0.076  10.561
27234W        W92494   2.969  39.147  12.072
27235W        W92495   9.750  28.617  10.504
27236W        W92496  29.582  42.308  10.962
27237W        W92497  30.008   5.449  13.032
27238W        W92498   6.841  27.074  14.094
27239W        W92499  18.744  23.842   1.324
27240W        W92500  23.882   7.145  10.313
27241W        W92501  34.459  25.511   1.890
27242W        W92502   6.847  26.317  13.569
27243W        W92503  43.752  24.529   1.195
27244W        W92504  24.467   4.462   0.315
27245W        W92505  41.134   8.728  11.579
27246W        W92506  32.670  12.729   0.223
27247W        W92507  44.936  24.609   0.009
27248W        W92508  44.712  29.463  10.443
27249W        W92509   1.106  33.334  10.499
27250W        W92510   7.322  30.537  12.970
27251W        W92511  36.105  37.484   4.227
27252W        W92512  36.599   4.982  14.059
27253W        W92513  44.926  15.365   4.086
27254W        W92514  31.616  38.779   0.604
27255W        W92515  25.719  18.267  13.937
27256W        W92516  23.346  15.517  14.356
27257W        W92517  25.194  44.696   2.327
27258W        W92518  29.857  39.566  13.809
27259W        W92519   1.901  18.233   3.180
27260W        W92520  31.911  22.547   0.909
27261W        W92521  41.998  42.177   4.272
27262W        W92522  26.796   7.689  14.120
27263W        W92523   5.809   0.818   0.387
27264W        W92524  21.011  35.201  10.747
27265W        W92525  29.739  34.080   0.692
27266W        W92526   2.185  22.287   2.635
27267W        W92527  37.922  26.778   2.690
27268W        W92528  40.348  15.178   1.718
27269W        W92529   5.204  44.176  13.438
27270W        W92530   9.802  41.642   1.420
27271W        W92531  19.212  14.257   1.288
27272W        W92532  24.914   1.344  14.333
27273W        W92533  21.767   6.426   1.540
27274W        W92534  41.479  33.464  13.661
27275W        W92535   2.221  17.015   0.280
27276W        W92536  14.706  37.063   2.720
27277W        W92537  23.107  43.752   0.276
27278W        W92538  25.453  41.912   0.541
27279W        W92539  33.348  33.678   0.717
27280W        W92540  22.466  40.512   3.226
27281W        W92541  41.857  26.132   2.611
27282W        W92542   4.508  15.674   5.284
27283W        W92543  11.252  10.002  12.969
27284W        W92544  26.719   4.714   9.867
27285W        W92545  22.015  33.736   9.813
27286W        W92546  21.517  17.157   1.672
27287W        W92547  13.786  22.966   2.656
27288W        W92548  25.886  44.576   3.141
27289W        W92549  41.430   4.793  13.787
27290W        W92550  34.032  39.520  14.707
27291W        W92551  12.727  11.650   4.788
27292W        W92552  30.110  43.004  13.948
27293W        W92553  43.960   0.056   4.878
27294W        W92554  23.265  20.989   2.980
27295W        W92555  20.465  25.817   4.779
27296W        W92556  28.634   9.724  13.243
27297W        W92557  24.306  16.222   0.232
27298W        W92558  43.212  21.774  11.037
27299W        W92559  24.351  41.780  13.525
27300W        W92560  29.818  36.514  11.194
27301W        W92561   9.064  13.807   3.351
27302W        W92562  22.149  41.802  12.887
27303W        W92563  36.431  43.224   3.595
27304W        W92564   8.920  43.665   3.883
27305W        W92565  38.912  13.297  11.313
27306W        W92566  30.068  38.019   4.730
27307W        W92567   1.659   1.899  13.845
27308W        W92568  32.674  13.395  11.086
27309W        W92569   7.959  30.442   0.461
27310W        W92570  24.814  19.098   2.258
27311W        W92571  30.022  12.279  13.192
27312W        W92572  14.557  33.983   0.699
27313W        W92573  38.536  29.983  14.312
27314W        W92574   6.183  27.090   3.751
27315W        W92575  40.942  14.697   2.161
27316W        W92576   3.763  41.319  12.566
27317W        W92577   2.293  22.675  11.913
27318W        W92578  21.260   6.747  14.989
27319W        W92579  15.318  32.488   0.350
27320W        W92580  43.461  26.100   3.780
27321W        W92581   4.868  34.933   0.304
27322W        W92582  19.032  37.910   2.440
27323W        W92583  33.069  43.113  11.628
27324W        W92584  32.140  13.475   4.566
27325W        W92585  18.228  30.521  12.548
27326W        W92586  44.785  40.910   4.578
27327W        W92587  44.348   3.708  14.109
27328W        W92588  24.442  33.390  13.050
27329W        W92589  10.682  14.612  10.434
27330W        W92590  22.538   2.742   3.011
27331W        W92591  43.751  32.509   0.726
27332W        W92592  11.608   7.141   0.358
27333W        W92593  24.354  26.660   2.405
27334W        W92594   2.507   6.888   1.153
27335W        W92595  27.995  42.965   1.774
27336W        W92596  39.056   1.754   1.860
27337W        W92597  28.934  39.479   0.356
27338W        W92598  30.341  37.072  13.704
27339W        W92599  37.033  40.038   3.168
27340W        W92600  31.083  19.847   5.079
27341W        W92601  32.134   8.287  13.418
27342W        W92602   5.429  35.507  12.728
27343W        W92603  39.559  12.305   0.549
27344W        W92604  24.426  10.458   0.862
27345W        W92605  25.081   7.270   0.527
27346W        W92606  11.682  17.805   4.095
27347W        W92607  30.933  36.099  11.615
27348W        W92608  27.811   7.260   1.402
27349W        W92609  18.094  23.629   0.726
27350W        W92610  15.329  33.601   2.655
27351W        W92611  21.752  41.849   1.343
27352W        W92612  30.950   4.105  10.716
27353W        W92613  35.329   4.688  11.975
27354W        W92614  21.392  26.729   3.778
27355W        W92615   9.450  31.148  11.102
27356W        W92616  34.385  40.784   0.529
27357W        W92617  21.302  11.757  12.566
27358W        W92618  13.721  20.498  10.599
27359W        W92619   1.788  33.987   3.934
27360W        W92620  32.117  22.419  13.340
27361W        W92621   4.711  21.300   1.414
27362W        W92622  43.075   3.263   1.277
27363W        W92623  40.938  22.579  10.927
27364W        W92624   9.724   3.280  12.699
27365W        W92625   8.285  25.572  13.112
27366W        W92626  31.030   8.812  11.646
27367W        W92627  17.634  31.681  13.438
27368W        W92628  20.373  20.694  10.926
27369W        W92629  21.256  39.468   5.077
27370W        W92630  28.511  43.315  14.008
27371W        W92631  26.008  28.133   1.358
27372W        W92632  34.502  35.896  14.555
27373W        W92633  18.801  32.419   1.955
27374W        W92634  13.618  42.139   4.705
27375W        W92635  24.044  33.470  12.025
27376W        W92636   0.744  34.140   0.914
27377W        W92637  13.510  33.389   3.815
27378W        W92638  38.118  20.882  13.497
27379W        W92639  31.153  39.746  11.522
27380W        W92640   8.663  17.793   3.817
27381W        W92641   2.942  41.315   3.938
27382W        W92642  36.018   9.196   4.098
27383W        W92643   9.698  38.896  10.595
27384W        W92644   6.230   7.263  13.830
27385W        W92645  30.419  16.931  13.101
27386W        W92646   6.587  21.824  11.999
27387W        W92647   1.759  13.382  10.524
27388W        W92648  44.007  35.995   2.847
27389W        W92649  20.005  43.523   4.805
27390W        W92650   4.382  30.212  14.828
27391W        W92651  23.034  41.416  12.570
27392W        W92652  38.590  24.998  14.171
27393W        W92653  27.092  28.968   3.637
27394W        W92654  12.199   4.647   1.797
27395W        W92655  35.396   3.325   3.916
27396W        W92656  30.653  11.144  14.472
27397W        W92657   9.689  23.267   4.125
27398W        W92658  27.226  38.843   2.675
27399W        W92659  40.115  13.782   0.402
27400W        W92660  14.684  16.574   1.716
27401W        W92661  11.111  20.124  13.515
27402W        W92662  13.485  13.788   1.211
27403W        W92663  13.388   5.530  12.232
27404W        W92664  25.617  20.579   4.990
27405W        W92665  16.094  22.979   1.320
27406W        W92666  26.927  26.205  11.589
27407W        W92667  34.922  18.762  10.952
27408W        W92668  42.466  41.217  13.465
27409W        W92669  36.550   3.225  11.348
27410W        W92670  41.206  24.093   2.395
27411W        W92671   7.556  14.410   0.997
27412W        W92672  43.977   9.210  10.735
27413W        W92673  27.230  16.708  10.917
27414W        W92674  38.313  19.533  13.470
27415W        W92675  20.040  26.376   3.628
27416W        W92676   0.727  34.026  14.468
27417W        W92677  27.551   4.752  10.790
27418W        W92678   8.769   2.044   1.682
27419W        W92679  14.088  13.744   4.242
27420W        W92680  31.990  43.825  10.743
27421W        W92681  31.176  37.477   2.833
27422W        W92682  29.701  21.777   3.759
27423W        W92683  24.431  18.012  13.465
27424W        W92684   9.845  18.346  10.666
27425W        W92685  33.323  32.966  11.480
27426W        W92686  42.333  38.770  11.931
27427W        W92687  30.829  20.638   4.457
27428W        W92688  38.644   7.290  13.016
27429W        W92689  20.235   7.705  13.856
27430W        W92690  44.479  44.345  14.996
27431W        W92691  39.950   9.086   0.922
27432W        W92692  36.346  12.579  11.012
27433W        W92693   0.887  37.882  14.447
27434W        W92694  13.305   0.712  11.564
27435W        W92695  41.046  32.938  14.474
27436W        W92696  29.243  20.037   3.139
27437W        W92697  30.528   3.459  12.060
27438W        W92698  28.462  41.483  10.452
27439W        W92699   7.871  21.088   4.487
27440W        W92700  40.561  30.751  11.504
27441W        W92701  35.569  41.670  14.393
27442W        W92702  21.024   9.627   3.482
27443W        W92703   3.561  14.597  14.964
27444W        W92704   0.791  44.759   4.423
27445W        W92705  11.336  34.500   4.418
27446W        W92706  27.141  37.093   2.172
27447W        W92707  23.390  14.679  12.010
27448W        W92708  12.148   5.241   2.651
27449W        W92709   4.722  37.881  12.691
27450W        W92710   8.135   5.008  10.733
27451W        W92711   7.261  16.831   4.575
27452W        W92712  11.511  43.194   3.307
27453W        W92713   4.423   5.782  12.997
27454W        W92714  32.856  19.196   3.290
27455W        W92715  10.460   0.908   0.855
27456W        W92716  14.245  31.118   4.613
27457W        W92717  11.383  28.136   1.847
27458W        W92718  31.599  19.259   0.271
27459W        W92719   4.712  35.950   2.214
27460W        W92720  40.366  36.314   0.354
27461W        W92721   8.238  29.849  12.009
27462W        W92722  22.014   0.946  12.447
27463W        W92723  37.532  29.667  12.922
27464W        W92724  27.258  40.735  13.439
27465W        W92725  38.389  41.406   3.628
27466W        W92726  10.885  34.993   0.980
27467W        W92727   0.460  11.378   0.829
27468W        W92728   9.799  35.403  10.627
27469W        W92729  42.978   3.332  10.831
27470W        W92730  43.888  25.644   1.016
27471W        W92731   7.554  39.890   4.545
27472W        W92732  42.934  19.285  11.772
27473W        W92733  11.222   5.215  12.312
27474W        W92734   4.951  10.406   0.439
27475W        W92735   0.803  21.128  12.624
27476W        W92736   0.246  15.439  12.900
27477W        W92737  24.194   5.062   1.686
27478W        W92738  22.387  28.727   0.791
27479W        W92739  25.349  11.143   3.564
27480W        W92740  30.019  12.808   3.254
27481W        W92741  44.955  36.079  13.311
27482W        W92742   0.930  30.721   0.733
27483W        W92743  24.020  31.982  11.124
27484W        W92744  38.025  20.599  12.204
27485W        W92745  32.921  20.330   1.751
27486W        W92746   0.862  41.575   2.881
27487W        W92747  12.201  30.348   2.597
27488W        W92748  42.330  42.551   2.713
27489W        W92749  20.213  39.560   2.174
27490W        W92750  41.649   6.139  12.543
27491W        W92751  13.919  26.724  14.283
27492W        W92752   2.738   4.808   4.151
27493W        W92753  14.695  20.093  12.537
27494W        W92754  36.511  27.366   1.808
27495W        W92755  29.607   1.878   1.035
27496W        W92756  41.365   6.376  13.930
27497W        W92757  37.439  35.580   1.969
27498W        W92758   7.736  39.694   3.824
27499W        W92759   4.015  42.422  14.269
27500W        W92760   5.394  16.095   2.192
27501W        W92761  11.855   1.060   3.181
27502W        W92762  27.183   4.021   2.010
27503W        W92763   7.607  10.209   5.189
27504W        W92764  26.243  38.539   1.408
27505W        W92765  44.425  15.539   4.208
27506W        W92766  12.366  11.262   1.469
27507W        W92767  15.249   5.806  13.532
27508W        W92768  29.561   1.493  14.037
27509W        W92769   0.945   6.474  14.855
27510W        W92770  20.216  35.421  10.217
27511W        W92771   3.473  41.818  12.609
27512W        W92772  37.436  29.667   1.880
27513W        W92773  40.871  26.195  14.899
27514W        W92774  35.824  25.210   0.730
27515W        W92775   9.638  35.083   1.346
27516W        W92776  23.482   1.896   4.203
27517W        W92777   0.467  43.623  13.541
27518W        W92778  10.351  15.175  11.050
27519W        W92779  21.842  30.293   4.103
27520W        W92780  23.932   7.392   5.212
27521W        W92781  17.603  20.066  14.539
27522W        W92782   9.539  18.142   3.138
27523W        W92783  29.412  16.541  12.532
27524W        W92784  30.130   5.954   0.822
27525W        W92785  34.591  23.432   2.342
27526W        W92786  39.934  19.830   4.247
27527W        W92787  28.117  42.062  13.414
27528W        W92788  18.183  32.840  14.499
27529W        W92789  39.461  13.817  13.956
27530W        W92790  21.951  31.154  13.423
27531W        W92791  10.815   6.891  12.105
27532W        W92792  39.689  22.045  12.051
27533W        W92793  16.045  18.772   2.802
27534W        W92794  26.646  37.816   4.183
27535W        W92795  43.196   3.282  12.641
27536W        W92796   5.964  41.958  13.825
27537W        W92797  18.554  12.273  12.418
27538W        W92798  21.252  35.273  11.507
27539W        W92799  32.645  31.113  12.817
27540W        W92800  32.520   1.950   4.621
27541W        W92801  30.137   3.038  11.215
27542W        W92802   6.716  40.735  14.272
27543W        W92803  28.987  23.700   4.045
27544W        W92804  13.313  23.261  12.959
27545W        W92805   4.304  21.513  10.484
27546W        W92806  40.433  18.279   3.679
27547W        W92807  24.169  40.851   0.256
27548W        W92808  35.910  37.034  11.631
27549W        W92809  15.814  30.009   0.783
27550W        W92810  13.961   7.768   3.373
27551W        W92811  26.065  40.857   4.054
27552W        W92812  17.019  38.453  12.011
27553W        W92813  38.073   5.301  14.829
27554W        W92814  35.121   7.856  11.894
27555W        W92815  26.301  29.483  11.680
27556W        W92816  23.141   8.166  11.501
27557W        W92817   8.684  39.818   1.339
27558W        W92818  12.304  38.555  13.351
27559W        W92819   8.846  42.033  12.122
27560W        W92820  29.124  13.126  13.806
27561W        W92821  19.316  33.190  11.166
27562W        W92822  30.626  28.850  12.972
27563W        W92823  14.069  15.516  12.202
27564W        W92824  35.520  33.333  11.966
27565W        W92825   6.257  11.914   2.024
27566W        W92826   1.044  40.316   2.886
27567W        W92827   6.440   6.348   3.245
27568W        W92828  32.810  14.903  14.927
27569W        W92829  34.166   7.914   3.732
27570W        W92830  39.016  10.806   3.145
27571W        W92831  18.648  19.169  12.907
27572W        W92832  13.127   4.108  13.980
27573W        W92833  37.031  12.716  11.538
27574W        W92834  36.766  11.126  13.442
27575W        W92835  31.114  40.329   3.317
27576W        W92836  36.073  44.258  12.642
27577W        W92837  17.087  12.707  12.573
27578W        W92838   8.172  39.982   4.556
27579W        W92839  33.561  42.702   1.330
27580W        W92840  44.760  26.134   2.410
27581W        W92841   3.001  10.676   0.473
27582W        W92842   8.330  31.186  14.248
27583W        W92843  28.775  13.079  12.226
27584W        W92844  22.666  21.031  14.022
27585W        W92845   4.420  14.668   2.383
27586W        W92846  19.928  37.250  10.693
27587W        W92847  12.810   3.150   0.715
27588W        W92848  11.325   7.075   4.049
27589W        W92849  34.454  30.599   4.589
27590W        W92850  24.427  43.479  12.836
27591W        W92851  31.228  14.015  10.273
27592W        W92852   9.806   1.483  11.598
27593W        W92853   5.283  21.530   1.459
27594W        W92854  41.852  18.513   3.588
27595W        W92855  35.079   1.261   1.476
27596W        W92856  17.676  30.597  14.298
27597W        W92857  23.170   8.099  14.797
27598W        W92858  12.307  40.318   1.783
27599W        W92859   4.838  37.496   3.688
27600W        W92860  41.992  16.285   1.863
27601W        W92861  33.319   9.955   4.298
27602W        W92862  40.075   9.224   4.247
27603W        W92863  35.149  40.578  10.681
27604W        W92864  21.693  44.465   1.770
27605W        W92865   0.707  19.549  14.332
27606W        W92866  34.091  13.801  12.413
27607W        W92867  17.323   0.579   3.646
27608W        W92868  23.139   7.864  11.073
27609W        W92869  28.396  17.567  14.979
27610W        W92870  38.354  36.594  13.452
27611W        W92871   4.202  12.681   3.666
27612W        W92872  28.714  10.822  11.980
27613W        W92873  26.500   7.619   9.987
27614W        W92874  32.310  40.512  14.330
27615W        W92875  20.124  43.180  12.405
27616W        W92876   0.970  44.681   1.723
27617W        W92877  19.227  34.684   4.341
27618W        W92878   9.702  43.510  13.980
27619W        W92879   5.824  29.597   3.223
27620W        W92880  32.589  43.033   4.656
27621W        W92881   4.285  29.963   0.364
27622W        W92882  38.900  11.339  12.588
27623W        W92883  32.826  22.004   3.869
27624W        W92884  12.705  39.630  14.199
27625W        W92885  15.084  19.474   5.583
27626W        W92886   2.098  28.066   4.560
27627W        W92887  34.863   2.197   2.776
27628W        W92888   7.006  44.905  10.909
27629W        W92889  11.383  23.741  12.829
27630W        W92890  26.979   8.775  10.806
27631W        W92891  41.456   3.380  12.425
27632W        W92892  38.039  39.804   1.494
27633W        W92893  23.565   3.708   3.739
27634W        W92894  31.678  21.196  10.275
27635W        W92895  44.498  21.711   1.290
27636W        W92896  25.143  43.794  14.346
27637W        W92897  39.901  12.895   4.405
27638W        W92898  38.514  19.084   1.234
27639W        W92899   5.757  40.149  10.992
27640W        W92900  15.248   5.696   0.932
27641W        W92901  36.888   7.887   1.753
27642W        W92902   0.787   4.208  13.820
27643W        W92903  15.994  21.599   1.351
27644W        W92904  34.999  29.194   0.500
27645W        W92905  25.190  37.338  12.876
27646W        W92906  19.097  24.172  14.841
27647W        W92907  26.961  19.867   2.746
27648W        W92908  10.789   2.076   2.341
27649W        W92909   1.927  13.455   3.923
27650W        W92910   3.749  30.999   0.774
27651W        W92911   9.270  15.830  12.038
27652W        W92912  36.359   1.832   1.353
27653W        W92913  44.265  21.398  11.179
27654W        W92914  23.674  31.035   4.606
27655W        W92915   1.639  34.523  12.014
27656W        W92916  38.295  43.067  11.571
27657W        W92917  21.053  10.237  14.466
27658W        W92918  11.731  11.149  10.889
27659W        W92919   3.897  24.072   3.084
27660W        W92920  25.148  11.037   2.091
27661W        W92921  39.255   5.041  11.389
27662W        W92922  20.518  28.230   1.652
27663W        W92923  19.640  10.166  10.842
27664W        W92924  16.916  10.558  13.858
27665W        W92925  42.334  34.870  12.973
27666W        W92926   4.226  39.914   2.278
27667W        W92927  31.048   7.664   0.986
27668W        W92928  37.517  17.673  11.651
27669W        W92929  42.550   8.817   3.712
27670W        W92930  33.884  30.376   1.826
27671W        W92931   9.286   5.442  11.079
27672W        W92932   8.299   6.710  14.424
27673W        W92933  27.090  36.743   3.619
27674W        W92934  40.276   2.589  12.688
27675W        W92935  17.759  31.653   4.886
27676W        W92936  13.222  35.279  13.945
27677W        W92937   5.904  16.270  10.763
27678W        W92938   5.190  36.372  12.912
27679W        W92939   3.244   4.818   2.060
27680W        W92940   5.426  26.693   1.475
27681W        W92941  40.591  20.804   0.098
27682W        W92942  39.028  35.345  14.451
27683W        W92943   9.849  11.039   0.592
27684W        W92944   9.864  35.112  11.352
27685W        W92945   8.777  20.100  11.016
27686W        W92946  40.778  39.486  11.474
27687W        W92947  19.656  22.379  14.958
27688W        W92948   6.028  14.216  11.911
27689W        W92949  27.361   6.204  12.046
27690W        W92950  23.534  42.360  14.655
27691W        W92951  42.421  27.982  13.346
27692W        W92952   9.810  13.079   1.301
27693W        W92953  38.038  23.337   0.177
27694W        W92954   0.963  23.028  11.612
27695W        W92955  35.225  39.764  13.845
27696W        W92956  44.189  18.759   4.111
27697W        W92957  12.690  42.030   4.156
27698W        W92958  39.786  16.346  12.804
27699W        W92959  22.544  30.574  13.995
27700W        W92960  34.416  22.505  13.543
27701W        W92961  10.358  27.064   2.954
27702W        W92962  41.759  15.351  12.574
27703W        W92963  23.028   5.715  12.692
27704W        W92964  33.689  37.455  12.474
27705W        W92965   9.719  41.611  11.485
27706W        W92966  25.093  26.058  12.955
27707W        W92967  11.201   7.672   0.890
27708W        W92968  27.390  23.443  10.475
27709W        W92969   4.704  33.101   0.625
27710W        W92970  14.476  38.396   4.597
27711W        W92971  27.285  38.993   3.869
27712W        W92972  19.803  13.118   4.589
27713W        W92973  17.469   7.110   2.394
27714W        W92974  10.135  31.107   4.117
27715W        W92975  26.581  37.299   3.320
27716W        W92976  39.709   5.525   4.186
27717W        W92977  14.147   7.885  14.298
27718W        W92978  10.152   0.882  12.848
27719W        W92979  13.339  29.999  12.409
27720W        W92980  40.672   2.859   0.716
27721W        W92981   1.681  28.209   1.509
27722W        W92982  44.294  44.812  10.086
27723W        W92983  43.145  32.367   5.058
27724W        W92984  30.076  19.770  13.735
27725W        W92985   8.684  39.909   3.245
27726W        W92986   8.450  29.955  13.712
27727W        W92987   2.188  34.954   3.274
27728W        W92988  43.306  17.855   2.251
27729W        W92989   5.349  38.505  11.032
27730W        W92990   5.722   7.435   0.866
27731W        W92991  27.578  11.345   4.500
27732W        W92992  24.647  42.482  11.649
27733W        W92993  14.276   0.253   3.834
27734W        W92994   2.693   6.822  12.501
27735W        W92995  37.288  20.974   0.184
27736W        W92996  13.926   3.918   3.640
27737W        W92997  33.571   4.436   0.278
27738W        W92998  41.032   5.625  13.152
27739W        W92999  15.372  17.512  13.918
27740W        W93000  10.328  16.339  13.533
27741W        W93001  19.757  25.436   4.504
27742W        W93002   3.824  17.089   4.527
27743W        W93003  42.267   8.010  11.119
27744W        W93004  19.329  23.629  10.593
27745W        W93005   2.353  36.166   4.135
27746W        W93006  21.279  33.029   4.568
27747W        W93007  24.467  27.552   4.186
27748W        W93008  31.360  44.771  12.902
27749W        W93009  32.029  43.143   3.245
27750W        W93010  25.720   8.791   2.815
27751W        W93011   4.047  42.849  10.767
27752W        W93012  23.206  39.625   4.049
27753W        W93013  29.562  17.256   4.590
27754W        W93014  22.203  37.211  11.940
27755W        W93015  23.972  35.951  14.253
27756W        W93016  25.415  43.892  13.887
27757W        W93017  21.663   7.879   2.121
27758W        W93018  27.479   6.281  10.121
27759W        W93019   5.903  37.131   1.876
27760W        W93020  31.961  35.558   1.950
27761W        W93021  16.691  12.375  11.597
27762W        W93022   4.709  13.989  12.527
27763W        W93023  41.057  38.612  12.457
27764W        W93024   7.605  40.353   1.881
27765W        W93025  30.016  41.441   0.696
27766W        W93026  33.943  42.343   4.210
27767W        W93027  34.932  14.892  14.966
27768W        W93028   1.332  22.718  10.481
27769W        W93029  37.971  24.075   3.761
27770W        W93030  40.761  42.968   1.818
27771W        W93031  28.979  32.963   1.938
27772W        W93032  25.112  39.052  14.318
27773W        W93033  28.258   7.973  12.372
27774W        W93034  25.652  40.370   1.801
27775W        W93035  39.332  13.324   3.651
27776W        W93036   6.889  43.183   4.076
27777W        W93037  22.267  41.816  13.812
27778W        W93038   7.475  37.160  14.470
27779W        W93039  37.030  19.639  14.846
27780W        W93040   8.931   0.580   1.798
27781W        W93041  34.260   6.550  14.095
27782W        W93042  41.489  28.104  12.929
27783W        W93043  19.180   2.064   2.275
27784W        W93044  12.912  31.903  14.373
27785W        W93045  33.270  19.513  11.945
27786W        W93046  20.320  25.793   0.720
27787W        W93047  28.975   1.399  14.418
27788W        W93048  17.640  41.907  13.970
27789W        W93049   4.828  41.448   9.868
27790W        W93050  19.828  24.945   1.350
27791W        W93051  14.134  32.858   0.712
27792W        W93052  30.415  23.616  13.528
27793W        W93053   5.114  18.938   3.643
27794W        W93054  22.175  44.363  12.471
27795W        W93055  38.932  42.775  13.332
27796W        W93056   6.807   1.519  10.887
27797W        W93057  10.815   7.818  12.092
27798W        W93058  14.062  34.541  14.751
27799W        W93059   5.248   2.516  13.397
27800W        W93060  34.485  42.357  14.021
27801W        W93061  27.639  29.144   3.214
27802W        W93062   2.787  16.881   4.081
27803W        W93063  18.475  31.646   0.922
27804W        W93064  15.221  37.603  12.966
27805W        W93065  19.529  35.181   2.362
27806W        W93066  33.103   4.674   1.389
27807W        W93067  38.355   8.827  13.864
27808W        W93068  20.289  33.377   3.291
27809W        W93069  36.619   6.436   0.862
27810W        W93070  18.448   8.139  14.359
27811W        W93071  33.644  37.853   0.827
27812W        W93072   9.104  16.300  11.878
27813W        W93073   6.377   6.711   1.437
27814W        W93074  36.840  19.533  14.368
27815W        W93075  37.754  31.920  12.997
27816W        W93076  44.933  30.076   4.584
27817W        W93077  35.587  42.335  12.822
27818W        W93078   8.273  39.059  14.448
27819W        W93079   4.169  16.118  14.549
27820W        W93080  43.914  34.564  14.390
27821W        W93081  40.095  37.366   3.883
27822W        W93082   8.145  21.814   4.020
27823W        W93083  35.912   2.637   1.945
27824W        W93084  10.281  36.713  12.418
27825W        W93085  39.209  21.622   0.023
27826W        W93086  32.080  14.774  14.405
27827W        W93087   7.907  30.510  14.588
27828W        W93088  18.551  16.303  11.403
27829W        W93089  27.481   8.718   2.585
27830W        W93090  16.102   3.436  14.818
27831W        W93091  41.294   7.221  11.601
27832W        W93092   7.550   5.055   2.397
27833W        W93093  28.046  30.483   3.172
27834W        W93094   0.043  40.407  11.185
27835W        W93095  41.700   9.229   2.376
27836W        W93096  25.116  29.473  11.593
27837W        W93097  12.335   6.211   1.743
27838W        W93098  24.511   3.694  14.052
27839W        W93099  12.236  24.433  14.490
27840W        W93100  33.002  31.328   1.783
27841W        W93101   4.268   3.772  12.874
27842W        W93102  37.371   7.584   4.089
27843W        W93103  40.861  18.654   2.630
27844W        W93104  39.570   1.758   0.310
27845W        W93105  33.505  24.174  13.584
27846W        W93106  18.014   7.508  13.436
27847W        W93107   5.719   6.611  14.472
27848W        W93108  29.829  18.613   4.217
27849W        W93109  30.026  22.226   3.633
27850W        W93110   6.708  20.771   1.778
27851W        W93111   9.360   5.783  13.023
27852W        W93112  16.227  30.451   2.388
27853W        W93113  31.841  39.945  13.773
27854W        W93114  23.374  38.405  12.463
27855W        W93115  22.555  19.672  12.527
27856W        W93116  27.749  44.535   1.708
27857W        W93117  41.996  15.179   0.376
27858W        W93118   8.120  17.677  14.740
27859W        W93119  43.931   1.314   1.733
27860W        W93120   4.748  25.003   3.255
27861W        W93121  13.930   0.848   4.997
27862W        W93122  41.248  24.142  12.040
27863W        W93123  17.094  29.232  13.523
27864W        W93124   6.230  32.091   4.164
27865W        W93125   8.597  42.929   3.255
27866W        W93126  26.143  23.785  12.117
27867W        W93127  37.820  19.890   1.248
27868W        W93128  23.446  14.211  14.951
27869W        W93129  27.107  20.990   0.617
27870W        W93130  15.412   4.516   4.154
27871W        W93131  22.725  34.384  10.716
27872W        W93132  24.702  29.144  11.123
27873W        W93133  37.868   3.484  11.202
27874W        W93134  20.872   0.777  14.287
27875W        W93135  19.227  14.736  10.968
27876W        W93136  32.053  26.487  13.817
27877W        W93137  36.569  30.501   2.127
27878W        W93138  38.406   8.919   3.625
27879W        W93139  44.037   2.480  12.146
27880W        W93140  28.039  34.954  10.938
27881W        W93141  12.330   4.366   4.475
27882W        W93142  40.129   5.442   0.558
27883W        W93143   4.756  30.054  12.029
27884W        W93144  14.259  13.759  10.464
27885W        W93145  39.263  40.027  12.593
27886W        W93146  14.796   3.339  13.555
27887W        W93147  23.052  12.636   0.798
27888W        W93148   9.266  41.205   0.265
27889W        W93149  12.093  35.115   4.199
27890W        W93150  13.783  28.425   4.510
27891W        W93151  32.898  38.399  14.307
27892W        W93152  10.822  37.937  14.316
27893W        W93153   9.560  10.914  14.459
27894W        W93154  23.983  24.125  12.502
27895W        W93155  36.631  29.141   1.433
27896W        W93156   8.652  38.954  13.806
27897W        W93157  17.692  28.395  14.420
27898W        W93158  25.084  12.244  11.900
27899W        W93159   0.492  18.184  10.907
27900W        W93160  20.761  37.030   2.019
27901W        W93161  10.740  42.040  13.966
27902W        W93162  18.248  20.933  13.013
27903W        W93163  21.446  35.557   1.304
27904W        W93164  21.061   8.741  10.685
27905W        W93165  18.177  20.076   4.546
27906W        W93166  19.652  30.797   1.721
27907W        W93167  29.312   4.425  13.908
27908W        W93168   9.725  12.747   1.711
27909W        W93169  36.211  42.925  12.656
27910W        W93170  31.546  36.350  10.801
27911W        W93171  23.796  40.523   0.405
27912W        W93172  32.371  26.622  14.366
27913W        W93173  10.214  19.302  12.676
27914W        W93174  40.306  23.023  12.984
27915W        W93175   5.084  18.361   3.949
27916W        W93176  12.485   2.217  14.893
27917W        W93177  43.362   2.276   0.402
27918W        W93178  20.137  18.740  13.792
27919W        W93179   5.135  20.913  12.334
27920W        W93180   2.761  26.626   4.816
27921W        W93181   1.577  26.186   0.534
27922W        W93182   3.484  29.468  12.062
27923W        W93183   6.572   7.216  10.276
27924W        W93184   6.325   3.899   3.139
27925W        W93185  40.004  42.384   2.255
27926W        W93186  25.718  35.893  10.228
27927W        W93187  31.036   9.277   2.897
27928W        W93188  36.034  20.135  13.837
27929W        W93189  17.056  19.228   2.309
27930W        W93190  19.081  14.736   1.469
27931W        W93191  29.252   6.208   2.407
27932W        W93192  36.635  41.539  13.832
27933W        W93193   6.280  15.489   4.560
27934W        W93194   3.489   5.373  11.599
27935W        W93195  15.267  44.249  14.595
27936W        W93196  40.058  32.577   4.574
27937W        W93197  40.633  21.836   1.193
27938W        W93198  13.276  36.342  11.165
27939W        W93199  19.089  38.005   3.682
27940W        W93200  39.856  35.493   3.311
27941W        W93201  23.740  22.301   1.895
27942W        W93202  37.303  17.099  14.406
27943W        W93203  43.474  25.639  12.184
27944W        W93204  28.703  27.283   0.428
27945W        W93205  22.994  11.732   1.356
27946W        W93206  42.509  20.761   0.743
27947W        W93207  19.997  12.340  12.388
27948W        W93208   5.646  22.092  14.556
27949W        W93209  30.473  40.540  12.144
27950W        W93210  29.772  24.039  12.089
27951W        W93211  25.970  10.280  14.326
27952W        W93212  33.019  15.669  10.614
27953W        W93213  42.708  23.275  14.526
27954W        W93214   9.234  17.123   2.726
27955W        W93215   5.209   3.544   3.235
27956W        W93216  29.432  17.627   0.086
27957W        W93217  29.080  30.218   3.684
27958W        W93218  39.306  35.911  13.682
27959W        W93219   1.905  42.331  13.372
27960W        W93220  10.774  15.377  14.426
27961W        W93221  13.468  39.331   4.587
27962W        W93222  22.497   1.866  10.303
27963W        W93223  19.498   2.360  13.518
27964W        W93224  16.832  38.529  10.630
27965W        W93225  26.957  36.500   1.920
27966W        W93226  22.059  22.132  14.416
27967W        W93227  12.427  43.816   4.381
27968W        W93228  23.072  11.559  11.023
27969W        W93229  11.894   0.774   0.852
27970W        W93230  36.544  35.099  14.402
27971W        W93231  25.729  37.087   3.745
27972W        W93232  36.549  42.437  13.364
27973W        W93233   6.588  18.286   2.033
27974W        W93234  39.416  27.169  11.758
27975W        W93235  27.073   8.613   4.349
27976W        W93236  29.409  26.562   2.186
27977W        W93237  31.380   2.283  14.348
27978W        W93238  25.728   7.301   3.834
27979W        W93239   1.352  20.729   0.559
27980W        W93240  12.304  16.196   4.081
27981W        W93241  17.548  19.954   3.267
27982W        W93242   1.978  10.685   3.810
27983W        W93243  30.434   7.609   1.471
27984W        W93244  23.714   1.733  10.550
27985W        W93245  25.198  32.117   3.238
27986W        W93246  25.443  37.372   0.068
27987W        W93247  39.722   4.319  12.110
27988W        W93248  25.034  31.555   2.381
27989W        W93249   7.381  13.075  14.917
27990W        W93250  30.017   7.436  10.516
27991W        W93251   6.588  21.487   1.416
27992W        W93252  28.556  43.407   4.859
27993W        W93253  39.374  23.106   0.813
27994W        W93254  22.334  21.215  12.961
27995W        W93255   0.282  16.814  10.637
27996W        W93256   6.778  42.330  13.973
27997W        W93257  15.381  39.962   3.294
27998W        W93258  11.400   7.773   3.400
27999W        W93259  25.853  43.061   3.938
28000W        W93260  40.828  38.660   0.990
28001W        W93261  19.556  30.618  11.185
28002W        W93262   7.419   4.828   3.767
28003W        W93263   0.362  34.895   0.364
28004W        W93264   4.819   2.910   2.427
28005W        W93265  43.667  15.220  14.945
28006W        W93266  18.304  31.763   1.726
28007W        W93267   4.158  21.624   3.318
28008W        W93268  32.406  32.074  13.753
28009W        W93269  36.310  42.493  11.349
28010W        W93270  37.960  13.873  12.665
28011W        W93271   7.141  24.973   3.650
28012W        W93272   5.443  44.549  13.993
28013W        W93273  12.342  40.666  14.007
28014W        W93274  23.250   7.284   1.662
28015W        W93275  39.533  28.408   1.820
28016W        W93276  41.303  41.351   2.938
28017W        W93277  35.469  23.710   1.821
28018W        W93278   0.117  19.820  11.976
28019W        W93279  39.010  43.955   2.721
28020W        W93280  36.821  10.457  11.973
28021W        W93281   9.438  10.698   4.137
28022W        W93282  36.998  15.347  14.833
28023W        W93283  13.674  20.510   1.346
28024W        W93284   3.879  20.182   3.656
28025W        W93285  36.334  10.731  14.845
28026W        W93286  23.260   7.066   3.960
28027W        W93287  26.695  19.876  13.949
28028W        W93288  39.919  27.104   0.886
28029W        W93289  23.570  12.265   3.594
28030W        W93290   4.399  44.116  12.204
28031W        W93291  15.620  12.240   0.505
28032W        W93292   0.172  34.458  10.534
28033W        W93293   4.661  43.975   2.824
28034W        W93294  28.941  14.146   4.092
28035W        W93295  42.929  36.825  11.442
28036W        W93296  25.247  37.289   3.622
28037W        W93297  35.279  36.441   0.272
28038W        W93298   8.571   3.525  14.026
28039W        W93299  37.499  39.071   1.882
28040W        W93300  29.408  21.540  12.825
28041W        W93301  11.576  18.123  10.354
28042W        W93302   1.900  26.666  12.075
28043W        W93303  44.961   3.744  14.434
28044W        W93304   5.999  37.580  12.986
28045W        W93305   4.695  41.383  14.914
28046W        W93306  37.118  35.828  11.348
28047W        W93307   7.229  15.318  12.665
28048W        W93308  17.791  10.237  13.764
28049W        W93309  12.568  42.219  12.969
28050W        W93310   0.399  43.931   3.870
28051W        W93311  24.207  38.789   2.817
28052W        W93312   7.751  38.923   1.304
28053W        W93313  29.489  39.017  12.802
28054W        W93314  36.338  33.518   4.092
28055W        W93315  13.698  35.163   0.407
28056W        W93316  26.905  36.836  11.025
28057W        W93317   8.443   7.928  13.053
28058W        W93318  28.683  35.394  12.037
28059W        W93319  18.156   4.391   0.710
28060W        W93320  11.044  33.127  11.147
28061W        W93321  20.693  19.783   1.262
28062W        W93322  17.387  31.013   2.786
28063W        W93323  36.349  38.594   3.617
28064W        W93324  15.249  24.639  11.188
28065W        W93325   6.439   6.390  11.065
28066W        W93326  33.879  21.934   0.630
28067W        W93327  24.048  41.073  10.366
28068W        W93328  32.617  31.374  12.271
28069W        W93329   9.653  12.583  11.372
28070W        W93330   9.385  20.617   2.875
28071W        W93331  34.635  23.212  11.460
28072W        W93332  26.950   6.958   0.636
28073W        W93333   3.244  32.670  14.358
28074W        W93334  34.084  12.844   2.375
28075W        W93335  19.196  21.735  14.733
28076W        W93336   1.875  40.832   2.853
28077W        W93337   8.730   1.750   1.241
28078W        W93338  25.306  37.001  11.659
28079W        W93339  13.685  32.995  13.789
28080W        W93340  17.057   1.546   4.459
28081W        W93341  13.792  25.622  14.846
28082W        W93342  12.122  17.293   1.054
28083W        W93343  28.155   2.891  10.362
28084W        W93344  11.316   4.136   2.160
28085W        W93345  13.725  32.479  13.706
28086W        W93346  23.920  22.661  10.622
28087W        W93347  12.699  38.509   2.323
28088W        W93348  29.475  40.977  10.987
28089W        W93349  34.849  10.221   4.199
28090W        W93350  28.946   0.477   3.660
28091W        W93351  23.024  21.795  14.400
28092W        W93352   8.794  44.752  12.996
28093W        W93353   9.602  23.632   2.727
28094W        W93354  41.118  31.263   2.720
28095W        W93355   6.367  10.025  14.389
28096W        W93356  17.643   6.811  11.749
28097W        W93357   4.398  19.272  11.971
28098W        W93358  14.695  11.397  14.981
28099W        W93359  27.252  30.662   1.401
28100W        W93360  24.045  17.314   3.151
28101W        W93361  31.423  16.786  12.443
28102W        W93362  27.746  28.077  13.847
28103W        W93363  19.237  12.721   4.560
28104W        W93364  25.210  11.394  11.643
28105W        W93365  44.949   8.311   2.904
28106W        W93366  32.720  41.804   2.397
28107W        W93367  31.021  39.302   2.138
28108W        W93368   1.995   7.388  13.859
28109W        W93369  14.020  17.939   4.094
28110W        W93370  24.976  27.411   4.126
28111W        W93371   7.437  19.160  11.865
28112W        W93372  16.760   2.760  10.508
28113W        W93373  16.586   2.817   1.417
28114W        W93374  33.884  21.689   0.151
28115W        W93375  23.528  27.545   1.349
28116W        W93376  36.360  31.168   1.889
28117W        W93377  38.025  10.010   2.913
28118W        W93378   7.992  14.603  11.239
28119W        W93379  40.754  14.574   1.113
28120W        W93380  18.543   5.649  14.106
28121W        W93381   1.468  16.732   1.517
28122W        W93382  20.038   4.383   1.922
28123W        W93383  25.965  13.289  11.573
28124W        W93384  15.092  15.653  13.978
28125W        W93385  21.129  43.859   1.400
28126W        W93386  22.613  34.972  11.391
28127W        W93387  33.440  19.189   5.121
28128W        W93388  31.579  31.987  11.589
28129W        W93389   9.227  31.112  11.564
28130W        W93390   9.384  27.144  10.970
28131W        W93391  31.159  13.790   4.744
28132W        W93392   4.901  27.540   0.370
28133W        W93393  34.324  40.105  10.673
28134W        W93394  20.639  36.578   1.725
28135W        W93395  39.968  14.541   4.375
28136W        W93396  36.065  40.318   0.894
28137W        W93397  22.183  38.941  11.928
28138W        W93398  35.841  24.053   0.845
28139W        W93399   7.264  14.856  13.430
28140W        W93400  28.624   1.819   2.648
28141W        W93401  13.520   8.255  11.119
28142W        W93402   4.088  41.643   0.308
28143W        W93403  22.337  21.285   5.014
28144W        W93404  23.115   5.649   3.509
28145W        W93405   9.388  43.285   1.166
28146W        W93406  11.811  10.673  11.106
28147W        W93407  34.071  40.809  12.038
28148W        W93408   5.748  32.316   4.198
28149W        W93409  34.568  20.226   1.379
28150W        W93410  39.316  23.615   0.908
28151W        W93411   7.264  17.963  13.082
28152W        W93412  24.016  16.822  10.692
28153W        W93413  28.903  13.853  13.378
28154W        W93414  31.763  18.650   2.830
28155W        W93415  26.879  34.938  14.341
28156W        W93416   6.158  11.201  11.387
28157W        W93417  27.587   6.883  11.186
28158W        W93418  41.095   8.269   4.562
28159W        W93419   2.198  40.562  12.695
28160W        W93420  12.660  23.713   0.326
28161W        W93421   6.308   0.520  11.412
28162W        W93422  24.146  22.525   0.665
28163W        W93423  13.575  34.151  10.670
28164W        W93424  34.815  42.891  12.013
28165W        W93425  42.279  35.587  13.350
28166W        W93426  29.330  21.515  11.570
28167W        W93427  36.342  26.906   0.358
28168W        W93428  10.302  34.553   3.601
28169W        W93429  42.531  26.099   1.308
28170W        W93430   7.031   1.309   3.276
28171W        W93431   3.758   8.853   1.194
28172W        W93432  40.909  44.813   4.820
28173W        W93433  15.874   8.281  11.967
28174W        W93434   9.794  16.279  11.368
28175W        W93435   4.923  24.069   0.261
28176W        W93436  18.685  25.539   1.841
28177W        W93437  15.942   8.772   4.164
28178W        W93438  43.843  20.046   3.592
28179W        W93439  25.500  42.282  12.089
28180W        W93440  27.235  32.432   4.909
28181W        W93441   1.904  35.830  13.880
28182W        W93442  27.087  13.269  12.063
28183W        W93443  38.358  13.064  11.473
28184W        W93444  13.589  36.859  12.053
28185W        W93445  19.042  41.847  13.555
28186W        W93446  41.763   8.537   4.137
28187W        W93447   8.781  40.274  12.258
28188W        W93448  13.645  11.354  11.585
28189W        W93449  12.940   3.814   3.629
28190W        W93450  43.457  11.246  12.425
28191W        W93451  36.758  11.746   1.848
28192W        W93452   0.183  38.497  14.457
28193W        W93453  16.165   2.669   0.107
28194W        W93454  30.530   6.529  11.057
28195W        W93455  31.959  20.032  11.162
28196W        W93456  24.557   8.456  12.484
28197W        W93457  39.722  26.142  14.502
28198W        W93458  20.601   5.285  10.273
28199W        W93459   7.169  43.561  13.069
28200W        W93460  25.946  42.986   3.419
28201W        W93461  21.998  20.607  12.331
28202W        W93462   1.419  16.369  11.023
28203W        W93463  15.168   6.186   1.838
28204W        W93464  29.704  13.825   1.773
28205W        W93465   7.390  16.046  14.999
28206W        W93466  27.243  38.364   1.338
28207W        W93467  25.776   9.972   4.998
28208W        W93468   6.896  34.895   3.631
28209W        W93469  19.003   2.435   3.171
28210W        W93470   4.253  13.965   3.758
28211W        W93471  32.950   4.895   1.816
28212W        W93472  24.000  31.115  13.527
28213W        W93473  41.009   8.670   3.677
28214W        W93474  28.907  27.235  10.144
28215W        W93475   3.667  43.917   2.774
28216W        W93476  26.542  13.173   3.746
28217W        W93477  23.708  19.819   3.430
28218W        W93478   4.952  26.478   1.647
28219W        W93479  43.278  29.913  12.557
28220W        W93480  11.350   2.937   0.899
28221W        W93481  30.832  27.185  10.624
28222W        W93482  15.630  25.418  12.591
28223W        W93483   1.230  19.785  11.947
28224W        W93484  21.710   9.966  10.723
28225W        W93485  35.744   0.358   0.086
28226W        W93486  31.355  27.160   4.766
28227W        W93487   8.359  23.965   1.382
28228W        W93488  44.898   6.243  13.667
28229W        W93489  16.659   9.886   4.267
28230W        W93490  12.797  23.600  12.524
28231W        W93491  14.905   2.253   0.345
28232W        W93492  42.324  19.528   1.905
28233W        W93493  41.114  17.240   4.311
28234W        W93494  40.287  12.403   1.049
28235W        W93495  12.132  15.861  14.413
28236W        W93496  15.523  44.129   0.488
28237W        W93497  38.265  22.323  14.040
28238W        W93498   2.026  14.313  10.927
28239W        W93499  15.834  23.871   4.989
28240W        W93500   0.797  27.845  12.027
28241W        W93501  36.429  16.734  14.134
28242W        W93502  17.965  37.888  12.315
28243W        W93503  16.722  23.826  12.434
28244W        W93504  25.934  21.640   4.934
28245W        W93505  44.073  25.683   4.293
28246W        W93506  28.415   7.813  10.406
28247W        W93507   3.260  32.648  13.060
28248W        W93508  22.134   8.125  10.347
28249W        W93509  24.440   8.616   0.754
28250W        W93510  24.504  29.847   4.497
28251W        W93511  13.202  44.529   2.341
28252W        W93512  28.627  22.079   4.584
28253W        W93513   5.366  10.263  14.176
28254W        W93514  29.453  42.354   4.548
28255W        W93515  33.643  24.499   2.225
28256W        W93516   6.748  25.154   1.758
28257W        W93517   2.003  15.226   4.810
28258W        W93518  11.326   0.409  14.949
28259W        W93519  39.641   1.954  10.312
28260W        W93520   9.160  29.463   0.151
28261W        W93521  31.348  37.023   1.799
28262W        W93522  43.119   3.854   2.308
28263W        W93523   5.462  22.944  11.982
28264W        W93524   8.170   7.633  14.949
28265W        W93525   0.844  14.634   0.863
28266W        W93526  35.812  19.663   0.302
28267W        W93527   7.138   9.097  11.128
28268W        W93528  37.922  18.027   2.223
28269W        W93529  17.656   7.091   3.424
28270W        W93530   5.639  12.004  11.014
28271W        W93531  32.116  37.445  11.181
28272W        W93532  44.891  10.921  13.278
28273W        W93533  30.365  44.567   0.163
28274W        W93534   6.058   4.764   4.261
28275W        W93535  35.418  27.890  10.229
28276W        W93536   2.602   4.155  14.719
28277W        W93537  40.407  14.883  12.102
28278W        W93538  41.353  24.967  12.285
28279W        W93539   0.866  26.047  14.974
28280W        W93540   2.573  11.845   1.342
28281W        W93541  22.567  25.724   0.956
28282W        W93542  13.146   1.725   1.603
28283W        W93543   9.968  37.048  11.464
28284W        W93544  40.040   6.886   0.401
28285W        W93545  12.956   6.392  11.633
28286W        W93546  32.532   8.593   3.144
28287W        W93547  15.941  33.608  10.317
28288W        W93548  19.347   6.940   4.659
28289W        W93549  30.758  39.434  14.713
28290W        W93550  27.510  26.901   1.834
28291W        W93551  11.806  11.350   3.264
28292W        W93552   3.393  38.194   1.737
28293W        W93553  34.570   7.083  12.936
28294W        W93554  39.313  34.123  13.866
28295W        W93555  17.712  17.721  10.201
28296W        W93556  42.458  29.522   3.770
28297W        W93557  18.283  24.343  12.627
28298W        W93558   7.831   3.607  12.016
28299W        W93559  17.765  32.538   1.944
28300W        W93560  15.197  37.776   3.759
28301W        W93561  29.008  33.563  13.469
28302W        W93562   4.622  38.775   0.421
28303W        W93563   1.304  21.970   9.946
28304W        W93564  28.587  19.701   2.453
28305W        W93565  19.169  43.615   2.669
28306W        W93566  24.003   6.764   3.676
28307W        W93567  37.639  10.336  13.108
28308W        W93568  34.121  28.341   0.939
28309W        W93569  41.508  42.555  12.426
28310W        W93570   4.528  19.701   1.880
28311W        W93571  34.256  25.579  10.042
28312W        W93572  11.723  28.991   3.790
28313W        W93573  34.322   5.374  13.364
28314W        W93574  10.631  37.477   3.771
28315W        W93575  38.548   0.665  14.009
28316W        W93576  38.051  36.031   4.087
28317W        W93577  35.561   4.509  11.546
28318W        W93578   5.683  15.126  11.150
28319W        W93579   4.736   3.761   4.322
28320W        W93580   8.476  43.913  14.320
28321W        W93581  16.521  25.580  14.977
28322W        W93582  40.490   8.518  10.798
28323W        W93583   4.733  23.384  13.772
28324W        W93584  11.929  38.766  10.598
28325W        W93585  19.621  44.847   3.240
28326W        W93586  20.947  26.630  10.746
28327W        W93587  21.064  16.260   3.751
28328W        W93588  41.573  32.099  12.237
28329W        W93589  44.660  18.181  12.104
28330W        W93590  16.097  17.100   2.809
28331W        W93591  11.706  18.978  12.547
28332W        W93592  10.742   1.405   3.619
28333W        W93593   1.703  16.939   1.107
28334W        W93594  43.274  32.922  12.535
28335W        W93595  20.797  22.325  11.585
28336W        W93596  22.663  41.090  10.880
28337W        W93597  33.506  15.302  14.079
28338W        W93598  35.469  37.763  14.530
28339W        W93599  20.281  38.952  10.098
28340W        W93600  34.433   2.775   1.009
28341W        W93601  17.959  19.137  12.442
28342W        W93602  41.810  19.594  10.823
28343W        W93603   4.165  37.950   3.332
28344W        W93604  11.670  23.366   2.426
28345W        W93605  30.941  15.063   0.923
28346W        W93606   3.468  17.144   3.372
28347W        W93607   7.285   4.325   0.254
28348W        W93608  26.472  36.533  10.899
28349W        W93609  17.771   2.104   3.700
28350W        W93610  22.931  28.441  10.496
28351W        W93611   8.656  26.218   0.221
28352W        W93612   6.643  25.799  14.376
28353W        W93613  12.050  44.903   2.767
28354W        W93614   9.640   9.188   2.664
28355W        W93615  35.932  14.740  10.971
28356W        W93616  28.031  11.236   1.279
28357W        W93617  11.229  43.429  12.027
28358W        W93618  26.147  24.293   3.741
28359W        W93619  29.214  14.168  13.096
28360W        W93620  27.966  29.860   3.684
28361W        W93621  43.452  38.459  14.337
28362W        W93622  26.994  12.894  12.942
28363W        W93623  30.302  18.190  10.841
28364W        W93624   8.808   6.426   2.810
28365W        W93625  33.928  42.100  13.927
28366W        W93626  11.677   7.506   4.926
28367W        W93627  31.914  34.466   3.781
28368W        W93628  31.675  28.126   2.879
28369W        W93629  10.795  32.785   0.989
28370W        W93630  12.668  17.511   2.747
28371W        W93631  18.858  34.408   2.218
28372W        W93632   9.857  18.600  13.308
28373W        W93633  38.973   7.137   0.508
28374W        W93634   4.941  38.330  12.919
28375W        W93635   9.336   7.777   0.993
28376W        W93636  36.411  17.805   2.254
28377W        W93637  10.408  31.186  11.950
28378W        W93638   4.264  40.821   4.638
28379W        W93639   7.335  36.004  11.943
28380W        W93640  29.062   4.799  11.224
28381W        W93641  27.311  16.130   1.292
28382W        W93642   5.957  26.149   3.336
28383W        W93643   5.336  20.497   2.425
28384W        W93644  44.768  21.666  13.677
28385W        W93645  18.161  13.872  10.642
28386W        W93646  26.295  15.210   4.633
28387W        W93647   2.565   6.368   0.253
28388W        W93648  30.903  15.508  14.346
28389W        W93649  36.195  31.415  13.954
28390W        W93650   9.706  15.156   3.281
28391W        W93651  20.138  39.862   4.430
28392W        W93652   7.616  38.419  12.484
28393W        W93653  28.525  44.974  11.357
28394W        W93654  28.224   8.864   0.026
28395W        W93655   4.895  25.480  12.003
28396W        W93656  42.270  27.568  14.392
28397W        W93657  42.109  26.701   4.596
28398W        W93658  25.480   5.546   5.364
28399W        W93659  32.418  19.815   3.290
28400W        W93660  16.295  11.555   2.232
28401W        W93661  17.670  16.435   1.202
28402W        W93662  42.024  26.599  13.316
28403W        W93663  23.504  24.534  11.570
28404W        W93664  17.060  44.336  11.668
28405W        W93665   0.229  41.807   0.902
28406W        W93666   4.284  44.856   3.838
28407W        W93667  31.935  40.758  12.402
28408W        W93668  23.136  10.742   1.742
28409W        W93669   4.687  22.053  14.582
28410W        W93670  26.763  28.938  10.072
28411W        W93671  17.677  41.444   4.208
28412W        W93672  19.568  43.495  14.897
28413W        W93673  40.776   0.750   5.372
28414W        W93674   6.629  24.604   0.269
28415W        W93675   2.237  29.977   4.685
28416W        W93676  18.680  42.492   1.486
28417W        W93677  29.437  35.916   0.803
28418W        W93678  41.810   1.539   2.318
28419W        W93679  17.085  32.606   2.200
28420W        W93680  11.462  43.462  10.868
28421W        W93681   1.466  32.434  11.635
28422W        W93682  37.347  24.466   3.688
28423W        W93683  40.936  28.025   4.272
28424W        W93684  22.190   9.460  10.600
28425W        W93685  22.744  10.149   2.334
28426W        W93686   7.714  30.691   2.785
28427W        W93687  14.721   7.847   2.460
28428W        W93688  19.771   6.848   3.180
28429W        W93689  22.169  20.551   4.170
28430W        W93690  39.902  38.895   3.596
28431W        W93691   8.779   2.369   3.287
28432W        W93692  32.912  43.998  13.062
28433W        W93693  27.616  16.966  13.316
28434W        W93694   1.276  44.027  11.002
28435W        W93695  26.535  22.647  10.198
28436W        W93696   1.188  24.423  12.548
28437W        W93697  34.548  22.721  11.606
28438W        W93698  43.993  13.856   4.099
28439W        W93699   0.277  19.051  10.696
28440W        W93700  18.043  10.056   0.850
28441W        W93701   8.344  28.471   1.311
28442W        W93702  12.247  30.069   1.120
28443W        W93703   4.131  31.717   3.706
28444W        W93704   0.440  28.089   0.237
28445W        W93705   8.735  21.425   4.480
28446W        W93706  39.159   6.153   5.193
28447W        W93707  25.621   5.223   1.732
28448W        W93708  24.007  22.122  13.888
28449W        W93709  38.854  40.521  14.707
28450W        W93710   1.890  32.547   4.235
28451W        W93711  15.037  36.875  14.484
28452W        W93712  38.585   6.708  14.244
28453W        W93713  11.948  11.402  14.294
28454W        W93714  14.230  33.839   2.413
28455W        W93715   2.381  30.740   0.786
28456W        W93716   7.830  11.196   3.378
28457W        W93717   6.449  18.497   5.060
28458W        W93718  21.463  20.040   5.469
28459W        W93719  43.255  20.659  14.437
28460W        W93720   1.554  20.070   1.764
28461W        W93721  26.119  42.585  12.995
28462W        W93722  37.028  41.288   4.113
28463W        W93723  34.089  42.786   0.663
28464W        W93724  37.751  10.810   2.373
28465W        W93725  19.224  10.427   0.689
28466W        W93726  28.279  32.047   3.552
28467W        W93727  42.734  17.210   3.324
28468W        W93728  18.505  34.173  11.143
28469W        W93729   0.036  31.994  14.323
28470W        W93730  20.260  12.062  12.747
28471W        W93731  42.735  16.697   1.402
28472W        W93732  32.159  26.601   4.089
28473W        W93733  19.986   9.769   2.325
28474W        W93734  20.670  30.610   1.293
28475W        W93735  19.253  28.545  13.176
28476W        W93736   4.371  22.294   2.529
28477W        W93737   1.580  27.972   4.610
28478W        W93738  18.625  13.585   1.221
28479W        W93739  18.203  27.234   1.235
28480W        W93740  12.772   6.247  14.541
28481W        W93741  42.901   1.294   1.035
28482W        W93742  14.548  36.461   1.671
28483W        W93743  21.851  42.983  10.454
28484W        W93744  25.415  19.155  12.484
28485W        W93745   5.425   7.254   3.058
28486W        W93746   6.900  20.606  11.500
28487W        W93747  30.302  15.098   3.634
28488W        W93748  16.560  16.545   5.388
28489W        W93749  15.683  36.548   3.974
28490W        W93750  13.075   9.785  14.975
28491W        W93751  29.227   7.443   3.227
28492W        W93752   5.741   2.851   1.857
28493W        W93753  20.777  43.112  14.377
28494W        W93754  38.347   3.121   3.549
28495W        W93755  36.453  28.024  11.407
28496W        W93756  25.653   1.407   4.738
28497W        W93757   1.062  13.403  12.300
28498W        W93758  14.079  30.402   4.064
28499W        W93759  11.573   1.068  11.721
28500W        W93760   4.358  24.453   4.704
28501W        W93761   9.504   7.462   5.131
28502W        W93762   3.703  37.849   2.015
28503W        W93763  35.648   2.442  14.654
28504W        W93764   4.889  42.243  11.607
28505W        W93765  20.781  24.345  13.645
28506W        W93766  34.512  14.595  13.449
28507W        W93767  40.481  35.538   4.069
28508W        W93768   5.853  21.783  14.953
28509W        W93769  15.987  28.654   1.263
28510W        W93770  28.879  32.951  14.263
28511W        W93771  24.725  33.457   1.240
28512W        W93772  25.139  20.588   0.810
28513W        W93773   8.762   8.230   1.618
28514W        W93774  44.825  20.472  13.020
28515W        W93775  15.820  43.056   3.635
28516W        W93776   4.927  42.846  11.719
28517W        W93777  18.351  28.206   1.481
28518W        W93778  31.416   1.473  12.897
28519W        W93779  15.467  40.077  11.135
28520W        W93780  37.606  25.505   1.363
28521W        W93781  10.330  23.827  11.054
28522W        W93782  30.390  10.601  12.657
28523W        W93783  39.836  35.630   1.397
28524W        W93784  16.004  36.153   2.299
28525W        W93785  33.961  14.085  10.709
28526W        W93786  35.492  29.572  14.328
28527W        W93787   1.988  40.243  12.012
28528W        W93788  14.596  15.689   2.431
28529W        W93789   2.319  13.675   1.824
28530W        W93790  40.761  27.683  12.686
28531W        W93791  22.018  21.523  14.826
28532W        W93792  38.917   0.992  13.093
28533W        W93793   1.537  39.303   3.278
28534W        W93794  27.839  34.584  14.429
28535W        W93795  34.132  29.413   3.517
28536W        W93796  13.235  29.821   4.736
28537W        W93797  38.607   2.375  11.976
28538W        W93798  41.089  41.294  11.624
28539W        W93799  30.470  23.632   2.105
28540W        W93800  22.748  13.086   1.695
28541W        W93801  21.797  14.364  11.165
28542W        W93802   7.169  17.349  12.504
28543W        W93803   3.381  29.591  14.594
28544W        W93804   2.204  25.812  12.133
28545W        W93805  31.902  42.548  10.509
28546W        W93806   5.223  40.483  13.817
28547W        W93807   4.444  38.018   4.184
28548W        W93808  12.777  19.058  14.529
28549W        W93809  12.376   9.748   2.405
28550W        W93810  16.055  23.757  14.434
28551W        W93811   9.310  17.118   4.082
28552W        W93812  12.300  39.744   3.672
28553W        W93813  33.489  43.729  12.912
28554W        W93814  33.069  36.793  12.903
28555W        W93815   2.689  13.215   0.454
28556W        W93816  40.439   1.517  13.580
28557W        W93817   5.403  30.344  12.480
28558W        W93818  27.498   1.908  13.778
28559W        W93819  36.409  43.807  13.310
28560W        W93820   0.291  36.370   1.653
28561W        W93821  26.713  10.179   0.011
28562W        W93822   9.802  22.311  12.403
28563W        W93823  29.415  24.761  12.503
28564W        W93824  16.525  18.335   3.666
28565W        W93825  14.764  21.220   1.188
28566W        W93826  27.156  26.493  14.370
28567W        W93827  17.305  34.500  13.633
28568W        W93828  36.919  12.351   4.512
28569W        W93829   4.390  37.378   4.963
28570W        W93830  32.857  11.359   1.229
28571W        W93831  12.088   5.694  13.965
28572W        W93832  13.108  37.189   5.048
28573W        W93833  19.564  21.766  12.985
28574W        W93834  33.667  23.299  11.653
28575W        W93835  40.480   6.795   4.612
28576W        W93836  18.876  36.783  13.411
28577W        W93837   1.445  40.109  13.046
28578W        W93838   0.405  25.516  12.606
28579W        W93839   2.347   0.264  13.464
28580W        W93840  33.441  32.838   3.816
28581W        W93841  42.416   2.192   1.926
28582W        W93842   5.793   9.904   0.268
28583W        W93843  20.164  36.224   0.847
28584W        W93844  17.672  33.036   1.815
28585W        W93845  12.947   8.737   2.870
28586W        W93846  27.220   6.090   2.372
28587W        W93847  23.225   7.406   4.617
28588W        W93848  17.634  22.126   2.331
28589W        W93849  35.070   9.476   1.673
28590W        W93850  37.426   1.364   3.649
28591W        W93851  38.465  23.355  12.094
28592W        W93852  44.413  39.241  14.863
28593W        W93853  42.768   4.757   0.914
28594W        W93854  31.478   2.601   4.620
28595W        W93855  13.366  22.301   1.211
28596W        W93856   0.094   6.393   0.326
28597W        W93857  32.311  15.101   1.263
28598W        W93858   5.409  35.186  14.546
28599W        W93859  44.478  28.042  13.040
28600W        W93860  41.970   2.516   2.833
28601W        W93861  22.305  38.032   4.173
28602W        W93862   1.847  27.469   1.338
28603W        W93863  32.083  18.095   3.680
28604W        W93864   5.618  33.536   1.431
28605W        W93865  36.106  34.923  11.637
28606W        W93866  16.665   9.575   4.684
28607W        W93867   8.057  23.661   2.595
28608W        W93868  40.977  26.026   1.245
28609W        W93869  12.093  32.691  13.476
28610W        W93870   1.795  12.599  12.932
28611W        W93871  40.707  35.930   0.380
28612W        W93872   6.263  40.830  14.543
28613W        W93873  20.184   3.543  12.148
28614W        W93874  16.129  26.064   2.136
28615W        W93875   4.853   2.020  12.100
28616W        W93876  31.853  28.655  10.158
28617W        W93877  12.127  11.103   0.476
28618W        W93878  33.441  17.526  11.452
28619W        W93879   3.289  34.801   1.794
28620W        W93880  15.675  24.783  11.987
28621W        W93881  28.037  34.898   2.768
28622W        W93882  32.359   1.918  10.747
28623W        W93883   1.726  12.663   1.078
28624W        W93884  36.848  39.191   0.753
28625W        W93885   3.239  23.645  13.815
28626W        W93886  23.768  18.631   0.267
28627W        W93887   0.310  28.089  11.964
28628W        W93888   9.198   5.150  10.644
28629W        W93889  30.862  36.354  13.824
28630W        W93890  23.105  37.564   2.156
28631W        W93891  41.910   5.778   0.476
28632W        W93892  11.742   4.677   2.351
28633W        W93893  29.595  25.025  12.905
28634W        W93894  26.402   6.573   1.988
28635W        W93895   5.910  22.849  12.617
28636W        W93896   4.214   7.822   3.617
28637W        W93897  23.958  23.582  14.525
28638W        W93898  39.112   2.492   3.988
28639W        W93899  11.250  27.643  14.697
28640W        W93900  27.012   6.306   9.894
28641W        W93901  21.520  26.627  12.924
28642W        W93902   5.320  18.711   4.465
28643W        W93903   7.670  34.701  12.061
28644W        W93904  25.940   5.772  14.810
28645W        W93905   2.450  15.170   4.220
28646W        W93906  20.994  21.501  12.444
28647W        W93907  23.989  13.717  13.286
28648W        W93908   6.746  11.031   1.808
28649W        W93909  33.963  22.999  12.627
28650W        W93910   8.443  20.327   1.145
28651W        W93911  11.697  22.006  12.013
28652W        W93912   3.956  20.271   1.870
28653W        W93913  21.699   6.491  13.507
28654W        W93914   8.739  39.500   2.679
28655W        W93915  14.660  41.223   4.303
28656W        W93916  23.123  32.118  13.764
28657W        W93917  44.120  22.061   1.515
28658W        W93918  30.170  21.246   3.355
28659W        W93919  15.438  34.104   0.836
28660W        W93920  24.597  41.275  11.504
28661W        W93921  13.781  43.126   5.072
28662W        W93922  37.775  30.945  12.141
28663W        W93923  26.823   0.248   1.415
28664W        W93924  23.128   7.255  11.562
28665W        W93925  38.319  43.024   2.401
28666W        W93926  40.852   0.936   1.777
28667W        W93927   7.690  40.620   0.877
28668W        W93928  14.931  15.572   2.888
28669W        W93929   6.240   5.205   2.477
28670W        W93930  40.454  31.054  11.092
28671W        W93931  23.993  21.294  11.987
28672W        W93932   7.031  15.713   4.170
28673W        W93933  12.088  29.613   0.944
28674W        W93934  16.866  42.024  13.520
28675W        W93935  43.246   9.354   1.919
28676W        W93936  10.203  21.697  13.635
28677W        W93937  42.034   6.743  13.974
28678W        W93938  37.384  19.119   1.244
28679W        W93939  27.826  31.709   4.247
28680W        W93940  24.685  15.685  14.363
28681W        W93941  42.446   6.995  11.156
28682W        W93942  23.121  18.705  14.556
28683W        W93943  11.305  40.380   0.866
28684W        W93944   8.675  29.682   0.035
28685W        W93945  30.613   2.216  10.696
28686W        W93946  40.150  35.067   0.705
28687W        W93947  39.623  27.980   1.512
28688W        W93948  25.874  40.233  12.401
28689W        W93949  14.789  28.851  11.000
28690W        W93950   5.243  30.899   3.800
28691W        W93951  30.608  43.493   3.887
28692W        W93952  25.068  30.449  14.787
28693W        W93953  15.904   4.548  12.461
28694W        W93954  20.503   1.550   2.833
28695W        W93955  12.812  32.327   4.084
28696W        W93956  18.351  12.904   0.163
28697W        W93957  12.890  17.215  13.557
28698W        W93958  33.073  39.342  12.464
28699W        W93959  20.032  22.394   1.846
28700W        W93960  17.888   2.822  13.910
28701W        W93961  19.626  39.940  14.968
28702W        W93962  32.158  11.383  14.412
28703W        W93963  42.865   3.837  11.036
28704W        W93964  43.875   0.771  13.278
28705W        W93965  24.909  31.394   1.859
28706W        W93966  42.720  16.430   2.233
28707W        W93967  27.536   8.253   3.853
28708W        W93968   9.729  11.583   1.281
28709W        W93969   9.733   3.020  14.910
28710W        W93970  34.897   5.191  10.197
28711W        W93971   6.919  18.572  14.496
28712W        W93972  13.003  10.408  10.675
28713W        W93973  28.774   1.361   4.165
28714W        W93974  17.147  22.026  12.394
28715W        W93975  20.228  32.541  13.735
28716W        W93976  18.091  10.855   1.323
28717W        W93977  29.072  35.084  11.911
28718W        W93978  13.121  37.021  12.913
28719W        W93979   2.469  28.690   0.794
28720W        W93980  20.815  23.617   3.397
28721W        W93981  25.043  16.826   2.119
28722W        W93982  43.518   0.245  12.444
28723W        W93983   3.756  10.307   3.369
28724W        W93984  31.131  18.272  12.433
28725W        W93985  44.382  11.280  11.152
28726W        W93986  44.838  20.378   4.525
28727W        W93987  14.822   5.069   3.248
28728W        W93988  42.947   8.621   0.200
28729W        W93989  18.514  39.517  14.975
28730W        W93990  20.500  22.741  14.911
28731W        W93991  37.857   7.659   4.637
28732W        W93992  32.121  14.106  12.378
28733W        W93993  27.972  33.986  10.310
28734W        W93994  22.859   2.527   3.667
28735W        W93995  17.100   1.961  13.324
28736W        W93996   5.007  12.702  13.555
28737W        W93997   1.236  32.367   1.314
28738W        W93998  33.703  29.229  13.066
28739W        W93999  24.518   5.017   3.085
28740W        W94000  34.438  31.538  12.163
28741W        W94001  21.917   9.301  12.813
28742W        W94002  21.800  28.223   1.373
28743W        W94003  35.819  29.519  12.900
28744W        W94004   5.393   2.974  10.614
28745W        W94005  10.430  23.665  13.075
28746W        W94006  15.354  27.536  14.813
28747W        W94007   2.513  41.381  14.699
28748W        W94008  15.271  25.333  11.565
28749W        W94009  37.508  13.014  13.518
28750W        W94010  18.886  11.195  14.992
28751W        W94011  24.007  10.241   4.083
28752W        W94012   8.989  16.166   4.207
28753W        W94013  29.648   2.433  13.860
28754W        W94014  34.881  28.524   4.516
28755W        W94015  34.451  36.119   3.661
28756W        W94016   3.803   1.775  12.950
28757W        W94017  29.776  34.491  12.701
28758W        W94018   5.473  39.925   4.982
28759W        W94019  17.587  25.984   3.179
28760W        W94020   4.445  11.035  13.854
28761W        W94021   8.670  28.096   0.459
28762W        W94022  39.126   2.488  13.005
28763W        W94023  22.657  25.166  14.839
28764W        W94024  14.577  35.326  14.304
28765W        W94025  13.672  28.042  14.962
28766W        W94026  43.984  18.139   2.853
28767W        W94027   0.314  44.409   0.337
28768W        W94028   5.716  42.986   2.649
28769W        W94029  32.962  17.303  11.500
28770W        W94030   9.400  20.649   4.648
28771W        W94031  37.367  44.157   4.106
28772W        W94032  29.171  42.467  11.756
28773W        W94033  42.798   7.470  11.613
28774W        W94034  29.258  15.167  11.476
28775W        W94035  20.624  10.259   4.715
28776W        W94036   5.427  34.165  14.454
28777W        W94037  24.608  29.626   0.321
28778W        W94038  23.954  18.716  13.883
28779W        W94039  20.030   8.027   2.019
28780W        W94040   6.241  44.450  14.456
28781W        W94041  24.965  36.501   0.288
28782W        W94042  37.820   1.670   0.321
28783W        W94043  18.445  36.041   4.066
28784W        W94044  31.041  32.872   1.738
28785W        W94045  33.932  41.490   1.188
28786W        W94046  43.967   0.345  14.492
28787W        W94047   2.174   2.770   1.370
28788W        W94048  23.731  27.075   1.231
28789W        W94049  29.662  21.988  11.186
28790W        W94050   4.221  38.381  14.614
28791W        W94051  15.335  32.413  12.429
28792W        W94052  13.639  43.092  12.541
28793W        W94053   3.917  28.565   2.449
28794W        W94054   9.701   9.493  13.960
28795W        W94055   8.662  37.628  13.351
28796W        W94056  10.346  25.565   0.786
28797W        W94057  37.901  21.798   0.729
28798W        W94058  26.191   2.921  11.635
28799W        W94059  20.505  17.813  13.426
28800W        W94060  31.378  35.455   2.759
28801W        W94061  19.472   7.240   1.836
28802W        W94062  27.929  27.646   0.236
28803W        W94063   2.892  21.014   1.706
28804W        W94064  13.356   2.525  13.004
28805W        W94065  37.567  16.426   0.972
28806W        W94066  31.182  38.096  14.437
28807W        W94067  17.647   8.872   3.562
28808W        W94068  29.141  18.333   1.207
28809W        W94069  43.054   3.370  10.332
28810W        W94070  30.362   6.205  13.371
28811W        W94071  25.021  10.271   3.939
28812W        W94072  16.279  28.016  12.663
28813W        W94073   0.258  24.560   2.261
28814W        W94074  10.987  43.520   2.159
28815W        W94075  28.052  16.550   1.726
28816W        W94076  18.367   6.958   0.726
28817W        W94077  38.966   4.775   0.470
28818W        W94078  25.516  42.465  14.775
28819W        W94079   1.512   8.703  12.032
28820W        W94080  28.141  16.301  10.701
28821W        W94081  34.343  24.545  14.419
28822W        W94082  13.350   5.812  13.975
28823W        W94083  14.351  42.880   2.742
28824W        W94084  32.466  14.389   0.824
28825W        W94085   2.934  28.915   3.713
28826W        W94086  43.952   5.025  13.765
28827W        W94087  13.235  21.297   1.325
28828W        W94088  28.015  44.803   3.218
28829W        W94089  31.047  23.031  13.623
28830W        W94090  11.361  37.285  13.465
28831W        W94091  11.817   6.726   2.474
28832W        W94092  34.416  30.420  13.528
28833W        W94093  32.778  29.150   2.764
28834W        W94094  24.496  14.623  14.892
28835W        W94095  28.651  34.853   4.640
28836W        W94096  22.154   0.933  13.599
28837W        W94097  19.543  14.371  10.776
28838W        W94098  11.282  33.868  10.899
28839W        W94099  13.145  15.717   4.089
28840W        W94100  44.341  15.524   3.248
28841W        W94101  14.553  21.686   3.728
28842W        W94102  41.507  38.841   3.478
28843W        W94103  36.531  31.476   2.737
28844W        W94104  20.703  44.064   0.502
28845W        W94105  26.217  40.041  13.291
28846W        W94106  33.596  27.138   1.153
28847W        W94107   7.212  27.208   3.857
28848W        W94108  13.566  28.003   3.791
28849W        W94109  38.155  40.397  13.957
28850W        W94110   9.554   7.996  10.113
28851W        W94111  14.289   7.587   9.600
28852W        W94112  24.071  24.979  12.881
28853W        W94113   1.429  41.500   4.602
28854W        W94114  40.246  36.593  11.773
28855W        W94115   7.509  26.708   5.368
28856W        W94116  12.414  18.092  10.545
28857W        W94117  29.300  11.891   5.045
28858W        W94118  20.816   8.879  11.126
28859W        W94119  16.636  10.696   3.856
28860W        W94120  42.309  39.355  11.876
28861W        W94121  29.620   3.766   4.729
28862W        W94122   6.305  25.170  13.830
28863W        W94123   6.134  15.582   2.891
28864W        W94124  11.192  23.033  13.799
28865W        W94125  22.659  30.438   0.336
28866W        W94126   8.926  39.997   1.791
28867W        W94127   7.938   8.921  14.447
28868W        W94128   7.666   3.396  13.786
28869W        W94129  42.907  33.727   3.796
28870W        W94130  29.197  26.111  12.468
28871W        W94131  24.984  27.651  13.751
28872W        W94132   1.785   1.298   0.636
28873W        W94133   5.861   2.782  14.070
28874W        W94134  11.213  29.465   4.061
28875W        W94135  34.487  44.098   4.708
28876W        W94136  43.353   6.810   0.198
28877W        W94137  37.764   9.663  10.238
28878W        W94138  11.321  16.744  12.857
28879W        W94139   4.931  15.348  12.058
28880W        W94140  15.528  30.906  13.520
28881W        W94141   4.212  38.559  12.430
28882W        W94142   8.847  15.582  14.780
28883W        W94143   9.620   5.042  13.964
28884W        W94144  27.839  29.358   3.655
28885W        W94145  40.078  31.262   3.415
28886W        W94146  42.352   6.422   3.117
28887W        W94147  33.308   5.157  12.584
28888W        W94148   3.768  12.715   1.247
28889W        W94149  21.265   4.204   3.587
28890W        W94150  17.837   6.829   1.445
28891W        W94151  33.055   0.237  12.563
28892W        W94152  21.277  12.039   1.776
28893W        W94153  11.089  22.606   2.404
28894W        W94154  13.419  17.265  13.486
28895W        W94155   4.773  20.803   1.638
28896W        W94156  39.733   6.211   3.805
28897W        W94157   2.393  26.803   5.280
28898W        W94158  17.714   6.011   4.280
28899W        W94159  19.809   0.868   2.687
28900W        W94160  39.293   8.863  10.060
28901W        W94161   6.679  38.429   2.323
28902W        W94162  29.153  21.996  12.895
28903W        W94163   9.872   2.488  14.854
28904W        W94164  15.067  32.953  11.619
28905W        W94165  33.508  16.986   1.091
28906W        W94166  34.837  34.349   4.521
28907W        W94167  22.870   1.678   1.651
28908W        W94168   1.494  11.008   3.665
28909W        W94169  12.992   5.755  11.934
28910W        W94170  20.543  26.465   3.546
28911W        W94171  31.186  24.220   3.101
28912W        W94172  18.545  32.724  14.869
28913W        W94173  36.804  30.630  12.148
28914W        W94174  14.375  43.089   3.329
28915W        W94175  15.129  33.969  10.447
28916W        W94176  19.318  43.407   3.117
28917W        W94177  30.473  21.589   1.354
28918W        W94178  27.131   2.841  10.463
28919W        W94179  42.571  25.788   2.632
28920W        W94180  11.734   9.838  12.937
28921W        W94181   8.831  28.879   2.243
28922W        W94182   6.312  44.686  12.934
28923W        W94183  38.286  26.106   4.095
28924W        W94184  33.447  30.947   0.989
28925W        W94185  23.187  25.641   4.098
28926W        W94186  37.732  38.828   2.276
28927W        W94187  18.552  23.276  10.655
28928W        W94188  42.031  43.510   1.753
28929W        W94189  32.421   5.368  13.905
28930W        W94190  12.588  32.601   4.570
28931W        W94191  22.208   2.536   1.235
28932W        W94192   7.976  10.780  13.932
28933W        W94193  14.436  41.724   0.502
28934W        W94194  12.632  29.007   2.727
28935W        W94195  32.186  44.290   4.239
28936W        W94196  25.109   4.067  12.490
28937W        W94197  23.731  17.500   1.385
28938W        W94198  40.583  12.743   3.210
28939W        W94199  25.038  20.685   4.168
28940W        W94200  33.865  12.710   1.017
28941W        W94201  27.630   8.353  13.899
28942W        W94202  30.638  32.432   3.359
28943W        W94203  28.971   5.309  10.459
28944W        W94204  32.448  21.091   2.666
28945W        W94205  26.264  18.251  12.941
28946W        W94206  29.424  25.032  12.037
28947W        W94207  33.563  22.559  10.327
28948W        W94208  22.824  22.760   4.188
28949W        W94209  38.824  38.966   0.758
28950W        W94210  34.077   0.559   1.851
28951W        W94211  36.600   4.554   2.715
28952W        W94212   5.904  25.536   2.662
28953W        W94213  16.331   0.287   0.239
28954W        W94214  43.926  22.587  13.798
28955W        W94215   5.737  23.917   2.956
28956W        W94216  31.067  39.344   3.931
28957W        W94217  39.980  40.994   4.162
28958W        W94218   9.417  12.071   2.347
28959W        W94219   7.438  33.530  13.378
28960W        W94220  22.034   7.399  12.422
28961W        W94221  13.368   2.979  11.333
28962W        W94222  40.938  31.608  14.189
28963W        W94223  26.278  41.569  13.373
28964W        W94224  28.234   0.335   4.184
28965W        W94225  21.034   8.176  13.643
28966W        W94226   3.892  35.841  13.837
28967W        W94227  42.798  42.236  11.652
28968W        W94228   5.763  21.769  12.474
28969W        W94229  24.410  17.352   3.660
28970W        W94230  37.141  44.353   2.822
28971W        W94231  16.768  34.555   0.406
28972W        W94232  27.142  41.333  10.378
28973W        W94233  20.021   5.035   5.069
28974W        W94234  11.439  26.582  12.145
28975W        W94235  37.960   6.668   2.126
28976W        W94236  29.512   2.389   3.687
28977W        W94237  28.961  13.299   0.415
28978W        W94238   3.834  43.270  13.539
28979W        W94239  36.879  14.687  12.536
28980W        W94240  39.869  37.830   3.774
28981W        W94241  24.136  28.216   0.601
28982W        W94242  26.141  32.176   2.867
28983W        W94243  24.506  27.493   3.299
28984W        W94244  20.009  12.654  10.625
28985W        W94245  28.435  43.745   3.768
28986W        W94246  19.036  10.577  10.208
28987W        W94247  12.190   2.184  13.603
28988W        W94248  44.125   0.884  12.408
28989W        W94249  26.828   6.610   0.203
28990W        W94250  19.490  37.777  11.046
28991W        W94251  18.214  37.523  11.523
28992W        W94252  15.397  43.739   1.333
28993W        W94253  39.011  17.018  11.122
28994W        W94254  17.554  12.764   0.294
28995W        W94255  19.743  11.509   4.902
28996W        W94256   8.312  22.821   1.212
28997W        W94257  12.934   9.580  11.480
28998W        W94258  27.352  20.121   3.712
28999W        W94259  35.320  17.194  13.525
29000W        W94260  43.148   2.904  11.068
29001W        W94261   9.469   6.834   4.946
29002W        W94262  14.861  35.302   1.103
29003W        W94263  31.040   7.227  11.870
29004W        W94264   6.422  24.375   3.254
29005W        W94265  20.645  39.672   0.862
29006W        W94266  20.550  36.655  12.950
29007W        W94267  20.430  13.896   0.833
29008W        W94268  11.768  18.064  14.501
29009W        W94269   5.312  38.483   4.383
29010W        W94270  26.598  31.909   2.742
29011W        W94271  41.026  31.472  11.203
29012W        W94272   2.987  11.551   1.386
29013W        W94273  40.753  10.057   2.781
29014W        W94274   1.304  39.340   2.391
29015W        W94275   8.804   2.921   4.304
29016W        W94276   3.902  44.775  12.044
29017W        W94277  14.790  16.070  13.975
29018W        W94278  30.638  35.987   4.662
29019W        W94279  33.060  43.084   4.404
29020W        W94280  11.740  36.675   1.843
29021W        W94281  23.621   4.405  13.559
29022W        W94282  37.017  11.962   1.264
29023W        W94283  43.940  22.697   3.181
29024W        W94284  17.320  25.281  10.712
29025W        W94285  36.127  14.922   5.055
29026W        W94286   6.268  36.495   4.556
29027W        W94287  10.364   8.725   0.098
29028W        W94288  23.719  12.144   1.872
29029W        W94289  27.654  34.201   4.503
29030W        W94290   2.996  15.197  12.672
29031W        W94291  36.597  32.971  13.522
29032W        W94292  34.978  34.927   0.883
29033W        W94293  35.694   6.336  14.583
29034W        W94294   8.276  23.960  10.278
29035W        W94295  34.151  35.531   0.223
29036W        W94296   2.733   2.491  13.390
29037W        W94297  32.332  14.176   1.278
29038W        W94298  18.678  35.950  10.703
29039W        W94299  25.376  23.134   3.822
29040W        W94300  23.927  34.844   0.087
29041W        W94301  16.997  40.000   4.565
29042W        W94302  40.417   3.792   3.184
29043W        W94303   4.725  43.278  13.807
29044W        W94304   0.343  34.118   4.534
29045W        W94305  24.506  34.376   1.023
29046W        W94306  44.715  21.698  12.183
29047W        W94307   6.834  41.069   3.367
29048W        W94308  33.169   9.560   2.395
29049W        W94309   1.375  32.474  10.655
29050W        W94310  15.522  18.076  10.904
29051W        W94311  38.320   2.067   0.217
29052W        W94312   5.131  11.125   4.140
29053W        W94313   1.492  20.283  11.402
29054W        W94314  35.915   9.286   2.126
29055W        W94315  40.592  13.118   4.554
29056W        W94316  30.711  26.665  13.433
29057W        W94317  23.571   2.824  13.855
29058W        W94318   5.480  11.511  14.662
29059W        W94319  33.101  22.675   3.715
29060W        W94320  12.382  15.766  12.515
29061W        W94321  43.264  19.314   3.311
29062W        W94322   6.765  34.998  11.653
29063W        W94323  37.132  19.561   2.282
29064W        W94324  20.221  34.898  13.872
29065W        W94325   8.188  15.451   1.934
29066W        W94326  14.176  24.039  10.494
29067W        W94327  41.060  10.590   4.158
29068W        W94328  21.456  16.449   9.830
29069W        W94329  32.495  35.879  14.436
29070W        W94330  41.890   8.081  13.821
29071W        W94331  34.033  22.764  12.018
29072W        W94332  38.615  12.412   2.837
29073W        W94333  11.267  34.007  13.628
29074W        W94334  19.685  43.452   0.776
29075W        W94335   3.251   1.040  12.850
29076W        W94336  27.453  27.546   0.533
29077W        W94337   6.917   3.293   1.450
29078W        W94338  25.437  12.646  14.270
29079W        W94339   4.610   7.654   3.264
29080W        W94340  44.395   8.210  13.043
29081W        W94341  43.839  27.347   3.323
29082W        W94342  40.387  26.891   0.896
29083W        W94343  42.969   5.998   1.035
29084W        W94344  32.814  33.041   2.753
29085W        W94345  41.435  32.535  12.472
29086W        W94346  36.506  30.983  12.463
29087W        W94347  27.160  26.231   2.731
29088W        W94348   3.869  33.910   3.290
29089W        W94349   5.329  42.287  11.327
29090W        W94350  40.117  29.399  14.474
29091W        W94351   3.484  22.727   0.758
29092W        W94352  35.153  22.619   3.677
29093W        W94353  38.336   5.599  12.449
29094W        W94354  28.213  34.621  12.934
29095W        W94355  13.286  33.069  11.107
29096W        W94356  25.794  17.136  10.750
29097W        W94357  31.043  18.579   2.603
29098W        W94358  26.683   7.693  11.052
29099W        W94359   7.454  44.380   1.372
29100W        W94360  41.819  38.278   4.244
29101W        W94361  44.942  36.431   2.409
29102W        W94362  32.761  15.589  10.081
29103W        W94363  10.253  21.725  11.901
29104W        W94364   0.036   3.263   5.008
29105W        W94365  36.569  11.590   3.959
29106W        W94366  11.437   4.437  14.850
29107W        W94367  25.460   4.049   0.341
29108W        W94368   7.079  31.253  14.985
29109W        W94369  36.382  31.961  10.610
29110W        W94370  26.062   2.667   4.103
29111W        W94371  36.403  16.831   4.667
29112W        W94372  26.096  30.932   4.198
29113W        W94373  21.282  43.983   0.924
29114W        W94374  32.831  40.433  14.306
29115W        W94375  27.479   0.425  13.494
29116W        W94376  33.295  29.562  13.029
29117W        W94377  23.398  26.463   1.837
29118W        W94378  41.435   0.509   3.213
29119W        W94379  34.070  42.874   3.494
29120W        W94380   5.934   0.093  10.453
29121W        W94381  42.826  38.295  12.510
29122W        W94382  27.793  24.989   4.903
29123W        W94383   1.246  29.823  14.450
29124W        W94384  43.377  38.500   2.461
29125W        W94385   0.826  12.868  13.344
29126W        W94386  21.416  38.607  12.017
29127W        W94387  19.493  38.474   3.632
29128W        W94388  17.791  40.903  14.467
29129W        W94389   1.260   7.302  10.725
29130W        W94390  44.601  24.230   0.227
29131W        W94391  16.103  35.161  13.812
29132W        W94392   3.861   0.640   3.592
29133W        W94393  22.613  34.356   0.346
29134W        W94394   5.699  33.886  10.756
29135W        W94395  21.713   3.846  11.184
29136W        W94396   4.414  20.250   3.646
29137W        W94397  20.361  15.393  13.502
29138W        W94398  43.210  22.321  14.001
29139W        W94399  40.447   4.939  14.907
29140W        W94400   9.176  19.153   1.373
29141W        W94401   9.322  42.440  11.911
29142W        W94402  21.680  25.824  14.497
29143W        W94403   6.254  19.642   0.756
29144W        W94404   4.724  32.807   3.695
29145W        W94405  30.976  30.432   2.238
29146W        W94406  24.646   7.950  12.429
29147W        W94407   7.468  17.691   4.290
29148W        W94408  20.244  34.097  12.701
29149W        W94409  41.694  25.563  11.575
29150W        W94410  24.636  30.057   2.266
29151W        W94411   7.318  28.231   4.690
29152W        W94412   9.341   7.412  14.504
29153W        W94413  39.558   2.371  13.313
29154W        W94414  15.722  37.800  14.450
29155W        W94415   8.356  36.945   2.299
29156W        W94416  14.463  43.196  11.176
29157W        W94417  20.104  12.334   4.854
29158W        W94418   3.666  42.451   0.557
29159W        W94419  37.129  12.651  13.349
29160W        W94420  34.161  15.320   0.974
29161W        W94421  38.776  17.819  10.692
29162W        W94422  30.131  15.716   3.267
29163W        W94423  21.240  30.354  12.498
29164W        W94424  15.146  28.649   4.875
29165W        W94425  32.609  40.835  13.094
29166W        W94426   7.012  21.003  12.457
29167W        W94427   0.436   3.511  11.003
29168W        W94428  34.585  11.102   3.194
29169W        W94429  10.054  31.966  11.134
29170W        W94430  39.798   4.987   4.246
29171W        W94431   7.623  42.855  13.660
29172W        W94432  11.669   9.336  12.449
29173W        W94433  28.177  34.573   0.410
29174W        W94434  44.755  35.643   1.269
29175W        W94435  23.950   3.697  11.999
29176W        W94436  44.850  19.006  12.310
29177W        W94437  29.445  12.870  12.943
29178W        W94438  40.061  30.316   0.807
29179W        W94439  20.326  12.241  10.501
29180W        W94440  24.558  12.612  11.936
29181W        W94441  16.640  32.848  11.579
29182W        W94442  16.569  10.652   4.759
29183W        W94443   4.670  18.714   2.723
29184W        W94444  43.730  27.226   0.857
29185W        W94445  29.413  23.920   2.212
29186W        W94446  13.408  18.708   0.949
29187W        W94447  15.888   9.096   4.571
29188W        W94448  20.999  13.122   4.249
29189W        W94449  34.945   5.903   2.642
29190W        W94450  31.411  42.585  11.381
29191W        W94451  33.340  40.961  10.889
29192W        W94452  29.628  11.670   0.786
29193W        W94453  12.258  22.671   3.348
29194W        W94454  19.045  28.460   3.282
29195W        W94455  13.669  43.346   2.888
29196W        W94456   2.600  18.276   5.096
29197W        W94457  10.922   7.376   1.733
29198W        W94458  12.089  19.489   3.684
29199W        W94459   2.219  40.722  11.445
29200W        W94460   2.969  11.572   0.299
29201W        W94461  23.272   8.455   2.445
29202W        W94462  11.687   2.401   1.824
29203W        W94463   5.217   1.679   2.271
29204W        W94464  16.294  17.443   5.405
29205W        W94465  23.248  19.154  14.292
29206W        W94466  25.736  13.356  13.356
29207W        W94467  15.233   7.500  14.924
29208W        W94468  21.708   4.583  12.720
29209W        W94469  24.204   2.760   1.556
29210W        W94470  24.898  42.201   2.210
29211W        W94471  41.329  30.646  12.049
29212W        W94472   4.475  32.953   1.184
29213W        W94473  31.955  12.707   4.517
29214W        W94474  29.663   0.582  12.123
29215W        W94475  29.048  32.890  10.604
29216W        W94476  20.279   2.467  12.886
29217W        W94477  31.968  12.291  11.078
29218W        W94478  37.977  18.806   1.937
29219W        W94479  33.937  19.012   2.168
29220W        W94480  28.172   6.574  12.915
29221W        W94481   5.218  20.503  10.375
29222W        W94482  33.381  31.452   4.147
29223W        W94483   2.334   0.091   0.383
29224W        W94484   6.135  30.227  14.468
29225W        W94485  28.485  10.562  13.343
29226W        W94486  11.379  15.200   4.216
29227W        W94487  39.341  12.142   4.158
29228W        W94488   5.728  24.437  12.069
29229W        W94489   1.179   3.929   4.451
29230W        W94490  11.684  12.792  12.012
29231W        W94491  32.024  22.449   1.948
29232W        W94492  28.029   2.853   9.773
29233W        W94493  12.035  13.245   4.762
29234W        W94494  40.404  18.873  13.789
29235W        W94495  19.904  33.851  12.397
29236W        W94496  34.044  31.565   0.547
29237W        W94497  10.593  35.355   2.167
29238W        W94498  13.710   1.395   1.126
29239W        W94499  36.577  44.313  11.611
29240W        W94500  37.863  44.918  11.681
29241W        W94501  17.108  19.852   1.592
29242W        W94502  24.335  16.045   5.419
29243W        W94503  25.668  20.482   0.765
29244W        W94504  38.622   7.423   0.741
29245W        W94505  12.137   0.334   4.012
29246W        W94506   8.072   4.443   2.710
29247W        W94507   8.490  23.349  11.061
29248W        W94508  37.958  37.262   2.643
29249W        W94509  28.730   9.736  12.744
29250W        W94510  40.031  11.254   3.738
29251W        W94511  38.347  14.723   2.596
29252W        W94512   2.764  10.922  12.499
29253W        W94513  41.325  11.921   0.911
29254W        W94514  29.952   7.221   2.648
29255W        W94515  30.384  44.967  12.586
29256W        W94516   7.121   4.750   2.668
29257W        W94517  41.956  24.101  14.646
29258W        W94518  40.596   7.201  14.820
29259W        W94519   6.342  38.389   1.929
29260W        W94520  28.766   6.373   1.202
29261W        W94521   2.861  44.699  14.731
29262W        W94522  28.648  37.817   2.211
29263W        W94523  42.189  30.706  11.583
29264W        W94524  16.990  29.483  13.948
29265W        W94525  11.714   9.293   4.485
29266W        W94526  41.896  37.833  13.425
29267W        W94527   2.719  13.888   2.740
29268W        W94528   9.937  21.044   3.881
29269W        W94529  34.719  22.917  13.449
29270W        W94530  12.610   9.285   2.376
29271W        W94531  28.905  34.492  13.580
29272W        W94532   5.081   8.842  11.721
29273W        W94533   9.065  44.113  10.793
29274W        W94534   3.155  24.422   1.469
29275W        W94535  42.974  25.514   0.073
29276W        W94536  15.430  14.289  11.891
29277W        W94537   3.684  12.114   0.027
29278W        W94538  41.320   2.420  10.465
29279W        W94539  15.241  19.487   3.418
29280W        W94540  41.909  31.100  11.363
29281W        W94541  26.927  34.702  13.342
29282W        W94542  19.731  10.239  14.061
29283W        W94543  16.360  16.393   0.826
29284W        W94544  35.884  36.977   2.237
29285W        W94545  40.458  19.025  11.648
29286W        W94546  27.563  22.082  11.135
29287W        W94547  24.678   5.232  12.261
29288W        W94548  28.989  28.214  12.062
29289W        W94549  10.710  24.732   0.489
29290W        W94550  14.172  27.837  10.716
29291W        W94551  26.119  23.568  12.587
29292W        W94552  41.940  25.929   3.603
29293W        W94553  36.807  34.833   3.875
29294W        W94554  40.932   8.165   3.610
29295W        W94555  27.359   0.914  13.379
29296W        W94556  34.582  26.772   4.142
29297W        W94557  31.554   2.199   2.947
29298W        W94558  13.007   6.082  10.858
29299W        W94559  37.717  27.181   3.558
29300W        W94560  14.048  43.976   3.218
29301W        W94561  11.693  40.172  11.510
29302W        W94562  23.364  17.783  13.078
29303W        W94563  41.031  16.062   2.166
29304W        W94564   3.741   2.850  12.613
29305W        W94565  24.552  38.443  12.605
29306W        W94566  39.291  40.799  12.076
29307W        W94567  22.239   4.509  13.376
29308W        W94568  15.588  35.178   1.925
29309W        W94569  28.007  14.212   1.226
29310W        W94570  10.163  33.564  12.126
29311W        W94571  15.673   2.142  13.863
29312W        W94572  22.811   2.995  11.678
29313W        W94573  33.849   8.066   0.974
29314W        W94574  28.831  25.213   0.315
29315W        W94575  40.010  14.471   2.591
29316W        W94576  32.885   7.205   0.291
29317W        W94577   7.881  29.997  14.671
29318W        W94578  13.456  12.994  11.188
29319W        W94579  37.120   8.941  11.256
29320W        W94580  43.831  18.057  14.048
29321W        W94581  30.620  25.053  14.762
29322W        W94582  36.787  11.061  11.165
29323W        W94583  13.419  14.737  11.639
29324W        W94584  42.723  24.357   0.795
29325W        W94585  31.575  42.558   0.754
29326W        W94586  44.329  44.246   4.202
29327W        W94587  35.380  37.001   3.197
29328W        W94588   1.800   3.150   4.175
29329W        W94589  28.887  41.484   3.988
29330W        W94590  11.909  13.267  11.909
29331W        W94591   4.195  36.976   2.168
29332W        W94592  33.055  35.458   4.224
29333W        W94593  37.337  37.923   4.816
29334W        W94594  28.532  14.176   4.896
29335W        W94595  18.457  33.346  12.422
29336W        W94596  31.045  25.098   0.579
29337W        W94597  38.102  43.348  10.146
29338W        W94598  16.243   9.855   3.109
29339W        W94599  23.224  36.076  11.186
29340W        W94600  37.896   0.937   2.954
29341W        W94601   9.256  14.172  12.078
29342W        W94602  29.987   4.166   1.782
29343W        W94603   1.004  22.461   0.830
29344W        W94604  25.840   7.761  11.481
29345W        W94605  30.138   4.004   3.084
29346W        W94606   7.703   4.648  12.886
29347W        W94607  37.057  33.374  11.694
29348W        W94608  26.783  38.106   4.589
29349W        W94609  18.651  20.957   2.296
29350W        W94610  39.869  40.080  10.730
29351W        W94611  26.112  20.460  13.466
29352W        W94612  42.980  36.341  14.041
29353W        W94613   8.157  13.784   2.447
29354W        W94614  14.182  19.000  12.032
29355W        W94615  11.308  10.346   1.857
29356W        W94616  12.447  44.723   4.293
29357W        W94617  22.974   3.615   5.499
29358W        W94618  33.476   8.677   3.804
29359W        W94619  23.743  11.115   2.180
29360W        W94620  15.550  21.229   2.958
29361W        W94621  35.488   6.521  10.631
29362W        W94622  43.060  31.992  10.865
29363W        W94623  38.197  37.081  11.906
29364W        W94624  25.995   0.390   4.070
29365W        W94625  19.578  19.238   1.126
29366W        W94626  21.570   3.384   0.314
29367W        W94627  11.700  17.693  12.174
29368W        W94628  24.832   1.757   0.847
29369W        W94629  11.860  29.004  14.909
29370W        W94630   2.390  36.192  11.898
29371W        W94631  28.849  22.500   3.693
29372W        W94632  32.471  22.065   1.386
29373W        W94633  26.616  21.265  13.897
29374W        W94634  16.224   4.955  14.527
29375W        W94635   2.795  15.889   3.103
29376W        W94636  15.617  22.629  13.327
29377W        W94637   1.334  36.249  10.477
29378W        W94638  26.958  36.824   2.579
29379W        W94639  17.536  22.606   0.029
29380W        W94640  29.416  35.031   1.256
29381W        W94641  14.298  29.887  10.760
29382W        W94642   2.314  10.702  13.852
29383W        W94643  19.128   3.028  10.706
29384W        W94644  19.112  41.066  12.099
29385W        W94645   2.369   7.902  13.270
29386W        W94646  30.153   2.008   4.869
29387W        W94647   7.339   5.937  12.089
29388W        W94648   7.198  27.769  10.686
29389W        W94649   3.533   6.155   2.810
29390W        W94650   4.494  39.587  13.827
29391W        W94651  24.623  25.025  13.605
29392W        W94652  41.884   1.385  13.285
29393W        W94653  37.485  23.188   2.905
29394W        W94654  32.967  24.034  11.451
29395W        W94655   9.344  28.429  10.756
29396W        W94656   4.780  43.196   0.374
29397W        W94657  43.216  28.764   2.160
29398W        W94658  43.403  17.316  11.174
29399W        W94659  27.455   6.772   2.766
29400W        W94660  24.159  41.108  11.708
29401W        W94661  10.649   1.792  12.458
29402W        W94662  10.163  22.435   5.036
29403W        W94663  15.219  17.161  14.394
29404W        W94664  13.378  10.250   3.897
29405W        W94665  41.889  33.768  12.393
29406W        W94666   9.605  21.054   3.021
29407W        W94667  15.629  20.946   4.174
29408W        W94668  31.542  22.719  10.610
29409W        W94669  12.617   0.234  11.656
29410W        W94670  15.556   3.836   0.549
29411W        W94671  25.661  11.714  12.917
29412W        W94672   1.211   7.255  13.571
29413W        W94673  36.504   3.911  12.895
29414W        W94674   7.056  19.345  11.539
29415W        W94675   5.644  29.949  14.381
29416W        W94676   9.431   4.016   0.733
29417W        W94677  39.504  28.043  14.519
29418W        W94678  41.475  39.032  14.880
29419W        W94679  32.406  33.943  14.763
29420W        W94680   2.697  40.595  13.502
29421W        W94681  14.762  24.876   1.410
29422W        W94682  30.708  17.253   1.243
29423W        W94683  34.632  32.671  12.461
29424W        W94684   6.830   4.807  12.067
29425W        W94685  39.750  19.307  13.370
29426W        W94686   6.922  18.856  11.072
29427W        W94687  31.979  31.501  10.748
29428W        W94688   3.746  17.124  11.168
29429W        W94689   5.714  34.668  12.253
29430W        W94690  31.923  12.682   2.266
29431W        W94691  39.748   0.821   0.853
29432W        W94692  24.067  34.404  12.838
29433W        W94693   8.395  30.402   4.131
29434W        W94694  30.064  13.359  12.644
29435W        W94695  22.966  15.098   2.663
29436W        W94696  17.782  42.339   4.242
29437W        W94697   5.686  33.569  12.870
29438W        W94698  18.176   5.887   3.276
29439W        W94699   8.209  20.644   0.292
29440W        W94700  38.095  25.696   3.633
29441W        W94701  38.482   9.696   2.303
29442W        W94702  20.664  18.667  13.920
29443W        W94703  13.182  25.443  14.473
29444W        W94704   9.127  13.550   2.362
29445W        W94705   8.284  35.785   4.214
29446W        W94706   3.440   8.834   2.747
29447W        W94707  41.969  23.040   1.744
29448W        W94708  13.153  14.620  11.229
29449W        W94709   2.063  42.483  10.787
29450W        W94710  24.829  42.981   4.155
29451W        W94711  33.481  43.376  10.580
29452W        W94712  16.392  34.277  10.729
29453W        W94713  40.814  23.131   2.287
29454W        W94714  23.624  36.543  12.545
29455W        W94715   2.309  20.619   5.202
29456W        W94716  13.712  20.743   0.811
29457W        W94717  40.087   8.744  12.891
29458W        W94718  43.861  34.045  10.630
29459W        W94719  44.298  34.430   3.238
29460W        W94720  15.790  17.210  11.423
29461W        W94721  17.539  15.689  12.499
29462W        W94722  35.128  20.111   4.346
29463W        W94723  41.678  13.278   0.918
29464W        W94724  37.350  39.866   0.766
29465W        W94725  27.193  10.736  11.156
29466W        W94726   7.979   4.452  12.479
29467W        W94727  34.205  37.658   0.401
29468W        W94728  18.339  23.461   4.215
29469W        W94729  32.474  27.705   0.787
29470W        W94730  38.784  44.380  13.366
29471W        W94731  12.921  26.255   1.758
29472W        W94732   7.917  43.806   3.756
29473W        W94733  40.993  24.780  14.439
29474W        W94734  40.031  33.372  13.011
29475W        W94735  43.029  25.683   0.886
29476W        W94736  26.508  26.378   3.429
29477W        W94737  43.508  19.627   0.015
29478W        W94738  40.269   8.674  13.380
29479W        W94739   3.912   2.975   2.280
29480W        W94740  16.147  31.947  13.829
29481W        W94741  18.699  26.887  12.145
29482W        W94742  26.726  40.428   0.508
29483W        W94743  15.777  14.065  12.911
29484W        W94744  22.081   4.683  14.968
29485W        W94745  16.386   8.767   1.275
29486W        W94746   5.044   4.688   0.677
29487W        W94747  13.352  19.986   1.815
29488W        W94748  10.929  14.590   1.104
29489W        W94749  14.557  16.203   2.579
29490W        W94750  39.465  12.325  12.981
29491W        W94751  37.983   9.061   4.010
29492W        W94752  14.166  36.429   2.857
29493W        W94753  29.866  33.143  13.959
29494W        W94754  28.864  30.739  11.442
29495W        W94755   0.949  21.480  11.667
29496W        W94756   6.209  42.337   3.145
29497W        W94757  28.743   1.663   1.330
29498W        W94758  33.522  44.730  14.236
29499W        W94759  25.706  17.673  11.949
29500W        W94760   6.432   4.486  11.905
29501W        W94761  31.367   4.970  11.030
29502W        W94762   3.261   9.397   4.171
29503W        W94763  24.594  22.936   4.582
29504W        W94764   5.857   4.256   4.349
29505W        W94765  29.248  38.593   2.370
29506W        W94766  37.268  37.326  14.761
29507W        W94767  14.377  19.207   1.749
29508W        W94768   4.355  31.283   0.366
29509W        W94769  31.888  17.229  14.404
29510W        W94770  29.378  44.017  10.670
29511W        W94771  25.654  44.935  12.317
29512W        W94772  39.714  31.478   3.687
29513W        W94773  32.001  37.929  11.055
29514W        W94774  27.681   1.072  14.420
29515W        W94775  27.225  13.976   2.724
29516W        W94776   6.525  17.527  12.015
29517W        W94777  31.641  39.002  13.052
29518W        W94778  40.986  18.723  10.769
29519W        W94779  12.320  36.111  11.607
29520W        W94780  11.229  15.810   1.836
29521W        W94781  31.774  31.964   1.402
29522W        W94782  33.121  41.539   3.700
29523W        W94783   4.465   2.830  13.850
29524W        W94784  37.782  31.905   4.634
29525W        W94785  21.415   3.804  11.609
29526W        W94786  37.879  44.775   3.838
29527W        W94787   3.945  23.476  12.871
29528W        W94788  30.954   6.276  10.876
29529W        W94789  36.276  31.743  13.055
29530W        W94790  12.700  12.924   1.951
29531W        W94791   8.371  30.157  14.794
29532W        W94792  32.705  38.151  12.818
29533W        W94793  24.051  40.109  11.561
29534W        W94794  36.926  22.585  10.783
29535W        W94795  30.594  37.148  12.878
29536W        W94796  26.370   9.318   0.794
29537W        W94797   6.183  32.111   1.404
29538W        W94798  23.444  10.447  11.046
29539W        W94799  25.545  33.164  13.374
29540W        W94800  19.580  19.477  13.717
29541W        W94801  40.086   5.271  11.927
29542W        W94802  10.427  44.480  12.653
29543W        W94803   7.266  30.461  13.947
29544W        W94804  17.144   8.301   2.532
29545W        W94805  12.027   8.430   0.496
29546W        W94806  32.816  17.331  14.265
29547W        W94807  16.244   8.396  11.020
29548W        W94808  43.534   6.382   0.430
29549W        W94809  32.130  31.888  11.540
29550W        W94810  29.074   9.321   1.209
29551W        W94811  24.194  44.589   4.517
29552W        W94812  23.951   9.560  10.700
29553W        W94813  44.184  33.597   1.413
29554W        W94814   7.126  17.575   2.287
29555W        W94815   3.893  41.080   3.573
29556W        W94816  27.203  10.642   3.383
29557W        W94817  13.225  35.346   3.692
29558W        W94818  22.615  19.701   4.216
29559W        W94819   6.421   8.983   1.245
29560W        W94820  16.829  25.456  10.682
29561W        W94821   6.756  26.446  12.147
29562W        W94822  38.501  17.740  13.910
29563W        W94823   6.306   4.891  12.185
29564W        W94824  44.801  22.265  10.596
29565W        W94825  36.614   7.920   3.695
29566W        W94826  16.006  22.766   1.816
29567W        W94827   3.795  13.623  11.390
29568W        W94828  39.883  21.572   1.788
29569W        W94829  10.180  24.550   1.522
29570W        W94830  37.678  43.303  11.051
29571W        W94831  16.702  17.553  10.132
29572W        W94832  21.010  44.237   3.130
29573W        W94833   1.814   5.231  10.860
29574W        W94834  31.922  17.572   0.573
29575W        W94835  12.739  35.470   4.580
29576W        W94836  14.110  43.620  13.922
29577W        W94837  19.207  32.704   0.858
29578W        W94838  26.004  19.970  13.349
29579W        W94839   6.452  27.971  12.527
29580W        W94840  15.052  19.977   9.799
29581W        W94841  27.694  10.191  12.585
29582W        W94842  40.059   3.736   0.798
29583W        W94843  19.158  35.042   2.864
29584W        W94844  10.290   4.151  12.888
29585W        W94845  24.205  37.850  13.572
29586W        W94846  14.367  24.392  12.410
29587W        W94847  31.939  30.907   0.037
29588W        W94848   3.468  18.729   4.152
29589W        W94849   3.298   0.234  13.322
29590W        W94850  21.604  40.570  14.762
29591W        W94851   5.749  32.559  11.351
29592W        W94852   6.676  32.222  13.293
29593W        W94853  22.058  12.067   0.395
29594W        W94854  24.265   4.249   1.291
29595W        W94855  15.415  31.058  12.886
29596W        W94856   0.817  11.660   1.228
29597W        W94857  23.156  10.532  11.465
29598W        W94858   6.433  22.626   4.635
29599W        W94859  39.975   4.639   0.750
29600W        W94860  42.297  37.510  12.899
29601W        W94861  12.881   7.689   0.402
29602W        W94862  28.960  11.276  11.971
29603W        W94863  12.682  33.376  14.973
29604W        W94864  18.280  16.269  12.625
29605W        W94865   4.348  33.174  11.544
29606W        W94866  15.415  29.217   1.757
29607W        W94867  22.615   1.921   0.186
29608W        W94868  31.130  21.317  11.930
29609W        W94869  15.917   0.964  12.545
29610W        W94870  14.727  10.940   0.863
29611W        W94871  34.709  38.459   3.519
29612W        W94872   1.966  25.360   1.347
29613W        W94873  21.244  25.048   0.530
29614W        W94874   1.733   4.926   1.612
29615W        W94875  42.735  33.333  13.935
29616W        W94876   8.597  16.858  12.544
29617W        W94877  38.006  36.938  13.332
29618W        W94878  40.046  10.854   5.439
29619W        W94879  35.320  25.121   0.770
29620W        W94880  10.301  41.972  10.683
29621W        W94881   2.853  23.745  13.432
29622W        W94882  15.173  33.132   4.070
29623W        W94883  13.831   2.047  14.045
29624W        W94884  39.291  36.558   2.860
29625W        W94885  34.685  10.433   4.990
29626W        W94886  31.345  29.017  12.484
29627W        W94887  30.133  15.155  11.041
29628W        W94888  42.896  26.858  10.548
29629W        W94889  20.629  11.801  13.754
29630W        W94890  33.873  23.275  11.164
29631W        W94891   7.615  35.394   4.834
29632W        W94892  14.835  11.806  11.344
29633W        W94893   3.746  43.327   0.268
29634W        W94894  12.657   4.005   4.631
29635W        W94895  40.576  20.327  14.850
29636W        W94896  14.255  34.376   1.804
29637W        W94897  14.544   9.272  12.717
29638W        W94898   3.198  10.154   1.227
29639W        W94899  41.988  27.930  11.598
29640W        W94900  38.483  17.098  11.078
29641W        W94901   1.362  42.516  11.124
29642W        W94902  33.542   3.717   4.707
29643W        W94903  30.896   1.994  14.771
29644W        W94904  34.888   7.929  13.992
29645W        W94905  37.020  17.825  10.447
29646W        W94906   6.340  28.417  14.056
29647W        W94907   9.629  29.854   0.978
29648W        W94908  10.208  28.653  12.908
29649W        W94909  15.846  13.194  12.468
29650W        W94910  33.395   1.287  12.958
29651W        W94911  10.602  35.239  13.863
29652W        W94912   7.322  15.051   3.601
29653W        W94913  41.898  37.785   4.071
29654W        W94914  18.647  24.800  11.222
29655W        W94915   1.486  16.442   1.920
29656W        W94916  41.403  20.120   2.233
29657W        W94917  18.630  34.015   0.423
29658W        W94918  12.827  21.439   2.001
29659W        W94919   0.338   8.268   1.713
29660W        W94920   6.325  26.938  14.054
29661W        W94921  32.111  23.736  10.299
29662W        W94922  16.719  23.989  10.663
29663W        W94923  33.987  40.576  11.055
29664W        W94924  19.218  10.283   2.505
29665W        W94925  28.243   1.328  11.596
29666W        W94926  20.006  26.587  14.227
29667W        W94927   1.710   3.352  11.636
29668W        W94928  24.404  22.057   2.397
29669W        W94929  36.505   1.423   0.406
29670W        W94930  40.465   7.414   2.277
29671W        W94931  43.486  44.391  14.119
29672W        W94932   1.532  41.013   3.416
29673W        W94933  35.376   1.936  13.473
29674W        W94934   9.534  28.861   2.649
29675W        W94935  39.431  22.972   0.294
29676W        W94936   8.147  36.520  11.172
29677W        W94937   7.771  39.314  11.192
29678W        W94938  34.606   6.959   4.576
29679W        W94939  28.387   6.925  13.495
29680W        W94940   2.352   0.777  13.341
29681W        W94941  18.701  11.236   3.209
29682W        W94942  42.081  14.833   3.276
29683W        W94943   1.236  21.144   0.256
29684W        W94944  25.513  38.565  14.032
29685W        W94945  18.149  26.133   4.956
29686W        W94946  16.080   8.624   3.690
29687W        W94947  22.451  34.561  11.121
29688W        W94948  15.012   8.714   3.698
29689W        W94949  26.454  34.885   4.015
29690W        W94950  35.853   1.833  13.320
29691W        W94951  36.858  18.539  14.317
29692W        W94952   2.300  26.167  14.494
29693W        W94953   3.300   8.460  11.748
29694W        W94954  24.771   5.010   1.169
29695W        W94955   0.304   7.850   4.759
29696W        W94956  25.472   8.614   3.661
29697W        W94957  41.274  20.696  11.337
29698W        W94958  17.679  11.130   2.208
29699W        W94959  30.493  23.015   4.385
29700W        W94960  20.443  17.008   3.061
29701W        W94961  27.335  19.509   1.812
29702W        W94962   3.218  30.043  14.785
29703W        W94963  21.668  10.230   0.675
29704W        W94964  20.759  39.079   4.425
29705W        W94965  43.844  18.795  14.678
29706W        W94966  20.054   1.593   1.950
29707W        W94967   6.970   0.237   1.643
29708W        W94968   5.703  32.409   1.767
29709W        W94969  18.181  25.045   4.636
29710W        W94970   6.947   4.780  12.999
29711W        W94971   3.372  37.522   2.339
29712W        W94972  28.907  37.058   3.164
29713W        W94973  23.071   1.381   2.463
29714W        W94974  37.946  17.268  12.625
29715W        W94975  13.263  37.309  11.658
29716W        W94976  27.565  39.818   1.825
29717W        W94977   9.606  24.447   5.289
29718W        W94978  27.759   1.444   4.359
29719W        W94979  15.824  39.351  10.781
29720W        W94980  24.167   8.626   0.267
29721W        W94981  27.847  43.233  13.260
29722W        W94982  17.345  37.479   1.474
29723W        W94983  18.579  21.983   2.748
29724W        W94984  14.080  18.908   3.766
29725W        W94985  24.504  20.735   2.097
29726W        W94986  26.648  26.431  14.338
29727W        W94987  18.550   8.946   3.406
29728W        W94988   2.313  28.328  12.617
29729W        W94989  36.863  26.942   1.466
29730W        W94990  21.659  18.939   2.561
29731W        W94991  26.995  15.676  12.095
29732W        W94992   6.240  12.334   0.712
29733W        W94993  25.243  34.153  12.178
29734W        W94994  13.646  21.615   2.793
29735W        W94995   9.846  43.885  10.885
29736W        W94996  31.042   7.590  10.564
29737W        W94997  41.433  19.112  12.582
29738W        W94998  27.481  32.130   4.550
29739W        W94999  29.209  13.103   2.762
29740W        W95000  33.220  29.635   9.908
29741W        W95001  29.732  38.899   0.307
29742W        W95002  16.351  30.433  10.673
29743W        W95003  13.274  31.849   0.051
29744W        W95004  32.311  29.412   2.738
29745W        W95005  14.537   3.296   3.495
29746W        W95006  19.570  17.715   2.805
29747W        W95007   0.931  10.153  12.623
29748W        W95008  13.222  43.313  11.575
29749W        W95009  36.904  20.731   3.235
29750W        W95010  28.531  39.301   2.375
29751W        W95011   5.942  22.087   2.719
29752W        W95012   4.472  12.710  10.664
29753W        W95013  10.162  27.453  13.518
29754W        W95014  13.109  44.966  11.123
29755W        W95015  40.446  19.343  11.261
29756W        W95016  33.116  12.540   2.782
29757W        W95017  28.619  17.619  12.932
29758W        W95018   6.279  31.880  14.948
29759W        W95019  31.190  44.865   0.466
29760W        W95020  27.421   1.016   2.615
29761W        W95021  16.128  24.225   4.760
29762W        W95022  16.730   7.323   3.156
29763W        W95023  11.640   5.458   0.021
29764W        W95024  41.408   7.692   2.147
29765W        W95025  13.220  23.240   3.745
29766W        W95026  23.539  16.298  13.579
29767W        W95027  29.933  40.424   1.723
29768W        W95028  25.126  38.352  10.920
29769W        W95029  11.973  15.786  12.853
29770W        W95030  26.204  12.570  14.986
29771W        W95031  18.174  42.009  10.584
29772W        W95032  37.052  22.083  10.766
29773W        W95033  15.304  11.676  13.508
29774W        W95034   4.509   3.278  14.115
29775W        W95035  44.515  14.282   4.367
29776W        W95036  18.272  37.364   1.573
29777W        W95037  22.002  15.426   5.085
29778W        W95038  29.990   5.464   2.191
29779W        W95039  27.977  29.710  11.793
29780W        W95040   8.771  37.133  13.438
29781W        W95041  34.436  15.828  14.021
29782W        W95042  33.447  26.037  13.073
29783W        W95043   0.352   5.191  11.031
29784W        W95044  35.523   1.492  14.300
29785W        W95045  38.650  36.835  11.967
29786W        W95046  38.583   3.796   1.832
29787W        W95047  20.077  11.412  10.546
29788W        W95048  19.676  22.308   3.027
29789W        W95049  31.008  39.059  14.424
29790W        W95050  38.177  29.202  11.881
29791W        W95051  30.974  13.417  12.514
29792W        W95052  14.874  41.218  11.987
29793W        W95053  22.881  25.159   2.082
29794W        W95054  29.009  28.792   1.994
29795W        W95055   8.842  42.102   5.016
29796W        W95056  15.043  21.484  12.042
29797W        W95057   6.276  21.186   2.852
29798W        W95058   4.976  38.205  14.784
29799W        W95059   5.611  15.580   2.833
29800W        W95060   1.487   0.340   2.293
29801W        W95061  29.016   2.320   3.556
29802W        W95062  41.084  25.997  11.114
29803W        W95063  32.036  33.896   3.008
29804W        W95064  30.687  30.418   0.290
29805W        W95065  41.116  40.629   4.692
29806W        W95066  17.610   8.768  14.870
29807W        W95067  35.304  20.723  11.113
29808W        W95068  37.015  17.752  13.347
29809W        W95069  25.227  17.287   0.358
29810W        W95070   3.962  12.589  10.577
29811W        W95071   3.888  29.698  10.779
29812W        W95072   9.727  25.268   0.326
29813W        W95073  15.478  25.731   3.702
29814W        W95074   2.201  17.690   3.488
29815W        W95075  10.522  38.095  12.372
29816W        W95076   5.919  44.701  13.791
29817W        W95077   3.255   3.980   4.431
29818W        W95078   9.507  40.838   3.654
29819W        W95079  33.858  26.413  14.531
29820W        W95080   0.017  12.159  14.482
29821W        W95081  29.430   0.811  10.606
29822W        W95082  25.947  32.120  13.076
29823W        W95083  11.531   4.395  11.431
29824W        W95084  12.288   9.633  13.715
29825W        W95085  13.401  37.101   2.367
29826W        W95086  27.689  16.494  10.842
29827W        W95087  11.702  26.224  11.203
29828W        W95088   1.993  44.545  11.090
29829W        W95089   2.570  36.935  14.310
29830W        W95090  29.027  39.787  12.802
29831W        W95091  22.103  16.568   1.879
29832W        W95092   8.095   8.086   2.045
29833W        W95093  33.466  17.635  13.365
29834W        W95094  42.560  43.028   2.730
29835W        W95095  39.334  26.622   0.477
29836W        W95096  17.220   8.642   0.315
29837W        W95097  24.215  31.161  12.090
29838W        W95098  37.595  13.777   3.664
29839W        W95099  16.179  16.041  12.333
29840W        W95100  39.124   6.235  12.941
29841W        W95101  34.511  40.726   1.809
29842W        W95102   0.448  44.026  14.808
29843W        W95103  41.770  29.106   3.265
29844W        W95104  40.261  31.705   4.895
29845W        W95105  16.483   7.308  11.627
29846W        W95106  12.645  29.651  13.224
29847W        W95107  34.250   7.136   2.288
29848W        W95108   0.087  25.107   2.230
29849W        W95109  42.237  41.705  10.934
29850W        W95110   3.155  43.703  12.357
29851W        W95111  38.063   2.711   3.409
29852W        W95112  39.953  16.265   2.225
29853W        W95113  16.095  33.404   1.959
29854W        W95114   4.059  41.096  10.994
29855W        W95115  44.402  41.451   4.692
29856W        W95116   5.799  17.211  12.306
29857W        W95117  29.161  25.785  12.052
29858W        W95118  14.584   5.336   0.511
29859W        W95119  33.956  13.108  11.860
29860W        W95120  37.410  35.975   3.830
29861W        W95121  24.605  18.829   0.626
29862W        W95122  33.957  39.516   1.808
29863W        W95123  34.417  10.771  12.883
29864W        W95124  29.608  24.538  12.079
29865W        W95125  11.634  20.232  13.466
29866W        W95126  16.712   6.213   0.385
29867W        W95127  20.458   2.418   3.164
29868W        W95128  27.081  20.563   3.682
29869W        W95129  20.734  26.174  14.475
29870W        W95130  44.081  26.399   1.329
29871W        W95131   2.850  43.417   3.727
29872W        W95132  32.594  40.154   3.164
29873W        W95133  16.901   9.795  12.527
29874W        W95134   9.922  17.838  11.438
29875W        W95135  16.092  13.277   3.259
29876W        W95136  12.929  32.835  14.953
29877W        W95137   5.388  21.111   5.121
29878W        W95138   6.213  13.123   2.816
29879W        W95139   9.593  27.643  10.432
29880W        W95140  37.661  13.394   3.325
29881W        W95141  35.436  36.324   1.865
29882W        W95142   4.660  36.573  10.421
29883W        W95143  34.320  30.765  12.471
29884W        W95144  31.738   1.885  13.071
29885W        W95145  37.900  41.133  12.455
29886W        W95146  25.067  11.883  13.989
29887W        W95147  26.667  25.186  12.467
29888W        W95148  34.424  21.615   2.795
29889W        W95149  29.098  17.138   2.445
29890W        W95150  12.535  41.242   0.528
29891W        W95151  28.083  43.443  14.286
29892W        W95152   3.362  36.787  14.855
29893W        W95153  28.914  15.027  10.807
29894W        W95154  29.168  12.416   2.285
29895W        W95155  22.026   5.518  14.627
29896W        W95156  30.145  10.743   0.828
29897W        W95157  26.780  17.522   4.033
29898W        W95158   6.147  35.951   3.728
29899W        W95159  33.153  16.536  11.662
29900W        W95160   2.869   6.364  13.626
29901W        W95161  44.563  12.054   0.390
29902W        W95162  13.755  43.066  14.904
29903W        W95163   0.881  12.828   1.479
29904W        W95164  19.162  31.014  11.694
29905W        W95165  38.664  11.040  13.779
29906W        W95166  23.850   8.465  11.006
29907W        W95167   6.667  10.028  13.819
29908W        W95168  15.666  23.648  10.651
29909W        W95169  15.223  36.663  11.198
29910W        W95170   5.290  39.250   1.424
29911W        W95171   4.646  17.919   4.535
29912W        W95172  41.624  34.788  11.144
29913W        W95173  39.869  36.260   2.016
29914W        W95174  36.026  41.297   0.664
29915W        W95175  44.824  18.465   0.455
29916W        W95176   2.913  39.850  14.828
29917W        W95177  19.700  40.559   3.870
29918W        W95178   8.182   4.260   4.966
29919W        W95179  24.987  30.192   3.829
29920W        W95180  23.741  20.681  13.140
29921W        W95181  21.733  40.201  11.330
29922W        W95182  23.075   0.169  11.610
29923W        W95183   7.230  10.770   2.827
29924W        W95184  40.767  42.595  14.152
29925W        W95185  41.919  30.007   0.749
29926W        W95186  34.197  22.690   1.236
29927W        W95187  39.973  26.949  10.450
29928W        W95188  34.575   3.428   2.439
29929W        W95189  14.367  23.814   0.639
29930W        W95190  32.379  18.080  11.765
29931W        W95191  20.031   1.280  14.571
29932W        W95192  28.799  25.373  13.922
29933W        W95193  25.557  32.131   0.753
29934W        W95194  40.396  15.205  14.479
29935W        W95195  14.236   1.750   4.268
29936W        W95196  18.014  26.620   0.433
29937W        W95197  40.115  39.040   4.625
29938W        W95198  24.204  22.080   1.924
29939W        W95199  22.548  18.881   2.355
29940W        W95200  37.150  41.624   1.301
29941W        W95201  43.921  20.800  10.580
29942W        W95202  33.028  33.854   1.541
29943W        W95203  29.376  27.085  10.414
29944W        W95204  20.506   4.290   5.374
29945W        W95205  31.225  44.330  11.554
29946W        W95206  32.702  26.711  12.609
29947W        W95207  17.968  16.055  13.929
29948W        W95208  18.708  10.767   2.996
29949W        W95209  12.651  20.581   3.293
29950W        W95210   0.936   3.241  14.611
29951W        W95211   7.855  40.299  10.854
29952W        W95212  28.245   1.468   2.584
29953W        W95213  16.172  20.076  14.098
29954W        W95214  18.717   1.407  14.075
29955W        W95215   9.283  33.149  14.572
29956W        W95216  21.135  35.292   4.557
29957W        W95217  24.802   9.859   4.150
29958W        W95218  23.794  39.916   0.770
29959W        W95219  10.706   9.339   0.445
29960W        W95220  43.582  28.700   0.462
29961W        W95221  36.034   1.012  13.009
29962W        W95222   1.733   1.427  11.979
29963W        W95223  23.874   3.196   4.527
29964W        W95224  21.702  35.088  12.936
29965W        W95225   2.452  15.241   3.697
29966W        W95226   2.193   8.047   0.787
29967W        W95227  24.148  36.369  13.947
29968W        W95228  21.120   6.542   3.643
29969W        W95229  26.612  17.181   2.396
29970W        W95230  28.123  22.175   3.328
29971W        W95231  40.983  32.889   3.894
29972W        W95232  21.618  13.911  13.480
29973W        W95233  12.099   1.509   0.372
29974W        W95234  24.503  32.175   3.615
29975W        W95235  31.133  31.803  13.479
29976W        W95236   2.148  30.393  11.726
29977W        W95237  40.577  21.298   2.716
29978W        W95238  29.163  26.889   1.532
29979W        W95239  26.134  11.834   1.783
29980W        W95240  42.021  36.583   3.266
29981W        W95241  38.942   3.313  11.447
29982W        W95242   1.801  13.701  13.936
29983W        W95243   4.141   8.763   2.651
29984W        W95244  28.213  32.599   4.177
29985W        W95245  44.410  21.149   0.313
29986W        W95246  25.709  40.677  11.154
29987W        W95247  44.005  14.820  10.315
29988W        W95248  16.855  15.685  11.115
29989W        W95249  14.129  22.077   4.560
29990W        W95250  32.010  36.995   0.011
29991W        W95251  35.117  23.313  11.744
29992W        W95252  11.293   4.410   4.186
29993W        W95253  30.607  24.266  13.488
29994W        W95254   7.804   3.798   3.765
29995W        W95255  34.413  18.684  11.046
29996W        W95256  10.253   5.556   1.863
29997W        W95257  43.789  37.874  13.024
29998W        W95258  24.262   4.136  14.141
29999W        W95259  22.481  39.459  14.081
30000W        W95260  41.210  17.036  13.825
30001W        W95261   3.973   2.851  12.132
30002W        W95262  36.142  39.347  13.040
30003W        W95263  14.400  11.298  12.823
30004W        W95264  43.279  40.516  13.877
30005W        W95265  31.502  12.209   3.373
30006W        W95266  21.587  36.616  12.526
30007W        W95267  19.516   0.046   3.737
30008W        W95268  20.244   4.438   0.504
30009W        W95269   0.298  26.622  10.312
30010W        W95270   1.359  44.457  12.446
30011W        W95271  26.138  29.751   3.329
30012W        W95272  25.782   7.223   3.333
30013W        W95273  28.100  37.779  14.950
30014W        W95274  34.941   0.432  13.446
30015W        W95275  38.308  29.854   1.282
30016W        W95276   4.705  38.503  11.578
30017W        W95277  29.431   3.439  12.366
30018W        W95278   0.365   1.326  10.477
30019W        W95279  11.761  32.313   4.148
30020W        W95280  26.954  12.356   3.637
30021W        W95281  19.665  29.887   4.283
30022W        W95282  15.192  35.280  11.612
30023W        W95283  14.303   0.011   1.304
30024W        W95284  19.211  23.254  12.085
30025W        W95285  33.095  17.743  10.577
30026W        W95286  24.637   0.219   3.300
30027W        W95287  34.413  10.392   0.750
30028W        W95288  13.218  30.224  11.462
30029W        W95289  44.806  20.807  11.644
30030W        W95290  38.771   8.993   2.744
30031W        W95291  16.153  27.653  11.909
30032W        W95292  36.056  26.668  13.259
30033W        W95293  11.256  39.610  13.918
30034W        W95294  23.437  15.746   0.943
30035W        W95295  43.080  36.804  13.337
30036W        W95296  31.903   9.282   4.765
30037W        W95297  19.430  17.474   3.246
30038W        W95298  42.474  11.700   0.389
30039W        W95299  14.120  24.035   4.273
30040W        W95300  44.401  11.124  13.355
30041W        W95301   2.663  30.188  13.428
30042W        W95302  33.622   6.032   1.404
30043W        W95303  33.492   8.212  12.965
30044W        W95304  28.097   1.805   2.103
30045W        W95305   4.912  20.052   4.200
30046W        W95306  33.376  36.417  10.542
30047W        W95307  19.735   6.381   3.821
30048W        W95308  17.185  18.591   5.150
30049W        W95309  11.165  33.487   2.085
30050W        W95310  35.070  29.946   2.811
30051W        W95311  37.568  40.424  13.032
30052W        W95312  24.181  22.556   1.703
30053W        W95313  40.079  27.881  11.550
30054W        W95314  19.797  41.540  13.423
30055W        W95315  10.395  41.012   3.080
30056W        W95316   7.942   9.222  10.646
30057W        W95317  44.936   0.728  14.518
30058W        W95318  16.424   6.954  12.347
30059W        W95319   4.453  40.317   4.634
30060W        W95320  40.288  42.287   1.403
30061W        W95321  10.582   3.506  14.183
30062W        W95322  33.428   9.996  12.469
30063W        W95323  41.219  12.590  13.816
30064W        W95324  41.888  34.155   3.266
30065W        W95325  42.014  39.194   0.857
30066W        W95326   5.211  13.168  14.437
30067W        W95327   5.777   9.775   1.294
30068W        W95328  37.361  42.330   1.810
30069W        W95329   6.359  22.533  12.637
30070W        W95330  22.170   2.507  13.503
30071W        W95331  40.989  12.652   3.487
30072W        W95332  23.132  12.197   1.136
30073W        W95333   0.213  35.372   2.959
30074W        W95334  29.054  13.681   1.350
30075W        W95335  13.338  39.517   2.363
30076W        W95336  42.472   9.328  13.799
30077W        W95337  39.634  21.466   2.686
30078W        W95338  16.024  24.030   2.354
30079W        W95339  34.201  43.433   2.813
30080W        W95340  27.028   6.114   3.122
30081W        W95341  18.623  12.937  13.006
30082W        W95342  13.168  13.587   3.256
30083W        W95343  44.943  43.468  10.697
30084W        W95344  18.614   2.392   0.641
30085W        W95345  21.940  19.675   0.688
30086W        W95346   3.767  22.776  13.904
30087W        W95347  37.736  21.440  12.911
30088W        W95348  32.897  23.485   3.350
30089W        W95349  38.452  26.095   0.295
30090W        W95350  34.198  41.850  12.928
30091W        W95351  26.113   7.742  14.740
30092W        W95352  15.611  43.518  12.618
30093W        W95353   5.719  44.890  14.269
30094W        W95354  24.588  14.027   3.227
30095W        W95355   0.727  12.550   2.795
30096W        W95356  15.720  24.554  11.495
30097W        W95357  41.626  43.967  11.579
30098W        W95358  23.936  31.256   2.945
30099W        W95359  41.775   8.733  14.370
30100W        W95360   0.494  10.394   4.638
30101W        W95361  30.584  21.229  14.060
30102W        W95362   9.023  39.403   2.242
30103W        W95363   5.175  25.585  14.508
30104W        W95364  17.356  30.555   0.346
30105W        W95365  24.549  11.431  14.999
30106W        W95366  25.292  40.900   4.670
30107W        W95367  43.920   5.373  11.652
30108W        W95368  34.651  19.710   3.745
30109W        W95369  37.926  23.161  12.046
30110W        W95370  41.515   6.984   1.326
30111W        W95371  23.457   6.371   4.011
30112W        W95372  35.773  10.162   4.113
30113W        W95373  20.481   8.555  13.877
30114W        W95374   6.858  25.276   4.140
30115W        W95375  14.141  37.879   0.835
30116W        W95376  30.623  40.117  12.416
30117W        W95377  41.373  19.365   3.817
30118W        W95378  24.236  43.081   4.883
30119W        W95379   0.502   4.640   4.013
30120W        W95380  28.054  19.654  10.079
30121W        W95381   8.236  17.522  13.906
30122W        W95382  25.244  34.107   1.646
30123W        W95383   5.648  25.018   3.769
30124W        W95384   9.722  25.178   3.985
30125W        W95385  26.588  14.139  11.073
30126W        W95386  13.315   0.918   0.142
30127W        W95387  36.049  24.667  12.008
30128W        W95388  39.722  26.393  11.229
30129W        W95389  13.637   0.820   3.464
30130W        W95390  38.143  27.202  11.201
30131W        W95391  10.809  33.311  13.858
30132W        W95392  29.622  36.691  13.291
30133W        W95393  36.961  21.282  11.861
30134W        W95394  39.894  22.620  14.757
30135W        W95395   2.561   0.808  10.496
30136W        W95396  19.511  10.864   0.657
30137W        W95397  33.973  16.714   4.493
30138W        W95398  32.165   2.866  14.386
30139W        W95399   3.358  15.799  14.376
30140W        W95400   9.370  30.541   0.772
30141W        W95401   1.245   6.697   3.309
30142W        W95402  37.433  34.323  14.908
30143W        W95403  12.808   8.405  14.941
30144W        W95404  17.631  25.523   2.916
30145W        W95405  11.335  27.612  12.825
30146W        W95406  40.050  40.093  13.982
30147W        W95407   3.936  20.986   1.961
30148W        W95408  11.838  23.774   2.763
30149W        W95409  33.160  44.337   4.070
30150W        W95410  14.748   7.317  14.991
30151W        W95411  38.777   8.499  11.579
30152W        W95412  44.316  42.850  14.023
30153W        W95413  10.008   9.144  11.546
30154W        W95414   5.864  16.112   4.006
30155W        W95415   6.446  37.876   1.988
30156W        W95416   8.641  41.213  11.036
30157W        W95417  19.493  44.235  11.113
30158W        W95418   5.086  20.401   3.441
30159W        W95419   4.307  21.578  11.000
30160W        W95420  10.720  22.167  10.692
30161W        W95421  13.367  10.811  11.390
30162W        W95422   1.926  44.135   0.021
30163W        W95423  23.536  38.564  11.145
30164W        W95424   9.356  14.188   0.396
30165W        W95425  35.806  12.209  12.483
30166W        W95426  30.916  28.389   2.360
30167W        W95427  11.372  38.421   3.718
30168W        W95428  35.365  41.058   0.424
30169W        W95429  10.680   4.014  13.350
30170W        W95430  15.558  14.100  13.381
30171W        W95431  44.935  36.523   0.259
30172W        W95432  32.933  13.151   0.980
30173W        W95433  21.072  10.727  11.940
30174W        W95434  16.327   4.222   2.262
30175W        W95435   3.827  43.931  13.449
30176W        W95436  37.789  11.092   4.181
30177W        W95437   0.791   6.725   2.667
30178W        W95438  16.878  31.431  14.313
30179W        W95439  31.358   6.704   3.272
30180W        W95440  15.502  24.085  13.493
30181W        W95441  21.189  11.498  13.008
30182W        W95442  15.825  41.846   3.212
30183W        W95443  21.211  30.627  14.841
30184W        W95444  13.449  35.903   0.038
30185W        W95445  13.797  15.559  13.062
30186W        W95446   4.319  15.109  11.543
30187W        W95447  18.740  13.685   3.403
30188W        W95448  29.817  30.599   1.897
30189W        W95449  40.983   6.325  14.323
30190W        W95450   0.672   7.366   3.125
30191W        W95451  14.994  21.299   1.686
30192W        W95452   8.619  24.057  14.008
30193W        W95453  16.701  14.631   1.836
30194W        W95454   6.501  33.689  12.378
30195W        W95455  43.794   8.050   0.001
30196W        W95456   9.138   5.768   3.761
30197W        W95457  23.817  13.233   0.445
30198W        W95458  34.507  25.396   2.875
30199W        W95459   8.644  36.280   1.316
30200W        W95460  17.131  38.951  10.032
30201W        W95461  39.003  19.084   2.812
30202W        W95462   9.433  29.522  12.291
30203W        W95463  10.314  43.392  10.375
30204W        W95464   3.380   5.481   4.611
30205W        W95465   3.157  22.302   3.194
30206W        W95466  18.185   8.223   3.294
30207W        W95467   3.805  10.244   1.869
30208W        W95468  21.194   6.734  12.774
30209W        W95469  18.825  43.273  12.074
30210W        W95470   2.505  20.528   2.534
30211W        W95471  32.845  15.888  14.936
30212W        W95472  11.846  12.099   3.634
30213W        W95473  16.269  42.449   0.919
30214W        W95474  18.082  16.356   1.992
30215W        W95475  11.125  17.120  14.115
30216W        W95476  44.711  15.154   1.855
30217W        W95477   8.817  21.049  14.519
30218W        W95478  33.928   3.822   3.812
30219W        W95479   0.446  29.621  14.034
30220W        W95480  28.131  10.140   3.360
30221W        W95481  27.215  29.461  12.186
30222W        W95482  11.874  13.813   3.702
30223W        W95483  24.037  12.234   0.516
30224W        W95484  25.717  16.773   0.888
30225W        W95485  37.462  13.340   4.586
30226W        W95486  14.073   6.205   4.188
30227W        W95487  28.723  40.612   2.339
30228W        W95488  33.621  37.025   0.428
30229W        W95489   4.155   8.206   1.927
30230W        W95490  23.803   5.885  14.550
30231W        W95491  21.055  23.819  13.631
30232W        W95492  20.488  40.356  12.563
30233W        W95493  12.174   9.947   4.297
30234W        W95494  29.955  27.498  11.468
30235W        W95495  37.794  32.955   3.748
30236W        W95496  27.824   3.189   3.207
30237W        W95497  43.654   2.628   4.201
30238W        W95498  43.997  24.190  11.053
30239W        W95499   4.989   2.323  13.895
30240W        W95500  14.978  40.161  11.039
30241W        W95501  39.039  38.549   1.872
30242W        W95502  15.494  14.139   1.797
30243W        W95503  22.171  29.360   3.183
30244W        W95504  29.851   6.365  14.719
30245W        W95505  29.077  13.380   0.931
30246W        W95506  11.879  13.645   0.901
30247W        W95507  18.785  25.804   2.305
30248W        W95508  13.363   2.862  10.838
30249W        W95509   3.054   8.105   5.153
30250W        W95510  17.658  39.734   1.041
30251W        W95511  40.766  11.829  11.624
30252W        W95512  15.586  38.482  14.900
30253W        W95513  17.299  18.029   4.149
30254W        W95514  32.934  18.522   1.925
30255W        W95515   5.196  10.380  12.442
30256W        W95516   6.819   9.459   4.320
30257W        W95517  11.459  14.770   3.585
30258W        W95518  13.109  26.176   3.678
30259W        W95519  26.052  15.885  13.036
30260W        W95520  10.435  33.369  11.297
30261W        W95521   0.213  38.727   1.236
30262W        W95522  42.201  20.605   0.246
30263W        W95523  20.729   7.585  13.795
30264W        W95524  20.137  27.129  10.965
30265W        W95525  36.322  43.903  10.320
30266W        W95526  44.877  16.809  14.285
30267W        W95527  25.616   4.534   3.301
30268W        W95528  15.876  30.236  10.693
30269W        W95529   1.048   0.668   0.233
30270W        W95530   1.895   1.534   3.322
30271W        W95531  42.363   4.495   3.538
30272W        W95532  30.680  10.543  10.154
30273W        W95533  39.470  12.593  13.406
30274W        W95534  19.230  36.953   0.629
30275W        W95535  44.985  40.279  13.988
30276W        W95536   0.931  33.147  12.111
30277W        W95537  28.055  20.078  13.393
30278W        W95538  17.061  36.138  13.981
30279W        W95539  27.419   7.743  10.618
30280W        W95540  31.235  11.669  14.716
30281W        W95541  38.093  36.129   1.417
30282W        W95542  27.860  26.127  14.488
30283W        W95543   2.798  19.164  11.195
30284W        W95544  16.390  21.024  14.550
30285W        W95545  10.290  34.746  10.485
30286W        W95546  10.400  41.988   0.684
30287W        W95547  18.022   3.669  12.723
30288W        W95548  11.225  20.346  13.978
30289W        W95549  21.412  29.158  11.569
30290W        W95550   1.283  17.701  10.942
30291W        W95551  13.981   1.867  11.477
30292W        W95552  12.172  33.462   0.028
30293W        W95553   7.309  10.333   3.955
30294W        W95554  33.882   3.797   9.775
30295W        W95555  21.951  34.023  14.378
30296W        W95556  29.699  27.216  14.861
30297W        W95557   4.522   5.535   1.954
30298W        W95558  44.862  39.299  13.026
30299W        W95559   7.271  26.761   0.339
30300W        W95560  23.077  27.363  10.545
30301W        W95561  44.300  40.718  11.368
30302W        W95562  31.370  40.535  13.564
30303W        W95563  29.375  19.071   1.816
30304W        W95564  33.028  10.772   3.914
30305W        W95565  40.622  36.089  11.184
30306W        W95566  29.323  43.882  13.606
30307W        W95567   8.856  37.028  12.531
30308W        W95568  14.413  38.452  11.144
30309W        W95569  12.102  43.361  14.788
30310W        W95570  14.823  36.139  13.541
30311W        W95571  30.173   2.672  14.513
30312W        W95572  12.175  28.190   2.177
30313W        W95573   7.802  40.380   1.365
30314W        W95574  31.365  40.089  14.449
30315W        W95575   3.434  42.401   2.797
30316W        W95576   1.333  28.227   2.404
30317W        W95577  44.375  27.472  11.442
30318W        W95578  19.546  44.014  13.495
30319W        W95579   7.066  19.275   3.641
30320W        W95580  26.976  25.195   3.878
30321W        W95581  18.145  35.981  10.733
30322W        W95582  30.259  24.555   1.632
30323W        W95583  13.046  12.880  12.339
30324W        W95584   8.002  16.293   3.772
30325W        W95585  32.284  31.468   4.204
30326W        W95586   6.150  28.794  10.214
30327W        W95587  14.926   9.805   2.847
30328W        W95588   4.335  27.016  13.722
30329W        W95589  28.496   7.916  13.634
30330W        W95590  38.829  28.793  14.811
30331W        W95591  15.347   4.771  11.992
30332W        W95592  33.037  41.296  14.966
30333W        W95593   7.694  19.134  14.562
30334W        W95594  27.708   4.432  14.413
30335W        W95595  18.584   8.642  14.312
30336W        W95596  34.878   3.915   3.911
30337W        W95597  42.399  33.504   2.909
30338W        W95598  44.293   9.261   0.902
30339W        W95599  32.774  15.667   2.740
30340W        W95600  44.840   1.167  11.208
30341W        W95601  17.299  43.795   1.552
30342W        W95602  28.525  26.225   4.066
30343W        W95603  23.137  37.096  14.531
30344W        W95604  39.989  25.033   1.761
30345W        W95605  42.800  15.410  12.031
30346W        W95606  20.194  16.425  11.034
30347W        W95607  33.027  37.231   4.597
30348W        W95608  14.103  30.679   3.595
30349W        W95609  42.390  31.017  11.197
30350W        W95610  31.197  27.585   4.417
30351W        W95611  20.094   5.406   3.735
30352W        W95612  16.258  15.428  11.987
30353W        W95613  29.160  21.469  12.362
30354W        W95614  10.805   9.802   0.229
30355W        W95615   0.784  30.238   0.076
30356W        W95616  11.606  29.006   1.410
30357W        W95617  18.457  25.398  14.977
30358W        W95618  18.824   6.867   4.738
30359W        W95619  35.475  32.449  14.466
30360W        W95620  38.963   9.465   2.380
30361W        W95621  33.816  24.515  14.388
30362W        W95622  15.353  36.953  14.091
30363W        W95623  25.571  42.550  12.520
30364W        W95624  29.894  42.277   3.731
30365W        W95625  42.841  10.604   2.774
30366W        W95626   8.572  39.568  11.693
30367W        W95627   5.663  18.322   3.148
30368W        W95628   6.166  12.291  14.026
30369W        W95629  11.860  42.820  11.989
30370W        W95630  25.221   0.984   3.214
30371W        W95631  31.648   7.926  13.525
30372W        W95632  30.900  11.873  13.337
30373W        W95633   0.703  20.298   4.860
30374W        W95634   5.995  17.041   0.377
30375W        W95635  38.850   8.349   4.100
30376W        W95636  41.024   4.290  10.646
30377W        W95637  18.678  37.401  11.920
30378W        W95638   0.223  37.922  10.328
30379W        W95639  25.681  33.167   1.036
30380W        W95640  34.341  40.974   2.301
30381W        W95641  32.384  34.449   4.716
30382W        W95642  44.356  41.921   1.892
30383W        W95643  44.456  36.602   2.263
30384W        W95644  18.159  14.331  10.848
30385W        W95645  27.748  22.070  12.518
30386W        W95646  26.542   4.227   9.953
30387W        W95647  35.530  32.375   2.291
30388W        W95648  25.867  13.913   1.876
30389W        W95649   7.627  39.851  10.717
30390W        W95650  37.907   8.561  11.426
30391W        W95651  19.148  39.599   0.623
30392W        W95652  41.201   6.677  13.502
30393W        W95653  18.133  22.854  14.609
30394W        W95654  44.929  39.753   1.272
30395W        W95655  22.814  11.444   4.284
30396W        W95656   2.039  40.766  11.933
30397W        W95657  41.079   1.616  11.469
30398W        W95658   2.563   2.317   3.072
30399W        W95659  12.380  16.693  12.827
30400W        W95660  28.672   4.931   2.465
30401W        W95661  24.683  39.417   5.769
30402W        W95662   8.464  36.400  11.580
30403W        W95663  37.464  21.091   4.558
30404W        W95664  32.528  37.490   2.168
30405W        W95665   3.124  16.894   1.317
30406W        W95666  28.090   8.346   3.117
30407W        W95667  39.479  28.871  11.536
30408W        W95668  16.966  39.830  11.900
30409W        W95669  29.117   6.371   3.166
30410W        W95670  37.488  36.821  14.086
30411W        W95671  19.330  11.853   2.220
30412W        W95672  43.896  36.632  13.551
30413W        W95673   2.991  11.339  13.986
30414W        W95674  31.565  22.988   0.864
30415W        W95675  16.325  43.732   2.730
30416W        W95676  36.445  21.308   0.285
30417W        W95677  38.322  19.554   4.518
30418W        W95678  16.281   0.924  13.382
30419W        W95679  19.700  36.892  10.980
30420W        W95680  34.481  42.981  10.534
30421W        W95681  28.993  22.652  11.242
30422W        W95682  17.703   5.257   4.552
30423W        W95683  28.448  17.473  14.111
30424W        W95684  19.128  37.498  12.672
30425W        W95685  27.714  30.002  11.459
30426W        W95686  30.452   9.788   4.600
30427W        W95687  36.065  44.736   4.664
30428W        W95688  17.181  30.351  12.511
30429W        W95689  12.575  31.709   2.300
30430W        W95690   7.390  29.865  14.779
30431W        W95691  37.499   8.295   3.291
30432W        W95692  14.807  36.230   1.252
30433W        W95693  15.702  11.424  10.663
30434W        W95694  18.621   1.033  13.347
30435W        W95695  31.548   0.440   1.919
30436W        W95696  19.923  25.748   4.938
30437W        W95697  41.335  35.615  14.456
30438W        W95698  38.282  27.655  11.983
30439W        W95699  28.444  43.965  12.840
30440W        W95700   3.282   6.368  12.836
30441W        W95701  35.883  11.057   3.821
30442W        W95702  10.830  39.447   2.016
30443W        W95703  44.808   6.456   4.736
30444W        W95704   8.607  13.270  13.856
30445W        W95705  40.510  35.105  13.363
30446W        W95706   0.723  11.751  12.967
30447W        W95707   1.461   8.772   0.788
30448W        W95708  39.012  26.662   1.676
30449W        W95709  27.018  13.089   0.357
30450W        W95710  28.062   1.279   2.123
30451W        W95711  14.535  10.808   1.698
30452W        W95712   9.490   2.215  13.826
30453W        W95713   5.166  18.998  14.056
30454W        W95714  13.101   1.738   4.578
30455W        W95715   2.383  21.292  14.378
30456W        W95716   7.980  15.697  12.047
30457W        W95717  32.380  36.643  13.877
30458W        W95718   3.276  13.102   1.874
30459W        W95719  33.659  36.465  14.373
30460W        W95720  40.292  27.411   4.627
30461W        W95721  17.360  24.134   3.583
30462W        W95722   3.729  19.090   3.332
30463W        W95723  18.854  29.932   2.784
30464W        W95724  42.856  24.554  13.873
30465W        W95725  20.322  17.883  14.003
30466W        W95726  17.087  33.639  13.845
30467W        W95727  27.704  43.054   0.501
30468W        W95728  36.846  34.597  12.736
30469W        W95729  15.893  10.411   0.325
30470W        W95730   6.190  21.788  13.954
30471W        W95731  21.544  31.228  11.506
30472W        W95732  11.769  13.926   4.214
30473W        W95733   9.180  38.130   3.656
30474W        W95734  31.094  21.148  10.394
30475W        W95735  32.144  29.624  14.317
30476W        W95736  23.738  17.197  14.571
30477W        W95737  25.599  34.793   0.016
30478W        W95738  37.410  43.707  11.196
30479W        W95739   9.163  26.741  13.889
30480W        W95740  19.236  17.367  14.795
30481W        W95741   4.850  18.546  12.363
30482W        W95742  30.098   9.726   3.120
30483W        W95743  33.005   2.024   0.872
30484W        W95744  35.926  11.134   2.187
30485W        W95745  11.446   1.390   3.065
30486W        W95746  32.176  38.770   1.683
30487W        W95747  14.028  21.667  10.962
30488W        W95748  15.259   9.259  13.969
30489W        W95749  24.215  25.476  10.701
30490W        W95750  25.145  23.389  13.522
30491W        W95751  35.090  24.350   4.264
30492W        W95752  41.025  33.421  13.436
30493W        W95753  34.767  37.878   2.336
30494W        W95754  41.015  44.873  11.978
30495W        W95755  33.994   1.020  14.734
30496W        W95756  32.095  44.713  11.589
30497W        W95757  16.854  44.290   3.649
30498W        W95758  34.901  35.462   1.731
30499W        W95759  29.136  28.549   4.168
30500W        W95760  38.280  18.613   2.301
30501W        W95761  38.338  40.782  13.576
30502W        W95762  26.853  25.688  11.619
30503W        W95763  43.311  25.760   0.379
30504W        W95764   1.548  11.739   1.442
30505W        W95765  18.581   9.116  13.862
30506W        W95766  11.650  22.436  14.187
30507W        W95767   0.686   8.338  10.729
30508W        W95768   2.308  43.097  11.651
30509W        W95769  16.271  24.143  14.694
30510W        W95770  44.126  40.902   0.862
30511W        W95771  12.088  32.925   3.749
30512W        W95772  23.947  41.545  14.750
30513W        W95773  20.173  10.067   1.953
30514W        W95774  22.710  37.203   5.055
30515W        W95775   6.958  24.186   3.255
30516W        W95776   3.940  43.953   0.932
30517W        W95777  44.403  17.153  10.905
30518W        W95778  16.669  41.061  14.893
30519W        W95779  33.067  37.592   0.357
30520W        W95780  13.445  42.809   2.914
30521W        W95781  31.530  25.013   2.993
30522W        W95782  41.826  30.099  14.856
30523W        W95783   8.345   9.834  11.424
30524W        W95784  21.125  24.741   1.950
30525W        W95785  12.327   4.907   1.345
30526W        W95786  11.777   1.030   1.271
30527W        W95787   9.602  35.074  11.796
30528W        W95788   6.806  22.482   1.387
30529W        W95789   4.503  36.289  14.424
30530W        W95790  26.975  38.608  12.540
30531W        W95791  43.477  38.831  11.533
30532W        W95792  12.303  44.431   3.202
30533W        W95793  21.701  34.371   1.906
30534W        W95794   1.650  34.208  14.442
30535W        W95795  33.472   1.759   0.753
30536W        W95796  12.804  16.292   3.087
30537W        W95797  24.698  36.920   1.645
30538W        W95798  11.279  20.198   1.772
30539W        W95799   6.955  15.711  12.076
30540W        W95800   3.759  12.634  14.865
30541W        W95801  15.238  44.534  14.138
30542W        W95802  44.377   1.457  11.385
30543W        W95803  33.617  13.205   3.713
30544W        W95804   2.161  41.637   4.484
30545W        W95805  15.632  25.571  11.282
30546W        W95806  31.012  35.401   1.957
30547W        W95807  12.652   6.030   2.766
30548W        W95808  23.668   3.197   3.774
30549W        W95809   9.142  11.613  12.025
30550W        W95810  41.100   8.307   2.570
30551W        W95811  39.378   1.642  14.419
30552W        W95812  19.260  35.753  14.944
30553W        W95813  35.285  26.696  14.774
30554W        W95814  16.762  14.793  11.968
30555W        W95815  21.856  10.669   0.898
30556W        W95816  18.066  38.565   1.848
30557W        W95817  31.028  42.464  12.663
30558W        W95818  32.679   0.410  11.025
30559W        W95819  25.603  33.442   1.477
30560W        W95820   2.710  34.339   2.697
30561W        W95821   9.904  31.200   3.298
30562W        W95822   2.672   8.754   3.809
30563W        W95823   4.634   0.054  13.998
30564W        W95824  31.204  29.595   3.790
30565W        W95825  35.462  14.068  12.364
30566W        W95826  41.599  18.698  13.420
30567W        W95827  18.202   9.743   2.149
30568W        W95828  39.979  13.800   1.359
30569W        W95829  37.190  18.280  10.212
30570W        W95830  16.162  23.231  11.510
30571W        W95831  23.057  38.150   3.109
30572W        W95832  11.460  30.327  12.525
30573W        W95833  15.354  39.374   0.300
30574W        W95834  19.035  11.140   2.787
30575W        W95835   5.533  11.249  10.694
30576W        W95836  11.269  22.447   2.851
30577W        W95837  19.076  43.799  14.836
30578W        W95838  30.344  15.032  12.449
30579W        W95839  35.488  22.404   1.110
30580W        W95840   1.782  21.188   2.715
30581W        W95841  31.988  42.290   0.396
30582W        W95842  37.329  10.246   3.166
30583W        W95843  13.208  24.960  10.420
30584W        W95844  36.142  40.023   2.209
30585W        W95845  25.080  10.184  13.405
30586W        W95846  34.463  43.862   4.250
30587W        W95847  12.353   8.221  14.707
30588W        W95848   5.301  34.563  14.981
30589W        W95849   4.615  14.925  14.907
30590W        W95850  34.619  14.283  11.861
30591W        W95851  10.789  16.772  11.489
30592W        W95852   1.506  10.172  13.996
30593W        W95853  35.442   5.160  10.751
30594W        W95854  27.736   2.459  14.560
30595W        W95855  33.830  37.143   1.851
30596W        W95856  12.869  31.974   3.660
30597W        W95857  23.745  11.292   1.240
30598W        W95858  17.812   1.352   0.076
30599W        W95859  26.612  42.640   3.659
30600W        W95860  23.099  35.826  12.515
30601W        W95861  17.479   8.026   2.822
30602W        W95862  21.711  43.772   2.533
30603W        W95863  15.058  13.153  14.841
30604W        W95864  29.447  11.143   1.165
30605W        W95865  44.274  13.248  14.848
30606W        W95866   4.159  43.929   2.822
30607W        W95867  41.534  19.556  13.768
30608W        W95868  22.699  43.376   4.491
30609W        W95869   8.897  40.841   0.197
30610W        W95870   0.223  42.484   4.744
30611W        W95871  14.836  16.958  11.636
30612W        W95872  33.952  18.249   0.774
30613W        W95873   3.461  33.583  10.600
30614W        W95874  10.845  40.234   2.062
30615W        W95875   4.356  11.419  12.057
30616W        W95876  41.491  37.470   1.756
30617W        W95877   2.824   5.970  10.629
30618W        W95878  26.661  31.090   2.385
30619W        W95879  20.203  24.138  14.062
30620W        W95880  30.977  17.548   0.886
30621W        W95881  17.687  14.126   0.541
30622W        W95882  39.334  28.610   4.425
30623W        W95883  20.612  24.187   2.713
30624W        W95884  40.523   2.802   4.235
30625W        W95885  38.906  42.049   2.232
30626W        W95886   4.224   9.927  11.766
30627W        W95887   0.225   5.341   3.845
30628W        W95888  42.308  16.080   3.933
30629W        W95889  41.824   2.213  11.115
30630W        W95890  32.047  14.636   1.318
30631W        W95891  39.991  40.397  12.672
30632W        W95892   7.971  41.478   0.714
30633W        W95893  22.995  29.080   2.145
30634W        W95894   5.718  24.986  10.693
30635W        W95895   9.604   6.306   5.661
30636W        W95896  42.751   4.914   3.498
30637W        W95897  15.161  17.987  14.798
30638W        W95898  43.976   8.374  14.423
30639W        W95899  10.207  33.712   2.365
30640W        W95900  22.664   2.274  13.504
30641W        W95901  30.469  25.107   3.138
30642W        W95902   5.322  39.459   3.297
30643W        W95903   9.329  27.078  11.499
30644W        W95904  31.419   0.386   0.444
30645W        W95905  14.786  30.192  14.526
30646W        W95906   7.336  33.095   1.640
30647W        W95907  36.462  23.814   5.149
30648W        W95908  24.877  20.692   0.366
30649W        W95909  38.283  37.417  10.264
30650W        W95910   2.407  25.661  14.599
30651W        W95911   3.546  12.897  13.443
30652W        W95912  32.156   9.264   0.069
30653W        W95913  32.601   2.514  11.705
30654W        W95914  39.568   6.689   3.660
30655W        W95915   8.335  38.110  14.529
30656W        W95916  38.605  13.827  11.075
30657W        W95917  10.132   0.197  11.144
30658W        W95918  36.037  18.808  13.366
30659W        W95919  37.214  43.888  14.017
30660W        W95920  33.560   4.265   4.991
30661W        W95921   6.167  32.622   0.440
30662W        W95922  11.757  21.742  12.979
30663W        W95923   0.408   4.250  11.481
30664W        W95924   3.316   9.941  12.043
30665W        W95925  20.191  11.158   0.895
30666W        W95926  42.769  10.369  14.432
30667W        W95927   4.471  32.140   3.656
30668W        W95928  25.533  16.698  10.657
30669W        W95929  40.503  23.905  10.993
30670W        W95930   5.672  11.737   1.258
30671W        W95931  14.284  12.778  13.272
30672W        W95932  33.379  14.909  12.010
30673W        W95933  19.629   7.664  13.294
30674W        W95934   8.920  27.740   0.163
30675W        W95935  12.042  40.873  11.945
30676W        W95936  11.342  40.482  12.402
30677W        W95937  13.077  17.677  12.546
30678W        W95938  33.465  41.932   3.649
30679W        W95939  36.418  18.261  11.911
30680W        W95940  13.906  19.678   3.164
30681W        W95941  16.317  25.228  12.526
30682W        W95942  33.127  37.847   0.914
30683W        W95943  37.344  11.607  13.841
30684W        W95944  35.059  13.549   2.742
30685W        W95945  37.140  18.292   0.288
30686W        W95946  37.763  36.834   3.353
30687W        W95947  38.867  13.210  13.822
30688W        W95948  14.874  33.454  11.615
30689W        W95949  37.457  26.814   3.291
30690W        W95950  24.025  39.638  10.272
30691W        W95951   3.206  33.984  13.496
30692W        W95952  31.662  43.547   4.770
30693W        W95953  19.186  40.358  13.807
30694W        W95954  22.264  34.451  14.542
30695W        W95955   5.490   6.443  13.362
30696W        W95956  13.833   9.887  13.399
30697W        W95957   0.193  31.046  13.949
30698W        W95958  32.642   3.340   0.254
30699W        W95959   7.824  16.292   0.198
30700W        W95960  37.457  18.702   0.256
30701W        W95961  44.333  19.465   1.840
30702W        W95962  39.883  14.796  13.825
30703W        W95963  41.169  43.487  12.983
30704W        W95964  37.450  34.331  11.589
30705W        W95965  36.766  44.851  10.208
30706W        W95966  23.952   2.637  10.380
30707W        W95967  15.106  15.074  11.463
30708W        W95968  16.366  15.298   3.205
30709W        W95969   8.854  29.021   3.221
30710W        W95970  36.937  41.408   3.138
30711W        W95971  20.184  28.602  13.012
30712W        W95972  12.720  21.802  13.915
30713W        W95973  36.130  34.208   1.015
30714W        W95974  40.527  31.174   4.174
30715W        W95975   8.622  17.959  10.150
30716W        W95976  13.821   7.713  11.990
30717W        W95977  44.693   9.829  13.812
30718W        W95978  41.425  27.131  13.084
30719W        W95979   7.263  22.483  14.866
30720W        W95980  22.858  26.424   1.153
30721W        W95981  20.569   3.023  13.822
30722W        W95982   3.497  36.816   4.602
30723W        W95983  29.092   3.449   4.980
30724W        W95984   2.883  14.359  11.270
30725W        W95985  35.239  30.006   0.429
30726W        W95986  23.179  14.798   4.388
30727W        W95987   6.136  29.817  10.232
30728W        W95988  12.887  23.101   1.539
30729W        W95989  35.385  28.340   1.907
30730W        W95990  32.707  14.872  11.220
30731W        W95991  22.240  32.867  13.850
30732W        W95992  12.087  18.692  14.791
30733W        W95993  26.597   1.842   4.505
30734W        W95994  35.412   0.456   1.833
30735W        W95995  18.447  36.583   0.395
30736W        W95996  38.474  22.549  11.746
30737W        W95997  10.898   4.830   1.527
30738W        W95998  13.159  23.988  14.073
30739W        W95999  24.008  44.622  10.393
30740W        W96000  32.454  35.023  11.232
30741W        W96001  44.463  27.171   0.249
30742W        W96002  31.708  32.856   1.982
30743W        W96003  41.112  21.353  10.560
30744W        W96004  24.506  44.989   4.606
30745W        W96005  20.699  41.474  10.517
30746W        W96006  28.101  20.968   1.928
30747W        W96007   1.517  13.790   1.791
30748W        W96008  35.626  38.114   2.650
30749W        W96009  24.994  30.872   1.749
30750W        W96010  30.695  27.434   3.656
30751W        W96011   1.286  41.353   1.011
30752W        W96012  10.050  30.947  13.177
30753W        W96013   6.551   8.167  14.968
30754W        W96014  42.525  41.592  12.529
30755W        W96015  14.134   8.244   4.909
30756W        W96016  17.276   4.424  10.694
30757W        W96017  30.507  22.472   3.473
30758W        W96018  29.099  20.938   4.058
30759W        W96019  18.679  38.834   3.708
30760W        W96020  38.574  35.510  14.275
30761W        W96021   7.916   5.502  11.626
30762W        W96022   6.398  43.885  13.316
30763W        W96023  30.909  16.127  14.965
30764W        W96024  12.644  20.658   4.357
30765W        W96025  20.555  38.499   1.849
30766W        W96026  15.252  28.426   0.049
30767W        W96027   7.811  14.542   1.897
30768W        W96028  39.250  35.021  13.878
30769W        W96029  11.795   1.510   4.399
30770W        W96030  15.231  30.883   0.804
30771W        W96031   2.984  22.444   0.029
30772W        W96032   7.811  17.328   3.552
30773W        W96033  34.055  41.409   2.224
30774W        W96034  37.632  41.551  13.632
30775W        W96035  22.489  43.397  13.964
30776W        W96036  20.845  12.829  14.544
30777W        W96037  10.597  36.153   4.571
30778W        W96038  42.223   5.415   4.020
30779W        W96039  10.249   2.181  11.075
30780W        W96040   8.964  12.290   1.872
30781W        W96041  42.955  11.575   1.255
30782W        W96042  21.936   1.867  12.136
30783W        W96043   6.362  42.962  10.689
30784W        W96044  16.487  16.924  12.046
30785W        W96045  13.566  21.820  11.047
30786W        W96046  21.849   5.095   2.695
30787W        W96047  29.588   9.115   3.745
30788W        W96048  35.289   0.427  11.233
30789W        W96049   9.344  16.962   4.579
30790W        W96050  40.658  30.424   0.814
30791W        W96051  26.518   3.812   0.746
30792W        W96052   5.873   1.445   1.065
30793W        W96053  35.923  35.904  13.410
30794W        W96054   5.910  15.494  14.025
30795W        W96055  32.696  11.691   3.095
30796W        W96056  28.734  21.279   4.178
30797W        W96057   9.946  24.204   3.965
30798W        W96058  13.219  29.576   3.193
30799W        W96059   2.143  12.034   2.843
30800W        W96060   6.823   3.953   3.817
30801W        W96061   7.177  31.468  11.788
30802W        W96062  16.990  27.699  11.604
30803W        W96063  27.104  43.628  14.930
30804W        W96064   7.138  15.138   2.681
30805W        W96065  23.207  26.830  11.305
30806W        W96066   4.518  13.376  11.354
30807W        W96067  16.023   4.392   3.219
30808W        W96068   9.240  20.255   0.755
30809W        W96069  27.622  22.554   4.095
30810W        W96070  32.448  32.204   4.740
30811W        W96071  15.183  42.295   4.525
30812W        W96072  23.704  14.581   3.113
30813W        W96073  17.379   6.892  10.769
30814W        W96074  32.867   7.905  11.056
30815W        W96075  14.696  14.638  12.106
30816W        W96076  38.482  37.837   0.989
30817W        W96077   1.737   8.263  13.488
30818W        W96078   0.783   8.867   3.186
30819W        W96079  33.655  35.528   2.700
30820W        W96080   6.414  25.544  10.503
30821W        W96081  41.773  12.103  12.323
30822W        W96082   8.218  39.778   0.873
30823W        W96083  10.505  17.718   2.791
30824W        W96084  41.486  37.220   2.341
30825W        W96085  23.565  13.229  12.377
30826W        W96086   0.846   1.771  12.019
30827W        W96087  20.122  11.539   4.531
30828W        W96088  35.313  14.953   4.202
30829W        W96089  44.476  23.543  13.306
30830W        W96090   9.343  43.298  14.291
30831W        W96091  13.193   8.194  10.291
30832W        W96092  24.619   8.473  10.774
30833W        W96093   4.756  44.166  13.757
30834W        W96094  35.004  18.301   2.850
30835W        W96095  40.068  26.637  11.571
30836W        W96096  28.422  37.607   0.416
30837W        W96097  42.546  16.955   4.359
30838W        W96098  12.478  26.649  12.787
30839W        W96099  32.898   9.384   3.631
30840W        W96100   0.113  24.024  14.349
30841W        W96101  25.443  15.767  11.035
30842W        W96102   9.862   6.727  14.132
30843W        W96103  17.814  31.308  11.403
30844W        W96104  13.412  19.919   0.884
30845W        W96105  24.577   6.428  14.664
30846W        W96106  33.047  13.048  10.988
30847W        W96107   5.362  42.880   1.021
30848W        W96108  14.353  34.296  12.423
30849W        W96109  37.370   7.952   4.433
30850W        W96110  14.314  28.055  14.518
30851W        W96111  40.500  24.118   3.167
30852W        W96112  19.022  12.867   0.822
30853W        W96113  17.111  18.813   1.464
30854W        W96114  33.057  35.542  12.385
30855W        W96115  14.758  44.057   3.517
30856W        W96116  24.573  25.403  12.609
30857W        W96117  13.180  10.867  10.400
30858W        W96118   5.851  36.277  14.240
30859W        W96119  28.009  12.121   4.240
30860W        W96120  38.392  44.087   0.268
30861W        W96121  39.883  13.695  11.406
30862W        W96122   0.752   0.451   0.928
30863W        W96123  41.083  24.467   3.419
30864W        W96124  39.854  18.098  13.817
30865W        W96125  10.943  19.546  12.029
30866W        W96126  35.557  33.147  14.359
30867W        W96127  36.001  39.808   0.841
30868W        W96128   5.936  22.303  14.919
30869W        W96129   1.404  15.751  12.239
30870W        W96130  16.590  26.364   0.327
30871W        W96131  28.145  37.821  13.014
30872W        W96132  19.954   5.440  12.660
30873W        W96133   4.260  10.591   0.930
30874W        W96134  37.975  36.578   4.974
30875W        W96135  21.861  40.390  12.924
30876W        W96136  14.473  19.821   2.211
30877W        W96137  40.347   7.764   2.630
30878W        W96138   7.717  12.492  14.488
30879W        W96139   2.446  44.605   4.346
30880W        W96140   9.236  27.596   2.255
30881W        W96141  20.945  12.851  13.971
30882W        W96142  20.548  28.660  12.419
30883W        W96143  44.403  24.428   3.612
30884W        W96144  23.674   2.767   4.713
30885W        W96145  41.981   6.832  10.475
30886W        W96146  31.871  36.989  12.495
30887W        W96147  21.257  16.358   1.948
30888W        W96148  31.706  11.765   3.218
30889W        W96149  35.841  29.235   3.746
30890W        W96150  23.852  19.356   4.471
30891W        W96151   3.396  15.251   3.110
30892W        W96152  19.255  41.869  14.016
30893W        W96153  33.789   6.408   1.805
30894W        W96154  12.863  10.388   0.353
30895W        W96155  18.350  29.371   4.525
30896W        W96156  17.071  39.866  12.792
30897W        W96157  22.964  18.417  13.609
30898W        W96158  20.272  34.126   0.920
30899W        W96159  38.102  36.958   4.639
30900W        W96160  33.252  20.392   1.329
30901W        W96161  16.554   4.211   3.426
30902W        W96162  13.260  29.584   2.156
30903W        W96163  14.533  44.816  12.551
30904W        W96164  14.759  34.542   2.859
30905W        W96165  16.314  42.511   3.836
30906W        W96166  41.900  41.035   1.241
30907W        W96167  21.664  30.661   2.207
30908W        W96168  33.036  31.196   1.295
30909W        W96169  17.728   2.344   2.679
30910W        W96170  26.109  28.227   0.408
30911W        W96171  14.960   2.190   1.639
30912W        W96172   6.311   2.736  11.513
30913W        W96173  25.567   4.785  12.286
30914W        W96174  33.841   7.651  12.949
30915W        W96175  32.094  37.898   0.915
30916W        W96176  19.956  26.629  10.674
30917W        W96177  32.058  21.583   3.892
30918W        W96178   9.296  11.431   2.953
30919W        W96179  37.829  35.304  11.547
30920W        W96180   2.933   9.607   2.783
30921W        W96181  26.444  24.242  11.531
30922W        W96182   8.729   3.878  12.746
30923W        W96183  17.113  36.768   0.717
30924W        W96184  31.791  40.496  14.372
30925W        W96185  13.021  32.283  14.857
30926W        W96186   2.734  29.479  10.946
30927W        W96187  13.770   6.977  13.925
30928W        W96188   3.724  35.118   1.915
30929W        W96189  11.565  12.631  13.967
30930W        W96190   8.128  31.918  12.589
30931W        W96191  34.444  29.349   4.683
30932W        W96192   4.349  24.048   2.826
30933W        W96193   5.567  11.271   1.001
30934W        W96194  42.261  21.486  11.177
30935W        W96195   4.859  26.983   4.743
30936W        W96196   4.376  16.728  12.876
30937W        W96197   8.858  14.326   4.092
30938W        W96198   1.344   7.669  14.851
30939W        W96199  14.384  10.662   1.199
30940W        W96200   2.521  44.843   3.590
30941W        W96201  41.602  19.216  10.531
30942W        W96202  18.884   0.511  14.302
30943W        W96203  13.338  16.263  12.149
30944W        W96204  10.009  21.715  14.908
30945W        W96205  33.160  35.371   2.691
30946W        W96206   3.697  11.603   5.170
30947W        W96207  18.135  20.980  11.294
30948W        W96208   4.305  36.788  11.933
30949W        W96209   7.511   2.800   1.935
30950W        W96210  11.082   1.930   4.645
30951W        W96211  10.925  13.840   2.354
30952W        W96212  35.818  27.547   0.507
30953W        W96213  41.786  44.044  12.482
30954W        W96214   5.157  14.757   4.815
30955W        W96215  19.335  43.361  12.031
30956W        W96216  29.048  32.956  11.904
30957W        W96217  33.498  44.770   2.570
30958W        W96218  34.125  22.328   1.594
30959W        W96219  28.436   3.392   3.826
30960W        W96220   6.865  37.756   1.171
30961W        W96221  43.570   5.806  12.316
30962W        W96222  39.139   6.800  13.420
30963W        W96223  29.504  27.914   2.224
30964W        W96224  43.038  41.609   3.581
30965W        W96225  30.325  24.813   4.466
30966W        W96226  18.732  27.732   2.165
30967W        W96227  36.912  28.512   4.553
30968W        W96228  19.132   7.329  14.945
30969W        W96229  13.215  18.545  10.740
30970W        W96230  40.240  16.810  13.736
30971W        W96231  21.132  40.927   4.128
30972W        W96232  30.086  15.213  13.709
30973W        W96233  22.952  10.388   0.872
30974W        W96234  44.777  30.976   1.432
30975W        W96235  19.470  29.029  13.381
30976W        W96236  27.997  22.675  11.463
30977W        W96237  40.911  43.258  13.411
30978W        W96238   5.762   0.233   3.198
30979W        W96239   8.437  24.066  12.623
30980W        W96240  14.525   4.920   2.861
30981W        W96241  37.456   2.460   2.242
30982W        W96242  26.538  13.221  12.020
30983W        W96243  11.250  32.645  13.378
30984W        W96244  34.567  44.692  11.330
30985W        W96245   4.447  32.555   4.131
30986W        W96246  29.522  35.724   4.124
30987W        W96247  12.847  14.379   2.432
30988W        W96248  37.038  20.495  12.022
30989W        W96249  40.338  44.037  14.299
30990W        W96250  29.401  18.342   2.366
30991W        W96251  31.348  30.419   9.922
30992W        W96252  30.636   7.410   0.809
30993W        W96253  38.359  21.556   3.926
30994W        W96254  42.515  13.869  10.759
30995W        W96255  26.233  30.829   0.252
30996W        W96256  18.066  34.428  11.102
30997W        W96257   5.326  27.249   0.461
30998W        W96258  40.231  33.149  12.585
30999W        W96259  38.830  21.045  10.140
31000W        W96260   5.291   4.509   0.245
31001W        W96261  34.600  32.999  12.060
31002W        W96262  36.987  26.030  12.356
31003W        W96263  10.606  39.883  10.792
31004W        W96264  39.559  36.998   2.791
31005W        W96265   3.861  41.269   4.661
31006W        W96266   3.169  28.037   3.784
31007W        W96267  18.162   8.899  14.116
31008W        W96268   3.798  17.997   0.747
31009W        W96269   2.316  17.987   4.341
31010W        W96270  35.833   8.846  14.961
31011W        W96271  40.242  21.176   4.576
31012W        W96272   1.734  34.713  10.738
31013W        W96273  42.571  29.529   1.775
31014W        W96274  33.042  16.041  13.850
31015W        W96275  20.050   1.319   2.776
31016W        W96276  22.630  17.604  12.633
31017W        W96277  16.424  11.929  11.586
31018W        W96278  32.294  39.918  13.522
31019W        W96279  28.453   0.417  13.734
31020W        W96280   2.981  21.754  13.426
31021W        W96281  29.405  28.237   0.289
31022W        W96282  15.314  31.666  13.975
31023W        W96283  36.515  14.708  12.159
31024W        W96284  16.585   1.745  14.296
31025W        W96285  33.026   6.161  10.616
31026W        W96286  33.637  27.643   1.248
31027W        W96287   6.361  37.857   3.260
31028W        W96288  36.630  11.277  12.925
31029W        W96289  23.025  32.393   2.700
31030W        W96290  34.679  14.805   1.433
31031W        W96291  12.201  18.799  11.628
31032W        W96292  27.365   2.516  14.920
31033W        W96293   6.290  17.121   4.329
31034W        W96294  39.552  41.259  11.212
31035W        W96295  27.457  29.969   3.671
31036W        W96296  30.823   3.690   0.365
31037W        W96297  39.036  35.446   3.732
31038W        W96298   9.187  25.179   1.816
31039W        W96299  22.553   6.774  12.144
31040W        W96300  40.336  38.806  12.063
31041W        W96301   0.707   7.843  12.624
31042W        W96302  42.758  16.794  11.466
31043W        W96303  28.409  12.875  14.455
31044W        W96304  41.844  32.302   0.835
31045W        W96305  12.379   6.162  12.480
31046W        W96306  36.244  44.025   2.812
31047W        W96307  27.741   0.709  11.165
31048W        W96308  40.274   7.794  10.990
31049W        W96309   0.491   1.001  11.639
31050W        W96310  18.692   5.698   0.391
31051W        W96311   1.501  10.489   3.703
31052W        W96312   8.871   0.883  14.262
31053W        W96313  33.953  22.853   4.163
31054W        W96314  20.212  41.644   0.010
31055W        W96315  14.957   7.736   5.028
31056W        W96316  38.897   8.880   4.169
31057W        W96317  24.078   1.698  13.031
31058W        W96318  35.441  33.153   4.099
31059W        W96319  42.860  32.389  13.342
31060W        W96320  28.124  18.166   0.994
31061W        W96321  27.915   3.801   0.973
31062W        W96322  30.908  37.726   0.808
31063W        W96323   3.066   5.238   1.444
31064W        W96324   1.146  41.512  10.232
31065W        W96325  40.326  30.876  11.930
31066W        W96326   4.610  44.796   1.392
31067W        W96327   7.567  25.647   2.365
31068W        W96328   9.033  42.136  13.613
31069W        W96329  24.874   7.356   1.480
31070W        W96330  40.353  37.809   1.562
31071W        W96331  19.839   5.312  13.154
31072W        W96332  36.106  15.582   1.367
31073W        W96333  16.793  11.499  14.101
31074W        W96334  11.614   2.828   0.477
31075W        W96335   1.277  27.535   4.591
31076W        W96336  28.449   3.738   1.010
31077W        W96337  40.505  42.498   2.483
31078W        W96338  16.876  24.485   2.191
31079W        W96339  16.535  33.227   3.318
31080W        W96340  10.911  23.066   1.478
31081W        W96341   3.175  36.848  12.745
31082W        W96342  34.392  39.449  13.998
31083W        W96343  26.915   1.850  11.073
31084W        W96344  35.876  35.427   3.229
31085W        W96345  36.157  14.602   4.024
31086W        W96346  17.408   2.418  11.498
31087W        W96347  37.783  35.495   3.262
31088W        W96348  24.004  14.382  13.427
31089W        W96349  15.668  43.254   3.153
31090W        W96350  10.255  34.285   2.348
31091W        W96351  23.724   6.161  12.445
31092W        W96352  18.615  31.388  14.001
31093W        W96353  26.530  15.605   0.300
31094W        W96354  24.796  25.526   1.293
31095W        W96355   5.908  20.434  14.007
31096W        W96356  40.904  18.472   1.180
31097W        W96357  42.402   8.802  13.612
31098W        W96358  38.767  38.317  12.870
31099W        W96359  12.360  41.844  12.109
31100W        W96360  32.458  19.621  13.868
31101W        W96361  11.869   6.428   1.746
31102W        W96362   2.588  10.718   1.402
31103W        W96363   8.016  19.146   1.726
31104W        W96364  15.384  35.616   4.231
31105W        W96365  36.144  29.573  12.512
31106W        W96366  11.909  14.703  14.952
31107W        W96367  42.568  41.349   2.255
31108W        W96368  19.935  29.486  11.781
31109W        W96369  35.403  22.655  14.378
31110W        W96370  27.038  18.160  14.924
31111W        W96371  29.331  16.740   4.502
31112W        W96372   7.710   4.417   3.669
31113W        W96373  22.367   7.273  11.008
31114W        W96374  34.793  19.684  11.727
31115W        W96375  36.243  24.247   4.917
31116W        W96376   3.497   1.750  11.118
31117W        W96377  25.282  17.592  11.668
31118W        W96378  16.621  38.213   1.124
31119W        W96379  10.828  18.021  14.850
31120W        W96380  35.328  22.233  12.637
31121W        W96381  26.360   6.582   0.502
31122W        W96382  12.442   7.635  14.691
31123W        W96383  38.391  16.808   4.382
31124W        W96384  13.445  42.192  13.188
31125W        W96385   4.788  38.377   4.625
31126W        W96386   0.790  17.745   0.772
31127W        W96387  18.562  25.620   2.836
31128W        W96388   5.513  40.845  13.035
31129W        W96389  30.077  12.884   2.340
31130W        W96390  35.978  26.447  14.713
31131W        W96391   9.327   5.883  14.057
31132W        W96392  39.291  12.560   2.776
31133W        W96393   2.352  37.604   3.225
31134W        W96394  26.082  16.778  11.944
31135W        W96395  16.467  24.730  13.922
31136W        W96396  23.718  25.920   2.948
31137W        W96397  20.201  17.752  11.987
31138W        W96398  32.104  28.094   0.376
31139W        W96399  35.867  22.058   2.927
31140W        W96400   9.283  16.585   4.245
31141W        W96401   1.827  35.630  12.881
31142W        W96402  27.641   3.885   2.784
31143W        W96403   5.735  17.561  14.796
31144W        W96404   1.707  32.173   1.241
31145W        W96405  38.542  10.164  10.795
31146W        W96406  14.237  22.018  12.973
31147W        W96407  44.264   3.243  13.842
31148W        W96408  44.634  22.500  14.908
31149W        W96409  35.070   5.343   1.390
31150W        W96410  12.649  28.176   1.152
31151W        W96411  12.655   5.155  11.144
31152W        W96412  32.514  13.854   3.925
31153W        W96413  32.623  18.804  12.120
31154W        W96414  44.390   0.779   3.261
31155W        W96415  42.211  18.381  11.509
31156W        W96416  19.558  20.124  12.039
31157W        W96417   6.378  25.703   3.737
31158W        W96418  17.830  30.269  12.920
31159W        W96419  20.043   4.870  11.972
31160W        W96420  35.131  15.232   2.767
31161W        W96421  18.017  11.265   4.026
31162W        W96422   5.807  12.183   2.648
31163W        W96423  41.105   0.538   2.437
31164W        W96424   8.994  38.925   5.369
31165W        W96425  31.413  38.909  12.457
31166W        W96426  41.925  35.760  10.902
31167W        W96427  33.018  44.209  11.671
31168W        W96428  35.353  26.927   0.295
31169W        W96429   6.490  26.746   3.513
31170W        W96430  30.325   2.500  12.088
31171W        W96431   2.160  16.745   1.209
31172W        W96432  43.039  18.236  14.984
31173W        W96433  25.786  36.480  13.512
31174W        W96434  39.135   9.470  11.461
31175W        W96435  20.261   2.688  13.468
31176W        W96436   3.747  38.616   4.175
31177W        W96437   5.867  29.515   0.232
31178W        W96438  28.543  44.267  14.452
31179W        W96439  24.098   8.393  14.769
31180W        W96440   1.695  10.214  11.480
31181W        W96441  11.784  36.041   4.149
31182W        W96442  43.588  41.254   1.391
31183W        W96443  19.010  25.121   5.198
31184W        W96444   4.702   5.941   2.267
31185W        W96445   8.334   1.349  14.943
31186W        W96446   9.575  28.581  12.001
31187W        W96447  43.368  22.576  14.439
31188W        W96448  17.025  15.325  14.831
31189W        W96449  18.757  32.442   3.287
31190W        W96450  35.264   7.304   1.852
31191W        W96451  41.193  28.093   3.778
31192W        W96452  33.758   7.276   0.496
31193W        W96453  32.519  23.449  14.395
31194W        W96454  18.126  13.199  14.804
31195W        W96455  37.940  34.874   3.156
31196W        W96456  23.377  32.274   0.358
31197W        W96457  12.218  26.447  14.221
31198W        W96458  27.411  43.862   1.073
31199W        W96459  30.019  34.641  13.586
31200W        W96460  44.216   2.634   0.749
31201W        W96461  36.296  28.737  12.055
31202W        W96462  18.981  18.345   1.768
31203W        W96463  41.579  31.448  12.946
31204W        W96464  35.885   7.496   3.491
31205W        W96465  32.858  14.732   1.715
31206W        W96466  43.727  36.553   3.613
31207W        W96467   9.819  10.844  13.091
31208W        W96468  22.469  31.739   1.673
31209W        W96469  36.923  19.301   0.245
31210W        W96470  39.608  12.341  11.314
31211W        W96471  37.304  11.240  11.200
31212W        W96472   3.674   9.301   3.228
31213W        W96473  36.501  14.076  12.989
31214W        W96474   1.480  33.928   3.163
31215W        W96475  31.874   9.679   0.308
31216W        W96476  21.967  16.102  10.174
31217W        W96477  21.748  23.403  12.550
31218W        W96478  12.600  31.609   1.410
31219W        W96479  41.967  16.041  12.037
31220W        W96480  43.163  26.255  13.963
31221W        W96481   6.788  29.102   2.044
31222W        W96482  40.107  27.880   2.193
31223W        W96483  42.079   1.232  14.857
31224W        W96484  34.016   2.535  14.292
31225W        W96485  26.668  39.078  10.548
31226W        W96486  15.836   0.016   0.328
31227W        W96487  19.829  25.150  14.947
31228W        W96488   2.819  14.144   0.442
31229W        W96489   3.009  41.528   2.954
31230W        W96490  36.929  19.281  12.486
31231W        W96491  26.749  33.538  12.886
31232W        W96492  40.529  15.700  10.496
31233W        W96493   8.791  43.776   0.726
31234W        W96494  13.821  17.229  12.595
31235W        W96495  31.244   0.135  14.997
31236W        W96496  34.505   0.346   2.053
31237W        W96497  29.172  41.469  11.172
31238W        W96498  10.376   5.625   0.463
31239W        W96499  30.749  31.871   1.340
31240W        W96500  23.729  17.964  14.787
31241W        W96501   9.646   4.644  10.799
31242W        W96502  26.080  15.668   4.805
31243W        W96503  34.932  20.676  10.761
31244W        W96504  16.948  37.516  12.176
31245W        W96505  28.358   4.392   4.492
31246W        W96506   6.383  38.606   2.717
31247W        W96507  18.266   9.808  14.477
31248W        W96508  22.298  14.137  10.562
31249W        W96509  37.843  19.525   3.208
31250W        W96510  11.464  15.415   1.166
31251W        W96511  20.558  28.219  11.587
31252W        W96512  31.851   6.487  13.871
31253W        W96513  16.753  23.646  13.802
31254W        W96514   4.912  18.552  13.397
31255W        W96515  30.338  39.756   1.789
31256W        W96516  12.790  38.017   1.711
31257W        W96517  11.953  41.781   3.364
31258W        W96518  26.400  36.345  12.815
31259W        W96519  15.662  25.692   4.172
31260W        W96520  18.309   6.809  14.767
31261W        W96521  32.217  18.616   9.572
31262W        W96522  22.447  39.862  11.487
31263W        W96523   2.687   6.224   3.745
31264W        W96524   2.781  35.437   1.276
31265W        W96525  15.585   3.884   4.121
31266W        W96526  40.463  13.715   3.184
31267W        W96527  35.921  24.540  14.509
31268W        W96528  41.269  34.421   1.344
31269W        W96529  11.032   9.987   1.188
31270W        W96530  24.309  11.292  13.579
31271W        W96531   1.254  34.107  11.157
31272W        W96532  42.612  28.122   2.208
31273W        W96533  23.652   1.762   3.749
31274W        W96534   4.885  36.539   2.293
31275W        W96535  44.687   7.648   3.067
31276W        W96536  35.781  41.736   4.122
31277W        W96537  20.664   7.869   3.096
31278W        W96538  12.290   8.904   2.229
31279W        W96539  17.292  44.542   3.770
31280W        W96540  14.697  38.920  13.422
31281W        W96541  32.958  28.450   0.482
31282W        W96542  40.517  22.214   3.113
31283W        W96543  34.575  13.542   2.928
31284W        W96544  24.453  18.643  14.745
31285W        W96545  29.587  10.283  13.800
31286W        W96546  12.846   9.905  12.872
31287W        W96547  26.481  38.041  11.517
31288W        W96548  29.941  11.838  14.551
31289W        W96549  27.047   5.116   2.858
31290W        W96550   9.088  14.490   3.632
31291W        W96551   9.171  20.755  12.109
31292W        W96552  21.769  36.639  13.714
31293W        W96553   9.468  11.190   0.963
31294W        W96554  44.793  23.124  11.142
31295W        W96555  31.014  38.064   4.875
31296W        W96556  10.718  13.135   4.390
31297W        W96557   0.871   5.486  13.780
31298W        W96558   5.664  18.487  11.896
31299W        W96559  36.786  25.709  12.702
31300W        W96560  40.865   1.901  11.852
31301W        W96561   2.863   9.232  10.502
31302W        W96562  22.209  26.143  14.770
31303W        W96563  39.983  27.654   1.731
31304W        W96564   3.736  39.110  11.149
31305W        W96565  22.910  14.435  13.876
31306W        W96566  10.557  16.064  10.756
31307W        W96567   9.826  10.375  13.801
31308W        W96568  37.405  27.147   4.851
31309W        W96569  38.779  27.952  11.036
31310W        W96570  12.240  21.520   0.759
31311W        W96571  31.848  23.438   4.440
31312W        W96572  20.207  27.416   1.911
31313W        W96573   3.949  17.654  12.972
31314W        W96574  20.041  31.154   4.620
31315W        W96575  40.081  15.334   0.389
31316W        W96576  41.997  20.627  13.971
31317W        W96577  35.541   7.897   3.649
31318W        W96578  33.957  32.391  11.617
31319W        W96579  38.517  22.082   0.430
31320W        W96580  20.547   0.789   4.252
31321W        W96581  10.314  39.100   4.750
31322W        W96582  30.050  39.436   1.025
31323W        W96583  43.981   3.382  10.928
31324W        W96584  21.466  15.609   4.286
31325W        W96585  13.661  27.831   4.643
31326W        W96586  38.342  38.628  10.970
31327W        W96587  19.326  44.978   2.790
31328W        W96588  28.628  18.782  14.884
31329W        W96589   9.342  18.571  13.262
31330W        W96590  19.465  35.062  11.217
31331W        W96591   5.933  31.462   0.728
31332W        W96592  10.061  25.519  14.411
31333W        W96593  15.094  28.231  11.804
31334W        W96594   0.732  44.773   3.199
31335W        W96595   0.486  13.542   0.197
31336W        W96596  26.709  16.694   1.807
31337W        W96597  35.892  21.122  13.997
31338W        W96598  21.699  41.508  12.120
31339W        W96599  15.654  19.231   0.965
31340W        W96600  38.119   3.224   2.595
31341W        W96601  29.165  17.658   0.544
31342W        W96602  17.591  24.737   3.625
31343W        W96603  38.854  11.827  14.299
31344W        W96604  20.810   5.174   2.793
31345W        W96605  16.816  38.012   3.181
31346W        W96606   9.975   0.463   3.635
31347W        W96607  34.867  10.219   3.250
31348W        W96608  29.488  40.331  14.070
31349W        W96609  44.350   1.492  10.354
31350W        W96610  19.724  21.120   3.725
31351W        W96611   2.015  37.277  10.749
31352W        W96612  36.562  12.902  14.429
31353W        W96613  37.419   1.945  12.562
31354W        W96614  31.583   4.056   4.730
31355W        W96615   9.164  34.033  11.535
31356W        W96616  21.027   4.819  11.899
31357W        W96617   1.048  11.130  11.113
31358W        W96618  31.076  19.206  10.606
31359W        W96619  27.947   8.001  11.960
31360W        W96620   5.924  39.969   1.236
31361W        W96621   8.778  20.468  13.917
31362W        W96622  35.048  33.340  11.609
31363W        W96623  34.028  32.655  14.838
31364W        W96624   7.304   1.485   1.232
31365W        W96625  10.758   1.023  11.600
31366W        W96626  27.796  40.376   3.396
31367W        W96627  19.775   6.222  11.653
31368W        W96628   2.980  40.622   0.210
31369W        W96629  34.086   9.182  11.622
31370W        W96630  24.956  29.525   4.383
31371W        W96631  41.494   6.214   3.991
31372W        W96632  24.974  31.992  12.445
31373W        W96633  20.045  27.508  10.619
31374W        W96634  17.943  32.627  12.814
31375W        W96635  37.784  30.085   3.183
31376W        W96636  29.694  27.726   3.571
31377W        W96637  41.454  40.508   0.981
31378W        W96638   5.209  15.668  11.677
31379W        W96639  27.697   0.565  11.654
31380W        W96640   3.808  10.733  13.960
31381W        W96641  19.183  29.895   4.565
31382W        W96642  41.174  34.634   1.836
31383W        W96643  36.331  13.149   0.334
31384W        W96644  37.904  42.872  11.254
31385W        W96645  17.582   7.871  14.288
31386W        W96646  18.359  29.179  12.120
31387W        W96647   0.743   7.756  13.979
31388W        W96648  11.655   8.356   4.052
31389W        W96649   4.353  40.887  11.914
31390W        W96650  12.711  42.483   4.922
31391W        W96651   2.229  34.480   3.452
31392W        W96652  23.779  29.512  13.040
31393W        W96653   1.509  17.708   1.227
31394W        W96654  28.709  14.217  12.975
31395W        W96655  35.471  38.627   1.422
31396W        W96656  20.560   2.386   0.825
31397W        W96657   3.675  32.615   3.669
31398W        W96658  24.247  21.263   0.474
31399W        W96659   8.329  20.728   3.636
31400W        W96660  44.488  12.478  14.444
31401W        W96661  33.104  43.432  13.900
31402W        W96662  27.085  13.396  10.687
31403W        W96663  42.736  26.204  12.924
31404W        W96664  18.339  15.121   2.155
31405W        W96665   0.879   2.344   0.715
31406W        W96666  18.098   1.638  14.721
31407W        W96667  43.280   4.927  13.970
31408W        W96668  11.930  24.510  10.542
31409W        W96669  22.181   5.021  14.544
31410W        W96670  42.936  22.473  12.683
31411W        W96671  20.929  30.797  14.405
31412W        W96672  18.914  42.421  10.361
31413W        W96673  42.283  42.465  12.892
31414W        W96674  38.667   7.923   3.844
31415W        W96675   7.532   6.985   3.798
31416W        W96676  18.121  41.355   1.318
31417W        W96677   0.451  20.806   2.356
31418W        W96678  35.841   8.342  11.877
31419W        W96679  14.137  24.666   2.764
31420W        W96680  41.884   1.237   0.901
31421W        W96681   5.417  14.567   2.392
31422W        W96682  42.327  25.675   3.078
31423W        W96683   3.828  31.148  12.576
31424W        W96684  42.891  23.225  11.823
31425W        W96685  37.094  24.490  13.151
31426W        W96686  25.863  32.108  11.523
31427W        W96687   2.750  42.945  12.545
31428W        W96688  34.983   4.455   3.256
31429W        W96689  14.335  37.494  10.576
31430W        W96690  24.269  32.238   0.334
31431W        W96691   6.149  28.813   0.494
31432W        W96692  27.316   4.308  12.799
31433W        W96693  43.017  12.959   4.734
31434W        W96694  41.090  39.090   0.863
31435W        W96695  37.088  13.278   4.226
31436W        W96696  30.111  23.601  13.961
31437W        W96697  35.805  29.198   4.622
31438W        W96698  10.682  17.255   2.692
31439W        W96699  21.788   3.258   0.792
31440W        W96700  42.529  26.253   0.433
31441W        W96701   2.932  21.851  12.545
31442W        W96702  23.410   1.081   5.372
31443W        W96703  33.679   2.752  11.362
31444W        W96704  25.499  25.330  11.029
31445W        W96705  23.289  29.006   3.150
31446W        W96706  23.251   0.914   0.690
31447W        W96707   5.849  25.956   5.479
31448W        W96708  17.750   8.770  13.821
31449W        W96709  16.701   4.708  13.034
31450W        W96710  11.429  15.454   0.376
31451W        W96711  32.928  13.823  14.563
31452W        W96712  25.893  25.603   4.085
31453W        W96713  31.514  23.889   2.329
31454W        W96714   3.719  44.494   4.308
31455W        W96715  17.106  36.480   0.210
31456W        W96716   2.208  42.313  12.551
31457W        W96717  12.824  41.054   1.852
31458W        W96718  36.442  12.606   4.601
31459W        W96719  14.776  15.956  12.140
31460W        W96720  15.107  13.510  13.888
31461W        W96721  43.891  13.254  12.600
31462W        W96722  40.548  17.438  11.645
31463W        W96723  14.801   1.526   3.785
31464W        W96724  16.581  19.098  12.890
31465W        W96725  42.717   3.400   4.877
31466W        W96726   7.213  11.906  12.319
31467W        W96727  31.882  27.606   0.321
31468W        W96728  35.841  19.492   2.276
31469W        W96729  14.390  20.286   0.948
31470W        W96730  26.535  31.238   0.434
31471W        W96731  14.422   8.247   1.779
31472W        W96732   7.727  17.720   0.093
31473W        W96733  21.041  18.545  11.931
31474W        W96734  14.172  18.268   0.008
31475W        W96735  14.745  32.500   4.671
31476W        W96736  13.296  30.081  10.463
31477W        W96737  43.240  17.614   2.708
31478W        W96738  38.422  30.556   2.681
31479W        W96739  17.955  32.165   0.271
31480W        W96740  41.101  22.347  14.330
31481W        W96741  21.180   2.533   4.557
31482W        W96742  21.986   2.719  13.049
31483W        W96743  40.521  35.098   5.000
31484W        W96744  21.514  34.586   1.421
31485W        W96745   8.695  41.383   1.461
31486W        W96746  25.629  28.087   2.618
31487W        W96747  29.403  26.184   0.364
31488W        W96748   0.833  21.780  12.104
31489W        W96749  24.850  11.100   3.432
31490W        W96750  28.337  30.218   1.819
31491W        W96751  12.752   6.644   0.342
31492W        W96752  37.547  24.415   4.380
31493W        W96753  37.192  16.506  12.099
31494W        W96754  19.160  23.524  10.128
31495W        W96755  10.939  20.110   0.363
31496W        W96756   6.202  25.093  10.670
31497W        W96757  21.997  40.698  11.993
31498W        W96758  40.106   1.724  10.187
31499W        W96759   7.315  29.381   0.320
31500W        W96760  35.582  22.105  10.779
31501W        W96761   4.667  36.126   1.256
31502W        W96762  33.812  24.471   0.272
31503W        W96763  28.529  14.998   2.159
31504W        W96764  22.468  44.868   1.781
31505W        W96765  35.079  23.814   4.228
31506W        W96766  42.867   7.398  13.000
31507W        W96767  34.449   9.951  13.498
31508W        W96768  30.652  42.064   3.812
31509W        W96769  10.263   1.886   4.111
31510W        W96770  15.743   5.447  12.471
31511W        W96771  38.400  32.498   0.421
31512W        W96772  43.739  35.036  13.423
31513W        W96773  35.401  44.531   3.568
31514W        W96774  30.211   2.208  11.085
31515W        W96775  31.166   1.858  13.133
31516W        W96776  39.638   2.603  12.881
31517W        W96777   6.180  19.994  10.497
31518W        W96778  33.628  41.931   0.556
31519W        W96779  41.014  22.379  12.492
31520W        W96780  41.397  24.762   3.079
31521W        W96781  30.334  29.486   3.991
31522W        W96782  36.956  21.036  12.849
31523W        W96783  31.581   3.163   2.094
31524W        W96784   6.855  40.411   2.373
31525W        W96785   8.172   7.196   0.913
31526W        W96786  20.594  35.481  10.664
31527W        W96787  26.751   8.955   1.587
31528W        W96788  44.207  42.385   1.668
31529W        W96789  27.411   2.789  14.259
31530W        W96790  43.330  29.130  14.599
31531W        W96791   5.749   3.366   4.092
31532W        W96792  43.008  16.700  11.889
31533W        W96793  29.531   0.104   4.018
31534W        W96794  14.036  15.392  10.980
31535W        W96795   1.871  15.743  14.855
31536W        W96796  34.465  13.119   2.173
31537W        W96797  14.259  44.443   3.200
31538W        W96798  18.545   8.287  12.435
31539W        W96799  34.900  25.979   9.593
31540W        W96800  16.812  22.847   3.224
31541W        W96801  44.174  24.667  10.994
31542W        W96802  36.465  36.792   0.062
31543W        W96803  10.839  21.462   3.611
31544W        W96804  25.932  14.188   0.902
31545W        W96805  15.101  23.597   2.805
31546W        W96806  34.541  29.089  12.376
31547W        W96807  14.171  14.253  11.684
31548W        W96808  22.740  43.825  12.002
31549W        W96809  33.478  39.338   1.643
31550W        W96810  20.733  24.744   3.610
31551W        W96811  28.610  16.764   1.736
31552W        W96812  27.684  23.125  11.172
31553W        W96813  15.151  37.228   2.925
31554W        W96814  10.724  13.580   0.372
31555W        W96815  17.030   4.659   1.263
31556W        W96816   3.246  38.534   4.290
31557W        W96817  44.379  11.825   2.846
31558W        W96818  12.857  22.129  14.767
31559W        W96819  14.388  38.093   4.122
31560W        W96820  29.649  30.453   0.949
31561W        W96821  16.556  43.768  12.951
31562W        W96822  35.547   5.123   1.426
31563W        W96823  44.715  26.981   4.497
31564W        W96824  19.005  13.117  13.811
31565W        W96825  34.226   6.737   1.965
31566W        W96826  19.205  27.719   2.835
31567W        W96827  39.519  15.673  14.811
31568W        W96828  11.706  41.860   2.846
31569W        W96829   4.359  28.310   5.012
31570W        W96830   1.688  22.116  14.427
31571W        W96831   7.310   2.977   0.519
31572W        W96832  34.874  15.285   2.304
31573W        W96833  17.099  28.631   2.863
31574W        W96834   1.460  39.306  11.187
31575W        W96835  35.398  20.504   0.409
31576W        W96836   3.397  14.337   0.527
31577W        W96837  30.970   4.361  12.446
31578W        W96838  22.394  23.072   3.245
31579W        W96839  13.879   9.519  14.940
31580W        W96840   0.910  20.012  12.993
31581W        W96841   0.610  36.257  14.449
31582W        W96842  34.124  24.131   4.350
31583W        W96843   3.755  18.854   2.130
31584W        W96844  11.055  20.230  11.352
31585W        W96845  36.387  31.618   0.981
31586W        W96846  43.464  44.882  13.535
31587W        W96847  33.089   3.912  14.768
31588W        W96848  42.207  29.529   0.867
31589W        W96849  44.225  32.010   2.237
31590W        W96850   4.734  16.047  11.181
31591W        W96851   7.338  26.013  11.958
31592W        W96852  36.193   6.187   2.139
31593W        W96853  29.638  24.618  14.930
31594W        W96854  15.328  41.618   0.318
31595W        W96855  18.492  16.189  13.989
31596W        W96856   0.492  17.562  11.282
31597W        W96857  19.049  38.502   4.849
31598W        W96858  34.714  24.618   4.914
31599W        W96859  20.842   9.806  11.131
31600W        W96860  42.265  31.022   0.810
31601W        W96861  41.915  41.285   0.758
31602W        W96862  26.937   7.979  10.699
31603W        W96863  17.778  16.139   0.691
31604W        W96864  39.721  15.296  10.583
31605W        W96865  22.208  17.646  14.045
31606W        W96866  38.292  37.408  13.922
31607W        W96867   8.696  16.762   3.053
31608W        W96868  41.969  20.164   4.742
31609W        W96869  11.601  16.772  13.284
31610W        W96870  28.941  24.995   1.549
31611W        W96871  11.035  14.461   1.899
31612W        W96872  25.720  20.161  14.828
31613W        W96873  14.742  23.479   0.816
31614W        W96874  34.056  14.268  13.377
31615W        W96875  18.201  30.015   1.418
31616W        W96876  18.090  33.128  10.719
31617W        W96877   0.991  26.035   1.814
31618W        W96878  23.024  16.614   0.811
31619W        W96879  13.369  43.327   3.778
31620W        W96880  23.359   2.221   2.075
31621W        W96881  13.382  19.502   1.380
31622W        W96882  27.813  19.056   2.491
31623W        W96883   8.644  43.008  13.415
31624W        W96884   5.689  43.927   2.841
31625W        W96885  43.491  33.946   0.391
31626W        W96886  23.779  21.765   1.798
31627W        W96887  23.612  39.490  12.003
31628W        W96888  20.557  28.503   0.963
31629W        W96889   0.383   9.917   3.789
31630W        W96890  25.987   6.510   4.121
31631W        W96891  32.187  20.802  12.351
31632W        W96892  13.196  33.314  12.842
31633W        W96893  44.736  24.461   1.398
31634W        W96894  43.311  35.074  10.676
31635W        W96895  28.955  39.875  14.806
31636W        W96896  15.641  19.128  10.667
31637W        W96897   0.464  43.904   0.315
31638W        W96898  14.152  44.013   0.189
31639W        W96899   2.167  34.906   0.664
31640W        W96900  41.912  19.640  13.321
31641W        W96901  43.872  14.200   0.060
31642W        W96902   0.993  36.010   2.809
31643W        W96903  43.602   8.162   1.389
31644W        W96904   7.656  18.912  10.857
31645W        W96905  41.793  43.067  13.417
31646W        W96906  25.064  16.204   3.258
31647W        W96907  10.638  28.570   4.087
31648W        W96908  13.368  34.639  10.638
31649W        W96909   0.445  16.140  14.434
31650W        W96910  15.297   4.746  14.161
31651W        W96911  39.034   4.938   2.897
31652W        W96912  30.825  13.065   1.320
31653W        W96913   0.030  14.442   4.465
31654W        W96914  17.403  26.742  12.590
31655W        W96915   9.409  32.164   3.823
31656W        W96916  27.578  29.037  10.560
31657W        W96917   3.321   7.418  12.042
31658W        W96918  28.198  11.967  13.492
31659W        W96919  14.297  40.344  14.242
31660W        W96920  27.033  37.544   3.209
31661W        W96921  18.789  14.024   2.982
31662W        W96922  19.507  35.412   2.980
31663W        W96923  19.626   5.361   2.122
31664W        W96924  14.306   5.018   3.647
31665W        W96925  37.963   2.476  14.940
31666W        W96926  21.224  12.265   3.672
31667W        W96927  11.315   6.229  12.414
31668W        W96928  30.516  28.682   2.115
31669W        W96929  43.097   3.369  14.471
31670W        W96930   6.955  18.864  14.926
31671W        W96931  43.908   4.723   3.164
31672W        W96932  24.478  22.855   3.655
31673W        W96933  44.307   9.228  12.851
31674W        W96934  32.542   9.890   0.009
31675W        W96935   3.259   6.264   1.380
31676W        W96936  33.021   1.014  14.710
31677W        W96937   6.197  39.897   2.135
31678W        W96938  36.847   2.856  11.549
31679W        W96939  23.203   7.886   0.265
31680W        W96940   1.505  33.847   0.312
31681W        W96941  32.665  36.557   4.310
31682W        W96942  13.761  11.856  12.517
31683W        W96943  17.636  25.711  13.490
31684W        W96944  28.394  12.375   1.944
31685W        W96945  20.746  11.233  11.975
31686W        W96946   0.913   3.333   1.574
31687W        W96947   3.846  12.599   4.340
31688W        W96948  34.909  36.394   1.845
31689W        W96949  14.075   0.948   0.344
31690W        W96950  15.067  12.387   1.758
31691W        W96951   8.337   0.281   4.659
31692W        W96952  21.941  34.991  11.923
31693W        W96953  29.980  33.785  10.981
31694W        W96954  14.027  36.471   1.699
31695W        W96955  28.034  38.205   2.623
31696W        W96956   7.756  19.696   3.357
31697W        W96957  25.249  35.658  12.193
31698W        W96958  43.991  28.116  11.538
31699W        W96959  44.078  39.453  13.505
31700W        W96960   4.195  23.022   3.610
31701W        W96961   9.195  39.409  14.927
31702W        W96962   5.907  10.288  14.274
31703W        W96963  14.208  30.146  13.451
31704W        W96964  24.742  34.846  12.234
31705W        W96965  24.630  40.462  12.782
31706W        W96966  32.630   8.840  13.922
31707W        W96967  19.417  23.749  13.737
31708W        W96968  14.726  13.398   1.486
31709W        W96969  21.931  29.864   2.252
31710W        W96970  41.229  34.796  11.485
31711W        W96971  17.987   7.965   2.887
31712W        W96972  24.582   9.524   0.553
31713W        W96973  21.211   6.316  13.579
31714W        W96974  39.458  16.222   2.416
31715W        W96975  27.947   7.198  10.987
31716W        W96976  42.377   4.893  14.940
31717W        W96977  41.593  34.919   1.771
31718W        W96978   4.711  41.293   3.298
31719W        W96979  42.454  21.017  12.620
31720W        W96980   0.679  39.871  12.827
31721W        W96981  31.528  16.097   2.797
31722W        W96982  14.533  28.412   3.105
31723W        W96983   6.299  42.455   3.628
31724W        W96984  18.588  22.917   0.723
31725W        W96985  35.562  41.255  14.721
31726W        W96986   8.150  22.117  12.809
31727W        W96987  16.140  19.902  12.166
31728W        W96988  27.165  11.325   2.659
31729W        W96989  14.494   4.933   1.700
31730W        W96990   8.849  15.600  14.263
31731W        W96991  23.478  18.643   1.808
31732W        W96992  33.958  29.601  14.786
31733W        W96993  18.055   7.358   2.641
31734W        W96994  43.526  31.901   2.729
31735W        W96995   7.531  16.242  14.551
31736W        W96996  25.120   5.151  14.766
31737W        W96997  42.368  40.909  11.252
31738W        W96998  43.197  12.131   3.054
31739W        W96999   0.092  14.897   2.201
31740W        W97000   7.282  30.440   0.334
31741W        W97001  41.759  36.754   2.402
31742W        W97002   7.971  22.455   0.313
31743W        W97003  12.902  42.995   0.702
31744W        W97004  12.174   4.945  14.569
31745W        W97005   9.790   6.907  13.432
31746W        W97006  39.921  26.127  11.641
31747W        W97007   2.389  33.317   0.973
31748W        W97008  12.798  32.194  13.816
31749W        W97009  39.903   0.446   2.680
31750W        W97010   7.793  16.954   3.177
31751W        W97011  14.807   7.847  14.961
31752W        W97012   3.867  35.471   0.409
31753W        W97013  12.124  41.385   0.915
31754W        W97014  29.112  19.543   3.124
31755W        W97015  41.020  32.230  11.614
31756W        W97016   1.950  40.518   2.460
31757W        W97017  44.093  29.431  12.922
31758W        W97018   3.793   3.412   4.083
31759W        W97019  22.632   5.205   0.910
31760W        W97020  13.777   1.252   3.155
31761W        W97021  40.591  11.464  12.436
31762W        W97022  27.638  36.151   3.993
31763W        W97023   4.834   6.485   4.998
31764W        W97024  44.572   0.273  12.044
31765W        W97025  41.778  40.027   4.746
31766W        W97026   3.934  11.864   2.401
31767W        W97027  39.196  41.532  11.966
31768W        W97028  38.547   7.271   1.252
31769W        W97029  32.638   6.884   1.303
31770W        W97030   0.842  33.785  12.456
31771W        W97031  31.644  27.606   4.716
31772W        W97032   9.805  21.980  12.010
31773W        W97033   2.689  15.602  11.611
31774W        W97034  31.590  10.247   2.869
31775W        W97035  29.080  28.719  10.327
31776W        W97036  40.610   6.252   2.610
31777W        W97037  24.935  32.695   2.264
31778W        W97038   4.811  28.125   3.820
31779W        W97039   0.350  12.536   2.457
31780W        W97040  20.167  19.879   0.374
31781W        W97041  41.411  14.791   2.883
31782W        W97042  22.012   1.585   4.998
31783W        W97043  17.780  20.873  12.313
31784W        W97044   4.704   3.692  13.289
31785W        W97045  41.495  34.305  12.479
31786W        W97046   4.311  23.561   1.881
31787W        W97047  27.748  33.943   1.720
31788W        W97048  10.477  36.446   1.723
31789W        W97049  40.056  25.983   1.720
31790W        W97050  26.025  40.058   1.658
31791W        W97051  26.913  10.264  14.518
31792W        W97052  13.608  33.976   4.614
31793W        W97053  41.780  26.184  14.394
31794W        W97054  31.094  42.325  13.151
31795W        W97055  18.229   6.749  12.898
31796W        W97056  44.896   1.000   1.949
31797W        W97057  13.319  29.150   4.373
31798W        W97058  15.631   0.203   2.200
31799W        W97059  35.390  11.252  11.271
31800W        W97060   5.524  34.963   3.419
31801W        W97061  15.334   0.140  11.102
31802W        W97062  29.017  16.084   4.692
31803W        W97063   3.357  14.971  14.144
31804W        W97064  32.385  22.295   5.121
31805W        W97065  26.492  43.061  12.478
31806W        W97066  26.784   1.970   3.157
31807W        W97067   2.937   1.949  12.030
31808W        W97068   5.338  18.088  13.988
31809W        W97069   8.545  32.135  11.161
31810W        W97070  21.618  35.422   3.730
31811W        W97071  36.426  36.975   2.249
31812W        W97072  30.643  32.869  14.528
31813W        W97073   5.254  39.075  14.625
31814W        W97074  34.630  28.886  13.395
31815W        W97075   9.225  41.231  12.621
31816W        W97076  33.441   8.957   4.234
31817W        W97077  28.500  42.218  11.109
31818W        W97078  31.589  24.009   1.795
31819W        W97079  41.213  21.457  12.658
31820W        W97080   9.900  43.138   1.200
31821W        W97081  35.107   8.466   5.074
31822W        W97082  40.070  44.708   2.247
31823W        W97083  15.838  32.449   3.319
31824W        W97084   0.520   7.308  13.805
31825W        W97085  19.077   6.895  12.356
31826W        W97086  22.619  40.192  11.103
31827W        W97087  28.740  31.029   3.604
31828W        W97088  26.640  21.174  10.896
31829W        W97089   0.360  19.672   1.637
31830W        W97090   6.835  28.505   3.995
31831W        W97091  27.580  23.469  13.634
31832W        W97092   8.987  12.242  14.544
31833W        W97093  42.753   2.294  14.934
31834W        W97094  33.482  42.856   4.210
31835W        W97095  24.774  30.121   1.264
31836W        W97096  42.729  35.468  13.086
31837W        W97097  22.317  19.339  13.506
31838W        W97098  35.733  33.152   1.832
31839W        W97099  23.694  40.400  13.361
31840W        W97100  44.885  16.257  12.969
31841W        W97101  21.590  28.230  11.574
31842W        W97102   5.332  20.152  12.143
31843W        W97103  38.842  20.106  14.389
31844W        W97104   5.426  17.741  14.392
31845W        W97105  21.438  43.996  14.900
31846W        W97106   0.079   4.835  13.744
31847W        W97107  34.677  15.933   1.672
31848W        W97108   3.905  38.085   0.889
31849W        W97109  16.364  13.050  12.374
31850W        W97110  31.425   3.391  11.721
31851W        W97111   7.205  16.360   0.917
31852W        W97112  10.924  18.723   1.284
31853W        W97113  13.031  38.809   1.962
31854W        W97114  19.222   1.397  13.960
31855W        W97115  22.607  15.594  12.953
31856W        W97116  25.419  32.994   3.320
31857W        W97117  24.392   3.205   1.770
31858W        W97118  44.341  12.626  12.143
31859W        W97119  39.931  44.422  11.996
31860W        W97120  17.620   4.371   2.768
31861W        W97121  33.022  32.010  11.119
31862W        W97122   1.439  35.853   3.068
31863W        W97123  16.622  40.141  12.832
31864W        W97124  17.516  17.095   1.825
31865W        W97125  40.313   8.263   1.450
31866W        W97126  12.833  20.803   0.691
31867W        W97127   0.425  44.898   0.162
31868W        W97128  22.009  10.721   2.433
31869W        W97129   3.339  15.283   4.683
31870W        W97130   5.017  42.906  10.402
31871W        W97131  30.622  30.954  14.460
31872W        W97132  25.633  43.626  12.359
31873W        W97133  43.303   0.560   0.862
31874W        W97134   5.514  17.075  11.074
31875W        W97135  40.004   1.484  13.314
31876W        W97136  13.772   4.797   3.562
31877W        W97137  40.542  44.093   2.643
31878W        W97138  38.560  20.264   0.659
31879W        W97139  34.560  22.490   0.934
31880W        W97140  12.234  40.817   3.644
31881W        W97141  40.360  17.749  12.088
31882W        W97142  14.520   2.422   1.791
31883W        W97143   7.707  44.938  13.417
31884W        W97144  13.676  27.100  12.329
31885W        W97145   7.953  38.700   3.536
31886W        W97146   3.702  21.297   0.529
31887W        W97147  10.706  21.304  12.980
31888W        W97148  32.958   1.859   1.370
31889W        W97149  31.141  11.346   3.566
31890W        W97150  14.667  34.944   3.591
31891W        W97151  12.452  38.591   0.843
31892W        W97152   4.877  34.111   1.830
31893W        W97153  14.112   4.639  14.501
31894W        W97154  36.543  34.780   0.334
31895W        W97155  43.900  40.709  12.132
31896W        W97156   8.139  18.205  12.988
31897W        W97157   3.027  41.915  12.374
31898W        W97158  44.256   6.320  10.416
31899W        W97159  12.818  29.925  12.837
31900W        W97160  11.024  41.808  13.093
31901W        W97161  40.839  10.377   1.321
31902W        W97162  22.737  40.443  10.672
31903W        W97163  34.981  14.591  11.644
31904W        W97164  12.833  41.787  13.779
31905W        W97165  40.289  27.679   0.374
31906W        W97166   4.128  33.974   4.741
31907W        W97167   4.771  30.434  14.528
31908W        W97168  14.735  15.529  10.672
31909W        W97169  18.950   3.253   1.267
31910W        W97170  41.916  30.925   3.290
31911W        W97171  44.558  31.382  12.179
31912W        W97172  24.280  28.124   4.928
31913W        W97173  38.952  44.571  11.956
31914W        W97174  29.051  35.954   4.174
31915W        W97175  14.711  28.834  12.162
31916W        W97176  43.428  29.513  12.219
31917W        W97177  25.101  10.124   0.295
31918W        W97178   8.901   0.258  13.058
31919W        W97179  27.134  42.238  11.833
31920W        W97180  31.018  26.156   1.582
31921W        W97181  23.068  28.682   1.437
31922W        W97182   5.825  15.533   1.665
31923W        W97183  19.330  14.343  14.357
31924W        W97184  14.498  14.550  12.566
31925W        W97185  26.651   2.513   0.467
31926W        W97186  26.006   6.326   0.834
31927W        W97187   8.470   8.904  14.426
31928W        W97188   9.749  12.920  10.994
31929W        W97189  37.877  22.412  14.849
31930W        W97190  29.142  41.252  10.713
31931W        W97191  12.384  16.011   3.226
31932W        W97192  34.344  26.750  12.980
31933W        W97193  19.788  28.622   2.812
31934W        W97194  35.866  36.624  12.946
31935W        W97195  37.882  30.927   3.495
31936W        W97196  32.040   1.540   4.152
31937W        W97197  33.982  19.287  13.776
31938W        W97198   4.018  41.529   0.848
31939W        W97199  21.035  16.773  11.559
31940W        W97200  12.345  30.508   3.062
31941W        W97201  33.598  20.477   0.270
31942W        W97202  39.081  41.416  13.522
31943W        W97203  17.513   5.656  11.202
31944W        W97204   3.380  43.746  13.658
31945W        W97205   8.633  44.385  10.752
31946W        W97206  27.675  27.181  13.612
31947W        W97207  31.647  32.409  11.907
31948W        W97208  20.164  17.015   2.334
31949W        W97209  29.139  28.444   1.644
31950W        W97210  44.008  39.830   2.718
31951W        W97211  43.343   4.910  10.513
31952W        W97212   8.891  16.666   4.575
31953W        W97213   8.360   1.792   3.143
31954W        W97214  38.285   5.778  13.927
31955W        W97215  14.817  27.592  14.740
31956W        W97216  37.886  44.829   4.341
31957W        W97217  22.170  19.593   5.136
31958W        W97218  40.973  42.769   1.370
31959W        W97219  44.004  33.868   2.242
31960W        W97220   8.091  26.242   1.885
31961W        W97221   8.442  37.609  10.658
31962W        W97222  16.663  11.351   4.598
31963W        W97223  16.181  25.618  12.056
31964W        W97224  19.100   0.373  14.748
31965W        W97225  24.211   1.564  13.845
31966W        W97226  13.096  29.852   1.748
31967W        W97227  30.098  28.034  14.420
31968W        W97228  12.011  23.234   0.016
31969W        W97229   7.329   0.710   3.617
31970W        W97230  23.059  38.966   1.618
31971W        W97231  20.780  33.630  14.376
31972W        W97232  12.087  40.025   2.257
31973W        W97233  10.424   9.307  13.022
31974W        W97234  33.612  41.370  10.704
31975W        W97235   3.246   9.103   2.339
31976W        W97236   8.859  20.580   0.947
31977W        W97237   6.319  36.525  10.660
31978W        W97238   3.263   1.183   4.678
31979W        W97239  30.174   9.250   2.203
31980W        W97240  28.541   6.636  11.147
31981W        W97241  18.404  12.317   2.392
31982W        W97242  17.672  35.898  10.964
31983W        W97243  26.562  31.657  11.985
31984W        W97244   3.049  14.192   0.908
31985W        W97245   5.402   4.944   2.793
31986W        W97246   2.148  19.124  13.897
31987W        W97247  18.369  29.171   0.312
31988W        W97248   3.738  38.383   4.628
31989W        W97249  44.212  44.853   0.714
31990W        W97250  18.752  20.706   9.929
31991W        W97251  27.995  18.024  13.065
31992W        W97252  14.577   2.318  11.107
31993W        W97253   3.368  42.697  14.918
31994W        W97254  35.612  25.151   1.189
31995W        W97255   8.707   9.296   0.404
31996W        W97256   0.987   7.766  10.760
31997W        W97257  31.968  38.604   2.728
31998W        W97258  44.922  33.426  11.027
31999W        W97259  24.270  42.904   1.287
32000W        W97260  20.349  16.573   3.342
32001W        W97261   8.161  16.739   2.853
32002W        W97262   7.919  10.459   1.789
32003W        W97263  35.021  22.533  14.799
32004W        W97264  11.834  27.557  12.016
32005W        W97265   4.866  38.529  13.929
32006W        W97266  43.492  41.792  10.339
32007W        W97267  32.193  23.442  13.984
32008W        W97268  27.461  40.781  14.468
32009W        W97269  28.454  18.186   4.212
32010W        W97270  10.725  30.193  14.367
32011W        W97271  38.270  26.158  14.306
32012W        W97272   0.195  19.564   0.684
32013W        W97273  17.555   8.853  10.379
32014W        W97274  33.447  12.694  12.991
32015W        W97275  37.880  34.631   0.327
32016W        W97276  36.287   4.438   1.864
32017W        W97277  23.669   8.665  13.570
32018W        W97278   6.761   0.667  11.122
32019W        W97279   5.794  36.283   4.667
32020W        W97280  18.147  25.244  10.704
32021W        W97281  43.765  38.398  10.892
32022W        W97282   0.528  27.510  13.978
32023W        W97283  14.374  22.266  13.424
32024W        W97284  38.572  38.540  12.398
32025W        W97285   4.961   8.075   3.277
32026W        W97286  27.509  32.618  13.400
32027W        W97287  27.918  37.434   0.279
32028W        W97288  27.535  38.794   1.799
32029W        W97289  34.044   8.881   1.336
32030W        W97290  18.002  31.204   3.396
32031W        W97291  36.674  11.764  14.947
32032W        W97292  17.394  23.056   2.351
32033W        W97293  27.234   7.885  13.842
32034W        W97294  24.045  42.525   2.629
32035W        W97295  15.335  19.715  12.728
32036W        W97296   7.862  13.932   1.174
32037W        W97297  12.030  36.892  12.029
32038W        W97298  10.840  29.825   9.690
32039W        W97299  12.051  38.964   0.767
32040W        W97300   9.362  44.495   0.015
32041W        W97301  26.878  39.854   4.023
32042W        W97302  10.901  19.597  13.497
32043W        W97303   4.430  19.056   4.117
32044W        W97304  41.299  16.557  10.732
32045W        W97305  33.028  25.798  12.058
32046W        W97306  15.759  10.124  11.983
32047W        W97307  29.618  23.038  10.918
32048W        W97308   0.397   0.705   3.316
32049W        W97309  23.827  36.749  10.800
32050W        W97310  37.405  36.147  10.311
32051W        W97311  14.245  42.417  12.583
32052W        W97312  13.684  43.613  10.776
32053W        W97313  15.792   7.318   4.192
32054W        W97314  13.872  31.541   0.915
32055W        W97315  43.560   5.019   0.858
32056W        W97316  30.406   1.249  13.088
32057W        W97317  16.681  26.982   3.544
32058W        W97318  39.406  24.494  12.143
32059W        W97319   6.643  42.355   1.675
32060W        W97320  39.599  41.882  14.112
32061W        W97321  24.416  41.295   2.322
32062W        W97322  36.881  37.474  11.491
32063W        W97323  14.211  43.721   0.653
32064W        W97324  26.620  26.089  10.341
32065W        W97325  12.864   0.345   2.163
32066W        W97326  11.203  10.321  14.382
32067W        W97327  14.174  26.074   0.529
32068W        W97328   5.881  30.127   1.453
32069W        W97329  15.379  20.661  12.438
32070W        W97330  41.726  39.341  14.545
32071W        W97331  36.161  24.093  14.426
32072W        W97332  21.684   1.959   2.813
32073W        W97333   6.567  23.744  14.118
32074W        W97334  43.011   6.239   2.007
32075W        W97335  26.058  23.833   2.834
32076W        W97336   0.410  31.622  11.643
32077W        W97337  11.374  11.040  14.874
32078W        W97338  15.883   6.772  11.876
32079W        W97339  41.378   5.957  12.961
32080W        W97340  28.607   1.335  14.861
32081W        W97341   0.442  25.432  14.582
32082W        W97342   6.368   8.982   5.052
32083W        W97343  39.045  16.839  12.419
32084W        W97344  25.363  36.806  12.177
32085W        W97345  39.025  27.437   3.344
32086W        W97346  36.229  18.247   0.402
32087W        W97347  26.587  44.874   1.113
32088W        W97348  11.647  22.656  10.340
32089W        W97349  22.661  14.308  11.109
32090W        W97350   0.865  21.238  12.128
32091W        W97351  42.094  37.932  12.658
32092W        W97352  42.040   0.374  12.521
32093W        W97353   4.356   7.860  12.952
32094W        W97354  22.269  29.881   4.125
32095W        W97355   5.003   4.816   3.349
32096W        W97356  25.095   6.287  14.751
32097W        W97357  36.085  35.985  11.640
32098W        W97358  28.534  26.376  13.969
32099W        W97359  16.220  16.985  10.632
32100W        W97360   1.828  41.635   4.867
32101W        W97361  29.161   1.015   2.881
32102W        W97362  31.373  34.059  13.590
32103W        W97363   7.168  34.761  11.172
32104W        W97364  36.153  36.612   2.815
32105W        W97365  20.846   6.904   3.399
32106W        W97366  25.574  44.821  14.843
32107W        W97367   0.666  24.413  10.259
32108W        W97368  10.433  25.987   0.496
32109W        W97369   8.242  11.794   1.656
32110W        W97370  30.882  28.425   1.434
32111W        W97371   2.825   5.716   3.736
32112W        W97372  44.464  32.594   4.096
32113W        W97373   0.853  23.916   2.349
32114W        W97374   3.060   8.164   4.257
32115W        W97375  27.017   7.456  10.741
32116W        W97376  36.435   5.261  14.985
32117W        W97377  10.338  32.100   0.703
32118W        W97378  10.355  38.357  10.898
32119W        W97379   0.049  23.818   3.065
32120W        W97380  36.528  28.025   2.671
32121W        W97381  25.616   5.577   1.331
32122W        W97382  16.813  25.498   2.261
32123W        W97383   8.333  13.034  11.669
32124W        W97384   6.224  11.571  14.292
32125W        W97385  11.435  19.774  12.453
32126W        W97386  11.846   3.718   3.858
32127W        W97387  31.101   1.673  11.152
32128W        W97388  36.880   5.904   4.855
32129W        W97389   4.984   6.761   1.492
32130W        W97390  19.223  11.782  13.298
32131W        W97391  25.656  21.639  13.820
32132W        W97392  29.284  19.668   0.475
32133W        W97393  28.606   8.314  13.353
32134W        W97394  13.652  24.387   2.258
32135W        W97395   7.156  30.755  14.874
32136W        W97396  18.678  23.016   4.220
32137W        W97397  26.972   6.938  13.361
32138W        W97398   2.355  34.039  12.225
32139W        W97399  40.930   4.402  14.781
32140W        W97400  42.091  24.702  12.509
32141W        W97401  20.041  10.902  14.277
32142W        W97402  43.280   5.775  14.316
32143W        W97403   7.662  25.257  14.752
32144W        W97404  23.779  42.436   3.395
32145W        W97405   7.202  19.143   0.427
32146W        W97406  37.064   9.357   0.190
32147W        W97407   9.159  36.717  14.319
32148W        W97408  17.226   2.389  13.555
32149W        W97409  20.312  40.101   0.857
32150W        W97410  18.984   7.436   4.090
32151W        W97411   5.620  27.439   9.872
32152W        W97412   4.961  27.997  13.785
32153W        W97413   7.170   2.744  13.562
32154W        W97414  44.797  36.102   1.038
32155W        W97415   6.177   2.325   0.458
32156W        W97416  29.426   1.553  11.864
32157W        W97417  28.771   5.457  13.323
32158W        W97418  17.133  39.852  13.297
32159W        W97419  42.948  24.293   5.219
32160W        W97420  43.312   7.422  13.286
32161W        W97421  11.894   9.615   1.744
32162W        W97422   0.770   4.034   2.139
32163W        W97423   1.274  34.008  13.557
32164W        W97424  11.848  24.305  13.778
32165W        W97425  38.725  30.365  11.076
32166W        W97426  20.721  27.653  13.363
32167W        W97427  18.472  20.675  13.449
32168W        W97428  32.616  41.583   1.934
32169W        W97429  23.125  28.851  13.550
32170W        W97430  34.667  24.193  11.534
32171W        W97431  12.821  10.264  11.946
32172W        W97432  42.434  40.050  11.198
32173W        W97433  37.283  28.950  10.968
32174W        W97434  28.455  14.303  12.477
32175W        W97435  27.730   1.548   3.361
32176W        W97436  36.205   7.211  14.940
32177W        W97437  44.939  29.275  13.582
32178W        W97438  12.028  28.719   1.456
32179W        W97439  41.001   3.894   4.765
32180W        W97440  41.044  10.802   3.264
32181W        W97441  15.152  39.663  11.132
32182W        W97442  11.744  18.147  11.220
32183W        W97443   2.973  19.584   4.872
32184W        W97444  44.914  41.356  11.176
32185W        W97445  10.383  13.692   2.510
32186W        W97446  34.098  10.797  11.567
32187W        W97447   9.140  14.365  12.558
32188W        W97448  41.058  18.682  13.404
32189W        W97449  35.975  27.203   2.626
32190W        W97450   0.650  36.989  10.870
32191W        W97451  33.500   5.375  14.788
32192W        W97452  11.591  21.024  14.641
32193W        W97453  42.366  20.773   1.807
32194W        W97454  26.121  33.958  13.480
32195W        W97455  42.019  19.295   2.217
32196W        W97456  35.626   8.421   3.603
32197W        W97457  16.601  33.873  13.977
32198W        W97458  43.281  38.390   0.047
32199W        W97459  26.112  32.320   3.786
32200W        W97460  29.452   1.155   2.389
32201W        W97461  18.196  43.638   0.887
32202W        W97462   8.508   5.738  14.472
32203W        W97463  16.669  21.975  14.981
32204W        W97464  37.243  12.387  11.170
32205W        W97465  41.461  38.267  12.116
32206W        W97466  40.426  43.685   4.137
32207W        W97467  37.011  27.854   2.821
32208W        W97468   8.859  24.848   3.198
32209W        W97469  33.303  22.178   4.012
32210W        W97470  44.694   9.039   9.754
32211W        W97471   7.636  36.009  14.872
32212W        W97472  38.641  38.292  10.699
32213W        W97473  16.805  37.102  14.616
32214W        W97474  23.757  26.620  14.365
32215W        W97475  19.199  22.559   2.908
32216W        W97476  15.095   1.161  11.118
32217W        W97477  19.282  35.720  10.245
32218W        W97478  20.044  23.689   2.341
32219W        W97479   4.361   2.852  13.344
32220W        W97480  23.447  23.693  12.158
32221W        W97481  22.506  40.391   0.770
32222W        W97482  33.759  42.389  11.270
32223W        W97483  40.062  42.070  14.286
32224W        W97484  37.536  11.527   0.045
32225W        W97485   2.239  20.645  12.468
32226W        W97486  41.919  41.965   2.452
32227W        W97487   3.710  25.065   5.099
32228W        W97488  35.633   2.833   3.681
32229W        W97489  44.687  20.584   3.208
32230W        W97490   4.351  43.214  13.458
32231W        W97491  40.892  25.079   2.317
32232W        W97492  17.717  37.931   4.832
32233W        W97493  11.775  15.388  14.293
32234W        W97494  35.391   4.934   4.623
32235W        W97495  40.431   7.947   2.145
32236W        W97496  17.186  29.610   1.911
32237W        W97497   1.011  17.189   3.161
32238W        W97498  40.867  43.633  14.992
32239W        W97499   2.266  21.983   0.487
32240W        W97500  16.838  33.842   2.233
32241W        W97501  17.512  42.520   3.390
32242W        W97502  22.506  32.409   2.727
32243W        W97503  21.037  24.720  11.604
32244W        W97504   0.610  23.983   3.711
32245W        W97505  29.880   5.840   4.268
32246W        W97506  42.840   2.703   3.617
32247W        W97507  18.485  40.860   1.608
32248W        W97508  29.369  20.764   2.252
32249W        W97509  27.375   7.130  11.954
32250W        W97510   2.371  30.592  13.584
32251W        W97511  37.135  44.412   4.510
32252W        W97512   9.891  43.891   2.395
32253W        W97513  43.565   1.485   0.813
32254W        W97514  14.028  11.036   2.753
32255W        W97515  44.819   3.863  13.957
32256W        W97516  36.384  39.104   0.548
32257W        W97517  39.986  32.503  14.999
32258W        W97518  38.363  44.692   3.112
32259W        W97519  34.527  40.104   1.157
32260W        W97520  11.604  44.383   3.998
32261W        W97521  28.067  26.187   2.267
32262W        W97522   6.948  21.221   1.662
32263W        W97523  25.669  30.365  13.613
32264W        W97524   3.703  32.481  12.837
32265W        W97525  38.891  14.099  11.920
32266W        W97526   0.460   4.208   3.218
32267W        W97527   9.208  34.475   3.827
32268W        W97528  17.329  36.994   1.609
32269W        W97529  13.318  13.296  12.323
32270W        W97530  42.362  14.486   9.421
32271W        W97531  12.736  27.100   4.934
32272W        W97532  39.892  43.136  11.520
32273W        W97533   3.495  26.570  12.931
32274W        W97534  38.479  27.683  12.931
32275W        W97535  44.409   8.744   2.329
32276W        W97536  24.218  21.331   0.979
32277W        W97537  41.908  40.019   3.513
32278W        W97538  31.852  23.395  14.964
32279W        W97539  21.696  13.766   4.226
32280W        W97540  26.468  34.995  12.113
32281W        W97541  24.671  14.064   2.290
32282W        W97542  44.531  42.474  14.343
32283W        W97543  27.862  23.600   0.955
32284W        W97544   1.908  28.059   5.042
32285W        W97545  37.768   9.638   0.427
32286W        W97546  21.001   8.172   0.324
32287W        W97547   5.874  14.714   1.225
32288W        W97548  27.978  41.110   1.333
32289W        W97549  44.840   0.788   3.479
32290W        W97550  29.490  39.352  11.980
32291W        W97551   6.393  37.247  10.323
32292W        W97552   3.677   3.706   1.791
32293W        W97553   1.302  31.538   0.550
32294W        W97554   0.427  12.507  13.614
32295W        W97555   4.857   9.639  10.424
32296W        W97556  35.510  41.699  11.574
32297W        W97557   6.955  34.203  12.448
32298W        W97558  32.838   1.667  10.724
32299W        W97559  25.241  28.956   0.474
32300W        W97560   6.080  39.796   4.166
32301W        W97561  28.948  31.805   0.866
32302W        W97562  11.833  27.894   1.927
32303W        W97563   2.943  33.601  10.620
32304W        W97564  40.029   2.755   3.246
32305W        W97565   6.951  31.459  10.792
32306W        W97566   3.884   8.710  14.791
32307W        W97567  15.358   4.223  13.407
32308W        W97568  21.977  19.835   4.713
32309W        W97569  36.075  13.672   4.156
32310W        W97570  20.476  30.706   0.592
32311W        W97571  13.483  19.648   5.028
32312W        W97572  30.903   9.736  13.314
32313W        W97573  41.956  18.401   2.224
32314W        W97574  10.237  30.108   2.669
32315W        W97575  29.503  26.009  12.921
32316W        W97576  10.298   0.965   4.357
32317W        W97577  27.247  41.621   1.460
32318W        W97578  25.106  39.392   0.685
32319W        W97579   3.231  25.411   2.077
32320W        W97580  43.264   1.255  13.322
32321W        W97581  15.169  29.493  12.621
32322W        W97582  22.943   7.289   3.179
32323W        W97583  23.211  14.633   4.883
32324W        W97584  28.670  20.862  14.021
32325W        W97585  40.984  26.364  11.539
32326W        W97586  14.821  12.158   3.690
32327W        W97587  39.274  22.066   4.474
32328W        W97588   3.672  41.843  13.451
32329W        W97589  16.300  21.356  11.171
32330W        W97590  29.142  19.131  12.396
32331W        W97591  43.270  17.153  13.916
32332W        W97592  21.084  41.363   1.428
32333W        W97593  42.486   3.803  12.114
32334W        W97594   6.741  12.044   2.346
32335W        W97595   3.903   6.103  11.130
32336W        W97596   8.685  15.249   3.221
32337W        W97597  31.810   7.717   1.424
32338W        W97598  22.701  21.222  10.640
32339W        W97599  44.399  22.097  12.129
32340W        W97600  40.578  39.002   3.184
32341W        W97601   9.633  37.869   3.747
32342W        W97602  30.936  20.127   4.542
32343W        W97603  26.410  10.219  14.586
32344W        W97604  35.250   7.188   2.372
32345W        W97605  19.589   1.660   1.392
32346W        W97606  30.528  34.213  11.503
32347W        W97607   2.406  32.406  14.018
32348W        W97608  26.423  40.950   2.640
32349W        W97609  22.059  22.306   1.244
32350W        W97610  19.611  10.051   3.392
32351W        W97611  17.271  27.918   4.218
32352W        W97612  20.341  43.406   4.222
32353W        W97613  19.932   7.381   1.424
32354W        W97614   4.071   4.481   3.164
32355W        W97615  32.274  13.677  11.610
32356W        W97616  14.993  16.604   4.189
32357W        W97617   4.365   5.426   0.046
32358W        W97618  26.490  20.265  14.256
32359W        W97619  38.271  38.522  11.950
32360W        W97620  22.240  21.466  10.635
32361W        W97621  11.166  11.711  14.379
32362W        W97622  41.821  17.869  11.923
32363W        W97623  36.445  25.656   4.383
32364W        W97624   4.419   7.381  12.471
32365W        W97625  41.945  14.568   3.690
32366W        W97626  30.082  23.169   4.079
32367W        W97627  41.011  15.672   4.019
32368W        W97628  38.323  15.200   0.878
32369W        W97629  13.571  16.057   2.703
32370W        W97630  44.193  32.634  13.839
32371W        W97631  41.199  27.717  13.125
32372W        W97632  23.492  31.043  14.424
32373W        W97633   4.973  27.075  12.873
32374W        W97634  23.630   8.942   1.323
32375W        W97635  18.625  40.073  12.919
32376W        W97636  10.683  26.940  14.011
32377W        W97637  20.170   6.009   3.125
32378W        W97638   7.776  28.616   4.086
32379W        W97639  27.656  30.128  10.715
32380W        W97640  10.745   5.728  14.549
32381W        W97641   4.826  29.175   3.257
32382W        W97642  30.643   5.256   0.957
32383W        W97643  40.770  17.205   1.722
32384W        W97644  42.570  11.637  13.041
32385W        W97645  23.754  39.128   2.772
32386W        W97646  17.318  24.443  12.244
32387W        W97647  42.954   1.498   1.523
32388W        W97648  33.814   5.267  12.504
32389W        W97649   5.925  18.052  11.190
32390W        W97650  31.100   0.126  10.549
32391W        W97651  29.656  18.328   2.811
32392W        W97652  43.324   3.384  12.039
32393W        W97653  43.833   8.413   4.822
32394W        W97654   6.362  25.897   0.763
32395W        W97655   0.099  31.001  10.675
32396W        W97656  10.851   2.008  13.604
32397W        W97657   2.472  20.269  11.834
32398W        W97658  40.809  43.101  12.111
32399W        W97659  19.583  34.676  14.332
32400W        W97660  39.499  19.189  10.870
32401W        W97661  40.992  14.717  10.335
32402W        W97662  39.659  21.278  14.505
32403W        W97663  35.512  30.013  11.995
32404W        W97664  25.174  28.026  14.073
32405W        W97665  15.232   2.273   0.776
32406W        W97666   0.028   5.814  12.543
32407W        W97667  31.575  20.583  13.476
32408W        W97668  16.359   9.197   4.360
32409W        W97669   2.274  10.688  12.495
32410W        W97670   2.416   7.964  10.497
32411W        W97671   3.802   9.926  13.087
32412W        W97672  13.756  19.894  10.333
32413W        W97673  12.990  13.243   4.972
32414W        W97674  39.370   8.149  10.683
32415W        W97675  39.449  33.336  12.019
32416W        W97676  31.495   8.945  13.268
32417W        W97677  19.981  42.508   2.254
32418W        W97678  11.552  11.641  13.099
32419W        W97679  43.707  42.842   3.794
32420W        W97680  14.566  30.515   0.914
32421W        W97681  21.808  40.620   1.729
32422W        W97682  34.074  25.002  11.373
32423W        W97683   7.457  32.591  13.435
32424W        W97684  41.252  40.759   3.793
32425W        W97685   7.197  27.483  10.215
32426W        W97686  17.218  20.413  14.375
32427W        W97687  37.019  39.954   1.848
32428W        W97688  17.540  24.492   0.273
32429W        W97689  44.518   8.368  14.430
32430W        W97690  17.136   3.138   4.195
32431W        W97691  27.055  41.401  12.371
32432W        W97692  31.941  44.510   3.431
32433W        W97693  40.170  43.240   2.867
32434W        W97694  42.016  23.103   4.122
32435W        W97695  14.272   1.374   2.434
32436W        W97696  42.929  36.331   3.216
32437W        W97697  30.786  17.014  11.161
32438W        W97698  16.782  24.764   2.874
32439W        W97699  25.494   5.779  11.575
32440W        W97700  43.574   3.267   0.341
32441W        W97701  22.479   2.022   2.307
32442W        W97702  16.863  30.355   1.358
32443W        W97703  23.739   9.284  14.520
32444W        W97704  33.305  37.121  14.559
32445W        W97705   9.646  22.473  12.977
32446W        W97706  13.430  36.873  13.967
32447W        W97707   2.701  21.196   0.251
32448W        W97708   0.925  13.114  10.197
32449W        W97709  23.443  39.334   4.397
32450W        W97710  25.101  44.451   3.184
32451W        W97711  14.121  18.708  11.627
32452W        W97712  23.591  15.237  10.473
32453W        W97713  16.575  18.115   1.462
32454W        W97714  16.212  38.554   0.361
32455W        W97715  35.017  22.297   4.137
32456W        W97716  38.616  31.247   0.900
32457W        W97717  17.085  28.670   2.331
32458W        W97718   0.298  11.049   2.227
32459W        W97719  24.045  32.482   4.998
32460W        W97720  17.334  42.452   1.670
32461W        W97721   0.584  40.901  11.511
32462W        W97722  29.079  24.302  12.577
32463W        W97723  39.888   5.592  11.572
32464W        W97724   6.224   1.731  11.678
32465W        W97725  19.827  13.265  10.994
32466W        W97726  38.803  11.479   0.291
32467W        W97727  28.039   1.142  12.023
32468W        W97728  23.957   5.649   0.135
32469W        W97729  10.188  32.356  11.444
32470W        W97730   1.658  22.835   4.746
32471W        W97731  20.609  28.009   3.604
32472W        W97732  20.437  42.583   3.249
32473W        W97733  37.755  19.605   0.254
32474W        W97734  14.652  35.788   1.037
32475W        W97735  14.038  38.114  13.779
32476W        W97736  42.813  39.446  13.462
32477W        W97737   7.308  21.042  14.115
32478W        W97738  17.479  28.361  11.132
32479W        W97739  18.473  33.996   4.189
32480W        W97740   8.473  21.233   3.636
32481W        W97741  26.940  13.257  14.128
32482W        W97742  28.731  18.561   3.148
32483W        W97743  11.865  25.094  13.637
32484W        W97744   3.087  43.922  10.724
32485W        W97745  26.216  24.900   0.958
32486W        W97746  28.875  24.482   1.558
32487W        W97747  14.094  36.056  10.703
32488W        W97748  17.191  39.399  12.052
32489W        W97749  44.981  12.732  13.460
32490W        W97750   3.748   5.306   3.725
32491W        W97751  40.105  20.561  12.834
32492W        W97752  44.461  19.461  12.215
32493W        W97753   3.402  13.848   3.317
32494W        W97754  21.188   5.389   5.341
32495W        W97755  15.490   2.468   3.164
32496W        W97756  26.025  21.041   4.041
32497W        W97757   1.303   0.379   2.854
32498W        W97758  39.986   1.295   3.356
32499W        W97759  38.577  20.342  14.774
32500W        W97760  19.558  31.172   2.996
32501W        W97761  33.439  29.265  13.951
32502W        W97762  28.203  38.087   4.125
32503W        W97763   3.790  29.102   0.038
32504W        W97764  44.021  17.615  12.376
32505W        W97765  16.534  23.297   0.047
32506W        W97766  24.562  40.115  14.869
32507W        W97767  11.427   0.476  13.162
32508W        W97768  41.843  17.729   3.128
32509W        W97769   0.443  10.827  12.761
32510W        W97770  18.393   6.706  10.670
32511W        W97771  26.663  34.042   2.769
32512W        W97772  21.166  44.426   2.661
32513W        W97773  18.976  34.992   4.669
32514W        W97774   6.743  35.234   4.050
32515W        W97775   5.902  15.584  12.961
32516W        W97776  38.523  22.239  14.915
32517W        W97777  37.565  44.270  11.968
32518W        W97778  30.228  21.840   2.204
32519W        W97779   9.837  16.309  14.483
32520W        W97780  43.073  15.081  14.969
32521W        W97781  23.789   7.787   1.889
32522W        W97782   7.176  11.639   4.093
32523W        W97783  14.736  33.837  13.123
32524W        W97784  16.626  27.540  10.587
32525W        W97785   0.887  15.126   4.527
32526W        W97786  33.765  19.364   1.417
32527W        W97787  14.731   8.154   4.061
32528W        W97788  18.697  26.355  12.831
32529W        W97789  24.064   8.319   3.192
32530W        W97790  38.529  43.731   2.866
32531W        W97791   6.228   1.316  14.316
32532W        W97792  37.942  13.782  14.084
32533W        W97793  22.687  34.651  12.369
32534W        W97794   5.719  21.427  11.518
32535W        W97795   7.186  44.294  14.586
32536W        W97796  32.419  43.511   0.943
32537W        W97797  21.073  32.882  11.900
32538W        W97798  14.244  43.192   0.644
32539W        W97799  14.894  26.291  14.423
32540W        W97800   9.715   5.546  13.875
32541W        W97801   6.811  32.795   4.892
32542W        W97802  38.103  41.605  12.444
32543W        W97803  33.437  36.497   2.211
32544W        W97804  29.482  37.984   0.730
32545W        W97805  31.660  38.629   2.124
32546W        W97806   5.871   6.224   1.997
32547W        W97807  16.968  15.300  11.639
32548W        W97808  19.667  31.397  13.399
32549W        W97809  38.531  26.261  11.116
32550W        W97810   5.671  33.547   4.575
32551W        W97811  34.306   2.368   0.181
32552W        W97812   4.480  21.649  14.845
32553W        W97813  10.907  19.650   4.130
32554W        W97814  37.708  19.151   2.875
32555W        W97815  26.772   2.220   0.871
32556W        W97816   7.306  24.570   3.252
32557W        W97817  19.549  24.667  11.393
32558W        W97818  29.205  11.856  11.050
32559W        W97819  28.080  15.126   3.676
32560W        W97820  40.984  28.123  12.863
32561W        W97821  12.204  33.341  10.753
32562W        W97822   4.215  29.009   2.550
32563W        W97823  36.388  29.290   2.916
32564W        W97824  19.448  13.334   1.472
32565W        W97825  15.637   8.372  11.490
32566W        W97826  27.253  27.581  12.477
32567W        W97827  30.153  14.832  12.008
32568W        W97828  30.699  43.634  11.367
32569W        W97829   4.922  22.604   3.660
32570W        W97830   6.247   7.445  11.484
32571W        W97831  25.613  19.256   3.361
32572W        W97832  36.282  14.788  13.146
32573W        W97833   2.083  19.506  10.898
32574W        W97834  42.255   5.536  13.380
32575W        W97835  19.047  22.233  11.175
32576W        W97836  36.586  37.864  13.500
32577W        W97837  27.948  36.054  11.926
32578W        W97838  18.926  39.657  13.857
32579W        W97839  38.582  29.007  14.379
32580W        W97840  26.662  43.995  10.876
32581W        W97841  37.876   1.060  13.013
32582W        W97842   8.379  42.686  11.636
32583W        W97843  22.041  36.997   0.244
32584W        W97844  30.871  17.118  13.306
32585W        W97845  34.090  31.584   2.491
32586W        W97846  29.037  25.665   0.161
32587W        W97847  19.978   4.621  10.137
32588W        W97848  37.079  37.307   3.623
32589W        W97849   5.944  44.533   3.731
32590W        W97850  20.187  19.014   1.805
32591W        W97851  41.496  31.616  14.839
32592W        W97852  14.729  30.815  10.020
32593W        W97853   5.408  42.827  11.526
32594W        W97854  17.754  38.516  10.977
32595W        W97855  40.873  19.833  11.553
32596W        W97856   8.912  17.685  14.377
32597W        W97857  15.933  44.989  13.454
32598W        W97858  34.980  16.969   2.777
32599W        W97859   7.685  15.044   4.219
32600W        W97860   6.673  20.233   0.359
32601W        W97861  39.247  18.540   3.878
32602W        W97862   8.204   2.811  13.434
32603W        W97863  11.143  19.643   3.654
32604W        W97864   3.366  44.066   0.232
32605W        W97865  44.287  13.768   9.899
32606W        W97866   5.953  20.329   4.207
32607W        W97867  28.057  21.618  12.377
32608W        W97868   7.167  16.105  11.155
32609W        W97869   0.848  44.193   1.817
32610W        W97870  34.001  34.085  11.880
32611W        W97871   2.527   7.003  11.079
32612W        W97872  42.889  37.814  11.738
32613W        W97873  28.616  29.657  12.163
32614W        W97874   8.082  15.299  12.386
32615W        W97875  42.536  33.166  12.146
32616W        W97876  22.667  14.274   1.657
32617W        W97877  14.545  11.969  13.552
32618W        W97878  17.167  10.583   0.887
32619W        W97879  20.264  29.198   3.185
32620W        W97880  10.885  28.050  12.882
32621W        W97881  29.053  27.467   3.081
32622W        W97882  11.133  29.892   5.036
32623W        W97883   3.968  22.682  14.890
32624W        W97884  33.345   6.686  12.539
32625W        W97885  21.761  39.501   1.515
32626W        W97886   3.051   1.807   2.835
32627W        W97887  22.472  42.371   0.510
32628W        W97888  27.688  28.096   4.992
32629W        W97889  24.791  32.558   3.871
32630W        W97890  18.794  33.506   2.381
32631W        W97891  13.803   8.176   3.651
32632W        W97892  28.567   2.019  12.205
32633W        W97893  41.356  41.846   3.084
32634W        W97894  21.072  19.156   9.809
32635W        W97895  20.656  21.271   4.002
32636W        W97896  38.900   1.040  14.897
32637W        W97897  20.719  26.632  13.472
32638W        W97898  34.021  40.223   2.297
32639W        W97899   8.931  16.338  11.390
32640W        W97900   0.647  26.434  12.433
32641W        W97901  14.586  13.351   2.313
32642W        W97902  13.783  22.578   0.326
32643W        W97903   4.740  11.832   0.856
32644W        W97904   2.769   8.089   1.652
32645W        W97905  16.441   9.242  12.031
32646W        W97906  10.070   9.642  11.630
32647W        W97907   8.828   0.906   0.187
32648W        W97908   4.917  24.174   3.044
32649W        W97909   3.441   1.050  12.031
32650W        W97910   4.892  37.956  12.220
32651W        W97911  24.636   4.731   2.680
32652W        W97912   2.314  20.963   4.679
32653W        W97913  13.602  23.546   4.340
32654W        W97914   0.270   5.669   2.366
32655W        W97915  37.878  22.668   4.547
32656W        W97916  28.268   0.801   2.930
32657W        W97917  27.090   0.475   1.796
32658W        W97918  19.477   4.665  14.384
32659W        W97919  36.412  35.120  10.611
32660W        W97920  35.997  30.964  12.159
32661W        W97921  24.244  38.967  12.219
32662W        W97922   1.325  22.007  12.323
32663W        W97923   7.698   0.929  12.784
32664W        W97924  28.038  13.373   3.509
32665W        W97925  40.046  24.659   3.250
32666W        W97926  39.957   2.259   2.129
32667W        W97927  14.835   0.998   4.722
32668W        W97928   7.256  20.420  13.455
32669W        W97929  17.416  35.608  11.366
32670W        W97930  23.298  18.833   1.354
32671W        W97931  44.525  37.411   1.271
32672W        W97932  42.108   3.298   1.299
32673W        W97933  34.855  41.335   4.411
32674W        W97934   1.932  27.090   5.062
32675W        W97935  37.496  29.269  13.801
32676W        W97936  35.674  10.241   4.892
32677W        W97937  42.029  44.542  11.263
32678W        W97938  40.443  39.763   1.668
32679W        W97939   9.315   3.425  11.976
32680W        W97940  37.559  33.086  13.609
32681W        W97941  35.808  15.690   0.951
32682W        W97942  40.356   9.428   0.722
32683W        W97943   9.167   5.730  13.512
32684W        W97944  31.902  22.189  12.932
32685W        W97945  22.475  25.121  11.923
32686W        W97946  24.998  17.598  12.430
32687W        W97947   1.084  11.962  14.260
32688W        W97948  13.573   6.300   4.172
32689W        W97949  12.586   4.249   0.955
32690W        W97950  39.203   1.280   1.698
32691W        W97951   7.826  29.170   0.405
32692W        W97952  21.340  22.359   3.634
32693W        W97953  37.485  17.359   2.846
32694W        W97954   3.393   9.312   3.667
32695W        W97955  21.197   3.276   3.801
32696W        W97956  26.697  29.537   3.135
32697W        W97957  44.752  36.779  11.261
32698W        W97958   1.167   2.815  13.925
32699W        W97959  22.665   9.081   2.287
32700W        W97960  35.528  32.172  10.314
32701W        W97961   7.165   3.912  11.306
32702W        W97962  28.962  18.665   4.816
32703W        W97963   4.758  43.833   0.208
32704W        W97964  12.200   8.228  12.283
32705W        W97965  28.503  31.166  12.431
32706W        W97966  36.098   5.232  12.509
32707W        W97967  41.751  27.952   2.914
32708W        W97968  35.515  15.080   0.391
32709W        W97969  13.723  14.215   4.719
32710W        W97970  39.422  23.833   1.352
32711W        W97971  10.788  22.226  12.757
32712W        W97972  37.180  25.566   3.801
32713W        W97973  44.000  43.973   0.210
32714W        W97974  24.237  15.103  11.018
32715W        W97975  31.885  26.766   0.666
32716W        W97976  17.735  20.347   3.658
32717W        W97977  37.574  23.142   3.402
32718W        W97978  38.355  37.137   0.469
32719W        W97979  43.035  25.784  11.216
32720W        W97980   3.777   3.412  11.354
32721W        W97981   2.474  43.412  14.677
32722W        W97982  24.065  43.552   4.636
32723W        W97983   3.599  34.619   3.702
32724W        W97984  34.377   7.450   2.684
32725W        W97985  22.805  20.932  12.936
32726W        W97986  14.672  39.875  11.314
32727W        W97987  14.561  31.197   1.435
32728W        W97988  37.423   4.856   4.625
32729W        W97989  19.355  35.933  10.720
32730W        W97990  19.618  30.730  12.596
32731W        W97991  12.273  37.346  12.021
32732W        W97992   8.156  43.758  13.893
32733W        W97993  11.846  19.414  11.577
32734W        W97994   4.950  38.165  10.723
32735W        W97995  20.246  18.914   0.243
32736W        W97996   2.289  21.955  12.659
32737W        W97997   5.981  39.146  13.354
32738W        W97998  26.384   2.903   0.905
32739W        W97999  11.657  37.353   3.909
32740W        W98000  14.292  26.004   3.206
32741W        W98001  42.797   6.404   3.827
32742W        W98002  32.982  31.668   0.006
32743W        W98003  38.633   8.661   1.453
32744W        W98004  25.062  43.818  13.514
32745W        W98005  22.732   8.229  12.419
32746W        W98006  18.439  42.850  12.986
32747W        W98007  36.091   6.124   4.675
32748W        W98008  17.236   2.236   2.793
32749W        W98009  37.987  38.028  14.353
32750W        W98010  27.139  33.252   2.776
32751W        W98011  42.880  34.209   4.865
32752W        W98012   7.351  10.622  13.316
32753W        W98013   5.505  11.724   3.108
32754W        W98014  42.556  34.848   1.658
32755W        W98015  44.462  44.129   2.546
32756W        W98016   6.732   5.203  10.672
32757W        W98017  28.374   2.361  10.397
32758W        W98018  12.916  29.352  14.108
32759W        W98019  27.251  36.368   4.375
32760W        W98020   6.839  18.429  13.315
32761W        W98021  39.543  29.565   0.889
32762W        W98022   3.679  31.630  12.423
32763W        W98023   3.898  44.873  10.460
32764W        W98024  27.753  17.839   5.503
32765W        W98025  21.747   0.218  13.962
32766W        W98026  22.285  33.455   2.104
32767W        W98027  11.081  22.964   0.354
32768W        W98028   5.972   9.737   2.244
32769W        W98029   9.929  40.329   3.106
32770W        W98030  18.574   8.081  13.850
32771W        W98031  33.392  25.124   1.418
32772W        W98032  29.762  25.182   0.314
32773W        W98033  34.613  18.259  14.077
32774W        W98034   5.275   2.502  12.537
32775W        W98035   7.280  13.366   2.358
32776W        W98036  42.454  42.268   0.314
32777W        W98037   0.738  20.669  14.379
32778W        W98038  36.506  42.725   2.699
32779W        W98039  33.377   0.460   3.329
32780W        W98040  27.048  41.893   3.226
32781W        W98041  31.481  26.210   1.340
32782W        W98042  37.027  21.674  13.489
32783W        W98043  24.491  13.589  13.236
32784W        W98044  31.636   0.431   4.924
32785W        W98045  30.650  21.533   2.264
32786W        W98046  25.549  22.662   4.599
32787W        W98047  19.786  32.795  12.478
32788W        W98048  23.641   3.093   1.187
32789W        W98049   2.512  42.708  12.946
32790W        W98050  14.047  12.766   0.904
32791W        W98051   1.131   4.258   1.770
32792W        W98052  36.423  10.945   2.146
32793W        W98053  25.024   5.862   1.957
32794W        W98054  23.660  13.433  11.319
32795W        W98055  43.985   8.856  11.588
32796W        W98056  40.821  18.261   4.566
32797W        W98057  36.066   2.436   0.775
32798W        W98058  32.592  39.516   0.215
32799W        W98059  10.821  22.217   1.672
32800W        W98060  18.685   0.889   3.168
32801W        W98061  23.577  34.086   2.266
32802W        W98062   7.744   2.906   4.254
32803W        W98063  28.136   1.984  14.310
32804W        W98064  32.441  42.465   3.417
32805W        W98065  26.267  16.771  14.317
32806W        W98066   9.866  25.540   3.091
32807W        W98067  26.480  43.555  12.324
32808W        W98068  32.153  14.509   3.434
32809W        W98069  36.935  12.321   0.876
32810W        W98070  17.473   3.058  13.676
32811W        W98071   5.242   7.408   4.569
32812W        W98072   0.763  38.639  12.050
32813W        W98073  20.149  10.112   4.813
32814W        W98074  28.390  36.948   3.550
32815W        W98075  23.234  19.346   1.252
32816W        W98076  44.758  18.586  14.049
32817W        W98077  20.496  42.041  12.272
32818W        W98078   6.923  22.489  14.247
32819W        W98079  35.169  24.019   2.914
32820W        W98080  18.774  38.884  11.194
32821W        W98081   1.817  39.895  13.354
32822W        W98082  40.319  24.431   2.319
32823W        W98083  13.307  21.566  11.423
32824W        W98084  23.682  21.181  12.995
32825W        W98085   7.349  40.630  12.079
32826W        W98086  28.853  26.445  10.822
32827W        W98087  13.197  42.806   2.449
32828W        W98088  36.396  31.379   3.679
32829W        W98089  13.653  24.751  14.347
32830W        W98090  34.343   5.380   0.872
32831W        W98091  20.680  34.497   1.808
32832W        W98092  37.369   2.475   0.312
32833W        W98093  37.895  14.689   2.341
32834W        W98094  32.861   0.238  14.318
32835W        W98095  23.630   8.155  13.571
32836W        W98096  41.519   7.803  11.582
32837W        W98097  36.047  10.004  12.305
32838W        W98098  29.041  21.280   1.928
32839W        W98099  28.195  41.380  11.532
32840W        W98100  35.595  30.538  14.278
32841W        W98101  32.313  15.896   2.711
32842W        W98102   9.881  30.088   2.306
32843W        W98103  41.791   6.940   0.900
32844W        W98104  27.122  34.275  11.178
32845W        W98105  42.223   2.526  11.075
32846W        W98106   4.561  25.713  10.555
32847W        W98107  23.317   1.590   3.247
32848W        W98108  12.144  42.503  10.741
32849W        W98109  27.624  32.429   1.728
32850W        W98110  18.461  29.676  13.879
32851W        W98111   4.435  35.973   4.584
32852W        W98112  22.531  25.523   1.983
32853W        W98113  24.074  31.607   1.476
32854W        W98114  25.643   8.138   1.357
32855W        W98115   8.408  24.939  12.041
32856W        W98116   9.927  14.842   3.705
32857W        W98117  22.657   9.432  10.353
32858W        W98118  41.708  15.499   2.798
32859W        W98119   2.027  19.683   3.644
32860W        W98120  18.098  30.381  13.393
32861W        W98121   4.790  36.018   3.627
32862W        W98122   8.086  17.931  10.021
32863W        W98123   8.801  33.154  14.757
32864W        W98124  36.468  33.287  10.590
32865W        W98125  44.854  40.905   3.544
32866W        W98126  13.862  17.334   4.454
32867W        W98127   9.623  30.999   2.875
32868W        W98128   7.183  33.065  13.341
32869W        W98129  34.930  12.797  11.984
32870W        W98130   6.424  41.870   4.820
32871W        W98131  19.513  16.622  13.314
32872W        W98132  27.662   0.002   4.603
32873W        W98133  37.088  37.937  11.375
32874W        W98134  35.431  20.156  13.396
32875W        W98135  24.026   8.896  14.709
32876W        W98136  44.751  22.747   0.342
32877W        W98137  28.074   4.825  12.564
32878W        W98138  33.044  28.949  11.075
32879W        W98139  24.506  40.502  10.971
32880W        W98140   3.290  16.119   1.782
32881W        W98141  20.507  25.048   3.150
32882W        W98142  35.722  34.384  13.428
32883W        W98143  21.032   5.688   4.600
32884W        W98144   4.617  10.391  11.669
32885W        W98145  33.079  10.303   2.685
32886W        W98146  10.074  43.340   0.750
32887W        W98147  28.363  19.638   2.907
32888W        W98148  36.359  15.820   3.698
32889W        W98149   1.764   4.408   3.751
32890W        W98150  20.079  38.359  12.978
32891W        W98151   6.730  25.893   1.367
32892W        W98152   6.590   9.602  14.600
32893W        W98153  39.826  31.830   2.265
32894W        W98154  22.475  29.458   1.643
32895W        W98155  11.439  35.659   0.344
32896W        W98156   9.909   6.778   0.907
32897W        W98157  28.874  11.245   4.135
32898W        W98158   8.740  37.775  14.521
32899W        W98159  23.864   2.733   3.825
32900W        W98160   4.809  26.328   4.126
32901W        W98161  39.289  22.990   4.293
32902W        W98162  28.550  12.809  10.719
32903W        W98163   8.380   4.913   4.223
32904W        W98164   6.368  17.650   2.077
32905W        W98165   3.321  16.878   4.330
32906W        W98166  24.610   1.906  11.591
32907W        W98167  14.620  17.139  12.066
32908W        W98168  35.149   2.950   3.677
32909W        W98169  44.494  18.273   3.627
32910W        W98170  23.567   0.106   4.153
32911W        W98171   0.415   6.496   1.194
32912W        W98172  14.242  35.870   2.832
32913W        W98173  30.525  42.995   3.711
32914W        W98174   4.853  29.336  10.758
32915W        W98175   3.639  38.345   1.304
32916W        W98176   8.422  41.598   0.378
32917W        W98177   7.508  42.084  13.726
32918W        W98178  29.441   3.958  12.399
32919W        W98179  37.008  13.159  11.258
32920W        W98180   8.214  35.610  14.393
32921W        W98181  24.910  21.999   2.391
32922W        W98182  28.033  26.683  11.601
32923W        W98183   9.595   2.272   2.769
32924W        W98184  18.747  32.570   4.708
32925W        W98185  37.538  38.553  11.474
32926W        W98186   2.227  25.466   3.287
32927W        W98187  27.819  43.509  11.302
32928W        W98188  28.925  33.055  11.069
32929W        W98189  11.578   7.767  12.784
32930W        W98190  29.492   3.943  14.024
32931W        W98191  33.348  29.610   4.210
32932W        W98192  17.334  16.328   3.966
32933W        W98193  20.776  28.019  10.675
32934W        W98194  37.370   1.062  12.923
32935W        W98195  22.188  44.896   0.295
32936W        W98196  30.865  41.359   0.130
32937W        W98197  43.203  23.827   0.667
32938W        W98198  42.788   8.698   4.143
32939W        W98199  28.996  10.753  14.590
32940W        W98200  44.644  17.282  13.585
32941W        W98201  41.326  35.365  10.404
32942W        W98202  19.785  25.600   0.711
32943W        W98203  16.441   0.334   4.159
32944W        W98204  39.009  11.546   9.811
32945W        W98205  11.805  32.555   2.715
32946W        W98206  28.504  26.763   0.377
32947W        W98207  42.265  36.653   2.324
32948W        W98208  12.447   7.940   2.267
32949W        W98209  36.410  40.527   0.316
32950W        W98210   0.495  14.578   2.386
32951W        W98211  33.100   5.907  12.911
32952W        W98212  16.577  33.349  13.940
32953W        W98213  20.326  18.711   2.291
32954W        W98214  23.950  17.532   0.451
32955W        W98215  41.411  27.587  12.666
32956W        W98216   2.708  20.693   0.660
32957W        W98217  23.487  22.051  13.006
32958W        W98218  31.651   4.933  11.478
32959W        W98219  36.542  16.924   0.397
32960W        W98220  44.925  32.838   3.850
32961W        W98221   4.184  20.156   1.152
32962W        W98222  41.316   4.405   4.447
32963W        W98223  28.481  19.675  11.484
32964W        W98224  41.521  33.992  10.448
32965W        W98225  11.330  20.650  11.222
32966W        W98226  31.046  31.089  11.106
32967W        W98227  35.583  27.186  11.152
32968W        W98228  22.029  39.633  10.789
32969W        W98229  34.885  30.341   3.727
32970W        W98230  40.217   5.515   2.168
32971W        W98231  17.716  36.926  14.555
32972W        W98232  16.330  34.669   2.215
32973W        W98233  44.974   5.328  13.899
32974W        W98234  41.854  18.423   4.864
32975W        W98235  37.039  23.797   1.322
32976W        W98236  33.390  34.881   3.601
32977W        W98237   3.221   4.383   1.292
32978W        W98238  28.734   6.410   4.101
32979W        W98239  37.096   1.975   1.825
32980W        W98240   7.812  37.375  12.429
32981W        W98241   3.026   1.734   0.800
32982W        W98242  17.048  10.259   5.086
32983W        W98243  31.246   2.672   3.611
32984W        W98244   2.842   5.496  14.552
32985W        W98245  40.452  41.932   4.758
32986W        W98246  31.785  22.211  11.179
32987W        W98247  32.331   3.300   2.751
32988W        W98248  22.197  21.055   4.083
32989W        W98249  26.093   7.377  11.181
32990W        W98250  20.198  34.933   1.331
32991W        W98251  30.647  23.104  12.861
32992W        W98252  41.227  21.681   3.030
32993W        W98253  37.840  26.478   2.276
32994W        W98254   2.039  20.265  12.115
32995W        W98255  13.829  34.979  13.304
32996W        W98256   7.122  29.687  14.337
32997W        W98257   0.465  38.930  10.666
32998W        W98258   5.329   4.108   1.273
32999W        W98259   1.368   9.152   4.081
33000W        W98260  44.804  28.325   3.533
33001W        W98261   7.178  21.778   0.955
33002W        W98262  32.578  17.286   3.547
33003W        W98263  33.158  13.794  12.603
33004W        W98264   9.686  43.324  14.817
33005W        W98265  29.697  31.998  12.362
33006W        W98266  38.374  25.725   2.231
33007W        W98267  18.960  22.900  13.898
33008W        W98268   0.526  21.005   4.043
33009W        W98269  19.760  20.175   0.387
33010W        W98270   6.613  35.030  12.617
33011W        W98271  26.230  23.361   2.769
33012W        W98272  29.264  40.823  13.993
33013W        W98273  12.214   9.195   0.103
33014W        W98274   9.240  32.173  11.581
33015W        W98275   3.226   4.356  11.115
33016W        W98276  41.811  30.777  10.445
33017W        W98277  42.459   2.039   1.075
33018W        W98278  26.608  35.347   0.353
33019W        W98279  42.468  42.569  13.846
33020W        W98280  11.351   7.824  13.241
33021W        W98281  25.916  17.727  14.393
33022W        W98282  22.422   5.004  13.377
33023W        W98283  43.873   7.528   0.110
33024W        W98284  42.318  25.142   1.398
33025W        W98285  26.526  44.738   1.611
33026W        W98286   2.707  34.484  11.920
33027W        W98287  16.815  27.476   3.336
33028W        W98288  20.708  14.322   0.700
33029W        W98289  10.532  10.825   3.302
33030W        W98290  22.262  23.454   4.390
33031W        W98291  16.886  12.547   3.055
33032W        W98292  25.419  40.176   3.131
33033W        W98293  36.980  32.566   2.465
33034W        W98294  28.241  42.438  11.485
33035W        W98295  30.961  21.802   3.840
33036W        W98296  26.335  32.247  11.353
33037W        W98297  19.441  44.981  14.719
33038W        W98298   9.812   5.285   1.799
33039W        W98299  11.725   5.218  10.947
33040W        W98300   6.503  21.455  13.482
33041W        W98301  23.550  12.835  14.314
33042W        W98302  32.685  20.036   3.682
33043W        W98303   1.514  33.469  12.893
33044W        W98304   5.311  22.181  10.684
33045W        W98305  18.293  27.541   0.759
33046W        W98306  32.024  14.863  13.496
33047W        W98307   0.250   3.480   3.688
33048W        W98308  18.335  20.897  12.152
33049W        W98309  35.416  34.613  14.563
33050W        W98310   7.376  17.506  14.007
33051W        W98311  31.008  44.228   3.120
33052W        W98312  31.375  26.890   2.708
33053W        W98313  32.779  16.042  10.323
33054W        W98314   5.848  27.193   1.729
33055W        W98315  23.127  37.164   5.406
33056W        W98316  34.357  19.304   2.396
33057W        W98317  11.427  20.112   2.292
33058W        W98318  12.428  14.699   2.440
33059W        W98319  41.940  15.688  13.889
33060W        W98320   2.406   2.506  11.508
33061W        W98321  11.553  35.963  13.847
33062W        W98322  27.198  41.393   3.104
33063W        W98323  24.508  29.667  13.521
33064W        W98324  17.192  10.840   0.424
33065W        W98325   3.742  42.769  10.343
33066W        W98326  30.078   9.933   1.295
33067W        W98327  22.986  36.795   2.663
33068W        W98328  33.400  44.422  13.776
33069W        W98329  29.643  14.781  14.476
33070W        W98330  15.901   4.104   4.542
33071W        W98331  35.098  25.491   1.736
33072W        W98332  39.104   6.849   0.102
33073W        W98333   4.273  24.315  12.405
33074W        W98334  44.886   6.637  14.026
33075W        W98335  24.570  24.579   3.595
33076W        W98336  13.737  40.335   4.590
33077W        W98337  18.210  25.700  11.001
33078W        W98338  29.424   7.958  13.771
33079W        W98339  32.166   6.938  10.525
33080W        W98340  44.912  25.126   3.123
33081W        W98341  11.565  10.184   0.851
33082W        W98342  41.983  40.368  14.341
33083W        W98343  14.712   9.802   2.275
33084W        W98344  33.043   0.471  12.086
33085W        W98345  25.468  15.204   2.202
33086W        W98346  18.609  44.230   4.481
33087W        W98347   0.352   4.990   3.475
33088W        W98348  32.065  23.485  10.739
33089W        W98349  42.340  17.583   2.216
33090W        W98350  23.612  42.459   1.071
33091W        W98351  23.185  33.340   3.328
33092W        W98352  19.468  38.675  12.401
33093W        W98353  35.854   2.561   4.989
33094W        W98354  19.442  40.906   4.591
33095W        W98355  34.919   0.193   0.353
33096W        W98356  27.241  34.526   1.314
33097W        W98357  27.355  15.637   4.046
33098W        W98358  40.348  10.735  12.893
33099W        W98359  23.517   3.810   0.912
33100W        W98360  38.604  35.860  13.021
33101W        W98361  35.623   7.874  11.934
33102W        W98362   3.645  44.365  14.417
33103W        W98363  42.980  16.615   0.910
33104W        W98364  28.624  20.359  10.292
33105W        W98365  42.903  17.701  11.595
33106W        W98366   9.184  43.971   0.044
33107W        W98367   3.024  10.756  13.351
33108W        W98368  35.355  25.694  11.577
33109W        W98369  33.505  21.794  14.774
33110W        W98370  29.401  36.931   0.060
33111W        W98371  14.155  39.023  13.352
33112W        W98372   7.197  15.839  11.579
33113W        W98373  15.884   3.338  12.022
33114W        W98374  11.520  23.705   3.213
33115W        W98375  10.748   9.741  11.129
33116W        W98376  20.686  20.297  10.677
33117W        W98377  35.999  15.684  10.365
33118W        W98378  35.975  32.471   4.426
33119W        W98379  29.520  38.009  12.366
33120W        W98380  21.806  33.620  13.318
33121W        W98381  17.526  32.416  14.988
33122W        W98382  41.978  21.143   1.924
33123W        W98383  19.094  44.541   2.626
33124W        W98384  31.011  20.824  12.833
33125W        W98385   2.661  22.098  10.711
33126W        W98386   1.065   6.214   0.281
33127W        W98387  22.514  20.636  12.382
33128W        W98388  13.951  40.905   4.545
33129W        W98389  22.261  31.594  12.556
33130W        W98390  38.796  40.989  13.391
33131W        W98391  29.165  10.472   2.493
33132W        W98392   6.150  24.548  13.457
33133W        W98393  39.989  25.771  13.971
33134W        W98394  30.222  42.231  12.542
33135W        W98395  13.921  14.106  12.097
33136W        W98396  44.432  15.426  11.170
33137W        W98397  10.425  20.456  12.592
33138W        W98398  29.558  29.409   5.017
33139W        W98399   5.247   5.357  13.159
33140W        W98400  38.388  38.731  14.543
33141W        W98401  39.578  34.573   2.494
33142W        W98402  44.105  13.397   4.294
33143W        W98403  27.971   9.263  12.988
33144W        W98404   8.154  12.755   3.892
33145W        W98405   3.866  19.257   1.817
33146W        W98406   8.104  39.986   3.597
33147W        W98407  35.145  34.934   3.872
33148W        W98408   7.186  34.583   2.092
33149W        W98409  38.393  17.531  12.636
33150W        W98410  30.855  19.698  10.725
33151W        W98411  33.889  20.578  11.903
33152W        W98412  20.315  42.569   4.549
33153W        W98413  16.877  16.727  11.662
33154W        W98414  28.116  29.592   1.623
33155W        W98415  29.863  27.036   1.663
33156W        W98416  38.473  31.904   1.222
33157W        W98417  35.404  30.674   1.987
33158W        W98418  21.109  43.612   4.609
33159W        W98419  31.876  38.857  13.490
33160W        W98420  31.990  29.851   3.421
33161W        W98421  36.987  29.453  13.736
33162W        W98422  16.609  31.606  12.005
33163W        W98423   4.258   3.568   0.069
33164W        W98424  18.120  35.645   4.166
33165W        W98425  27.141  34.614   3.852
33166W        W98426   6.887   5.713  12.036
33167W        W98427  18.222  14.568   0.046
33168W        W98428  28.965  16.242  12.414
33169W        W98429  21.200  34.571   1.872
33170W        W98430  10.818  36.662  12.831
33171W        W98431  41.645  40.413  13.317
33172W        W98432  21.871   8.302  13.444
33173W        W98433   5.520  27.783  11.151
33174W        W98434  32.534  29.955   1.683
33175W        W98435   6.924  21.300   1.081
33176W        W98436   3.858  33.009   4.406
33177W        W98437  16.863   3.890   3.846
33178W        W98438  28.094  39.343   0.022
33179W        W98439   4.207  34.980  14.025
33180W        W98440  41.325   1.267   0.261
33181W        W98441  17.784   1.211   4.142
33182W        W98442  39.607  23.140   3.444
33183W        W98443  43.950   8.192  10.566
33184W        W98444  37.401   8.793   0.825
33185W        W98445   3.399  31.077   4.314
33186W        W98446  35.640  29.143   1.112
33187W        W98447  37.462  35.556  11.071
33188W        W98448  32.569  12.671  12.517
33189W        W98449  35.998  25.003   4.132
33190W        W98450   8.910   4.767   4.604
33191W        W98451  23.150  24.739   1.295
33192W        W98452  30.000  19.492   3.087
33193W        W98453   8.274  38.938   1.299
33194W        W98454   1.562   7.200   3.738
33195W        W98455  38.609  12.189  13.005
33196W        W98456  40.472  31.528   1.947
33197W        W98457  17.248  27.530  14.814
33198W        W98458  41.411   6.908   3.718
33199W        W98459   6.733  31.755  13.533
33200W        W98460   6.455  12.337  13.057
33201W        W98461  28.053  10.512  13.609
33202W        W98462  41.240  35.949  12.601
33203W        W98463  27.090  17.650  13.029
33204W        W98464  39.365  44.940  11.357
33205W        W98465  44.282  31.051  12.809
33206W        W98466   4.295  10.117   1.736
33207W        W98467  29.996  20.768  14.592
33208W        W98468  39.418  25.213  13.517
33209W        W98469  22.016  20.061   2.366
33210W        W98470  10.373   8.154  13.893
33211W        W98471  19.191  38.561  11.914
33212W        W98472   7.163  35.515   0.231
33213W        W98473   8.291  38.099   2.220
33214W        W98474  30.558  36.388   2.982
33215W        W98475  40.113  24.191  11.612
33216W        W98476  33.845  18.666   2.546
33217W        W98477  21.800  28.970  14.934
33218W        W98478  28.204  44.091  12.419
33219W        W98479   1.336  33.364   1.470
33220W        W98480  14.119   6.845   0.419
33221W        W98481  36.063  37.189  12.118
33222W        W98482  36.394  31.981  12.553
33223W        W98483  12.653  15.104   4.782
33224W        W98484  35.998  29.452  14.430
33225W        W98485  44.837  12.788  12.227
33226W        W98486  33.378  10.232  14.510
33227W        W98487  16.080  38.179   3.453
33228W        W98488  25.449  25.960  14.620
33229W        W98489   8.497  27.567   0.464
33230W        W98490   2.364  28.628  10.746
33231W        W98491  43.489  41.981   1.149
33232W        W98492  25.034  38.970   1.594
33233W        W98493   5.731  27.525  11.563
33234W        W98494  14.413  11.602  11.113
33235W        W98495  16.632   4.432  11.095
33236W        W98496   1.246   1.343   3.820
33237W        W98497   8.322  30.132   2.257
33238W        W98498  25.782  34.751   2.431
33239W        W98499  21.028  27.595   2.002
33240W        W98500  23.047  44.242   0.422
33241W        W98501  24.218  11.737  11.191
33242W        W98502   7.858   1.723  13.016
33243W        W98503   1.733   5.695   2.849
33244W        W98504  20.576  22.245  10.470
33245W        W98505  35.125   8.256   3.711
33246W        W98506   6.764  17.732   4.731
33247W        W98507  24.804  20.056   2.629
33248W        W98508   2.333   1.679   1.869
33249W        W98509  19.153   9.740   2.644
33250W        W98510  41.468   4.754   4.891
33251W        W98511  27.120  36.485  14.409
33252W        W98512   1.546  33.996   2.248
33253W        W98513  40.530   1.994   2.388
33254W        W98514   5.780  23.135  13.095
33255W        W98515  34.337   8.355   0.926
33256W        W98516  39.767  15.838  12.037
33257W        W98517   7.615  38.816  13.841
33258W        W98518   3.597  14.211  11.943
33259W        W98519   6.929   3.704  12.539
33260W        W98520  27.690   1.292   0.828
33261W        W98521  28.392  35.310  13.008
33262W        W98522  10.388  39.689  10.343
33263W        W98523  13.798  14.145  10.694
33264W        W98524  12.250  26.980   3.140
33265W        W98525  14.356  38.297   3.550
33266W        W98526  11.623  23.066   4.918
33267W        W98527  10.863  36.587  13.341
33268W        W98528   0.389  34.904  13.709
33269W        W98529  39.055  19.755   1.641
33270W        W98530  15.130  28.664   4.350
33271W        W98531   7.927   1.388  12.069
33272W        W98532  44.421   6.795   3.383
33273W        W98533  43.278  42.202   1.818
33274W        W98534  18.477  10.712   2.191
33275W        W98535  22.829  30.528  10.680
33276W        W98536   7.840  43.803   0.717
33277W        W98537  11.691   2.283   3.446
33278W        W98538   3.461   4.661   0.794
33279W        W98539  29.352  16.965   2.858
33280W        W98540   4.710   7.876   3.709
33281W        W98541  11.398  21.997   4.181
33282W        W98542  14.801  29.137  12.890
33283W        W98543  27.175  29.408   1.983
33284W        W98544  44.431  20.142   4.331
33285W        W98545  10.127  38.427   1.246
33286W        W98546  20.126  14.591   4.177
33287W        W98547  19.864   1.184   9.881
33288W        W98548  17.325  18.930  11.142
33289W        W98549  10.760   6.000  10.301
33290W        W98550  30.606   4.153   0.477
33291W        W98551  32.031  42.779   3.624
33292W        W98552  25.080  19.242  11.705
33293W        W98553  13.208   0.713  13.339
33294W        W98554  37.955  19.847   3.632
33295W        W98555  35.424  15.890  11.025
33296W        W98556  33.205  25.557   1.162
33297W        W98557   0.837  41.321   3.727
33298W        W98558  44.043  10.674   2.998
33299W        W98559   4.375  40.917   1.827
33300W        W98560  44.883  17.638   1.866
33301W        W98561  43.187  22.053   0.782
33302W        W98562   8.980   1.724   3.801
33303W        W98563  38.966  17.175  14.901
33304W        W98564  31.174  11.128   1.731
33305W        W98565  43.773  22.966   1.919
33306W        W98566  36.303  25.908  14.353
33307W        W98567  28.451  11.875   1.721
33308W        W98568   6.227  31.838  11.594
33309W        W98569  35.820  24.183  10.668
33310W        W98570  42.102  22.051   1.593
33311W        W98571  25.610  30.959   3.369
33312W        W98572  30.528  35.962  12.140
33313W        W98573  26.219  41.286   3.281
33314W        W98574   2.908  39.026  10.370
33315W        W98575  28.617  42.962   0.283
33316W        W98576  43.482   8.672   2.343
33317W        W98577  21.404  33.123   3.419
33318W        W98578   2.384  42.082  10.616
33319W        W98579   2.570  37.923  11.020
33320W        W98580  42.565  20.075  14.395
33321W        W98581   2.824  26.918   2.590
33322W        W98582  23.459   2.543  10.301
33323W        W98583  17.330  15.103  13.531
33324W        W98584  34.118  15.802  14.424
33325W        W98585  22.849  42.524   1.840
33326W        W98586  13.246   2.818   3.765
33327W        W98587  13.161  23.674  13.412
33328W        W98588  44.335  20.526   4.693
33329W        W98589  24.761  21.960   4.511
33330W        W98590  19.687  25.278  13.023
33331W        W98591  26.388  11.102  14.441
33332W        W98592  11.281   6.169  10.197
33333W        W98593  12.266  39.969  13.121
33334W        W98594  17.251   4.957  11.515
33335W        W98595  20.614  29.954   0.195
33336W        W98596  35.524  33.345  11.445
33337W        W98597  32.501  26.036  12.088
33338W        W98598  11.378  15.749   2.341
33339W        W98599  15.985  31.204  13.541
33340W        W98600  13.200  26.424   0.965
33341W        W98601  15.289  18.530  14.002
33342W        W98602  33.599  29.495  11.381
33343W        W98603  11.669   1.025  12.904
33344W        W98604  14.341  23.837  11.757
33345W        W98605  38.015  12.887  14.220
33346W        W98606  44.411  27.881   1.568
33347W        W98607  12.317  41.049   2.214
33348W        W98608  29.887  44.452   4.582
33349W        W98609  24.655  43.469   1.355
33350W        W98610  15.056   6.939  12.874
33351W        W98611  13.373  14.417  10.822
33352W        W98612  28.134  22.219  13.755
33353W        W98613  23.810  28.109   3.146
33354W        W98614   1.433   9.931   0.288
33355W        W98615  23.528  17.977   1.032
33356W        W98616  41.810   7.824   2.940
33357W        W98617  43.809  38.966  13.280
33358W        W98618  27.006  38.138  12.341
33359W        W98619   7.137  39.016   4.559
33360W        W98620  13.206   0.971  12.025
33361W        W98621  21.030  19.565  12.522
33362W        W98622  23.983  30.597  10.939
33363W        W98623  26.595  41.418  14.248
33364W        W98624  30.139  18.750  14.528
33365W        W98625  18.291  40.068   1.862
33366W        W98626  26.763  22.388   3.271
33367W        W98627  20.702   3.399  11.415
33368W        W98628   6.033  28.147   0.899
33369W        W98629  38.006   3.780   5.150
33370W        W98630  13.417   1.682  14.742
33371W        W98631  15.599   1.381   0.422
33372W        W98632   7.794  33.210   1.893
33373W        W98633  18.147  19.922  12.865
33374W        W98634  19.754   0.003  13.370
33375W        W98635   8.174  34.579  12.990
33376W        W98636  36.869  13.142   0.292
33377W        W98637  27.666  23.540   4.325
33378W        W98638  19.545  23.105   0.845
33379W        W98639  20.503  30.635   1.792
33380W        W98640  12.413  23.724  11.038
33381W        W98641  23.947  16.791   2.975
33382W        W98642  14.312   9.743  12.760
33383W        W98643  32.329  30.917  10.656
33384W        W98644  12.491  40.866  12.217
33385W        W98645   7.639  41.685   1.735
33386W        W98646   3.678  23.156  12.542
33387W        W98647  37.417  34.325   2.703
33388W        W98648  42.216  16.670   4.609
33389W        W98649  18.277   6.686   0.282
33390W        W98650  34.282  19.979   2.772
33391W        W98651  31.087  26.582  10.286
33392W        W98652  35.515  10.704   3.072
33393W        W98653  20.545  37.913   1.136
33394W        W98654   0.791   4.877  12.049
33395W        W98655  29.780  23.461   0.879
33396W        W98656  17.701  39.324  10.563
33397W        W98657  36.401  41.078   9.973
33398W        W98658   8.210  35.088  12.845
33399W        W98659  31.517  42.967   3.785
33400W        W98660  22.763  29.596  10.812
33401W        W98661   0.204  33.584  10.642
33402W        W98662   6.305   4.912   1.151
33403W        W98663  37.971  41.947  13.908
33404W        W98664   3.952  29.135  11.626
33405W        W98665  11.136  40.315   1.388
33406W        W98666  38.970   3.717  12.584
33407W        W98667   7.344  39.558  12.024
33408W        W98668  34.856  37.464   2.650
33409W        W98669   3.202   0.506   2.839
33410W        W98670   2.329  31.402  13.070
33411W        W98671  32.403  28.916   3.642
33412W        W98672  12.077  32.194  12.524
33413W        W98673  27.036  16.263  13.798
33414W        W98674  19.567   9.400   4.621
33415W        W98675   2.460  36.888   3.694
33416W        W98676  28.601   5.425   2.273
33417W        W98677  26.836   7.478   0.477
33418W        W98678   8.892  11.782   2.844
33419W        W98679   1.531  21.382  13.435
33420W        W98680  32.301  39.314   4.152
33421W        W98681   6.380  16.779   2.630
33422W        W98682  15.544  21.078  11.696
33423W        W98683  22.050  22.909  11.677
33424W        W98684  12.258  12.103  13.590
33425W        W98685  18.957  10.009   0.842
33426W        W98686   3.882  42.582  12.934
33427W        W98687  34.835  16.656  11.142
33428W        W98688  40.573   5.633   2.911
33429W        W98689  38.704  30.805  12.503
33430W        W98690  23.192  27.999   2.153
33431W        W98691   0.190   7.281  13.382
33432W        W98692   4.877  30.619  11.883
33433W        W98693   4.757  20.782  14.699
33434W        W98694  27.202  20.063  14.921
33435W        W98695  35.156  32.680  13.218
33436W        W98696  20.046  41.504   2.261
33437W        W98697  22.959  15.982  11.343
33438W        W98698  10.248  13.202   4.843
33439W        W98699  36.406  19.250   4.122
33440W        W98700  32.295   5.184  11.145
33441W        W98701  27.163  25.635   0.406
33442W        W98702   7.930  43.847   0.174
33443W        W98703  38.751  40.149   2.937
33444W        W98704  27.056  32.636   1.044
33445W        W98705   6.931  44.293   0.137
33446W        W98706  11.072  31.639  10.631
33447W        W98707   5.248   5.196  12.664
33448W        W98708  26.207  27.138  12.943
33449W        W98709  39.364   5.935   1.025
33450W        W98710  12.111   2.225   2.739
33451W        W98711  37.020  35.016  11.863
33452W        W98712  18.842  33.011   1.179
33453W        W98713  34.326  21.552  13.683
33454W        W98714  40.938   4.759   1.322
33455W        W98715  37.970  39.853  14.926
33456W        W98716  36.117  38.785  11.240
33457W        W98717  37.837  28.117  14.317
33458W        W98718   1.435  21.608   0.201
33459W        W98719  18.964   4.199  11.804
33460W        W98720  27.268  13.194  11.118
33461W        W98721  16.676   3.682  11.561
33462W        W98722  25.979  34.679  14.190
33463W        W98723  36.814   3.783   3.661
33464W        W98724   1.280  35.500  14.268
33465W        W98725  28.604   4.081  13.506
33466W        W98726  33.116   7.580   2.406
33467W        W98727  19.884  34.997   4.587
33468W        W98728  21.511   7.933  13.590
33469W        W98729  35.316  14.050  11.097
33470W        W98730  28.508  32.594   2.780
33471W        W98731  35.627  39.846   4.389
33472W        W98732  33.563  17.880   2.810
33473W        W98733   8.703  29.580   3.527
33474W        W98734   5.959   5.717  10.691
33475W        W98735  21.557  11.303  13.547
33476W        W98736   1.448  44.366   4.244
33477W        W98737   2.182  43.553   4.201
33478W        W98738  27.483  43.887   1.800
33479W        W98739   3.409  13.353   4.361
33480W        W98740  36.894  28.215  14.490
33481W        W98741  33.097  22.869   2.859
33482W        W98742  39.137  13.063   3.205
33483W        W98743  10.375   9.921   3.092
33484W        W98744  38.522  18.529   0.394
33485W        W98745   4.570   4.242   4.266
33486W        W98746   3.620  14.560  13.067
33487W        W98747  18.146   7.430  12.366
33488W        W98748  34.862   4.253   0.923
33489W        W98749  38.792  32.874   0.382
33490W        W98750  39.581  18.310   2.054
33491W        W98751  40.580  22.449  11.722
33492W        W98752  29.815   4.203  10.796
33493W        W98753  11.477  32.059  14.468
33494W        W98754  26.277  21.169   1.785
33495W        W98755  39.344   2.354   4.435
33496W        W98756   7.334  13.455   0.930
33497W        W98757  23.743  31.787  14.818
33498W        W98758  25.721  42.906  10.343
33499W        W98759  39.532  32.658  10.409
33500W        W98760  17.058  40.318  12.040
33501W        W98761   5.244  23.920   3.725
33502W        W98762  25.548  26.675   2.653
33503W        W98763  43.692  12.231   2.309
33504W        W98764  11.424  25.356   0.569
33505W        W98765   1.892  11.460   3.365
33506W        W98766  44.276   4.898  14.796
33507W        W98767  12.832  26.057  13.948
33508W        W98768  12.159  27.463   3.295
33509W        W98769   5.881  43.182  13.319
33510W        W98770  27.732  13.057  11.217
33511W        W98771  16.670  12.107  11.159
33512W        W98772  29.341  23.235   1.717
33513W        W98773   5.738  21.293  14.728
33514W        W98774   8.286  39.876   4.056
33515W        W98775  36.329  42.044  11.117
33516W        W98776  10.583  26.532  13.659
33517W        W98777  20.487  29.006  13.561
33518W        W98778  35.797  13.017  11.752
33519W        W98779  41.750  31.632   4.656
33520W        W98780  30.685  40.864   0.837
33521W        W98781  21.868  21.765   5.404
33522W        W98782   0.706  33.584  10.710
33523W        W98783  13.181  15.198  11.582
33524W        W98784  10.770  17.600  12.045
33525W        W98785  39.372  31.658  11.608
33526W        W98786  39.040   8.386   1.765
33527W        W98787  15.085   8.866   0.222
33528W        W98788  26.627  15.815  11.754
33529W        W98789  35.488  39.540  10.799
33530W        W98790  13.170   9.154   1.259
33531W        W98791  17.714  13.836  12.056
33532W        W98792  40.374  22.316   2.164
33533W        W98793  33.279  33.403   1.144
33534W        W98794  18.795  28.775  10.952
33535W        W98795   9.035  15.366   2.277
33536W        W98796   8.264   6.329   2.330
33537W        W98797   0.261  22.224   3.719
33538W        W98798   9.888  39.019  11.599
33539W        W98799  38.017  40.743   1.241
33540W        W98800  26.570  13.206   4.428
33541W        W98801  21.108  40.399  13.371
33542W        W98802  37.995  32.362  13.101
33543W        W98803   9.898  44.967  11.548
33544W        W98804  10.394  42.745  12.965
33545W        W98805  20.341  34.310  11.722
33546W        W98806  18.350  11.012  14.025
33547W        W98807   2.869   5.383  13.552
33548W        W98808   0.767  32.854   3.677
33549W        W98809  20.146  22.593   1.206
33550W        W98810  11.580  32.106  12.460
33551W        W98811   3.199   7.663   2.301
33552W        W98812  13.422  43.002  11.209
33553W        W98813  34.947  13.286   2.094
33554W        W98814  26.750  10.416   1.472
33555W        W98815  13.046  11.737   1.856
33556W        W98816  15.273   8.303  14.398
33557W        W98817  16.319  44.028   3.642
33558W        W98818  18.407  37.510   2.467
33559W        W98819  17.295  22.327   0.415
33560W        W98820  25.591   1.254  10.395
33561W        W98821  12.395  26.750   3.783
33562W        W98822  24.954  38.569  12.887
33563W        W98823  24.237  14.430   0.922
33564W        W98824  25.298   6.388   3.354
33565W        W98825  35.472  31.656  11.170
33566W        W98826  14.325   1.981  12.190
33567W        W98827   8.943  20.073   2.221
33568W        W98828  23.480  14.923   3.827
33569W        W98829  35.875   9.246  11.995
33570W        W98830  12.159  19.058   0.708
33571W        W98831  42.013   7.765  14.333
33572W        W98832  17.515  36.409  11.024
33573W        W98833  39.534   2.369  13.837
33574W        W98834  18.553  18.796   1.885
33575W        W98835   2.690  27.509   0.819
33576W        W98836  33.394  33.311   5.247
33577W        W98837   2.950  32.866  11.254
33578W        W98838  39.081  10.705  14.934
33579W        W98839  38.348  34.827   0.447
33580W        W98840  42.490  23.079   3.216
33581W        W98841  17.209  39.049  11.437
33582W        W98842  14.543   1.254   1.200
33583W        W98843  40.455  39.058  11.224
33584W        W98844   2.254  11.359   9.765
33585W        W98845  24.935   0.854   4.821
33586W        W98846  10.812  13.608  12.572
33587W        W98847  21.080  28.167  11.563
33588W        W98848   2.324  36.963  12.462
33589W        W98849  22.766  19.572   1.165
33590W        W98850  38.284  33.781  13.951
33591W        W98851  35.855  21.470   2.553
33592W        W98852  35.828   4.317  13.520
33593W        W98853  40.991   0.325  10.850
33594W        W98854  19.627  11.690   3.359
33595W        W98855  14.818  10.671   2.703
33596W        W98856  32.412  11.860  11.494
33597W        W98857   4.016  20.832  13.345
33598W        W98858  16.987   7.327   2.313
33599W        W98859  42.562   2.331  10.721
33600W        W98860  40.725  20.105   4.659
33601W        W98861   1.749  18.250  14.350
33602W        W98862   6.869  29.785  14.781
33603W        W98863   3.891  25.687  12.037
33604W        W98864  15.324  16.219  12.405
33605W        W98865  31.417  14.558   1.995
33606W        W98866  17.548  10.243   0.938
33607W        W98867   8.030   0.105   1.761
33608W        W98868   3.306  32.334  14.787
33609W        W98869  36.817   0.911   1.125
33610W        W98870  42.559  36.866  11.060
33611W        W98871  32.689  20.052   2.327
33612W        W98872  23.012  35.084   0.670
33613W        W98873  19.163  44.304   1.716
33614W        W98874  27.524  41.849   3.724
33615W        W98875   1.885  36.662   4.927
33616W        W98876  39.217  34.303  11.669
33617W        W98877  14.274  11.498   0.275
33618W        W98878  29.751  15.326  13.295
33619W        W98879  24.002  28.737  11.339
33620W        W98880   4.839  32.150  10.918
33621W        W98881  35.936   4.312   4.131
33622W        W98882  15.804  30.161   2.663
33623W        W98883  32.891   6.483   2.466
33624W        W98884   6.759  34.879  13.956
33625W        W98885  11.321  18.774   1.602
33626W        W98886  16.624  31.425   3.354
33627W        W98887  14.827  40.186  14.948
33628W        W98888  28.052   9.509   1.716
33629W        W98889  13.327   0.848   1.096
33630W        W98890  21.522  21.140   1.391
33631W        W98891  15.819   4.679  11.004
33632W        W98892  38.456  19.118   2.106
33633W        W98893   1.511  39.044  10.748
33634W        W98894  43.895   3.025   1.915
33635W        W98895  27.454  44.936  14.413
33636W        W98896  15.734  39.321  12.478
33637W        W98897   3.949  24.133   4.614
33638W        W98898   1.692  36.714  11.640
33639W        W98899  10.939  34.389   3.190
33640W        W98900  26.215  22.269  12.371
33641W        W98901  14.410  34.105  14.715
33642W        W98902   5.919  36.234  11.276
33643W        W98903  22.025  44.889  10.706
33644W        W98904   7.252  23.158   0.874
33645W        W98905  39.773  16.719   4.116
33646W        W98906  20.632  21.561  14.778
33647W        W98907  12.129  23.710   2.296
33648W        W98908  43.515   8.989  10.691
33649W        W98909   8.440  14.797  10.503
33650W        W98910  14.269  43.033  11.624
33651W        W98911  35.389  24.483   2.884
33652W        W98912   7.288  39.406   2.733
33653W        W98913  15.115   7.462  14.014
33654W        W98914   2.526   7.353   3.522
33655W        W98915  34.175  17.025  13.918
33656W        W98916  23.801  16.144   4.031
33657W        W98917  26.937  36.912  13.238
33658W        W98918   3.375  33.353   1.678
33659W        W98919  44.107  12.083  11.015
33660W        W98920  27.855  41.536  11.142
33661W        W98921   4.954  12.156   3.800
33662W        W98922  15.722  16.815   4.591
33663W        W98923  31.234  16.431  14.328
33664W        W98924  27.724  14.518  13.548
33665W        W98925  40.088   9.022   4.740
33666W        W98926   3.871  13.718  12.950
33667W        W98927  44.042   0.554   0.329
33668W        W98928   0.573  30.270  11.151
33669W        W98929  12.096  37.163  14.188
33670W        W98930  27.960  11.654  14.447
33671W        W98931  10.911  32.368   3.265
33672W        W98932  15.200  24.490   3.163
33673W        W98933   9.944  26.193   0.497
33674W        W98934  41.005  13.937   4.713
33675W        W98935   0.885  31.015   3.536
33676W        W98936  23.044  37.635   3.070
33677W        W98937  20.000  34.047   2.976
33678W        W98938  24.257  29.432  14.884
33679W        W98939  18.371  30.320   4.973
33680W        W98940  14.724  42.531   4.566
33681W        W98941  25.660  44.607   2.630
33682W        W98942   5.743   9.102   0.061
33683W        W98943  15.023   8.359  10.667
33684W        W98944   4.473  28.363  10.291
33685W        W98945  39.925  31.230  14.781
33686W        W98946  15.312   5.281  12.737
33687W        W98947  34.451  35.924  11.651
33688W        W98948  39.599  42.422   4.267
33689W        W98949  42.533  12.885  10.196
33690W        W98950  15.603  41.272  12.819
33691W        W98951  31.859  16.150  14.886
33692W        W98952  11.413  26.593   3.633
33693W        W98953   2.021  43.920  14.088
33694W        W98954  28.622  12.660   0.468
33695W        W98955  22.450   0.499  13.296
33696W        W98956  26.033  44.773  14.087
33697W        W98957  28.173  37.812  13.840
33698W        W98958  28.508  44.776  14.532
33699W        W98959  34.914  18.600   4.230
33700W        W98960  11.630  25.295  13.064
33701W        W98961  25.150  30.628   0.249
33702W        W98962  15.731  39.875  10.216
33703W        W98963  35.621   2.376   0.478
33704W        W98964  41.259  15.221  12.612
33705W        W98965  43.774  17.192   3.261
33706W        W98966  43.976  16.252   3.649
33707W        W98967  40.605  12.256   1.905
33708W        W98968   6.154   7.214  14.908
33709W        W98969  32.029  20.316  12.429
33710W        W98970  28.769  17.835   4.027
33711W        W98971  32.539  15.827  10.740
33712W        W98972  24.567   3.736  10.783
33713W        W98973   8.644  22.103  13.050
33714W        W98974  33.210  35.393   3.586
33715W        W98975  25.750  13.195   4.512
33716W        W98976  26.670  25.164  11.565
33717W        W98977   4.431  14.284  10.689
33718W        W98978  33.134  35.728   2.255
33719W        W98979   9.422  24.334  14.191
33720W        W98980  23.637  41.953  11.348
33721W        W98981  22.534   2.467   2.567
33722W        W98982  16.533  34.999   0.520
33723W        W98983  31.630  22.938  11.064
33724W        W98984  29.543   8.074   1.373
33725W        W98985  24.572   8.609  13.918
33726W        W98986  40.842  34.314  14.509
33727W        W98987  35.727  44.474  14.092
33728W        W98988  37.268  32.413  12.914
33729W        W98989   6.025  25.745   4.554
33730W        W98990  13.606  31.487   3.358
33731W        W98991  33.325  35.183  11.225
33732W        W98992  43.911  35.821  13.911
33733W        W98993  35.031  21.233  12.002
33734W        W98994   3.902  28.140   0.803
33735W        W98995  21.211  38.397  12.596
33736W        W98996  40.785  11.157   1.293
33737W        W98997  25.265  20.922  13.592
33738W        W98998  27.588  38.182   2.933
33739W        W98999  36.591   8.396   3.843
33740W        W99000   5.515  22.714  11.500
33741W        W99001  18.427   5.119   1.263
33742W        W99002  24.053  16.328   2.159
33743W        W99003   7.896  36.346   4.664
33744W        W99004  33.432  40.546   2.935
33745W        W99005  44.795  43.456   3.224
33746W        W99006  21.241  35.911   1.803
33747W        W99007  16.860  17.157   2.421
33748W        W99008   2.752  39.603  14.373
33749W        W99009  44.370  29.395   4.909
33750W        W99010  15.062  39.388  12.103
33751W        W99011  31.676   4.938   0.448
33752W        W99012  15.530  44.845   4.531
33753W        W99013  21.712  25.728   0.922
33754W        W99014  38.425  39.032  11.616
33755W        W99015  19.448  41.485   1.249
33756W        W99016  22.462   7.811  14.551
33757W        W99017  32.753  33.767  12.813
33758W        W99018   2.654  14.491  13.693
33759W        W99019  31.029   3.765  11.523
33760W        W99020  21.078  35.890  13.122
33761W        W99021  44.352  38.414   2.056
33762W        W99022  33.960   6.742  13.458
33763W        W99023  33.339   9.720   1.920
33764W        W99024  44.026  29.933  14.831
33765W        W99025  19.676  31.292   1.931
33766W        W99026  25.189   3.478   3.610
33767W        W99027  28.054  14.244   5.158
33768W        W99028  10.202  15.810   1.777
33769W        W99029   1.790  26.970   2.246
33770W        W99030  24.034  23.271   1.262
33771W        W99031   3.778  21.763  10.769
33772W        W99032  37.179  28.941  11.973
33773W        W99033  18.053  31.944  13.513
33774W        W99034  19.771  29.642  12.232
33775W        W99035   3.987  23.200  13.683
33776W        W99036  22.618  17.149   0.168
33777W        W99037   1.892   7.209   0.479
33778W        W99038  42.582  35.026  14.026
33779W        W99039  42.937  35.926  12.353
33780W        W99040  17.200  32.161   3.102
33781W        W99041  20.135  12.854  12.419
33782W        W99042   9.478  30.004  13.997
33783W        W99043  18.180  37.241  12.855
33784W        W99044  21.866  21.008  14.940
33785W        W99045   6.934  20.095  12.441
33786W        W99046   6.891  30.205  13.005
33787W        W99047  37.495  14.641  11.810
33788W        W99048  31.628  44.915  12.488
33789W        W99049  19.725  35.682  11.218
33790W        W99050  34.127  10.674  12.456
33791W        W99051  19.329  33.053  12.444
33792W        W99052  25.424  44.503  12.516
33793W        W99053  44.871   0.295  11.576
33794W        W99054  23.521  15.113   1.238
33795W        W99055  36.523  18.584  10.544
33796W        W99056  28.991  35.712   2.840
33797W        W99057  34.944   7.231  12.607
33798W        W99058  34.675  37.041  11.974
33799W        W99059  25.936  26.426   2.905
33800W        W99060  16.166  34.952   3.653
33801W        W99061  37.043  27.874   1.967
33802W        W99062   7.813   3.036   0.353
33803W        W99063  18.767  33.691  11.068
33804W        W99064  12.691   3.409  11.628
33805W        W99065  16.066   5.067  12.396
33806W        W99066  12.332  32.597   4.101
33807W        W99067  12.094  26.441  12.494
33808W        W99068   9.714  10.235   1.209
33809W        W99069  25.544   8.164  12.912
33810W        W99070  37.403  28.930   0.177
33811W        W99071  27.725  33.597  11.071
33812W        W99072  20.350  29.504   2.769
33813W        W99073  27.576  28.855   1.734
33814W        W99074  22.754   4.694   2.677
33815W        W99075  14.333  25.381  10.573
33816W        W99076  20.648  23.226   0.557
33817W        W99077  21.081  17.901   2.626
33818W        W99078  12.625   8.890   5.108
33819W        W99079   7.738  36.673  12.997
33820W        W99080  12.098  15.139  13.352
33821W        W99081  14.635  37.952   3.237
33822W        W99082   0.724  41.058  14.522
33823W        W99083  38.736  35.043   3.769
33824W        W99084   3.363  11.406   3.747
33825W        W99085   6.708  41.435  11.148
33826W        W99086  12.184   0.507   1.576
33827W        W99087  21.159  10.419  13.970
33828W        W99088  44.390  26.231   4.229
33829W        W99089  35.650   0.065   4.544
33830W        W99090  41.214  44.916  13.967
33831W        W99091  36.624  16.069   4.088
33832W        W99092  19.051   2.748  11.126
33833W        W99093  43.320  21.586   4.150
33834W        W99094  10.203   1.155   2.365
33835W        W99095  40.552  22.721   0.579
33836W        W99096   0.525  42.500  10.781
33837W        W99097  10.173  44.605   1.960
33838W        W99098  42.921  16.618   3.986
33839W        W99099   1.007  23.487  10.326
33840W        W99100   3.271  23.051  11.065
33841W        W99101  24.240  37.378   1.387
33842W        W99102  37.222  12.000   5.167
33843W        W99103  24.994  44.681  11.623
33844W        W99104   6.362  24.994   0.489
33845W        W99105  26.703  34.492   4.213
33846W        W99106  29.637  23.755   3.577
33847W        W99107   9.594  39.813  13.300
33848W        W99108  26.098   8.466   4.159
33849W        W99109   2.972  34.546  12.348
33850W        W99110  41.437  11.225  11.272
33851W        W99111  17.135  25.411  13.485
33852W        W99112  27.398  38.156  11.990
33853W        W99113  33.279   7.926   3.366
33854W        W99114  10.106  32.950  10.903
33855W        W99115   1.528  14.137  11.063
33856W        W99116  32.221  42.501   1.326
33857W        W99117  36.533   7.723   1.329
33858W        W99118  35.491   6.437   0.084
33859W        W99119   9.368  21.704  11.021
33860W        W99120  34.876  11.699   0.325
33861W        W99121  39.797  26.711  14.009
33862W        W99122   4.633  15.129  12.447
33863W        W99123  31.960  15.804   3.876
33864W        W99124   9.786  27.553   2.288
33865W        W99125  39.137   8.599  14.986
33866W        W99126  15.227  21.057   2.164
33867W        W99127  15.603  44.888   3.977
33868W        W99128  36.689  33.712  13.041
33869W        W99129  27.979  30.112   2.701
33870W        W99130  42.791  36.467  13.586
33871W        W99131   8.098  20.385   2.656
33872W        W99132   3.735  28.074   2.250
33873W        W99133   4.786  18.240  14.500
33874W        W99134   6.064  28.471  10.604
33875W        W99135  33.487  42.100   1.938
33876W        W99136  27.004  15.534  14.397
33877W        W99137   1.031  28.515  10.475
33878W        W99138   7.744  42.299   3.532
33879W        W99139   7.629  43.444  11.111
33880W        W99140   9.702  34.349   5.048
33881W        W99141  15.232  18.691   2.362
33882W        W99142  36.655  18.306   0.104
33883W        W99143   5.673  38.406   3.925
33884W        W99144  19.059  16.185  10.637
33885W        W99145  33.012  16.813   0.908
33886W        W99146  41.008   5.516  14.084
33887W        W99147  32.476  40.442   1.353
33888W        W99148  33.930  10.071  12.569
33889W        W99149  26.367  18.630   0.833
33890W        W99150  33.544  19.555  13.576
33891W        W99151   4.855   9.131  14.864
33892W        W99152  19.754  20.114  13.413
33893W        W99153  29.228  14.773   4.697
33894W        W99154   1.444  22.088  11.104
33895W        W99155  39.063   2.113   2.222
33896W        W99156  11.749  32.310   0.332
33897W        W99157   3.765  13.650  13.911
33898W        W99158  19.314   8.705   1.354
33899W        W99159  37.809  13.053   2.862
33900W        W99160  13.558  33.568   3.041
33901W        W99161  15.584  26.871   1.735
33902W        W99162  41.422  18.491   0.395
33903W        W99163  11.274  43.941  10.738
33904W        W99164   7.529  37.532  14.819
33905W        W99165  31.096  23.182   3.617
33906W        W99166  32.660  13.286   4.636
33907W        W99167   2.290   2.759  13.235
33908W        W99168  12.428  23.045  13.436
33909W        W99169   6.386  40.610  10.400
33910W        W99170  30.984  18.660  14.889
33911W        W99171  29.364   9.413   1.823
33912W        W99172  32.259  16.543   1.078
33913W        W99173   0.256  25.675   0.481
33914W        W99174  38.739  37.554   2.866
33915W        W99175   2.201  31.025  12.070
33916W        W99176  24.028  30.144  11.611
33917W        W99177  44.988   6.449  13.209
33918W        W99178  44.863  32.643   3.378
33919W        W99179  39.908  38.323   2.441
33920W        W99180   0.870  28.132   0.871
33921W        W99181  44.243  20.151  10.982
33922W        W99182  35.015   4.034  12.782
33923W        W99183  26.516   1.491   3.258
33924W        W99184  44.559  21.861  13.048
33925W        W99185  43.267  27.450   0.708
33926W        W99186  13.696  11.282  10.663
33927W        W99187  13.302  37.267  12.184
33928W        W99188  37.727   0.793   2.495
33929W        W99189  21.015  26.653   1.338
33930W        W99190  23.949  39.438   4.437
33931W        W99191  14.446   6.842   1.907
33932W        W99192  34.928  17.347   9.863
33933W        W99193  28.670  27.776   1.810
33934W        W99194   6.966   9.185   1.218
33935W        W99195  25.948  38.442   4.548
33936W        W99196  40.448   7.144  13.368
33937W        W99197   3.037  37.585   1.926
33938W        W99198  42.650  44.023  12.540
33939W        W99199   5.642  43.376  10.599
33940W        W99200  32.471  34.301  14.386
33941W        W99201   9.625  42.337   4.860
33942W        W99202  41.900  27.423  11.689
33943W        W99203  36.755  18.217   0.642
33944W        W99204  30.588   7.013  11.240
33945W        W99205  32.488  29.428  13.510
33946W        W99206  28.597  11.690   3.567
33947W        W99207  29.695  32.570  14.858
33948W        W99208   5.627  43.025   3.787
33949W        W99209  29.493   7.115  10.406
33950W        W99210  11.722  24.293  12.954
33951W        W99211  32.684   4.274   0.538
33952W        W99212  30.919  37.078  14.370
33953W        W99213  20.621  15.289  10.547
33954W        W99214   4.405  30.979  11.292
33955W        W99215  28.904  29.125  14.469
33956W        W99216  36.024  17.472   0.811
33957W        W99217  24.039  44.445  11.901
33958W        W99218  37.364  41.250   0.392
33959W        W99219  42.419  38.089  12.294
33960W        W99220   8.347  20.171  11.651
33961W        W99221  31.898   6.947  12.565
33962W        W99222  43.468  21.637  10.615
33963W        W99223  11.782  31.087   1.818
33964W        W99224   5.456  12.697  11.468
33965W        W99225  10.786  40.039  10.328
33966W        W99226  35.640  24.089   3.202
33967W        W99227   8.292  13.190   4.577
33968W        W99228  39.029  42.435  14.753
33969W        W99229   3.860   3.746   4.885
33970W        W99230  19.973   0.842   0.953
33971W        W99231  14.689  15.415   4.252
33972W        W99232  18.055  29.668  11.562
33973W        W99233  22.821  23.034   0.225
33974W        W99234  24.024  10.616  12.925
33975W        W99235  44.882   8.756   3.699
33976W        W99236  43.329  18.086   4.410
33977W        W99237  24.180  43.766   0.682
33978W        W99238  17.324  26.356   2.958
33979W        W99239   5.507  29.054   2.828
33980W        W99240   8.214  36.888   4.307
33981W        W99241  10.418  17.122  14.620
33982W        W99242  21.160  20.079  10.773
33983W        W99243  25.543  26.760   4.648
33984W        W99244   1.911  29.550  10.550
33985W        W99245  18.353  40.360   2.813
33986W        W99246  12.988  23.720  11.608
33987W        W99247  41.130   7.333   1.321
33988W        W99248  14.101  29.969   1.335
33989W        W99249  42.281   6.252   1.150
33990W        W99250  39.348  11.228   0.413
33991W        W99251  22.295  18.988   1.279
33992W        W99252   4.724  29.714  12.993
33993W        W99253   7.272  20.490  11.152
33994W        W99254   3.252   6.092  13.873
33995W        W99255  28.007  26.778  12.473
33996W        W99256  38.508   3.645   1.186
33997W        W99257  44.791  11.601   0.391
33998W        W99258  20.501   9.935   4.152
33999W        W99259  36.607  29.077  14.359
34000W        W99260  39.016  13.481  12.571
34001W        W99261  30.394   6.144  11.492
34002W        W99262  27.828  26.970   2.820
34003W        W99263  15.178  43.077  11.937
34004W        W99264  38.943  30.902  11.141
34005W        W99265  30.083  10.149   4.738
34006W        W99266   2.241  43.523  11.974
34007W        W99267  34.962   9.425  13.787
34008W        W99268   1.788  20.346   0.723
34009W        W99269   1.397  42.795   0.775
34010W        W99270  16.709   1.304   3.211
34011W        W99271  26.672  33.005   3.649
34012W        W99272  24.109  38.239   2.734
34013W        W99273  25.646  17.368   1.494
34014W        W99274  24.202  29.436   3.254
34015W        W99275  18.548  42.686  14.655
34016W        W99276   6.249  31.577   4.296
34017W        W99277  40.199  10.067   0.423
34018W        W99278  43.609  17.715   0.318
34019W        W99279  24.525  25.617   0.841
34020W        W99280  41.574  43.824   3.773
34021W        W99281   0.358  41.408  12.571
34022W        W99282  30.504  29.411   2.836
34023W        W99283  30.735  36.080   1.857
34024W        W99284   7.432  34.427   1.105
34025W        W99285   3.408   9.322  14.373
34026W        W99286  14.450  14.704  11.657
34027W        W99287  25.506  36.441   5.237
34028W        W99288  29.576  19.560  13.921
34029W        W99289  14.643  19.231  12.058
34030W        W99290  11.877   5.362  14.568
34031W        W99291  17.651  12.041  12.339
34032W        W99292  10.815  25.014   4.085
34033W        W99293  11.000  29.528   2.022
34034W        W99294   5.426  26.611  10.657
34035W        W99295  29.587  13.426   2.925
34036W        W99296  40.857  24.098  12.419
34037W        W99297  24.401   4.683  12.473
34038W        W99298  31.347  39.281  14.074
34039W        W99299  31.586   7.660   1.901
34040W        W99300  36.812  21.762  12.004
34041W        W99301   1.963  12.632   5.063
34042W        W99302  17.787  43.964   2.772
34043W        W99303  13.904  42.968   3.158
34044W        W99304   1.231  19.554   4.974
34045W        W99305  16.028  25.883  13.518
34046W        W99306  41.003  37.902  14.528
34047W        W99307  15.289  32.070   1.351
34048W        W99308  18.910  16.540  11.103
34049W        W99309  36.830  40.674  12.893
34050W        W99310  16.624  33.893   1.395
34051W        W99311   9.574  12.911   0.865
34052W        W99312  25.100   9.642   4.536
34053W        W99313  43.082  16.076   0.803
34054W        W99314  42.406  40.004   3.317
34055W        W99315   2.078  21.709  12.162
34056W        W99316  31.931  19.546   3.225
34057W        W99317   5.309   4.386   2.107
34058W        W99318   2.921  16.421   0.405
34059W        W99319  30.510  29.482   0.721
34060W        W99320  28.205  37.282  12.901
34061W        W99321   0.505  40.405  13.897
34062W        W99322   9.685  31.131   4.706
34063W        W99323  31.895  26.174   1.966
34064W        W99324  19.038  31.118  14.603
34065W        W99325  33.519   2.785   1.974
34066W        W99326   5.207   8.178  12.504
34067W        W99327  42.448  37.046  10.563
34068W        W99328  26.659  12.832   2.434
34069W        W99329  40.825  39.658   2.889
34070W        W99330  24.077  24.225  13.870
34071W        W99331   0.004  39.410   0.786
34072W        W99332  40.436  41.672  12.031
34073W        W99333  12.819  22.202  14.252
34074W        W99334   2.714   2.834  14.732
34075W        W99335   4.705  27.708  11.610
34076W        W99336  38.920  41.416   4.425
34077W        W99337  15.560  13.832  13.857
34078W        W99338  44.335  19.022  13.514
34079W        W99339  25.165  23.074   1.524
34080W        W99340  11.498   8.659   2.772
34081W        W99341  22.081   6.007   3.182
34082W        W99342  41.123  13.637   2.787
34083W        W99343  16.820  38.687   2.303
34084W        W99344  31.925  29.570   0.659
34085W        W99345  12.295  32.498   1.448
34086W        W99346  40.789  37.095   3.351
34087W        W99347  31.859   1.637   1.882
34088W        W99348   9.094  19.293   3.179
34089W        W99349  43.938  23.039   4.155
34090W        W99350   8.028  31.161  13.205
34091W        W99351   4.456  42.755  11.065
34092W        W99352  12.113  34.844  12.030
34093W        W99353   7.186  13.562  13.959
34094W        W99354  36.140   4.978  11.682
34095W        W99355   8.058  29.702   2.316
34096W        W99356   6.892   7.179  12.932
34097W        W99357  13.576   1.524  12.426
34098W        W99358   0.080  39.920   0.776
34099W        W99359  41.889   6.984  12.483
34100W        W99360  39.245  17.535  12.542
34101W        W99361  39.184   4.376  13.622
34102W        W99362  23.413  34.581   2.289
34103W        W99363   5.292   5.076  11.578
34104W        W99364  40.805  37.380  10.113
34105W        W99365  42.723  44.528  12.440
34106W        W99366  16.252  13.882   2.655
34107W        W99367  33.340  19.605  10.957
34108W        W99368  11.897  29.533   2.353
34109W        W99369   2.845  37.432  11.362
34110W        W99370  30.894  10.266  13.349
34111W        W99371  21.654   4.672   3.553
34112W        W99372  18.096  20.700   3.507
34113W        W99373  39.541  19.294   4.523
34114W        W99374  20.762  42.964  11.379
34115W        W99375  37.073  39.776  11.831
34116W        W99376  22.635  43.367   0.858
34117W        W99377  24.496  22.358   3.657
34118W        W99378   9.878  40.811   0.227
34119W        W99379  18.603  26.406  11.918
34120W        W99380  25.952  31.075  13.888
34121W        W99381  18.191   9.203   4.423
34122W        W99382  11.124   1.555  12.462
34123W        W99383  31.827  41.819   0.840
34124W        W99384  40.642  36.352  14.515
34125W        W99385   9.013  27.196   2.516
34126W        W99386  13.240  13.489   2.395
34127W        W99387  27.471  37.346  12.599
34128W        W99388  23.449  17.666   4.069
34129W        W99389  19.728  43.999  13.983
34130W        W99390  23.212  15.663   3.317
34131W        W99391  27.606  29.328  11.006
34132W        W99392  22.020   7.149  12.974
34133W        W99393   5.364  41.730   1.442
34134W        W99394  43.433  26.973  11.681
34135W        W99395  44.240  33.409  14.503
34136W        W99396  40.278  32.068  14.331
34137W        W99397   5.216  19.757   2.705
34138W        W99398   1.293   1.756   1.782
34139W        W99399  31.952  43.425  12.018
34140W        W99400  25.224  42.392  10.801
34141W        W99401  42.588  12.368  13.814
34142W        W99402  15.036  29.839   2.922
34143W        W99403  36.561   2.203   0.942
34144W        W99404  12.791  35.420   3.203
34145W        W99405  32.911  38.903   0.175
34146W        W99406  18.772  31.490  12.881
34147W        W99407   5.392  12.360   4.998
34148W        W99408  19.177  12.714  11.573
34149W        W99409  23.236  20.650  13.032
34150W        W99410  21.715   8.688  13.964
34151W        W99411  11.744  14.101   0.716
34152W        W99412  29.371   7.819  11.051
34153W        W99413  44.710   6.395  11.813
34154W        W99414  28.683   7.684   2.010
34155W        W99415  25.618  31.035  12.384
34156W        W99416  20.294  12.681  11.501
34157W        W99417  29.469  44.949  12.436
34158W        W99418  22.067   0.815   1.578
34159W        W99419  22.700  24.161   0.024
34160W        W99420   6.734  21.978   1.383
34161W        W99421  32.937  34.075   4.023
34162W        W99422  30.191  14.013   0.997
34163W        W99423  34.939  27.380  13.371
34164W        W99424  22.046  17.322  11.915
34165W        W99425  33.339  22.576   1.628
34166W        W99426  32.317   4.292   1.860
34167W        W99427  23.261   6.806  14.369
34168W        W99428   5.538  37.023  10.829
34169W        W99429  30.092   8.222   4.043
34170W        W99430  34.203  32.297  13.794
34171W        W99431  40.578  21.042  13.095
34172W        W99432   9.831  25.718   5.104
34173W        W99433  28.704   9.881  11.307
34174W        W99434   4.267   9.857   3.067
34175W        W99435  21.100  33.347  11.036
34176W        W99436   1.356  32.190   2.804
34177W        W99437   3.819  26.760   5.102
34178W        W99438   0.268  33.822  14.365
34179W        W99439  28.684  21.389  14.002
34180W        W99440  18.009  33.617   1.716
34181W        W99441  23.732  38.628  14.468
34182W        W99442  22.525  11.139   1.886
34183W        W99443  32.962  23.651  10.591
34184W        W99444   7.992  27.722  10.339
34185W        W99445  13.520   5.973   2.740
34186W        W99446  14.250  17.149   3.177
34187W        W99447  13.530  36.397  10.701
34188W        W99448  26.484  13.185  11.524
34189W        W99449  34.630  27.115   1.254
34190W        W99450   7.453  44.892  11.203
34191W        W99451  33.521  11.371  12.660
34192W        W99452  22.553  20.018   1.341
34193W        W99453  44.038   9.600  12.612
34194W        W99454  26.035  34.818   4.708
34195W        W99455  17.239   2.949   2.864
34196W        W99456   2.801  32.075   1.922
34197W        W99457  18.846  11.127  13.912
34198W        W99458  41.474  36.454   4.540
34199W        W99459  40.208  19.533   1.408
34200W        W99460  42.661  36.411   2.676
34201W        W99461  40.848  41.224   2.022
34202W        W99462   8.810  37.640   0.894
34203W        W99463  10.243  29.838   4.892
34204W        W99464  41.930   6.233   0.195
34205W        W99465   2.952  38.414  13.890
34206W        W99466   6.730  41.885  13.322
34207W        W99467   5.239  18.420  14.680
34208W        W99468  12.494  18.505   4.593
34209W        W99469  24.812   0.049   1.316
34210W        W99470  35.337  21.817  14.903
34211W        W99471  15.287   7.177   1.864
34212W        W99472  42.548  36.399  14.828
34213W        W99473  36.390   7.852  13.999
34214W        W99474  42.775   2.529  11.152
34215W        W99475   2.727  32.122  14.816
34216W        W99476   5.904  15.629   3.819
34217W        W99477  25.162  35.548   3.079
34218W        W99478  37.805  29.938   3.692
34219W        W99479  36.508  19.300  12.780
34220W        W99480   5.741  41.094  11.339
34221W        W99481  35.430   0.356   0.889
34222W        W99482   8.889  44.719   0.686
34223W        W99483  21.716   8.107   2.591
34224W        W99484  31.971  19.016   3.136
34225W        W99485  30.904  17.179  11.629
34226W        W99486   3.776  33.993   0.100
34227W        W99487  10.195  14.290  10.577
34228W        W99488  30.855  39.762  13.961
34229W        W99489  43.747  35.846   3.276
34230W        W99490  27.041  26.406   1.749
34231W        W99491  16.284  20.076   2.174
34232W        W99492  31.047  23.395  12.651
34233W        W99493   1.776  35.159   1.354
34234W        W99494  12.293   4.695   4.074
34235W        W99495  41.944  32.844  13.985
34236W        W99496  13.102  18.091  13.793
34237W        W99497  15.268  44.011  12.179
34238W        W99498  37.645   0.383  12.528
34239W        W99499  29.008  38.145   4.289
34240W        W99500  26.359  39.146   0.731
34241W        W99501   9.776   1.659   0.468
34242W        W99502  14.863  28.296  12.236
34243W        W99503  27.065  38.968  10.201
34244W        W99504  21.606   8.717   0.897
34245W        W99505  25.475   3.936   4.975
34246W        W99506  18.243  10.254  11.838
34247W        W99507  35.322  15.110  12.963
34248W        W99508  39.800  32.825  13.128
34249W        W99509  43.015  27.110  12.929
34250W        W99510   4.975   7.720   2.891
34251W        W99511   2.422   4.356   4.875
34252W        W99512  19.365  39.566  12.775
34253W        W99513  36.413  36.090   3.693
34254W        W99514  12.777   3.694  14.040
34255W        W99515  22.473  11.800   1.292
34256W        W99516  15.140  11.609  12.202
34257W        W99517   2.092  14.844  11.503
34258W        W99518  33.288  42.306  14.885
34259W        W99519  44.365   5.595  11.155
34260W        W99520  20.408   5.755  14.938
34261W        W99521   8.447  21.224   1.815
34262W        W99522  17.241  41.536   2.247
34263W        W99523  26.689  33.648   4.392
34264W        W99524  38.493  16.458  11.879
34265W        W99525  43.144   8.879   1.423
34266W        W99526  43.021  15.812   0.349
34267W        W99527  34.468  34.771  11.542
34268W        W99528  42.988  14.215  13.422
34269W        W99529  41.950  35.918  10.396
34270W        W99530  40.971   2.554   4.102
34271W        W99531  31.476  21.717   1.343
34272W        W99532   3.755   0.828  13.842
34273W        W99533  36.158   2.505   4.554
34274W        W99534  23.665  40.911  11.496
34275W        W99535  10.431  34.348  12.504
34276W        W99536  20.206   8.143  11.974
34277W        W99537   9.193   7.229   9.881
34278W        W99538  22.220   2.802  10.491
34279W        W99539   0.209  28.137  12.458
34280W        W99540  10.582   0.888  14.928
34281W        W99541   7.466   5.776   4.680
34282W        W99542  37.129  21.186  13.304
34283W        W99543   6.392  34.065  12.703
34284W        W99544  27.781  15.496  13.375
34285W        W99545  22.060  23.879   4.736
34286W        W99546   7.502   0.419  13.384
34287W        W99547  28.923   8.414  12.970
34288W        W99548  22.688   2.839  10.264
34289W        W99549  19.551  18.772   3.640
34290W        W99550  31.428  18.096  13.495
34291W        W99551  42.664  14.922  14.657
34292W        W99552  17.084  43.010  11.195
34293W        W99553  44.942  44.976  12.389
34294W        W99554  31.901  15.273  11.162
34295W        W99555   5.091  22.627   1.657
34296W        W99556   5.779  35.166  10.616
34297W        W99557   1.853   7.812  13.034
34298W        W99558  21.514  30.176   3.257
34299W        W99559  11.867  26.001  10.183
34300W        W99560   3.702   7.113  14.794
34301W        W99561  16.628  37.851   1.940
34302W        W99562  23.512   5.451  14.407
34303W        W99563  26.959  22.973  13.770
34304W        W99564  38.820   5.823  12.934
34305W        W99565  20.541  32.178  10.492
34306W        W99566  14.268  27.524  11.100
34307W        W99567  43.854  16.289   1.775
34308W        W99568   6.890  28.192   3.173
34309W        W99569  34.343  38.253   0.597
34310W        W99570  29.088  42.709  13.033
34311W        W99571  28.102  21.780   0.690
34312W        W99572   3.434  12.167   2.760
34313W        W99573  35.418   8.642   1.353
34314W        W99574  32.619  16.057   3.115
34315W        W99575  28.473  11.412   0.151
34316W        W99576  15.042  30.836  13.365
34317W        W99577  19.315  17.969   1.911
34318W        W99578   3.162  30.571  14.060
34319W        W99579  20.677  30.477  14.761
34320W        W99580  39.223  25.156   2.433
34321W        W99581  19.153   7.432   0.841
34322W        W99582   9.346  42.441  13.942
34323W        W99583  26.959  41.885  12.602
34324W        W99584  32.650  22.179  14.758
34325W        W99585  33.068   2.508   4.298
34326W        W99586  43.666  25.141  14.764
34327W        W99587  36.165  28.453  10.649
34328W        W99588  44.281   8.884  12.456
34329W        W99589  27.143  39.412  13.014
34330W        W99590  17.468   2.403   1.267
34331W        W99591  13.612  18.689  14.961
34332W        W99592  11.549  14.325   1.905
34333W        W99593  44.030   5.788  14.764
34334W        W99594   3.865  18.012   4.682
34335W        W99595   6.011  35.335  13.395
34336W        W99596  19.079  32.448   2.415
34337W        W99597  32.881  34.166   1.947
34338W        W99598  39.840  21.739  10.762
34339W        W99599   0.551  13.618   4.747
34340W        W99600  35.851   0.295   3.650
34341W        W99601  16.552  40.194  11.976
34342W        W99602  12.821  44.398   3.210
34343W        W99603  36.318  12.716  14.877
34344W        W99604  28.039  26.507   1.856
34345W        W99605  32.558  10.829   4.710
34346W        W99606  25.222  10.118  10.525
34347W        W99607  11.617  43.715  11.791
34348W        W99608  31.320  15.764  11.869
34349W        W99609   0.545  35.607  11.154
34350W        W99610  42.187  38.526   4.502
34351W        W99611  36.115  42.913   1.798
34352W        W99612   4.620   0.456  10.664
34353W        W99613  19.735  14.554   0.934
34354W        W99614   7.393  33.012   2.660
34355W        W99615  37.082  38.875   1.650
34356W        W99616  16.270   2.788   0.621
34357W        W99617  24.875   8.843   5.023
34358W        W99618  33.802  44.765  11.570
34359W        W99619  29.214  31.925  10.900
34360W        W99620  15.865  28.751   3.713
34361W        W99621  37.611  40.787   3.424
34362W        W99622  44.530  36.510   1.199
34363W        W99623  29.644  28.753  11.757
34364W        W99624   6.213  37.625   2.800
34365W        W99625  17.506  29.119   1.243
34366W        W99626  41.361  33.715  12.301
34367W        W99627  34.674  39.027  14.085
34368W        W99628   0.687  26.210   0.741
34369W        W99629  39.583   1.740   2.643
34370W        W99630   1.835  12.153  13.810
34371W        W99631  22.031  30.355  11.196
34372W        W99632  12.611  14.252   1.482
34373W        W99633  12.673  18.219  12.862
34374W        W99634   2.156  24.144   2.724
34375W        W99635  36.445   8.923  13.037
34376W        W99636  27.148  11.392   0.901
34377W        W99637   6.140   3.552  11.124
34378W        W99638  18.199  40.808   3.064
34379W        W99639  34.150  30.741   0.377
34380W        W99640  20.790   3.939  13.515
34381W        W99641  19.530  21.662   0.425
34382W        W99642   9.279  39.368  14.041
34383W        W99643   4.358  17.045   3.114
34384W        W99644  35.027  44.706   3.932
34385W        W99645  18.281  33.530  12.895
34386W        W99646  41.519  41.776   1.552
34387W        W99647  38.565  30.206  14.784
34388W        W99648  44.477  42.271  12.012
34389W        W99649  21.999  19.686  14.802
34390W        W99650  37.914  13.862   3.252
34391W        W99651  10.197  20.642   2.144
34392W        W99652  17.147  10.319   1.339
34393W        W99653  28.157  36.088   1.812
34394W        W99654   6.242  21.459  14.835
34395W        W99655  29.523  13.862   4.905
34396W        W99656  34.967  14.105  11.500
34397W        W99657  34.237  21.353   3.240
34398W        W99658  20.744  28.486   0.334
34399W        W99659  10.390  38.901   5.247
34400W        W99660   2.196  23.311   1.697
34401W        W99661  33.915  12.448  13.075
34402W        W99662   3.225   2.172  12.419
34403W        W99663  33.024   7.714  13.390
34404W        W99664  38.817  13.937  12.416
34405W        W99665  44.510  22.330  11.039
34406W        W99666   5.309  11.672   3.577
34407W        W99667  35.591  14.550   0.255
34408W        W99668  16.430  44.253  14.318
34409W        W99669  21.565   2.224   0.934
34410W        W99670  24.074  34.575   4.316
34411W        W99671  18.603  43.198   4.607
34412W        W99672  25.212  32.603   4.236
34413W        W99673  22.240   8.431   3.372
34414W        W99674   9.795  30.289   4.245
34415W        W99675  16.564  24.110   3.184
34416W        W99676  30.186   5.160   0.272
34417W        W99677  32.104   8.898  11.092
34418W        W99678  15.218   1.505   4.080
34419W        W99679   0.666  29.248   3.790
34420W        W99680  14.868  34.365   0.920
34421W        W99681  40.675  39.437   1.331
34422W        W99682  17.302  18.066  12.148
34423W        W99683  16.349   0.379   1.727
34424W        W99684  37.415   9.774   2.320
34425W        W99685  17.771   8.899   2.330
34426W        W99686  37.461  19.870  11.051
34427W        W99687  35.674  15.556  12.791
34428W        W99688  44.351  18.803   2.822
34429W        W99689  16.265  36.382  11.952
34430W        W99690  43.769  38.684  12.645
34431W        W99691  29.208  27.082   0.018
34432W        W99692  38.088  36.346   4.501
34433W        W99693   0.870  15.214  12.102
34434W        W99694   6.372   3.492   4.528
34435W        W99695  39.032  44.543  11.164
34436W        W99696  36.410  21.301  10.902
34437W        W99697  39.845  26.558  10.759
34438W        W99698  39.420   4.163   4.021
34439W        W99699   0.351  44.787  12.124
34440W        W99700  15.387  19.283  11.420
34441W        W99701  36.602  39.853  13.572
34442W        W99702  44.490   0.325   1.465
34443W        W99703  33.684  44.635  11.076
34444W        W99704  17.203  41.921  11.773
34445W        W99705   2.674  21.599   3.420
34446W        W99706   1.747   1.391   3.806
34447W        W99707  25.587  34.374  14.025
34448W        W99708  40.926  32.857   1.420
34449W        W99709  19.523  26.512  10.922
34450W        W99710   7.210  20.821   4.986
34451W        W99711   5.757  12.637  13.944
34452W        W99712  25.282  17.275   2.258
34453W        W99713  36.078  31.150  13.544
34454W        W99714  23.790  15.614   4.050
34455W        W99715  33.971  17.597   0.086
34456W        W99716  23.989   2.245  11.078
34457W        W99717   2.885  16.013  14.372
34458W        W99718   2.828  35.068   4.485
34459W        W99719   1.399  14.328  11.963
34460W        W99720  14.644  15.138   0.674
34461W        W99721  14.217  33.094  12.932
34462W        W99722   8.737  25.454   4.082
34463W        W99723   0.095  13.670  14.855
34464W        W99724  11.055  24.502  14.035
34465W        W99725  17.600   8.326  14.579
34466W        W99726  39.327  14.770   4.111
34467W        W99727  28.930  25.158  12.177
34468W        W99728   4.750   3.170   4.229
34469W        W99729  28.114   6.433   0.397
34470W        W99730  32.130  41.396   0.946
34471W        W99731  23.221  21.963   2.608
34472W        W99732  31.123   0.666  13.818
34473W        W99733  12.524  43.564  11.026
34474W        W99734   1.236  41.369  12.411
34475W        W99735  28.517  19.079   3.696
34476W        W99736   6.243  20.738   2.590
34477W        W99737  40.337   0.785  14.865
34478W        W99738  28.190  20.490  13.072
34479W        W99739  17.729  44.694  11.940
34480W        W99740   4.157  32.387  14.705
34481W        W99741   2.834  38.018  12.975
34482W        W99742   7.190   5.661  14.434
34483W        W99743   5.243   8.749  13.896
34484W        W99744  10.303   5.894   0.014
34485W        W99745  35.393  32.879  12.810
34486W        W99746   7.608  25.349  13.382
34487W        W99747  23.704   6.984  12.162
34488W        W99748  24.197  12.917   1.894
34489W        W99749  12.549  15.757   1.831
34490W        W99750   4.030  34.935   4.550
34491W        W99751  27.787   2.841   2.751
34492W        W99752  35.872  24.481   0.387
34493W        W99753  13.889   6.983  14.452
34494W        W99754   7.116  28.111   3.687
34495W        W99755   2.789   9.942   9.893
34496W        W99756   6.479   9.603  14.094
34497W        W99757  43.719   3.775   3.603
34498W        W99758  11.715  14.100  12.312
34499W        W99759  25.621  12.799   3.710
34500W        W99760  22.771  14.105   0.728
34501W        W99761  41.302  30.420   3.581
34502W        W99762   3.468   9.841  11.533
34503W        W99763  10.955   1.194   3.080
34504W        W99764  22.674  25.949   2.253
34505W        W99765  30.265  33.609  11.957
34506W        W99766  19.126  21.473  13.793
34507W        W99767  37.913   6.823  10.909
34508W        W99768  28.548  32.075   2.697
34509W        W99769  22.555  25.069   9.983
34510W        W99770  13.051  10.621  14.465
34511W        W99771  23.721  44.811   4.553
34512W        W99772  30.096  11.207   2.908
34513W        W99773  25.065  28.207   1.929
34514W        W99774   8.430  11.315   0.750
34515W        W99775  23.247  44.007   0.968
34516W        W99776   9.359  22.541  11.687
34517W        W99777  25.986  39.500  11.920
34518W        W99778  22.695  34.554   4.976
34519W        W99779  33.621  16.098   1.979
34520W        W99780  28.744  26.981  11.473
34521W        W99781  18.539  17.728  14.019
34522W        W99782  39.813  33.389   3.460
34523W        W99783  39.602  10.568   2.519
34524W        W99784  26.683  34.636   3.593
34525W        W99785  10.602  12.757   1.169
34526W        W99786  16.059   6.254  11.964
34527W        W99787  37.158  39.804   1.270
34528W        W99788  27.400  29.582  14.493
34529W        W99789   1.217  34.623  11.229
34530W        W99790  18.524  11.123   1.361
34531W        W99791   1.552  44.412   2.329
34532W        W99792  26.468  44.564  12.438
34533W        W99793  29.431  19.207  11.910
34534W        W99794  26.614   5.709  12.984
34535W        W99795  41.846   1.391   3.417
34536W        W99796  12.426  26.705  12.204
34537W        W99797   0.466  16.599   2.783
34538W        W99798   1.740  22.032  11.530
34539W        W99799  27.108  30.116   0.740
34540W        W99800   5.677   6.271  10.700
34541W        W99801  14.684  17.674  11.943
34542W        W99802   7.409   2.665   4.591
34543W        W99803  14.657  31.481  11.690
34544W        W99804  42.043  23.657  11.742
34545W        W99805  37.405  24.357   2.605
34546W        W99806  10.131  18.211  11.073
34547W        W99807   4.349  42.796   1.031
34548W        W99808  13.194  14.494   0.392
34549W        W99809  12.596  32.636  13.962
34550W        W99810  21.022  23.476   4.106
34551W        W99811  43.011  13.826  11.243
34552W        W99812  31.179   0.603   4.737
34553W        W99813  16.661  35.617  14.394
34554W        W99814  35.042  42.312  12.083
34555W        W99815  40.436  11.563   9.844
34556W        W99816  17.741  42.899  13.556
34557W        W99817   3.163   9.609  13.996
34558W        W99818  39.002  13.324  10.282
34559W        W99819  41.379   9.706  10.393
34560W        W99820  22.828   8.257   1.279
34561W        W99821  26.222  24.655  11.266
34562W        W99822  42.288  33.293   3.367
34563W        W99823   5.755   0.191  13.861
34564W        W99824  30.292   8.724  11.083
34565W        W99825  32.161   2.034   4.093
34566W        W99826  11.269   9.296  13.592
34567W        W99827  21.704  18.024   2.136
34568W        W99828  28.359  24.029  14.983
34569W        W99829   1.512  15.610  13.908
34570W        W99830  22.207  29.034  11.421
34571W        W99831  40.521  10.597  13.348
34572W        W99832  29.593  26.569   1.699
34573W        W99833  32.956  41.013   0.937
34574W        W99834  19.676  12.573  14.653
34575W        W99835  40.390  42.037   2.270
34576W        W99836  31.774  19.628  13.061
34577W        W99837  43.095  44.811   4.725
34578W        W99838  10.890  19.973   3.310
34579W        W99839  44.478  36.695  11.967
34580W        W99840  44.278  42.544   2.536
34581W        W99841   8.944  33.429   0.394
34582W        W99842   8.848  39.135   0.764
34583W        W99843   6.380  36.547   2.283
34584W        W99844  19.234   8.780   2.666
34585W        W99845  27.443  13.284   4.234
34586W        W99846   7.190   4.649  13.520
34587W        W99847  22.590   6.472  12.572
34588W        W99848  10.815   4.863   2.025
34589W        W99849  34.773  22.795  11.153
34590W        W99850  16.182  18.903  12.008
34591W        W99851  37.022   8.205   3.061
34592W        W99852   0.348  19.462  12.675
34593W        W99853  30.580  19.291   4.020
34594W        W99854  28.132  17.117  11.844
34595W        W99855  13.599  19.625  13.932
34596W        W99856   3.503  12.159  14.040
34597W        W99857  25.938   7.983   3.228
34598W        W99858   2.063   4.837  12.523
34599W        W99859  44.636  40.092   4.533
34600W        W99860  30.814  30.676  12.241
34601W        W99861  32.478   0.992   4.777
34602W        W99862  19.373  39.451  13.713
34603W        W99863   2.489  20.394  11.112
34604W        W99864  10.638  42.597   5.010
34605W        W99865  31.103  41.683  11.044
34606W        W99866   4.332  31.587  14.902
34607W        W99867  40.174  17.526  14.577
34608W        W99868   6.958  42.447   2.413
34609W        W99869  25.490  27.045  14.343
34610W        W99870  36.465  27.150   4.652
34611W        W99871   6.316  32.946   2.647
34612W        W99872  12.157  14.853   4.129
34613W        W99873   3.471  11.650   0.169
34614W        W99874  44.953  10.154  13.519
34615W        W99875  40.263  40.204  13.080
34616W        W99876  43.504  10.341  14.826
34617W        W99877  27.998  15.344  10.894
34618W        W99878  24.090  15.226   4.974
34619W        W99879  10.585   8.160   2.199
34620W        W99880  43.688   7.075  14.911
34621W        W99881   6.384  13.295   1.919
34622W        W99882   3.024   5.346   0.419
34623W        W99883  23.410  27.855   0.034
34624W        W99884   1.869  24.994   1.753
34625W        W99885  26.429  42.879  13.882
34626W        W99886  27.411   9.159   2.279
34627W        W99887  31.688  27.828   4.258
34628W        W99888   0.271  30.607  14.426
34629W        W99889  44.824  24.157  14.773
34630W        W99890  11.188  24.495   0.407
34631W        W99891  12.155  16.672   4.209
34632W        W99892  35.400  12.732   1.851
34633W        W99893  23.734  42.049   2.236
34634W        W99894  39.819   4.344   0.279
34635W        W99895  36.046  15.973  12.031
34636W        W99896  24.372  39.805  14.469
34637W        W99897  30.525   4.664  11.221
34638W        W99898  14.792  41.732   1.481
34639W        W99899   4.247   5.895  13.907
34640W        W99900   8.009  36.879   0.356
34641W        W99901  31.630   2.718   2.687
34642W        W99902   4.406  32.964  13.901
34643W        W99903  40.941  12.217   0.237
34644W        W99904  17.717   7.640   3.273
34645W        W99905  19.169   9.323  10.371
34646W        W99906  43.022  19.286   2.180
34647W        W99907  17.627  11.334  12.918
34648W        W99908  14.293   7.681   0.840
34649W        W99909  21.731  22.749  12.965
34650W        W99910  38.522  21.550  11.555
34651W        W99911  13.387  40.811  13.055
34652W        W99912  13.452  11.217  11.113
34653W        W99913  35.373  21.905   1.241
34654W        W99914   2.795  39.979  10.449
34655W        W99915  42.376   1.658  11.388
34656W        W99916  30.604  16.217   0.568
34657W        W99917   0.541  34.058  13.983
34658W        W99918   2.301  26.314  12.078
34659W        W99919   3.138  32.489   1.292
34660W        W99920  17.361  37.790  12.026
34661W        W99921   4.474  28.969   4.005
34662W        W99922  21.222   4.734  12.850
34663W        W99923  44.666  10.139  11.567
34664W        W99924  10.223  42.238  12.972
34665W        W99925   7.299  16.731  13.567
34666W        W99926  17.750  41.856   3.397
34667W        W99927  33.629  41.726   3.139
34668W        W99928  18.333  24.705   2.119
34669W        W99929  29.473  10.920   3.094
34670W        W99930   4.327  40.216   0.498
34671W        W99931  40.571  36.581  14.953
34672W        W99932  34.338  19.211   3.874
34673W        W99933  25.729  34.249  14.962
34674W        W99934   9.438  21.600   2.664
34675W        W99935   3.227  17.520   3.627
34676W        W99936  31.882   5.131   0.002
34677W        W99937   8.801  36.135   3.772
34678W        W99938  42.962  43.275  13.945
34679W        W99939  19.132  35.118   0.844
34680W        W99940  27.946   4.233   2.044
34681W        W99941  32.175   0.112   1.808
34682W        W99942   1.791   0.148  14.807
34683W        W99943  38.721  38.973   2.138
34684W        W99944  35.071   3.506  13.487
34685W        W99945  20.955   8.433   2.938
34686W        W99946  29.064  34.049   4.664
34687W        W99947  23.813  19.931  10.569
34688W        W99948  36.083  24.147  12.046
34689W        W99949  35.040  41.391   3.857
34690W        W99950   2.508  41.789  11.545
34691W        W99951  43.831  38.486   0.739
34692W        W99952  33.233  20.593   3.160
34693W        W99953  39.526  29.037  12.321
34694W        W99954  36.762   1.931   2.639
34695W        W99955  29.141  24.152   1.231
34696W        W99956  30.362   9.021  10.662
34697W        W99957  18.663  34.420   0.795
34698W        W99958  11.747   3.004   4.529
34699W        W99959  42.485   2.986   0.798
34700W        W99960  18.504   9.775   0.819
34701W        W99961   6.358   4.402  14.467
34702W        W99962  11.146  20.087  11.868
34703W        W99963  33.708  15.694  13.378
34704W        W99964  22.250  27.660  13.105
34705W        W99965  33.881  41.072  11.051
34706W        W99966  29.391  39.478   3.879
34707W        W99967  35.166  44.350   4.279
34708W        W99968  35.663  28.484  10.756
34709W        W99969  26.187  17.238   5.571
34710W        W99970  42.368  24.193   4.457
34711W        W99971   0.241  34.867   3.061
34712W        W99972   2.012  27.992  13.506
34713W        W99973   8.613  14.194   2.720
34714W        W99974  23.491  10.154  14.952
34715W        W99975  39.962  43.269  12.492
34716W        W99976  21.019  37.510  12.559
34717W        W99977  39.773  20.528  12.021
34718W        W99978   8.919  38.487  10.842
34719W        W99979  21.812   1.933  14.483
34720W        W99980   6.623   1.244  12.931
34721W        W99981  23.252  34.998  13.920
34722W        W99982   7.324   7.888   0.422
34723W        W99983  24.687  19.157   3.274
34724W        W99984  24.773  37.141   3.487
34725W        W99985  26.141  41.578   0.482
34726W        W99986  32.072   2.989   3.791
34727W        W99987  17.197   7.969   3.267
34728W        W99988  41.522  16.560   1.870
34729W        W99989   6.832  15.125  12.933
34730W        W99990  27.433  12.653   4.890
34731W        W99991   6.280  11.999  12.057
34732W        W99992  42.869  25.124   2.454
34733W        W99993  34.959   5.356   0.020
34734W        W99994   5.744  43.420   4.830
34735W        W99995   0.339   2.936   3.654
34736W        W99996  13.804  12.136  12.984
34737W        W99997  22.777  26.748  10.351
34738W        W99998  16.094  38.519  11.996
34739W        W99999  23.224  22.736  12.028
34740W        W    0   3.911  31.078  14.012
34741W        W    1  22.005  37.306  13.404
34742W        W    2   5.522   3.389  13.012
34743W        W    3  26.110  31.183   3.049
34744W        W    4  31.066  13.933   1.401
34745W        W    5  39.762  16.734   3.151
34746W        W    6  28.103  20.036  10.453
34747W        W    7  35.526  22.390  12.161
34748W        W    8  23.455  21.971   2.156
34749W        W    9   4.478   9.780   2.573
34750W        W   10  44.915  34.297  11.129
34751W        W   11  20.959   4.614  12.399
34752W        W   12   4.831  24.644   0.852
34753W        W   13  42.731  18.128   3.177
34754W        W   14   5.092  33.612  12.094
34755W        W   15  27.499  29.097  13.410
34756W        W   16   3.726  16.563   4.539
34757W        W   17  39.824   9.662  14.791
34758W        W   18   3.888  34.574  12.349
34759W        W   19  31.123  34.995   1.631
34760W        W   20  35.637  12.142  13.412
34761W        W   21  22.407   4.704   1.912
34762W        W   22  41.264  40.115   4.573
34763W        W   23  37.484  29.413   4.711
34764W        W   24  34.586  26.155  14.795
34765W        W   25  26.624  11.175  10.675
34766W        W   26  44.805  19.052  14.286
34767W        W   27   7.255   3.054   3.687
34768W        W   28  31.365  11.846  12.993
34769W        W   29  30.004  17.196  13.321
34770W        W   30  24.601  30.359   4.626
34771W        W   31  32.196  25.454  11.667
34772W        W   32   1.984  17.532   4.212
34773W        W   33  37.979  23.140  11.124
34774W        W   34  12.816  23.979   4.269
34775W        W   35  16.692  28.030  10.404
34776W        W   36  42.802   7.909  13.055
34777W        W   37  30.026  23.425  12.585
34778W        W   38   2.362  25.249  14.263
34779W        W   39  38.783   9.671  11.128
34780W        W   40  40.964   2.030  13.961
34781W        W   41  41.828   3.667  12.642
34782W        W   42   5.599  33.002   2.266
34783W        W   43  27.533  32.986  11.973
34784W        W   44  35.421  17.599  14.960
34785W        W   45  35.480  33.805  11.221
34786W        W   46  39.335  21.833   0.961
34787W        W   47  10.885  13.253  11.972
34788W        W   48  24.315  17.023  13.250
34789W        W   49   1.935  24.502   0.263
34790W        W   50  38.923  44.184   3.277
34791W        W   51  19.580   9.892  13.302
34792W        W   52   7.175  19.007   4.525
34793W        W   53  34.338  11.744  10.970
34794W        W   54  31.816  32.544  14.380
34795W        W   55  44.936  16.558   9.870
34796W        W   56   5.696  30.983  14.482
34797W        W   57  26.674  28.446  14.293
34798W        W   58  22.569  23.045   4.585
34799W        W   59  19.071  27.579   1.459
34800W        W   60  30.139  20.846  10.832
34801W        W   61  40.601  13.601   2.689
34802W        W   62   7.384  11.714   0.045
34803W        W   63   8.817  41.937   4.316
34804W        W   64  24.920  36.198   0.922
34805W        W   65  38.877   9.949   2.571
34806W        W   66  38.016   8.426   2.415
34807W        W   67  13.068  44.191  14.403
34808W        W   68  12.258  37.556  14.475
34809W        W   69  40.008   3.645   2.206
34810W        W   70  13.942   6.970  10.103
34811W        W   71  31.681  16.280  11.052
34812W        W   72   7.666  22.498   1.229
34813W        W   73   2.240   9.415   1.733
34814W        W   74  43.826  33.981  13.259
34815W        W   75  31.138  33.189  11.085
34816W        W   76  28.282  34.718   1.392
34817W        W   77   0.397  41.732   2.770
34818W        W   78  16.815  34.867   2.250
34819W        W   79   0.438  29.014  10.653
34820W        W   80  20.988  24.493   0.005
34821W        W   81  19.640  40.308   3.436
34822W        W   82  17.637  37.302   2.608
34823W        W   83  20.553  17.506  14.316
34824W        W   84  20.505   4.017   4.840
34825W        W   85  37.353   7.847  11.537
34826W        W   86  41.994  11.523   3.726
34827W        W   87   0.769  34.364   2.305
34828W        W   88  32.467  14.396  12.113
34829W        W   89  28.706  13.281  14.891
34830W        W   90  39.006   7.760  13.606
34831W        W   91  26.810  20.087   3.618
34832W        W   92  23.732  30.031   3.971
34833W        W   93   6.330  31.114   2.118
34834W        W   94   6.716   9.609   4.932
34835W        W   95  20.042   6.265  12.103
34836W        W   96   3.778  31.568  13.847
34837W        W   97  30.793  33.464  11.967
34838W        W   98  15.127   2.298  13.845
34839W        W   99   6.220  40.052   4.638
34840W        W  100   5.239  27.634  12.924
34841W        W  101  40.444  32.054   4.071
34842W        W  102  40.754   3.240  14.900
34843W        W  103  34.587  20.732   3.343
34844W        W  104  36.141  43.393  10.187
34845W        W  105  41.425  11.145   3.248
34846W        W  106  16.994  13.711   2.985
34847W        W  107   9.170   0.918   4.544
34848W        W  108  26.117  37.247  11.605
34849W        W  109  12.673   3.051   4.628
34850W        W  110  17.077  17.232   0.942
34851W        W  111  37.314  18.689  11.997
34852W        W  112  25.298  28.497  12.505
34853W        W  113  31.094  44.279   4.636
34854W        W  114   6.652   9.534  11.955
34855W        W  115  13.152  26.104  10.928
34856W        W  116  41.968  35.841  14.402
34857W        W  117  41.542  12.887  12.129
34858W        W  118   9.188  16.248  12.374
34859W        W  119  16.581   7.292   2.671
34860W        W  120   9.331  14.531  14.966
34861W        W  121  34.487   9.034  11.955
34862W        W  122  41.585  29.836  11.866
34863W        W  123  43.427   1.733  10.638
34864W        W  124  32.530   4.438  10.595
34865W        W  125  33.368  42.794  14.491
34866W        W  126  34.573  25.537   2.391
34867W        W  127  31.227  14.054  11.623
34868W        W  128  10.161  11.057  11.916
34869W        W  129  16.249  22.448   1.233
34870W        W  130  41.771  24.576  11.153
34871W        W  131  33.097  38.781   0.642
34872W        W  132  17.540  14.101  11.617
34873W        W  133  24.569  31.967   5.090
34874W        W  134  33.288  34.546   1.899
34875W        W  135  14.411  37.423   0.840
34876W        W  136  44.511  11.594  14.927
34877W        W  137   9.877  33.438  13.967
34878W        W  138   4.661  23.729   3.150
34879W        W  139  38.832   2.393  12.543
34880W        W  140  44.010  32.872   1.625
34881W        W  141   3.952  10.439   0.506
34882W        W  142  31.594  13.203  14.054
34883W        W  143  44.385  19.057  12.577
34884W        W  144  26.956  42.415  12.831
34885W        W  145  13.639  25.155  11.605
34886W        W  146   4.390  38.706  14.122
34887W        W  147  21.254  44.414   2.148
34888W        W  148  25.332  10.920  13.959
34889W        W  149  19.669   6.434  11.197
34890W        W  150  43.786  36.091  14.426
34891W        W  151  31.337  15.613  11.068
34892W        W  152  24.699  17.196   9.844
34893W        W  153   8.264  11.178  14.433
34894W        W  154  21.403  39.632   4.604
34895W        W  155  40.529  26.050   3.718
34896W        W  156  43.997  12.710  13.508
34897W        W  157  12.465  39.093  14.895
34898W        W  158   6.872  27.059   3.089
34899W        W  159  43.528  40.287   4.100
34900W        W  160  12.738   9.077  13.165
34901W        W  161  12.390   7.240  13.155
34902W        W  162  19.773   3.380  11.083
34903W        W  163  41.497   9.668   0.282
34904W        W  164  15.798  44.128  13.446
34905W        W  165  13.305  23.806  12.915
34906W        W  166  39.755   8.722   5.059
34907W        W  167   9.321  14.653  10.762
34908W        W  168  36.084  27.662   1.793
34909W        W  169   7.681  44.746   1.652
34910W        W  170   2.931  34.920   2.534
34911W        W  171   5.245  34.059   3.181
34912W        W  172  34.372  40.830  11.372
34913W        W  173   4.353   5.877   1.596
34914W        W  174  35.523  17.994   4.669
34915W        W  175   7.215  18.681  10.698
34916W        W  176  39.200  17.145  12.878
34917W        W  177  21.867  42.707   3.869
34918W        W  178  40.732   5.363   1.432
34919W        W  179  30.453  22.656  11.248
34920W        W  180  23.985  16.584   5.375
34921W        W  181  14.379   9.735  11.123
34922W        W  182  23.109  44.513  12.184
34923W        W  183  22.217  35.171   1.207
34924W        W  184  32.089   8.795  11.590
34925W        W  185   5.944  39.609   1.780
34926W        W  186  23.016  17.481   0.395
34927W        W  187   6.752   5.387   0.223
34928W        W  188  15.239  15.430  13.508
34929W        W  189   5.175  32.959   0.432
34930W        W  190  26.695   5.291  11.437
34931W        W  191   1.384  25.219  13.810
34932W        W  192  18.711   3.817   2.404
34933W        W  193   9.259   9.194  13.783
34934W        W  194  23.206   0.369  12.929
34935W        W  195   4.290  35.893  14.171
34936W        W  196  28.646  29.068  11.480
34937W        W  197  43.684   0.331   1.695
34938W        W  198  10.938  44.400  13.926
34939W        W  199  25.636   4.633  13.480
34940W        W  200   6.956  19.642   2.445
34941W        W  201  43.271  20.579  12.487
34942W        W  202  17.671   4.463   4.163
34943W        W  203  32.308  13.106   0.322
34944W        W  204  16.780  33.021  12.522
34945W        W  205   6.142  36.717  13.126
34946W        W  206  32.898  33.897   3.150
34947W        W  207  24.967   8.833   3.303
34948W        W  208  15.608  20.709  14.982
34949W        W  209  40.786   1.866  14.905
34950W        W  210  13.366  13.008  11.893
34951W        W  211  24.602   7.280   4.118
34952W        W  212  23.253  37.875   3.997
34953W        W  213  35.286  31.547  13.102
34954W        W  214  33.459  43.171   3.200
34955W        W  215  34.912  43.751  10.887
34956W        W  216  32.902   8.134   1.469
34957W        W  217   3.128  34.082  14.457
34958W        W  218   8.990   8.730   1.687
34959W        W  219  31.904   1.317  13.040
34960W        W  220  13.597  26.980  10.815
34961W        W  221  37.535   6.004  14.567
34962W        W  222  31.758  34.552   0.791
34963W        W  223  40.381  18.038  10.669
34964W        W  224  42.229  17.024  13.796
34965W        W  225   7.757  18.807   3.140
34966W        W  226  30.889  44.713  10.288
34967W        W  227  25.023  43.380   0.880
34968W        W  228  28.309  10.068  13.444
34969W        W  229   3.854   5.900   4.729
34970W        W  230  43.820   2.927  14.491
34971W        W  231  27.094  29.782  13.246
34972W        W  232   4.664  21.140  10.226
34973W        W  233  35.809  43.262   5.121
34974W        W  234  27.492  27.142  11.677
34975W        W  235   5.308   7.853   4.269
34976W        W  236  19.788   3.764   1.446
34977W        W  237   1.186  36.766  10.520
34978W        W  238   2.584  40.265   0.318
34979W        W  239  39.731   4.159  13.916
34980W        W  240  37.487  22.640   1.104
34981W        W  241  38.549  23.573  10.712
34982W        W  242  17.529  31.284  14.797
34983W        W  243   6.882  38.909  14.863
34984W        W  244  24.486  41.541   3.620
34985W        W  245  24.260   4.935  14.381
34986W        W  246  18.087  25.160  14.292
34987W        W  247   5.530  10.361  13.302
34988W        W  248  37.410   6.319   1.759
34989W        W  249  30.615  38.434  12.473
34990W        W  250   5.714  43.198   1.262
34991W        W  251  39.077  18.253   3.384
34992W        W  252  39.882  39.932   4.612
34993W        W  253  35.575  13.566   2.671
34994W        W  254  33.081  26.501   3.165
34995W        W  255  29.020  30.670   2.115
34996W        W  256  37.980   5.809   2.688
34997W        W  257  17.824   7.959  10.985
34998W        W  258  16.975  18.044   4.548
34999W        W  259   8.249  22.163  13.698
35000W        W  260   7.944   5.792   4.863
35001W        W  261  12.588  37.927  12.595
35002W        W  262  25.580  11.638   2.847
35003W        W  263  13.992  32.994  12.486
35004W        W  264  11.141  29.470  13.425
35005W        W  265  33.104  14.802   4.717
35006W        W  266  32.072  17.685  10.684
35007W        W  267  44.063  15.783  11.164
35008W        W  268  22.107   6.722  11.863
35009W        W  269  43.194   3.359   4.623
35010W        W  270  31.593  41.848  13.929
35011W        W  271  40.075  21.966   3.838
35012W        W  272  18.156  13.356   1.193
35013W        W  273  44.444  35.762   0.838
35014W        W  274  43.234  28.688  13.152
35015W        W  275  36.682  41.109  12.018
35016W        W  276   5.054   4.190  11.559
35017W        W  277  44.864  24.840   0.965
35018W        W  278  18.816   1.499  10.528
35019W        W  279  29.398  18.270  12.905
35020W        W  280  18.748  12.405  12.876
35021W        W  281  24.955  34.092   0.310
35022W        W  282   2.448  36.550   1.462
35023W        W  283  26.736  43.361   1.775
35024W        W  284   4.163  14.706  13.021
35025W        W  285   9.164   9.141  11.408
35026W        W  286  27.639  23.984  12.541
35027W        W  287   9.476   0.511   4.682
35028W        W  288  39.079  12.301   4.595
35029W        W  289  36.015  26.112   0.731
35030W        W  290  38.765  43.920   1.191
35031W        W  291   2.351  21.064  10.345
35032W        W  292  40.369  10.276  11.759
35033W        W  293   0.917   0.011   0.006
35034W        W  294  10.269  12.666   2.497
35035W        W  295  12.083  23.088   4.665
35036W        W  296  28.572  43.403   0.037
35037W        W  297   6.007   6.678  10.757
35038W        W  298  30.125   4.024  11.193
35039W        W  299   7.615  34.224  10.509
35040W        W  300  21.806  14.667  13.936
35041W        W  301  41.623  23.071  12.600
35042W        W  302   6.700   2.253  14.327
35043W        W  303   8.888   5.952   2.601
35044W        W  304  38.576  35.057  14.525
35045W        W  305  20.032   9.124  12.115
35046W        W  306   4.953  40.405   0.633
35047W        W  307   9.593  39.043   3.289
35048W        W  308  35.683  10.310  12.103
35049W        W  309  22.263  21.972  10.515
35050W        W  310  12.048   7.939   9.790
35051W        W  311  31.643  44.982   0.697
35052W        W  312  21.643   1.423  14.215
35053W        W  313  25.458  38.246   1.589
35054W        W  314   9.242  16.032   0.252
35055W        W  315  30.047   4.821  10.766
35056W        W  316  16.084  42.406  12.575
35057W        W  317  15.073  32.638  13.960
35058W        W  318  14.897  16.777   1.261
35059W        W  319  41.928  21.769   4.842
35060W        W  320  39.488  38.555   2.189
35061W        W  321   1.002   8.875  11.494
35062W        W  322  41.578  14.771  14.714
35063W        W  323   1.822  26.891  14.881
35064W        W  324  13.266  22.558   9.792
35065W        W  325  32.970  31.496  10.344
35066W        W  326  37.427   9.565   2.817
35067W        W  327  44.510   0.315   0.423
35068W        W  328  12.084  21.346  12.295
35069W        W  329  19.744  23.797  14.858
35070W        W  330  21.701  10.354   2.617
35071W        W  331  34.321  23.691   4.544
35072W        W  332  39.897  15.362   2.011
35073W        W  333   7.911  40.783  14.929
35074W        W  334  27.629  24.624   1.781
35075W        W  335  40.935   3.727  14.920
35076W        W  336  39.188  30.923  12.581
35077W        W  337   1.763  43.521  13.136
35078W        W  338  37.451  21.305   2.772
35079W        W  339  18.652  42.335   4.421
35080W        W  340  38.224   4.485  10.537
35081W        W  341  37.865  24.451  14.916
35082W        W  342  30.141   1.760  14.224
35083W        W  343   1.764   0.184   0.840
35084W        W  344  38.058  13.537   0.336
35085W        W  345  17.124  12.518  10.313
35086W        W  346  10.384   8.399   1.381
35087W        W  347  33.532   1.177  14.497
35088W        W  348   1.350   6.891  13.098
35089W        W  349  34.221  12.766  14.388
35090W        W  350  41.828  33.901  14.918
35091W        W  351  25.906  26.728  12.903
35092W        W  352  30.832  43.657  13.631
35093W        W  353  37.566  41.615  14.155
35094W        W  354  12.354   1.189   2.365
35095W        W  355  17.529  10.276   4.887
35096W        W  356  37.925  23.118  13.984
35097W        W  357  18.554  15.136  13.802
35098W        W  358  41.982  33.617  12.920
35099W        W  359  18.089  22.624  12.172
35100W        W  360   3.860  19.200  12.113
35101W        W  361  43.919   1.284   4.188
35102W        W  362   5.404  26.048   0.937
35103W        W  363  22.312   3.158  14.811
35104W        W  364  43.177  41.354   4.031
35105W        W  365  24.676  11.415   2.477
35106W        W  366  35.873  43.676  14.839
35107W        W  367   9.810  12.665  10.524
35108W        W  368  23.855  15.620  12.530
35109W        W  369  26.967  32.615  14.992
35110W        W  370  21.364  24.170  12.817
35111W        W  371  21.619   1.393   3.820
35112W        W  372  44.310  31.875   3.190
35113W        W  373  27.880  34.355  12.575
35114W        W  374  38.628  34.818  13.216
35115W        W  375  16.256  23.667  12.577
35116W        W  376  19.323  16.798  12.872
35117W        W  377  26.610  29.616   4.078
35118W        W  378   8.896  43.930   2.322
35119W        W  379   9.642  27.164   3.122
35120W        W  380  17.961   1.342  12.215
35121W        W  381  14.974  31.427   1.664
35122W        W  382  26.031  33.530   1.769
35123W        W  383  18.334   0.057   1.755
35124W        W  384  42.096   0.520   3.838
35125W        W  385  43.325  36.767  11.100
35126W        W  386  42.090  18.528  14.240
35127W        W  387  19.605   4.417   1.209
35128W        W  388  18.757  14.777   2.287
35129W        W  389  26.806  12.841   1.196
35130W        W  390   3.445   9.708   1.364
35131W        W  391  20.318   3.738  13.285
35132W        W  392   2.804  24.727  12.149
35133W        W  393  25.134  27.174   1.811
35134W        W  394  37.781  23.570   3.628
35135W        W  395  25.504  30.133   3.805
35136W        W  396  31.960  11.127  13.136
35137W        W  397  35.903  40.730  10.992
35138W        W  398   0.583   5.355   4.749
35139W        W  399   4.331  38.324   0.448
35140W        W  400   0.670   3.734  13.446
35141W        W  401  42.880   1.957   2.715
35142W        W  402   1.941  13.057  11.961
35143W        W  403  27.922  11.293  11.140
35144W        W  404   3.742  32.940  13.089
35145W        W  405  22.821  17.996  13.381
35146W        W  406  41.024  21.458   1.237
35147W        W  407   1.324  22.386  11.487
35148W        W  408  32.059  44.753   2.182
35149W        W  409  28.185  39.014   2.676
35150W        W  410  43.262  22.532   4.544
35151W        W  411   7.088  30.951   3.240
35152W        W  412   9.417  14.895   3.620
35153W        W  413   6.713  19.198   1.322
35154W        W  414  20.241  30.008   2.785
35155W        W  415   1.773  33.434   2.598
35156W        W  416  38.063  27.385  13.014
35157W        W  417  23.489   7.013   0.257
35158W        W  418  34.438  29.603  12.460
35159W        W  419  26.417  37.952  14.459
35160W        W  420  19.631  11.365   4.394
35161W        W  421   1.973  30.042   1.732
35162W        W  422  37.384   3.537  14.528
35163W        W  423   5.266  25.613   4.098
35164W        W  424  28.580  15.508   4.116
35165W        W  425   4.262  40.497  13.802
35166W        W  426  28.569  37.580  13.159
35167W        W  427   8.471   9.322   0.882
35168W        W  428  21.400  42.763   3.153
35169W        W  429  17.134  43.936  11.296
35170W        W  430  25.215  36.881   1.691
35171W        W  431   1.241  30.735  13.037
35172W        W  432  43.787  17.131  11.525
35173W        W  433  28.294  31.497   4.227
35174W        W  434  15.532  16.153  14.734
35175W        W  435  23.980   0.145   3.779
35176W        W  436  22.874  32.949   2.084
35177W        W  437  42.853  22.212  10.826
35178W        W  438  31.431  43.512  11.902
35179W        W  439  23.728   4.218  14.045
35180W        W  440  16.177  34.918  13.346
35181W        W  441  29.630   7.817  12.902
35182W        W  442   7.884   0.750  10.407
35183W        W  443  41.250  39.406   1.300
35184W        W  444  14.607   7.631   0.392
35185W        W  445  29.220   5.287  13.507
35186W        W  446  20.126  35.257  10.698
35187W        W  447  33.566   1.759  13.191
35188W        W  448   6.140  17.195   2.840
35189W        W  449   2.704  38.494  13.012
35190W        W  450  18.685  17.607  14.496
35191W        W  451  38.019  32.182   1.274
35192W        W  452  33.244   9.747  14.417
35193W        W  453  14.993  22.351  14.411
35194W        W  454   0.824  39.055   5.181
35195W        W  455  31.620  32.346  12.424
35196W        W  456  42.675  21.780  11.062
35197W        W  457  10.747  11.643  13.736
35198W        W  458  29.916   8.847   2.459
35199W        W  459  29.943   8.800  10.417
35200W        W  460  23.577  38.082   2.806
35201W        W  461  23.697  41.312  11.839
35202W        W  462  39.793   5.508   1.790
35203W        W  463  12.184  43.442  11.452
35204W        W  464   6.148   3.671  13.870
35205W        W  465  14.176  19.052   2.261
35206W        W  466  23.441  27.141   0.800
35207W        W  467  17.072  18.816  10.699
35208W        W  468  13.078   5.720   2.666
35209W        W  469  37.993  38.259  11.548
35210W        W  470  17.206  17.607  10.213
35211W        W  471  18.785  42.768  13.411
35212W        W  472  28.413  39.543   3.664
35213W        W  473  39.461   8.539   1.448
35214W        W  474   8.638   5.240  14.394
35215W        W  475  34.089  14.200   0.353
35216W        W  476  40.805  20.060   2.349
35217W        W  477  28.240  25.079  10.282
35218W        W  478  15.823  27.967   1.061
35219W        W  479  22.489  39.415   1.018
35220W        W  480  41.780  22.301   4.761
35221W        W  481  11.370  30.449   3.140
35222W        W  482   3.854  16.823   3.173
35223W        W  483   6.337  39.247  11.187
35224W        W  484  11.479   7.300  13.063
35225W        W  485  16.671   1.857  11.051
35226W        W  486  31.590  12.741  11.151
35227W        W  487  10.647  19.724  13.067
35228W        W  488   0.882  14.979  10.678
35229W        W  489  43.719  21.610  14.286
35230W        W  490  40.644   6.611  11.295
35231W        W  491  32.046  14.069   3.785
35232W        W  492  26.530  12.720   4.896
35233W        W  493  15.898  43.817  14.964
35234W        W  494  13.206  35.471  14.859
35235W        W  495  16.681  27.427   1.208
35236W        W  496  42.036  38.373  11.406
35237W        W  497  28.124  29.647   1.112
35238W        W  498  38.864  13.899  10.051
35239W        W  499  35.817  42.501   1.812
35240W        W  500  37.750  32.474  14.933
35241W        W  501  33.103  11.542  14.363
35242W        W  502  11.653   3.016  11.524
35243W        W  503  44.888   6.851  11.994
35244W        W  504   7.175  24.462  12.925
35245W        W  505  12.737  40.814  10.411
35246W        W  506  29.711  30.855  11.086
35247W        W  507  41.972  37.809  12.155
35248W        W  508  33.532   2.734  13.514
35249W        W  509  37.970  16.730  10.730
35250W        W  510  15.337  20.847   0.411
35251W        W  511  20.688  40.577  11.581
35252W        W  512  26.942  31.185  11.075
35253W        W  513  16.085   8.623  11.523
35254W        W  514  39.353  42.430   2.928
35255W        W  515  36.258  33.214   1.866
35256W        W  516  20.398  39.434   4.611
35257W        W  517   3.377  28.930   3.251
35258W        W  518  27.123  21.673   1.881
35259W        W  519  33.082  12.825   1.447
35260W        W  520  24.313  14.079   4.623
35261W        W  521  17.822  21.590  13.422
35262W        W  522  20.624  34.198   0.532
35263W        W  523  38.784  26.971  12.486
35264W        W  524  32.093  20.943   4.533
35265W        W  525   3.919  12.370  14.207
35266W        W  526   6.112  36.470   1.826
35267W        W  527  16.135  19.076   2.393
35268W        W  528  19.544  16.983   4.551
35269W        W  529  16.749   6.914  14.011
35270W        W  530   3.209  18.779  13.434
35271W        W  531  31.172  30.157   1.846
35272W        W  532  34.111  26.563   3.975
35273W        W  533   4.013   5.993   2.884
35274W        W  534  37.371  24.586   3.063
35275W        W  535  31.191  22.715   4.908
35276W        W  536   4.404  20.530  13.481
35277W        W  537  10.327   0.046  14.518
35278W        W  538   0.464  23.141  11.544
35279W        W  539  44.576   4.854   2.380
35280W        W  540  12.541  33.221  11.427
35281W        W  541  44.022  13.230   0.316
35282W        W  542  17.581  14.592  11.431
35283W        W  543  11.498   2.312   2.376
35284W        W  544  42.472  19.338  11.546
35285W        W  545  32.960  38.126  13.258
35286W        W  546  31.769  39.101   3.654
35287W        W  547   7.663  13.327  13.871
35288W        W  548  43.487  21.159  14.460
35289W        W  549   1.169  19.119   1.812
35290W        W  550   9.252  23.803  11.836
35291W        W  551  30.391  41.509   4.064
35292W        W  552  38.781  25.861   1.938
35293W        W  553  19.000   3.277  11.583
35294W        W  554  31.199  18.758  13.855
35295W        W  555  33.529  41.998  11.029
35296W        W  556   0.938  29.951  11.002
35297W        W  557  38.933  15.955   3.755
35298W        W  558  12.566  25.075   3.306
35299W        W  559  35.057  16.589   2.457
35300W        W  560  44.778  20.248   1.248
35301W        W  561  29.686  12.882   5.005
35302W        W  562  19.223  34.809  10.661
35303W        W  563  16.596  42.880  13.050
35304W        W  564  27.683  42.579   0.709
35305W        W  565   6.291  13.805  13.018
35306W        W  566   9.908  38.666   0.044
35307W        W  567  20.647   8.061  13.981
35308W        W  568   3.218  20.746   4.089
35309W        W  569  26.272  23.145   4.923
35310W        W  570  28.482   8.962  14.397
35311W        W  571  39.969  22.476   2.449
35312W        W  572  43.964  23.203   0.927
35313W        W  573  26.419  29.613   4.572
35314W        W  574  20.948  20.665  13.958
35315W        W  575  41.759  37.568   3.019
35316W        W  576   8.407  13.541   3.643
35317W        W  577  24.942   4.078   2.247
35318W        W  578  30.379  42.353  13.583
35319W        W  579   4.507   8.157   4.546
35320W        W  580  19.603  42.070   4.171
35321W        W  581   2.895  38.139  12.083
35322W        W  582  37.042  33.094  13.825
35323W        W  583  36.377  11.711   0.390
35324W        W  584  41.293  14.683  14.241
35325W        W  585  23.990   2.069  10.271
35326W        W  586  37.473  24.090   3.045
35327W        W  587  15.604  44.178   2.279
35328W        W  588  39.116  21.934   1.418
35329W        W  589  37.498  38.536   1.911
35330W        W  590  14.193  26.388  14.871
35331W        W  591  43.575  14.622  11.599
35332W        W  592  23.222  25.677   0.368
35333W        W  593   8.788   9.731   2.251
35334W        W  594  32.807  16.339  14.634
35335W        W  595  37.424  25.522  10.521
35336W        W  596  33.950  29.819  12.330
35337W        W  597  22.172   9.862  10.949
35338W        W  598  32.484  15.856  13.026
35339W        W  599  17.247  44.587  12.464
35340W        W  600   8.137  24.022   4.649
35341W        W  601  16.964  44.893   2.310
35342W        W  602  11.514  39.945  13.052
35343W        W  603  37.546  29.255  14.322
35344W        W  604  23.630  18.319  13.894
35345W        W  605  32.512  42.978  13.890
35346W        W  606  12.175   9.794  11.691
35347W        W  607  43.604   5.434  11.266
35348W        W  608  34.263  34.311  11.398
35349W        W  609  26.835   6.254  12.095
35350W        W  610  30.084   7.889   0.320
35351W        W  611  37.216  17.333  13.566
35352W        W  612  23.097  19.566   4.168
35353W        W  613  17.608  30.566   2.877
35354W        W  614  37.763   7.295  10.761
35355W        W  615  34.915  40.823  12.430
35356W        W  616  24.009  32.277  12.516
35357W        W  617  10.200   4.878  14.238
35358W        W  618  16.592  23.319   3.129
35359W        W  619  41.999  10.428  13.028
35360W        W  620  43.909  39.742   2.230
35361W        W  621  14.221  25.699   3.983
35362W        W  622  18.845   2.450   2.154
35363W        W  623   2.709  10.905   3.320
35364W        W  624  13.312  39.768  11.132
35365W        W  625  11.370  35.849   2.220
35366W        W  626  24.705  16.715  10.129
35367W        W  627   5.902  22.290  12.480
35368W        W  628  43.382  43.338   2.339
35369W        W  629  32.453   4.268  13.679
35370W        W  630  30.455  24.527  11.667
35371W        W  631  37.463   0.067   0.274
35372W        W  632   6.820  12.092  12.041
35373W        W  633  19.506  18.501  11.173
35374W        W  634   6.621  32.706  12.414
35375W        W  635  42.498   8.031   1.580
35376W        W  636   8.721  11.336  12.935
35377W        W  637  21.454  33.644   0.366
35378W        W  638   4.988   0.449  14.774
35379W        W  639   4.095  21.811  12.486
35380W        W  640  11.828  39.568  12.847
35381W        W  641  11.809   0.263   0.833
35382W        W  642  11.352  35.159   0.270
35383W        W  643   4.910   6.411  11.145
35384W        W  644  32.567   0.463   0.965
35385W        W  645  25.739  15.815  14.035
35386W        W  646  13.240  11.144  12.626
35387W        W  647  25.769  12.304  14.884
35388W        W  648   7.123  21.673   1.457
35389W        W  649  42.850   8.372   2.784
35390W        W  650  35.547  11.715  11.126
35391W        W  651  37.811  15.615   2.591
35392W        W  652  26.054   4.781  10.585
35393W        W  653  34.631  22.213   0.205
35394W        W  654  39.408   8.399  14.483
35395W        W  655  29.343   9.932   1.823
35396W        W  656  28.742   4.460   1.416
35397W        W  657  39.297  35.580   4.174
35398W        W  658  16.796   2.512   2.838
35399W        W  659  11.650  40.400   3.666
35400W        W  660  33.978  39.506   0.222
35401W        W  661  39.431  33.976   1.854
35402W        W  662  39.572  22.627  14.337
35403W        W  663  11.136  11.650  13.417
35404W        W  664  10.869   4.731   1.017
35405W        W  665  23.380  29.086   1.797
35406W        W  666  27.606   7.552  13.266
35407W        W  667  40.588   4.759   3.792
35408W        W  668  20.593  43.285   1.715
35409W        W  669   0.569  21.051  10.750
35410W        W  670  26.707  37.350   1.775
35411W        W  671  25.794  23.131  12.628
35412W        W  672   0.208   1.501   2.899
35413W        W  673   8.423  12.109  11.907
35414W        W  674  40.297  31.092   0.709
35415W        W  675  13.860  15.737  14.384
35416W        W  676  42.891   4.293  12.145
35417W        W  677  15.351  23.298  12.926
35418W        W  678  22.310  28.202   1.460
35419W        W  679  36.145  31.652   2.362
35420W        W  680  21.314  27.531  14.033
35421W        W  681  11.750  33.612   0.848
35422W        W  682   4.166  42.348   1.203
35423W        W  683  30.502   3.824   3.384
35424W        W  684   5.389  44.774   0.928
35425W        W  685   6.869  15.160  11.443
35426W        W  686  21.201   5.971  14.407
35427W        W  687  13.270  41.350  13.515
35428W        W  688  29.900   0.524   3.197
35429W        W  689   5.964   8.911  10.768
35430W        W  690  13.584  42.016   4.212
35431W        W  691  20.464   9.870   0.315
35432W        W  692  33.156  38.448   0.243
35433W        W  693   6.001  29.566   2.723
35434W        W  694  10.006   1.366  13.907
35435W        W  695   9.100   4.720   2.793
35436W        W  696  17.702  19.522  13.110
35437W        W  697  32.443  35.056   3.387
35438W        W  698  25.732  33.462   3.294
35439W        W  699   8.633  10.326   4.647
35440W        W  700   6.220  24.577  10.684
35441W        W  701  39.954  35.599  14.291
35442W        W  702  41.576   2.153  12.181
35443W        W  703  17.182  33.985   4.522
35444W        W  704   5.247  26.220   2.374
35445W        W  705   7.832  18.617  13.446
35446W        W  706  37.564  21.693   4.339
35447W        W  707   7.492  20.539   1.274
35448W        W  708  41.424  17.838   3.617
35449W        W  709  29.208  30.931  11.117
35450W        W  710  24.501   2.263  11.198
35451W        W  711  39.466   1.181  11.590
35452W        W  712  12.415  36.561   0.872
35453W        W  713  35.200  40.342  11.134
35454W        W  714  32.391  36.891  11.576
35455W        W  715  22.839  14.894   3.166
35456W        W  716  25.669  24.161   3.786
35457W        W  717  44.001   3.142   1.409
35458W        W  718  13.609  29.467  11.150
35459W        W  719  13.252   7.645  12.117
35460W        W  720  43.063   5.706  13.863
35461W        W  721   2.905   1.448   2.038
35462W        W  722   8.798  25.598  14.993
35463W        W  723  41.800  23.083  13.086
35464W        W  724   4.688  26.916   1.839
35465W        W  725  26.756  27.592  10.627
35466W        W  726  13.710  15.010   4.063
35467W        W  727  19.036  25.418  10.613
35468W        W  728  13.613   6.939  12.539
35469W        W  729  18.192  27.526   2.869
35470W        W  730  17.393   5.265  13.544
35471W        W  731  35.992   2.579  13.953
35472W        W  732  20.629  38.761   2.282
35473W        W  733   7.122   7.391  11.760
35474W        W  734  25.121   3.244  12.901
35475W        W  735  22.280  18.518  14.935
35476W        W  736  41.023  10.279   0.811
35477W        W  737  44.550  24.129  14.321
35478W        W  738   2.364   3.339  12.803
35479W        W  739  27.610  22.820  11.922
35480W        W  740   6.467  44.896   3.256
35481W        W  741  24.114  39.068   2.358
35482W        W  742  42.432  42.597  12.389
35483W        W  743   0.301   1.161   0.782
35484W        W  744  26.106  44.985   0.966
35485W        W  745   9.231  34.035   0.057
35486W        W  746   2.966   4.509   0.678
35487W        W  747  20.842  10.792  12.557
35488W        W  748  30.188   8.912  12.131
35489W        W  749  32.824   3.351   2.375
35490W        W  750  22.092   8.665   4.901
35491W        W  751  17.159  35.518  13.206
35492W        W  752  21.005  23.511   0.293
35493W        W  753  23.475  37.983  13.997
35494W        W  754  12.153   4.439   3.116
35495W        W  755   7.597   3.634  10.381
35496W        W  756   5.932   3.733   4.390
35497W        W  757  41.336  39.040   1.697
35498W        W  758  17.601  17.182   3.789
35499W        W  759  13.228  42.293   3.757
35500W        W  760  29.432  11.342   4.384
35501W        W  761  25.524  22.468   1.433
35502W        W  762  10.820  23.666  12.674
35503W        W  763   8.852  38.944   3.680
35504W        W  764  38.034  25.914  12.984
35505W        W  765  20.910  25.751  11.917
35506W        W  766  19.196  23.202   1.753
35507W        W  767  12.206  26.542   5.515
35508W        W  768  16.285  35.920  12.963
35509W        W  769  17.285   0.798  13.080
35510W        W  770  28.653   1.398   0.808
35511W        W  771  30.625  22.651  13.554
35512W        W  772  20.954  38.619  12.212
35513W        W  773  13.686  33.172   3.388
35514W        W  774  32.048  44.726  14.925
35515W        W  775  16.180  10.107   4.079
35516W        W  776  16.354  38.622   4.035
35517W        W  777   8.015  39.117   2.260
35518W        W  778  10.021  42.336   2.740
35519W        W  779  40.461   4.467   9.977
35520W        W  780  21.469   8.693   4.156
35521W        W  781  18.256  23.761   2.901
35522W        W  782  25.036  12.541  10.701
35523W        W  783   0.530  15.094   2.396
35524W        W  784  12.146  16.720   1.786
35525W        W  785   7.281   2.850   1.023
35526W        W  786  35.211  40.945   3.616
35527W        W  787   7.675  16.511   2.864
35528W        W  788  30.076  17.349   2.418
35529W        W  789  43.478  32.302  14.552
35530W        W  790   8.617   5.383  14.877
35531W        W  791  30.118  40.600  11.034
35532W        W  792  33.512  11.387  13.541
35533W        W  793  34.598  38.455   4.016
35534W        W  794  12.217  38.861   1.746
35535W        W  795  10.587  14.528   2.797
35536W        W  796  21.999  28.114   0.254
35537W        W  797  17.471  33.643  12.467
35538W        W  798  30.993  30.410   4.850
35539W        W  799  40.328   8.095  14.434
35540W        W  800  30.447  12.762  13.296
35541W        W  801  25.593  42.914   2.128
35542W        W  802  22.390  24.054  14.108
35543W        W  803   3.024  43.895  11.568
35544W        W  804  31.613  20.085  10.688
35545W        W  805   9.885  24.177   4.469
35546W        W  806  40.042  17.731  14.122
35547W        W  807  39.378   5.630  14.691
35548W        W  808  14.581  42.773  12.491
35549W        W  809   7.120  39.905   2.615
35550W        W  810  33.110  22.033  10.738
35551W        W  811  32.531  16.371   2.709
35552W        W  812  41.338  36.852  11.990
35553W        W  813  23.136  17.711  12.616
35554W        W  814  41.829   0.849  12.648
35555W        W  815  27.905  39.527   3.653
35556W        W  816   5.329  43.945  13.012
35557W        W  817   6.014  10.521   1.909
35558W        W  818  39.220  15.304  10.418
35559W        W  819  19.795  14.238   3.541
35560W        W  820  19.686  30.873   2.240
35561W        W  821  35.683  44.498  11.031
35562W        W  822  26.244  35.513  10.712
35563W        W  823   8.897  26.005  12.046
35564W        W  824  25.281  38.588   3.178
35565W        W  825   9.932  27.761   4.542
35566W        W  826  41.847  29.859  11.438
35567W        W  827  38.876  27.392   4.680
35568W        W  828  36.313  18.301   0.922
35569W        W  829  38.641   0.122   4.195
35570W        W  830  40.982   1.926  12.341
35571W        W  831  24.611  12.189   1.790
35572W        W  832   1.456  29.698  11.682
35573W        W  833  11.635  29.418   1.095
35574W        W  834  39.450  34.579  13.122
35575W        W  835   5.850  16.021   0.729
35576W        W  836  15.146   2.509   4.034
35577W        W  837  13.002  34.898   2.850
35578W        W  838  28.136  41.609   1.282
35579W        W  839  40.717  23.686   3.369
35580W        W  840  35.055   5.691  14.026
35581W        W  841  22.839  12.078   4.938
35582W        W  842  34.325  29.778  11.646
35583W        W  843   8.451   3.867   1.644
35584W        W  844  29.608   0.431  10.236
35585W        W  845  29.616   5.989   0.782
35586W        W  846  20.554  40.362  13.313
35587W        W  847   6.200  34.337   0.260
35588W        W  848  44.374  28.367   1.744
35589W        W  849  42.880   0.922   4.898
35590W        W  850  38.864   7.638  14.578
35591W        W  851  37.365  39.555   2.001
35592W        W  852  30.870  10.128  11.081
35593W        W  853  38.371   1.155  13.920
35594W        W  854  12.378  19.823   3.400
35595W        W  855  30.041  42.832   3.831
35596W        W  856  19.814  28.094   2.667
35597W        W  857  10.323   9.667   2.614
35598W        W  858  32.634  25.981  14.420
35599W        W  859   6.812  31.973  14.334
35600W        W  860  13.227  34.006  11.831
35601W        W  861  44.264  19.832   0.490
35602W        W  862  28.647   9.802   4.202
35603W        W  863  35.449  42.030   4.380
35604W        W  864  31.851  40.860   2.739
35605W        W  865  19.966   6.381   0.346
35606W        W  866  18.263   3.992   4.862
35607W        W  867  16.495  25.071   3.234
35608W        W  868  16.333   0.869   1.427
35609W        W  869   7.892  30.697   4.992
35610W        W  870   9.928  32.945   4.823
35611W        W  871  13.229  24.663   3.696
35612W        W  872  37.278  15.411   0.693
35613W        W  873  42.343  24.168   0.008
35614W        W  874  44.941  32.454   0.647
35615W        W  875   0.948  18.152  12.545
35616W        W  876   2.670  40.990  10.686
35617W        W  877   9.878  29.438  12.048
35618W        W  878   9.574   9.417  11.557
35619W        W  879   7.829  34.400   1.490
35620W        W  880  33.489  16.305  13.907
35621W        W  881  33.668  12.431  13.542
35622W        W  882  17.326  38.145   0.709
35623W        W  883  16.317   9.281   2.975
35624W        W  884  39.683  29.872   3.530
35625W        W  885   7.015  44.483  13.439
35626W        W  886  41.361  10.715   4.584
35627W        W  887  20.813  15.174  13.354
35628W        W  888  13.753   2.145   2.472
35629W        W  889  43.456  25.151  10.511
35630W        W  890   8.724  22.212   3.630
35631W        W  891  16.583  35.921  13.908
35632W        W  892   9.991  10.049   2.712
35633W        W  893   3.189  27.917  11.565
35634W        W  894  18.948  32.896   3.111
35635W        W  895   8.613   5.367   3.239
35636W        W  896  27.374  40.449  11.570
35637W        W  897  27.666  30.062   4.451
35638W        W  898  43.709  12.485  13.054
35639W        W  899  15.103  26.738   0.995
35640W        W  900  16.371  44.017   1.423
35641W        W  901  37.489  34.567   3.201
35642W        W  902  15.584  27.893   1.517
35643W        W  903  44.934  25.980   0.203
35644W        W  904  21.070  32.747  11.024
35645W        W  905  39.775  13.620   0.800
35646W        W  906   6.252   6.881   0.400
35647W        W  907  21.000  16.141   0.421
35648W        W  908   9.728  17.294   2.644
35649W        W  909  16.315   2.254   2.883
35650W        W  910  16.054  28.453  11.845
35651W        W  911  39.092  20.657   2.912
35652W        W  912  10.806  10.931  14.937
35653W        W  913  40.956  39.836  11.138
35654W        W  914  44.548  40.813  14.902
35655W        W  915   1.964   4.691   4.173
35656W        W  916  23.786  41.270   3.304
35657W        W  917  21.763  13.429   4.629
35658W        W  918  40.809  13.556   5.249
35659W        W  919  24.002  36.878  11.825
35660W        W  920  16.230  28.965   0.133
35661W        W  921   4.812   5.303   4.818
35662W        W  922  14.731  36.703  11.394
35663W        W  923  19.783  11.879   1.943
35664W        W  924  37.482   0.569  13.826
35665W        W  925   4.448  14.250   0.141
35666W        W  926  39.477  31.127  13.506
35667W        W  927   3.457  19.580  11.712
35668W        W  928  40.773   4.307   4.531
35669W        W  929  28.878  36.924   0.108
35670W        W  930   2.476  44.787  14.399
35671W        W  931   1.938  19.496   2.688
35672W        W  932  39.537  34.170  12.351
35673W        W  933  15.393  20.749  14.103
35674W        W  934  33.067  44.702  14.518
35675W        W  935   1.197   3.402   2.831
35676W        W  936  36.021  22.380  10.691
35677W        W  937   0.527  27.160  13.597
35678W        W  938  32.505  16.581  14.235
35679W        W  939  40.847  19.559   2.231
35680W        W  940  44.260  31.198   2.780
35681W        W  941  12.199   9.783   2.910
35682W        W  942  40.994  27.271  12.858
35683W        W  943  26.175   9.288   3.697
35684W        W  944  41.330   9.226  13.183
35685W        W  945  19.250  22.270  12.467
35686W        W  946   8.256  37.637  14.330
35687W        W  947  33.115  28.186   1.506
35688W        W  948  38.771  44.355  14.441
35689W        W  949  12.920  43.534   3.862
35690W        W  950   7.778  21.950  14.521
35691W        W  951  37.412  15.652  12.052
35692W        W  952  19.751   7.670  10.720
35693W        W  953  27.503  12.540   2.849
35694W        W  954  23.224  40.040   1.811
35695W        W  955   9.264  32.668   0.347
35696W        W  956  39.814  20.240   4.592
35697W        W  957   4.925  40.079   0.006
35698W        W  958  18.775  41.120  12.853
35699W        W  959   7.165  15.363  14.600
35700W        W  960   8.896  18.164   0.681
35701W        W  961  24.548  21.193  13.422
35702W        W  962  37.072  32.153   2.189
35703W        W  963  23.392  34.726   4.993
35704W        W  964  20.955  14.896  14.525
35705W        W  965  35.857  11.066  11.077
35706W        W  966  27.430  14.768   4.132
35707W        W  967  44.317  29.876   2.782
35708W        W  968  44.825   7.830   4.486
35709W        W  969   9.750  37.969   2.453
35710W        W  970  29.106   8.365   2.296
35711W        W  971  31.869   6.674   3.300
35712W        W  972  44.065  22.142  12.605
35713W        W  973   2.762  44.879  12.324
35714W        W  974  27.096  27.403  12.942
35715W        W  975  23.820  22.743   4.301
35716W        W  976  27.278  23.962   0.712
35717W        W  977   4.246   0.740   3.251
35718W        W  978   0.935  31.457   3.780
35719W        W  979  41.437  28.000  11.994
35720W        W  980  27.693  17.831  12.101
35721W        W  981  29.661  37.739  11.114
35722W        W  982  14.795  22.651   2.191
35723W        W  983  11.415   2.755   2.699
35724W        W  984  10.849  23.932   2.608
35725W        W  985  37.111  11.861  11.151
35726W        W  986  39.293  20.823  14.455
35727W        W  987  27.164  33.548   0.340
35728W        W  988  26.064  38.238  13.418
35729W        W  989  17.292  11.165  12.117
35730W        W  990  13.232  11.244   1.276
35731W        W  991   7.181   1.246   4.609
35732W        W  992  14.109  20.741   4.146
35733W        W  993  15.045   0.358  11.463
35734W        W  994   5.841  18.599  13.772
35735W        W  995   1.786  16.808   2.121
35736W        W  996   9.651  41.364  13.824
35737W        W  997  24.184  26.513   3.938
35738W        W  998  33.125   7.642  10.697
35739W        W  999  14.445  15.381   3.257
35740W        W 1000  36.462  38.614   0.435
35741W        W 1001   6.229  44.853   2.766
35742W        W 1002  42.564  27.675  13.963
35743W        W 1003  26.821   9.792  14.298
35744W        W 1004  35.083  18.111  14.247
35745W        W 1005  12.782  23.109  14.427
35746W        W 1006  16.409  21.535   1.768
35747W        W 1007  16.103  39.243  14.784
35748W        W 1008  41.951  23.478  13.987
35749W        W 1009  33.099  25.534   0.222
35750W        W 1010  29.878  21.732  10.728
35751W        W 1011  21.508  25.620  14.023
35752W        W 1012  27.618  30.650   2.285
35753W        W 1013  15.060  34.803  12.527
35754W        W 1014  39.528   8.727   0.335
35755W        W 1015  36.594  24.591  14.740
35756W        W 1016  35.845  36.328  13.842
35757W        W 1017  44.505  16.712   0.096
35758W        W 1018  41.516  23.652   4.727
35759W        W 1019  33.625  40.486  13.981
35760W        W 1020  32.428  40.109  10.815
35761W        W 1021  35.635  23.522  13.933
35762W        W 1022  43.426   1.636  14.771
35763W        W 1023  12.511  32.385   0.950
35764W        W 1024  14.555   8.478   3.065
35765W        W 1025   9.554  28.388   1.856
35766W        W 1026  29.208   3.369   0.747
35767W        W 1027   0.012  42.044  12.976
35768W        W 1028   3.347  31.153  13.262
35769W        W 1029  38.424  19.679   3.786
35770W        W 1030  29.972   9.622   4.764
35771W        W 1031  26.441   5.409   4.607
35772W        W 1032  40.045  33.653   4.280
35773W        W 1033  35.351  31.369   0.457
35774W        W 1034  41.308  34.862   4.739
35775W        W 1035  39.021  12.110   1.037
35776W        W 1036  16.723  38.150   4.080
35777W        W 1037   9.966   8.151  11.315
35778W        W 1038   3.156  40.740  11.524
35779W        W 1039  39.593  26.806   3.086
35780W        W 1040   3.635  18.186   3.392
35781W        W 1041  13.279  17.113   0.387
35782W        W 1042  27.455   2.987  14.729
35783W        W 1043  44.430   4.884  12.585
35784W        W 1044  13.061   4.207   2.746
35785W        W 1045  18.861   4.666   1.154
35786W        W 1046  16.312  28.050  11.613
35787W        W 1047  34.360   4.915   2.294
35788W        W 1048  28.445  20.643   0.461
35789W        W 1049  29.997  41.824   1.821
35790W        W 1050  27.946  20.245   4.504
35791W        W 1051  27.635  42.862  11.912
35792W        W 1052  11.779  17.471   2.373
35793W        W 1053  31.014  24.621  13.430
35794W        W 1054  19.805  31.489   3.315
35795W        W 1055  22.643  38.097   2.243
35796W        W 1056  39.221  18.088  12.520
35797W        W 1057  17.351  27.958   1.883
35798W        W 1058  17.892   7.362   2.164
35799W        W 1059  13.721  38.270  13.393
35800W        W 1060  38.953   2.649   2.434
35801W        W 1061  21.175  25.552   0.414
35802W        W 1062  14.750  28.635   3.537
35803W        W 1063  15.635  41.012   0.848
35804W        W 1064  34.103  22.174   0.236
35805W        W 1065   4.235   5.836   0.356
35806W        W 1066   3.257  38.648   1.494
35807W        W 1067  26.387  30.488   4.214
35808W        W 1068   5.774   3.832  10.928
35809W        W 1069  22.292   9.511  14.380
35810W        W 1070  17.753  36.884   3.545
35811W        W 1071   9.302   2.117  10.265
35812W        W 1072  28.822   2.508   2.381
35813W        W 1073  29.254  25.137   2.411
35814W        W 1074  12.271  28.462  13.389
35815W        W 1075  21.790  35.352   0.954
35816W        W 1076  33.384  44.470  12.392
35817W        W 1077  20.821  22.104   1.515
35818W        W 1078  37.772   6.271   4.040
35819W        W 1079  21.569  15.653  12.482
35820W        W 1080   2.666  43.556  11.040
35821W        W 1081  19.298   1.519  11.257
35822W        W 1082  34.946  17.872   1.694
35823W        W 1083  22.271  32.925  14.854
35824W        W 1084  12.595  19.557   2.808
35825W        W 1085  19.948  36.736   4.269
35826W        W 1086  38.007   4.241   1.363
35827W        W 1087  21.253   0.002  13.244
35828W        W 1088  29.580  41.575   0.939
35829W        W 1089   9.849  25.723   2.597
35830W        W 1090  15.530  34.958   2.677
35831W        W 1091  34.520  39.380  14.502
35832W        W 1092  16.558  10.342  12.603
35833W        W 1093  31.495  15.406  12.953
35834W        W 1094  18.881  43.205   4.147
35835W        W 1095  44.033  18.174  10.471
35836W        W 1096  44.187   0.291   1.908
35837W        W 1097  14.833  14.704   0.875
35838W        W 1098  15.041  44.809   4.690
35839W        W 1099  31.931  27.509   3.082
35840W        W 1100  43.862  33.064  10.507
35841W        W 1101  15.106   8.376   0.362
35842W        W 1102   5.186   1.055  14.112
35843W        W 1103  18.635   5.810  12.191
35844W        W 1104   7.321  36.019   0.314
35845W        W 1105  15.584   1.493   3.330
35846W        W 1106  43.486   2.000  12.508
35847W        W 1107   8.261  13.630  13.961
35848W        W 1108   7.995  37.834  13.489
35849W        W 1109  33.404  43.354   0.721
35850W        W 1110  25.581   3.878  12.545
35851W        W 1111  22.479  39.377  11.891
35852W        W 1112   9.308   4.246   2.132
35853W        W 1113   7.859  10.566   1.285
35854W        W 1114   3.993   4.459   0.223
35855W        W 1115  21.552   2.407  14.477
35856W        W 1116  18.211   8.800  12.216
35857W        W 1117  29.096  42.678  13.944
35858W        W 1118   7.744  22.201  11.099
35859W        W 1119  27.632   0.440   1.865
35860W        W 1120  34.437  18.120   2.897
35861W        W 1121  32.228  15.983  11.824
35862W        W 1122  33.875  15.757  14.871
35863W        W 1123  33.972  12.873   0.324
35864W        W 1124  30.991  36.665   3.122
35865W        W 1125  24.568   1.781  10.534
35866W        W 1126  44.411  33.562  11.569
35867W        W 1127  26.664  17.661  14.340
35868W        W 1128   6.103  29.020  13.731
35869W        W 1129  19.258   3.850   1.531
35870W        W 1130  38.956  22.933   1.194
35871W        W 1131  38.584  32.026  14.730
35872W        W 1132  37.334  13.755   3.169
35873W        W 1133  20.636  26.547  12.507
35874W        W 1134  29.025  25.444  11.690
35875W        W 1135  28.529  29.021   3.692
35876W        W 1136   7.294  27.283  13.903
35877W        W 1137   6.912  11.753   3.291
35878W        W 1138  35.419  42.060  12.415
35879W        W 1139   9.161  21.765   4.050
35880W        W 1140  24.728  15.208  11.101
35881W        W 1141  20.204  20.956  11.503
35882W        W 1142  37.111  17.259   0.673
35883W        W 1143  18.062  10.688  14.967
35884W        W 1144  12.232  33.853   1.784
35885W        W 1145   6.605  39.772  10.499
35886W        W 1146  22.923  15.697   0.927
35887W        W 1147  34.511   4.917  14.706
35888W        W 1148  31.516   5.828   2.906
35889W        W 1149  16.036  16.536   4.278
35890W        W 1150  15.205  32.149  14.441
35891W        W 1151  19.706  40.333  11.253
35892W        W 1152  30.271  33.014   4.035
35893W        W 1153   0.382  40.272  14.897
35894W        W 1154   8.052  28.889   1.259
35895W        W 1155  27.668  18.175   3.811
35896W        W 1156  38.635  22.575   0.285
35897W        W 1157   1.452  23.600  10.584
35898W        W 1158  28.634   2.902   3.057
35899W        W 1159  37.099  12.088  13.319
35900W        W 1160  10.184   6.288  14.082
35901W        W 1161   2.036  33.034  14.393
35902W        W 1162  12.164  34.192  13.068
35903W        W 1163  14.847  30.979  14.816
35904W        W 1164  19.745  16.615   0.277
35905W        W 1165  40.871  14.835  10.820
35906W        W 1166  40.896  36.429   0.346
35907W        W 1167   2.385  31.681   5.068
35908W        W 1168  21.001  10.819   0.693
35909W        W 1169  38.208  33.409   4.138
35910W        W 1170  28.106  20.883   0.769
35911W        W 1171   7.292  29.902   0.309
35912W        W 1172   2.959   2.247   0.923
35913W        W 1173  42.448  19.017   1.933
35914W        W 1174  10.579   7.723  14.089
35915W        W 1175   6.137  43.381   1.015
35916W        W 1176   8.712   8.010  10.414
35917W        W 1177   4.220  28.946  12.019
35918W        W 1178  30.959   6.651   1.927
35919W        W 1179  36.874   8.673   4.919
35920W        W 1180  30.674  42.268   3.242
35921W        W 1181  18.360   3.165   4.145
35922W        W 1182  42.815  21.555  14.274
35923W        W 1183  28.460   3.908  11.081
35924W        W 1184   7.716  26.372  13.089
35925W        W 1185  43.793  32.505  11.175
35926W        W 1186  15.665  36.045  13.712
35927W        W 1187  33.092  23.254   3.795
35928W        W 1188  10.356  12.316   0.325
35929W        W 1189  12.761  37.049   4.692
35930W        W 1190  31.525  40.313  13.990
35931W        W 1191  41.822  37.543   0.209
35932W        W 1192   2.434  41.542   2.207
35933W        W 1193  14.163  15.396   2.795
35934W        W 1194  37.791  27.029   0.390
35935W        W 1195  11.116   6.809  11.692
35936W        W 1196  14.672  10.705  10.999
35937W        W 1197  28.520   4.255  12.999
35938W        W 1198  27.744  10.332  14.911
35939W        W 1199  20.549  34.534  10.974
35940W        W 1200  26.697  17.613  12.049
35941W        W 1201  40.509  31.044  13.928
35942W        W 1202  29.190  38.036  14.190
35943W        W 1203  10.772  11.628   1.857
35944W        W 1204  17.675  13.161   4.512
35945W        W 1205  14.295  21.585  14.725
35946W        W 1206  25.604  35.285  10.215
35947W        W 1207  43.388   3.127   2.739
35948W        W 1208  38.926  43.261   1.285
35949W        W 1209  42.956  30.865  13.584
35950W        W 1210  44.371  33.166  10.590
35951W        W 1211  34.705  14.758   3.611
35952W        W 1212  12.833  19.473  13.241
35953W        W 1213  12.801  25.981  14.867
35954W        W 1214  33.891   6.650   4.269
35955W        W 1215  23.290  42.285   2.039
35956W        W 1216  16.188   1.801  10.883
35957W        W 1217  12.560  28.707   3.222
35958W        W 1218  20.536  27.577  10.423
35959W        W 1219   4.639   0.455   1.145
35960W        W 1220  43.581  39.374   0.757
35961W        W 1221  25.034  38.016   1.386
35962W        W 1222   9.132   8.058  11.104
35963W        W 1223  37.826  36.919   0.714
35964W        W 1224  26.635   2.654  11.770
35965W        W 1225  31.225  22.760   0.473
35966W        W 1226  22.964  35.556   0.861
35967W        W 1227  18.031  34.496   2.612
35968W        W 1228  42.900  10.532   2.258
35969W        W 1229  24.135  30.179   2.165
35970W        W 1230  24.088  30.726   0.810
35971W        W 1231  43.042  16.693   1.883
35972W        W 1232  28.693  33.414  14.410
35973W        W 1233  42.305   9.347  12.490
35974W        W 1234  29.076  11.423   2.346
35975W        W 1235  12.943  11.408  13.310
35976W        W 1236  19.542   2.901  11.041
35977W        W 1237  40.963  43.268   2.471
35978W        W 1238  34.130   6.406   2.919
35979W        W 1239   2.140  16.364   9.983
35980W        W 1240  10.098  23.565   2.617
35981W        W 1241  28.695  38.023  13.914
35982W        W 1242  11.589  22.061   0.425
35983W        W 1243  41.495   1.298   4.280
35984W        W 1244  14.024  34.834   2.808
35985W        W 1245  40.003  18.779  13.391
35986W        W 1246  27.795   1.795  13.377
35987W        W 1247  26.167  43.355  13.652
35988W        W 1248  35.670  12.335   0.297
35989W        W 1249   3.125   8.868   1.834
35990W        W 1250  42.674   7.828   3.675
35991W        W 1251  15.614  32.147   4.025
35992W        W 1252   9.205  26.234  13.991
35993W        W 1253  20.995  16.010  14.852
35994W        W 1254  31.841  35.517   3.502
35995W        W 1255   5.178   6.249  12.942
35996W        W 1256   1.352  37.602   0.448
35997W        W 1257  42.542  16.222   0.776
35998W        W 1258  21.225  17.256  12.936
35999W        W 1259   4.508  19.027   3.611
36000W        W 1260  16.040  12.914   2.788
36001W        W 1261  35.168  41.821  12.037
36002W        W 1262  27.718  33.289   4.988
36003W        W 1263   2.803  35.921   4.407
36004W        W 1264  10.395   3.134  13.845
36005W        W 1265  12.216  16.104  12.152
36006W        W 1266  12.188  12.767   4.943
36007W        W 1267  36.834  11.869  12.910
36008W        W 1268  32.472  26.162  13.481
36009W        W 1269  37.914  36.632  11.900
36010W        W 1270  37.337  31.084  10.331
36011W        W 1271  21.199  11.803  10.728
36012W        W 1272  32.541  11.320   4.938
36013W        W 1273  35.622  30.432   3.185
36014W        W 1274  37.951  12.760  11.265
36015W        W 1275  39.202  26.252  14.524
36016W        W 1276  14.679  10.696   2.193
36017W        W 1277  14.207   2.211   0.838
36018W        W 1278  40.020  34.435   4.535
36019W        W 1279   4.926   6.200   2.679
36020W        W 1280  44.555  44.471   0.844
36021W        W 1281   4.118  14.581  11.582
36022W        W 1282  37.139  43.688   3.215
36023W        W 1283  43.880  18.771  11.914
36024W        W 1284  20.669  14.687  12.585
36025W        W 1285  17.893  39.135  12.009
36026W        W 1286  10.841  22.665   3.608
36027W        W 1287  14.694  44.319  10.687
36028W        W 1288  29.523  39.330   0.586
36029W        W 1289   1.452  15.142   1.413
36030W        W 1290   6.994  14.935  14.823
36031W        W 1291  25.724   6.027   3.172
36032W        W 1292  40.505  41.865  14.025
36033W        W 1293  23.817  37.504   0.234
36034W        W 1294  31.729   8.903   4.438
36035W        W 1295  19.974  28.984  11.608
36036W        W 1296  38.045  18.794  10.771
36037W        W 1297  35.147  26.152  11.672
36038W        W 1298  13.661  17.736  13.402
36039W        W 1299  41.434  26.261   1.884
36040W        W 1300  33.124  36.002  13.345
36041W        W 1301  30.225  13.749   3.303
36042W        W 1302  11.795  21.775   3.883
36043W        W 1303  43.369  29.433   4.180
36044W        W 1304  12.562  26.079   2.269
36045W        W 1305  20.155  26.114  14.336
36046W        W 1306  33.531  38.553   3.664
36047W        W 1307  19.667  12.675  12.629
36048W        W 1308   8.707  44.933  10.418
36049W        W 1309  32.861   5.318   0.875
36050W        W 1310  21.526  10.923  11.732
36051W        W 1311   0.650  43.165   3.097
36052W        W 1312   3.313  11.185   0.356
36053W        W 1313  16.235  40.321   0.840
36054W        W 1314  21.737  42.598  14.183
36055W        W 1315  23.978  44.462   2.230
36056W        W 1316   9.114   4.637  10.698
36057W        W 1317   1.494  24.769  14.052
36058W        W 1318  35.784   1.285  11.770
36059W        W 1319  31.068  22.200   4.837
36060W        W 1320  22.240   1.588  11.266
36061W        W 1321   7.654   7.448   4.640
36062W        W 1322  17.507  30.677   4.591
36063W        W 1323  35.359  36.536  12.884
36064W        W 1324  16.729   8.051   4.848
36065W        W 1325  28.685  27.105   1.339
36066W        W 1326  20.190  36.291   3.170
36067W        W 1327  14.243  36.507   1.231
36068W        W 1328   8.422  38.901   4.048
36069W        W 1329   0.588  24.962   2.198
36070W        W 1330  33.625  25.028   0.965
36071W        W 1331   5.271  20.266   2.918
36072W        W 1332   7.025   2.816  12.589
36073W        W 1333  43.301  23.139  11.455
36074W        W 1334   8.475  12.187  14.467
36075W        W 1335  18.831  12.630   2.336
36076W        W 1336  44.987  11.577   0.920
36077W        W 1337  18.142   0.672   4.107
36078W        W 1338  31.054  28.731  14.862
36079W        W 1339  32.395  41.239  13.359
36080W        W 1340  36.353  25.193   4.709
36081W        W 1341  30.608   2.479   0.699
36082W        W 1342  43.502  30.477   0.720
36083W        W 1343  40.614   9.176   0.304
36084W        W 1344  29.527  13.033   1.826
36085W        W 1345  28.090  29.090   2.411
36086W        W 1346  21.915  44.268  13.811
36087W        W 1347  35.526  30.458   1.032
36088W        W 1348  20.043   0.835   2.190
36089W        W 1349  34.166  15.176  11.078
36090W        W 1350   5.123  29.000   1.764
36091W        W 1351  24.430  44.855   4.105
36092W        W 1352   6.692  13.835  10.835
36093W        W 1353  10.671   0.960  10.711
36094W        W 1354  37.708   2.274  13.369
36095W        W 1355  22.848  14.397   3.239
36096W        W 1356  24.942  43.888   2.649
36097W        W 1357  14.368  34.620  12.855
36098W        W 1358   1.244  10.456  14.396
36099W        W 1359  35.121  27.583  14.686
36100W        W 1360   3.958  27.763   3.723
36101W        W 1361  34.394  23.181   1.310
36102W        W 1362   9.378  36.365  12.370
36103W        W 1363  28.112  38.564   2.963
36104W        W 1364   9.679   5.399  12.906
36105W        W 1365   5.201  41.895  10.532
36106W        W 1366  16.835  44.838  12.936
36107W        W 1367  32.076  11.374   1.695
36108W        W 1368  19.103  44.350   0.150
36109W        W 1369  32.366  15.840   3.539
36110W        W 1370  16.947  23.631  12.017
36111W        W 1371  41.838  35.165   0.410
36112W        W 1372   7.997   3.646  14.476
36113W        W 1373  18.932  39.286   3.278
36114W        W 1374  14.723  39.012  12.005
36115W        W 1375  17.953  24.155  14.493
36116W        W 1376  24.573   3.934   3.148
36117W        W 1377  18.152  44.972  12.026
36118W        W 1378   3.782  18.729  13.437
36119W        W 1379   5.084   4.209  12.081
36120W        W 1380  29.098  30.287   4.597
36121W        W 1381  38.206  21.808  14.933
36122W        W 1382   4.804   6.730  14.929
36123W        W 1383   6.192   0.561  14.571
36124W        W 1384  36.825  37.630  14.828
36125W        W 1385  43.565  14.632  12.504
36126W        W 1386   5.817   9.578  14.878
36127W        W 1387   4.481  44.217   0.993
36128W        W 1388  22.783  40.330  13.295
36129W        W 1389  27.724  37.512  13.012
36130W        W 1390  14.301  21.801   0.197
36131W        W 1391  28.243  33.597   0.402
36132W        W 1392   4.850   8.202  13.833
36133W        W 1393  40.764  25.614   3.596
36134W        W 1394  29.858  34.430   2.796
36135W        W 1395  33.095   0.771  12.506
36136W        W 1396   3.714  10.816   1.152
36137W        W 1397  39.640   1.445  11.995
36138W        W 1398  24.589  24.255   3.985
36139W        W 1399  25.676  34.198   1.942
36140W        W 1400  28.426   6.850   4.262
36141W        W 1401  13.791  14.560   3.753
36142W        W 1402   2.997  29.164  12.636
36143W        W 1403   1.732  12.078  10.139
36144W        W 1404  35.998  41.484   2.157
36145W        W 1405  22.975   3.435   2.124
36146W        W 1406  17.741  43.571   1.451
36147W        W 1407  18.236  35.060   0.996
36148W        W 1408  42.585  40.643   1.831
36149W        W 1409  44.316  33.861  14.225
36150W        W 1410  36.935  44.858   9.698
36151W        W 1411  13.359  27.019  13.635
36152W        W 1412  43.501  37.612   4.878
36153W        W 1413   1.838   7.870   3.358
36154W        W 1414  14.620  30.101   3.124
36155W        W 1415  17.759  10.499  14.479
36156W        W 1416  44.443  36.413  12.581
36157W        W 1417   8.893  25.184   9.809
36158W        W 1418   1.444  25.104  11.917
36159W        W 1419  42.529  39.079  11.514
36160W        W 1420  28.241  35.856   2.728
36161W        W 1421   6.334   3.736  14.798
36162W        W 1422  18.554   7.909  14.821
36163W        W 1423   8.402  25.755   1.861
36164W        W 1424  27.424   2.418   2.659
36165W        W 1425   3.682  15.137  14.968
36166W        W 1426  35.851  16.586   0.927
36167W        W 1427  26.916   5.885  12.551
36168W        W 1428   3.931  44.591   3.411
36169W        W 1429  16.642  32.855   2.170
36170W        W 1430   4.185  17.447  13.883
36171W        W 1431  28.526  43.832  14.751
36172W        W 1432  35.378  33.947  12.216
36173W        W 1433  16.014  36.784   1.195
36174W        W 1434  37.509  29.536   3.840
36175W        W 1435   3.504   1.794   2.576
36176W        W 1436   4.695  35.591   1.357
36177W        W 1437  12.612   2.990   0.279
36178W        W 1438  38.964  30.505   4.906
36179W        W 1439  33.582  12.670   0.589
36180W        W 1440  16.468  21.615   1.119
36181W        W 1441   4.028  38.966   1.886
36182W        W 1442  10.953   2.855  12.415
36183W        W 1443  10.674   3.287  14.775
36184W        W 1444  14.558   3.462   5.089
36185W        W 1445   2.233  24.497  11.563
36186W        W 1446  24.545  30.523   0.999
36187W        W 1447  20.641   6.626   3.802
36188W        W 1448  39.887  33.889  12.631
36189W        W 1449  39.966  41.109  13.962
36190W        W 1450  37.152  20.591  14.799
36191W        W 1451  11.933   6.408  12.431
36192W        W 1452  40.552  14.139   3.993
36193W        W 1453  26.186  34.838  11.417
36194W        W 1454  15.018  38.374  14.047
36195W        W 1455  31.973  13.145   4.212
36196W        W 1456   8.202   6.727  13.547
36197W        W 1457   6.468  20.056   4.144
36198W        W 1458  15.179   0.690  10.241
36199W        W 1459  12.882   1.893   3.730
36200W        W 1460  29.617   1.352  12.333
36201W        W 1461  33.674  22.672  12.969
36202W        W 1462   5.190   3.374   2.364
36203W        W 1463  29.708  12.074  12.513
36204W        W 1464   6.735  10.836   2.876
36205W        W 1465  28.875  22.066   2.322
36206W        W 1466  19.143   6.857  12.870
36207W        W 1467  20.254  30.598  13.004
36208W        W 1468  36.930   4.043   0.755
36209W        W 1469  19.887  29.858   1.495
36210W        W 1470   2.373   8.617   2.103
36211W        W 1471  34.651  23.529  14.771
36212W        W 1472  10.483   4.369   2.289
36213W        W 1473  23.660  32.296  14.859
36214W        W 1474  38.411  29.146  13.760
36215W        W 1475   9.578  20.983   4.308
36216W        W 1476  14.464  19.613   5.020
36217W        W 1477  13.647   8.631   1.647
36218W        W 1478  44.350  34.844   0.977
36219W        W 1479  21.954   7.990  12.163
36220W        W 1480  44.400   2.844  12.858
36221W        W 1481  32.171  23.761   3.676
36222W        W 1482  34.247  36.006   0.980
36223W        W 1483   4.361   6.952   5.127
36224W        W 1484  16.056  26.546   3.778
36225W        W 1485   9.118  25.162  14.890
36226W        W 1486  35.433   6.728   3.151
36227W        W 1487  44.765   0.717  13.086
36228W        W 1488  32.122  11.444  13.521
36229W        W 1489  30.377   8.669   4.091
36230W        W 1490  41.497   8.604   4.551
36231W        W 1491  39.298  18.848   0.817
36232W        W 1492   4.875  13.123   2.815
36233W        W 1493   6.459  13.317   1.401
36234W        W 1494  12.747  43.874   1.919
36235W        W 1495  19.545  23.609   0.641
36236W        W 1496  22.764  44.503  13.496
36237W        W 1497  16.342  35.925   2.893
36238W        W 1498   8.103  42.833  12.187
36239W        W 1499  39.216  34.667   0.049
36240W        W 1500  39.255   9.178   2.709
36241W        W 1501  11.652  43.621   1.351
36242W        W 1502   8.464  17.166   2.777
36243W        W 1503  13.563  39.327  14.662
36244W        W 1504  12.841  20.794  14.666
36245W        W 1505  13.853  18.527   0.702
36246W        W 1506  27.587   9.835  14.893
36247W        W 1507  19.405   1.832   1.861
36248W        W 1508   2.079  31.903  11.263
36249W        W 1509   7.322  13.958   1.048
36250W        W 1510  24.535  30.391  12.159
36251W        W 1511  44.421  40.235  11.515
36252W        W 1512  41.917  17.004   2.709
36253W        W 1513   0.867  29.486   3.363
36254W        W 1514   0.799  30.213   2.516
36255W        W 1515  29.322  14.290  11.275
36256W        W 1516  34.659  34.517   0.951
36257W        W 1517  31.815  17.222   1.455
36258W        W 1518  24.539  30.189   2.749
36259W        W 1519  20.322  35.259   2.809
36260W        W 1520  17.342   6.963  12.559
36261W        W 1521   4.500  41.995   1.434
36262W        W 1522  33.422  15.273  12.517
36263W        W 1523   4.331   5.147   4.945
36264W        W 1524  19.554  12.194   4.258
36265W        W 1525  34.929   0.755  12.038
36266W        W 1526  25.962  10.332   1.729
36267W        W 1527  41.513  39.366   0.860
36268W        W 1528   3.602  11.178   4.901
36269W        W 1529  25.236  12.685   2.248
36270W        W 1530  35.868  26.252  10.460
36271W        W 1531  11.100  22.530  11.131
36272W        W 1532  17.092  40.463  11.107
36273W        W 1533  15.562   5.739   1.799
36274W        W 1534  42.264  13.282  14.737
36275W        W 1535   7.374   3.828   0.835
36276W        W 1536  23.787   5.291  13.496
36277W        W 1537  25.893  10.237  12.984
36278W        W 1538  29.339  23.536  14.442
36279W        W 1539   1.444  38.398   4.077
36280W        W 1540  28.365  31.153   1.798
36281W        W 1541   2.165   4.920  13.467
36282W        W 1542  20.687  21.768   2.366
36283W        W 1543  38.078  13.539   3.633
36284W        W 1544   4.153  23.796  11.665
36285W        W 1545  36.742   5.420   4.231
36286W        W 1546  33.513   9.788  13.391
36287W        W 1547  31.568  35.577  12.051
36288W        W 1548  38.245  15.268  11.022
36289W        W 1549   6.696  26.103   4.517
36290W        W 1550  25.698  31.416  10.699
36291W        W 1551  30.631  31.547  12.189
36292W        W 1552  38.751  40.426   0.704
36293W        W 1553   7.930  21.279   0.979
36294W        W 1554  35.393  11.125   2.235
36295W        W 1555  36.957   8.814  13.047
36296W        W 1556  10.672  37.836  12.798
36297W        W 1557  39.422   3.486  12.670
36298W        W 1558  13.129  19.656  11.011
36299W        W 1559   4.989  31.952  14.628
36300W        W 1560  21.130  16.479   0.018
36301W        W 1561   0.965  34.407  11.633
36302W        W 1562  10.395  41.825   5.258
36303W        W 1563  15.735  31.669  14.877
36304W        W 1564  39.922  37.073  11.468
36305W        W 1565  23.456  16.046   0.048
36306W        W 1566  28.984   4.646   0.964
36307W        W 1567  28.689  19.966   3.168
36308W        W 1568  36.231  40.562  11.344
36309W        W 1569  29.131  40.895  14.854
36310W        W 1570  43.769  20.659   0.227
36311W        W 1571   0.996  14.865   0.447
36312W        W 1572  29.671  32.354   1.855
36313W        W 1573  43.404  18.771   0.546
36314W        W 1574   3.751  38.374   0.457
36315W        W 1575   2.131  11.480  14.949
36316W        W 1576   1.227  24.554   3.266
36317W        W 1577  31.614  11.535   1.877
36318W        W 1578   9.821  22.975   9.647
36319W        W 1579   4.620   1.435   1.462
36320W        W 1580  24.985   7.723   4.101
36321W        W 1581  41.914   4.459   1.798
36322W        W 1582  20.594  25.180   1.721
36323W        W 1583  17.259  20.718   1.751
36324W        W 1584  10.762  18.584  13.074
36325W        W 1585  28.016   7.041   3.609
36326W        W 1586   2.184  13.863  11.697
36327W        W 1587   2.045   5.692   3.277
36328W        W 1588   0.347  44.435  13.860
36329W        W 1589  32.916  29.704  13.370
36330W        W 1590  36.884   6.680   2.548
36331W        W 1591  24.274  37.736   1.756
36332W        W 1592   9.099  33.149  13.744
36333W        W 1593   8.872  42.535  12.141
36334W        W 1594  21.064   8.372  11.803
36335W        W 1595  39.402  43.153   4.908
36336W        W 1596  28.379  19.365  12.115
36337W        W 1597  35.595   8.797  12.059
36338W        W 1598  11.929  26.290   9.762
36339W        W 1599  21.561  41.061   1.915
36340W        W 1600  13.297  19.054  12.290
36341W        W 1601   8.290   8.170  10.961
36342W        W 1602  37.302  24.006   0.917
36343W        W 1603  38.391   6.793  14.732
36344W        W 1604  14.746  39.471   2.212
36345W        W 1605  19.674   4.857  13.391
36346W        W 1606  16.294  37.456  12.517
36347W        W 1607   7.992   2.955   1.786
36348W        W 1608   7.251  22.186   1.329
36349W        W 1609  19.830  23.724  11.551
36350W        W 1610  27.261  19.656  10.498
36351W        W 1611  29.564  27.045   0.801
36352W        W 1612  39.097  14.421  14.558
36353W        W 1613  16.397  21.640   3.176
36354W        W 1614   2.451  11.350  12.437
36355W        W 1615   7.215   5.226   0.424
36356W        W 1616  44.484  30.616  13.039
36357W        W 1617   1.493  37.952   1.270
36358W        W 1618  17.770   5.325  12.966
36359W        W 1619  40.490  31.464   0.421
36360W        W 1620   5.506  23.233  11.556
36361W        W 1621   8.164   0.720  12.957
36362W        W 1622  27.458   5.309   0.537
36363W        W 1623  26.912  37.290  11.976
36364W        W 1624   9.931  10.111   4.173
36365W        W 1625  18.211  12.864  12.505
36366W        W 1626  10.214   3.534   1.858
36367W        W 1627  18.726  34.908  10.634
36368W        W 1628   6.824  28.347   4.486
36369W        W 1629  29.467  15.039   1.386
36370W        W 1630  24.798  11.337  13.434
36371W        W 1631  18.329   0.803  11.416
36372W        W 1632  12.582  37.053  14.288
36373W        W 1633  24.008  33.540   4.178
36374W        W 1634  42.427  42.886   4.606
36375W        W 1635  38.089  28.017   0.730
36376W        W 1636   2.627   8.332  14.735
36377W        W 1637  37.404   2.629   5.310
36378W        W 1638  21.444  14.745  11.227
36379W        W 1639  27.370   4.332  11.476
36380W        W 1640  14.328  30.140   4.442
36381W        W 1641  15.187  28.208  14.247
36382W        W 1642   5.227  14.801   0.601
36383W        W 1643  26.436  22.331   3.728
36384W        W 1644  44.980   4.896   1.936
36385W        W 1645  43.034   1.029   0.235
36386W        W 1646  43.228  18.452   1.424
36387W        W 1647  21.096  29.624  14.867
36388W        W 1648  18.072  34.832  14.838
36389W        W 1649  36.625   8.688  12.112
36390W        W 1650  36.197  22.362  12.118
36391W        W 1651  33.289  35.295  11.988
36392W        W 1652  37.093  31.527   4.284
36393W        W 1653  38.848  42.342  12.457
36394W        W 1654  10.878   9.641  13.698
36395W        W 1655  23.682  38.364  11.602
36396W        W 1656  25.573  40.835  14.370
36397W        W 1657  10.185  14.661  13.070
36398W        W 1658  43.341  16.997   0.741
36399W        W 1659  12.359  18.158  11.055
36400W        W 1660  37.572  44.557   3.009
36401W        W 1661  23.058  15.663   3.824
36402W        W 1662   7.739  29.068  12.088
36403W        W 1663  34.494   8.285  13.886
36404W        W 1664  30.175  29.770   2.736
36405W        W 1665  23.717  29.938   0.451
36406W        W 1666  14.286   7.176  11.362
36407W        W 1667  28.006  23.842  12.859
36408W        W 1668  39.341  12.523  11.721
36409W        W 1669  28.726  34.016  13.409
36410W        W 1670   7.484   1.335  13.981
36411W        W 1671   4.776  33.856   4.162
36412W        W 1672   2.181   5.792  11.611
36413W        W 1673  21.976  20.800  11.041
36414W        W 1674  34.385  34.058  10.698
36415W        W 1675  10.769   1.644   0.483
36416W        W 1676  15.319   9.684  10.762
36417W        W 1677   5.487  41.063  13.986
36418W        W 1678  19.084   1.774   1.431
36419W        W 1679  19.264   3.198  12.528
36420W        W 1680  31.965   8.263   4.674
36421W        W 1681  10.347  19.632  13.508
36422W        W 1682   2.070  25.744  13.637
36423W        W 1683   6.213  34.598   3.308
36424W        W 1684  24.768  44.065   4.300
36425W        W 1685  28.161  21.937   3.790
36426W        W 1686  37.498  33.367   3.576
36427W        W 1687  17.637  38.007  11.020
36428W        W 1688  31.800  21.850  13.969
36429W        W 1689  24.438   4.890  11.970
36430W        W 1690   1.307  31.165  13.305
36431W        W 1691  35.697  16.013  11.483
36432W        W 1692  21.207  14.794  12.521
36433W        W 1693  44.173   6.414   3.623
36434W        W 1694  29.040  39.273  12.707
36435W        W 1695  30.614  39.344  12.632
36436W        W 1696   3.214   9.824   1.838
36437W        W 1697   8.779  20.983   3.273
36438W        W 1698   9.037  29.556  13.698
36439W        W 1699  12.328  29.833   3.822
36440W        W 1700   1.750  34.339   3.561
36441W        W 1701  35.961  42.036  10.742
36442W        W 1702  42.427   3.690   3.204
36443W        W 1703  29.567  44.406   2.473
36444W        W 1704  40.364  15.986  11.485
36445W        W 1705  19.584  29.543   3.285
36446W        W 1706  36.664  13.304   1.700
36447W        W 1707   3.183  22.257  14.073
36448W        W 1708  26.298  33.885  11.678
36449W        W 1709  28.579  39.999  13.039
36450W        W 1710   7.851  33.920   4.573
36451W        W 1711   0.537   4.802  12.736
36452W        W 1712  26.385  19.066  12.124
36453W        W 1713  28.072  21.553  10.465
36454W        W 1714  15.316  36.398  10.766
36455W        W 1715  15.773  23.275   0.734
36456W        W 1716  44.415  44.839   1.190
36457W        W 1717  34.034  19.768  13.543
36458W        W 1718  11.372   9.369  11.559
36459W        W 1719  38.454  17.997   3.987
36460W        W 1720   6.193  36.703   2.738
36461W        W 1721   0.812   0.275   4.271
36462W        W 1722  31.700   4.848   1.421
36463W        W 1723  19.291   0.847   2.686
36464W        W 1724  23.599  10.231   4.665
36465W        W 1725   7.868  23.532  12.985
36466W        W 1726  29.752  16.153   1.251
36467W        W 1727   8.948  37.484  13.830
36468W        W 1728  30.672  43.239   0.424
36469W        W 1729   2.890   0.972   2.228
36470W        W 1730  10.582  31.921  12.334
36471W        W 1731   2.474  17.871   1.786
36472W        W 1732   2.382  32.880  12.969
36473W        W 1733  27.884   7.777   0.167
36474W        W 1734   5.352  36.547   4.497
36475W        W 1735  18.465  35.090  11.037
36476W        W 1736  41.351   8.868  11.137
36477W        W 1737  34.956  43.506  13.670
36478W        W 1738  27.427  44.934   2.617
36479W        W 1739  39.225   4.757  10.114
36480W        W 1740  19.291  22.831  12.442
36481W        W 1741  20.245  29.492  13.463
36482W        W 1742  30.986  28.893   2.330
36483W        W 1743  23.454  16.851   3.649
36484W        W 1744  37.448  30.574  13.744
36485W        W 1745  39.108  41.454  12.474
36486W        W 1746   2.444  27.492   3.719
36487W        W 1747  23.016  26.248  12.450
36488W        W 1748  15.760  18.625   0.273
36489W        W 1749   7.361   5.797  13.825
36490W        W 1750  41.564  10.559   1.283
36491W        W 1751  40.244   6.545   1.707
36492W        W 1752   0.265  43.781   4.810
36493W        W 1753  28.301   2.647   2.711
36494W        W 1754  41.785  39.610   3.855
36495W        W 1755  21.971  43.951  10.609
36496W        W 1756  30.241  32.968   0.884
36497W        W 1757  12.846  31.682  13.905
36498W        W 1758  36.122   6.913  13.001
36499W        W 1759  11.269  36.985   0.240
36500W        W 1760  13.082  24.954  14.648
36501W        W 1761  19.135  20.214   0.924
36502W        W 1762  30.160  18.250   1.523
36503W        W 1763  39.537  34.509   1.065
36504W        W 1764  18.204   3.969  12.368
36505W        W 1765  14.081  44.424   3.709
36506W        W 1766   6.395   1.434   0.281
36507W        W 1767  38.536  25.071   3.243
36508W        W 1768  18.225  26.608   2.636
36509W        W 1769  40.712  13.437   9.665
36510W        W 1770  18.369   6.224  12.879
36511W        W 1771  16.680  40.132  11.097
36512W        W 1772   8.289   7.003  13.113
36513W        W 1773  34.689   8.847   3.319
36514W        W 1774  23.185  28.594  10.909
36515W        W 1775   3.904  24.391   3.811
36516W        W 1776  21.134  14.594  14.893
36517W        W 1777  29.194  32.811   0.970
36518W        W 1778  22.058   9.931   1.304
36519W        W 1779   6.707  14.787   1.428
36520W        W 1780  32.569  37.400  12.292
36521W        W 1781  37.884  40.890  12.009
36522W        W 1782  21.588  31.431   1.791
36523W        W 1783  28.988   6.202  13.239
36524W        W 1784   6.321  28.577  11.398
36525W        W 1785  23.953   9.361   2.150
36526W        W 1786   9.710  39.549   4.016
36527W        W 1787  32.915  19.852   2.774
36528W        W 1788  37.894  41.078  13.544
36529W        W 1789   9.909  14.689   1.859
36530W        W 1790   9.936  24.819   2.338
36531W        W 1791  39.403   9.394   3.171
36532W        W 1792  23.978  16.723  11.195
36533W        W 1793   2.377   5.827   0.248
36534W        W 1794  29.924  36.846   0.930
36535W        W 1795   5.331  40.350  12.874
36536W        W 1796  26.649  12.112  14.360
36537W        W 1797  44.012  36.310   3.266
36538W        W 1798  13.109   5.252  11.913
36539W        W 1799  12.730   8.697  13.972
36540W        W 1800  36.741  21.218  13.640
36541W        W 1801  29.204  42.505   3.236
36542W        W 1802   5.176   3.169   1.109
36543W        W 1803   1.613  38.939   1.172
36544W        W 1804  11.486   0.544   4.675
36545W        W 1805   0.293  12.813   2.904
36546W        W 1806  11.089  44.922   4.412
36547W        W 1807   5.276   6.991   2.238
36548W        W 1808   9.284   9.418  14.256
36549W        W 1809   9.885  32.147   4.571
36550W        W 1810  34.411  25.116   9.887
36551W        W 1811  42.274   3.935  10.788
36552W        W 1812  33.820  42.729  12.237
36553W        W 1813   4.504   6.840   1.337
36554W        W 1814   4.349  15.706  14.765
36555W        W 1815  43.996  19.571   3.872
36556W        W 1816  28.502  27.079   4.512
36557W        W 1817   8.343  31.312  10.984
36558W        W 1818  30.551   8.919   3.211
36559W        W 1819   2.345  22.543  12.847
36560W        W 1820   0.163   2.292  13.329
36561W        W 1821  22.298   7.775   3.331
36562W        W 1822  23.143   2.252  14.364
36563W        W 1823  29.918  32.412  11.140
36564W        W 1824  22.734  34.466  11.548
36565W        W 1825  33.716  35.967   0.981
36566W        W 1826  31.994  42.781   0.221
36567W        W 1827  41.158   5.177  14.461
36568W        W 1828  21.006  24.929   3.199
36569W        W 1829  19.830   9.214   0.470
36570W        W 1830  39.394  26.191  11.603
36571W        W 1831  27.139  14.311  13.306
36572W        W 1832  26.037  44.354   1.881
36573W        W 1833   8.195  29.615   1.784
36574W        W 1834  18.359  18.759   4.192
36575W        W 1835  39.469  17.791  11.193
36576W        W 1836  36.593  42.495   2.231
36577W        W 1837  20.622   4.492  14.932
36578W        W 1838   4.302  24.735   3.189
36579W        W 1839  14.799  10.381   1.792
36580W        W 1840  18.165  13.356   4.388
36581W        W 1841  36.879  40.666  11.038
36582W        W 1842   8.748   9.322  13.566
36583W        W 1843  35.573  14.837  10.625
36584W        W 1844  13.003  11.223   0.224
36585W        W 1845  10.746   5.289   5.406
36586W        W 1846  29.248  36.050   1.770
36587W        W 1847   4.043  37.531  13.366
36588W        W 1848   6.028  12.859   0.209
36589W        W 1849  21.832  21.289   5.145
36590W        W 1850  27.754  21.055  13.461
36591W        W 1851   1.025  22.466   4.130
36592W        W 1852  23.871  37.169   0.656
36593W        W 1853   6.742  32.572  10.736
36594W        W 1854  29.023  38.654   4.208
36595W        W 1855  39.915   3.995   4.134
36596W        W 1856  33.555  10.156   3.625
36597W        W 1857  29.335  41.182   1.234
36598W        W 1858  10.815  24.429   2.388
36599W        W 1859  40.280   1.259   2.361
36600W        W 1860  44.220  21.964  14.887
36601W        W 1861   2.390  16.158  14.452
36602W        W 1862  24.836   8.329   4.903
36603W        W 1863  44.822   1.506   0.141
36604W        W 1864  35.702  12.323  14.423
36605W        W 1865  31.462  27.032  13.131
36606W        W 1866   8.250  44.372  10.387
36607W        W 1867  26.988  15.207  13.472
36608W        W 1868  19.605   9.141   5.077
36609W        W 1869  17.434   2.568  13.971
36610W        W 1870   5.341   8.650  11.304
36611W        W 1871   8.751  11.255   3.746
36612W        W 1872  36.077  21.898  10.859
36613W        W 1873  37.767  29.617   0.289
36614W        W 1874   3.163  35.381  13.378
36615W        W 1875   5.053  39.287  13.051
36616W        W 1876  33.076  40.342   4.103
36617W        W 1877  20.806  10.253  11.370
36618W        W 1878  25.039   3.298  11.442
36619W        W 1879   1.240   4.885  14.251
36620W        W 1880  20.029   9.081  13.787
36621W        W 1881  27.631  26.530  11.913
36622W        W 1882  18.280  15.824  14.300
36623W        W 1883  14.119  20.542   4.957
36624W        W 1884   9.440  32.335  14.774
36625W        W 1885  17.142  44.792  14.205
36626W        W 1886  24.690  19.996   1.201
36627W        W 1887  23.169  33.792   3.034
36628W        W 1888   3.863   3.893   3.869
36629W        W 1889  11.136  40.549  14.800
36630W        W 1890  24.077   2.913  13.978
36631W        W 1891  29.611  16.133   2.620
36632W        W 1892  42.934  42.798  14.995
36633W        W 1893  38.440  13.238  13.071
36634W        W 1894  14.185  42.967   2.229
36635W        W 1895  21.937  42.064  14.266
36636W        W 1896  18.927  40.879   4.487
36637W        W 1897  23.003  44.404   4.225
36638W        W 1898  26.011  30.914   4.711
36639W        W 1899  22.707   3.169  10.666
36640W        W 1900  31.181  25.690   0.301
36641W        W 1901  20.905  44.238  13.824
36642W        W 1902  22.973  25.572  13.575
36643W        W 1903   8.387  13.113  10.724
36644W        W 1904  24.047  27.065   1.654
36645W        W 1905  36.540   3.442  12.644
36646W        W 1906  15.815  26.654   2.163
36647W        W 1907  26.584  10.197  14.101
36648W        W 1908   7.810  24.490   1.780
36649W        W 1909  21.473  24.511   4.132
36650W        W 1910  42.801   5.408   0.330
36651W        W 1911  33.832  33.058  11.540
36652W        W 1912  39.544  24.170  13.044
36653W        W 1913  15.061   4.077   0.377
36654W        W 1914  27.767  36.443   2.533
36655W        W 1915  44.920   2.708  12.606
36656W        W 1916   4.346  12.141  12.511
36657W        W 1917  19.629  28.202  12.410
36658W        W 1918  27.529   0.991   2.059
36659W        W 1919  16.291  36.786   2.847
36660W        W 1920  27.178   7.863  13.304
36661W        W 1921  25.317  34.318   5.001
36662W        W 1922  12.851  19.111   0.048
36663W        W 1923   8.760  15.699   0.375
36664W        W 1924   6.449  11.086   3.890
36665W        W 1925  24.403   9.761  10.548
36666W        W 1926  24.517  23.876   4.886
36667W        W 1927  10.834  31.523  11.068
36668W        W 1928   7.177  39.081   0.293
36669W        W 1929  34.723  37.619  12.726
36670W        W 1930  23.818   6.020   0.495
36671W        W 1931  10.201  28.426  14.466
36672W        W 1932  12.308  27.205   4.695
36673W        W 1933  33.907  39.039  13.499
36674W        W 1934   3.992  22.709   0.723
36675W        W 1935  16.196  27.119   3.707
36676W        W 1936   9.083   4.670   3.733
36677W        W 1937  30.640  31.913   4.772
36678W        W 1938   7.021  41.661  10.785
36679W        W 1939  22.300  29.324  13.967
36680W        W 1940   4.685  38.345   2.212
36681W        W 1941  13.146  20.183   3.260
36682W        W 1942  30.600  26.667   3.297
36683W        W 1943  29.596  28.242   1.821
36684W        W 1944   3.467   4.392   0.331
36685W        W 1945  22.204  14.048  11.057
36686W        W 1946   2.337  44.874   3.126
36687W        W 1947   4.012   2.470  10.859
36688W        W 1948   3.194  21.693   0.013
36689W        W 1949  20.590  16.132   3.599
36690W        W 1950  34.053   6.164   3.366
36691W        W 1951  30.947  15.177   3.286
36692W        W 1952  40.988  13.795  13.476
36693W        W 1953  33.384  36.258  14.774
36694W        W 1954  14.594  12.606   1.764
36695W        W 1955  24.442  33.628   2.598
36696W        W 1956   6.136  38.537  14.770
36697W        W 1957  38.155  42.510   0.795
36698W        W 1958  31.056  40.884   1.902
36699W        W 1959  11.212   9.600  14.887
36700W        W 1960  16.559   1.449  13.836
36701W        W 1961  13.629  23.540   1.779
36702W        W 1962   6.822  26.697   0.936
36703W        W 1963  28.577  41.879   3.781
36704W        W 1964  33.055  41.044  13.254
36705W        W 1965  30.918   1.668  13.967
36706W        W 1966  23.273  23.939   3.712
36707W        W 1967  34.737  34.103  10.299
36708W        W 1968  44.663  35.613  10.832
36709W        W 1969   8.564   8.228  12.402
36710W        W 1970   9.486  27.133   2.215
36711W        W 1971  20.846  19.241   2.828
36712W        W 1972   0.147  17.117  13.291
36713W        W 1973  25.280  35.996  14.467
36714W        W 1974  19.914  38.454  10.199
36715W        W 1975  33.416  11.180  14.015
36716W        W 1976  25.710  37.421   0.511
36717W        W 1977  28.957  20.606  10.927
36718W        W 1978  44.520   5.621  12.152
36719W        W 1979  26.592  41.992   4.130
36720W        W 1980   9.432  34.508  13.732
36721W        W 1981  13.408  40.774  11.346
36722W        W 1982  25.943  19.690  12.906
36723W        W 1983  18.529  40.261  11.121
36724W        W 1984  38.588  21.143   3.671
36725W        W 1985  20.554  12.751  12.049
36726W        W 1986   5.878  11.266   4.597
36727W        W 1987  28.988  19.701  14.580
36728W        W 1988  39.462  16.229   1.062
36729W        W 1989  30.289   5.477   0.664
36730W        W 1990  34.483  43.807  14.282
36731W        W 1991  20.068  11.344   1.379
36732W        W 1992  37.097  11.740   0.250
36733W        W 1993  36.589  43.342  12.511
36734W        W 1994   8.800  22.739  14.223
36735W        W 1995  17.737  25.591   3.443
36736W        W 1996  39.886  29.413  10.695
36737W        W 1997  19.058  18.711  14.954
36738W        W 1998  13.689  10.163  14.432
36739W        W 1999   7.913  36.368  12.557
36740W        W 2000  36.790  34.460  11.127
36741W        W 2001  13.164  32.844  10.672
36742W        W 2002  30.698  19.097  11.245
36743W        W 2003  43.489  12.653   0.822
36744W        W 2004  35.931  44.925   0.285
36745W        W 2005  21.009  40.147  11.921
36746W        W 2006   9.265  32.926  10.450
36747W        W 2007   3.961  12.153   2.828
36748W        W 2008   5.265  43.750   0.704
36749W        W 2009  21.227   8.851   1.774
36750W        W 2010  23.743  25.428  14.019
36751W        W 2011   2.377  35.616  13.817
36752W        W 2012  27.321   8.223  12.532
36753W        W 2013  22.081   5.494   3.258
36754W        W 2014  25.499  18.081  13.500
36755W        W 2015  28.213  39.881  13.736
36756W        W 2016  16.730   8.199   3.115
36757W        W 2017  12.621  38.541   1.774
36758W        W 2018   1.479  36.071  12.032
36759W        W 2019   7.430  20.096  12.587
36760W        W 2020   7.893  23.485   2.027
36761W        W 2021  42.227  44.325  12.543
36762W        W 2022   8.060   1.227  13.086
36763W        W 2023  33.564  36.154   4.271
36764W        W 2024  15.852  42.846   4.682
36765W        W 2025  23.679  23.068  11.566
36766W        W 2026  39.781  11.870  11.487
36767W        W 2027  10.903   9.096   4.058
36768W        W 2028  41.837  25.074  10.326
36769W        W 2029   8.130   4.257   1.822
36770W        W 2030  27.944  23.119  13.540
36771W        W 2031  10.302  27.559   2.271
36772W        W 2032   1.499  42.610  10.639
36773W        W 2033  10.111  32.452   1.151
36774W        W 2034  15.771  15.183   1.760
36775W        W 2035   4.778  14.168  10.306
36776W        W 2036   7.266  29.364  10.699
36777W        W 2037  17.421   7.521   2.038
36778W        W 2038  32.357  34.430  14.896
36779W        W 2039  17.255   7.884   4.823
36780W        W 2040   1.826  36.871   2.059
36781W        W 2041  33.899  22.696   2.327
36782W        W 2042  34.991  25.899  13.683
36783W        W 2043   4.195  16.077  12.496
36784W        W 2044  41.146  23.898  11.593
36785W        W 2045  39.805  42.006  11.539
36786W        W 2046  39.069   9.898   2.090
36787W        W 2047  43.714  26.041  14.609
36788W        W 2048  27.640  23.643  13.159
36789W        W 2049  17.112  28.510  12.870
36790W        W 2050  10.339  26.247   2.282
36791W        W 2051  32.598   5.800  14.731
36792W        W 2052  25.671   1.954  11.542
36793W        W 2053  28.098  42.711   4.098
36794W        W 2054  17.683  44.751  14.336
36795W        W 2055  10.307  17.006  11.138
36796W        W 2056  32.393  36.257  10.959
36797W        W 2057  41.989  36.616   1.384
36798W        W 2058  30.218  37.729   3.857
36799W        W 2059  12.074  33.050  11.203
36800W        W 2060  37.530  31.250  11.155
36801W        W 2061  34.538   7.463   4.371
36802W        W 2062  37.447  40.287  13.504
36803W        W 2063  44.320  41.437   1.237
36804W        W 2064  33.963  44.899   3.130
36805W        W 2065   9.804  42.410   1.690
36806W        W 2066  16.399  10.899   3.447
36807W        W 2067  20.490  16.213   2.219
36808W        W 2068  31.816  30.370   5.490
36809W        W 2069  12.659  16.077  10.631
36810W        W 2070  27.407  17.217  13.775
36811W        W 2071  24.569  23.444   4.560
36812W        W 2072  30.489  39.433   0.743
36813W        W 2073  12.602  44.694   4.787
36814W        W 2074  44.191  11.023   4.191
36815W        W 2075  40.347  20.175   0.333
36816W        W 2076  22.723  30.869   4.417
36817W        W 2077   9.674  25.084   4.478
36818W        W 2078  24.689   6.919  14.838
36819W        W 2079  26.511   1.468  13.117
36820W        W 2080  32.971  43.916  12.111
36821W        W 2081  14.625  21.676   0.988
36822W        W 2082   4.219  15.210   2.034
36823W        W 2083  23.990  38.749  10.280
36824W        W 2084   3.790  10.879  12.906
36825W        W 2085   4.906  18.822   4.090
36826W        W 2086  41.923  37.137   1.630
36827W        W 2087  12.423  24.141   3.309
36828W        W 2088  42.323  37.998  13.707
36829W        W 2089  23.972  12.233   2.353
36830W        W 2090  37.306  39.324  13.239
36831W        W 2091  13.858  30.013   3.148
36832W        W 2092  13.850  17.277   1.359
36833W        W 2093  15.768  38.831   1.985
36834W        W 2094  27.601  27.222   3.250
36835W        W 2095  20.864  25.632  12.430
36836W        W 2096  18.766  30.453   1.383
36837W        W 2097  41.654  39.113   2.530
36838W        W 2098  19.009   4.456   0.317
36839W        W 2099   7.268  18.061   3.997
36840W        W 2100   3.200  24.394   4.101
36841W        W 2101   5.906  28.703  11.112
36842W        W 2102  21.725  25.313  14.375
36843W        W 2103  24.583   1.780  11.053
36844W        W 2104  12.674  32.154   0.516
36845W        W 2105  16.227   4.959   1.800
36846W        W 2106   6.445   3.179   3.601
36847W        W 2107  43.978  38.338   4.294
36848W        W 2108  35.631  24.645  14.941
36849W        W 2109  13.438  14.029   3.235
36850W        W 2110  42.241  35.398  11.265
36851W        W 2111  44.773  15.403   4.599
36852W        W 2112  38.347  36.073  13.437
36853W        W 2113  40.144   9.969   0.921
36854W        W 2114  11.730  18.295  14.959
36855W        W 2115  20.189  33.553  13.583
36856W        W 2116  18.208  19.624  12.409
36857W        W 2117  42.213  26.677   0.444
36858W        W 2118  42.298  16.139   2.438
36859W        W 2119   5.147  24.668   3.105
36860W        W 2120   8.133  21.518   3.153
36861W        W 2121  21.972  29.740  13.455
36862W        W 2122  36.976  43.822  10.960
36863W        W 2123   8.936  17.289   0.433
36864W        W 2124  12.851  34.582  10.523
36865W        W 2125  44.502  25.668   2.572
36866W        W 2126  28.953  23.536  13.382
36867W        W 2127   7.013  28.272   1.038
36868W        W 2128  10.264  38.573  12.213
36869W        W 2129  27.699  18.701   1.226
36870W        W 2130   9.837  12.808  14.866
36871W        W 2131   4.150  40.597   4.167
36872W        W 2132  12.211  23.149  13.908
36873W        W 2133   0.461  15.539  12.111
36874W        W 2134   2.319  40.624  10.842
36875W        W 2135  12.565  35.890   3.111
36876W        W 2136  34.724   5.701   3.275
36877W        W 2137  25.262  35.441   4.618
36878W        W 2138  28.647  22.193   1.689
36879W        W 2139  22.983  43.579   2.756
36880W        W 2140   1.963  44.756  14.383
36881W        W 2141  31.452  27.911   1.889
36882W        W 2142  27.915  15.005  13.521
36883W        W 2143  29.886  12.851  11.542
36884W        W 2144  37.314  32.871   3.556
36885W        W 2145  23.467  27.788  12.362
36886W        W 2146   4.955  12.204   4.796
36887W        W 2147  21.847  33.560  12.481
36888W        W 2148   6.186  13.826   0.774
36889W        W 2149  42.755   3.875  14.294
36890W        W 2150   9.907  32.243  10.197
36891W        W 2151  11.346   3.706  12.634
36892W        W 2152  40.551  32.348   0.873
36893W        W 2153  24.938   2.191  12.627
36894W        W 2154   8.408  32.057   2.815
36895W        W 2155  15.742   6.341  12.628
36896W        W 2156   7.927  15.599  10.957
36897W        W 2157   5.996  28.665   3.639
36898W        W 2158  15.301  25.034  13.508
36899W        W 2159  26.376   8.144  13.329
36900W        W 2160   0.439  21.090  14.311
36901W        W 2161  16.660  34.451  12.104
36902W        W 2162  38.226   3.603   0.319
36903W        W 2163  42.026  10.819   0.651
36904W        W 2164   1.450  16.014  10.661
36905W        W 2165  43.342  26.424   2.314
36906W        W 2166  40.348  40.975  13.442
36907W        W 2167  12.796  19.713   2.288
36908W        W 2168  16.304  42.908   4.412
36909W        W 2169  29.413  28.961  12.167
36910W        W 2170  19.024  13.248   2.158
36911W        W 2171   0.272  14.767   4.082
36912W        W 2172   1.431  14.693  12.362
36913W        W 2173  25.588  16.545   3.733
36914W        W 2174  11.120  35.087  13.864
36915W        W 2175  26.090  10.859   4.482
36916W        W 2176  23.535  25.243  14.462
36917W        W 2177   5.962   0.942   0.900
36918W        W 2178  30.950  36.023   1.404
36919W        W 2179  23.715   8.410   0.448
36920W        W 2180  26.845  38.025  11.164
36921W        W 2181  42.892   0.258  14.031
36922W        W 2182  28.494  42.472  14.557
36923W        W 2183  27.465  41.259  14.242
36924W        W 2184  26.149  25.662  12.129
36925W        W 2185  44.256  44.517  13.504
36926W        W 2186  17.710  24.746  12.091
36927W        W 2187  19.778  21.134  14.331
36928W        W 2188   1.001   2.831  12.550
36929W        W 2189   3.336  39.213  10.600
36930W        W 2190  12.276  15.038   3.223
36931W        W 2191  16.419  13.296  14.830
36932W        W 2192   0.316  17.209  10.960
36933W        W 2193  36.159  19.687   4.339
36934W        W 2194  35.375  24.547  14.511
36935W        W 2195  42.283  31.473   4.679
36936W        W 2196  38.258  26.946  13.329
36937W        W 2197  17.087   5.542   1.809
36938W        W 2198   9.312  30.359   4.072
36939W        W 2199   6.775  10.153   0.291
36940W        W 2200  30.686   5.303   1.466
36941W        W 2201   8.371  40.793  12.227
36942W        W 2202  12.347   0.209  14.918
36943W        W 2203  21.461  14.764   5.026
36944W        W 2204  37.305  31.108   1.816
36945W        W 2205  26.020  31.711   1.144
36946W        W 2206  12.361   3.025  10.772
36947W        W 2207  33.355  21.551   3.068
36948W        W 2208   1.698   2.106  12.532
36949W        W 2209  18.568   2.853   1.947
36950W        W 2210   9.997  32.564  11.865
36951W        W 2211  14.705  26.604   2.680
36952W        W 2212  19.726  32.972   4.372
36953W        W 2213  29.081  34.055   0.328
36954W        W 2214  16.542  25.018  12.976
36955W        W 2215  20.012  13.132  11.471
36956W        W 2216  17.667  36.369   2.381
36957W        W 2217   0.093  15.599   2.771
36958W        W 2218  12.767  20.759  13.694
36959W        W 2219  31.157  11.509   2.147
36960W        W 2220   0.541  17.104   2.896
36961W        W 2221   0.368  40.297  12.404
36962W        W 2222   0.082  10.071   2.403
36963W        W 2223  24.218  41.953  12.633
36964W        W 2224   5.253  21.155  13.419
36965W        W 2225  39.284  24.816  12.570
36966W        W 2226  43.776  23.980  13.967
36967W        W 2227  31.948  12.820   3.139
36968W        W 2228   3.366  10.575   5.056
36969W        W 2229  17.045  40.866   1.839
36970W        W 2230  32.808   6.397  11.061
36971W        W 2231  34.784  44.951  11.726
36972W        W 2232   0.157  37.501   3.109
36973W        W 2233  17.587  10.935   3.787
36974W        W 2234   7.835  38.193  13.103
36975W        W 2235  38.358   7.474   0.288
36976W        W 2236   3.676   8.236  10.543
36977W        W 2237  29.404   8.701  13.290
36978W        W 2238   3.037  16.266   2.863
36979W        W 2239  38.101  44.225  12.135
36980W        W 2240  16.872  17.789  10.607
36981W        W 2241  31.604  41.526   1.684
36982W        W 2242  34.442  26.216  12.898
36983W        W 2243  39.541  26.163   3.716
36984W        W 2244  34.337  24.209  14.860
36985W        W 2245  40.275  25.155   1.332
36986W        W 2246  23.503  36.112   0.857
36987W        W 2247  38.401  34.847  13.747
36988W        W 2248  31.614  44.571  14.245
36989W        W 2249  35.965  44.994  14.758
36990W        W 2250  21.413   6.142   1.774
36991W        W 2251   6.594  40.707   1.954
36992W        W 2252  17.150   8.704  14.415
36993W        W 2253  17.267   5.440  13.053
36994W        W 2254  41.858  39.014  11.056
36995W        W 2255   3.501  35.534  12.529
36996W        W 2256   3.542  34.817   4.461
36997W        W 2257  11.924  15.688   4.821
36998W        W 2258  34.891  19.659   3.119
36999W        W 2259  17.393  21.464  11.687
37000W        W 2260  18.000  31.823  10.250
37001W        W 2261  40.762  17.775  12.565
37002W        W 2262   8.712  42.399   2.103
37003W        W 2263  24.935  30.585  11.389
37004W        W 2264  41.308  10.748  10.992
37005W        W 2265  22.175  39.459   3.185
37006W        W 2266  33.531  43.956   4.534
37007W        W 2267   7.426  30.967   0.318
37008W        W 2268  11.232  28.666   3.212
37009W        W 2269  24.458  32.289  11.473
37010W        W 2270   0.088  37.960   1.782
37011W        W 2271  28.687  20.728   3.653
37012W        W 2272  22.448  35.037  10.919
37013W        W 2273  30.371  33.597   2.815
37014W        W 2274  34.602  29.101  12.902
37015W        W 2275  30.937  19.779  14.864
37016W        W 2276  43.046   4.652   1.339
37017W        W 2277  43.741   8.628  13.500
37018W        W 2278  33.767  34.834  10.401
37019W        W 2279  32.992   1.872  14.993
37020W        W 2280  21.339  32.364   0.318
37021W        W 2281  14.584  32.354  11.145
37022W        W 2282  20.272  38.696   0.741
37023W        W 2283  17.178  40.531  14.053
37024W        W 2284   7.266  22.279  11.594
37025W        W 2285  41.471   7.347   3.462
37026W        W 2286  12.466   9.393  11.475
37027W        W 2287  35.994  38.413   1.210
37028W        W 2288   4.777  33.845   3.330
37029W        W 2289  42.727  22.167  12.226
37030W        W 2290   3.706  29.246   0.533
37031W        W 2291  28.526  33.429  11.722
37032W        W 2292  42.024  15.440  13.031
37033W        W 2293  30.468  36.923  12.447
37034W        W 2294  28.529   4.499   2.739
37035W        W 2295  37.306  28.315   3.288
37036W        W 2296   9.710  40.468  14.040
37037W        W 2297  22.804  22.327  13.346
37038W        W 2298   3.660  28.168   1.284
37039W        W 2299   9.692  10.763   1.992
37040W        W 2300  11.837  26.122  10.695
37041W        W 2301   4.155   0.628  10.577
37042W        W 2302  21.537  12.693   4.558
37043W        W 2303   9.720   2.339   3.624
37044W        W 2304  17.064  34.139   0.358
37045W        W 2305  30.000   6.772   2.907
37046W        W 2306  14.198  39.843  11.139
37047W        W 2307  28.873  26.064  14.408
37048W        W 2308  20.765  19.122  13.274
37049W        W 2309  13.075  35.992  10.649
37050W        W 2310  30.139  36.105  13.358
37051W        W 2311  36.594   6.305   4.623
37052W        W 2312  41.001  28.966   1.432
37053W        W 2313  26.544  27.656  14.788
37054W        W 2314  16.083  25.405   0.259
37055W        W 2315  39.251  37.889  11.383
37056W        W 2316  21.947   7.830  14.469
37057W        W 2317  38.916  36.881  14.310
37058W        W 2318  29.567   9.695   2.227
37059W        W 2319  42.347  33.097  14.641
37060W        W 2320  30.536   6.429   2.196
37061W        W 2321   2.033   8.260  11.959
37062W        W 2322  31.787  15.345  12.517
37063W        W 2323   9.644  35.560   2.139
37064W        W 2324  20.684  37.057   1.522
37065W        W 2325  40.074   6.824  13.180
37066W        W 2326  36.389   6.484  14.053
37067W        W 2327  16.791   2.800  14.785
37068W        W 2328  35.589   3.059   2.676
37069W        W 2329   7.896   7.624   1.023
37070W        W 2330  29.300  17.868   1.418
37071W        W 2331   8.481  36.508   0.008
37072W        W 2332   1.330  44.804  12.047
37073W        W 2333  15.058  17.805   2.377
37074W        W 2334  12.063  32.479   4.551
37075W        W 2335  16.480  12.090   0.332
37076W        W 2336  12.257  27.683   0.299
37077W        W 2337  16.952  41.118   3.680
37078W        W 2338  14.071  40.417   1.462
37079W        W 2339  26.221  30.036   2.897
37080W        W 2340  37.750  28.480   1.727
37081W        W 2341  27.629  27.390   1.994
37082W        W 2342  36.249  41.092   5.012
37083W        W 2343  12.138  40.860  14.474
37084W        W 2344  37.523  12.149   1.452
37085W        W 2345  24.133  35.917   1.298
37086W        W 2346  36.682   2.038  13.483
37087W        W 2347  26.833  17.717   5.082
37088W        W 2348   8.509   7.269   4.940
37089W        W 2349   6.596   7.617   1.730
37090W        W 2350  25.130  18.098   3.287
37091W        W 2351  21.138  12.038  14.864
37092W        W 2352  11.676  29.693  11.481
37093W        W 2353  39.059  34.311   0.409
37094W        W 2354   5.185  26.998  12.417
37095W        W 2355   7.954   7.156   0.067
37096W        W 2356  43.023  34.937  11.871
37097W        W 2357  42.891  20.547  12.152
37098W        W 2358  27.448  12.114  12.920
37099W        W 2359  28.488   1.789   4.258
37100W        W 2360  22.707  15.835  13.458
37101W        W 2361  27.741  20.153   4.048
37102W        W 2362  39.916  22.267  13.297
37103W        W 2363   0.787  43.050   5.302
37104W        W 2364  29.517  18.036   0.930
37105W        W 2365  11.682  38.482  10.967
37106W        W 2366  44.534  18.745   5.150
37107W        W 2367   5.240  17.116   3.345
37108W        W 2368  14.775  31.857   2.920
37109W        W 2369  15.819  27.097   1.301
37110W        W 2370  29.638  14.363  12.841
37111W        W 2371  25.972  36.115   4.209
37112W        W 2372  28.770   0.688   2.834
37113W        W 2373  43.928  44.952  11.440
37114W        W 2374  28.768   0.808   1.483
37115W        W 2375   0.679  24.742  13.893
37116W        W 2376  20.682  26.708   0.817
37117W        W 2377  34.626  32.883  12.933
37118W        W 2378  11.299   2.700   3.647
37119W        W 2379  43.815  42.784  13.871
37120W        W 2380  35.029  33.652  10.301
37121W        W 2381  40.846   2.899   5.488
37122W        W 2382  31.420  30.199   4.618
37123W        W 2383  24.031  44.923  13.495
37124W        W 2384  28.202   6.948  11.396
37125W        W 2385  43.774  32.723   4.600
37126W        W 2386  27.996   5.465   3.868
37127W        W 2387  44.858   7.800   0.205
37128W        W 2388  25.576  39.354  11.602
37129W        W 2389  30.450  32.586   4.282
37130W        W 2390   0.767   1.379   0.695
37131W        W 2391  22.651   7.383  14.349
37132W        W 2392  30.202  12.291   0.360
37133W        W 2393  16.254  18.157  11.523
37134W        W 2394  24.561   7.330  11.123
37135W        W 2395   1.374  43.608   1.321
37136W        W 2396  28.638   1.190   2.767
37137W        W 2397  41.461  38.104  14.717
37138W        W 2398  17.631  17.075  12.532
37139W        W 2399  17.851  44.947   1.439
37140W        W 2400  13.171   4.892   1.344
37141W        W 2401  24.004  26.050   3.822
37142W        W 2402   9.118  29.424   4.336
37143W        W 2403  29.843   8.596  11.251
37144W        W 2404  22.638  17.979   9.777
37145W        W 2405  27.899  12.933   3.710
37146W        W 2406  19.031  32.162   4.836
37147W        W 2407  18.273  44.779  14.467
37148W        W 2408  20.537  40.884  13.287
37149W        W 2409  41.648  39.086  12.942
37150W        W 2410   2.434  11.303   5.501
37151W        W 2411  33.162  30.906   3.547
37152W        W 2412  26.080  29.812   0.424
37153W        W 2413  27.156  18.711  12.924
37154W        W 2414  18.544  30.594  11.082
37155W        W 2415   7.783   9.159  11.645
37156W        W 2416  20.924  29.972   4.152
37157W        W 2417  27.458  37.596  13.458
37158W        W 2418   2.802  11.348   2.587
37159W        W 2419  23.704   6.797   4.118
37160W        W 2420  14.885  28.371   0.901
37161W        W 2421   3.033  35.047   1.004
37162W        W 2422  25.422  13.802  13.451
37163W        W 2423  31.804  15.150   2.628
37164W        W 2424  34.998  40.606  13.084
37165W        W 2425  31.762  28.479  10.650
37166W        W 2426  42.505  18.861  13.555
37167W        W 2427   9.157   7.416   2.289
37168W        W 2428  21.090  10.672   2.725
37169W        W 2429  32.983  38.021  11.882
37170W        W 2430  24.229   3.422   0.327
37171W        W 2431  42.534  30.527  12.881
37172W        W 2432  31.362  41.039   2.730
37173W        W 2433   0.956  25.169  12.131
37174W        W 2434  19.066  29.972  11.506
37175W        W 2435  13.158  26.705  11.527
37176W        W 2436  36.613   8.887  14.474
37177W        W 2437  38.946  16.070   0.938
37178W        W 2438  28.641  38.671  11.943
37179W        W 2439  31.693  16.791  10.839
37180W        W 2440  32.574  36.602   2.634
37181W        W 2441  35.525  36.061  13.075
37182W        W 2442  20.673  22.110  14.628
37183W        W 2443  37.914  21.782   3.282
37184W        W 2444  40.343  31.961   2.618
37185W        W 2445   6.731  26.393  11.113
37186W        W 2446   9.485  11.357   3.477
37187W        W 2447  25.064  25.663   2.787
37188W        W 2448  19.138  17.019   0.443
37189W        W 2449  11.989  31.100  11.110
37190W        W 2450  32.030  40.440  13.882
37191W        W 2451  10.143  33.114  13.031
37192W        W 2452  26.738  44.422   3.546
37193W        W 2453  15.056  29.110  11.875
37194W        W 2454  30.049  14.075   3.666
37195W        W 2455  26.551   8.385   4.731
37196W        W 2456  29.152   3.734  12.777
37197W        W 2457  44.591  33.035  11.026
37198W        W 2458   3.705  10.238  13.499
37199W        W 2459   8.280  21.546   0.335
37200W        W 2460  30.218   1.341  10.977
37201W        W 2461  25.108   0.348  12.137
37202W        W 2462   4.337  15.250   4.078
37203W        W 2463  20.717   5.641  13.472
37204W        W 2464  21.711   6.364   4.438
37205W        W 2465   5.268  25.155   1.291
37206W        W 2466  36.891  26.715  12.920
37207W        W 2467  20.804   7.214  10.866
37208W        W 2468   2.929  15.060   0.328
37209W        W 2469  22.777  34.108   3.164
37210W        W 2470  33.362  41.428  13.109
37211W        W 2471  15.360  33.344  12.497
37212W        W 2472  27.637  41.109   3.196
37213W        W 2473  22.089  15.223   3.705
37214W        W 2474  40.188  35.827   0.273
37215W        W 2475  38.884   9.475   2.884
37216W        W 2476  34.944  40.436   2.858
37217W        W 2477  30.524  12.705   1.621
37218W        W 2478  30.501  22.466   0.862
37219W        W 2479  27.172  43.018   1.427
37220W        W 2480  22.522  42.935   1.123
37221W        W 2481  25.626   1.341  11.973
37222W        W 2482   4.891  20.100  10.280
37223W        W 2483  44.402  24.970   2.248
37224W        W 2484   4.162   2.971  10.932
37225W        W 2485  26.927  29.270   0.203
37226W        W 2486   0.483  37.399  12.457
37227W        W 2487  42.836  26.663   0.768
37228W        W 2488  42.692  36.517  13.077
37229W        W 2489  32.664  11.707  12.513
37230W        W 2490  12.446  39.818   1.305
37231W        W 2491  25.538  10.376   4.082
37232W        W 2492   0.681  38.016   0.793
37233W        W 2493  33.326  32.850  14.397
37234W        W 2494  20.817  41.799   4.930
37235W        W 2495  36.547   1.177  14.938
37236W        W 2496   7.120  11.665  11.859
37237W        W 2497  35.545  18.634  13.450
37238W        W 2498  19.020  27.335   3.145
37239W        W 2499  35.479  43.343  14.887
37240W        W 2500   3.971   5.598   1.334
37241W        W 2501  35.182  30.118   1.324
37242W        W 2502  19.822   6.988  10.290
37243W        W 2503   9.614   9.844   1.529
37244W        W 2504  30.103  15.339  11.953
37245W        W 2505  43.322   6.277  14.952
37246W        W 2506  44.547  44.337  10.020
37247W        W 2507  36.027  37.048   4.510
37248W        W 2508   4.354   7.262   4.686
37249W        W 2509  33.524  19.539  12.373
37250W        W 2510  34.076  33.029  12.009
37251W        W 2511  38.825  37.036   0.721
37252W        W 2512  40.372  22.067   0.767
37253W        W 2513  32.951   6.618  14.429
37254W        W 2514   1.718  14.572  11.240
37255W        W 2515  41.871  38.760   2.874
37256W        W 2516   9.282  41.644  13.566
37257W        W 2517  19.676  44.910  13.884
37258W        W 2518  44.409  12.814   0.920
37259W        W 2519  39.607   9.248   0.405
37260W        W 2520   1.062  28.582  10.991
37261W        W 2521  38.790  34.829  10.651
37262W        W 2522  44.391  32.691   3.590
37263W        W 2523  27.984  18.935   1.587
37264W        W 2524  42.778  19.387   1.701
37265W        W 2525  28.478  24.622  10.471
37266W        W 2526  34.576  42.086   3.215
37267W        W 2527  32.898  11.241  13.954
37268W        W 2528  18.989  41.880   2.397
37269W        W 2529  41.638  23.648  12.412
37270W        W 2530  34.267  42.826  12.029
37271W        W 2531  44.485  30.082   4.843
37272W        W 2532   0.907  31.781  14.891
37273W        W 2533  33.333  43.860   4.074
37274W        W 2534   5.064  26.151  12.440
37275W        W 2535  23.977  36.347   2.696
37276W        W 2536   5.567  15.775  14.307
37277W        W 2537  30.465  28.720   3.355
37278W        W 2538  19.183  34.883   3.861
37279W        W 2539  19.770  18.688   0.460
37280W        W 2540   3.603   6.868   4.607
37281W        W 2541  43.278  44.778  12.561
37282W        W 2542  40.914  20.625   4.551
37283W        W 2543  30.001  37.421  14.363
37284W        W 2544  31.863   9.122  12.942
37285W        W 2545  26.942  17.187   2.793
37286W        W 2546   0.986  31.798  12.612
37287W        W 2547  43.252  18.743   3.820
37288W        W 2548  22.969  39.439   3.637
37289W        W 2549  14.864  44.338  13.172
37290W        W 2550  13.259  32.928   3.673
37291W        W 2551  35.561  35.172  10.544
37292W        W 2552  21.234  21.954   4.420
37293W        W 2553  36.718  11.961   3.597
37294W        W 2554   3.359  20.544   2.086
37295W        W 2555  11.113   2.335  13.186
37296W        W 2556  13.015  42.431  13.059
37297W        W 2557  10.245  19.981  13.936
37298W        W 2558  24.487  28.849  11.475
37299W        W 2559  13.899  44.024  14.636
37300W        W 2560  22.627   0.982   2.820
37301W        W 2561  15.360  22.826  10.783
37302W        W 2562  30.039  42.567   0.270
37303W        W 2563   3.431  16.583   0.837
37304W        W 2564  42.469  40.136   0.300
37305W        W 2565   1.029  32.739   4.624
37306W        W 2566   6.006  36.478  12.676
37307W        W 2567   9.917   9.899  12.571
37308W        W 2568   5.309  27.278  12.005
37309W        W 2569  13.378  28.995   0.817
37310W        W 2570  17.068  22.296   0.913
37311W        W 2571  24.115  42.934   3.401
37312W        W 2572  40.728  19.440   1.439
37313W        W 2573  10.971  14.861   2.833
37314W        W 2574  42.430  17.770  13.936
37315W        W 2575  30.345  17.212  11.048
37316W        W 2576  19.041  34.998  13.559
37317W        W 2577  10.405  19.487   4.068
37318W        W 2578  32.077  25.186   1.829
37319W        W 2579   8.595  34.300  12.920
37320W        W 2580  17.061  16.332  14.039
37321W        W 2581  43.732  35.549   3.713
37322W        W 2582  32.540  13.600   3.238
37323W        W 2583  12.868  42.883  12.866
37324W        W 2584  15.791   9.923  10.691
37325W        W 2585  24.659  38.998   3.716
37326W        W 2586  27.897  31.989   1.614
37327W        W 2587  18.953  38.006  13.550
37328W        W 2588   9.395   7.314   3.756
37329W        W 2589  10.852  24.899  11.957
37330W        W 2590  11.843  26.507  10.305
37331W        W 2591  33.364  37.009   4.228
37332W        W 2592   8.168   6.144   3.386
37333W        W 2593  36.355  35.400   3.073
37334W        W 2594  15.741  11.101   2.914
37335W        W 2595   0.916  43.839   1.424
37336W        W 2596  37.717  38.017   2.103
37337W        W 2597  26.066  18.458   2.660
37338W        W 2598   3.049  10.369  10.095
37339W        W 2599  10.665  35.018   0.484
37340W        W 2600  15.553  41.980   1.880
37341W        W 2601  37.242  18.351   4.925
37342W        W 2602   0.977   7.710  13.428
37343W        W 2603  23.659  41.493  12.316
37344W        W 2604  43.370  14.150   1.516
37345W        W 2605  14.349   5.823   1.069
37346W        W 2606  39.335  16.706   4.432
37347W        W 2607  24.414  36.885   2.628
37348W        W 2608   4.177  24.599  11.983
37349W        W 2609  16.603  28.915   1.419
37350W        W 2610   0.778  32.586  12.997
37351W        W 2611   5.246  35.087  12.986
37352W        W 2612  33.116  43.963   3.599
37353W        W 2613  38.423  11.760  13.978
37354W        W 2614  30.887  17.164   4.007
37355W        W 2615  13.653   1.711  12.907
37356W        W 2616   8.746  18.788   2.685
37357W        W 2617  12.793  35.863  13.407
37358W        W 2618  18.015   3.139  11.419
37359W        W 2619  24.348   6.033   3.100
37360W        W 2620  17.737   9.994  14.306
37361W        W 2621   4.460   4.164  13.569
37362W        W 2622   2.410  10.805  11.604
37363W        W 2623  40.310  14.869  14.081
37364W        W 2624   9.095  24.521   5.408
37365W        W 2625  29.844  27.927  13.964
37366W        W 2626  18.124  23.957   4.233
37367W        W 2627  24.998  37.346  11.945
37368W        W 2628  40.595   7.540   1.798
37369W        W 2629  31.010  28.566   0.959
37370W        W 2630  29.668  37.962   1.234
37371W        W 2631  41.422  32.590  13.395
37372W        W 2632  10.668  44.567  14.766
37373W        W 2633   4.967  27.915   1.637
37374W        W 2634  35.638   2.942   1.587
37375W        W 2635  20.544  16.134  10.762
37376W        W 2636  28.175  13.560  14.956
37377W        W 2637  12.700  20.456  12.837
37378W        W 2638  13.632  16.389  13.804
37379W        W 2639   3.803   0.996   2.305
37380W        W 2640  34.693  22.701   4.146
37381W        W 2641  22.520   1.291   4.953
37382W        W 2642   6.530  35.403  11.421
37383W        W 2643   7.342  39.042  12.924
37384W        W 2644  44.184  21.181  10.349
37385W        W 2645  28.548  19.515   3.376
37386W        W 2646  41.848  11.597  12.275
37387W        W 2647  25.722   1.190   0.740
37388W        W 2648  44.335  16.059   4.234
37389W        W 2649  35.211   3.876   0.854
37390W        W 2650  36.231  22.304  11.173
37391W        W 2651   1.174  30.892  14.963
37392W        W 2652  23.525  38.497  10.256
37393W        W 2653  22.243   1.070   4.120
37394W        W 2654  27.741   2.829   3.603
37395W        W 2655  23.749  30.373  14.787
37396W        W 2656  13.864  34.767   3.828
37397W        W 2657  18.117  36.693  14.947
37398W        W 2658  33.650  15.412  10.151
37399W        W 2659  18.175  24.397  14.881
37400W        W 2660  32.163  19.075   0.794
37401W        W 2661  19.359   1.822   4.603
37402W        W 2662  30.762  39.471  10.781
37403W        W 2663  38.174   0.248   1.870
37404W        W 2664  42.523  16.108  12.592
37405W        W 2665  10.047   5.982   1.677
37406W        W 2666  25.817  16.685  11.100
37407W        W 2667  23.978  24.443  11.364
37408W        W 2668  35.667   3.227   0.538
37409W        W 2669  22.781  28.096   4.643
37410W        W 2670   8.356   6.902  11.749
37411W        W 2671  31.525  34.014   4.631
37412W        W 2672  37.419  17.529   0.200
37413W        W 2673  44.505  20.039   4.834
37414W        W 2674  44.844  35.380  12.965
37415W        W 2675  39.615  44.664  13.062
37416W        W 2676   9.391  35.258   1.807
37417W        W 2677  25.639  34.444  12.067
37418W        W 2678  18.082  27.680   3.883
37419W        W 2679  33.426   1.237   0.771
37420W        W 2680  28.130  27.150  13.856
37421W        W 2681  19.165   9.952  14.558
37422W        W 2682  33.456  30.613  11.933
37423W        W 2683  35.218  36.000  11.073
37424W        W 2684   5.371  25.356  10.727
37425W        W 2685  23.117  18.000  13.934
37426W        W 2686  37.304  18.792  13.359
37427W        W 2687  11.215  37.478   3.655
37428W        W 2688  19.810  42.498  13.363
37429W        W 2689   2.447   5.659  10.467
37430W        W 2690   7.469  33.966   2.777
37431W        W 2691   6.423  36.151  11.276
37432W        W 2692  41.252  29.774   2.814
37433W        W 2693  19.537  27.979   0.330
37434W        W 2694  29.288  28.113  12.934
37435W        W 2695  10.122  19.811   2.194
37436W        W 2696  14.606  14.409   4.215
37437W        W 2697  10.329  36.671  11.492
37438W        W 2698  31.164  36.317  14.243
37439W        W 2699  22.180   8.121  14.855
37440W        W 2700  26.013  22.101  11.592
37441W        W 2701  35.540   9.715  14.430
37442W        W 2702  34.984  30.092  11.692
37443W        W 2703  29.550  37.027  14.251
37444W        W 2704   9.253   7.643   0.382
37445W        W 2705   4.040  10.209  10.626
37446W        W 2706  41.768   7.461   0.710
37447W        W 2707  26.707  43.120  10.799
37448W        W 2708  44.702  35.611  14.359
37449W        W 2709  36.889   9.707   4.613
37450W        W 2710  21.760  37.721   3.352
37451W        W 2711  40.079  18.287   2.222
37452W        W 2712  11.168  31.630   1.403
37453W        W 2713  40.772  26.099  13.345
37454W        W 2714  24.111   8.119   0.241
37455W        W 2715  43.530   0.855  11.752
37456W        W 2716  29.167  24.386   2.246
37457W        W 2717  11.338  14.697   4.076
37458W        W 2718  18.981  10.251   4.055
37459W        W 2719  10.395  18.262  10.615
37460W        W 2720  20.580  24.165  14.929
37461W        W 2721  11.178   3.331   2.833
37462W        W 2722  12.313  27.560   4.316
37463W        W 2723  19.644   9.448  11.998
37464W        W 2724  25.991  14.639  11.563
37465W        W 2725   3.639  19.701   4.302
37466W        W 2726  24.628   2.246   0.780
37467W        W 2727  12.129  13.805  13.584
37468W        W 2728  17.499  41.060  13.007
37469W        W 2729  42.914  38.046  13.143
37470W        W 2730  22.471  31.250  11.306
37471W        W 2731  34.458  43.097  14.741
37472W        W 2732  39.411   4.198  14.977
37473W        W 2733  13.939  37.192  12.625
37474W        W 2734   5.826  17.329   4.531
37475W        W 2735  40.380  31.629   4.366
37476W        W 2736  25.617  10.909   2.272
37477W        W 2737   9.836  27.665  11.948
37478W        W 2738  29.917  42.358  14.812
37479W        W 2739  13.192   4.320  12.457
37480W        W 2740  40.375  25.859  12.049
37481W        W 2741  39.089   1.262   0.825
37482W        W 2742   0.976   7.280  14.066
37483W        W 2743   4.171  25.790  11.566
37484W        W 2744  17.628   2.864   0.487
37485W        W 2745   9.875   0.784   1.697
37486W        W 2746  17.334   5.883  14.857
37487W        W 2747   8.094  15.614  12.783
37488W        W 2748  34.644  28.175   0.417
37489W        W 2749  38.270   8.392  12.544
37490W        W 2750   1.918  21.308   1.866
37491W        W 2751  14.502  25.336   1.702
37492W        W 2752   0.976   1.342   1.150
37493W        W 2753  28.801   5.416   0.740
37494W        W 2754  23.527   6.478  11.399
37495W        W 2755  37.585   8.085  11.154
37496W        W 2756   3.254  41.398   1.245
37497W        W 2757  15.124   7.975  13.156
37498W        W 2758  19.066   5.337   0.588
37499W        W 2759  44.148  23.272   1.758
37500W        W 2760   9.404   7.091  12.514
37501W        W 2761  14.940   1.274  10.613
37502W        W 2762  28.683   8.657  14.852
37503W        W 2763  34.044  16.814  12.531
37504W        W 2764  17.860  22.430   3.150
37505W        W 2765  12.124  27.032   9.795
37506W        W 2766   4.906  12.591   2.853
37507W        W 2767  28.893   5.833  12.911
37508W        W 2768  23.766   7.278  12.582
37509W        W 2769  24.176   8.591   9.724
37510W        W 2770   6.950  27.838   4.543
37511W        W 2771  17.819  17.874   4.197
37512W        W 2772  16.804   8.643   3.337
37513W        W 2773  14.711  12.229   2.653
37514W        W 2774  17.970  41.030   4.041
37515W        W 2775  19.811   7.332   3.671
37516W        W 2776  26.522  42.038   1.845
37517W        W 2777  12.969  31.048   4.272
37518W        W 2778  37.652   8.839   0.183
37519W        W 2779  26.191  24.989  10.552
37520W        W 2780   8.831  14.624  13.377
37521W        W 2781  42.867  24.504   1.285
37522W        W 2782  33.431   6.167   5.050
37523W        W 2783  18.939  31.923  10.661
37524W        W 2784   7.989   6.007  11.549
37525W        W 2785  42.965  44.952  13.593
37526W        W 2786  12.718  34.805  12.880
37527W        W 2787  40.196  14.268  11.957
37528W        W 2788   2.727  14.755  14.892
37529W        W 2789   2.304  43.420   0.168
37530W        W 2790   4.732   5.277   1.129
37531W        W 2791  23.003   6.592   3.947
37532W        W 2792  17.241  28.507  13.406
37533W        W 2793  36.612  31.964  12.046
37534W        W 2794   6.525  30.504   4.331
37535W        W 2795   8.357  15.359   4.116
37536W        W 2796   1.934  11.599  14.055
37537W        W 2797  10.275  35.471   3.622
37538W        W 2798  33.651  19.324   2.522
37539W        W 2799   1.174   2.402  10.669
37540W        W 2800   4.479   0.316   0.142
37541W        W 2801  23.483  43.811   3.743
37542W        W 2802  41.388   4.672  14.821
37543W        W 2803  26.216  20.368   0.710
37544W        W 2804   6.225  22.163   3.895
37545W        W 2805  32.592   1.773   4.128
37546W        W 2806  18.515   3.097   0.327
37547W        W 2807  31.539  26.491   0.929
37548W        W 2808  37.363   8.758  12.569
37549W        W 2809   9.159  26.204   1.075
37550W        W 2810  33.996   8.734  14.341
37551W        W 2811  16.753  30.841  12.855
37552W        W 2812  12.270  20.658  13.917
37553W        W 2813  16.057   9.184   2.512
37554W        W 2814   7.337  42.929   0.737
37555W        W 2815  32.250  14.288  14.340
37556W        W 2816  11.948  17.822   3.661
37557W        W 2817  43.336  32.496   2.125
37558W        W 2818  39.445  37.060  10.746
37559W        W 2819  13.084   6.943   2.877
37560W        W 2820  20.068  11.096   3.618
37561W        W 2821  44.802  19.741   0.367
37562W        W 2822  38.995   5.156  11.816
37563W        W 2823  22.578  18.549   1.323
37564W        W 2824  19.561  13.838   1.411
37565W        W 2825  43.786  27.341   5.505
37566W        W 2826  14.872  11.708  13.174
37567W        W 2827  31.042  35.806  12.047
37568W        W 2828  31.276   4.565   1.356
37569W        W 2829  15.297   3.692   0.138
37570W        W 2830  22.201  15.114  13.356
37571W        W 2831  14.068  29.989  11.628
37572W        W 2832  30.814   2.834   4.249
37573W        W 2833  39.085   4.416   2.895
37574W        W 2834  44.592  23.533  12.775
37575W        W 2835  37.129  22.920   2.246
37576W        W 2836  11.690  14.121  12.830
37577W        W 2837  37.450  28.009   1.671
37578W        W 2838   6.485   9.681   2.317
37579W        W 2839  26.064  14.511   2.748
37580W        W 2840  36.671  39.961  12.689
37581W        W 2841  14.838  43.494   1.707
37582W        W 2842  19.162  27.468   3.622
37583W        W 2843  25.985  36.031  12.829
37584W        W 2844  10.139  40.300   0.009
37585W        W 2845  22.587  14.044   0.258
37586W        W 2846  33.564  17.062   3.127
37587W        W 2847  44.118  14.072   0.525
37588W        W 2848   4.460   9.373   1.273
37589W        W 2849   7.776   7.944  14.555
37590W        W 2850   0.452  15.124  12.449
37591W        W 2851  37.107  37.904   1.242
37592W        W 2852  22.724   2.020   3.694
37593W        W 2853  24.470  33.589   2.065
37594W        W 2854  33.438  13.215  13.095
37595W        W 2855  21.463  12.915  13.900
37596W        W 2856   5.348   2.222  14.256
37597W        W 2857  15.765  40.934  12.470
37598W        W 2858  33.088  14.046   0.428
37599W        W 2859  22.483  29.970  12.972
37600W        W 2860  16.107  30.595   1.915
37601W        W 2861  44.909   2.775  12.052
37602W        W 2862  42.590   0.875  11.182
37603W        W 2863  42.841  37.427   1.015
37604W        W 2864  44.903   8.668  10.607
37605W        W 2865  25.574  33.173   2.377
37606W        W 2866  44.300   6.628  12.027
37607W        W 2867  11.663  13.658   0.403
37608W        W 2868  33.610  17.293  11.873
37609W        W 2869  42.241  39.336  11.176
37610W        W 2870  11.631  25.644   2.617
37611W        W 2871   6.989   6.969  14.663
37612W        W 2872  11.086  26.988  12.135
37613W        W 2873  16.248  20.845   1.722
37614W        W 2874  21.979  21.189   3.607
37615W        W 2875  23.995   2.666   4.310
37616W        W 2876  10.448  24.081  13.448
37617W        W 2877  41.902  21.241  11.441
37618W        W 2878  42.948   3.836   4.048
37619W        W 2879  40.753  31.462  13.713
37620W        W 2880  37.778  29.666  13.635
37621W        W 2881  23.772  42.230   2.939
37622W        W 2882  28.538  36.564   0.267
37623W        W 2883   1.655  16.209   0.018
37624W        W 2884  25.102  44.337  13.516
37625W        W 2885  25.255  30.160   3.368
37626W        W 2886  22.319  22.178  13.459
37627W        W 2887  36.600   7.673   0.413
37628W        W 2888  12.405  21.941   1.445
37629W        W 2889  34.971  14.854  13.316
37630W        W 2890  10.192   5.011  12.964
37631W        W 2891   4.847  35.109   3.930
37632W        W 2892   4.964   9.911   3.789
37633W        W 2893  23.496  21.405  12.069
37634W        W 2894  29.028  44.966  10.619
37635W        W 2895   0.433  10.217   0.322
37636W        W 2896   9.349  34.014  11.060
37637W        W 2897  31.197  16.680   1.854
37638W        W 2898   4.136  44.406   4.037
37639W        W 2899  29.518  16.606   1.382
37640W        W 2900  37.119  43.278  14.317
37641W        W 2901   5.367  40.942  14.970
37642W        W 2902  20.724  25.026   4.505
37643W        W 2903   3.818  14.364   2.184
37644W        W 2904   5.672  40.428   2.729
37645W        W 2905  25.339  36.487  11.774
37646W        W 2906  43.571  39.406   4.878
37647W        W 2907  30.328  36.452  11.192
37648W        W 2908  30.604  14.153  14.857
37649W        W 2909  40.457  32.925  10.493
37650W        W 2910  18.596   5.675  10.225
37651W        W 2911   3.436  39.346  11.981
37652W        W 2912  43.232  41.105  11.838
37653W        W 2913   3.129  42.956   3.826
37654W        W 2914  17.488   1.385   2.773
37655W        W 2915  16.845  21.537   0.762
37656W        W 2916  44.728  19.982  11.067
37657W        W 2917  31.432  37.212  14.344
37658W        W 2918   1.926  15.650   3.230
37659W        W 2919  11.065  28.500   2.745
37660W        W 2920  15.092   3.727   2.745
37661W        W 2921  10.754   2.229   3.150
37662W        W 2922  12.394  30.952  13.055
37663W        W 2923   8.392  11.650   1.171
37664W        W 2924  37.057  23.386  14.880
37665W        W 2925  17.105  35.914  11.658
37666W        W 2926  28.936  18.483  13.016
37667W        W 2927   3.328   5.809   2.242
37668W        W 2928  31.363  38.110  13.514
37669W        W 2929   5.823  29.946   2.404
37670W        W 2930   4.245   6.958   4.274
37671W        W 2931   1.391  25.714   2.246
37672W        W 2932  34.138  29.380   0.325
37673W        W 2933  26.936   2.377  12.657
37674W        W 2934  29.894  41.119   1.214
37675W        W 2935  24.695   3.647  13.574
37676W        W 2936   0.844  18.698  14.762
37677W        W 2937   7.252  38.747   0.759
37678W        W 2938  33.243  34.776  11.838
37679W        W 2939  42.081  30.535   3.010
37680W        W 2940  41.762  28.355   2.369
37681W        W 2941  38.443  27.877  10.607
37682W        W 2942  24.722  27.487  10.416
37683W        W 2943  16.187  10.013   3.580
37684W        W 2944  36.311  31.487  11.746
37685W        W 2945  10.431  32.536  14.762
37686W        W 2946  37.286  32.375   3.354
37687W        W 2947  26.968  16.406  11.435
37688W        W 2948  27.419   0.088  11.626
37689W        W 2949  35.205   2.930  11.463
37690W        W 2950  17.178  23.237   0.507
37691W        W 2951  27.994  42.407  11.953
37692W        W 2952  38.375  40.780  12.178
37693W        W 2953   0.705  31.421   4.232
37694W        W 2954   2.464   7.462   4.027
37695W        W 2955  33.627   7.817  12.528
37696W        W 2956  22.641  20.777   4.097
37697W        W 2957  29.985  27.311   0.681
37698W        W 2958  43.308   9.839   2.566
37699W        W 2959  31.431   5.089  14.733
37700W        W 2960   4.706   0.015   1.910
37701W        W 2961  12.352  25.142   2.864
37702W        W 2962   8.762  32.412  11.604
37703W        W 2963   1.772  20.025  11.719
37704W        W 2964  26.973   0.424   0.924
37705W        W 2965  40.292  12.835   9.789
37706W        W 2966  37.616  36.270   1.247
37707W        W 2967  23.983   3.438  12.542
37708W        W 2968   5.051  35.791  11.639
37709W        W 2969   2.417  39.577   1.521
37710W        W 2970  34.110  14.836  13.208
37711W        W 2971  17.793  39.620   4.236
37712W        W 2972  14.185  11.708   3.246
37713W        W 2973  23.286   5.010   2.557
37714W        W 2974  20.652  18.890   4.105
37715W        W 2975  17.969   2.624   0.104
37716W        W 2976  32.850  25.638   3.367
37717W        W 2977  12.792   9.710  10.267
37718W        W 2978  41.795  30.073   1.671
37719W        W 2979  41.412   5.207  14.927
37720W        W 2980  20.075  31.462   4.083
37721W        W 2981  42.712  43.803   1.428
37722W        W 2982   1.019  11.244   1.534
37723W        W 2983  19.350  41.272  14.943
37724W        W 2984   6.268   9.940   5.037
37725W        W 2985  40.682  37.465  11.581
37726W        W 2986  11.310  34.527   0.928
37727W        W 2987  18.072  21.943  12.173
37728W        W 2988   3.704  33.232  11.925
37729W        W 2989  16.160  17.677  12.128
37730W        W 2990  33.406  42.295  13.045
37731W        W 2991  26.262  10.311  13.732
37732W        W 2992  38.091  16.143  13.098
37733W        W 2993  43.285  14.231  11.407
37734W        W 2994  26.629   3.869  13.047
37735W        W 2995  20.605  29.437  14.463
37736W        W 2996  40.522  10.252  12.701
37737W        W 2997  44.270  36.887   3.130
37738W        W 2998  11.685  19.221   9.854
37739W        W 2999  28.591  40.370   0.418
37740W        W 3000  44.155  21.199   1.932
37741W        W 3001  28.993   9.316  13.857
37742W        W 3002  29.881  40.929  10.674
37743W        W 3003   7.752  31.077  14.374
37744W        W 3004  30.228  12.257   1.709
37745W        W 3005  42.783  29.134   3.679
37746W        W 3006   3.592  28.338   0.412
37747W        W 3007  11.587  19.244  12.981
37748W        W 3008  19.156  18.500  10.580
37749W        W 3009  13.826   0.894   4.002
37750W        W 3010  41.408  14.211   4.313
37751W        W 3011  31.784  21.133  12.355
37752W        W 3012  36.989   9.401   0.707
37753W        W 3013  37.402  40.849   4.378
37754W        W 3014  31.520  38.869  11.039
37755W        W 3015  42.210  34.501   0.012
37756W        W 3016   2.804  34.975  10.647
37757W        W 3017  35.632  44.481   4.511
37758W        W 3018   9.638  31.853   4.180
37759W        W 3019  36.070  36.969  14.353
37760W        W 3020  33.538   6.207  12.389
37761W        W 3021   1.747  40.338   3.960
37762W        W 3022  35.302  20.511  11.563
37763W        W 3023   4.831  11.106  11.178
37764W        W 3024  29.573   4.305   0.830
37765W        W 3025  30.735  36.614  14.284
37766W        W 3026  22.821  37.275  14.151
37767W        W 3027  37.806  24.932  14.730
37768W        W 3028  20.566   5.263   2.349
37769W        W 3029  37.924  32.116   5.106
37770W        W 3030   9.590   0.431  12.628
37771W        W 3031  11.452   5.543  13.296
37772W        W 3032  18.347  39.928  12.485
37773W        W 3033  40.904  23.021   4.536
37774W        W 3034  15.262  38.867   4.647
37775W        W 3035  30.489  23.721   3.133
37776W        W 3036   6.686  17.660  11.023
37777W        W 3037   5.857  11.786   2.332
37778W        W 3038   5.264  26.893  13.339
37779W        W 3039  23.654  43.562  10.739
37780W        W 3040  30.334  36.909   1.845
37781W        W 3041  19.026  31.105   3.078
37782W        W 3042  10.753  24.028   1.613
37783W        W 3043  27.304  39.557  12.547
37784W        W 3044  38.182   5.428  11.609
37785W        W 3045  24.507   7.229  13.602
37786W        W 3046  34.706  40.506   0.864
37787W        W 3047  22.214  27.495   2.726
37788W        W 3048  34.167  16.365   3.194
37789W        W 3049  35.429   8.423  13.632
37790W        W 3050  44.527  40.377  11.043
37791W        W 3051  38.269   9.569   0.544
37792W        W 3052  15.225   8.234   2.714
37793W        W 3053   2.504  12.101  14.543
37794W        W 3054  24.675   1.344   2.181
37795W        W 3055  29.410  17.545   1.028
37796W        W 3056  37.830  41.969  13.390
37797W        W 3057   8.778   6.895   9.736
37798W        W 3058   8.290  28.906   0.315
37799W        W 3059  33.985  41.361   4.340
37800W        W 3060  30.723   6.921  14.752
37801W        W 3061   3.372  39.987  13.525
37802W        W 3062  16.756  18.791   2.220
37803W        W 3063  34.507  22.219  11.508
37804W        W 3064  11.766  34.837   0.310
37805W        W 3065  44.605  41.108  14.128
37806W        W 3066   7.730   9.408   3.572
37807W        W 3067  11.280  34.949  12.613
37808W        W 3068  37.472   8.094  13.044
37809W        W 3069  42.723  40.603  13.917
37810W        W 3070  44.919   4.731   1.442
37811W        W 3071  44.897  15.828   4.862
37812W        W 3072  29.242   3.217   3.632
37813W        W 3073   0.043   5.814   1.813
37814W        W 3074  33.093  35.058   1.803
37815W        W 3075   8.458  24.315   0.437
37816W        W 3076  29.128  18.762  13.429
37817W        W 3077   7.123  32.009  11.578
37818W        W 3078  10.387  33.396  10.787
37819W        W 3079  31.970   4.497  11.508
37820W        W 3080  20.043   3.984  11.907
37821W        W 3081  18.668  36.367  13.143
37822W        W 3082  28.028  34.871  12.476
37823W        W 3083  33.539  13.339  13.580
37824W        W 3084  28.479  10.690  11.548
37825W        W 3085  42.031  10.749   1.166
37826W        W 3086  33.853  18.386  12.860
37827W        W 3087  10.689  35.899  10.734
37828W        W 3088  12.776  12.415   4.213
37829W        W 3089  24.510   7.624   3.356
37830W        W 3090   5.220  26.269  14.888
37831W        W 3091  29.686  29.078  14.895
37832W        W 3092  40.098  21.148   3.630
37833W        W 3093  17.673  28.022  14.811
37834W        W 3094   5.360  36.098   0.203
37835W        W 3095  40.023  36.778  14.055
37836W        W 3096  31.456  43.280  14.992
37837W        W 3097  21.141   8.492   0.801
37838W        W 3098  40.789   4.776   4.263
37839W        W 3099  43.929   9.219  13.957
37840W        W 3100   5.915  24.727  11.089
37841W        W 3101   2.332  43.332   3.765
37842W        W 3102  20.727  15.282   2.183
37843W        W 3103  23.548   2.933   4.220
37844W        W 3104  19.144   8.957   0.929
37845W        W 3105  27.373   5.410   4.590
37846W        W 3106  31.043  39.413   1.266
37847W        W 3107   3.474  16.471   3.047
37848W        W 3108  13.203  21.822   1.296
37849W        W 3109  32.002  43.792   0.715
37850W        W 3110  16.075  30.408   4.314
37851W        W 3111  21.376  16.748  11.958
37852W        W 3112  36.262  24.059  13.549
37853W        W 3113  44.540  39.953   4.010
37854W        W 3114  39.029  34.937   0.461
37855W        W 3115  31.175  22.008  13.346
37856W        W 3116  18.022   8.341   4.597
37857W        W 3117   2.360  13.414  11.901
37858W        W 3118  33.390  34.157   3.221
37859W        W 3119   9.670  23.244   1.740
37860W        W 3120  18.301  17.301  14.219
37861W        W 3121  15.303  27.089   1.351
37862W        W 3122  22.019  16.331   0.487
37863W        W 3123  10.346   6.272  11.158
37864W        W 3124  11.015  25.915  10.067
37865W        W 3125  38.272  39.011  12.108
37866W        W 3126   0.958  43.827  11.613
37867W        W 3127   3.200  17.479  12.024
37868W        W 3128  16.398  21.198   3.450
37869W        W 3129   2.421   9.381   2.678
37870W        W 3130  35.052  26.862  13.402
37871W        W 3131  31.954  30.787   1.930
37872W        W 3132  18.070  10.264  13.351
37873W        W 3133  23.508  34.935   2.656
37874W        W 3134   0.384  14.823  10.597
37875W        W 3135  15.463  34.401  14.830
37876W        W 3136  19.617  21.065  12.892
37877W        W 3137  32.441  29.683   3.139
37878W        W 3138   8.871  15.296   4.096
37879W        W 3139  21.705  40.632  12.455
37880W        W 3140   8.628   8.956   2.654
37881W        W 3141  11.599  42.326   1.805
37882W        W 3142  25.607  20.468  10.804
37883W        W 3143   4.550  25.009  11.098
37884W        W 3144  31.264  26.180   0.434
37885W        W 3145  44.739  36.039   3.318
37886W        W 3146  18.706  31.078   2.147
37887W        W 3147  40.030  32.101   1.652
37888W        W 3148  34.349  28.549   9.838
37889W        W 3149  10.790   4.163  12.785
37890W        W 3150  27.788   1.078  11.567
37891W        W 3151  40.660  35.045   4.191
37892W        W 3152  26.476  22.713   0.965
37893W        W 3153  34.788   7.958  10.949
37894W        W 3154  12.925  18.548  14.460
37895W        W 3155   6.464  22.080   2.721
37896W        W 3156  34.422   3.776   4.132
37897W        W 3157  22.045   8.765   3.003
37898W        W 3158   6.409  19.986   3.219
37899W        W 3159  33.815  23.607  14.533
37900W        W 3160  35.245  20.572  13.682
37901W        W 3161  23.562  33.492   5.146
37902W        W 3162  13.660  14.346  12.495
37903W        W 3163  22.733  25.187  13.090
37904W        W 3164  37.590  11.060   2.814
37905W        W 3165  33.048  31.416   2.300
37906W        W 3166  29.535  34.781  13.063
37907W        W 3167  21.915  39.604   2.755
37908W        W 3168  21.607  27.962   3.127
37909W        W 3169  36.386   5.309  11.039
37910W        W 3170   7.600  21.649  12.003
37911W        W 3171  19.700  22.735  14.066
37912W        W 3172   2.862   0.347  10.586
37913W        W 3173  17.982  19.612  10.725
37914W        W 3174  38.041  12.858  14.756
37915W        W 3175   1.684   7.885   0.879
37916W        W 3176  29.639  23.769  14.839
37917W        W 3177  23.459  12.972  11.167
37918W        W 3178  43.060  16.057  12.633
37919W        W 3179  25.161  16.031   0.995
37920W        W 3180  22.052  27.738   1.866
37921W        W 3181   1.770  43.523  13.847
37922W        W 3182  42.992  32.294  14.760
37923W        W 3183  26.692  18.733  14.841
37924W        W 3184  33.697  35.415  12.909
37925W        W 3185  26.520  34.118   2.256
37926W        W 3186   5.281   0.507   4.307
37927W        W 3187   3.319   0.486  11.386
37928W        W 3188   0.833  15.933   5.214
37929W        W 3189  26.340   3.823   0.270
37930W        W 3190  32.484  36.144  14.001
37931W        W 3191  39.771   3.201  12.910
37932W        W 3192  42.385  37.837  10.897
37933W        W 3193  43.253  29.575   2.249
37934W        W 3194  18.626  38.560  12.947
37935W        W 3195  32.621  41.365   1.444
37936W        W 3196  24.083  27.139   3.121
37937W        W 3197  31.851  29.386  13.312
37938W        W 3198  28.633  25.136   2.285
37939W        W 3199  10.092  27.195  13.982
37940W        W 3200  38.028  11.957  14.265
37941W        W 3201  37.018  14.066  10.800
37942W        W 3202  34.824  28.647  13.871
37943W        W 3203  14.587   7.814   3.689
37944W        W 3204  17.149  25.831   0.717
37945W        W 3205   1.326   3.919  10.653
37946W        W 3206  36.653  27.772   0.539
37947W        W 3207  21.354  26.117  10.941
37948W        W 3208  36.350   2.383   5.030
37949W        W 3209  44.061   3.423   0.292
37950W        W 3210   2.921  13.911  12.997
37951W        W 3211  35.596  21.540   0.297
37952W        W 3212  12.358   0.356   2.046
37953W        W 3213  26.314  11.647  14.370
37954W        W 3214  43.519  26.506  11.412
37955W        W 3215  19.048  23.265  14.896
37956W        W 3216  14.266  24.899  12.435
37957W        W 3217  28.091  30.563  10.671
37958W        W 3218  29.657  36.406   4.618
37959W        W 3219  35.948  10.646   1.455
37960W        W 3220  12.744   7.974   3.434
37961W        W 3221  30.421   4.046   0.964
37962W        W 3222  29.452  27.566  13.574
37963W        W 3223  29.872  38.464   2.095
37964W        W 3224   7.279  19.632   0.202
37965W        W 3225  26.242  33.222   0.982
37966W        W 3226  29.381  34.809  12.457
37967W        W 3227  13.875   6.728  14.938
37968W        W 3228  13.325  18.154   1.763
37969W        W 3229  39.091  32.112  10.646
37970W        W 3230  23.424  19.813  10.907
37971W        W 3231   8.646   4.389  11.568
37972W        W 3232   5.008  31.903   3.623
37973W        W 3233  20.453  26.672  10.704
37974W        W 3234   7.993   8.420   4.538
37975W        W 3235  27.649  21.960   3.236
37976W        W 3236  44.528   1.031   2.304
37977W        W 3237  27.884  20.018   0.539
37978W        W 3238  29.105  30.401  12.395
37979W        W 3239  35.294  41.563   4.258
37980W        W 3240  11.762  25.227  11.098
37981W        W 3241   8.759  34.133  13.724
37982W        W 3242  32.096   6.915   0.680
37983W        W 3243  22.372  38.692   3.674
37984W        W 3244  22.643  41.517  14.489
37985W        W 3245  22.163   3.235   2.713
37986W        W 3246   8.805  13.582  11.199
37987W        W 3247  18.807  35.444  10.751
37988W        W 3248   3.845  25.546  13.756
37989W        W 3249  30.503  12.997   2.894
37990W        W 3250  11.783  44.465   3.173
37991W        W 3251  25.982  21.495   2.782
37992W        W 3252   7.421  11.415  11.060
37993W        W 3253  33.203  28.564   3.130
37994W        W 3254  21.240  32.032   0.904
37995W        W 3255  31.393  12.941   1.249
37996W        W 3256  41.034  22.848   0.437
37997W        W 3257  13.925   8.358  14.783
37998W        W 3258   8.256  42.505  14.828
37999W        W 3259  38.631  42.660   0.502
38000W        W 3260   3.026  24.210   3.132
38001W        W 3261  34.131  39.003  13.999
38002W        W 3262  43.842  43.926  10.521
38003W        W 3263  18.700  14.359  13.154
38004W        W 3264  18.197  17.797  14.436
38005W        W 3265   1.117  29.788  13.134
38006W        W 3266  34.345  11.758   1.774
38007W        W 3267   8.678  35.922  11.477
38008W        W 3268   5.003  10.232   1.347
38009W        W 3269  37.918  10.543   0.387
38010W        W 3270  33.469   1.811   1.629
38011W        W 3271  26.999  16.884   2.214
38012W        W 3272   9.681  18.985  14.737
38013W        W 3273  10.537  31.403  13.659
38014W        W 3274  31.686  25.189   3.464
38015W        W 3275   6.828  40.382   4.159
38016W        W 3276  25.782  36.584   2.774
38017W        W 3277  14.171   9.850   1.437
38018W        W 3278   5.779   8.424   1.918
38019W        W 3279  40.284  11.122   1.367
38020W        W 3280  24.367  43.504  14.376
38021W        W 3281   1.969  44.399   4.309
38022W        W 3282  36.410  20.489  13.451
38023W        W 3283  39.107  40.842  11.462
38024W        W 3284  42.255   8.786  14.565
38025W        W 3285  41.911  21.086  12.469
38026W        W 3286  18.814  32.378  11.509
38027W        W 3287  19.982  24.568  11.630
38028W        W 3288  37.086  30.170  13.987
38029W        W 3289  40.924  35.578  10.626
38030W        W 3290   8.175  13.316   0.924
38031W        W 3291   2.353   3.189  12.303
38032W        W 3292  23.202  42.418  10.680
38033W        W 3293  12.255   0.482  14.006
38034W        W 3294   0.718   5.571  11.013
38035W        W 3295  29.194  10.403  10.551
38036W        W 3296  15.318  20.109   2.360
38037W        W 3297   5.198  20.033   3.762
38038W        W 3298  20.183  13.164  10.622
38039W        W 3299  43.269  32.396   0.462
38040W        W 3300  17.407  37.411   2.003
38041W        W 3301  14.705  36.397   3.524
38042W        W 3302  39.851  40.854   3.657
38043W        W 3303   4.265  33.983  10.455
38044W        W 3304  41.268  24.693   2.584
38045W        W 3305  26.813  14.734   1.460
38046W        W 3306  23.282  27.615  14.583
38047W        W 3307  17.311  26.441  10.245
38048W        W 3308  26.007  14.375  12.939
38049W        W 3309  40.973  14.853  13.326
38050W        W 3310  17.774  35.981  14.400
38051W        W 3311  42.200  23.625   4.134
38052W        W 3312  22.161  19.690  12.866
38053W        W 3313   0.541  30.514   1.886
38054W        W 3314  14.559  18.636   4.479
38055W        W 3315  40.847  31.942   1.116
38056W        W 3316  34.698  14.117   1.084
38057W        W 3317  39.014  27.262  14.992
38058W        W 3318  32.912   8.753  10.427
38059W        W 3319  18.166   2.221   0.444
38060W        W 3320   6.664  16.060  11.216
38061W        W 3321   8.949   4.842   1.765
38062W        W 3322  34.501   8.301   2.263
38063W        W 3323   7.262   6.906  11.886
38064W        W 3324  22.538  24.012   4.536
38065W        W 3325  25.173  43.913   0.797
38066W        W 3326  33.079  39.420   4.661
38067W        W 3327   4.170  18.027  10.449
38068W        W 3328  26.681  13.711   4.534
38069W        W 3329   0.865  23.196   5.399
38070W        W 3330  16.669  32.336   1.230
38071W        W 3331   8.058  17.180   4.533
38072W        W 3332  21.177   8.542   5.065
38073W        W 3333   2.933  38.492   3.311
38074W        W 3334  14.717  20.508  12.848
38075W        W 3335  38.795  43.099  10.839
38076W        W 3336  43.940  34.910   1.914
38077W        W 3337   3.729  41.298   0.122
38078W        W 3338  27.186  43.229  11.929
38079W        W 3339  36.579  38.540   2.676
38080W        W 3340  29.026  43.288   0.276
38081W        W 3341  34.529   8.383  11.828
38082W        W 3342  34.061  35.355   4.575
38083W        W 3343  41.954  37.395   0.688
38084W        W 3344  14.575  21.617   1.502
38085W        W 3345  30.123  28.139  13.273
38086W        W 3346  24.096   2.855  11.451
38087W        W 3347  27.002  44.361  10.732
38088W        W 3348  15.051   0.504  13.600
38089W        W 3349  26.628  34.866  14.781
38090W        W 3350   1.682  22.443   2.131
38091W        W 3351  28.640  44.797   0.060
38092W        W 3352  22.812  13.620  12.180
38093W        W 3353  28.577  12.626   1.088
38094W        W 3354  42.344  14.060   0.258
38095W        W 3355  19.316  15.705  10.635
38096W        W 3356  32.673   7.835  10.545
38097W        W 3357  40.791   4.952  11.670
38098W        W 3358  32.612  28.250  13.984
38099W        W 3359   6.649  19.393  12.246
38100W        W 3360   9.637  19.747   2.315
38101W        W 3361  41.673  11.614   3.314
38102W        W 3362  41.708   6.667  13.402
38103W        W 3363   3.175  38.903  13.820
38104W        W 3364  28.433  43.957   4.634
38105W        W 3365  24.927  29.868   2.678
38106W        W 3366  40.464  12.876  14.262
38107W        W 3367  42.420  38.321  11.020
38108W        W 3368  11.421  24.528   0.895
38109W        W 3369   4.750  17.619   3.704
38110W        W 3370  27.631  26.353   4.236
38111W        W 3371  41.373  30.272   4.998
38112W        W 3372  30.211  15.735   4.523
38113W        W 3373  34.860   0.652  10.139
38114W        W 3374  39.819  25.190   3.774
38115W        W 3375   1.327  12.572   1.406
38116W        W 3376  24.637   4.173   2.672
38117W        W 3377  16.327  31.092  13.014
38118W        W 3378  12.287  25.221   1.899
38119W        W 3379  23.094  21.525  12.441
38120W        W 3380   1.163  17.133   0.375
38121W        W 3381  25.546  39.247  12.139
38122W        W 3382   2.819  23.404   2.697
38123W        W 3383  44.443  10.898   3.225
38124W        W 3384  40.415  20.818   2.759
38125W        W 3385   3.147  42.192  12.795
38126W        W 3386   5.264  40.133   2.327
38127W        W 3387   9.365  15.126  13.739
38128W        W 3388  39.619  25.914  11.068
38129W        W 3389   5.210  30.626  10.562
38130W        W 3390  31.188  13.829   0.385
38131W        W 3391   8.150  28.653  14.526
38132W        W 3392   1.112  24.899   1.394
38133W        W 3393  25.278  25.959  11.075
38134W        W 3394  10.172  34.079  14.503
38135W        W 3395  39.137  28.536   0.142
38136W        W 3396  31.106  33.386   2.421
38137W        W 3397   1.775   8.473  14.936
38138W        W 3398  41.293   7.216  13.490
38139W        W 3399   9.331  26.153  12.533
38140W        W 3400  22.737   1.955  11.598
38141W        W 3401  13.176  35.266   4.832
38142W        W 3402  10.272  34.130   3.328
38143W        W 3403  32.861  22.479  13.132
38144W        W 3404  31.088  27.940   0.929
38145W        W 3405  42.409   9.683  11.554
38146W        W 3406  25.388  39.145  14.897
38147W        W 3407  25.697   8.294   4.960
38148W        W 3408  23.871   6.326  14.130
38149W        W 3409   1.515   7.277  14.001
38150W        W 3410  13.306  10.166   9.628
38151W        W 3411  38.348  38.339  14.239
38152W        W 3412   2.755  44.925  10.982
38153W        W 3413  22.597  41.266  13.074
38154W        W 3414   4.934  14.705   2.206
38155W        W 3415  32.368   5.434  14.441
38156W        W 3416  20.087  16.177  11.497
38157W        W 3417  30.850  13.117   0.382
38158W        W 3418  34.996  21.510   4.821
38159W        W 3419   7.388  30.374  10.693
38160W        W 3420  18.650  21.917  13.926
38161W        W 3421  14.440  40.750  11.168
38162W        W 3422  32.944  16.854   4.658
38163W        W 3423   5.613  16.555   4.102
38164W        W 3424  25.483  15.623   0.957
38165W        W 3425   0.114   0.930   1.202
38166W        W 3426  17.035   4.290  12.055
38167W        W 3427   8.771  26.090   2.754
38168W        W 3428  36.508   4.049   1.437
38169W        W 3429   3.928   9.587  11.433
38170W        W 3430   0.246  13.343   5.078
38171W        W 3431  27.487  31.026   3.561
38172W        W 3432  13.780  33.483   1.655
38173W        W 3433  17.349  24.652  10.631
38174W        W 3434  11.192  38.595  11.005
38175W        W 3435  41.644  31.839  13.970
38176W        W 3436  22.034  15.140   4.661
38177W        W 3437  19.629  12.764   1.492
38178W        W 3438  34.835  22.889  10.319
38179W        W 3439  32.914  32.097  13.630
38180W        W 3440   1.872   4.202  11.180
38181W        W 3441  14.967  15.246   3.857
38182W        W 3442  20.018  15.785  13.419
38183W        W 3443  39.981  24.671  11.429
38184W        W 3444  36.328  18.040  12.914
38185W        W 3445  13.310  28.204   4.747
38186W        W 3446  22.702  34.040   4.965
38187W        W 3447  10.837   8.895   2.673
38188W        W 3448  43.537  19.410  13.004
38189W        W 3449   0.780   6.873   3.144
38190W        W 3450   8.106  26.495   2.352
38191W        W 3451  41.981  33.644   0.335
38192W        W 3452  42.935  30.001  11.471
38193W        W 3453  12.438  27.139   0.370
38194W        W 3454  22.836  26.737  12.452
38195W        W 3455  38.020  19.672   4.117
38196W        W 3456  38.635  41.279   2.122
38197W        W 3457  30.686   7.709  13.061
38198W        W 3458   6.443  42.339  13.332
38199W        W 3459  30.458  33.369  11.127
38200W        W 3460   5.186  18.783   0.051
38201W        W 3461  16.342  34.845   1.427
38202W        W 3462  34.652   3.011   1.901
38203W        W 3463   1.542   5.595  13.506
38204W        W 3464   9.154  18.200  12.184
38205W        W 3465  24.990   0.734  11.366
38206W        W 3466  12.323  14.527   3.269
38207W        W 3467  12.582  11.774  13.857
38208W        W 3468  28.627  35.664   4.131
38209W        W 3469  35.112  23.221  14.362
38210W        W 3470   2.986  21.639   0.483
38211W        W 3471  29.575  30.077   2.780
38212W        W 3472  10.092  21.528  10.592
38213W        W 3473  21.744  32.187   2.212
38214W        W 3474  41.833  10.695  14.792
38215W        W 3475  39.315  41.499   1.560
38216W        W 3476  12.883  10.228   1.221
38217W        W 3477  19.122   9.263   1.359
38218W        W 3478  18.201  18.285  14.735
38219W        W 3479  11.151  35.592  13.942
38220W        W 3480  39.647  21.687   0.562
38221W        W 3481  39.971  19.376   2.863
38222W        W 3482  44.877  29.521  10.941
38223W        W 3483  28.922  41.014  11.705
38224W        W 3484  32.642  23.645  12.800
38225W        W 3485  12.701  42.532   0.546
38226W        W 3486  39.090   1.495  13.268
38227W        W 3487  31.118  24.056  12.122
38228W        W 3488  20.561  39.576   1.754
38229W        W 3489  17.369  15.495   0.231
38230W        W 3490  28.442  11.925  11.641
38231W        W 3491  29.727  15.626  12.530
38232W        W 3492  35.967  14.089  12.549
38233W        W 3493   7.736  13.697   1.671
38234W        W 3494   8.767  38.718  11.984
38235W        W 3495  40.024   2.395   3.626
38236W        W 3496  25.108   2.546   2.490
38237W        W 3497   1.113  12.214   2.783
38238W        W 3498  31.538  22.248  11.655
38239W        W 3499  28.711   2.556   3.894
38240W        W 3500  31.891   9.987  13.483
38241W        W 3501   0.950  33.280   4.529
38242W        W 3502  41.597   5.173  10.737
38243W        W 3503  15.924  31.918   4.423
38244W        W 3504  19.355  18.154  13.918
38245W        W 3505  24.326   7.253   0.344
38246W        W 3506  42.192  12.347  12.520
38247W        W 3507  20.076  41.969  12.570
38248W        W 3508  10.198  18.466  12.926
38249W        W 3509  14.845  28.698  14.911
38250W        W 3510  35.300  21.047  11.568
38251W        W 3511   0.826   1.368  10.723
38252W        W 3512  30.865  30.212  11.535
38253W        W 3513  17.784  19.591   4.091
38254W        W 3514  17.120  23.997   4.029
38255W        W 3515  34.333  34.722   3.928
38256W        W 3516  39.283  17.472  14.289
38257W        W 3517  28.443  31.606   0.980
38258W        W 3518  31.642   5.462  11.884
38259W        W 3519  30.139  21.970  13.391
38260W        W 3520  13.061   1.964  11.105
38261W        W 3521   5.031   4.290   3.474
38262W        W 3522  13.841  23.480   2.597
38263W        W 3523  19.102  39.801   4.341
38264W        W 3524   3.390  39.533   1.306
38265W        W 3525  15.270   9.821  13.223
38266W        W 3526  33.547  40.573  12.556
38267W        W 3527  25.872  11.792  14.133
38268W        W 3528  14.152  22.752   1.827
38269W        W 3529   7.350  23.556  11.239
38270W        W 3530  44.663  36.069  11.116
38271W        W 3531  13.730  33.991   1.741
38272W        W 3532  26.496  35.007   1.177
38273W        W 3533   7.366   1.214   3.678
38274W        W 3534   1.409  34.469   0.849
38275W        W 3535  33.033  17.868   3.175
38276W        W 3536  28.709   4.809   3.684
38277W        W 3537  14.410  10.059  12.331
38278W        W 3538  44.302  16.102   5.037
38279W        W 3539   5.881  35.433  14.316
38280W        W 3540  34.660  20.238   2.473
38281W        W 3541  16.699  25.612  12.007
38282W        W 3542   4.157  10.585  12.417
38283W        W 3543  15.969  30.084  14.950
38284W        W 3544   3.070  14.071   5.155
38285W        W 3545  10.556  31.515  10.642
38286W        W 3546  29.151   7.578   1.852
38287W        W 3547  15.323  15.205   4.226
38288W        W 3548   6.404  24.664   2.742
38289W        W 3549   1.019  33.909   2.217
38290W        W 3550  29.618  41.378  10.517
38291W        W 3551  16.184  18.725  12.886
38292W        W 3552   9.730  39.882   3.247
38293W        W 3553  21.491   0.330  12.856
38294W        W 3554  20.428   0.441  11.211
38295W        W 3555  41.891   0.290  13.940
38296W        W 3556  28.513   5.978  12.578
38297W        W 3557  31.526  16.565  14.813
38298W        W 3558  14.680   2.731   4.229
38299W        W 3559  28.172   2.190  13.489
38300W        W 3560  39.774  37.871   0.722
38301W        W 3561  26.070   7.822  12.353
38302W        W 3562  25.214  22.120  14.454
38303W        W 3563  11.879  26.618   3.913
38304W        W 3564  30.047  20.992  11.338
38305W        W 3565   2.184  36.615  11.616
38306W        W 3566  32.370  38.927  12.403
38307W        W 3567   5.920  23.152  12.179
38308W        W 3568  31.460  11.083  14.921
38309W        W 3569  13.240   9.169  13.502
38310W        W 3570  31.235  39.975   0.696
38311W        W 3571  44.822  15.795   3.202
38312W        W 3572  25.447  29.492  13.421
38313W        W 3573  26.098   7.840   1.716
38314W        W 3574  10.387  23.219   9.685
38315W        W 3575  43.402  20.332   3.249
38316W        W 3576   8.928  41.295  13.426
38317W        W 3577  18.290  18.774   3.218
38318W        W 3578  25.801  18.882  10.271
38319W        W 3579  31.873  29.937  12.429
38320W        W 3580  37.833   4.997   2.905
38321W        W 3581  18.669  30.956  14.282
38322W        W 3582   2.714  14.307   2.405
38323W        W 3583  32.908  15.260  13.600
38324W        W 3584  11.737  39.442  10.168
38325W        W 3585  35.122  30.665  10.955
38326W        W 3586  18.585  32.997  10.678
38327W        W 3587  30.380  11.246   0.922
38328W        W 3588  24.063  12.866  14.459
38329W        W 3589  25.476  24.905   1.343
38330W        W 3590  12.501  39.877   0.425
38331W        W 3591   8.829   5.402  11.594
38332W        W 3592  26.048  24.531  10.797
38333W        W 3593   8.101  31.152  14.755
38334W        W 3594  35.648   8.015   2.872
38335W        W 3595  32.078  35.907   2.339
38336W        W 3596  11.323  30.562   2.176
38337W        W 3597   7.141  18.162   3.488
38338W        W 3598  13.328  22.816   1.155
38339W        W 3599   8.768  11.838   4.985
38340W        W 3600  21.188  21.786   1.254
38341W        W 3601  15.599  42.787  11.901
38342W        W 3602  36.355  36.216   4.608
38343W        W 3603   6.738  38.154  11.187
38344W        W 3604  10.676  27.534  13.539
38345W        W 3605  28.532  37.876  10.523
38346W        W 3606  42.487   2.302  12.845
38347W        W 3607  14.462  35.168   1.742
38348W        W 3608   3.710   1.260   0.338
38349W        W 3609  15.271  29.625   3.328
38350W        W 3610  28.348  31.888   2.260
38351W        W 3611   2.922  20.438  11.571
38352W        W 3612   9.413  10.518  14.845
38353W        W 3613  37.113  44.744  10.565
38354W        W 3614  26.652  26.668  12.553
38355W        W 3615  35.094   8.404  11.177
38356W        W 3616  10.235  19.551   1.772
38357W        W 3617  13.722  14.887   3.343
38358W        W 3618  38.429  35.906  12.499
38359W        W 3619  20.163  19.371   0.462
38360W        W 3620   4.937  23.474  10.670
38361W        W 3621   3.323   9.001   4.524
38362W        W 3622  44.383  39.532  10.838
38363W        W 3623  34.603  38.096  12.555
38364W        W 3624   6.747  12.627  11.184
38365W        W 3625  39.816  20.269   0.333
38366W        W 3626  31.965   5.149  14.056
38367W        W 3627  12.558  37.544   3.735
38368W        W 3628  30.524  13.479  14.825
38369W        W 3629  25.601   3.929  14.010
38370W        W 3630  34.798  39.260  12.013
38371W        W 3631  21.687  44.245  10.254
38372W        W 3632  25.904  43.985  12.083
38373W        W 3633  13.611  13.368   0.168
38374W        W 3634  27.488  38.501   4.558
38375W        W 3635  25.217   6.322  11.527
38376W        W 3636  29.069  37.844   3.582
38377W        W 3637  14.644  14.158   2.691
38378W        W 3638  33.460  13.074   0.080
38379W        W 3639  28.364  15.248   2.671
38380W        W 3640  27.105  12.423  11.615
38381W        W 3641  32.138   4.352   0.525
38382W        W 3642  21.889   3.406  12.624
38383W        W 3643  40.337  24.606  13.963
38384W        W 3644  10.204  44.623  13.142
38385W        W 3645  42.026  29.888  13.017
38386W        W 3646   8.752  14.303  13.824
38387W        W 3647  14.090   3.794   4.912
38388W        W 3648  24.750  29.307   1.246
38389W        W 3649  35.457  17.560   2.478
38390W        W 3650  32.419  20.330   3.244
38391W        W 3651  42.321  44.894  10.540
38392W        W 3652  20.028  19.267  13.916
38393W        W 3653  40.316  12.624   2.763
38394W        W 3654  30.926  17.617   2.361
38395W        W 3655   9.121   3.941   4.901
38396W        W 3656  26.305  20.675  14.532
38397W        W 3657  22.864  42.376   3.163
38398W        W 3658  22.837   3.401   1.426
38399W        W 3659  25.592  17.618   1.941
38400W        W 3660  29.924  34.402   4.076
38401W        W 3661  22.020  40.874   3.501
38402W        W 3662  19.540  28.367  11.018
38403W        W 3663  39.298  11.706   2.714
38404W        W 3664  33.108  15.680   0.339
38405W        W 3665   5.014  13.877  12.112
38406W        W 3666  10.649  13.468   2.142
38407W        W 3667   0.501  44.790  12.633
38408W        W 3668   6.798  37.339   3.148
38409W        W 3669  34.756  25.560   9.895
38410W        W 3670  25.549  41.853   1.064
38411W        W 3671  19.195  31.207  13.557
38412W        W 3672  38.105  22.638   0.305
38413W        W 3673  25.166  27.452   1.358
38414W        W 3674   2.822  22.000  14.828
38415W        W 3675  12.801  39.885   2.886
38416W        W 3676  21.007  17.493  11.126
38417W        W 3677  31.734   5.960  13.852
38418W        W 3678  33.179   6.984  12.081
38419W        W 3679  43.062  20.149   1.043
38420W        W 3680  20.356  20.979   0.418
38421W        W 3681  15.171   0.951   2.180
38422W        W 3682  15.252  29.242   0.889
38423W        W 3683  36.745  23.577   3.714
38424W        W 3684  39.920  32.881  11.054
38425W        W 3685  30.960  32.345  13.568
38426W        W 3686  33.367  21.399   1.284
38427W        W 3687   7.229   4.380   3.969
38428W        W 3688  12.150  12.752  12.872
38429W        W 3689  12.724  27.218  11.081
38430W        W 3690  42.880  42.725  11.465
38431W        W 3691   8.099  23.941  12.081
38432W        W 3692   1.048  20.206   1.785
38433W        W 3693  12.066  39.090  11.995
38434W        W 3694  37.629  43.302  13.431
38435W        W 3695  39.028  44.000  12.805
38436W        W 3696  18.023   9.342   2.413
38437W        W 3697  13.066  39.217  14.873
38438W        W 3698  11.110  23.132   3.634
38439W        W 3699  13.118  28.952   1.260
38440W        W 3700   6.409  20.802   3.710
38441W        W 3701  11.385  41.966   0.467
38442W        W 3702  17.545  43.760   4.144
38443W        W 3703  18.803  13.338   3.766
38444W        W 3704  26.758  13.751   2.787
38445W        W 3705  37.377   1.674  12.124
38446W        W 3706   8.632   7.331   4.451
38447W        W 3707  33.884  42.552   2.806
38448W        W 3708  35.471   1.512  12.665
38449W        W 3709  41.432   4.859   4.171
38450W        W 3710  37.921  12.218   3.936
38451W        W 3711  28.649  37.668  11.915
38452W        W 3712   1.751  42.703  12.480
38453W        W 3713  13.092  37.997  10.720
38454W        W 3714  31.654  41.418   1.154
38455W        W 3715  11.045   6.314  11.506
38456W        W 3716  21.698  26.555  11.218
38457W        W 3717  41.688  40.757  14.493
38458W        W 3718   7.399  22.211  10.722
38459W        W 3719  26.564   7.808  12.486
38460W        W 3720  10.850   3.000   0.724
38461W        W 3721   2.656  35.059   3.436
38462W        W 3722  37.696  22.186   3.756
38463W        W 3723  18.364  37.544  12.453
38464W        W 3724   6.388  33.019   4.681
38465W        W 3725  37.963  13.301  13.865
38466W        W 3726  36.968   6.943  10.919
38467W        W 3727   2.308  17.475  11.201
38468W        W 3728  19.854  41.524  12.519
38469W        W 3729  18.656  44.190  12.055
38470W        W 3730  40.097  13.847   4.855
38471W        W 3731   3.917   8.261  13.940
38472W        W 3732  38.661  16.265  14.816
38473W        W 3733  25.938  15.755  10.868
38474W        W 3734  29.431   0.905   3.686
38475W        W 3735  37.398   9.599   3.665
38476W        W 3736  40.056  38.967   0.016
38477W        W 3737   3.620  29.028  11.222
38478W        W 3738  31.916  26.535  12.426
38479W        W 3739  43.318  33.752  10.517
38480W        W 3740   5.228  41.294  13.121
38481W        W 3741  10.180   5.504  12.881
38482W        W 3742  37.137  13.266   0.734
38483W        W 3743  21.270   0.759   0.909
38484W        W 3744   1.922  37.703  11.664
38485W        W 3745  40.695  16.971  11.898
38486W        W 3746  37.853  34.592  14.793
38487W        W 3747  23.309   7.645   3.201
38488W        W 3748  41.507  39.965   4.132
38489W        W 3749  21.715  30.736  11.534
38490W        W 3750   7.752  22.007   0.440
38491W        W 3751   0.349  24.047   2.329
38492W        W 3752  39.533  23.457   2.267
38493W        W 3753  30.111  24.699  14.689
38494W        W 3754  14.190  21.763   4.138
38495W        W 3755  43.144  33.063  11.213
38496W        W 3756  13.813  32.983   1.402
38497W        W 3757  19.280  42.043   3.286
38498W        W 3758   9.266  25.421   4.565
38499W        W 3759  18.155   5.252  10.651
38500W        W 3760  22.692  37.386   3.415
38501W        W 3761  25.754   0.975  11.613
38502W        W 3762  24.427  18.616  12.762
38503W        W 3763  17.330  21.391  13.284
38504W        W 3764   3.800   1.902   1.897
38505W        W 3765  26.483  18.609   0.302
38506W        W 3766  11.104  22.608  14.589
38507W        W 3767  16.193   9.624  14.263
38508W        W 3768  21.976  19.342  13.921
38509W        W 3769   0.260  43.726  14.126
38510W        W 3770  21.586  38.127  10.836
38511W        W 3771   7.318  44.629  11.647
38512W        W 3772  12.695  19.535  14.789
38513W        W 3773  44.821  14.817   0.490
38514W        W 3774  24.946   8.106   0.202
38515W        W 3775  21.977  29.655  12.510
38516W        W 3776  31.701  22.490  10.163
38517W        W 3777   6.320  26.686   1.228
38518W        W 3778  36.350  20.292  14.467
38519W        W 3779  27.165  35.296   2.452
38520W        W 3780  31.136   0.747   3.832
38521W        W 3781  39.454   7.845  13.369
38522W        W 3782  20.197  18.549   1.380
38523W        W 3783  12.647  33.425   2.598
38524W        W 3784  39.457  29.693  10.764
38525W        W 3785  39.591  20.510  12.752
38526W        W 3786  24.505   0.770  14.996
38527W        W 3787   4.211  11.265  14.947
38528W        W 3788  15.256  21.993   0.723
38529W        W 3789  25.537  23.137   4.872
38530W        W 3790   0.134   3.518  12.839
38531W        W 3791  16.348  20.946   0.842
38532W        W 3792  22.987  21.783   1.363
38533W        W 3793  17.919  43.506  11.200
38534W        W 3794  38.857  30.583   1.315
38535W        W 3795  22.499  43.780   2.697
38536W        W 3796   7.007  18.335  12.838
38537W        W 3797  19.231  29.458   3.636
38538W        W 3798  12.840   9.430   1.630
38539W        W 3799  18.028  11.713   3.115
38540W        W 3800  25.852  18.617   0.874
38541W        W 3801  27.479   9.660  10.694
38542W        W 3802  24.129  16.680  14.107
38543W        W 3803  24.623  14.553   3.251
38544W        W 3804  30.331   7.726  13.464
38545W        W 3805   1.722  12.171   1.234
38546W        W 3806   3.915  28.927  14.572
38547W        W 3807   6.540  37.350   1.187
38548W        W 3808   8.210  10.559   0.228
38549W        W 3809  22.641  15.893   4.514
38550W        W 3810  20.362  17.258   4.486
38551W        W 3811  22.091  19.096   4.033
38552W        W 3812  37.000  10.900   2.834
38553W        W 3813  40.529   1.640  12.423
38554W        W 3814  27.941  32.003   2.633
38555W        W 3815  13.881  43.994  11.965
38556W        W 3816  31.616  20.549  11.541
38557W        W 3817   0.753  14.135   2.712
38558W        W 3818  12.364  14.202   2.296
38559W        W 3819   9.295  23.020   3.556
38560W        W 3820  27.129  23.903  14.868
38561W        W 3821  36.021   8.947  10.321
38562W        W 3822  27.742  24.651   2.287
38563W        W 3823  39.285  18.111   4.340
38564W        W 3824  38.540  38.152  13.459
38565W        W 3825  31.163  14.316  14.794
38566W        W 3826   1.781  27.043  10.826
38567W        W 3827  17.606  27.781  13.043
38568W        W 3828   0.522   4.421  12.044
38569W        W 3829   7.946  17.610   0.574
38570W        W 3830  15.265  41.590   3.603
38571W        W 3831   5.401  28.997   4.849
38572W        W 3832  29.685  41.845   2.451
38573W        W 3833  36.496  44.718   4.054
38574W        W 3834  14.568  21.736   2.442
38575W        W 3835   5.307  18.929  14.536
38576W        W 3836  40.347  34.856   3.835
38577W        W 3837   8.879   9.804  13.406
38578W        W 3838  36.973  26.553  12.413
38579W        W 3839  29.439  33.388  13.701
38580W        W 3840  43.009   0.383  12.387
38581W        W 3841  25.630  32.850   2.807
38582W        W 3842   2.163  14.333  11.430
38583W        W 3843  30.793   9.608   1.760
38584W        W 3844  20.626  40.385  13.824
38585W        W 3845   7.911  41.305  12.340
38586W        W 3846  40.757   9.633  11.104
38587W        W 3847  44.014  11.957  11.504
38588W        W 3848  14.774  32.488   2.156
38589W        W 3849   8.259  41.832  10.565
38590W        W 3850  18.240  23.221   0.419
38591W        W 3851  23.512  41.396   3.725
38592W        W 3852  41.020  23.470   1.648
38593W        W 3853  22.703   7.172   2.690
38594W        W 3854  25.929  33.104  13.018
38595W        W 3855  14.869  15.762  11.670
38596W        W 3856  24.274   2.756   2.060
38597W        W 3857   0.895  10.647   4.400
38598W        W 3858  20.849  26.101  10.793
38599W        W 3859  10.701  12.586  11.509
38600W        W 3860   2.807  25.064   1.438
38601W        W 3861  17.035  14.431  14.347
38602W        W 3862  22.019  17.180  13.311
38603W        W 3863  32.050  24.748   1.277
38604W        W 3864  44.544  20.964  14.784
38605W        W 3865  38.721  43.782  11.768
38606W        W 3866  30.902   8.340  10.613
38607W        W 3867  12.044  20.313  11.564
38608W        W 3868  43.780   9.048  14.812
38609W        W 3869  22.177  42.862  11.238
38610W        W 3870  39.580   2.588  14.340
38611W        W 3871  32.020  31.458   0.176
38612W        W 3872   6.694  35.895  13.071
38613W        W 3873  26.112  33.556  12.832
38614W        W 3874   0.678  40.120  11.951
38615W        W 3875  26.264  13.554   2.754
38616W        W 3876  13.099  12.245  14.076
38617W        W 3877  11.163  10.568  13.381
38618W        W 3878  11.586  26.396  12.594
38619W        W 3879  17.532   1.237  11.072
38620W        W 3880  21.711  25.322   2.700
38621W        W 3881   2.143   0.247  13.957
38622W        W 3882  22.062  39.394  12.215
38623W        W 3883  44.489  20.133   0.142
38624W        W 3884  37.932   1.462  13.917
38625W        W 3885   0.782   1.426   2.884
38626W        W 3886  23.586  44.334  11.678
38627W        W 3887  43.338   4.713   2.660
38628W        W 3888  38.253  31.022   1.740
38629W        W 3889  14.239  37.307  11.803
38630W        W 3890   2.823   7.040  10.659
38631W        W 3891  23.978  31.593   4.663
38632W        W 3892  43.372  23.774  11.518
38633W        W 3893  43.967  30.154  13.361
38634W        W 3894  10.101  33.325   0.624
38635W        W 3895  38.246   5.724   4.241
38636W        W 3896   5.650   6.788   3.821
38637W        W 3897  28.905  23.384  12.856
38638W        W 3898  38.603   7.913  11.883
38639W        W 3899  43.431  27.928   2.490
38640W        W 3900  17.442   9.118   0.249
38641W        W 3901   3.624  39.844   0.778
38642W        W 3902   7.206  18.496   4.809
38643W        W 3903  12.088  27.124   3.673
38644W        W 3904   2.004  36.811   1.577
38645W        W 3905  13.363  27.954   2.909
38646W        W 3906  41.450  15.891   2.434
38647W        W 3907   8.796  10.684   1.879
38648W        W 3908   7.197   9.441   0.781
38649W        W 3909   8.915  24.124  13.154
38650W        W 3910  10.816   8.731  13.681
38651W        W 3911  38.727  23.526   0.197
38652W        W 3912  17.622  18.510  11.136
38653W        W 3913  22.237  29.475  14.854
38654W        W 3914  16.680  10.062   3.323
38655W        W 3915  35.624  37.334   0.323
38656W        W 3916  35.431   9.380  14.843
38657W        W 3917  17.463   6.971   4.555
38658W        W 3918   8.344  10.927   3.803
38659W        W 3919  29.440  32.820   4.121
38660W        W 3920  20.486   0.165  12.941
38661W        W 3921  18.919  11.281  11.177
38662W        W 3922  37.005  34.938   0.533
38663W        W 3923  30.475  11.394   1.924
38664W        W 3924  27.628  42.900   0.025
38665W        W 3925   5.640  29.180  12.950
38666W        W 3926  20.214   4.663  10.597
38667W        W 3927  21.238  27.922  12.567
38668W        W 3928  43.587   7.615  13.699
38669W        W 3929  20.147  19.515  14.976
38670W        W 3930  21.186  10.205  12.116
38671W        W 3931  27.289  17.423   4.090
38672W        W 3932  12.053  10.515  14.577
38673W        W 3933  30.842   6.165  13.563
38674W        W 3934  11.461  30.160  11.613
38675W        W 3935   3.936  17.858   0.018
38676W        W 3936   9.927  18.218   4.391
38677W        W 3937  17.781   6.717  12.630
38678W        W 3938  27.715  12.085   2.669
38679W        W 3939  17.065  31.567  11.096
38680W        W 3940  22.235  20.811   1.205
38681W        W 3941   2.033  12.166  12.862
38682W        W 3942   6.031   5.757   1.773
38683W        W 3943   0.541  26.397  14.805
38684W        W 3944  30.557   5.295  10.644
38685W        W 3945  35.389   9.233   2.189
38686W        W 3946  11.280  43.976  12.194
38687W        W 3947  37.440   8.061   2.727
38688W        W 3948  25.854  36.600  10.183
38689W        W 3949  39.398  27.026   1.755
38690W        W 3950  18.569  42.380  12.534
38691W        W 3951  43.440  28.647  14.488
38692W        W 3952  15.584   0.691   1.459
38693W        W 3953   9.008  39.367  12.507
38694W        W 3954  29.761  22.620  14.490
38695W        W 3955  36.388  10.400  11.548
38696W        W 3956  18.381  15.302  14.264
38697W        W 3957  33.232  13.123   2.731
38698W        W 3958  15.865  16.106   1.770
38699W        W 3959  27.637  19.888  13.110
38700W        W 3960  39.639  39.372   0.768
38701W        W 3961   8.727  11.859  14.821
38702W        W 3962  12.600  18.702   0.851
38703W        W 3963  21.874  25.199   3.715
38704W        W 3964   7.704  23.844  12.433
38705W        W 3965   9.679  16.773  14.293
38706W        W 3966   7.740  42.241   4.265
38707W        W 3967  31.708  41.313   4.301
38708W        W 3968  26.874  29.014  14.460
38709W        W 3969  23.627  41.785  12.773
38710W        W 3970  11.172  32.476  13.869
38711W        W 3971  40.758   8.244   1.208
38712W        W 3972  36.362  34.310   0.503
38713W        W 3973  14.306  39.874  13.396
38714W        W 3974   3.272  27.720   3.117
38715W        W 3975  36.828  25.419   4.595
38716W        W 3976   0.830  27.374   2.178
38717W        W 3977  32.389  40.009   2.706
38718W        W 3978   3.343  36.429  13.024
38719W        W 3979   3.701  19.620   1.468
38720W        W 3980   2.888   3.379  12.906
38721W        W 3981  31.561  32.656   3.276
38722W        W 3982  40.424  26.860   1.719
38723W        W 3983  34.597   3.898   2.193
38724W        W 3984  20.303  23.095  14.582
38725W        W 3985  24.751   7.681   0.446
38726W        W 3986  22.720  21.907  11.231
38727W        W 3987   4.389  33.994  13.848
38728W        W 3988  16.345  38.527  10.349
38729W        W 3989  17.454  14.621   2.864
38730W        W 3990  38.858  26.508   9.805
38731W        W 3991  27.990  40.260  10.720
38732W        W 3992  40.986  41.486  11.170
38733W        W 3993  32.379  21.316  13.521
38734W        W 3994  25.893  35.857   0.862
38735W        W 3995  36.421   1.427  14.527
38736W        W 3996  20.187  28.150   3.322
38737W        W 3997  14.242  42.609  13.986
38738W        W 3998  44.843  16.188   5.668
38739W        W 3999  39.649  28.531   0.302
38740W        W 4000   7.297  26.123  13.309
38741W        W 4001   3.012  35.669  11.109
38742W        W 4002  13.605   5.712  12.644
38743W        W 4003   3.963  39.135  12.800
38744W        W 4004  13.076  16.896   0.841
38745W        W 4005  24.991  34.506  11.916
38746W        W 4006  27.550  36.374   3.536
38747W        W 4007  19.660   1.768   3.342
38748W        W 4008  38.791  34.281   2.921
38749W        W 4009  41.297   4.688  14.293
38750W        W 4010   0.369  37.125   0.398
38751W        W 4011  12.876  18.647  13.076
38752W        W 4012  10.649   2.063  11.504
38753W        W 4013  28.611  33.530   4.155
38754W        W 4014  31.582  30.887   3.699
38755W        W 4015  40.752   0.384   1.183
38756W        W 4016  37.628  34.911  13.065
38757W        W 4017   5.722  44.891   2.794
38758W        W 4018  29.588  39.005   3.914
38759W        W 4019  17.121   3.910  10.722
38760W        W 4020  40.337  23.319  13.975
38761W        W 4021  13.551   1.656  11.646
38762W        W 4022  24.688  23.294   1.805
38763W        W 4023  33.381  30.449   1.745
38764W        W 4024  35.720   2.717   1.107
38765W        W 4025   8.442  16.477  11.212
38766W        W 4026  28.002  41.848  11.559
38767W        W 4027   7.906  22.150  13.307
38768W        W 4028  32.479   7.344  10.536
38769W        W 4029   6.173   4.887   5.264
38770W        W 4030   4.774  31.188   0.690
38771W        W 4031  34.006   8.202  14.101
38772W        W 4032  34.566  41.576   3.246
38773W        W 4033   9.340  13.308  14.364
38774W        W 4034   2.973  13.191  14.813
38775W        W 4035   7.668  21.730  14.979
38776W        W 4036  38.586  21.121  12.761
38777W        W 4037   6.275  14.593  14.553
38778W        W 4038   3.503  31.626  13.400
38779W        W 4039  40.843  30.237   1.792
38780W        W 4040  36.855  28.053   3.282
38781W        W 4041  36.187  34.123   2.733
38782W        W 4042  44.501   3.360  11.156
38783W        W 4043  24.742  24.083  11.326
38784W        W 4044  36.874  30.119  12.474
38785W        W 4045  23.605  29.118  10.656
38786W        W 4046  43.640   3.002  11.089
38787W        W 4047  30.664  17.226   3.197
38788W        W 4048  22.948  35.999   3.218
38789W        W 4049  42.765  36.799   2.310
38790W        W 4050  19.246   4.686   4.643
38791W        W 4051  26.529  35.171   2.112
38792W        W 4052  21.766  11.767  14.426
38793W        W 4053  24.366  37.037   0.689
38794W        W 4054  36.814  38.602   4.871
38795W        W 4055   8.705  12.033   3.279
38796W        W 4056  15.735  40.320   4.150
38797W        W 4057  11.755  34.996  14.293
38798W        W 4058   9.859  12.728  11.834
38799W        W 4059   3.972  39.133  12.081
38800W        W 4060  40.500  11.598   1.433
38801W        W 4061  21.480  26.245   2.801
38802W        W 4062  30.728   5.797  13.958
38803W        W 4063   2.153  39.363   1.900
38804W        W 4064   7.258  22.104   0.254
38805W        W 4065   0.047  34.356   4.112
38806W        W 4066  17.601  34.014  10.558
38807W        W 4067  10.743  14.899  11.418
38808W        W 4068  14.192  31.612  10.951
38809W        W 4069  28.267  10.798  12.920
38810W        W 4070  42.227  21.501  12.573
38811W        W 4071   9.096  31.973  12.496
38812W        W 4072  10.609  10.079  12.431
38813W        W 4073  41.322  40.040  14.687
38814W        W 4074  12.126  24.013   0.398
38815W        W 4075   8.817  34.885  10.636
38816W        W 4076  37.488  23.983   3.540
38817W        W 4077  36.625  25.076  11.643
38818W        W 4078   7.432   7.505   0.800
38819W        W 4079  16.302   9.690   2.631
38820W        W 4080  31.600  33.222   0.887
38821W        W 4081  37.984  34.350   4.954
38822W        W 4082  40.673  44.804  14.261
38823W        W 4083   9.850  22.668   0.387
38824W        W 4084  23.929  25.464  12.837
38825W        W 4085  31.842  15.318   4.052
38826W        W 4086  36.913  32.652  14.976
38827W        W 4087  38.661  21.133  14.267
38828W        W 4088  38.794  34.790   2.966
38829W        W 4089  21.104  25.724   3.647
38830W        W 4090  26.519  29.168   4.293
38831W        W 4091  21.684  32.088  14.989
38832W        W 4092  37.614  23.763  13.882
38833W        W 4093  40.374   1.958  12.036
38834W        W 4094  18.697  16.198  13.506
38835W        W 4095  17.865  36.542  13.558
38836W        W 4096  33.897  32.106  14.796
38837W        W 4097   1.643   4.902  11.585
38838W        W 4098  33.592  24.927  11.607
38839W        W 4099  25.106  14.793   3.127
38840W        W 4100  27.950  11.843   3.450
38841W        W 4101  26.235  43.382  14.702
38842W        W 4102  24.942  33.897  13.612
38843W        W 4103   6.908   8.619  10.326
38844W        W 4104  14.226  21.303  11.260
38845W        W 4105   3.174  34.562   2.837
38846W        W 4106  44.222  21.680  10.764
38847W        W 4107  11.537  17.565   4.896
38848W        W 4108   1.911  18.638  12.962
38849W        W 4109  12.508  35.330  13.405
38850W        W 4110  22.955  18.074   1.749
38851W        W 4111  17.465  36.017   3.623
38852W        W 4112  38.971  26.681  14.793
38853W        W 4113  43.341   6.179  13.966
38854W        W 4114  38.796  26.051  13.472
38855W        W 4115  39.842  21.246   4.918
38856W        W 4116  32.429  10.430  11.991
38857W        W 4117  19.316   6.194   3.097
38858W        W 4118  17.787   4.933   1.837
38859W        W 4119  19.695  27.917   4.106
38860W        W 4120  34.949  44.476   0.847
38861W        W 4121  41.572  14.737   3.369
38862W        W 4122  12.910  28.004  14.193
38863W        W 4123  44.817   9.138  11.459
38864W        W 4124  10.700   3.283  13.055
38865W        W 4125   4.412  33.665  13.430
38866W        W 4126  35.314  36.440  11.393
38867W        W 4127  35.631  27.343   1.821
38868W        W 4128  26.658  13.338   3.260
38869W        W 4129  41.254  33.268   1.512
38870W        W 4130  21.244  36.372  12.901
38871W        W 4131  20.113  11.857  10.776
38872W        W 4132   2.930  18.052   4.769
38873W        W 4133  29.448  19.191   4.776
38874W        W 4134  10.071   5.373   3.136
38875W        W 4135  42.299  44.707  13.108
38876W        W 4136  37.836  26.058  12.542
38877W        W 4137  28.447  41.642  14.197
38878W        W 4138  38.388  11.138   0.192
38879W        W 4139   4.885  18.571   2.274
38880W        W 4140  42.698  34.317  14.970
38881W        W 4141  34.383  17.340   3.811
38882W        W 4142  35.916  15.566  12.337
38883W        W 4143   3.202  14.969  14.904
38884W        W 4144  13.120  34.106   1.272
38885W        W 4145  39.131   2.875   4.340
38886W        W 4146  44.942  39.015   3.315
38887W        W 4147  12.371  16.818   2.274
38888W        W 4148  38.835   6.361  13.359
38889W        W 4149  23.580  25.728  13.077
38890W        W 4150  27.634  14.179  12.902
38891W        W 4151  31.764  34.693  11.546
38892W        W 4152  26.496  28.083  12.607
38893W        W 4153  39.715   9.889  13.933
38894W        W 4154  44.005  21.585   0.745
38895W        W 4155  11.419  13.819  14.928
38896W        W 4156   9.216  16.309  12.894
38897W        W 4157  20.607  11.776  11.848
38898W        W 4158  37.327   0.821  13.383
38899W        W 4159   8.156   9.285   0.460
38900W        W 4160   3.139  20.225   4.178
38901W        W 4161  25.951  37.468  12.104
38902W        W 4162  15.645   5.847   5.102
38903W        W 4163  40.031   2.980   4.205
38904W        W 4164  36.589   6.780   3.760
38905W        W 4165  18.528  39.780   1.457
38906W        W 4166  28.885  21.727  11.475
38907W        W 4167  39.045  23.577  13.538
38908W        W 4168   5.767  21.721   3.931
38909W        W 4169   5.931  17.201  11.817
38910W        W 4170  23.034  25.503   0.812
38911W        W 4171  43.249  15.785  13.705
38912W        W 4172  15.033  39.534   3.732
38913W        W 4173  20.784  12.591  11.601
38914W        W 4174   7.771  30.783   3.694
38915W        W 4175  29.112  16.658   1.688
38916W        W 4176  43.904  12.104   2.840
38917W        W 4177  30.890  26.929   0.851
38918W        W 4178  21.801  26.357  14.485
38919W        W 4179  23.191  37.930  10.768
38920W        W 4180  28.330  38.030  14.269
38921W        W 4181  10.134   3.020  14.558
38922W        W 4182  37.794  19.568  13.445
38923W        W 4183  21.798  14.204  12.864
38924W        W 4184  20.314  44.013  12.909
38925W        W 4185  21.239   5.898  12.344
38926W        W 4186  22.061  36.794   2.690
38927W        W 4187  33.552  12.805   2.940
38928W        W 4188   3.767   0.985   4.548
38929W        W 4189  22.278  26.708   3.301
38930W        W 4190   7.034  29.629  11.868
38931W        W 4191  15.360  10.258   4.539
38932W        W 4192  39.933  10.370   1.759
38933W        W 4193   6.476  10.541   2.559
38934W        W 4194  37.682  28.469  12.740
38935W        W 4195  24.389  23.354   3.692
38936W        W 4196   9.753  18.667   0.708
38937W        W 4197  42.753  32.132   0.386
38938W        W 4198  34.365  21.075   1.438
38939W        W 4199   6.876  19.559   0.530
38940W        W 4200  20.747  37.511   0.325
38941W        W 4201  38.400  16.826  11.518
38942W        W 4202  29.374  33.102   0.572
38943W        W 4203  27.617  29.661   3.279
38944W        W 4204   0.886   0.758  12.859
38945W        W 4205  30.355  18.969  14.110
38946W        W 4206  19.238  13.383  14.690
38947W        W 4207  28.526  38.319   2.751
38948W        W 4208  40.625  40.095  13.454
38949W        W 4209  41.524  28.431   2.815
38950W        W 4210   0.700  29.046  14.593
38951W        W 4211   1.289  40.357   4.760
38952W        W 4212   7.429  19.470   4.544
38953W        W 4213  39.913   4.816  14.856
38954W        W 4214   1.824  15.601   1.786
38955W        W 4215  18.829  24.248   4.039
38956W        W 4216   0.740  17.181  11.557
38957W        W 4217  32.797  12.101   4.700
38958W        W 4218   6.317  32.514  10.186
38959W        W 4219  40.304  34.813   2.388
38960W        W 4220  40.504  34.073  12.491
38961W        W 4221   7.858  43.929  10.915
38962W        W 4222  40.530  12.290   4.709
38963W        W 4223  41.675  32.333  14.390
38964W        W 4224  36.437  32.729  11.814
38965W        W 4225  17.323  38.562  11.607
38966W        W 4226  19.973  12.286  11.463
38967W        W 4227  28.602  37.108  10.945
38968W        W 4228   5.842   4.246  14.563
38969W        W 4229   5.940  29.010  14.234
38970W        W 4230   6.186  36.068   2.142
38971W        W 4231  34.089   2.520   5.006
38972W        W 4232   5.508  15.938  12.042
38973W        W 4233  10.347  29.008   0.932
38974W        W 4234   5.723  32.031  10.461
38975W        W 4235  12.617  36.448  13.765
38976W        W 4236  20.283   4.751  12.862
38977W        W 4237  12.258  12.191  13.077
38978W        W 4238  14.855  20.301   1.809
38979W        W 4239  36.816  40.436   2.904
38980W        W 4240   1.987  23.211   4.613
38981W        W 4241  28.098  44.820   4.248
38982W        W 4242   4.754  17.073  11.079
38983W        W 4243  14.142  41.611  13.935
38984W        W 4244  35.972  30.335   1.825
38985W        W 4245  37.055  16.673   3.601
38986W        W 4246  16.406  16.266  13.192
38987W        W 4247  22.907   0.985  14.050
38988W        W 4248   8.594   4.492   2.752
38989W        W 4249  21.584   7.120  14.830
38990W        W 4250  43.558  27.276  12.648
38991W        W 4251  35.813  18.713   4.541
38992W        W 4252  20.268  39.545  13.727
38993W        W 4253  23.184  23.250   1.192
38994W        W 4254  22.986  31.151   4.020
38995W        W 4255  15.111   2.433  14.875
38996W        W 4256   1.047  21.223   3.170
38997W        W 4257  37.039  12.576  12.440
38998W        W 4258   4.940  21.368  12.486
38999W        W 4259  35.874  11.836  12.824
39000W        W 4260   9.831  25.549  12.835
39001W        W 4261   2.463  24.385   2.344
39002W        W 4262  42.022  32.902  14.970
39003W        W 4263  21.904  40.226  11.869
39004W        W 4264  26.006   9.919  14.767
39005W        W 4265  24.628  42.414   4.945
39006W        W 4266   7.826   6.786  14.720
39007W        W 4267  36.544   5.512  12.488
39008W        W 4268   7.858  18.549  11.292
39009W        W 4269  15.897  22.547   3.138
39010W        W 4270   8.824  38.415  13.534
39011W        W 4271   9.170  32.953  10.985
39012W        W 4272  21.525  18.366  10.224
39013W        W 4273   8.764  25.533   4.990
39014W        W 4274  39.114   5.949  14.330
39015W        W 4275  38.417  11.329   2.691
39016W        W 4276  41.087  16.779  11.618
39017W        W 4277  43.240  32.168  10.126
39018W        W 4278  34.038   2.963   1.821
39019W        W 4279   8.921  14.621  11.198
39020W        W 4280  32.905  36.942  12.455
39021W        W 4281  32.812  33.623   1.008
39022W        W 4282  44.835  30.922   4.105
39023W        W 4283   2.672  15.603  12.656
39024W        W 4284   4.004   9.091   4.747
39025W        W 4285  40.458  35.494  14.333
39026W        W 4286  32.129  16.321   1.803
39027W        W 4287  30.451  39.732  11.172
39028W        W 4288  29.542  41.415   0.395
39029W        W 4289  36.560  29.495   5.389
39030W        W 4290  44.760   9.367  10.166
39031W        W 4291  19.408  36.702  13.384
39032W        W 4292  44.708   0.005  13.877
39033W        W 4293   3.947  24.610  14.973
39034W        W 4294  28.617  38.775   2.473
39035W        W 4295  38.794  26.473   3.088
39036W        W 4296  44.551  38.719   3.824
39037W        W 4297  11.972  30.477   4.163
39038W        W 4298  22.534   1.786  13.885
39039W        W 4299  24.743   3.272  14.966
39040W        W 4300  11.774   4.688  10.889
39041W        W 4301  13.233  32.641   2.781
39042W        W 4302  31.476  41.559   3.887
39043W        W 4303  23.659  13.554   4.275
39044W        W 4304  11.880  32.915  14.383
39045W        W 4305   4.146  44.771   4.780
39046W        W 4306  17.669   3.967  13.054
39047W        W 4307  24.886  36.847  11.998
39048W        W 4308  33.001   4.785  11.191
39049W        W 4309  16.239   1.456   2.270
39050W        W 4310  13.323   0.695   4.622
39051W        W 4311  40.994  24.961  14.930
39052W        W 4312  36.490  26.131   1.420
39053W        W 4313  31.043  32.942   4.103
39054W        W 4314   0.420  26.571  12.974
39055W        W 4315  33.850  37.834   4.553
39056W        W 4316  15.092  11.186  14.383
39057W        W 4317   6.395  39.388   2.136
39058W        W 4318   9.634  44.240   2.661
39059W        W 4319  36.018  24.134  13.081
39060W        W 4320  28.486  43.503   2.363
39061W        W 4321  14.671  26.661  13.492
39062W        W 4322  11.256  40.949  12.580
39063W        W 4323   2.019  35.873  12.043
39064W        W 4324  42.946  13.090   2.871
39065W        W 4325  40.325  24.962   3.630
39066W        W 4326   1.296  17.689  14.801
39067W        W 4327  15.651   4.360   4.955
39068W        W 4328  15.148  43.078  13.293
39069W        W 4329  43.998  38.516  13.068
39070W        W 4330  29.069  28.546   4.666
39071W        W 4331  41.257   0.301  12.117
39072W        W 4332  22.727  20.183   2.670
39073W        W 4333  30.548  26.063   1.829
39074W        W 4334  43.848   3.875  13.513
39075W        W 4335  31.371  44.053  12.057
39076W        W 4336  36.553  17.803  10.953
39077W        W 4337  17.744  27.959  12.060
39078W        W 4338  10.313  17.775   2.207
39079W        W 4339  35.822  15.114  13.170
39080W        W 4340  30.205  31.597   3.034
39081W        W 4341  30.946  23.689   3.362
39082W        W 4342   1.880  28.493  10.570
39083W        W 4343   7.944  33.504  13.304
39084W        W 4344  40.885  39.309   3.851
39085W        W 4345  28.964  30.334   1.170
39086W        W 4346  10.331  21.620   4.508
39087W        W 4347   0.283  25.941  14.748
39088W        W 4348   3.900  40.859  13.590
39089W        W 4349  22.516  32.818  11.829
39090W        W 4350   4.126   9.037  10.631
39091W        W 4351  15.243  30.544   1.229
39092W        W 4352   5.243  41.234   1.407
39093W        W 4353   3.173  12.270   0.046
39094W        W 4354  33.506  19.987  12.591
39095W        W 4355   1.229  21.172   0.786
39096W        W 4356  31.295   4.133   3.326
39097W        W 4357  44.620  35.346  11.593
39098W        W 4358  11.832   7.265   4.494
39099W        W 4359  41.700  17.614  11.141
39100W        W 4360  14.250  16.113   4.940
39101W        W 4361  11.980  41.135  11.516
39102W        W 4362  32.184  29.494  12.492
39103W        W 4363  39.544  10.074  10.858
39104W        W 4364  21.103  38.819  12.899
39105W        W 4365  28.884  18.129   1.612
39106W        W 4366  44.227  25.216   2.694
39107W        W 4367   0.852   0.372  14.177
39108W        W 4368  42.932  32.718   4.624
39109W        W 4369   1.972  37.033   3.759
39110W        W 4370   4.155  17.359  10.265
39111W        W 4371  44.708  19.534   0.842
39112W        W 4372  12.351  31.726   0.482
39113W        W 4373  25.255  35.941   5.301
39114W        W 4374  19.747   2.439  12.726
39115W        W 4375  16.727  29.893  11.884
39116W        W 4376  25.077  34.569   0.412
39117W        W 4377  15.793  18.087   0.311
39118W        W 4378   5.354  29.254   0.307
39119W        W 4379  10.665  21.463  13.477
39120W        W 4380   0.271  27.367  14.897
39121W        W 4381  21.048  29.122  13.893
39122W        W 4382   6.216  17.307   0.950
39123W        W 4383  20.733  34.523  11.470
39124W        W 4384   1.394  19.999  10.561
39125W        W 4385  11.325  31.060  11.979
39126W        W 4386  24.572  30.927   3.339
39127W        W 4387  24.056  18.805   1.397
39128W        W 4388   1.769  24.290  11.698
39129W        W 4389  15.856  32.614  12.437
39130W        W 4390  38.110   9.866   1.888
39131W        W 4391  15.844  37.023   2.714
39132W        W 4392  11.623  15.896  14.259
39133W        W 4393   8.948  36.336   5.180
39134W        W 4394   9.792  43.284   3.000
39135W        W 4395  24.667  28.062  13.919
39136W        W 4396  20.042  27.097  13.025
39137W        W 4397   7.681   4.732   1.182
39138W        W 4398  11.082  20.548  12.993
39139W        W 4399  21.322  26.019   2.316
39140W        W 4400  32.733  10.402   2.308
39141W        W 4401  44.245  29.317  14.192
39142W        W 4402  15.051  30.627   4.336
39143W        W 4403  42.542  37.538  11.431
39144W        W 4404  35.853   7.811   1.847
39145W        W 4405  27.144  34.346   2.794
39146W        W 4406  17.289  37.657  14.012
39147W        W 4407  42.018  34.277  12.321
39148W        W 4408  27.480  16.488  13.598
39149W        W 4409   2.848  28.355  12.787
39150W        W 4410  29.586   8.707  11.665
39151W        W 4411   4.216   5.743   2.300
39152W        W 4412  33.173  15.062   4.251
39153W        W 4413  19.264  11.324   4.749
39154W        W 4414  15.065  17.871   4.024
39155W        W 4415  33.449  44.290  14.777
39156W        W 4416  38.655   6.765   1.429
39157W        W 4417  39.489  31.079   0.837
39158W        W 4418  25.962   7.960   4.143
39159W        W 4419   5.731  15.805  11.602
39160W        W 4420  17.781  12.356  14.255
39161W        W 4421  13.921  12.704   4.151
39162W        W 4422  15.304  44.458  10.625
39163W        W 4423  19.592  23.959   1.941
39164W        W 4424  32.026  15.704   4.383
39165W        W 4425  14.670   7.793   1.956
39166W        W 4426  21.632  26.421  13.775
39167W        W 4427  12.700  40.960   4.330
39168W        W 4428   8.853  17.377  13.937
39169W        W 4429  20.475  21.513  12.412
39170W        W 4430  10.292  29.263   2.172
39171W        W 4431  30.686  23.587  13.058
39172W        W 4432  37.958  16.273  11.591
39173W        W 4433  23.700  22.958   0.012
39174W        W 4434  37.567  20.615   4.416
39175W        W 4435  15.839   0.379   1.759
39176W        W 4436  31.959   4.565  13.390
39177W        W 4437  42.131  36.841   2.806
39178W        W 4438  44.784  11.315  12.104
39179W        W 4439  32.108  27.108   4.290
39180W        W 4440  18.903  22.570   4.321
39181W        W 4441  23.184  15.624  11.648
39182W        W 4442  38.424  13.590   0.935
39183W        W 4443  44.372  25.368   3.991
39184W        W 4444  10.167  32.891  11.418
39185W        W 4445  14.188   8.228  10.328
39186W        W 4446  24.742  35.431   2.786
39187W        W 4447   8.470  30.967  11.944
39188W        W 4448  15.046  19.180   3.786
39189W        W 4449  12.844  10.344   3.253
39190W        W 4450  32.489  40.786  11.610
39191W        W 4451  41.499  36.967   1.903
39192W        W 4452   8.517   9.520  10.074
39193W        W 4453  20.955   2.309  12.373
39194W        W 4454  29.203  40.846  12.117
39195W        W 4455  27.509  20.982   4.103
39196W        W 4456  35.467  31.704   2.791
39197W        W 4457  37.166   6.832   1.732
39198W        W 4458  43.196  34.964   2.699
39199W        W 4459  25.009  34.549   4.649
39200W        W 4460   5.428   5.477   2.702
39201W        W 4461  44.454  39.385  11.569
39202W        W 4462  15.927  30.041  14.003
39203W        W 4463  39.385  42.918  11.657
39204W        W 4464   1.709  33.571  11.067
39205W        W 4465  33.449  29.044   1.400
39206W        W 4466   9.670  24.725  11.882
39207W        W 4467  12.189  39.401   1.013
39208W        W 4468   8.388  40.503  13.191
39209W        W 4469  37.583  35.814  11.571
39210W        W 4470  34.073  27.015  12.484
39211W        W 4471  42.459   6.607  12.974
39212W        W 4472   1.989   3.744  12.946
39213W        W 4473  12.790  19.509  10.632
39214W        W 4474  17.183   5.789  13.439
39215W        W 4475   5.537  19.226   3.708
39216W        W 4476  44.359  36.075  13.916
39217W        W 4477  38.195  37.791  14.808
39218W        W 4478  13.004  33.489  11.142
39219W        W 4479  31.081  25.637  13.782
39220W        W 4480  31.024  18.147  14.807
39221W        W 4481  19.128   0.043   4.656
39222W        W 4482  12.044  19.656   1.749
39223W        W 4483  38.810   6.509  12.517
39224W        W 4484  24.221  41.953  14.977
39225W        W 4485   3.174  37.252   4.654
39226W        W 4486  40.535  18.652  13.365
39227W        W 4487   8.518  37.333  14.699
39228W        W 4488   2.176  14.790   3.644
39229W        W 4489   6.446  15.794  10.301
39230W        W 4490  32.628  12.246  10.717
39231W        W 4491  44.015  15.065  11.645
39232W        W 4492  32.047   3.135   1.908
39233W        W 4493   9.539  20.551   1.708
39234W        W 4494  15.257  41.499   1.857
39235W        W 4495  13.054  31.888   2.279
39236W        W 4496  14.389   6.032  14.713
39237W        W 4497   5.747  10.223   2.227
39238W        W 4498  21.952  28.095   3.638
39239W        W 4499  36.951  15.118   3.726
39240W        W 4500   3.686  40.794   4.545
39241W        W 4501  13.309  20.069   2.771
39242W        W 4502  27.464  35.865  14.733
39243W        W 4503  43.530   9.729   4.645
39244W        W 4504   4.717  41.317  13.080
39245W        W 4505  23.455  17.106  13.530
39246W        W 4506  24.027  34.977  14.099
39247W        W 4507  20.843  34.860   3.831
39248W        W 4508  32.463   8.394   4.669
39249W        W 4509  39.975  11.794  13.404
39250W        W 4510  35.259  44.840  11.558
39251W        W 4511  39.511  20.981  13.004
39252W        W 4512  33.350  27.022  13.575
39253W        W 4513  37.636   7.774   2.253
39254W        W 4514  21.708  26.667   0.358
39255W        W 4515  31.669  29.446   2.074
39256W        W 4516  28.961  42.941   4.317
39257W        W 4517  20.306   4.190   0.978
39258W        W 4518  43.884  11.274  14.251
39259W        W 4519  25.243  32.522  14.274
39260W        W 4520  37.634  15.089   2.947
39261W        W 4521  20.696  26.707   1.768
39262W        W 4522   2.297  23.500  12.576
39263W        W 4523  38.003  23.373   3.197
39264W        W 4524  28.220  39.063  11.095
39265W        W 4525  18.668  29.640   2.400
39266W        W 4526  25.729  31.576  11.571
39267W        W 4527  43.912  10.544   5.468
39268W        W 4528  37.859  26.198   0.106
39269W        W 4529  25.645  23.080  10.753
39270W        W 4530   9.878  31.625   4.596
39271W        W 4531  13.233  22.097  11.324
39272W        W 4532  10.472  34.783   2.339
39273W        W 4533  39.592  26.014   1.992
39274W        W 4534  43.334  16.641  12.273
39275W        W 4535  38.983  43.020  14.357
39276W        W 4536  21.273  15.701   0.464
39277W        W 4537  33.544   3.203   3.608
39278W        W 4538  27.892  42.358   3.783
39279W        W 4539   8.117   4.935   0.807
39280W        W 4540  30.632  27.228  14.482
39281W        W 4541   8.133   5.867   2.002
39282W        W 4542   4.014  29.427  12.067
39283W        W 4543  26.610   6.693  14.330
39284W        W 4544  35.081  40.887   0.924
39285W        W 4545  12.113  39.863  11.444
39286W        W 4546  22.705  26.561   3.551
39287W        W 4547   6.270  22.047   0.687
39288W        W 4548   1.962  16.864   3.541
39289W        W 4549  11.120  27.619   2.622
39290W        W 4550   6.805  16.578   0.337
39291W        W 4551   4.909   7.327  12.508
39292W        W 4552   3.117   0.286  12.401
39293W        W 4553  21.230  32.316  12.949
39294W        W 4554  14.617  24.598  13.874
39295W        W 4555  36.050  44.330  11.662
39296W        W 4556  19.318  17.347   4.256
39297W        W 4557  13.292  28.198   3.378
39298W        W 4558  12.344  31.906   3.577
39299W        W 4559  22.343  19.824  14.377
39300W        W 4560  27.932  20.452   1.895
39301W        W 4561  12.621  11.246  12.929
39302W        W 4562  29.442   4.258  14.781
39303W        W 4563  33.139  31.855   3.304
39304W        W 4564   3.334   4.995   3.519
39305W        W 4565  38.043   8.067   2.013
39306W        W 4566  33.484  13.675   1.890
39307W        W 4567  12.161  33.942  12.615
39308W        W 4568  26.461  39.087   3.720
39309W        W 4569  11.176  25.136  13.789
39310W        W 4570   0.253  31.614   4.087
39311W        W 4571   4.508  24.762  14.080
39312W        W 4572  31.113  24.084   4.574
39313W        W 4573  30.352   4.709   4.997
39314W        W 4574  30.030   7.818   4.378
39315W        W 4575  24.981   6.263  10.793
39316W        W 4576  31.537  21.404  14.005
39317W        W 4577   6.419  26.107  14.752
39318W        W 4578   4.632  16.862   1.604
39319W        W 4579  10.427   2.790   3.754
39320W        W 4580  21.759  38.607   2.893
39321W        W 4581  14.739   9.202  11.074
39322W        W 4582  34.820   1.689  11.591
39323W        W 4583  37.127  39.076  11.174
39324W        W 4584  37.577  12.076  13.585
39325W        W 4585  24.594  32.876   1.246
39326W        W 4586  33.258  12.880  13.429
39327W        W 4587  23.622  11.229  10.745
39328W        W 4588   3.688  22.320  11.491
39329W        W 4589  33.421  37.379  13.941
39330W        W 4590   1.513  20.965   4.112
39331W        W 4591   6.116  35.114   3.326
39332W        W 4592  30.203  15.053  11.546
39333W        W 4593   4.166  41.835  11.430
39334W        W 4594   5.891  23.983   2.450
39335W        W 4595  17.020  24.608  11.830
39336W        W 4596   7.429  42.551   2.639
39337W        W 4597  18.328  41.272  12.375
39338W        W 4598  34.920  19.788  10.231
39339W        W 4599   8.845  11.393   1.091
39340W        W 4600  39.469  24.741   1.245
39341W        W 4601  19.990  15.207  14.339
39342W        W 4602  10.724   3.924  13.899
39343W        W 4603  20.545  17.778  12.378
39344W        W 4604  13.048  18.637  12.133
39345W        W 4605  28.858  27.939   2.289
39346W        W 4606  30.820  25.252   1.448
39347W        W 4607  15.383  39.228  11.635
39348W        W 4608   7.541  15.552   4.188
39349W        W 4609  15.056  10.894  13.952
39350W        W 4610  44.363  11.053   2.184
39351W        W 4611   7.701   8.155  11.542
39352W        W 4612  38.627  24.276  13.833
39353W        W 4613  23.279  11.656   0.390
39354W        W 4614  14.699  42.757  11.025
39355W        W 4615  29.205   8.861  14.001
39356W        W 4616  32.114   3.893   3.471
39357W        W 4617  18.832  25.171   2.845
39358W        W 4618  17.881  23.078  12.449
39359W        W 4619  34.086   5.244  10.359
39360W        W 4620  17.525  20.038   4.022
39361W        W 4621   9.531   9.004   4.270
39362W        W 4622  16.467  11.836   4.554
39363W        W 4623  22.777  11.796   0.356
39364W        W 4624  22.742  33.670  14.534
39365W        W 4625  21.065   0.346  14.614
39366W        W 4626  38.817  13.784  12.965
39367W        W 4627  21.006   2.448   3.179
39368W        W 4628   8.754   1.287   4.629
39369W        W 4629  29.956  16.898  12.813
39370W        W 4630  32.470  22.200  12.917
39371W        W 4631  39.321  35.584   2.555
39372W        W 4632  31.690  21.381  11.893
39373W        W 4633  19.848  38.265   2.262
39374W        W 4634  43.330  18.679   1.870
39375W        W 4635   9.655  37.001  10.495
39376W        W 4636  19.113  24.651   3.828
39377W        W 4637  11.237  19.209   3.409
39378W        W 4638  27.394  35.397  14.980
39379W        W 4639  43.558  29.401   0.922
39380W        W 4640   6.135  28.674   1.009
39381W        W 4641  13.771  16.645  11.629
39382W        W 4642  14.357  26.567   2.307
39383W        W 4643  12.227  26.251   3.773
39384W        W 4644  32.082  38.439  10.453
39385W        W 4645   8.454   1.743   4.577
39386W        W 4646  10.421  37.805   3.400
39387W        W 4647  42.353  35.893  11.234
39388W        W 4648  28.959  33.399   2.807
39389W        W 4649  19.110  41.453   0.379
39390W        W 4650   4.646  14.316  12.058
39391W        W 4651  41.416   6.466   1.321
39392W        W 4652  37.019  32.472  10.651
39393W        W 4653  13.018  12.562   2.764
39394W        W 4654  10.529   5.609   3.159
39395W        W 4655  18.165  18.862  13.326
39396W        W 4656  26.032  25.474   1.941
39397W        W 4657  28.695  28.620   0.388
39398W        W 4658  32.374  40.883  12.615
39399W        W 4659  27.728  32.140   1.131
39400W        W 4660   9.880   4.325  13.457
39401W        W 4661  22.149   0.391  10.697
39402W        W 4662  43.418  36.853   0.708
39403W        W 4663   1.378  16.233  12.412
39404W        W 4664  40.560  16.238  14.504
39405W        W 4665  29.146  32.048  12.364
39406W        W 4666  21.955  16.392  11.031
39407W        W 4667  12.758  33.839   3.150
39408W        W 4668  42.759  40.370  12.159
39409W        W 4669  32.708  21.935   4.954
39410W        W 4670   9.841  39.939  12.479
39411W        W 4671   0.558  31.269   2.860
39412W        W 4672  36.338  13.114  12.716
39413W        W 4673  44.413  19.669   2.350
39414W        W 4674  39.865  23.761  13.046
39415W        W 4675   2.275   4.241  11.997
39416W        W 4676  17.150   0.495  12.168
39417W        W 4677  26.063   5.995   4.124
39418W        W 4678   5.518  44.426   2.870
39419W        W 4679  10.982  38.464   0.758
39420W        W 4680  17.295  35.463   4.234
39421W        W 4681  44.931  10.635  13.702
39422W        W 4682  19.206  38.993  14.854
39423W        W 4683  32.500  19.323  13.026
39424W        W 4684  21.423  40.102   3.822
39425W        W 4685  38.500   8.891  14.694
39426W        W 4686  25.753  36.453  14.038
39427W        W 4687  25.085  17.699   4.465
39428W        W 4688   9.681  26.029  11.584
39429W        W 4689  41.611   3.229  11.123
39430W        W 4690  17.816  29.643   2.674
39431W        W 4691   6.924  30.095   1.286
39432W        W 4692  14.475   4.107   3.706
39433W        W 4693  41.523  44.939  11.861
39434W        W 4694  11.868  38.781  13.826
39435W        W 4695  39.266   5.653   4.448
39436W        W 4696  38.944  28.956   4.949
39437W        W 4697  36.086  39.807   4.653
39438W        W 4698  42.547   5.809   1.339
39439W        W 4699  21.523  43.778  11.483
39440W        W 4700  18.579  25.172   4.205
39441W        W 4701   2.874  41.574   0.028
39442W        W 4702  16.265   4.203  12.552
39443W        W 4703  29.619   8.195  13.355
39444W        W 4704  11.118  25.646  10.505
39445W        W 4705  11.123  29.645  10.816
39446W        W 4706  30.004   7.921  10.688
39447W        W 4707  40.974  43.224   3.314
39448W        W 4708   3.758  37.860  12.182
39449W        W 4709  38.046   6.401  11.162
39450W        W 4710  12.690  36.362   1.278
39451W        W 4711  26.253   7.582   1.269
39452W        W 4712  21.313  44.476  11.713
39453W        W 4713   3.449  42.183  14.942
39454W        W 4714  35.624  36.834  11.203
39455W        W 4715  28.899  29.561  11.427
39456W        W 4716  17.088  16.728   4.162
39457W        W 4717  41.257  23.022  14.823
39458W        W 4718  27.618  24.896  11.635
39459W        W 4719   4.277  38.261   4.607
39460W        W 4720  23.926   1.422  13.444
39461W        W 4721  12.220  12.343   4.644
39462W        W 4722   5.561  39.901   4.119
39463W        W 4723  12.209   8.208  12.875
39464W        W 4724   9.324  16.130   2.899
39465W        W 4725  17.067  17.601  12.099
39466W        W 4726  35.202   5.840   3.110
39467W        W 4727  15.263  18.992  10.998
39468W        W 4728  36.371  28.003  13.786
39469W        W 4729  19.735  17.556  13.151
39470W        W 4730   6.208  44.899   0.287
39471W        W 4731  33.391  31.558  14.192
39472W        W 4732  17.021  17.173   1.928
39473W        W 4733   6.331  16.074   0.457
39474W        W 4734  34.086  31.969  10.624
39475W        W 4735  21.632  35.967   2.661
39476W        W 4736  13.157  29.224  11.061
39477W        W 4737  40.374   1.805  12.892
39478W        W 4738  38.067  39.486  12.026
39479W        W 4739  26.031  33.698  12.337
39480W        W 4740  29.044  38.314   3.801
39481W        W 4741  16.428  12.214   1.683
39482W        W 4742  39.611  35.879   2.242
39483W        W 4743   1.098  13.534   1.902
39484W        W 4744  12.301  13.102   1.633
39485W        W 4745  39.082  20.533  14.811
39486W        W 4746  12.371  30.958   1.926
39487W        W 4747  15.547  37.393  14.734
39488W        W 4748  13.299   1.066   0.629
39489W        W 4749  25.520  16.738  14.589
39490W        W 4750  29.293  35.621  11.229
39491W        W 4751  15.831   1.764   2.954
39492W        W 4752  14.815   3.903  14.339
39493W        W 4753   2.483  40.890   0.993
39494W        W 4754  14.717  40.653  13.606
39495W        W 4755  27.569  35.336   1.888
39496W        W 4756  19.630  38.755   2.240
39497W        W 4757  22.992  41.309   3.646
39498W        W 4758  10.686  10.234  14.468
39499W        W 4759   9.323   7.926  14.435
39500W        W 4760  27.888  38.941  13.363
39501W        W 4761  13.259  30.682   3.050
39502W        W 4762   8.435  19.187   4.268
39503W        W 4763  31.916  32.126  11.149
39504W        W 4764  34.844   4.336   1.465
39505W        W 4765  27.223  25.672  13.862
39506W        W 4766  29.174   3.610  14.231
39507W        W 4767  31.979   5.707   4.255
39508W        W 4768  44.952  31.883   2.780
39509W        W 4769   2.280   5.960   1.431
39510W        W 4770  31.568  17.507   0.181
39511W        W 4771  34.800   8.766   0.017
39512W        W 4772   2.738  19.807   0.299
39513W        W 4773  39.933  40.365   0.203
39514W        W 4774  44.771  29.924   0.476
39515W        W 4775  29.574  33.947   4.713
39516W        W 4776  31.980  19.284  12.504
39517W        W 4777  43.292  33.350   2.392
39518W        W 4778  44.201  44.074  13.268
39519W        W 4779   7.902  17.861  14.285
39520W        W 4780  27.746  36.936   2.397
39521W        W 4781   7.897  24.055   5.107
39522W        W 4782   7.364  42.871   4.985
39523W        W 4783  23.665  40.865   3.025
39524W        W 4784  22.257   2.306  12.174
39525W        W 4785  31.119  14.755   1.278
39526W        W 4786  19.543  22.443   2.549
39527W        W 4787  16.028  40.585  14.531
39528W        W 4788   5.679  14.567  12.039
39529W        W 4789  18.392  11.948   5.059
39530W        W 4790  23.320   6.521   4.897
39531W        W 4791  42.881   7.113   3.318
39532W        W 4792  20.596  14.791   2.112
39533W        W 4793  37.787  30.692   2.647
39534W        W 4794  26.736  16.118  11.027
39535W        W 4795   2.801  10.913   2.311
39536W        W 4796  17.558  35.912  11.953
39537W        W 4797  23.710   1.135   4.108
39538W        W 4798  10.832  44.732  13.313
39539W        W 4799  30.436  28.207   3.214
39540W        W 4800  22.273  40.319  14.097
39541W        W 4801  29.100   5.166  12.460
39542W        W 4802  10.542  10.224  11.195
39543W        W 4803  40.283   6.213   1.306
39544W        W 4804  17.443  31.219  13.486
39545W        W 4805  42.712  31.771  13.915
39546W        W 4806  29.402  25.913   4.541
39547W        W 4807  10.376  38.652   0.284
39548W        W 4808   4.663  27.154  11.588
39549W        W 4809  11.360  35.876   3.912
39550W        W 4810   2.828   8.583  12.494
39551W        W 4811  38.492  14.803  14.079
39552W        W 4812  43.469  26.383  10.522
39553W        W 4813  30.974  37.594  10.593
39554W        W 4814  43.369   8.400   3.739
39555W        W 4815  23.942  16.198   5.036
39556W        W 4816   0.316  28.866   4.660
39557W        W 4817  17.378  34.863   1.272
39558W        W 4818  22.258  20.603  11.877
39559W        W 4819  21.760  10.036  13.223
39560W        W 4820   5.377  43.263  13.420
39561W        W 4821  25.396  35.510   1.654
39562W        W 4822   6.437  13.126  14.374
39563W        W 4823   1.826  27.656  10.054
39564W        W 4824  24.546  31.147   3.812
39565W        W 4825  21.129  29.498   4.174
39566W        W 4826  27.021  28.991  12.086
39567W        W 4827  28.537   1.674  14.449
39568W        W 4828  13.558  10.756  11.873
39569W        W 4829   8.303  38.834  12.897
39570W        W 4830  13.988  41.973  14.312
39571W        W 4831  12.396   1.717  13.505
39572W        W 4832  18.535  42.540   0.207
39573W        W 4833  23.651  38.212   5.038
39574W        W 4834   7.584  26.900   9.905
39575W        W 4835  41.719  20.609  12.670
39576W        W 4836  32.543   4.423   1.067
39577W        W 4837  37.876   4.722   1.474
39578W        W 4838  28.238  33.636  14.498
39579W        W 4839   6.505  36.194   4.046
39580W        W 4840   1.736  34.491   2.097
39581W        W 4841  30.758   3.791   4.127
39582W        W 4842  21.722  30.397   2.799
39583W        W 4843  18.141  20.762   0.808
39584W        W 4844  38.431  28.011  12.489
39585W        W 4845  24.115  30.181  13.957
39586W        W 4846  35.441  10.753  11.230
39587W        W 4847  28.335  33.527  12.165
39588W        W 4848  41.835  35.250  11.007
39589W        W 4849   5.348  12.878   2.822
39590W        W 4850  20.218  16.374   2.847
39591W        W 4851  41.966   2.462   1.892
39592W        W 4852  25.639   8.917  10.908
39593W        W 4853   1.835   2.661  11.212
39594W        W 4854  28.544  10.698  14.835
39595W        W 4855  13.327  15.169   1.652
39596W        W 4856  40.998  39.464   1.758
39597W        W 4857  35.347  12.460  14.860
39598W        W 4858   0.250  34.185   2.813
39599W        W 4859  30.506  42.541   2.794
39600W        W 4860  24.194  34.727   1.811
39601W        W 4861  21.756  36.381  12.967
39602W        W 4862  40.288  26.001  13.532
39603W        W 4863  37.052   7.647   1.319
39604W        W 4864  41.627  15.560   3.851
39605W        W 4865  28.957   9.272   3.034
39606W        W 4866  37.246  20.026  12.975
39607W        W 4867  35.993  43.522  10.664
39608W        W 4868  39.498  29.398   0.092
39609W        W 4869  29.056  28.860  11.185
39610W        W 4870  34.374   8.833   3.737
39611W        W 4871  23.871  39.607  11.126
39612W        W 4872  37.849  43.329  11.521
39613W        W 4873   8.270  21.056  14.503
39614W        W 4874  27.709  38.589   1.351
39615W        W 4875   7.483  39.771  14.855
39616W        W 4876   6.358  43.543   4.171
39617W        W 4877  30.954  35.326   2.465
39618W        W 4878   0.251   3.717  10.515
39619W        W 4879  22.809  39.421   4.531
39620W        W 4880  20.441   5.345   4.653
39621W        W 4881  35.887   2.207   2.873
39622W        W 4882   8.458  39.194   0.432
39623W        W 4883  40.021  16.659   1.805
39624W        W 4884  40.941  12.551   2.258
39625W        W 4885  32.174  17.571   1.360
39626W        W 4886  10.846  38.362  11.978
39627W        W 4887  30.414  42.862  11.118
39628W        W 4888   4.578   1.850  12.508
39629W        W 4889  21.034   3.247  12.737
39630W        W 4890  27.015  42.062  14.753
39631W        W 4891  24.552  13.243  14.946
39632W        W 4892  27.677  44.944  13.866
39633W        W 4893  44.391  41.838  10.489
39634W        W 4894  23.271   9.774   2.727
39635W        W 4895  31.999  38.352  14.864
39636W        W 4896   0.340  42.781  14.103
39637W        W 4897   2.048  21.466  12.613
39638W        W 4898  22.570  28.875  12.188
39639W        W 4899   1.697  28.231  12.126
39640W        W 4900  22.849  43.830   0.707
39641W        W 4901  11.311  31.733  14.851
39642W        W 4902  10.859   5.705  13.031
39643W        W 4903  15.038   7.693   4.156
39644W        W 4904  11.196  30.958  13.904
39645W        W 4905   1.794  23.703   5.371
39646W        W 4906  12.745  34.176  11.741
39647W        W 4907   5.073  23.189  13.373
39648W        W 4908  29.041   6.189   1.885
39649W        W 4909  30.174   9.304   4.372
39650W        W 4910  35.804  42.830   4.188
39651W        W 4911  44.529  37.352   3.801
39652W        W 4912   3.471  41.496  10.721
39653W        W 4913  34.109   3.810  10.246
39654W        W 4914  15.823  41.720  11.056
39655W        W 4915  29.966   1.317   2.322
39656W        W 4916  33.644  34.504  13.969
39657W        W 4917  29.977  23.148   3.564
39658W        W 4918  31.667  43.591  14.344
39659W        W 4919  15.121  41.581  14.828
39660W        W 4920   6.691  40.118   1.962
39661W        W 4921  30.968  22.751   0.948
39662W        W 4922   8.304  22.013  14.556
39663W        W 4923   2.773  11.563   9.903
39664W        W 4924  31.720  12.722   4.060
39665W        W 4925   1.391  26.979   2.793
39666W        W 4926  14.110   4.053   4.081
39667W        W 4927  42.762  32.231   3.783
39668W        W 4928  14.844  44.868  11.462
39669W        W 4929  31.572  40.907   2.266
39670W        W 4930  39.449  18.656  10.773
39671W        W 4931  14.716  14.068  12.552
39672W        W 4932  19.981  15.025   0.975
39673W        W 4933  42.063  19.736  13.837
39674W        W 4934  23.349  35.425   3.811
39675W        W 4935   6.792  42.112   1.216
39676W        W 4936  39.881  19.844  14.474
39677W        W 4937  16.645  17.676   0.787
39678W        W 4938   8.259  25.996  14.999
39679W        W 4939  44.866   9.691  10.616
39680W        W 4940   7.617  38.360   3.775
39681W        W 4941  41.186  37.942  11.165
39682W        W 4942  30.599  19.729  12.025
39683W        W 4943  20.939  11.672   1.161
39684W        W 4944  11.910  31.969   4.520
39685W        W 4945  31.968   6.717  12.091
39686W        W 4946  30.526  40.558  12.650
39687W        W 4947  24.712   6.800   4.255
39688W        W 4948  10.188  17.812   4.609
39689W        W 4949   2.141  37.789  10.794
39690W        W 4950  36.344  22.176   4.507
39691W        W 4951  28.288   5.492   2.780
39692W        W 4952  42.613   4.193  11.714
39693W        W 4953  38.748  38.549   3.353
39694W        W 4954  23.424  10.748  10.645
39695W        W 4955  42.339   8.334   3.535
39696W        W 4956  16.514   5.669   4.481
39697W        W 4957  12.343  18.293  11.581
39698W        W 4958  38.648   6.763  12.071
39699W        W 4959  32.742  12.972   2.852
39700W        W 4960   4.896   2.847  10.605
39701W        W 4961  19.127  44.533  11.822
39702W        W 4962  15.537  23.051  12.469
39703W        W 4963  41.386  40.208   2.268
39704W        W 4964   3.471  44.327   2.109
39705W        W 4965  23.458  23.588  14.307
39706W        W 4966  14.766   0.233   1.392
39707W        W 4967  30.156  22.435   1.281
39708W        W 4968  10.952  21.208  13.841
39709W        W 4969   6.167  30.414  11.549
39710W        W 4970  17.529  27.090  14.281
39711W        W 4971   0.840  26.328   9.909
39712W        W 4972   2.563  43.341  13.357
39713W        W 4973   1.812  42.331   2.482
39714W        W 4974   6.182  27.958  10.539
39715W        W 4975  21.766  24.982  11.145
39716W        W 4976   2.394   4.446   4.349
39717W        W 4977  26.213  16.649   0.837
39718W        W 4978  16.169  42.361  13.597
39719W        W 4979   9.464  15.987   1.677
39720W        W 4980  12.803  35.536  12.993
39721W        W 4981  28.553   1.956  11.621
39722W        W 4982   2.763  28.223  11.653
39723W        W 4983   2.897  20.099   4.637
39724W        W 4984  39.280  18.590  13.156
39725W        W 4985   1.794   6.629   1.320
39726W        W 4986  16.035  33.572  12.589
39727W        W 4987  34.662  27.995   2.475
39728W        W 4988  27.650  27.963   0.918
39729W        W 4989  40.813  29.371   0.513
39730W        W 4990  40.540  32.624  11.744
39731W        W 4991  17.560  32.468  12.519
39732W        W 4992  28.464  23.527   3.188
39733W        W 4993  14.023  36.103  13.989
39734W        W 4994  39.920  41.355   1.563
39735W        W 4995  40.417  39.046  14.373
39736W        W 4996  15.298  16.148  13.889
39737W        W 4997  20.235   0.430   4.015
39738W        W 4998  29.909  31.481  14.586
39739W        W 4999   3.783   9.739   0.954
39740W        W 5000  10.892  32.798  14.713
39741W        W 5001  31.452   1.575   4.720
39742W        W 5002  20.550  39.067   3.955
39743W        W 5003  26.191  29.811   2.423
39744W        W 5004  11.022  39.279  11.977
39745W        W 5005  22.955  25.188   3.997
39746W        W 5006  34.350  27.088  13.866
39747W        W 5007  19.946  14.879   3.757
39748W        W 5008  13.330  23.514  10.912
39749W        W 5009  18.571  42.928   3.292
39750W        W 5010  22.486  35.354   3.495
39751W        W 5011  21.115   2.986  12.019
39752W        W 5012   7.888  17.893   1.634
39753W        W 5013  15.381  15.741  14.422
39754W        W 5014   5.809  16.273   4.494
39755W        W 5015   5.375  44.238   0.827
39756W        W 5016  25.909  25.223   1.490
39757W        W 5017  37.192   6.378  14.465
39758W        W 5018  32.547  19.645  10.765
39759W        W 5019  35.037  22.509  12.048
39760W        W 5020  10.476  15.320  14.871
39761W        W 5021   1.842  23.699   1.585
39762W        W 5022  28.387  37.447   3.796
39763W        W 5023  29.572  14.277  12.332
39764W        W 5024  34.524  18.822  13.416
39765W        W 5025  37.509  10.093   3.632
39766W        W 5026  35.128   4.892   2.952
39767W        W 5027  36.819  24.278   0.855
39768W        W 5028   2.285   5.231   3.454
39769W        W 5029   9.788  19.905   3.237
39770W        W 5030  29.695  25.727  13.374
39771W        W 5031  17.759   8.297  13.567
39772W        W 5032   7.523  13.737   0.158
39773W        W 5033  43.037  11.899   1.660
39774W        W 5034  42.617   3.015  11.058
39775W        W 5035   7.427  33.861  12.084
39776W        W 5036  22.458  41.973  14.279
39777W        W 5037  41.906  13.088  11.441
39778W        W 5038  37.194  22.422   0.682
39779W        W 5039   1.189   3.705   2.111
39780W        W 5040  11.903   1.432  10.692
39781W        W 5041  26.913  15.568   3.134
39782W        W 5042  23.958  44.728   0.435
39783W        W 5043  15.127  41.553   1.032
39784W        W 5044   9.253  29.976  12.449
39785W        W 5045  31.086  18.481  14.396
39786W        W 5046  32.452  39.568  13.871
39787W        W 5047  44.288  24.958   3.675
39788W        W 5048  22.678  44.713   3.195
39789W        W 5049  10.429  25.494   3.710
39790W        W 5050  41.623  21.503  14.308
39791W        W 5051  16.153   1.980  11.786
39792W        W 5052  24.528  38.408   2.992
39793W        W 5053  17.158   0.728   1.379
39794W        W 5054  39.374  15.690   3.016
39795W        W 5055  11.906   0.947  11.372
39796W        W 5056  27.231   2.251  11.187
39797W        W 5057   6.338  18.447  13.943
39798W        W 5058   6.870   6.374   2.976
39799W        W 5059  42.045  36.502  14.799
39800W        W 5060  39.591  31.474  12.081
39801W        W 5061  12.186   5.407   1.293
39802W        W 5062  10.720  17.511  14.768
39803W        W 5063  18.880  35.867   9.934
39804W        W 5064  18.582  15.611   2.850
39805W        W 5065  20.795   8.413   2.256
39806W        W 5066  32.738  24.819  12.025
39807W        W 5067  23.196  15.075  14.972
39808W        W 5068   6.723  27.720   1.842
39809W        W 5069  39.303   2.200   1.740
39810W        W 5070  37.480   4.695  13.955
39811W        W 5071  11.145  25.694   0.296
39812W        W 5072   7.584  35.123   4.161
39813W        W 5073  15.266   4.849   3.203
39814W        W 5074  19.648   1.206   1.118
39815W        W 5075  23.477   4.775   0.897
39816W        W 5076   2.856   1.381  14.545
39817W        W 5077   0.779  14.250  12.944
39818W        W 5078   2.818   8.382  10.632
39819W        W 5079   3.868  37.500   4.778
39820W        W 5080   8.670  15.778   4.118
39821W        W 5081  15.181  12.186  12.629
39822W        W 5082   3.468  23.969  12.100
39823W        W 5083   8.640  37.788   0.412
39824W        W 5084  29.024  41.901   1.881
39825W        W 5085  24.373  35.709  14.441
39826W        W 5086   9.950  31.415  14.791
39827W        W 5087  23.369  44.043   4.202
39828W        W 5088  22.992  41.246   1.218
39829W        W 5089  17.596  27.454   3.947
39830W        W 5090  27.117  40.375   2.826
39831W        W 5091  15.146   2.971  12.920
39832W        W 5092  30.510  39.340  13.496
39833W        W 5093   1.778   7.728   3.853
39834W        W 5094   5.949  27.996  12.370
39835W        W 5095  29.893  44.811  12.700
39836W        W 5096   6.278  14.610  13.670
39837W        W 5097  28.056  12.119  14.690
39838W        W 5098  17.223  17.290   2.802
39839W        W 5099   1.664  30.669   0.160
39840W        W 5100  18.112  30.285  14.319
39841W        W 5101  11.605  21.390  12.633
39842W        W 5102  35.854  40.984   1.371
39843W        W 5103  14.668  33.979   1.217
39844W        W 5104  33.494  32.941   0.985
39845W        W 5105  23.223  36.911   1.263
39846W        W 5106  26.437  26.977  13.410
39847W        W 5107  30.138  19.132   2.334
39848W        W 5108   8.920  16.473  14.711
39849W        W 5109  33.430  36.916   1.448
39850W        W 5110  11.849  21.970  14.384
39851W        W 5111  42.841  38.966   1.322
39852W        W 5112  30.584  30.362   0.811
39853W        W 5113   2.336  10.362   2.696
39854W        W 5114  41.049  44.769  13.315
39855W        W 5115   5.750  37.042   0.376
39856W        W 5116  31.603   4.407   0.457
39857W        W 5117   4.250   0.691   2.304
39858W        W 5118   2.486  30.337  10.932
39859W        W 5119  22.109  30.458   1.342
39860W        W 5120  10.880   5.760   1.485
39861W        W 5121  36.005  21.815   3.400
39862W        W 5122  31.519  27.500  12.376
39863W        W 5123  29.397   0.692   3.217
39864W        W 5124  44.172  28.862  11.629
39865W        W 5125  35.972  37.212   1.780
39866W        W 5126  15.554  31.053   0.422
39867W        W 5127   2.731   0.150   0.709
39868W        W 5128  12.615  37.065  12.840
39869W        W 5129  39.374   3.526  13.183
39870W        W 5130  43.432   8.836  13.890
39871W        W 5131   4.158  12.743  11.068
39872W        W 5132   5.260  19.080   0.498
39873W        W 5133  16.326   6.426   2.817
39874W        W 5134  27.520  24.701  13.005
39875W        W 5135   2.849  34.473  13.847
39876W        W 5136  33.975  29.632   1.795
39877W        W 5137  21.254  31.665  11.483
39878W        W 5138  14.198  15.378  13.503
39879W        W 5139   9.063  28.518   0.728
39880W        W 5140  11.645   6.704   0.074
39881W        W 5141  44.860  28.584  14.342
39882W        W 5142  12.664  28.127  13.391
39883W        W 5143  30.364  32.827   1.383
39884W        W 5144  44.058  26.217   2.243
39885W        W 5145   0.793   6.541  12.518
39886W        W 5146  27.939  31.015   3.186
39887W        W 5147  44.693   9.233  13.192
39888W        W 5148   2.302  35.509  10.735
39889W        W 5149  32.667  17.314  13.791
39890W        W 5150   8.176  32.131  13.558
39891W        W 5151  12.997  33.360   3.875
39892W        W 5152  13.604   6.263  13.866
39893W        W 5153  10.096  17.790   1.745
39894W        W 5154  30.860  21.048   1.837
39895W        W 5155  12.652  16.374  13.226
39896W        W 5156  30.363  25.385   1.227
39897W        W 5157   0.339   6.627   2.895
39898W        W 5158  28.690  41.366  11.404
39899W        W 5159  34.973  37.841  14.445
39900W        W 5160  25.039  34.886  13.351
39901W        W 5161  37.112  27.646  12.879
39902W        W 5162  13.678   5.946  12.191
39903W        W 5163  31.318  17.805   1.185
39904W        W 5164   6.860  40.734  11.612
39905W        W 5165  15.476  23.535   3.168
39906W        W 5166  33.829  40.306  10.641
39907W        W 5167  10.990   4.874  11.987
39908W        W 5168  27.247  10.277   1.463
39909W        W 5169  13.679  34.815  11.140
39910W        W 5170  44.753  42.381   0.802
39911W        W 5171  27.749  11.735  11.977
39912W        W 5172  29.180   9.727  11.083
39913W        W 5173  38.027   3.538  13.509
39914W        W 5174   6.706  22.599   2.394
39915W        W 5175  19.938   2.084  11.119
39916W        W 5176  27.932  43.860  13.935
39917W        W 5177  30.917  32.412   2.092
39918W        W 5178  22.452  29.491  13.433
39919W        W 5179  25.533   5.054   3.809
39920W        W 5180  43.366  37.105  10.710
39921W        W 5181  41.375  29.376  11.807
39922W        W 5182  33.898  33.910  10.616
39923W        W 5183  23.948  43.966  14.813
39924W        W 5184  35.945  26.233   4.512
39925W        W 5185   3.282   9.913   4.068
39926W        W 5186  16.123  37.221  14.052
39927W        W 5187  33.306   3.543   0.430
39928W        W 5188  15.775   2.501  12.409
39929W        W 5189  24.251  15.750   0.457
39930W        W 5190  34.821  25.946   0.360
39931W        W 5191  11.919  26.964   5.448
39932W        W 5192   9.807  22.659  14.003
39933W        W 5193  23.194   1.778  13.023
39934W        W 5194   7.817  12.113   4.265
39935W        W 5195  32.701  29.755  11.186
39936W        W 5196  12.732  10.794   3.560
39937W        W 5197  11.295  27.244   2.294
39938W        W 5198  44.941  14.936   3.720
39939W        W 5199  44.266  15.175  12.867
39940W        W 5200   3.595  37.387   3.622
39941W        W 5201  10.352   1.533  12.080
39942W        W 5202  42.992  33.723  10.986
39943W        W 5203  21.563  12.757   1.748
39944W        W 5204  23.707  29.036  14.199
39945W        W 5205  37.280  13.516   2.259
39946W        W 5206  23.479  34.338  12.027
39947W        W 5207  42.871   6.146   4.277
39948W        W 5208  10.077  34.618  13.016
39949W        W 5209   3.931  26.539  10.603
39950W        W 5210  19.565  37.460   1.855
39951W        W 5211  13.848  28.992   4.566
39952W        W 5212  25.210  31.078   3.053
39953W        W 5213  25.662  18.104   1.764
39954W        W 5214  14.875  44.744   3.405
39955W        W 5215  29.235  21.625   3.619
39956W        W 5216  26.568  10.195   3.271
39957W        W 5217  42.296  17.219   0.339
39958W        W 5218  35.093  35.125   0.429
39959W        W 5219  18.622  20.259  11.145
39960W        W 5220  44.453  37.824   3.984
39961W        W 5221  35.927  32.898  10.709
39962W        W 5222  25.470  28.718   3.157
39963W        W 5223   2.846  34.933  11.540
39964W        W 5224  44.271  33.480   3.282
39965W        W 5225  12.087   8.283   4.330
39966W        W 5226  20.752   5.896   0.324
39967W        W 5227   4.202  27.379  12.915
39968W        W 5228  44.981  29.171   1.788
39969W        W 5229  17.502  33.524   1.822
39970W        W 5230  43.319  16.269  13.944
39971W        W 5231  20.312   8.230   3.719
39972W        W 5232   2.463   3.053  11.399
39973W        W 5233   2.367  42.263  11.406
39974W        W 5234  13.922  41.467  10.780
39975W        W 5235   3.669  22.130  14.220
39976W        W 5236  14.880   5.027   0.230
39977W        W 5237  11.678  16.744  14.259
39978W        W 5238  25.401  11.738  12.493
39979W        W 5239  30.872   0.528   1.347
39980W        W 5240  20.729  42.616  14.464
39981W        W 5241   7.056  12.392  13.515
39982W        W 5242  10.435   0.446  12.838
39983W        W 5243  22.789  39.410   1.451
39984W        W 5244  25.151  44.060   0.277
39985W        W 5245  12.334  29.668   0.367
39986W        W 5246  18.836  41.003   0.381
39987W        W 5247   7.270  42.958   2.924
39988W        W 5248  13.587  33.461   4.660
39989W        W 5249  32.343   2.925  11.568
39990W        W 5250  32.465  26.026   1.217
39991W        W 5251   1.860  13.681   2.668
39992W        W 5252  37.111  42.423   2.257
39993W        W 5253  19.760  15.214   2.196
39994W        W 5254   0.687  15.174  12.941
39995W        W 5255  29.902  41.403   4.326
39996W        W 5256  36.968  27.604   0.160
39997W        W 5257  11.600   1.829  10.811
39998W        W 5258   9.202   6.693   0.270
39999W        W 5259  21.008  11.814   3.790
40000W        W 5260   4.323  37.638   2.921
40001W        W 5261  11.788  18.808   1.367
40002W        W 5262  39.912  20.241  12.439
40003W        W 5263  36.373  37.557  13.099
40004W        W 5264  18.896  29.472   5.353
40005W        W 5265  29.776  30.048   1.834
40006W        W 5266  33.050  25.287  12.005
40007W        W 5267  20.220  18.199  10.729
40008W        W 5268  18.504  24.155  10.807
40009W        W 5269  33.781  12.464   5.090
40010W        W 5270  35.933  40.449   3.789
40011W        W 5271  34.507  26.359   5.367
40012W        W 5272   2.795  27.921  13.051
40013W        W 5273  44.639  12.932   4.270
40014W        W 5274  11.599   7.904   1.205
40015W        W 5275  29.551  38.563  13.095
40016W        W 5276   3.417  12.088   0.472
40017W        W 5277  16.277  39.622   2.427
40018W        W 5278  12.790  37.047  11.540
40019W        W 5279  24.056  44.471  12.416
40020W        W 5280  10.381  30.250   2.182
40021W        W 5281  25.744  38.303   3.122
40022W        W 5282  26.482  31.751  13.096
40023W        W 5283  14.113   6.300   1.170
40024W        W 5284  32.603  41.418  14.256
40025W        W 5285  29.731  22.003  12.062
40026W        W 5286   1.817  39.788  12.852
40027W        W 5287  23.072   3.678   3.917
40028W        W 5288  17.514  16.328  13.779
40029W        W 5289  21.255  35.022   2.112
40030W        W 5290  32.314  32.528   0.300
40031W        W 5291   9.567  11.185  12.757
40032W        W 5292  35.891  16.449  13.543
40033W        W 5293   5.383  13.246  10.785
40034W        W 5294  19.260   3.487   0.791
40035W        W 5295  36.584  12.456   3.431
40036W        W 5296  28.030   2.661   0.961
40037W        W 5297  41.692  44.869  13.759
40038W        W 5298  43.853  19.954   3.089
40039W        W 5299  20.340  18.604  11.451
40040W        W 5300   5.219  35.354   3.245
40041W        W 5301  26.141  10.213  10.543
40042W        W 5302  11.139  15.057   3.281
40043W        W 5303  31.637  11.192  13.546
40044W        W 5304  34.609   4.937   5.118
40045W        W 5305  11.166  33.677   1.207
40046W        W 5306   7.710   9.592   2.914
40047W        W 5307  41.790  10.630   2.804
40048W        W 5308  22.972   8.774  13.341
40049W        W 5309  14.781  18.623   2.619
40050W        W 5310  12.748  34.283  14.691
40051W        W 5311  30.352  13.252   0.361
40052W        W 5312  27.638  16.770   1.468
40053W        W 5313  36.619   4.259   4.522
40054W        W 5314   3.296  37.159   3.255
40055W        W 5315  43.592   2.118   4.361
40056W        W 5316  28.973   9.746   1.476
40057W        W 5317  21.031  36.802  13.100
40058W        W 5318  38.122  43.721   3.199
40059W        W 5319  12.655   4.265  12.595
40060W        W 5320  31.216  43.453  14.562
40061W        W 5321   9.816  39.448   3.524
40062W        W 5322  19.483  16.167   2.376
40063W        W 5323   3.188  32.464   4.650
40064W        W 5324   2.505   9.132  14.865
40065W        W 5325  35.966   7.140   4.761
40066W        W 5326  10.906  31.086  12.945
40067W        W 5327  21.462   9.628  13.973
40068W        W 5328  38.391  34.469   1.698
40069W        W 5329   1.208  12.815   1.899
40070W        W 5330   0.691  36.325  12.888
40071W        W 5331  12.158  20.537  12.883
40072W        W 5332  38.761   1.571  12.450
40073W        W 5333  20.585  41.245   3.094
40074W        W 5334  13.755   3.764   3.180
40075W        W 5335  18.986  31.718   0.935
40076W        W 5336  26.997  16.563   1.147
40077W        W 5337  25.098  19.799   1.510
40078W        W 5338  35.556  15.817   3.327
40079W        W 5339  42.449  33.606  14.461
40080W        W 5340   3.491   9.535  14.822
40081W        W 5341  13.586  12.278  13.906
40082W        W 5342  31.362  44.549   0.830
40083W        W 5343  33.121  22.036   0.534
40084W        W 5344  37.257  10.284   0.843
40085W        W 5345  41.073  11.312  12.540
40086W        W 5346   9.024  15.909   3.692
40087W        W 5347  38.894  36.455  12.254
40088W        W 5348  14.612  14.841   3.812
40089W        W 5349  44.070  11.682   3.287
40090W        W 5350   0.891  15.655   0.809
40091W        W 5351  22.919  20.765  13.430
40092W        W 5352  20.722  24.876   1.337
40093W        W 5353   1.691  25.163  11.417
40094W        W 5354  15.623  10.260   1.293
40095W        W 5355   8.293  40.043   0.431
40096W        W 5356  29.007  39.928   1.236
40097W        W 5357   9.630   0.947  12.889
40098W        W 5358  33.322  40.832   1.350
40099W        W 5359  33.070  28.306  10.547
40100W        W 5360  37.119   9.752  13.403
40101W        W 5361  16.668  31.992   4.527
40102W        W 5362   7.825  10.169   0.048
40103W        W 5363  17.595  22.818  12.134
40104W        W 5364  38.135  37.345   1.650
40105W        W 5365  17.588  44.002   1.174
40106W        W 5366  40.443   7.754   3.145
40107W        W 5367  15.085  27.436   0.231
40108W        W 5368  37.310   5.673  13.754
40109W        W 5369  15.167  39.113   4.195
40110W        W 5370   4.976  28.496  13.734
40111W        W 5371  13.621  40.702   1.361
40112W        W 5372  12.040  27.047  10.657
40113W        W 5373  26.391  36.033   3.921
40114W        W 5374  26.254  21.300   0.901
40115W        W 5375  21.624  19.734  13.826
40116W        W 5376   4.251   4.519   4.575
40117W        W 5377   6.232   2.329  12.480
40118W        W 5378   0.637  13.774   1.869
40119W        W 5379  33.129   1.780   2.845
40120W        W 5380  37.421  36.140   1.711
40121W        W 5381  17.648  17.640   0.718
40122W        W 5382   1.755  42.854  11.016
40123W        W 5383  42.995   5.564   1.415
40124W        W 5384   1.464   2.908   4.544
40125W        W 5385  37.487   9.350  10.593
40126W        W 5386  27.267   4.152   0.331
40127W        W 5387  13.888  43.748   1.371
40128W        W 5388  42.474   7.591   1.858
40129W        W 5389  12.282  36.704  12.982
40130W        W 5390  16.930  25.429   3.977
40131W        W 5391   5.228  23.690   4.220
40132W        W 5392  24.474  23.712  14.504
40133W        W 5393  26.218  38.145   0.329
40134W        W 5394  42.344  40.588   4.104
40135W        W 5395  42.156   7.231  13.943
40136W        W 5396  38.384   6.851  11.128
40137W        W 5397  13.838  37.001   1.594
40138W        W 5398  33.620  31.012  13.483
40139W        W 5399  11.442  17.504   3.234
40140W        W 5400  31.263   2.942  13.367
40141W        W 5401   3.409  33.574   3.793
40142W        W 5402  12.644  26.465   2.658
40143W        W 5403   2.945   3.980   2.735
40144W        W 5404  28.416  16.688   3.546
40145W        W 5405  15.015  27.451  11.601
40146W        W 5406  21.599  27.936   4.025
40147W        W 5407  20.614  37.497   1.777
40148W        W 5408  19.955   2.887   4.666
40149W        W 5409  18.214  38.829  14.510
40150W        W 5410   0.848  32.746  13.953
40151W        W 5411  22.302   3.205  13.943
40152W        W 5412  12.284  15.303   1.779
40153W        W 5413  13.601  29.089   1.271
40154W        W 5414  27.037  12.550   4.126
40155W        W 5415  44.739  15.589  11.540
40156W        W 5416   5.489  19.175   2.779
40157W        W 5417  28.516  13.325  10.733
40158W        W 5418  22.903   0.978  11.753
40159W        W 5419   9.772   8.227  11.793
40160W        W 5420  14.354  19.719   1.643
40161W        W 5421  17.748  41.371   2.034
40162W        W 5422  41.721  13.757   3.950
40163W        W 5423  42.022  37.370   3.700
40164W        W 5424  31.485  32.315  10.918
40165W        W 5425  38.847  38.690   4.548
40166W        W 5426  31.153  24.240  11.156
40167W        W 5427   1.739  21.729  14.787
40168W        W 5428  36.477   6.517  12.382
40169W        W 5429  43.397   0.422   4.205
40170W        W 5430   1.164  36.994  12.307
40171W        W 5431  20.110  30.140   2.303
40172W        W 5432  11.411  16.091   0.427
40173W        W 5433  26.214  14.807   0.127
40174W        W 5434  37.764   3.693  13.058
40175W        W 5435  34.411   1.418  10.264
40176W        W 5436   8.785   1.548   1.766
40177W        W 5437  15.316  20.820   3.213
40178W        W 5438  23.047  25.581   2.835
40179W        W 5439  38.227  17.538  13.519
40180W        W 5440  24.459  36.954   3.129
40181W        W 5441  29.822  24.628  13.851
40182W        W 5442   7.798   6.161   1.668
40183W        W 5443  18.160   7.189   0.283
40184W        W 5444  42.693  29.112  12.063
40185W        W 5445  23.257   1.936  13.967
40186W        W 5446   5.412  40.268  11.426
40187W        W 5447  42.638  17.032   3.842
40188W        W 5448  14.010  42.487  14.413
40189W        W 5449  12.726  34.638   2.463
40190W        W 5450   8.720  18.894  13.855
40191W        W 5451  19.038  15.121  11.568
40192W        W 5452  44.647  24.768  14.029
40193W        W 5453   8.145  37.145   5.076
40194W        W 5454   4.889  35.928   1.698
40195W        W 5455  16.221   5.462   3.266
40196W        W 5456  30.223  31.007   3.279
40197W        W 5457   0.846  23.934  13.333
40198W        W 5458   8.337  31.133  11.463
40199W        W 5459  35.455   0.270  13.559
40200W        W 5460  25.235  27.574   3.307
40201W        W 5461  29.333  14.127  10.747
40202W        W 5462  19.212  29.458  13.591
40203W        W 5463  42.969  26.024   2.335
40204W        W 5464  28.466  29.485  10.629
40205W        W 5465   9.386  16.524  11.551
40206W        W 5466  43.518   8.235   0.481
40207W        W 5467  18.411  22.528   4.176
40208W        W 5468   5.511  28.811   3.579
40209W        W 5469  13.875   2.223  12.086
40210W        W 5470  36.131   4.728  13.412
40211W        W 5471  17.309  42.236  14.794
40212W        W 5472  29.193  44.326  13.332
40213W        W 5473  32.169  34.510   4.235
40214W        W 5474  23.133  24.005   0.710
40215W        W 5475  24.707  44.376   2.701
40216W        W 5476  30.960  21.733   1.257
40217W        W 5477  39.094  42.790  12.537
40218W        W 5478  34.479   9.698   1.344
40219W        W 5479  18.138  10.760  13.070
40220W        W 5480  15.556  35.082  11.914
40221W        W 5481  14.862  36.330   0.168
40222W        W 5482  17.135  19.704   2.089
40223W        W 5483  26.938   9.532  11.559
40224W        W 5484   0.518   0.838   0.393
40225W        W 5485  29.754  39.210  10.885
40226W        W 5486  42.537  36.674   3.097
40227W        W 5487  33.678   9.234  11.238
40228W        W 5488   9.392  29.418  12.797
40229W        W 5489  40.564  18.820   1.375
40230W        W 5490  16.238  28.473  12.445
40231W        W 5491  35.988  35.407   4.944
40232W        W 5492  33.002  10.091   0.812
40233W        W 5493  37.784   1.138   0.267
40234W        W 5494  11.655  42.342  13.453
40235W        W 5495  25.265  21.027   0.319
40236W        W 5496  38.274  21.675   1.074
40237W        W 5497  13.682  30.472  12.763
40238W        W 5498  21.242  30.090   2.821
40239W        W 5499  18.126   6.329  14.753
40240W        W 5500   0.680  18.639   2.216
40241W        W 5501  33.517  41.464  12.624
40242W        W 5502  18.348  31.837  14.423
40243W        W 5503  27.302  28.910  10.990
40244W        W 5504  22.708  12.769   2.121
40245W        W 5505  28.070  16.864   3.927
40246W        W 5506  34.662  42.038   2.331
40247W        W 5507   6.653   5.286   3.869
40248W        W 5508   3.758   6.450   1.105
40249W        W 5509  30.155  12.591  14.932
40250W        W 5510  27.516   6.717  14.587
40251W        W 5511   3.224  31.036   0.830
40252W        W 5512  24.450  22.726  12.461
40253W        W 5513  34.459  40.322   2.695
40254W        W 5514  39.234   6.871   4.482
40255W        W 5515  20.973  37.591  12.010
40256W        W 5516  13.161  41.252  11.469
40257W        W 5517  33.972   2.063   4.819
40258W        W 5518  31.440  20.287  11.128
40259W        W 5519   2.375  38.416   1.978
40260W        W 5520  20.718  29.513   1.034
40261W        W 5521  25.640  22.147  12.334
40262W        W 5522  18.779  12.716   4.152
40263W        W 5523  24.497  29.876  14.870
40264W        W 5524  29.039  22.833   1.750
40265W        W 5525  40.481  11.524  14.896
40266W        W 5526  26.888  38.561   2.295
40267W        W 5527   1.201  12.727   2.944
40268W        W 5528  26.233  35.939   1.785
40269W        W 5529  14.601   7.148  13.177
40270W        W 5530  25.129  25.446   3.670
40271W        W 5531  25.258  11.674  11.157
40272W        W 5532   1.515  41.902  13.901
40273W        W 5533  24.164  22.422  10.099
40274W        W 5534   7.622   2.796   2.837
40275W        W 5535  30.970  43.538  14.102
40276W        W 5536  18.295  27.160  12.367
40277W        W 5537   8.901  25.110  10.694
40278W        W 5538  38.582   5.388  13.085
40279W        W 5539  13.973  33.460   2.714
40280W        W 5540  15.325   9.350   1.530
40281W        W 5541  44.112  11.296   0.785
40282W        W 5542  14.339  31.573   2.880
40283W        W 5543  34.433  28.007  11.008
40284W        W 5544  44.538  13.833   0.705
40285W        W 5545  25.003   9.197   0.632
40286W        W 5546   0.503   0.199  13.446
40287W        W 5547  42.059  24.255  13.710
40288W        W 5548  16.321  34.553   4.892
40289W        W 5549  28.689  42.766  12.715
40290W        W 5550  32.377  17.069  14.358
40291W        W 5551  41.711   0.928   0.098
40292W        W 5552  12.633   3.857   1.819
40293W        W 5553  10.636   2.355  12.945
40294W        W 5554  36.898  40.419   0.179
40295W        W 5555  34.656  19.621   4.682
40296W        W 5556  21.003  22.113  12.240
40297W        W 5557   8.876  15.207   0.551
40298W        W 5558  19.202   6.699   3.129
40299W        W 5559   2.893  15.794  14.835
40300W        W 5560  29.718  18.805   2.298
40301W        W 5561  34.415  40.649   4.027
40302W        W 5562   3.951  20.109  14.807
40303W        W 5563  26.888  10.668   4.313
40304W        W 5564  34.379   4.837   3.687
40305W        W 5565  28.887   3.206  14.379
40306W        W 5566   5.933  21.588   2.115
40307W        W 5567  26.183   2.175   4.386
40308W        W 5568  21.686  28.483   2.194
40309W        W 5569  11.593  44.988   1.216
40310W        W 5570  17.946  25.247  11.182
40311W        W 5571   2.314  42.938  10.820
40312W        W 5572  31.118  15.032  10.694
40313W        W 5573  34.724  27.180   3.810
40314W        W 5574   4.613  16.257  12.758
40315W        W 5575   1.251  30.278  10.430
40316W        W 5576  37.508  16.613  10.205
40317W        W 5577   5.837   8.612   0.267
40318W        W 5578  11.222  11.118   0.802
40319W        W 5579  42.435   6.723   1.363
40320W        W 5580   9.849  39.708   1.919
40321W        W 5581  14.018  44.900   3.176
40322W        W 5582  30.124   2.388  10.600
40323W        W 5583  34.760   9.922   1.730
40324W        W 5584  33.415  14.376   4.725
40325W        W 5585   5.851  32.676  12.820
40326W        W 5586  36.757   7.267  10.580
40327W        W 5587   7.896  25.929  11.672
40328W        W 5588   1.445  28.628  12.930
40329W        W 5589   9.241   8.924   3.826
40330W        W 5590   7.440  17.103   1.438
40331W        W 5591  29.606  17.168  12.361
40332W        W 5592   3.955  35.141   2.783
40333W        W 5593  34.859  41.373   1.167
40334W        W 5594  17.714  15.298   2.062
40335W        W 5595  14.589  30.066   1.208
40336W        W 5596   9.391  12.087   3.670
40337W        W 5597   9.334  41.533  11.854
40338W        W 5598  25.179  31.662   1.478
40339W        W 5599  21.478  38.984   3.071
40340W        W 5600   2.762   7.702  13.820
40341W        W 5601  18.520  43.977   3.131
40342W        W 5602  22.001  10.496  13.519
40343W        W 5603  40.101   0.279   4.312
40344W        W 5604  42.832   4.315  11.241
40345W        W 5605  28.686  11.781   0.864
40346W        W 5606  15.583   4.473   2.314
40347W        W 5607   0.955   3.300  13.535
40348W        W 5608  37.851  41.337   2.888
40349W        W 5609   5.752  14.860  12.484
40350W        W 5610  18.651  39.011  10.162
40351W        W 5611   7.826  40.482   3.312
40352W        W 5612  38.365  30.361   1.190
40353W        W 5613  35.187   5.359  11.566
40354W        W 5614  27.906  42.829  11.485
40355W        W 5615  23.052   9.688  12.972
40356W        W 5616  20.002  28.054   0.856
40357W        W 5617  32.128  41.807   0.251
40358W        W 5618   2.256   4.664   2.207
40359W        W 5619   2.592  26.617   2.203
40360W        W 5620  24.712  15.078  14.305
40361W        W 5621  34.577  15.709   3.857
40362W        W 5622   7.353  10.297   3.459
40363W        W 5623  31.031  22.735   4.142
40364W        W 5624   4.711  17.645  12.297
40365W        W 5625  21.563  17.767   4.996
40366W        W 5626  40.323   6.999   0.931
40367W        W 5627  20.493  26.638  14.371
40368W        W 5628  12.195  24.932  14.459
40369W        W 5629   7.842  42.407   2.276
40370W        W 5630   4.412  32.673  11.619
40371W        W 5631  32.855  20.316  14.604
40372W        W 5632  29.703  42.906   1.327
40373W        W 5633  39.296  29.820   3.873
40374W        W 5634   3.802  24.592   2.333
40375W        W 5635  24.192  38.813  12.693
40376W        W 5636  44.395  20.502  10.619
40377W        W 5637  36.308   7.196  13.550
40378W        W 5638  15.333  35.600   0.335
40379W        W 5639  14.114   9.433  13.430
40380W        W 5640   8.401  31.854   0.858
40381W        W 5641  15.336  38.597  14.429
40382W        W 5642  25.369  29.439   4.056
40383W        W 5643  33.193  26.016   1.441
40384W        W 5644   7.190  16.167  12.005
40385W        W 5645  27.443   1.767   1.427
40386W        W 5646  10.214  41.844   4.173
40387W        W 5647   0.998  32.452   1.767
40388W        W 5648  11.304  20.688  14.385
40389W        W 5649   2.526  36.427   2.407
40390W        W 5650   3.778  18.780  14.923
40391W        W 5651  41.907  33.395  14.854
40392W        W 5652  36.453  24.943  12.925
40393W        W 5653   6.628   8.625   3.326
40394W        W 5654  38.141   9.595   3.207
40395W        W 5655  42.745   7.031   2.532
40396W        W 5656  32.547  26.262   9.809
40397W        W 5657   3.274  20.521  11.941
40398W        W 5658   8.610  33.424   1.860
40399W        W 5659  28.218   7.281   4.038
40400W        W 5660  39.561  43.684   3.517
40401W        W 5661  10.375  29.507   0.677
40402W        W 5662   9.431   6.184  12.694
40403W        W 5663   7.961   5.217  11.190
40404W        W 5664  31.001  33.684   3.697
40405W        W 5665  36.891  34.614   1.344
40406W        W 5666  31.104  24.761  14.350
40407W        W 5667  16.663  15.360   0.764
40408W        W 5668  14.890  17.065  12.485
40409W        W 5669  42.702  11.628  14.254
40410W        W 5670  32.683  22.997   3.588
40411W        W 5671  42.933  34.528  14.278
40412W        W 5672   9.452  33.146   3.115
40413W        W 5673   7.768  12.592  11.137
40414W        W 5674  32.495   9.417   3.963
40415W        W 5675  20.559  40.374  12.060
40416W        W 5676   4.376  17.065   2.578
40417W        W 5677  16.105  31.190   4.823
40418W        W 5678  38.717   0.803   2.661
40419W        W 5679  38.898  40.347   1.741
40420W        W 5680   9.223  31.036  13.905
40421W        W 5681   4.797  32.122   0.631
40422W        W 5682  31.077  27.092  10.184
40423W        W 5683  23.647  37.910  14.472
40424W        W 5684  19.150  25.575  14.239
40425W        W 5685  28.833  20.125  14.852
40426W        W 5686  41.353  22.838  11.658
40427W        W 5687   9.357  37.837   1.316
40428W        W 5688  33.621  39.485   3.802
40429W        W 5689  31.368   5.459   1.004
40430W        W 5690  27.201  22.175   3.057
40431W        W 5691   0.351  42.800  11.172
40432W        W 5692  36.458  26.516  10.706
40433W        W 5693  19.744   1.395  10.490
40434W        W 5694  18.763  10.093  13.055
40435W        W 5695  41.024  12.801   4.348
40436W        W 5696  11.108   7.351  12.163
40437W        W 5697  30.110   4.380  12.945
40438W        W 5698   0.163   5.294  13.416
40439W        W 5699  17.121  35.425   2.890
40440W        W 5700  43.560  24.235  12.142
40441W        W 5701  14.911  32.336   0.773
40442W        W 5702   5.852  19.126  12.898
40443W        W 5703  26.593  10.649  14.788
40444W        W 5704  43.011  39.322  11.536
40445W        W 5705  40.382  29.426   0.849
40446W        W 5706   2.359  36.107  13.991
40447W        W 5707  37.801   0.691  14.408
40448W        W 5708  15.831  22.204  11.209
40449W        W 5709  41.126  25.247   2.828
40450W        W 5710  26.871  23.959  11.341
40451W        W 5711  32.588   1.096  11.585
40452W        W 5712  39.925  32.935  13.946
40453W        W 5713   3.763  13.714  11.904
40454W        W 5714   0.918  20.928  14.910
40455W        W 5715  25.578  26.277   3.229
40456W        W 5716  14.841  25.545   0.296
40457W        W 5717  32.578  43.287  12.993
40458W        W 5718   1.353  19.126   0.850
40459W        W 5719  24.140  20.134  12.057
40460W        W 5720  35.463  30.674   4.516
40461W        W 5721  29.684  16.753  14.560
40462W        W 5722  19.301  30.701  14.900
40463W        W 5723   2.919  19.553  12.972
40464W        W 5724   5.293  31.586  13.316
40465W        W 5725  20.292  22.080   2.238
40466W        W 5726  27.036  15.849   3.708
40467W        W 5727  36.887   5.391  11.129
40468W        W 5728   3.944  21.265  10.774
40469W        W 5729  17.498  21.022  13.606
40470W        W 5730   5.687  12.239   1.376
40471W        W 5731  32.439  25.132  14.142
40472W        W 5732  21.161  27.191   0.049
40473W        W 5733  41.497   4.182  10.480
40474W        W 5734  44.258  21.201   2.829
40475W        W 5735   9.438  34.828  12.460
40476W        W 5736  14.953  31.459   4.247
40477W        W 5737   3.777   7.069   4.050
40478W        W 5738  34.236  42.640  14.783
40479W        W 5739  37.461  11.291   3.687
40480W        W 5740  36.242  27.390  11.999
40481W        W 5741  24.045   2.517  12.429
40482W        W 5742  36.559  39.093  13.877
40483W        W 5743   9.602  19.090  11.072
40484W        W 5744  23.141   8.118  12.780
40485W        W 5745  31.573   1.852  12.050
40486W        W 5746   9.353  14.454   2.273
40487W        W 5747  14.951  38.437   0.852
40488W        W 5748  39.738  41.522   3.219
40489W        W 5749  30.148  26.987  12.771
40490W        W 5750  20.563  40.336   0.450
40491W        W 5751  41.008  12.159   3.654
40492W        W 5752  13.016  18.368   0.713
40493W        W 5753  20.578  16.140   3.106
40494W        W 5754   1.536   0.912  11.405
40495W        W 5755  10.074  41.358  12.407
40496W        W 5756  43.644  40.893   1.024
40497W        W 5757  31.446  29.017   4.514
40498W        W 5758  33.503   7.969  10.844
40499W        W 5759  10.650  16.121   1.329
40500W        W 5760  42.987  35.366   2.428
40501W        W 5761  30.024  36.310   1.370
40502W        W 5762   1.330  38.763  12.652
40503W        W 5763   3.748  14.781   4.151
40504W        W 5764  41.595  25.897  11.997
40505W        W 5765   5.223  23.776  11.616
40506W        W 5766  20.286  21.152  13.551
40507W        W 5767  14.542  26.533   4.120
40508W        W 5768  44.997   3.674   1.250
40509W        W 5769  39.285  39.071  12.470
40510W        W 5770   9.542  30.182   2.687
40511W        W 5771  39.792  13.611  13.559
40512W        W 5772  37.483  34.380   3.688
40513W        W 5773   9.844  43.785  11.867
40514W        W 5774   8.893   5.192   3.659
40515W        W 5775  17.255  43.535  10.332
40516W        W 5776   3.211   6.827  12.568
40517W        W 5777   1.000  34.155   3.162
40518W        W 5778  16.630  19.546   2.919
40519W        W 5779  22.602   5.917   2.264
40520W        W 5780   8.547  28.243   3.610
40521W        W 5781  21.199   3.726   1.738
40522W        W 5782  35.554  26.581   1.389
40523W        W 5783   3.907   1.441  13.920
40524W        W 5784   1.164   2.808  14.837
40525W        W 5785  20.217  15.324   3.056
40526W        W 5786  22.147   8.961   1.564
40527W        W 5787  14.133  42.072   2.713
40528W        W 5788  30.656  14.561   2.955
40529W        W 5789  44.460  34.869  12.394
40530W        W 5790   2.709  23.456   1.674
40531W        W 5791  30.211  31.982   2.185
40532W        W 5792   7.702  19.253   4.163
40533W        W 5793   3.167  33.665   2.921
40534W        W 5794   4.393   2.252   2.390
40535W        W 5795  40.127  22.526   0.787
40536W        W 5796  43.567   4.875   0.346
40537W        W 5797   0.315  35.892  12.321
40538W        W 5798   0.644  33.021   1.214
40539W        W 5799  22.449  35.932  13.099
40540W        W 5800  44.425  44.951   4.625
40541W        W 5801  20.179  20.521  10.478
40542W        W 5802  29.692  33.231  13.221
40543W        W 5803  37.582  34.054   3.233
40544W        W 5804  15.163   0.694   3.603
40545W        W 5805   4.184   4.615  13.501
40546W        W 5806  37.933  23.898   3.216
40547W        W 5807  41.841  34.699   3.199
40548W        W 5808  12.207  36.395   1.871
40549W        W 5809  34.651  34.244   1.414
40550W        W 5810  23.517  41.852   2.680
40551W        W 5811  36.459  10.691   1.658
40552W        W 5812  39.431   5.786   3.871
40553W        W 5813   6.534  13.644   0.401
40554W        W 5814   2.698  23.005   3.674
40555W        W 5815  14.283  23.012   2.859
40556W        W 5816  44.319  26.907  14.823
40557W        W 5817  44.281  21.959  13.941
40558W        W 5818  40.669   3.261  11.157
40559W        W 5819  39.191  24.297   1.386
40560W        W 5820  20.069  18.996   3.620
40561W        W 5821   3.374  42.417  14.460
40562W        W 5822  17.798  21.039  14.494
40563W        W 5823  14.127  42.118   0.659
40564W        W 5824  16.680  44.279  12.048
40565W        W 5825   0.333  39.351   4.022
40566W        W 5826  21.687  15.568   2.448
40567W        W 5827   6.132  38.153   3.626
40568W        W 5828  39.084  41.925  12.680
40569W        W 5829   3.727  32.997   0.924
40570W        W 5830  27.450  24.197   0.270
40571W        W 5831  38.964  19.820  13.976
40572W        W 5832  14.267  24.572   3.256
40573W        W 5833  12.803  28.529   2.773
40574W        W 5834  30.495  41.337   0.921
40575W        W 5835  26.421  14.540  14.503
40576W        W 5836  32.993   1.509   4.261
40577W        W 5837  36.558  30.429  10.518
40578W        W 5838  41.847  44.370  10.279
40579W        W 5839   6.870  22.659   4.344
40580W        W 5840  11.295  39.464   0.783
40581W        W 5841  37.277  21.511   4.776
40582W        W 5842  13.071  11.636  11.995
40583W        W 5843  31.073  17.150  14.843
40584W        W 5844  39.960  32.130   4.859
40585W        W 5845  29.191  18.081  12.468
40586W        W 5846  12.829  41.396   1.407
40587W        W 5847   3.784  34.489  13.401
40588W        W 5848  43.727  44.428  13.451
40589W        W 5849  15.719  11.350   4.398
40590W        W 5850  16.765  22.933  14.766
40591W        W 5851  30.415  20.718   0.314
40592W        W 5852  20.281  25.020  14.703
40593W        W 5853  44.663  44.511   4.521
40594W        W 5854   6.921  41.753   4.166
40595W        W 5855  28.058   4.309   4.013
40596W        W 5856  43.960  28.929  12.844
40597W        W 5857   5.092  42.861   5.190
40598W        W 5858   5.856   4.345   3.309
40599W        W 5859  41.926  14.795   4.164
40600W        W 5860  34.406  32.055   3.636
40601W        W 5861  16.044  11.678   1.344
40602W        W 5862  16.560   8.787  14.063
40603W        W 5863  39.500  14.826  13.422
40604W        W 5864  37.738  33.560   2.257
40605W        W 5865  29.733  33.915  12.074
40606W        W 5866  39.758  24.135  12.578
40607W        W 5867  19.260  39.377   1.220
40608W        W 5868  19.557  37.534  11.566
40609W        W 5869  37.921   2.757  14.513
40610W        W 5870  10.646  10.219  13.542
40611W        W 5871   3.436  14.538  13.866
40612W        W 5872  17.530   6.743  13.553
40613W        W 5873   7.307   5.497  13.373
40614W        W 5874  36.265  19.276  14.423
40615W        W 5875  20.611   9.733  13.138
40616W        W 5876  37.855   1.009   1.193
40617W        W 5877  26.548  30.474  13.318
40618W        W 5878   2.259  43.795   0.937
40619W        W 5879  34.744   3.985   5.004
40620W        W 5880  42.593  17.286  14.692
40621W        W 5881  18.945  28.994  13.590
40622W        W 5882  10.252  41.861  13.820
40623W        W 5883  41.616  35.473   2.219
40624W        W 5884  21.476   9.311  14.805
40625W        W 5885  10.400  22.128  11.530
40626W        W 5886  13.374  27.791  10.186
40627W        W 5887  40.305  35.975  14.415
40628W        W 5888  26.124  12.808  13.982
40629W        W 5889  36.073  24.948  13.806
40630W        W 5890  28.422  14.332   0.050
40631W        W 5891   7.500   3.689   3.195
40632W        W 5892  22.047   0.687  14.881
40633W        W 5893  31.998  27.705  13.572
40634W        W 5894  27.593  23.226   1.766
40635W        W 5895  25.128  34.673  11.455
40636W        W 5896   8.242  18.727   4.399
40637W        W 5897  32.997   7.445  13.883
40638W        W 5898  21.586   7.615  11.057
40639W        W 5899  29.238  12.280  12.544
40640W        W 5900  43.505  20.557  11.593
40641W        W 5901  20.562  15.675  14.726
40642W        W 5902  26.758  27.373  13.364
40643W        W 5903  24.548  11.446   4.796
40644W        W 5904  39.592  12.332   4.564
40645W        W 5905  18.290  31.080   3.869
40646W        W 5906  10.150  29.348   3.682
40647W        W 5907  13.854  25.658   2.648
40648W        W 5908   0.565  10.992  12.290
40649W        W 5909  23.265  17.620   4.626
40650W        W 5910   7.875  44.243  14.714
40651W        W 5911  42.714  37.030  12.970
40652W        W 5912   0.219  13.273   1.338
40653W        W 5913   8.463  19.643  14.490
40654W        W 5914   9.834  40.607  11.093
40655W        W 5915  14.288  44.445   1.682
40656W        W 5916  36.949  32.024   3.580
40657W        W 5917  16.580  36.321  11.067
40658W        W 5918   2.390  43.359   1.876
40659W        W 5919  10.637  43.844   0.303
40660W        W 5920  34.915  10.133   2.412
40661W        W 5921  32.092  43.459  13.085
40662W        W 5922  30.633   3.894  11.820
40663W        W 5923  14.910  34.416  10.640
40664W        W 5924  34.268  35.928  10.681
40665W        W 5925  11.196  32.579   2.365
40666W        W 5926  27.049  29.714  11.553
40667W        W 5927   0.458  41.670   3.781
40668W        W 5928   6.224  40.049  10.750
40669W        W 5929  31.451  43.842  14.817
40670W        W 5930  37.730   5.764   4.237
40671W        W 5931  24.567  28.358   0.849
40672W        W 5932  13.694  13.592   3.301
40673W        W 5933  36.053  32.906   4.759
40674W        W 5934  34.740  16.849   3.247
40675W        W 5935  35.002  44.883  12.650
40676W        W 5936  30.466  15.310   3.209
40677W        W 5937  25.732  13.834  10.683
40678W        W 5938   9.250  39.499   0.886
40679W        W 5939  23.760  26.278   1.487
40680W        W 5940  10.611  43.485  13.816
40681W        W 5941  37.667   6.757   1.706
40682W        W 5942  24.509  41.533  14.911
40683W        W 5943   8.485  22.687   3.612
40684W        W 5944  12.606  11.799   0.844
40685W        W 5945   2.448   2.376  14.723
40686W        W 5946  24.229  44.289   4.113
40687W        W 5947  21.439  31.072  13.380
40688W        W 5948  15.145   4.645  13.649
40689W        W 5949  37.722   4.278  11.977
40690W        W 5950   7.458  35.792   0.760
40691W        W 5951  14.212  13.063  14.033
40692W        W 5952  40.829  25.499   1.693
40693W        W 5953  19.707  35.547  10.725
40694W        W 5954  33.431  42.551  10.918
40695W        W 5955  30.530  42.737   1.817
40696W        W 5956  33.820   2.189  12.975
40697W        W 5957  37.652  19.015   3.783
40698W        W 5958  18.499  39.526   3.146
40699W        W 5959  12.621   4.940  12.935
40700W        W 5960  24.555  28.538   3.167
40701W        W 5961  32.990   3.898   0.995
40702W        W 5962   4.816   4.295   0.963
40703W        W 5963  22.587  13.394  10.984
40704W        W 5964   2.170   6.364   3.707
40705W        W 5965  11.713  30.050  13.881
40706W        W 5966   6.015  16.245  13.506
40707W        W 5967  35.508  22.317  14.844
40708W        W 5968  42.788  41.857   0.983
40709W        W 5969  18.148   7.749  14.540
40710W        W 5970  39.707  17.780  12.568
40711W        W 5971  11.733  25.127  14.640
40712W        W 5972   4.928   5.026  11.029
40713W        W 5973  14.345  17.560   3.428
40714W        W 5974   3.466   6.804  11.960
40715W        W 5975   7.558  17.724  12.474
40716W        W 5976  40.279  21.011   5.078
40717W        W 5977  13.325  34.633   3.187
40718W        W 5978   5.633  20.152  13.093
40719W        W 5979  33.900  22.435   3.204
40720W        W 5980   4.991  38.442  12.041
40721W        W 5981   5.200   3.270  11.564
40722W        W 5982  23.959  16.635   0.444
40723W        W 5983   8.686  32.549   2.666
40724W        W 5984  23.007  21.642   0.806
40725W        W 5985  30.936  18.194  13.340
40726W        W 5986  14.723  39.379   4.148
40727W        W 5987  37.662  11.474   1.736
40728W        W 5988  24.464   6.369   2.284
40729W        W 5989  30.604  10.565  10.677
40730W        W 5990  41.928  13.741   0.362
40731W        W 5991   0.477  11.514   2.187
40732W        W 5992  12.657   1.001   4.710
40733W        W 5993  16.980  15.854  13.809
40734W        W 5994   8.875  13.089  14.251
40735W        W 5995   1.684  23.285   5.039
40736W        W 5996  35.618   2.836  14.986
40737W        W 5997  24.483  42.586   0.907
40738W        W 5998  44.094  16.798  11.149
40739W        W 5999  16.725  32.585   0.291
40740W        W 6000  34.007  14.882  14.552
40741W        W 6001  33.045  36.125   0.326
40742W        W 6002  41.400  29.459  13.324
40743W        W 6003  35.021  27.403  12.479
40744W        W 6004  16.257  30.589  12.909
40745W        W 6005  32.724  25.601   2.878
40746W        W 6006  19.564  10.868   1.924
40747W        W 6007  41.887  41.201  14.715
40748W        W 6008   3.563  43.771  10.880
40749W        W 6009  10.212  13.810  11.997
40750W        W 6010  41.899  14.607   1.884
40751W        W 6011  28.090  16.506   3.041
40752W        W 6012  20.844   2.934  11.559
40753W        W 6013  15.289   8.866  13.389
40754W        W 6014  25.344  31.637   0.843
40755W        W 6015   0.298  15.313   3.737
40756W        W 6016  23.515   7.247   0.880
40757W        W 6017  22.446  10.894   1.158
40758W        W 6018  35.961  25.434  14.545
40759W        W 6019  23.739  10.599  12.241
40760W        W 6020  34.897  44.920  14.929
40761W        W 6021  21.070   6.799  13.815
40762W        W 6022  36.607  37.916  14.395
40763W        W 6023  17.049  12.666   4.209
40764W        W 6024   1.275   8.380   1.720
40765W        W 6025  31.066  38.414  14.980
40766W        W 6026  28.100  14.342  14.302
40767W        W 6027  24.054   5.250   3.180
40768W        W 6028  11.592  31.980  11.272
40769W        W 6029   9.396  40.838   4.543
40770W        W 6030  44.450  40.977  13.635
40771W        W 6031  39.676   8.620  11.790
40772W        W 6032  21.982   2.030  11.128
40773W        W 6033  25.081  17.992   4.910
40774W        W 6034  34.234  20.318   3.186
40775W        W 6035  43.979  28.986  12.082
40776W        W 6036  16.805  41.046   0.396
40777W        W 6037  26.153  11.828  13.327
40778W        W 6038  20.097   2.322  11.610
40779W        W 6039  20.797  29.102   4.121
40780W        W 6040   3.249   7.170   0.139
40781W        W 6041  32.513  35.129   4.216
40782W        W 6042  22.128  44.562  11.995
40783W        W 6043  21.133  23.213   3.597
40784W        W 6044  37.985  19.503  12.943
40785W        W 6045  30.873  16.698   2.278
40786W        W 6046   3.939  43.933  13.956
40787W        W 6047  30.949  30.904  14.057
40788W        W 6048  43.842  31.927  12.889
40789W        W 6049  39.320  13.687   1.019
40790W        W 6050  40.791  32.614   2.232
40791W        W 6051   6.772   2.540   1.738
40792W        W 6052   8.401   7.442  11.686
40793W        W 6053  43.473  33.327   0.925
40794W        W 6054  32.590  26.563   5.412
40795W        W 6055  39.622  28.348  10.684
40796W        W 6056   3.470  12.828  14.327
40797W        W 6057  44.890  29.831   3.618
40798W        W 6058  28.499  18.150  13.038
40799W        W 6059  16.156  35.090  11.177
40800W        W 6060   6.376  29.115   1.382
40801W        W 6061  12.707  40.041   1.990
40802W        W 6062  16.434  12.386   3.188
40803W        W 6063  27.407   3.469  13.006
40804W        W 6064   3.797  41.798   4.595
40805W        W 6065  36.783  38.326  11.171
40806W        W 6066   5.029  39.138   4.988
40807W        W 6067  32.605   2.750  13.531
40808W        W 6068   4.443  10.178  12.945
40809W        W 6069  22.634  18.506  12.594
40810W        W 6070  24.726  40.925  11.133
40811W        W 6071   0.396   6.813  13.319
40812W        W 6072   8.660  24.925  11.147
40813W        W 6073  27.793  17.319  12.500
40814W        W 6074  18.659  15.749   3.751
40815W        W 6075  13.764  39.375   0.129
40816W        W 6076  30.006  35.567   3.955
40817W        W 6077   8.657  32.646   0.629
40818W        W 6078   8.245  32.525   1.896
40819W        W 6079  23.046  22.969   0.731
40820W        W 6080  39.850   3.221   2.534
40821W        W 6081  25.430   6.907   4.148
40822W        W 6082  30.196  26.631   4.560
40823W        W 6083  21.684  37.609   1.622
40824W        W 6084  22.540  40.237  10.079
40825W        W 6085  33.458  42.792  11.434
40826W        W 6086   5.722  37.408  14.547
40827W        W 6087  28.447  40.771   2.876
40828W        W 6088  25.205  39.107  10.288
40829W        W 6089   5.888  36.510  14.711
40830W        W 6090   5.273  14.110   3.569
40831W        W 6091  31.425  13.174  12.427
40832W        W 6092  16.808  34.652  13.592
40833W        W 6093  18.167  31.997   3.664
40834W        W 6094  26.436   4.927  14.764
40835W        W 6095  14.180  23.005  10.212
40836W        W 6096   3.437   9.479   4.676
40837W        W 6097  35.671  24.720   0.851
40838W        W 6098  17.796  14.616  13.280
40839W        W 6099  43.864  44.818  10.414
40840W        W 6100   3.269   6.256  10.599
40841W        W 6101  29.557   2.841   2.967
40842W        W 6102  26.671  43.874  12.667
40843W        W 6103  18.324  24.327   3.922
40844W        W 6104   3.453   2.490  11.521
40845W        W 6105  33.391  43.960  12.451
40846W        W 6106  21.190  41.939  13.493
40847W        W 6107  32.793  26.437   3.592
40848W        W 6108   2.212   3.400   3.578
40849W        W 6109  38.110  12.840  13.206
40850W        W 6110  36.670   6.223  10.635
40851W        W 6111   8.676   4.189  12.057
40852W        W 6112   3.465  24.591   5.089
40853W        W 6113  32.396  39.039   4.606
40854W        W 6114  18.867  39.213   4.666
40855W        W 6115   0.884  29.446  10.503
40856W        W 6116  36.138  34.397   2.300
40857W        W 6117  30.350  10.861   0.371
40858W        W 6118   7.541  23.611  14.067
40859W        W 6119   6.209  17.067  13.760
40860W        W 6120  31.017  32.113   3.692
40861W        W 6121  26.647   4.872   5.019
40862W        W 6122  35.025   2.370   0.456
40863W        W 6123   6.072  15.927  14.320
40864W        W 6124   8.885  10.520  14.762
40865W        W 6125  43.415  19.792   4.524
40866W        W 6126  35.487  27.620  12.428
40867W        W 6127  35.775  27.640  12.870
40868W        W 6128  42.869  26.220  11.622
40869W        W 6129  10.857  35.079   2.558
40870W        W 6130   2.690  44.307   0.476
40871W        W 6131  12.991  10.071  13.500
40872W        W 6132  30.904  26.943  11.948
40873W        W 6133  37.430  16.031  13.321
40874W        W 6134  18.287  21.815  13.317
40875W        W 6135  38.520  44.235   2.776
40876W        W 6136  33.929  17.863   4.421
40877W        W 6137   5.621  36.549   3.310
40878W        W 6138  30.574  22.933  14.499
40879W        W 6139   1.037   9.169   4.494
40880W        W 6140   2.335  44.391  14.784
40881W        W 6141  20.438   8.319   1.891
40882W        W 6142  20.821  41.077  11.614
40883W        W 6143  12.895  26.368  13.024
40884W        W 6144  17.667   4.465  12.876
40885W        W 6145  17.577  22.577  13.705
40886W        W 6146  27.892  23.763   2.328
40887W        W 6147   1.475  41.906   3.892
40888W        W 6148  38.938  44.709  10.690
40889W        W 6149  25.976  44.355  11.398
40890W        W 6150  39.566  41.758  12.420
40891W        W 6151  36.064  43.370  13.519
40892W        W 6152  34.198  20.614   1.260
40893W        W 6153  40.386   8.341  11.987
40894W        W 6154  38.027  41.977   3.747
40895W        W 6155  14.491  29.497   3.835
40896W        W 6156   8.799  13.184  11.517
40897W        W 6157  31.301  35.508  14.746
40898W        W 6158  31.428   4.218  14.158
40899W        W 6159   6.177  22.245  13.066
40900W        W 6160   6.496  39.592  13.856
40901W        W 6161  43.562  11.346  13.792
40902W        W 6162   0.393  27.675   1.228
40903W        W 6163  35.842  17.131  14.497
40904W        W 6164   3.675  40.423  12.554
40905W        W 6165  19.258  18.639   4.657
40906W        W 6166  39.408  34.453   1.585
40907W        W 6167  32.356  23.212  14.835
40908W        W 6168  31.517  16.860  14.378
40909W        W 6169  42.113  29.646  14.847
40910W        W 6170  32.604  12.301   0.858
40911W        W 6171  43.740  35.556   1.407
40912W        W 6172  37.422   9.297  13.453
40913W        W 6173   0.757  32.704   0.802
40914W        W 6174  36.461  22.904  10.136
40915W        W 6175  19.032  43.832   3.121
40916W        W 6176  38.284  13.733  13.114
40917W        W 6177   8.258  41.120  14.655
40918W        W 6178  22.779  11.316  11.868
40919W        W 6179  17.743   5.415  12.035
40920W        W 6180  26.277  20.845   4.441
40921W        W 6181   0.307  20.613  10.769
40922W        W 6182   1.967  14.281   4.084
40923W        W 6183  39.826  18.599  14.876
40924W        W 6184  22.175  18.219   2.247
40925W        W 6185  44.938   8.210   1.396
40926W        W 6186  15.438   5.947  14.877
40927W        W 6187   5.274  10.797   1.890
40928W        W 6188  26.222  39.403  10.479
40929W        W 6189  21.164  26.942  11.209
40930W        W 6190  37.380   9.325  14.393
40931W        W 6191  31.484  36.303  13.543
40932W        W 6192  18.775  43.627  12.947
40933W        W 6193  28.001  20.003  14.872
40934W        W 6194   6.994  41.693  12.905
40935W        W 6195   0.938  26.710  14.898
40936W        W 6196  34.228   6.650  14.809
40937W        W 6197  29.038  23.220   3.172
40938W        W 6198  17.438  44.735  13.342
40939W        W 6199  42.832  25.393   3.749
40940W        W 6200   9.855  36.446  12.168
40941W        W 6201   6.020  13.638   0.304
40942W        W 6202   4.745   8.925   1.257
40943W        W 6203  14.737  25.149  14.499
40944W        W 6204   3.801  33.953   4.323
40945W        W 6205  28.785  13.497   3.122
40946W        W 6206  23.248  36.152  12.115
40947W        W 6207  20.339  22.920   3.130
40948W        W 6208  15.572   1.231   4.365
40949W        W 6209  37.275  40.832   3.871
40950W        W 6210  12.187  20.065  12.002
40951W        W 6211  36.005   7.902   4.306
40952W        W 6212   1.266  19.205   3.753
40953W        W 6213   6.109   7.454   2.558
40954W        W 6214  23.294  24.052  11.837
40955W        W 6215   0.933   8.001  11.221
40956W        W 6216   1.100  27.577  14.844
40957W        W 6217  26.922  29.540   4.489
40958W        W 6218  17.639  13.861  14.462
40959W        W 6219  40.232  41.799  14.883
40960W        W 6220   2.950  42.698   4.246
40961W        W 6221  34.413  28.629   0.558
40962W        W 6222  26.524  34.164  10.619
40963W        W 6223  37.601  21.080  11.661
40964W        W 6224  25.577  15.115  14.408
40965W        W 6225  19.633  32.195   2.657
40966W        W 6226  30.169  17.315  10.591
40967W        W 6227  16.785  32.973  13.589
40968W        W 6228  36.409  30.919  10.595
40969W        W 6229  15.168  17.973   3.058
40970W        W 6230   1.730  13.633  11.638
40971W        W 6231  28.564  16.309  10.413
40972W        W 6232  30.409  40.405   0.854
40973W        W 6233  35.391  29.579   1.181
40974W        W 6234  38.086  40.423  11.934
40975W        W 6235  33.515  21.480  13.857
40976W        W 6236  10.355  16.305   1.748
40977W        W 6237  27.543  31.102   1.379
40978W        W 6238  11.356   6.442   2.484
40979W        W 6239  18.730  40.886  12.396
40980W        W 6240  23.566   4.727   3.630
40981W        W 6241  13.077  25.642   3.679
40982W        W 6242  25.356  25.446   1.312
40983W        W 6243  24.456  26.934  14.293
40984W        W 6244  23.803  38.052  14.967
40985W        W 6245  15.950  25.912   2.581
40986W        W 6246  37.177   1.930   4.580
40987W        W 6247  29.218  12.600   1.812
40988W        W 6248  26.906  22.644  11.560
40989W        W 6249  23.782  40.360  10.723
40990W        W 6250  39.814  17.209  11.656
40991W        W 6251  20.301  27.792  11.975
40992W        W 6252  26.295  25.822   0.237
40993W        W 6253  29.474  11.456   3.192
40994W        W 6254  10.195   9.834  11.148
40995W        W 6255  29.685  18.064  13.382
40996W        W 6256  18.856  36.059  14.843
40997W        W 6257  18.235  32.445  10.972
40998W        W 6258   9.968  19.778  11.313
40999W        W 6259  34.574  20.625   0.882
41000W        W 6260  18.035  33.900   4.424
41001W        W 6261  23.530  39.976  12.107
41002W        W 6262  11.489  38.427   9.678
41003W        W 6263   1.468  33.955  13.090
41004W        W 6264   6.292  20.456   0.629
41005W        W 6265  10.896  34.312   0.720
41006W        W 6266  17.488  22.187  10.587
41007W        W 6267  42.882  42.721   0.535
41008W        W 6268  23.604  24.819   3.309
41009W        W 6269  12.604  44.960  11.092
41010W        W 6270  14.247  35.098   3.882
41011W        W 6271   3.773   5.987   2.398
41012W        W 6272   2.445   1.682   4.913
41013W        W 6273  21.214  28.598   1.917
41014W        W 6274  41.976  40.013  13.952
41015W        W 6275   9.949  39.409   2.494
41016W        W 6276  32.485  19.511  11.664
41017W        W 6277  16.040  22.501  12.956
41018W        W 6278  12.182  23.438  12.087
41019W        W 6279  32.985  35.776   0.715
41020W        W 6280  40.172  27.358  11.503
41021W        W 6281  12.840   5.900   0.900
41022W        W 6282  14.797   1.817  11.442
41023W        W 6283  43.045  21.874   0.299
41024W        W 6284   6.421   3.680   3.595
41025W        W 6285  44.047  15.201   4.143
41026W        W 6286   7.195   2.004   1.178
41027W        W 6287  11.623  17.241  14.059
41028W        W 6288  20.052  36.449   4.683
41029W        W 6289  21.444   6.955   3.648
41030W        W 6290  43.526  20.831  12.898
41031W        W 6291  25.588   6.885   2.675
41032W        W 6292   3.302  32.717  12.561
41033W        W 6293  39.900   8.471   3.190
41034W        W 6294  12.423  32.788   3.313
41035W        W 6295   0.955  21.391  10.790
41036W        W 6296   3.450  11.214  12.646
41037W        W 6297   2.129  23.460  11.608
41038W        W 6298  22.568  31.646   0.876
41039W        W 6299  30.009  15.566   2.477
41040W        W 6300  26.944   9.326  12.992
41041W        W 6301   7.211   0.259   2.730
41042W        W 6302  21.434  21.486   5.411
41043W        W 6303  22.035  31.051  10.728
41044W        W 6304  37.470  36.470  10.728
41045W        W 6305  20.986  18.485  10.058
41046W        W 6306  40.444  19.133  10.781
41047W        W 6307  20.418  26.072   0.294
41048W        W 6308  24.326  16.230  14.723
41049W        W 6309   1.836  37.526   3.692
41050W        W 6310  18.851  14.176  11.494
41051W        W 6311  27.058  43.612   4.678
41052W        W 6312  41.137  27.919  12.402
41053W        W 6313   5.224  20.107   4.620
41054W        W 6314  39.830   4.607  11.673
41055W        W 6315  20.843  44.129   2.366
41056W        W 6316  17.839  43.296  12.022
41057W        W 6317  27.531  25.278  14.046
41058W        W 6318  37.198  43.699   1.914
41059W        W 6319  42.962  38.801  11.534
41060W        W 6320  25.792  37.452   4.244
41061W        W 6321   0.581  30.054  13.296
41062W        W 6322  13.088  29.428  14.589
41063W        W 6323   3.332  44.775   1.882
41064W        W 6324  29.591   6.062  11.520
41065W        W 6325  17.322  19.222   1.227
41066W        W 6326  22.321  10.958  12.402
41067W        W 6327  15.843  25.639  13.018
41068W        W 6328  35.869  13.653   2.184
41069W        W 6329  22.637  31.101   2.340
41070W        W 6330  14.257  22.763  13.584
41071W        W 6331  38.323  24.770  14.861
41072W        W 6332  11.260  37.350  11.249
41073W        W 6333   5.214  40.447  11.855
41074W        W 6334  24.548  15.813  10.623
41075W        W 6335   7.151  26.011   2.201
41076W        W 6336  31.422  34.948  13.096
41077W        W 6337  42.570  30.490  10.667
41078W        W 6338  34.930  26.375  13.494
41079W        W 6339  34.243  27.751   3.299
41080W        W 6340  44.011  38.961   1.670
41081W        W 6341  21.782  14.355   4.649
41082W        W 6342  11.408   6.518  11.998
41083W        W 6343  28.313  26.181  11.491
41084W        W 6344  26.607  33.819  13.530
41085W        W 6345  29.253  22.680  14.529
41086W        W 6346  35.515  21.185   9.865
41087W        W 6347   3.485  35.605   2.782
41088W        W 6348  36.822  21.031  14.959
41089W        W 6349  12.083   7.877  14.982
41090W        W 6350  34.668  39.835   2.305
41091W        W 6351  23.976  42.306  11.113
41092W        W 6352  31.584  38.086  13.060
41093W        W 6353  28.814  33.455   1.301
41094W        W 6354  16.542   3.010  12.398
41095W        W 6355  40.390  36.380   3.709
41096W        W 6356  10.968  31.328  14.868
41097W        W 6357   2.008   8.249   0.358
41098W        W 6358  29.570  25.744  10.127
41099W        W 6359   5.147  29.671   9.902
41100W        W 6360  21.136   0.794   0.101
41101W        W 6361  28.946  30.411  14.905
41102W        W 6362  33.046  15.550  14.005
41103W        W 6363  40.078  34.531  11.973
41104W        W 6364  21.521  15.604   0.922
41105W        W 6365   9.421  32.084  13.104
41106W        W 6366   9.587  12.780  13.349
41107W        W 6367  44.935  10.190   3.851
41108W        W 6368  32.938  33.941   0.574
41109W        W 6369  17.812  27.484  10.780
41110W        W 6370   7.669  17.222  12.374
41111W        W 6371  22.998  28.412  14.629
41112W        W 6372  39.820  25.011  12.564
41113W        W 6373   2.693  35.493   3.129
41114W        W 6374   5.141  13.214   4.540
41115W        W 6375  30.563  27.714   0.958
41116W        W 6376  34.381  15.551   1.807
41117W        W 6377  31.988  11.206  14.894
41118W        W 6378  10.547  22.673   1.673
41119W        W 6379  38.929   0.627  10.675
41120W        W 6380  30.706   6.910  10.736
41121W        W 6381  41.844  14.974  12.025
41122W        W 6382  27.184  35.457  12.820
41123W        W 6383  29.607   3.883   4.204
41124W        W 6384  10.743  20.296   4.694
41125W        W 6385   4.233  19.686   1.411
41126W        W 6386  30.596  37.354  11.437
41127W        W 6387  15.761  30.004  13.521
41128W        W 6388   0.805  15.871   9.998
41129W        W 6389  11.564  38.539  14.602
41130W        W 6390  12.872  23.203  11.615
41131W        W 6391  18.690  33.834   1.836
41132W        W 6392   7.830   0.775  10.924
41133W        W 6393  30.677  44.553  10.745
41134W        W 6394  16.737  39.207  11.922
41135W        W 6395   3.314  30.973  13.751
41136W        W 6396   9.915  28.130   4.171
41137W        W 6397  23.078  42.548  14.829
41138W        W 6398  24.724   1.684   2.608
41139W        W 6399  16.399  39.492   4.106
41140W        W 6400  17.891  23.833   2.284
41141W        W 6401  25.713  23.598  11.895
41142W        W 6402   2.977  34.117   3.053
41143W        W 6403   3.782  25.036  14.271
41144W        W 6404   2.787   2.422   4.389
41145W        W 6405  12.643   8.353   2.638
41146W        W 6406   2.785  44.057  11.114
41147W        W 6407   6.796  38.524  13.389
41148W        W 6408  29.458   7.514  14.030
41149W        W 6409   7.254  39.306   1.737
41150W        W 6410   3.961  11.610   1.939
41151W        W 6411  16.548  32.484  13.576
41152W        W 6412  26.441  12.711  12.600
41153W        W 6413  14.439  38.931   1.444
41154W        W 6414   5.134  23.951   1.753
41155W        W 6415   4.265  34.632   0.740
41156W        W 6416  27.456  38.125  13.338
41157W        W 6417   2.350  44.065   4.248
41158W        W 6418  32.658  16.630   3.151
41159W        W 6419   1.494  33.543  13.400
41160W        W 6420  27.146  13.898  14.751
41161W        W 6421  37.493  10.332  12.627
41162W        W 6422  41.622  21.818  13.537
41163W        W 6423  11.201  10.567  14.901
41164W        W 6424  41.114  38.575  13.434
41165W        W 6425   0.757  16.032   4.665
41166W        W 6426  36.307  22.020   2.635
41167W        W 6427   1.889   5.670   0.427
41168W        W 6428  44.802  27.120   3.998
41169W        W 6429  42.485  28.674   1.432
41170W        W 6430  32.003   9.921  10.709
41171W        W 6431  33.826  21.703   1.488
41172W        W 6432  33.824  28.051   2.888
41173W        W 6433  24.078  41.982   4.397
41174W        W 6434  12.558  40.443  11.129
41175W        W 6435   2.206  22.805   2.728
41176W        W 6436  37.201  38.172   0.668
41177W        W 6437  21.258  12.240  12.018
41178W        W 6438  10.194  18.829   2.599
41179W        W 6439   7.187  29.450   3.577
41180W        W 6440  43.317   4.541  11.208
41181W        W 6441  26.963  35.060  11.534
41182W        W 6442  36.520   6.272   3.697
41183W        W 6443  14.307  15.856   0.373
41184W        W 6444  28.763  38.448   0.532
41185W        W 6445  40.288   4.485   4.114
41186W        W 6446  43.311  25.514   1.277
41187W        W 6447  39.491   6.731  11.785
41188W        W 6448  17.362   0.141  14.499
41189W        W 6449  30.612  37.786  11.147
41190W        W 6450  17.153  18.740  13.803
41191W        W 6451   1.429  36.050   1.662
41192W        W 6452  12.245   5.986   2.204
41193W        W 6453  44.481  35.372  12.574
41194W        W 6454  25.538  19.289  11.998
41195W        W 6455  29.392   7.422   0.569
41196W        W 6456  23.465  31.792  11.936
41197W        W 6457  11.436  44.391  10.541
41198W        W 6458  34.326  26.590  11.643
41199W        W 6459  29.454   6.631  14.432
41200W        W 6460  21.409   1.353  12.954
41201W        W 6461  31.773  43.721   1.209
41202W        W 6462  34.267  38.000   2.254
41203W        W 6463  11.418  27.094   0.330
41204W        W 6464  23.042  29.654   0.248
41205W        W 6465  28.505  11.214   4.487
41206W        W 6466   4.768  41.259   1.825
41207W        W 6467  12.130  20.579  12.016
41208W        W 6468  38.606  29.855   3.249
41209W        W 6469  40.858  18.039  11.207
41210W        W 6470  28.701  28.282   1.881
41211W        W 6471  18.651  44.083   0.012
41212W        W 6472   6.966   9.365   2.743
41213W        W 6473  18.020   2.352  10.694
41214W        W 6474  13.783   6.738   3.651
41215W        W 6475  25.085  38.838  11.108
41216W        W 6476  39.446  30.400   4.533
41217W        W 6477  42.795  37.874  14.080
41218W        W 6478  24.289  24.026  11.565
41219W        W 6479  18.252   3.458  11.916
41220W        W 6480   0.492   0.235  11.184
41221W        W 6481  26.738  33.310   4.766
41222W        W 6482  43.847  14.836   1.714
41223W        W 6483  25.619  38.399  11.099
41224W        W 6484  26.792  25.751  10.707
41225W        W 6485  37.325  44.173   3.262
41226W        W 6486  20.543  13.908   4.579
41227W        W 6487  27.063  37.059  12.406
41228W        W 6488  15.016   5.702  12.038
41229W        W 6489   1.642  29.481  14.539
41230W        W 6490  15.274  28.834   0.396
41231W        W 6491  35.902  36.244   0.793
41232W        W 6492  35.346  28.843   1.872
41233W        W 6493  18.157  34.852   3.695
41234W        W 6494  14.281  11.270   1.685
41235W        W 6495  19.575  16.793  13.800
41236W        W 6496  18.728  19.564  14.415
41237W        W 6497  33.673  33.544  11.224
41238W        W 6498   0.236  41.634   4.280
41239W        W 6499   3.850  14.666  12.131
41240W        W 6500  13.015  42.905   1.657
41241W        W 6501  11.387  42.485   3.241
41242W        W 6502  29.616  14.144   2.277
41243W        W 6503  26.638   1.726  11.522
41244W        W 6504   9.261  43.702   0.479
41245W        W 6505  39.994  37.002   4.624
41246W        W 6506  39.270   1.992  13.506
41247W        W 6507  16.159  25.297  14.736
41248W        W 6508  38.046   2.816   2.265
41249W        W 6509  24.531   0.710   2.902
41250W        W 6510   9.993   4.546  12.990
41251W        W 6511  22.027  27.198  13.278
41252W        W 6512  35.519  21.092  13.618
41253W        W 6513  19.107  17.817   4.355
41254W        W 6514  16.643  36.057   0.473
41255W        W 6515  44.546  32.639  12.258
41256W        W 6516  29.720  44.379  12.930
41257W        W 6517   0.917  27.456   1.284
41258W        W 6518  37.094  40.207  10.969
41259W        W 6519  24.424  30.557   2.381
41260W        W 6520  21.586  21.638   0.456
41261W        W 6521  26.025  44.955  11.603
41262W        W 6522  33.778  13.096   1.365
41263W        W 6523  37.611   8.838  10.623
41264W        W 6524  22.725  11.520   3.209
41265W        W 6525   5.943  16.566   1.712
41266W        W 6526  29.953  36.195  12.412
41267W        W 6527   2.359  26.940   4.796
41268W        W 6528  33.297  24.491  14.363
41269W        W 6529  32.332  26.790  12.264
41270W        W 6530  35.065  19.937   2.272
41271W        W 6531  17.075  26.241   1.015
41272W        W 6532   0.874  19.011   0.191
41273W        W 6533  32.805  14.996  13.178
41274W        W 6534  33.903  17.140   0.737
41275W        W 6535  41.217  28.475  13.348
41276W        W 6536  34.915  12.185   0.003
41277W        W 6537  17.260  39.793   1.746
41278W        W 6538   0.997  38.379  11.193
41279W        W 6539  29.486  34.483   2.431
41280W        W 6540  31.214  35.944   2.654
41281W        W 6541   1.357  31.988  12.312
41282W        W 6542  37.104  22.656  12.055
41283W        W 6543  17.689  26.987   4.136
41284W        W 6544   9.471  17.960   4.480
41285W        W 6545  24.580  30.977  14.021
41286W        W 6546  38.517  14.190   3.243
41287W        W 6547   7.745  44.422   4.581
41288W        W 6548   9.649  23.590   1.369
41289W        W 6549  12.786  17.652   1.016
41290W        W 6550  43.518  16.742   2.606
41291W        W 6551  36.895   3.732  14.430
41292W        W 6552  10.984  37.507   2.811
41293W        W 6553   4.607   2.714   4.002
41294W        W 6554  29.477  32.617  10.751
41295W        W 6555   1.013  44.576   2.803
41296W        W 6556  10.747  20.171  13.991
41297W        W 6557  35.037  29.609   0.183
41298W        W 6558   5.498  34.982   4.697
41299W        W 6559  29.574  10.324  10.102
41300W        W 6560  22.651  35.106  13.113
41301W        W 6561  37.662  15.677   4.507
41302W        W 6562  25.950   0.933   2.800
41303W        W 6563  20.527  36.983  11.475
41304W        W 6564  14.638  29.639   0.271
41305W        W 6565  11.867  14.743  11.528
41306W        W 6566  42.839   3.377   0.839
41307W        W 6567  26.607  34.395   0.467
41308W        W 6568  25.199  34.973   4.366
41309W        W 6569  34.818   0.738   0.292
41310W        W 6570  15.402  10.152   3.104
41311W        W 6571  21.603   0.913   1.797
41312W        W 6572  15.617  32.645   2.775
41313W        W 6573  12.062  31.328  10.662
41314W        W 6574  40.425  20.548   4.746
41315W        W 6575  41.935  24.064   4.178
41316W        W 6576  38.140  19.050  12.776
41317W        W 6577  41.309  29.956  14.944
41318W        W 6578  18.862  39.558   2.179
41319W        W 6579  30.854  40.415   2.087
41320W        W 6580   9.890  35.521  12.124
41321W        W 6581  23.923  16.293  14.393
41322W        W 6582  42.900  16.191  13.613
41323W        W 6583   7.901  44.148   2.161
41324W        W 6584  35.558  35.228   4.739
41325W        W 6585   9.917  31.390  12.417
41326W        W 6586  43.730  28.468   4.113
41327W        W 6587  17.157  41.884  10.791
41328W        W 6588  14.280  17.151   1.061
41329W        W 6589  19.165  32.201   0.928
41330W        W 6590  24.547  32.910   3.160
41331W        W 6591  39.003  13.370   2.808
41332W        W 6592  35.362   8.504   0.854
41333W        W 6593  19.666   7.941   4.880
41334W        W 6594  24.508  13.401  10.599
41335W        W 6595   0.842  17.760   4.194
41336W        W 6596  42.222  30.436   4.833
41337W        W 6597  20.630  40.882  14.770
41338W        W 6598  18.720  41.378   4.242
41339W        W 6599  38.916  40.713   1.356
41340W        W 6600  26.435   6.193  14.350
41341W        W 6601   6.549  14.271   0.773
41342W        W 6602  17.708   5.661   1.222
41343W        W 6603  40.864  16.147  11.479
41344W        W 6604  24.023  24.703   2.157
41345W        W 6605  10.860   1.531  12.033
41346W        W 6606  22.014  12.193  13.512
41347W        W 6607   1.433  11.601   5.449
41348W        W 6608  42.065  14.149   1.198
41349W        W 6609  30.670  20.980   0.689
41350W        W 6610  30.545  35.301   0.789
41351W        W 6611  16.857   2.718   4.437
41352W        W 6612  44.972  34.640  13.457
41353W        W 6613  33.636  28.022   2.374
41354W        W 6614  11.350  41.431  10.490
41355W        W 6615  37.820  41.708  14.939
41356W        W 6616  11.193  14.780  13.928
41357W        W 6617  21.960  26.621  14.901
41358W        W 6618   6.257  10.467  12.855
41359W        W 6619   7.652  24.562   0.372
41360W        W 6620  42.101  33.316  12.505
41361W        W 6621  22.201  37.465   1.697
41362W        W 6622  21.982   2.115   4.962
41363W        W 6623   1.227  18.379   3.758
41364W        W 6624  22.143  10.726  14.893
41365W        W 6625  33.525   4.763   3.295
41366W        W 6626  13.556   0.501   4.199
41367W        W 6627  28.468  24.637   4.174
41368W        W 6628   7.876  10.866   2.142
41369W        W 6629  26.860  12.039  10.872
41370W        W 6630  32.471  44.775  11.946
41371W        W 6631  36.006   5.598   3.770
41372W        W 6632  12.772  36.370   3.135
41373W        W 6633   0.484  17.916   2.684
41374W        W 6634  13.693  17.573  14.312
41375W        W 6635  38.083  22.563   3.700
41376W        W 6636   4.212  21.732  11.542
41377W        W 6637   9.775   2.034   3.205
41378W        W 6638  14.303  12.887  14.529
41379W        W 6639   1.235  12.280   3.276
41380W        W 6640  15.193  30.029   4.685
41381W        W 6641   6.264  17.614   4.620
41382W        W 6642  35.340   1.504   3.084
41383W        W 6643  19.706   4.365   2.820
41384W        W 6644  34.089  35.837   2.744
41385W        W 6645  31.106  14.668  12.010
41386W        W 6646   4.128  23.332  10.715
41387W        W 6647   4.099  18.961  10.811
41388W        W 6648  23.680  22.646   3.317
41389W        W 6649  40.360  24.890   4.560
41390W        W 6650   4.969  23.534   3.549
41391W        W 6651  13.351  44.492  13.552
41392W        W 6652  15.165   2.674   1.756
41393W        W 6653  42.268  19.009  11.173
41394W        W 6654  25.693  16.190   1.759
41395W        W 6655  42.606  38.742   0.477
41396W        W 6656  34.323  23.019  11.086
41397W        W 6657  16.544  20.248  12.225
41398W        W 6658  18.069  40.314   0.348
41399W        W 6659  41.870  20.679   1.667
41400W        W 6660   0.192  20.967   2.767
41401W        W 6661  36.411  30.626   0.792
41402W        W 6662   0.513  33.012   4.480
41403W        W 6663  12.125  39.274   3.868
41404W        W 6664   8.436  21.937  11.035
41405W        W 6665  40.464  12.122  13.818
41406W        W 6666   0.311  11.429  12.173
41407W        W 6667  24.520   6.707   3.776
41408W        W 6668  32.234  19.193  14.066
41409W        W 6669  35.039  20.544   3.637
41410W        W 6670  23.023   3.960   2.264
41411W        W 6671  14.361   6.984   4.080
41412W        W 6672  15.658  38.011   3.720
41413W        W 6673  21.567  24.184  10.279
41414W        W 6674   8.072  32.068  14.071
41415W        W 6675  40.272   8.068  12.393
41416W        W 6676  33.139   4.716  11.674
41417W        W 6677  43.359  32.029  14.134
41418W        W 6678  38.291  35.571   4.136
41419W        W 6679  44.929  34.248  12.078
41420W        W 6680  11.107  41.388   4.588
41421W        W 6681  39.031  14.102   5.053
41422W        W 6682   7.828  42.458  11.991
41423W        W 6683  44.469  17.129  14.795
41424W        W 6684  29.145  33.845  11.497
41425W        W 6685   6.504  37.949   2.486
41426W        W 6686  38.150   1.196   0.609
41427W        W 6687  10.838  41.386  11.713
41428W        W 6688  40.480   0.913  12.960
41429W        W 6689  43.084   2.445  14.551
41430W        W 6690   1.372  29.905  13.940
41431W        W 6691  13.536  21.186   4.712
41432W        W 6692  31.454  18.827  10.600
41433W        W 6693  42.792  24.164   0.332
41434W        W 6694  25.664   2.251   1.844
41435W        W 6695  33.564  11.417  11.160
41436W        W 6696  11.684   5.429  13.779
41437W        W 6697   0.702   0.988   3.672
41438W        W 6698  36.458  27.271  12.489
41439W        W 6699  32.156  19.342   2.774
41440W        W 6700   6.321  11.637  12.639
41441W        W 6701  40.259  32.119   3.110
41442W        W 6702   2.605  43.296  12.863
41443W        W 6703  20.453  35.544  11.557
41444W        W 6704  18.059  41.693  13.705
41445W        W 6705  16.829  26.570  11.515
41446W        W 6706  42.494   9.925  11.112
41447W        W 6707  23.556  27.200  10.705
41448W        W 6708  39.916  34.337  11.059
41449W        W 6709  28.739  43.671   1.549
41450W        W 6710  21.923  32.684   4.089
41451W        W 6711   6.406  43.301  12.621
41452W        W 6712  29.403  37.443   3.623
41453W        W 6713  35.353  17.299   2.912
41454W        W 6714  28.065  13.589  12.113
41455W        W 6715   0.369  29.611   3.594
41456W        W 6716  32.105  30.448  11.609
41457W        W 6717  18.822  10.292   2.802
41458W        W 6718  32.068   8.223   0.434
41459W        W 6719  14.154  10.338  14.333
41460W        W 6720  10.795  38.484   4.628
41461W        W 6721  29.898  15.591   0.446
41462W        W 6722  36.760   7.206   1.307
41463W        W 6723  33.186  28.367   0.960
41464W        W 6724  35.705  22.837   3.994
41465W        W 6725  36.858   9.125   2.338
41466W        W 6726  15.155  13.445   3.456
41467W        W 6727  28.250  28.537   2.094
41468W        W 6728  37.183  23.065  13.503
41469W        W 6729   2.806   8.588  11.656
41470W        W 6730  37.668   3.372   2.815
41471W        W 6731  27.371  20.203   2.795
41472W        W 6732   2.714  32.228  11.750
41473W        W 6733   9.120  11.175   4.382
41474W        W 6734  40.419  26.551   3.911
41475W        W 6735  44.418   6.157   4.600
41476W        W 6736  44.448  27.043   2.149
41477W        W 6737   6.286  10.766  10.540
41478W        W 6738  32.738  19.105   2.031
41479W        W 6739  13.419  36.328   3.822
41480W        W 6740  24.812  14.150   4.746
41481W        W 6741  42.073   8.303  14.306
41482W        W 6742  12.140  32.725   0.998
41483W        W 6743  21.710  12.183  11.787
41484W        W 6744   7.153  12.905   2.659
41485W        W 6745  26.146  19.626   3.111
41486W        W 6746   6.473  11.240   2.709
41487W        W 6747  33.039  27.642  13.317
41488W        W 6748  40.902  34.357   4.410
41489W        W 6749  44.944   9.752   4.108
41490W        W 6750  16.801  18.738  14.191
41491W        W 6751  32.813  35.303   2.203
41492W        W 6752  11.010  41.424  12.731
41493W        W 6753  35.783  18.561  12.964
41494W        W 6754  16.389  42.574  14.042
41495W        W 6755  31.841  41.254  12.640
41496W        W 6756  32.716  41.683   4.006
41497W        W 6757  12.766  25.467  12.799
41498W        W 6758  10.525  34.880   1.360
41499W        W 6759  20.773  31.464  12.851
41500W        W 6760  10.983  19.471  14.290
41501W        W 6761  39.760  30.911   1.908
41502W        W 6762   7.358  21.493  11.130
41503W        W 6763  28.586  16.067   4.161
41504W        W 6764   0.384  33.555  11.695
41505W        W 6765  32.397  42.445   3.918
41506W        W 6766   9.194   8.297   1.917
41507W        W 6767   0.704  15.941  12.413
41508W        W 6768  36.767  21.613   3.992
41509W        W 6769  26.423  38.009   1.316
41510W        W 6770   0.943  13.287   4.023
41511W        W 6771   6.656   5.781  12.515
41512W        W 6772  27.314  26.004  14.466
41513W        W 6773  21.033  14.659   3.217
41514W        W 6774  20.687  30.201  13.760
41515W        W 6775  12.302  34.864  11.129
41516W        W 6776   2.089  38.387   3.631
41517W        W 6777   4.265  27.608   4.810
41518W        W 6778  44.262  24.805  12.972
41519W        W 6779  17.980  17.023  11.080
41520W        W 6780   6.904  33.481  14.535
41521W        W 6781   1.704  41.825  13.400
41522W        W 6782  44.874  44.429   4.048
41523W        W 6783  15.134  24.629  14.747
41524W        W 6784  40.787  25.576  13.413
41525W        W 6785  17.158  26.043  14.369
41526W        W 6786  32.195  39.652  14.450
41527W        W 6787   4.629  22.190   1.000
41528W        W 6788  41.865   4.387   3.715
41529W        W 6789  18.346  38.349   1.458
41530W        W 6790  32.085  28.547   2.219
41531W        W 6791  36.077  43.028   2.652
41532W        W 6792  17.603  14.528   0.200
41533W        W 6793   3.384  37.486  13.425
41534W        W 6794  30.136  24.138   1.352
41535W        W 6795   0.168  15.404  13.840
41536W        W 6796  27.372   8.792   5.185
41537W        W 6797  10.423   4.293   4.844
41538W        W 6798  40.055  24.269  12.966
41539W        W 6799  40.174  25.250  12.882
41540W        W 6800  28.038  24.216   4.619
41541W        W 6801   0.518   1.586  12.369
41542W        W 6802  29.181  44.480  10.683
41543W        W 6803  35.469  18.269   2.622
41544W        W 6804  24.953   4.443   1.540
41545W        W 6805  28.817   9.443   0.211
41546W        W 6806   9.586  25.603   4.235
41547W        W 6807  32.569  15.303  14.056
41548W        W 6808  14.181  37.162  11.318
41549W        W 6809  27.140   1.854  11.534
41550W        W 6810  32.823   3.730   0.536
41551W        W 6811  12.233  12.077   3.214
41552W        W 6812   9.317   2.899  12.311
41553W        W 6813   0.997   9.402   2.330
41554W        W 6814   6.374   0.804   3.250
41555W        W 6815  42.799  24.136   4.730
41556W        W 6816  42.639  25.116  14.587
41557W        W 6817   7.838  14.803   0.858
41558W        W 6818  17.310   8.478   3.501
41559W        W 6819  24.197  23.093  10.607
41560W        W 6820  32.650   9.373   1.906
41561W        W 6821  20.578   0.071   0.140
41562W        W 6822  40.567   5.896   0.345
41563W        W 6823  38.166  22.256  10.550
41564W        W 6824   5.213  14.128  12.534
41565W        W 6825  21.482  25.269  10.831
41566W        W 6826  34.058  40.784  12.617
41567W        W 6827  42.990  21.206   0.010
41568W        W 6828  31.826  15.950   1.997
41569W        W 6829  18.294   3.424   3.673
41570W        W 6830   4.922   3.711  11.493
41571W        W 6831  40.298   0.570   5.219
41572W        W 6832  15.619  17.708   3.189
41573W        W 6833  14.750  14.108  10.552
41574W        W 6834  35.401  18.450   0.087
41575W        W 6835  16.213  28.553   2.356
41576W        W 6836  24.126  32.477  14.912
41577W        W 6837  35.521  27.121   1.330
41578W        W 6838   4.834   4.222   1.990
41579W        W 6839  35.620  37.663   4.005
41580W        W 6840  33.518   5.911  14.895
41581W        W 6841  25.598  26.129   1.397
41582W        W 6842  22.014  41.372   3.362
41583W        W 6843  14.757  13.299  11.692
41584W        W 6844  30.055  29.955  12.640
41585W        W 6845  27.227  37.182  10.138
41586W        W 6846  19.199  42.919  12.227
41587W        W 6847  43.778  21.718   4.825
41588W        W 6848  30.997  16.969  14.331
41589W        W 6849  41.382  17.270   4.883
41590W        W 6850  35.231  12.536  14.323
41591W        W 6851  24.784   9.895  12.541
41592W        W 6852   1.752  36.942  14.852
41593W        W 6853  39.207  29.754   1.384
41594W        W 6854  16.607  41.496   0.166
41595W        W 6855  15.797  29.096   4.111
41596W        W 6856  33.462  15.149   4.880
41597W        W 6857  26.558  35.584  10.269
41598W        W 6858  36.449  11.237  10.478
41599W        W 6859  40.425  30.593   1.246
41600W        W 6860  15.619  14.760   4.950
41601W        W 6861   9.778  42.371   3.569
41602W        W 6862  33.958  13.499   4.504
41603W        W 6863   7.866  17.812   3.879
41604W        W 6864  35.910  39.579  14.933
41605W        W 6865  28.568   6.236   0.205
41606W        W 6866  42.561   1.246  10.589
41607W        W 6867  44.577   3.804   3.158
41608W        W 6868   3.918  15.540  12.155
41609W        W 6869  30.056  42.437  11.661
41610W        W 6870  13.250  14.259   0.852
41611W        W 6871  36.749  19.658  13.649
41612W        W 6872  19.272  10.144   1.725
41613W        W 6873   3.832  12.238  13.206
41614W        W 6874  18.021  12.538   0.376
41615W        W 6875  19.627  14.412   2.715
41616W        W 6876  15.601   4.483  13.826
41617W        W 6877  44.499  31.720   3.694
41618W        W 6878  13.729   3.276  11.585
41619W        W 6879  22.184  34.937   3.251
41620W        W 6880   4.493  37.022   4.601
41621W        W 6881  31.316  29.036  10.913
41622W        W 6882  33.542   2.970  12.992
41623W        W 6883   7.925  15.225   2.839
41624W        W 6884   3.855  31.279   3.489
41625W        W 6885   5.179  12.871  13.122
41626W        W 6886  42.247  10.756  11.369
41627W        W 6887  35.945  38.319  12.936
41628W        W 6888  39.801  19.304  14.424
41629W        W 6889   0.216  29.155  14.412
41630W        W 6890  36.065  30.957   3.239
41631W        W 6891  36.995  29.997   1.851
41632W        W 6892  14.054   0.488  13.896
41633W        W 6893  19.699  18.876   4.511
41634W        W 6894  34.163  15.719   1.351
41635W        W 6895  29.904   4.196  12.505
41636W        W 6896  36.539  39.736   1.869
41637W        W 6897  43.510  26.871  12.982
41638W        W 6898  39.924  12.070   0.890
41639W        W 6899  14.808  44.419   1.782
41640W        W 6900  22.242  26.452  11.159
41641W        W 6901  36.017  15.942  13.545
41642W        W 6902  27.767   8.661   0.187
41643W        W 6903  41.807  10.564   3.686
41644W        W 6904  40.263  21.097   0.961
41645W        W 6905   7.203  30.785  13.511
41646W        W 6906  35.114  37.167   4.501
41647W        W 6907  43.321  14.179  12.419
41648W        W 6908   2.273   8.453  13.514
41649W        W 6909  37.079  12.759  14.359
41650W        W 6910  35.911   1.721  12.012
41651W        W 6911  31.175  29.051   4.072
41652W        W 6912   8.254  10.892   1.773
41653W        W 6913  22.651   2.317   4.085
41654W        W 6914  31.230   1.895   2.184
41655W        W 6915  33.381   8.187   1.186
41656W        W 6916  34.391  24.507   2.958
41657W        W 6917  13.381  10.835   0.913
41658W        W 6918  28.626   7.372  14.510
41659W        W 6919  27.160   1.364   0.907
41660W        W 6920  21.387  19.030  10.655
41661W        W 6921  44.086  24.312   0.249
41662W        W 6922  16.845  15.364  13.519
41663W        W 6923   0.472  37.918   3.047
41664W        W 6924   4.783  39.273   1.332
41665W        W 6925  10.535   0.568   1.241
41666W        W 6926  12.498  36.539  10.744
41667W        W 6927   9.645  18.613  12.824
41668W        W 6928  13.136  36.117   0.416
41669W        W 6929  23.254  14.668   3.437
41670W        W 6930  13.065  10.978   4.337
41671W        W 6931  38.793  22.700  13.617
41672W        W 6932  25.190  27.705   4.642
41673W        W 6933   7.778  24.010  13.838
41674W        W 6934   6.875  30.089   4.333
41675W        W 6935  34.832  19.207  14.504
41676W        W 6936  18.397  15.259   1.301
41677W        W 6937  42.782  16.823  10.681
41678W        W 6938   7.060  14.145   4.616
41679W        W 6939  19.577  13.597  11.659
41680W        W 6940  22.523  43.895   1.658
41681W        W 6941  36.418  44.964   9.850
41682W        W 6942   8.620  24.669   3.636
41683W        W 6943  12.867   2.470  11.914
41684W        W 6944  23.452  33.957   0.351
41685W        W 6945  18.615   5.350   0.839
41686W        W 6946  39.528  25.392  11.069
41687W        W 6947  25.618   2.796   1.890
41688W        W 6948   4.340  40.384  11.962
41689W        W 6949  27.480   5.886   3.174
41690W        W 6950  11.748   8.434   3.153
41691W        W 6951   4.244  38.004  13.505
41692W        W 6952  21.738   7.512   1.721
41693W        W 6953   1.961  11.589  11.492
41694W        W 6954  15.161  17.595   3.415
41695W        W 6955  22.124   5.912  13.799
41696W        W 6956  38.968  39.542  12.429
41697W        W 6957  38.101   1.271  13.446
41698W        W 6958   1.370  17.089   4.916
41699W        W 6959   4.354   3.801  10.735
41700W        W 6960  37.456   3.002  14.483
41701W        W 6961  28.544  42.357  13.020
41702W        W 6962  22.027   1.726  14.913
41703W        W 6963  25.497  42.156  13.414
41704W        W 6964  29.539  38.834   4.856
41705W        W 6965  34.542  43.831   2.871
41706W        W 6966   8.159  17.976   4.958
41707W        W 6967  17.387  18.060   3.176
41708W        W 6968   5.612  40.875   4.798
41709W        W 6969   3.265  26.418   0.765
41710W        W 6970  27.758  38.514  13.080
41711W        W 6971  27.606  33.653   3.265
41712W        W 6972  30.118  32.671  13.929
41713W        W 6973  26.400  34.452   4.679
41714W        W 6974  16.421  14.379  14.976
41715W        W 6975  29.535  26.982  10.928
41716W        W 6976  33.866  23.758  10.949
41717W        W 6977  26.106  31.171  12.201
41718W        W 6978  34.359   1.738   1.545
41719W        W 6979  32.965  15.294   4.821
41720W        W 6980   6.698  35.564  12.443
41721W        W 6981  20.453   5.677   3.998
41722W        W 6982  34.478   7.793  12.204
41723W        W 6983  33.555  39.040   0.799
41724W        W 6984  44.450  10.332   0.675
41725W        W 6985   6.361  10.389  14.795
41726W        W 6986  12.019  38.776   3.689
41727W        W 6987  17.708  26.599   2.724
41728W        W 6988   4.354  34.567   3.352
41729W        W 6989  43.868  28.036   2.715
41730W        W 6990  26.517  29.226   1.616
41731W        W 6991  44.421  15.600  13.110
41732W        W 6992  34.367  16.669  12.136
41733W        W 6993   8.907  29.490  11.515
41734W        W 6994  20.131  19.036   5.409
41735W        W 6995  12.378  39.623   4.670
41736W        W 6996  43.992   8.402   0.364
41737W        W 6997  32.905  38.283   4.759
41738W        W 6998  17.238  41.756   2.735
41739W        W 6999  32.324   8.863   2.659
41740W        W 7000   1.171  41.968  14.873
41741W        W 7001  19.079  19.488   0.431
41742W        W 7002  32.176  26.008   0.333
41743W        W 7003  18.982   2.722   3.598
41744W        W 7004  33.818  43.580   0.427
41745W        W 7005  26.872  40.535  12.462
41746W        W 7006  19.659  34.511  10.715
41747W        W 7007  19.735  23.462  13.470
41748W        W 7008  16.564  44.023   0.457
41749W        W 7009  40.253  23.981   2.083
41750W        W 7010  17.666  21.631  10.825
41751W        W 7011  35.262   4.340  12.389
41752W        W 7012  27.359  16.275  12.673
41753W        W 7013  22.250  14.332  11.906
41754W        W 7014  15.632  11.692  11.973
41755W        W 7015   0.170  18.231  12.020
41756W        W 7016  26.276  43.454  11.515
41757W        W 7017  39.220   6.219   3.716
41758W        W 7018  22.198  42.498  11.609
41759W        W 7019  37.756  31.037  13.004
41760W        W 7020  17.630  40.550   3.565
41761W        W 7021   1.591  24.305  14.805
41762W        W 7022  28.142  12.868   1.329
41763W        W 7023  21.931   1.773   1.623
41764W        W 7024  30.247  22.925   2.605
41765W        W 7025  20.028  27.227   3.292
41766W        W 7026  40.105  19.802  12.631
41767W        W 7027  34.710   2.680   1.488
41768W        W 7028   3.867  11.250  11.966
41769W        W 7029  41.799  42.374  12.010
41770W        W 7030  24.025  19.638  12.088
41771W        W 7031  35.683  40.392  11.346
41772W        W 7032   1.351  43.369   4.525
41773W        W 7033  23.568  29.510   4.731
41774W        W 7034   6.347   3.854   0.790
41775W        W 7035  18.626  42.032  12.980
41776W        W 7036  33.620  18.583   3.317
41777W        W 7037  40.541  19.820  14.903
41778W        W 7038  40.509   8.264  11.255
41779W        W 7039  33.209   3.894  12.943
41780W        W 7040  31.861  19.229  13.698
41781W        W 7041   6.383  39.514  11.943
41782W        W 7042  44.918  10.342   1.835
41783W        W 7043  35.687   8.438   2.587
41784W        W 7044  19.200  27.832   1.023
41785W        W 7045  27.823  24.207   1.544
41786W        W 7046  35.446   5.090  12.862
41787W        W 7047  22.558  11.319  14.538
41788W        W 7048  10.521  12.250   4.693
41789W        W 7049  33.938  17.254   4.446
41790W        W 7050  21.449  37.629  10.887
41791W        W 7051   2.405  42.564  12.148
41792W        W 7052  11.376   0.745   0.371
41793W        W 7053  27.494  41.399   2.164
41794W        W 7054   0.330  33.807  13.498
41795W        W 7055   7.400  32.027   1.205
41796W        W 7056  35.332  36.345   3.676
41797W        W 7057  10.792  32.161  13.216
41798W        W 7058  21.314  19.297  11.951
41799W        W 7059  21.285  34.217  11.493
41800W        W 7060  24.003  19.000  13.461
41801W        W 7061  40.411  22.783   2.378
41802W        W 7062   5.384  44.306   4.567
41803W        W 7063  14.413  39.398   4.572
41804W        W 7064   9.733  27.504  13.240
41805W        W 7065  37.630  44.416   4.545
41806W        W 7066   3.810  10.722  11.999
41807W        W 7067  38.283  24.121  11.602
41808W        W 7068  20.542  17.100  11.002
41809W        W 7069  41.808  33.237   5.035
41810W        W 7070   5.347   3.394  14.381
41811W        W 7071  41.043   7.350   4.270
41812W        W 7072   8.369  25.966  13.629
41813W        W 7073  40.527  15.342  11.256
41814W        W 7074   3.460   7.753  14.273
41815W        W 7075  26.394  40.058   4.068
41816W        W 7076  17.566  15.787   2.059
41817W        W 7077  28.575  11.263   2.218
41818W        W 7078  40.178  22.341   1.681
41819W        W 7079  35.950  35.670  11.157
41820W        W 7080  30.688  19.739   4.272
41821W        W 7081   7.541   8.352  14.781
41822W        W 7082   4.109  30.426  12.928
41823W        W 7083  10.224   6.262   2.089
41824W        W 7084  22.779   6.613  14.855
41825W        W 7085  24.359  41.127   4.846
41826W        W 7086  13.122  25.632  11.168
41827W        W 7087  13.616  27.011   1.984
41828W        W 7088   3.872  34.935   0.543
41829W        W 7089  14.130  37.005   1.126
41830W        W 7090  22.137   4.807  12.964
41831W        W 7091  27.461  15.443  12.035
41832W        W 7092  24.189  43.494  13.881
41833W        W 7093  13.862  23.236  12.908
41834W        W 7094  42.626  18.203   4.226
41835W        W 7095  25.553   1.759  14.338
41836W        W 7096   0.469  16.376  10.835
41837W        W 7097   1.418  40.547   3.163
41838W        W 7098  31.128  39.821  14.836
41839W        W 7099   2.704  12.926   9.998
41840W        W 7100  19.395   9.478  12.492
41841W        W 7101  22.452  27.975   3.720
41842W        W 7102   2.231  13.412   9.626
41843W        W 7103  40.310   9.876  14.834
41844W        W 7104  30.624   9.802  14.876
41845W        W 7105  29.241  34.030  13.466
41846W        W 7106  12.843  28.048   4.572
41847W        W 7107  31.083  35.231  14.378
41848W        W 7108  34.493  18.836   3.579
41849W        W 7109  31.282  24.743  13.849
41850W        W 7110   2.368  27.799   5.043
41851W        W 7111  29.183  14.442   2.299
41852W        W 7112  14.113  27.029   2.230
41853W        W 7113   5.736  38.363  10.724
41854W        W 7114  20.574  39.271  11.135
41855W        W 7115  16.784  38.379  14.542
41856W        W 7116  35.065  11.693   4.161
41857W        W 7117  27.694  35.026  13.418
41858W        W 7118   8.695  29.986  14.404
41859W        W 7119   7.376  30.020  12.959
41860W        W 7120   1.865  28.234   2.559
41861W        W 7121  11.691   0.989   3.656
41862W        W 7122  35.890   3.517   2.114
41863W        W 7123   7.976   6.891  11.107
41864W        W 7124  32.639  10.696  12.422
41865W        W 7125  30.442  27.692   3.183
41866W        W 7126  33.482   8.309   4.760
41867W        W 7127  22.350  28.183  13.029
41868W        W 7128  44.870  16.775  12.910
41869W        W 7129  36.362  24.075  10.641
41870W        W 7130   2.284   3.661   1.815
41871W        W 7131   7.326  14.624  10.987
41872W        W 7132  40.853  25.667  12.084
41873W        W 7133  18.803  12.817  14.494
41874W        W 7134   5.688  44.564   2.019
41875W        W 7135  19.554   2.815  12.335
41876W        W 7136   7.374  34.515  12.549
41877W        W 7137   6.163  16.380   3.302
41878W        W 7138  20.636   7.326  12.339
41879W        W 7139   6.383  18.527   4.076
41880W        W 7140   0.952   6.198   2.739
41881W        W 7141  14.915  24.570   1.820
41882W        W 7142  32.913  40.979  14.565
41883W        W 7143  35.563  33.923  13.251
41884W        W 7144  32.527  21.667   1.049
41885W        W 7145  15.676  38.019   1.675
41886W        W 7146  37.526  27.731  14.003
41887W        W 7147  17.520  18.567   2.802
41888W        W 7148  20.009  44.980   3.821
41889W        W 7149  30.772   5.043  10.253
41890W        W 7150  43.891  35.107   4.681
41891W        W 7151  25.281  24.048   1.522
41892W        W 7152  10.123  26.180  12.990
41893W        W 7153  33.537  18.661  10.640
41894W        W 7154  31.588  13.333  13.131
41895W        W 7155  42.186   4.452  11.538
41896W        W 7156  27.641  16.609   0.492
41897W        W 7157  13.838  21.565   0.305
41898W        W 7158  23.398  42.948  12.405
41899W        W 7159  13.707  11.343  12.557
41900W        W 7160   7.289   6.080   3.737
41901W        W 7161   2.485   2.179  10.620
41902W        W 7162  41.912  13.711   4.470
41903W        W 7163  29.728  29.540  11.120
41904W        W 7164   0.320   4.881  12.287
41905W        W 7165   7.181  24.464   2.019
41906W        W 7166  27.103  17.552   9.766
41907W        W 7167  19.990  11.423  11.546
41908W        W 7168  35.286  36.491   3.193
41909W        W 7169  35.757  39.014   4.112
41910W        W 7170  42.014  23.891  10.714
41911W        W 7171  28.478  22.592  11.220
41912W        W 7172  39.289  19.942   0.310
41913W        W 7173   0.743   7.277  10.743
41914W        W 7174  20.306  31.761   3.106
41915W        W 7175  26.090  34.010  11.218
41916W        W 7176  19.378  15.127  13.307
41917W        W 7177  19.193  35.990   0.389
41918W        W 7178  17.056   8.445   0.787
41919W        W 7179   9.929  20.580  12.419
41920W        W 7180  24.851  39.212  13.447
41921W        W 7181  19.666  15.303   0.169
41922W        W 7182  11.196  25.237   3.259
41923W        W 7183  34.862  13.124  13.991
41924W        W 7184  31.887  34.655  14.877
41925W        W 7185  17.210   8.694   1.245
41926W        W 7186  11.730  15.414  11.937
41927W        W 7187  39.678  39.250  12.904
41928W        W 7188  25.746  34.948   0.539
41929W        W 7189  17.900  41.307  12.762
41930W        W 7190   2.150  12.820  13.240
41931W        W 7191  17.515  12.028   4.412
41932W        W 7192  30.542  27.703  12.544
41933W        W 7193  28.095  13.743   4.409
41934W        W 7194  30.095  30.359  13.945
41935W        W 7195  26.984  27.124  12.505
41936W        W 7196   4.179  15.817  10.821
41937W        W 7197  19.851  23.659  10.696
41938W        W 7198  27.608   7.223  10.544
41939W        W 7199  43.423  33.053   4.409
41940W        W 7200  23.168  25.671   2.300
41941W        W 7201  22.568  22.568   3.314
41942W        W 7202  16.994   4.963  12.338
41943W        W 7203  11.405  32.389  11.014
41944W        W 7204   0.386  12.161  14.883
41945W        W 7205  42.266  30.180  14.479
41946W        W 7206  22.049  24.923  11.643
41947W        W 7207  18.718  40.308   3.625
41948W        W 7208  26.412  39.038  13.632
41949W        W 7209  11.217  21.214  14.334
41950W        W 7210  14.554  12.250  13.977
41951W        W 7211  42.377  26.434   0.898
41952W        W 7212  29.550  14.823   1.858
41953W        W 7213   3.828  18.298   0.292
41954W        W 7214  35.351  26.146   2.148
41955W        W 7215   7.396   1.439   2.311
41956W        W 7216  41.284  15.714  10.233
41957W        W 7217  34.124  34.474   3.077
41958W        W 7218  13.994  38.657   2.813
41959W        W 7219   1.231   3.475  12.553
41960W        W 7220  34.859  16.310   0.729
41961W        W 7221  15.245  34.871  13.395
41962W        W 7222  11.681  25.727   0.333
41963W        W 7223  42.963  43.793  13.870
41964W        W 7224   7.126   7.732  13.947
41965W        W 7225  32.608  34.037  12.023
41966W        W 7226  34.922  43.959   3.991
41967W        W 7227  37.297  33.933   4.619
41968W        W 7228  13.174   0.415  13.760
41969W        W 7229  29.449  34.472   4.637
41970W        W 7230  29.909  11.554   3.660
41971W        W 7231  31.062  16.425   0.470
41972W        W 7232  18.338  39.040  10.686
41973W        W 7233  22.999  37.380  14.931
41974W        W 7234  36.296  34.477  14.987
41975W        W 7235  20.885  20.289  14.298
41976W        W 7236  20.639  19.126   2.368
41977W        W 7237  32.080   3.155  13.932
41978W        W 7238   1.426  12.389  14.388
41979W        W 7239  32.711   9.316   0.240
41980W        W 7240  38.447  31.394   1.385
41981W        W 7241   8.878  11.654  11.498
41982W        W 7242  39.484  36.275   3.281
41983W        W 7243   1.811   9.722   1.859
41984W        W 7244  22.989  37.762   0.511
41985W        W 7245   7.128   1.875  11.717
41986W        W 7246  39.462  30.258   2.802
41987W        W 7247  24.909  36.693  11.499
41988W        W 7248   9.444   1.405  12.026
41989W        W 7249  40.085  35.032   3.152
41990W        W 7250   2.541  21.607  11.911
41991W        W 7251  17.524  35.618   1.954
41992W        W 7252   1.237  14.332   2.812
41993W        W 7253  20.468  13.130   1.370
41994W        W 7254  31.059  35.028   0.425
41995W        W 7255  26.135   8.798  10.662
41996W        W 7256  42.536  38.445   1.859
41997W        W 7257  24.466  36.548  13.557
41998W        W 7258  24.837   3.096   3.626
41999W        W 7259   0.850  19.731   1.869
42000W        W 7260  39.213  19.626  11.002
42001W        W 7261  10.260  12.566  13.047
42002W        W 7262  32.701  33.483  11.695
42003W        W 7263  35.925  40.596   1.879
42004W        W 7264  38.291  12.705   4.515
42005W        W 7265  38.969  23.222   1.850
42006W        W 7266  42.097   7.036   4.479
42007W        W 7267  24.154  15.402  11.905
42008W        W 7268  17.561   7.875  10.545
42009W        W 7269  23.650  14.774  12.449
42010W        W 7270  39.937   2.830   0.258
42011W        W 7271  23.075  27.277  11.654
42012W        W 7272  23.029  22.062  10.509
42013W        W 7273  16.251  20.625  14.236
42014W        W 7274   3.364   3.251  13.570
42015W        W 7275   1.910  42.328  12.141
42016W        W 7276   4.192  19.337   3.328
42017W        W 7277  29.577  44.446  12.431
42018W        W 7278  30.009   3.198   0.418
42019W        W 7279  14.831  30.127   2.301
42020W        W 7280  37.218  12.843  10.493
42021W        W 7281   1.007  43.839   0.251
42022W        W 7282  13.162  28.406  13.368
42023W        W 7283  41.020  21.094  11.035
42024W        W 7284   5.391  15.278   1.591
42025W        W 7285  21.099  16.379  14.511
42026W        W 7286  12.053  23.213  12.534
42027W        W 7287  44.674  18.635   3.197
42028W        W 7288  31.217  28.573  12.975
42029W        W 7289   8.189  25.299   1.726
42030W        W 7290   3.744  19.740  13.399
42031W        W 7291  35.382  27.092   4.290
42032W        W 7292  35.970  18.471   5.023
42033W        W 7293   2.483   8.832  10.585
42034W        W 7294  24.977  32.559   1.332
42035W        W 7295  36.955  33.648  12.616
42036W        W 7296  34.069   7.208  13.036
42037W        W 7297  21.544   8.700  13.330
42038W        W 7298  13.023   7.152  14.286
42039W        W 7299  44.292  17.732   2.721
42040W        W 7300  34.654   2.913   3.677
42041W        W 7301  38.268  25.051  11.394
42042W        W 7302  40.723  42.939  10.419
42043W        W 7303  27.071  12.344   1.879
42044W        W 7304  11.259  10.679   2.797
42045W        W 7305  28.389  20.191   0.182
42046W        W 7306  42.860  43.972   2.695
42047W        W 7307   1.085  11.779   0.197
42048W        W 7308  43.348  34.819  14.358
42049W        W 7309  22.939  36.005  12.971
42050W        W 7310  28.580   4.831  11.532
42051W        W 7311  24.958  35.553   3.573
42052W        W 7312  34.891   1.510   4.775
42053W        W 7313   8.763  19.202  14.290
42054W        W 7314  36.880  43.792  13.504
42055W        W 7315  14.875   9.479   1.710
42056W        W 7316  12.681  31.616  13.001
42057W        W 7317   8.616  14.011   4.415
42058W        W 7318  35.781  34.064   3.636
42059W        W 7319  23.087  22.317   4.068
42060W        W 7320  39.239  19.597   1.178
42061W        W 7321  32.728  24.070   3.984
42062W        W 7322  25.626  17.212  11.668
42063W        W 7323  18.841  13.833  12.924
42064W        W 7324  36.335  10.769  11.156
42065W        W 7325  37.922   2.935   2.971
42066W        W 7326   1.735   7.740  12.131
42067W        W 7327  21.043  41.059   3.242
42068W        W 7328  40.933  29.583  14.109
42069W        W 7329  38.456  39.912  14.110
42070W        W 7330   3.349  16.838  14.510
42071W        W 7331  35.960  41.629  14.771
42072W        W 7332   0.972  23.908   9.993
42073W        W 7333  40.665  37.553   4.939
42074W        W 7334   4.308  24.698  10.737
42075W        W 7335  31.513  43.941   3.444
42076W        W 7336  35.272   7.230   0.438
42077W        W 7337  27.625  31.018  12.776
42078W        W 7338   6.771   6.758   1.104
42079W        W 7339  18.525  26.401   3.160
42080W        W 7340  17.824  29.366   2.188
42081W        W 7341  14.567  19.741  14.823
42082W        W 7342  37.960  31.942  11.199
42083W        W 7343   0.564  30.541  12.447
42084W        W 7344  40.878  21.892  14.379
42085W        W 7345  16.564   7.791  14.460
42086W        W 7346   0.797  41.722  11.098
42087W        W 7347  34.954   0.523   0.746
42088W        W 7348   2.268  21.788   3.742
42089W        W 7349  24.111  36.734  12.822
42090W        W 7350  21.879  35.093   0.258
42091W        W 7351  40.695   0.274   5.055
42092W        W 7352   6.093  35.992  12.779
42093W        W 7353  27.590   6.668  11.996
42094W        W 7354  18.577  38.702   1.805
42095W        W 7355   3.821   1.492  10.741
42096W        W 7356  33.834  22.809  14.050
42097W        W 7357  18.846   8.895  10.260
42098W        W 7358  15.328   9.767  14.753
42099W        W 7359  15.175  10.776   0.092
42100W        W 7360  10.612  16.706   1.985
42101W        W 7361  39.499   7.591  12.920
42102W        W 7362  40.029   9.417  14.392
42103W        W 7363  28.958  22.579  14.947
42104W        W 7364  11.222  32.485   1.003
42105W        W 7365  43.236  34.584  12.952
42106W        W 7366   1.375   0.942  12.962
42107W        W 7367  10.279   9.990  12.029
42108W        W 7368  40.344  26.695   0.190
42109W        W 7369   6.745  16.677  14.512
42110W        W 7370   8.444   8.020   1.232
42111W        W 7371  23.731  34.891   4.574
42112W        W 7372  44.320  13.792   2.609
42113W        W 7373  16.090  12.510  11.556
42114W        W 7374   0.279  33.565   3.413
42115W        W 7375  20.548  12.905   3.647
42116W        W 7376  20.200  39.751   3.926
42117W        W 7377  21.508  40.705  14.254
42118W        W 7378  16.237  39.215  12.082
42119W        W 7379  14.813  40.269   0.791
42120W        W 7380   2.312  31.149   2.716
42121W        W 7381  14.845  20.076   3.795
42122W        W 7382  14.748   1.530  11.016
42123W        W 7383  32.102  22.972  10.765
42124W        W 7384   0.597   2.750   3.249
42125W        W 7385  10.176  22.984   3.126
42126W        W 7386  33.872  40.834  14.411
42127W        W 7387   2.177   2.931  14.183
42128W        W 7388   5.003   3.812  12.435
42129W        W 7389  43.818  23.698  11.230
42130W        W 7390  43.180   0.366  13.367
42131W        W 7391  16.582  29.453  11.562
42132W        W 7392  28.621  30.037  14.078
42133W        W 7393   3.196   4.876  11.466
42134W        W 7394  14.865   6.889  10.188
42135W        W 7395  40.397  14.087   2.702
42136W        W 7396  17.040  36.947  11.442
42137W        W 7397  17.920  11.750   0.888
42138W        W 7398  31.132  41.757   0.344
42139W        W 7399   8.226   9.279  12.412
42140W        W 7400  18.979  32.369  13.209
42141W        W 7401  32.343   2.415   2.292
42142W        W 7402  20.975  12.013   3.291
42143W        W 7403   6.384   4.006  12.074
42144W        W 7404  11.828   8.378   0.011
42145W        W 7405  12.033  36.422   3.895
42146W        W 7406  38.873  27.707   0.704
42147W        W 7407  15.706   5.706  13.818
42148W        W 7408  19.326  26.661  12.652
42149W        W 7409   1.623  36.970   2.537
42150W        W 7410   3.409  20.605  11.010
42151W        W 7411  41.551  40.331   3.766
42152W        W 7412   0.940  42.708   2.301
42153W        W 7413   1.920   1.497   4.656
42154W        W 7414   6.682  24.694   4.654
42155W        W 7415  41.064   3.794   0.945
42156W        W 7416   2.431  23.058   1.301
42157W        W 7417  33.992  15.665  12.836
42158W        W 7418  32.018  31.015   4.500
42159W        W 7419  16.556   6.807   2.502
42160W        W 7420   1.331   8.103   2.160
42161W        W 7421  10.238  31.919  14.839
42162W        W 7422  16.713  18.074   1.983
42163W        W 7423  39.399   4.966   2.121
42164W        W 7424  32.460  22.979  11.167
42165W        W 7425  35.531   3.834  13.254
42166W        W 7426  33.358  15.993   3.668
42167W        W 7427  27.642  39.555  14.878
42168W        W 7428  18.814  18.681  14.497
42169W        W 7429   4.157  23.668   3.233
42170W        W 7430  31.844  28.193  13.798
42171W        W 7431  32.462  22.711   4.309
42172W        W 7432  16.917  22.342   3.168
42173W        W 7433  44.049  14.656   2.728
42174W        W 7434   9.251  27.982   0.982
42175W        W 7435  44.558  26.121  12.903
42176W        W 7436  33.393  27.306   4.680
42177W        W 7437  34.876  19.634  10.752
42178W        W 7438  31.415  16.070   1.194
42179W        W 7439   9.158  24.511   2.712
42180W        W 7440  37.539  16.252   4.616
42181W        W 7441  20.788   3.170  14.929
42182W        W 7442  43.778  17.822   0.931
42183W        W 7443   2.960  27.219   3.008
42184W        W 7444   1.293   7.865   4.041
42185W        W 7445  13.288  13.596  13.166
42186W        W 7446  19.342  22.613  13.719
42187W        W 7447  16.599  37.780   1.421
42188W        W 7448   2.770  22.232  14.375
42189W        W 7449  19.352   8.614   2.179
42190W        W 7450  30.483  25.766  14.317
42191W        W 7451   1.831   9.750  10.347
42192W        W 7452   2.314   5.131  14.901
42193W        W 7453  37.246  10.821   3.725
42194W        W 7454  29.511   3.373   0.313
42195W        W 7455  31.892  41.834  11.563
42196W        W 7456  37.353  22.149   4.164
42197W        W 7457  26.569   6.589   3.714
42198W        W 7458  37.911  26.608   3.163
42199W        W 7459  32.581  11.430  11.031
42200W        W 7460  36.608  30.517  12.633
42201W        W 7461  30.060  12.027   1.257
42202W        W 7462  23.700  38.565   0.035
42203W        W 7463  20.587  36.529   0.737
42204W        W 7464   6.963  25.177  11.639
42205W        W 7465   7.294  33.361   0.359
42206W        W 7466   3.842  22.148  11.970
42207W        W 7467   7.460  40.862   1.755
42208W        W 7468  10.630  40.179   1.279
42209W        W 7469  26.573  31.645   3.181
42210W        W 7470  21.955  21.505  12.263
42211W        W 7471  38.490  25.470   1.777
42212W        W 7472  41.449  41.960  14.769
42213W        W 7473  15.629  16.270   4.625
42214W        W 7474  11.395  35.936  14.877
42215W        W 7475  37.475  17.272  10.990
42216W        W 7476  13.323   8.196   0.835
42217W        W 7477  22.978   3.253   0.503
42218W        W 7478  26.651  18.194   1.593
42219W        W 7479  27.297  16.054   3.322
42220W        W 7480  32.407   9.489   3.454
42221W        W 7481  26.971  37.961  11.673
42222W        W 7482  40.001   5.163  12.923
42223W        W 7483  19.995  34.646  13.483
42224W        W 7484   9.493  33.090   1.083
42225W        W 7485  40.005  44.791   4.481
42226W        W 7486   8.580  41.896   1.408
42227W        W 7487  44.942  43.845  12.895
42228W        W 7488  34.855  36.225  11.526
42229W        W 7489  36.355  36.042  10.275
42230W        W 7490   4.891  26.285  13.924
42231W        W 7491  32.686  18.545  11.670
42232W        W 7492  37.918  36.600  14.417
42233W        W 7493   6.353  34.558  12.947
42234W        W 7494  22.541  12.733  10.247
42235W        W 7495  12.942  25.477  14.938
42236W        W 7496  30.985  22.074  14.684
42237W        W 7497  22.025  19.251   3.516
42238W        W 7498  44.723  12.288  12.069
42239W        W 7499  23.539   1.443   4.503
42240W        W 7500  29.078   3.407   1.298
42241W        W 7501   5.723  24.464  10.668
42242W        W 7502  26.631  12.664  11.582
42243W        W 7503  23.744  14.230   0.938
42244W        W 7504  26.335  35.311  14.824
42245W        W 7505  41.639  36.708   2.912
42246W        W 7506  29.008  16.553  10.561
42247W        W 7507   4.728  25.821  13.843
42248W        W 7508  26.727   6.855  11.370
42249W        W 7509  21.529   2.515  12.953
42250W        W 7510  27.386  42.436  13.109
42251W        W 7511   4.357  21.272   4.354
42252W        W 7512  12.302  32.022  12.088
42253W        W 7513   5.775  15.113   3.093
42254W        W 7514  30.451   9.649  13.018
42255W        W 7515  16.710  23.368  14.459
42256W        W 7516   5.638  15.209   4.050
42257W        W 7517  42.371  30.883  12.092
42258W        W 7518  32.619  24.777  13.763
42259W        W 7519  15.828  38.421   2.338
42260W        W 7520   6.404  30.608   3.434
42261W        W 7521  34.877  26.398  12.513
42262W        W 7522  39.758  13.152  13.815
42263W        W 7523  30.819  41.549  12.543
42264W        W 7524  26.720  43.285  14.850
42265W        W 7525  11.152  30.471  10.047
42266W        W 7526  17.359   1.716  12.547
42267W        W 7527  16.542  16.253  14.759
42268W        W 7528  39.779   5.732   4.647
42269W        W 7529  24.645   5.429  10.740
42270W        W 7530  37.674  19.103  13.083
42271W        W 7531  22.666  33.356  14.076
42272W        W 7532   6.455  10.788  12.397
42273W        W 7533  10.443  31.096  10.962
42274W        W 7534  20.875  38.013  12.526
42275W        W 7535  18.626  14.668   1.756
42276W        W 7536  11.938  28.505  14.237
42277W        W 7537  44.897  29.045  10.695
42278W        W 7538  43.367  25.534   3.214
42279W        W 7539  38.080  39.528  11.003
42280W        W 7540  39.894   0.650   4.613
42281W        W 7541  24.219   0.999  10.420
42282W        W 7542  24.494  18.214   0.816
42283W        W 7543   5.262  14.851   4.298
42284W        W 7544  20.768   8.648  12.548
42285W        W 7545  17.593  20.707   0.347
42286W        W 7546  14.109  36.709  12.612
42287W        W 7547   1.848  19.185   3.560
42288W        W 7548   5.429  42.791   4.205
42289W        W 7549  21.601  29.556  13.122
42290W        W 7550  18.463  33.767  13.325
42291W        W 7551  37.375   3.004   0.428
42292W        W 7552  23.204  34.798  14.826
42293W        W 7553  40.977  24.961   3.277
42294W        W 7554  16.098  32.576  11.141
42295W        W 7555  35.155  20.517   0.973
42296W        W 7556   8.827  24.413  12.689
42297W        W 7557  24.076  16.239   2.707
42298W        W 7558   0.122  42.649  11.604
42299W        W 7559  38.346  36.488   4.086
42300W        W 7560   2.054  34.647  13.002
42301W        W 7561  42.596  34.420   0.958
42302W        W 7562  12.818  22.486   4.690
42303W        W 7563  15.478   9.104  12.982
42304W        W 7564   4.929  20.252   5.003
42305W        W 7565  32.059  11.254   4.681
42306W        W 7566   9.889  19.574  12.355
42307W        W 7567   9.197   2.817   0.258
42308W        W 7568  29.867  18.903   0.492
42309W        W 7569   6.206  31.177  14.377
42310W        W 7570  16.527  39.648  12.111
42311W        W 7571   4.498  26.397  12.888
42312W        W 7572   3.966  18.549  12.983
42313W        W 7573   8.744  10.967  12.580
42314W        W 7574  36.462  18.988   3.089
42315W        W 7575  33.065  15.035  14.053
42316W        W 7576   9.361  23.456  10.913
42317W        W 7577  22.376  42.284  12.041
42318W        W 7578  40.420   5.978   2.217
42319W        W 7579  42.504  23.685  12.501
42320W        W 7580  38.936  23.532  11.062
42321W        W 7581  23.627  26.997   0.317
42322W        W 7582  25.485   5.036   3.274
42323W        W 7583  30.082   3.430  12.984
42324W        W 7584  30.688  17.578   2.828
42325W        W 7585  22.478  15.387   4.613
42326W        W 7586  13.675  23.606  14.752
42327W        W 7587  32.598   2.538   0.729
42328W        W 7588  44.259  26.966   5.188
42329W        W 7589  20.071  37.494  14.438
42330W        W 7590  23.092   3.493  10.701
42331W        W 7591  14.188  19.754   0.224
42332W        W 7592  30.718   3.384   3.565
42333W        W 7593  28.613  18.108  10.564
42334W        W 7594  31.497  23.777   1.288
42335W        W 7595  13.723  23.957   4.653
42336W        W 7596  23.188   7.118  12.916
42337W        W 7597   9.596  18.297  14.002
42338W        W 7598  43.959   8.672   2.588
42339W        W 7599  26.516   9.364  11.188
42340W        W 7600  35.003  26.484   1.754
42341W        W 7601  34.546  21.163  13.947
42342W        W 7602  18.520  34.065  12.883
42343W        W 7603  20.555   5.828  13.963
42344W        W 7604  38.147  33.136  14.469
42345W        W 7605  12.206   8.761  13.611
42346W        W 7606  19.229  36.719   2.649
42347W        W 7607  35.520  34.573   1.270
42348W        W 7608  44.055  36.883   2.666
42349W        W 7609  38.346  13.109   3.565
42350W        W 7610   9.868   2.786  12.522
42351W        W 7611  17.282  35.539   0.532
42352W        W 7612  31.040  44.188  10.634
42353W        W 7613   6.114  18.740   0.775
42354W        W 7614   3.262   7.583  13.801
42355W        W 7615  12.548   2.666   2.176
42356W        W 7616  15.121   2.828  11.917
42357W        W 7617  22.462  27.677  12.381
42358W        W 7618  18.080   3.768   3.373
42359W        W 7619  23.487  18.863  13.031
42360W        W 7620  40.252  28.636  13.658
42361W        W 7621  15.698  26.331   0.278
42362W        W 7622  35.101  10.765  13.587
42363W        W 7623  30.051  18.083   3.575
42364W        W 7624  31.524  27.431   1.715
42365W        W 7625   0.391  22.653  14.459
42366W        W 7626  25.693  10.118  10.263
42367W        W 7627  18.359  10.458   2.653
42368W        W 7628  16.422   4.027   0.730
42369W        W 7629  26.902  24.591   0.504
42370W        W 7630  35.116  35.515   4.590
42371W        W 7631   2.071  11.095  14.104
42372W        W 7632   2.756  17.230  11.145
42373W        W 7633   2.899  37.770   0.316
42374W        W 7634  37.881   7.632   1.773
42375W        W 7635  13.369   9.331  11.661
42376W        W 7636  22.009  35.549   2.024
42377W        W 7637   6.193  13.090  11.179
42378W        W 7638  12.735  12.605   1.481
42379W        W 7639  35.586  24.911   0.376
42380W        W 7640  21.488  12.205  12.726
42381W        W 7641  18.629  17.876   3.171
42382W        W 7642  30.172  42.123  14.035
42383W        W 7643  32.170  28.565   1.256
42384W        W 7644  18.642   7.165  12.189
42385W        W 7645  12.303   2.766  14.912
42386W        W 7646   6.487  36.606  12.569
42387W        W 7647  30.141   3.744  11.727
42388W        W 7648  12.222  20.837  10.628
42389W        W 7649   8.958  39.904  14.979
42390W        W 7650  24.587   9.229  14.523
42391W        W 7651   5.434   6.409  11.150
42392W        W 7652  38.551  16.678   1.740
42393W        W 7653   2.428  15.083  13.416
42394W        W 7654  34.507  39.674   1.832
42395W        W 7655  33.843   8.644  10.790
42396W        W 7656  26.231   5.715  14.366
42397W        W 7657  30.977  10.612  11.978
42398W        W 7658   1.697  17.335  14.688
42399W        W 7659  42.668  34.084  14.395
42400W        W 7660  17.236   6.472  11.656
42401W        W 7661  40.021  36.198  12.998
42402W        W 7662  41.788  23.133   2.244
42403W        W 7663   4.409   9.735  11.331
42404W        W 7664  39.533   4.535  14.615
42405W        W 7665  10.798  38.320  12.848
42406W        W 7666  13.408  38.832  14.781
42407W        W 7667  20.693   6.826   0.734
42408W        W 7668  12.595  12.757  12.588
42409W        W 7669   5.475   2.420   2.211
42410W        W 7670  16.286  29.914  13.588
42411W        W 7671  21.815  13.054   3.706
42412W        W 7672  33.892  39.321   2.429
42413W        W 7673   0.511  18.324   1.823
42414W        W 7674  36.556  20.846  11.139
42415W        W 7675  18.889   1.905  11.431
42416W        W 7676  36.961   3.891   5.283
42417W        W 7677  30.735  39.477   3.123
42418W        W 7678  38.675  13.775   2.924
42419W        W 7679  16.312  43.284   4.774
42420W        W 7680  22.918  31.978   1.821
42421W        W 7681  16.131   0.428   2.195
42422W        W 7682   4.757   3.778   0.185
42423W        W 7683  40.824  11.682  14.534
42424W        W 7684  17.775  10.644   4.162
42425W        W 7685  35.382  42.740  10.426
42426W        W 7686  10.655  20.253  13.031
42427W        W 7687   0.317   6.858   4.670
42428W        W 7688   0.231  16.684   3.681
42429W        W 7689  23.170   1.237  14.431
42430W        W 7690  26.942  18.823  14.379
42431W        W 7691  15.390  13.152   0.961
42432W        W 7692  17.899  44.365  14.600
42433W        W 7693   3.837  39.490   0.464
42434W        W 7694  27.228  33.215  13.310
42435W        W 7695  13.928  40.936   2.254
42436W        W 7696  12.185  32.178  13.405
42437W        W 7697   8.892  19.118   4.022
42438W        W 7698   5.325  11.792  11.352
42439W        W 7699  27.563  43.451   4.636
42440W        W 7700  44.427  32.103  12.558
42441W        W 7701  42.132  19.700  11.638
42442W        W 7702  14.569   0.249   3.384
42443W        W 7703   3.273  12.857  11.795
42444W        W 7704  12.588   7.952   0.084
42445W        W 7705  35.610  35.170   0.420
42446W        W 7706  38.101  14.700  11.158
42447W        W 7707  30.912   1.912  11.567
42448W        W 7708  44.238  21.101   0.877
42449W        W 7709  38.808  36.006   0.819
42450W        W 7710   6.222   8.159   1.935
42451W        W 7711  11.903  35.790   2.329
42452W        W 7712   8.961  31.499   2.901
42453W        W 7713  26.938   5.311  10.649
42454W        W 7714  41.884   1.766  11.997
42455W        W 7715  28.026  11.102   4.266
42456W        W 7716  10.927  44.010   2.364
42457W        W 7717  16.225  35.838   0.270
42458W        W 7718  30.564  15.207  10.737
42459W        W 7719   5.041  42.733   0.591
42460W        W 7720   1.261  38.353  11.672
42461W        W 7721  17.258  12.117   1.024
42462W        W 7722  11.301  20.615  13.460
42463W        W 7723  41.057  15.769   1.732
42464W        W 7724   0.918  41.093   2.736
42465W        W 7725   4.453  12.374   1.914
42466W        W 7726  18.695  12.416   3.742
42467W        W 7727   0.239  20.556   1.948
42468W        W 7728  20.028  11.604   3.696
42469W        W 7729  34.123  33.814   2.533
42470W        W 7730   3.313   7.997  14.720
42471W        W 7731   2.036  40.744  13.144
42472W        W 7732   7.391  42.447  13.275
42473W        W 7733  20.582  32.983   1.762
42474W        W 7734  19.534  15.463  12.910
42475W        W 7735  40.967  10.095   3.758
42476W        W 7736  36.411   0.971  13.375
42477W        W 7737   7.193  19.959   2.757
42478W        W 7738   3.932   0.118   3.508
42479W        W 7739  44.009  26.406   3.065
42480W        W 7740   8.061  16.635   4.170
42481W        W 7741  21.198  15.534   1.353
42482W        W 7742  31.686  31.663   3.348
42483W        W 7743  29.500  30.804   2.253
42484W        W 7744  10.252  44.134  12.029
42485W        W 7745  12.037  30.370  10.558
42486W        W 7746  11.770  41.013   1.422
42487W        W 7747  27.452   4.804   2.692
42488W        W 7748  18.986   6.496   4.053
42489W        W 7749  36.430  44.445   3.061
42490W        W 7750  21.674  19.325   5.160
42491W        W 7751   5.495  18.161   4.193
42492W        W 7752  42.454  43.744   3.608
42493W        W 7753  32.471  27.730  11.136
42494W        W 7754  32.020  24.035   0.370
42495W        W 7755  36.054  19.469  14.881
42496W        W 7756  26.581  40.496   2.377
42497W        W 7757  42.479  11.012  12.204
42498W        W 7758  38.539  20.782   1.963
42499W        W 7759  22.098  33.061   5.461
42500W        W 7760  21.679  21.215  11.267
42501W        W 7761  20.079  42.113  14.904
42502W        W 7762  17.122  16.569  12.094
42503W        W 7763  13.283  11.392   4.578
42504W        W 7764   2.469  19.129  11.625
42505W        W 7765  37.651  39.878   1.177
42506W        W 7766  21.888   7.011   1.817
42507W        W 7767  14.856  18.635  11.045
42508W        W 7768   4.909  42.511  10.734
42509W        W 7769   9.633  39.032   0.504
42510W        W 7770  37.339  42.187   0.252
42511W        W 7771  43.293   8.189  11.147
42512W        W 7772  30.928  28.881   4.499
42513W        W 7773  43.463   5.512   3.153
42514W        W 7774   6.149  16.109   2.866
42515W        W 7775  41.213  33.633  10.694
42516W        W 7776  37.607  43.050   1.456
42517W        W 7777   9.618  17.305   1.767
42518W        W 7778  35.600  34.272  12.589
42519W        W 7779  33.830  11.121   2.753
42520W        W 7780   7.371  32.024   2.301
42521W        W 7781  24.196  31.789   3.383
42522W        W 7782  15.773   1.232  14.380
42523W        W 7783  17.097   7.421  10.651
42524W        W 7784  14.627  29.504  14.256
42525W        W 7785  24.690  18.649  11.852
42526W        W 7786   4.717   3.450   3.049
42527W        W 7787  37.693   5.297  11.650
42528W        W 7788  44.469  43.841   1.696
42529W        W 7789  27.569  41.974  12.917
42530W        W 7790  17.873  26.831   1.345
42531W        W 7791  10.803  42.755   3.660
42532W        W 7792  12.864  16.800  13.935
42533W        W 7793  24.188  17.049   5.238
42534W        W 7794  40.587  40.405   3.095
42535W        W 7795  15.750  32.130  10.295
42536W        W 7796  17.845  42.543   1.248
42537W        W 7797  24.481   2.916   3.222
42538W        W 7798  17.434  25.064  11.188
42539W        W 7799  29.926  14.371  13.783
42540W        W 7800  31.539  18.829  13.048
42541W        W 7801   1.684  39.721  11.008
42542W        W 7802  20.982  27.272  13.111
42543W        W 7803   9.354  10.226   3.317
42544W        W 7804   7.311  23.296  11.667
42545W        W 7805  27.564   4.480  14.945
42546W        W 7806  13.288  19.108  13.253
42547W        W 7807  43.571  20.889   2.288
42548W        W 7808  16.614   4.877   4.298
42549W        W 7809  11.827   8.219  10.188
42550W        W 7810  10.196  21.073  10.422
42551W        W 7811   7.925  29.262  12.910
42552W        W 7812  25.260   9.192  12.614
42553W        W 7813  30.129   9.135   0.022
42554W        W 7814  38.972  30.626  10.692
42555W        W 7815  41.538  34.965  10.672
42556W        W 7816  26.378  14.106  12.672
42557W        W 7817  15.311  37.523  10.730
42558W        W 7818  43.277  43.149   3.778
42559W        W 7819  34.675  40.240   4.209
42560W        W 7820  40.393   5.757  10.961
42561W        W 7821  27.092  43.717  13.571
42562W        W 7822  25.095  19.907   5.214
42563W        W 7823  39.966   8.450  14.220
42564W        W 7824  23.230  38.396  13.811
42565W        W 7825  21.210  18.426  11.407
42566W        W 7826   4.464  27.820  10.328
42567W        W 7827  44.678  39.303   0.351
42568W        W 7828  10.233  30.896  12.371
42569W        W 7829  19.245  26.070   2.297
42570W        W 7830  21.704  13.581   0.135
42571W        W 7831  12.057  28.979   4.692
42572W        W 7832  11.633  11.149  12.967
42573W        W 7833  31.115   7.686  11.621
42574W        W 7834  13.625  24.235  12.852
42575W        W 7835   5.103  31.413   3.758
42576W        W 7836  32.291  16.051   2.221
42577W        W 7837  34.133  44.379   0.419
42578W        W 7838   5.853  19.793   1.467
42579W        W 7839  43.083  19.771  11.632
42580W        W 7840  12.208  34.372  11.868
42581W        W 7841  10.374   7.021   0.855
42582W        W 7842  18.305  28.467   4.968
42583W        W 7843  12.734  10.767   5.096
42584W        W 7844  43.207  38.726  11.985
42585W        W 7845  10.661  29.016   1.360
42586W        W 7846  29.811  28.209   1.334
42587W        W 7847   2.002  33.987  11.086
42588W        W 7848  26.705  41.487   3.204
42589W        W 7849  33.630   5.514   1.467
42590W        W 7850  11.077  15.312  11.517
42591W        W 7851   0.450   1.285  13.981
42592W        W 7852  20.441  29.257   1.756
42593W        W 7853  35.475   8.918   3.689
42594W        W 7854  36.964   7.015   3.500
42595W        W 7855  31.062   5.321  13.946
42596W        W 7856  38.848  25.112   4.603
42597W        W 7857  18.449  14.641  13.938
42598W        W 7858   4.345  27.542   3.259
42599W        W 7859   6.250  26.328   5.402
42600W        W 7860  43.757  29.626   4.486
42601W        W 7861   4.164   6.920  12.693
42602W        W 7862  35.605  38.875  11.266
42603W        W 7863  28.763  16.229   0.960
42604W        W 7864  15.841  12.810  13.858
42605W        W 7865  30.587  26.528   1.587
42606W        W 7866  13.579  29.915   1.421
42607W        W 7867  22.156  14.123   1.731
42608W        W 7868  20.063  36.332  11.722
42609W        W 7869  32.159  32.410   3.320
42610W        W 7870  30.088  38.551   1.229
42611W        W 7871  24.933  18.662   3.786
42612W        W 7872  29.498   3.158   1.141
42613W        W 7873  25.055  22.467  11.584
42614W        W 7874   5.806  43.758   2.372
42615W        W 7875  19.638  32.491  10.753
42616W        W 7876   9.263  10.430   2.027
42617W        W 7877  30.356   7.726  11.027
42618W        W 7878  16.936   1.704   0.187
42619W        W 7879  41.527   1.245   2.687
42620W        W 7880  34.668   9.810  14.978
42621W        W 7881   0.460  44.374  11.107
42622W        W 7882   2.402  37.543  11.589
42623W        W 7883  29.410  11.956   0.250
42624W        W 7884  31.837  11.740   4.589
42625W        W 7885  30.574  19.073  12.662
42626W        W 7886   7.171  37.756  11.882
42627W        W 7887  32.514   5.296  11.906
42628W        W 7888  20.678  33.101  12.154
42629W        W 7889  32.383  21.986   2.279
42630W        W 7890  22.486  31.931   2.961
42631W        W 7891  17.792  31.796  11.302
42632W        W 7892  20.993  44.842   3.866
42633W        W 7893  30.162  18.760   0.902
42634W        W 7894  40.950  10.209   1.827
42635W        W 7895   5.750  21.182   0.712
42636W        W 7896  10.233  29.958  13.496
42637W        W 7897  17.948  40.913   2.242
42638W        W 7898  15.160   0.947   3.149
42639W        W 7899  35.366  40.202   3.093
42640W        W 7900   7.880   3.534   2.894
42641W        W 7901  29.978  11.761  13.541
42642W        W 7902  39.146  38.905   5.059
42643W        W 7903   7.100  34.799   3.163
42644W        W 7904   3.929  26.595  10.084
42645W        W 7905  38.129   5.486  13.321
42646W        W 7906  27.664  41.238  13.443
42647W        W 7907  44.295  23.825   0.313
42648W        W 7908  25.483  19.581   5.114
42649W        W 7909  38.307  28.344   0.379
42650W        W 7910   8.784  27.506  12.898
42651W        W 7911  23.460  13.891  12.614
42652W        W 7912  32.513  24.596   4.095
42653W        W 7913  40.239  26.417   0.779
42654W        W 7914  21.719  42.582   1.885
42655W        W 7915  38.188   9.798  12.513
42656W        W 7916   1.024  14.676  14.578
42657W        W 7917  21.845  15.439  13.611
42658W        W 7918   9.989   2.821  10.971
42659W        W 7919  13.028   8.290  11.996
42660W        W 7920  31.405  42.572  11.888
42661W        W 7921   7.342  20.989   4.485
42662W        W 7922   0.573  25.046   1.313
42663W        W 7923  37.732   4.685   3.312
42664W        W 7924  37.954  17.052  11.141
42665W        W 7925  39.531   5.817  13.348
42666W        W 7926   2.441  25.036   3.060
42667W        W 7927   9.106  40.986  11.132
42668W        W 7928  39.870   9.176  14.945
42669W        W 7929  12.182   9.118   4.619
42670W        W 7930   0.523   4.391  10.993
42671W        W 7931  39.335  26.785  12.070
42672W        W 7932  25.478  23.125   4.344
42673W        W 7933  33.768  18.761   4.198
42674W        W 7934  18.096  21.491  11.311
42675W        W 7935   7.090  17.875  12.592
42676W        W 7936   3.741  11.291  14.431
42677W        W 7937  31.521  12.045   1.943
42678W        W 7938  17.715   9.022   1.155
42679W        W 7939  20.364  20.793   5.057
42680W        W 7940  43.357  25.112   2.654
42681W        W 7941  24.884  16.217   5.261
42682W        W 7942  43.439  10.824   0.328
42683W        W 7943  28.810  11.274   0.541
42684W        W 7944  10.543  39.678   1.326
42685W        W 7945  18.185   5.762  10.542
42686W        W 7946  25.181  10.481  11.478
42687W        W 7947  26.174  44.693  10.650
42688W        W 7948   7.258  30.119  11.112
42689W        W 7949   4.981  22.563   0.871
42690W        W 7950  17.856  14.667   4.660
42691W        W 7951  12.667  15.573   3.197
42692W        W 7952  36.074  19.045  11.187
42693W        W 7953  23.235  38.523   2.823
42694W        W 7954  21.520  37.125  12.558
42695W        W 7955  37.315  27.051   1.766
42696W        W 7956  17.522  36.435  10.269
42697W        W 7957  22.153   7.865   2.339
42698W        W 7958  18.830  28.072   2.961
42699W        W 7959  13.758  30.186   1.028
42700W        W 7960  11.712   7.707  12.277
42701W        W 7961   5.616  30.033  11.119
42702W        W 7962  34.817  14.444  10.285
42703W        W 7963   9.159  22.056   4.622
42704W        W 7964  27.555  21.127  14.358
42705W        W 7965   7.239  41.459   5.029
42706W        W 7966  13.796  23.033   2.145
42707W        W 7967  15.486  39.006   5.080
42708W        W 7968   1.494  15.199   3.996
42709W        W 7969  43.587  10.439   9.866
42710W        W 7970  40.531  42.554   3.491
42711W        W 7971  44.385  35.561  13.905
42712W        W 7972  19.350  41.872   4.607
42713W        W 7973   3.671  16.046  14.729
42714W        W 7974   7.387   7.476   1.774
42715W        W 7975  36.715  20.642  10.700
42716W        W 7976  35.155  14.437  14.956
42717W        W 7977  42.568  18.587  14.538
42718W        W 7978   0.793  15.537   4.869
42719W        W 7979  41.782   4.717  14.472
42720W        W 7980  25.731  34.967  11.211
42721W        W 7981   2.300  14.304  14.715
42722W        W 7982  34.587  14.432  10.752
42723W        W 7983  29.955   3.647   1.785
42724W        W 7984  36.844  27.001  10.686
42725W        W 7985   3.173  31.525   2.353
42726W        W 7986  42.998  30.385  13.389
42727W        W 7987   8.514  19.287  12.415
42728W        W 7988  13.082  18.565  13.545
42729W        W 7989  37.464   7.051  11.154
42730W        W 7990  42.354  18.628   4.301
42731W        W 7991  35.514  14.652  13.148
42732W        W 7992  44.304  33.430   2.372
42733W        W 7993   1.538  32.492  12.565
42734W        W 7994   3.821  39.049   2.748
42735W        W 7995   4.844  11.334   0.710
42736W        W 7996  36.525  16.839   2.265
42737W        W 7997  19.694   8.713   0.388
42738W        W 7998   0.931  20.662   2.594
42739W        W 7999  27.182  25.660   3.671
42740W        W 8000   1.751  29.506   3.898
42741W        W 8001  12.552  25.017  10.979
42742W        W 8002  44.248  35.527   2.759
42743W        W 8003  27.048  28.905  10.532
42744W        W 8004  25.531   4.411  10.281
42745W        W 8005  15.322  17.457   3.879
42746W        W 8006   6.842  22.727  14.702
42747W        W 8007  10.382  37.684  13.216
42748W        W 8008  20.526  14.891   1.247
42749W        W 8009   8.735   3.217   2.260
42750W        W 8010  41.836  42.313   2.011
42751W        W 8011  22.207  30.927  13.027
42752W        W 8012  28.662  44.010   2.489
42753W        W 8013  32.109  40.266  12.471
42754W        W 8014   4.353  26.775   0.391
42755W        W 8015  44.282  10.334  12.939
42756W        W 8016  23.809   5.508   9.861
42757W        W 8017   7.982  14.677  10.723
42758W        W 8018  26.474  13.176   0.990
42759W        W 8019  19.130  38.168  12.860
42760W        W 8020  20.311  18.103   1.149
42761W        W 8021  20.495  13.141   4.137
42762W        W 8022  44.977  19.211   2.418
42763W        W 8023  28.850  21.698   3.294
42764W        W 8024  40.130  43.399  14.969
42765W        W 8025  42.076  24.605   0.217
42766W        W 8026  26.060  42.290  12.580
42767W        W 8027  36.542  42.324  12.336
42768W        W 8028  10.886  11.440   3.697
42769W        W 8029  33.347  29.559   1.166
42770W        W 8030  23.741   9.416  14.037
42771W        W 8031  44.247   0.796   0.768
42772W        W 8032  15.250  17.795  13.466
42773W        W 8033   7.641  15.539  12.427
42774W        W 8034  22.102   3.333   5.039
42775W        W 8035  27.465  43.076   3.208
42776W        W 8036   9.145   1.303  13.408
42777W        W 8037  10.803  29.713   4.680
42778W        W 8038  20.743  11.716   0.672
42779W        W 8039  23.720  38.067   4.136
42780W        W 8040  11.270  12.633   2.807
42781W        W 8041  26.078  41.100   1.767
42782W        W 8042  44.566  10.427  12.495
42783W        W 8043  14.585  13.896   4.243
42784W        W 8044   5.210  35.196   4.293
42785W        W 8045  40.485   2.469   4.623
42786W        W 8046  18.266  36.428  13.951
42787W        W 8047  42.514  10.818   2.420
42788W        W 8048  35.395  35.381   1.874
42789W        W 8049  36.638  15.533   1.264
42790W        W 8050  29.763  39.385  14.290
42791W        W 8051  34.551  12.701  12.332
42792W        W 8052   8.436  14.148   2.214
42793W        W 8053  13.558  16.162  11.687
42794W        W 8054  38.304  44.069  11.658
42795W        W 8055  16.521  40.991   2.681
42796W        W 8056  26.095  34.053   2.836
42797W        W 8057  39.097   2.507  14.110
42798W        W 8058  15.385  30.075   1.039
42799W        W 8059  30.128  17.607   3.729
42800W        W 8060  13.399   5.258  12.858
42801W        W 8061   1.321  10.847   2.670
42802W        W 8062  15.659  30.561  12.811
42803W        W 8063  27.114  32.277  13.490
42804W        W 8064  10.189  23.065   0.306
42805W        W 8065  13.664   2.813   1.307
42806W        W 8066  33.799  31.643  12.841
42807W        W 8067  35.404   5.414  13.249
42808W        W 8068  35.353   1.448   2.555
42809W        W 8069  14.744  34.447  14.511
42810W        W 8070  34.107  26.705  14.165
42811W        W 8071  44.311  20.726   3.635
42812W        W 8072  11.216  11.119  11.034
42813W        W 8073  38.865  36.381   4.062
42814W        W 8074  35.996  25.558   4.635
42815W        W 8075  26.876  16.412  12.850
42816W        W 8076   7.607   6.851  11.494
42817W        W 8077  21.662  28.211   2.652
42818W        W 8078   6.658  38.064   3.689
42819W        W 8079   4.229  34.525   2.821
42820W        W 8080  29.466  41.307  13.972
42821W        W 8081   3.313  10.912  14.565
42822W        W 8082  36.516  21.065   0.873
42823W        W 8083  27.701  10.661   3.709
42824W        W 8084   9.838  16.330   4.032
42825W        W 8085  27.534  19.170  12.657
42826W        W 8086  42.084  14.217  10.766
42827W        W 8087  44.761  39.375   2.690
42828W        W 8088  40.797  32.081  14.370
42829W        W 8089   6.874  43.462  12.446
42830W        W 8090   1.987   5.724  10.691
42831W        W 8091  26.145  18.229   1.617
42832W        W 8092  35.131  11.794   1.316
42833W        W 8093  10.626  11.778   1.393
42834W        W 8094  40.030   6.045   1.886
42835W        W 8095  15.800  18.515  14.292
42836W        W 8096  41.619  20.680   2.179
42837W        W 8097  43.536  29.634  11.706
42838W        W 8098  21.873   8.848   4.474
42839W        W 8099  19.913  38.509   4.582
42840W        W 8100  19.328   5.239   1.687
42841W        W 8101  10.653  34.911   4.230
42842W        W 8102  11.201  28.557  14.937
42843W        W 8103  42.890  18.284   4.652
42844W        W 8104  34.852   3.416   1.610
42845W        W 8105  17.918  39.519  12.807
42846W        W 8106  34.115  20.119   1.135
42847W        W 8107  37.436  10.726  13.828
42848W        W 8108  24.458  10.358   1.693
42849W        W 8109  26.532  26.587  10.507
42850W        W 8110  34.507   5.384   3.634
42851W        W 8111  44.212  32.509   2.378
42852W        W 8112   0.969  38.858  13.073
42853W        W 8113  30.492  37.983  13.857
42854W        W 8114  40.819   7.206  12.539
42855W        W 8115  21.282  17.507  13.967
42856W        W 8116  13.544  39.809   4.080
42857W        W 8117  14.629  17.519   0.971
42858W        W 8118  43.961   4.347   4.835
42859W        W 8119  36.910   5.934   3.301
42860W        W 8120  21.707  24.585  13.800
42861W        W 8121  23.496  39.616  12.501
42862W        W 8122   4.374  41.815  14.886
42863W        W 8123   2.346  21.603   1.631
42864W        W 8124   8.642  11.342   2.789
42865W        W 8125  20.289   7.117  11.999
42866W        W 8126  16.567  42.443  12.761
42867W        W 8127  32.856  35.097  14.200
42868W        W 8128  30.049  22.234   4.582
42869W        W 8129  26.649  23.521  13.074
42870W        W 8130  38.233  39.409  14.854
42871W        W 8131  33.740  20.492   3.208
42872W        W 8132   7.705  16.231   4.216
42873W        W 8133   0.982   5.347   0.455
42874W        W 8134  18.289  18.798   2.395
42875W        W 8135  23.368  32.472  14.468
42876W        W 8136  21.749  35.515  12.681
42877W        W 8137   2.045  44.446  11.990
42878W        W 8138  11.219  34.140   4.037
42879W        W 8139   1.164  25.686  13.923
42880W        W 8140  27.448  35.673  14.186
42881W        W 8141  43.763  29.996   1.605
42882W        W 8142  37.094  30.216  11.991
42883W        W 8143  10.252  41.783   1.691
42884W        W 8144  35.888  30.612   3.597
42885W        W 8145  34.623   6.644  12.150
42886W        W 8146  33.178  32.606  13.875
42887W        W 8147  15.539  19.789  11.444
42888W        W 8148  10.029   2.195  13.821
42889W        W 8149   6.905  23.616  13.005
42890W        W 8150  31.303   8.282  12.677
42891W        W 8151  28.711  41.455  10.910
42892W        W 8152  13.623  30.921  14.398
42893W        W 8153  31.495   2.988   0.745
42894W        W 8154  40.485  32.779   0.626
42895W        W 8155  35.945  36.398  11.008
42896W        W 8156   6.141  12.071  11.024
42897W        W 8157  34.394  34.141   2.813
42898W        W 8158  38.994  18.284   0.340
42899W        W 8159  43.512  35.075   0.699
42900W        W 8160  13.885  27.931   4.200
42901W        W 8161   7.127  21.745  10.733
42902W        W 8162  15.227   5.567   4.260
42903W        W 8163  24.244  30.934   0.288
42904W        W 8164  39.044  37.941  14.295
42905W        W 8165  27.886  36.058   4.952
42906W        W 8166   4.395  34.303  12.395
42907W        W 8167  13.240  11.107  14.578
42908W        W 8168  20.282  14.104   1.555
42909W        W 8169  20.518  33.700   0.370
42910W        W 8170  19.774   9.624   3.627
42911W        W 8171  24.971  18.116   2.423
42912W        W 8172  14.244  39.202  14.496
42913W        W 8173  40.569   1.705   4.175
42914W        W 8174  43.691  32.050   0.488
42915W        W 8175  19.593   8.804  14.885
42916W        W 8176   5.759  42.014   3.683
42917W        W 8177  16.564  15.566   1.752
42918W        W 8178  13.379  43.425  14.882
42919W        W 8179  31.615   0.516   4.407
42920W        W 8180   3.746  15.696   3.061
42921W        W 8181  29.696  24.068  10.852
42922W        W 8182   1.863  10.758  10.291
42923W        W 8183   3.860  15.830  14.232
42924W        W 8184  36.889   0.986   1.631
42925W        W 8185  32.976  40.783   2.678
42926W        W 8186  16.213  34.789  10.745
42927W        W 8187   6.196  15.442   2.401
42928W        W 8188  25.746  36.997  13.262
42929W        W 8189  37.649  10.742   0.787
42930W        W 8190  19.994  21.823   3.712
42931W        W 8191   6.545  28.957   2.701
42932W        W 8192   5.411  23.796   9.727
42933W        W 8193  39.421  39.896  10.955
42934W        W 8194  30.241  17.357  12.853
42935W        W 8195   6.929  44.813   4.115
42936W        W 8196  25.563  24.142   0.291
42937W        W 8197  20.732  28.876  10.926
42938W        W 8198  18.724  10.157  12.057
42939W        W 8199  33.855  26.692   9.891
42940W        W 8200  14.321  28.950  13.105
42941W        W 8201  25.927   6.044   2.688
42942W        W 8202  21.215   0.297   1.173
42943W        W 8203  28.547  31.015  13.849
42944W        W 8204  20.709  41.808  13.726
42945W        W 8205  11.091  11.806   1.172
42946W        W 8206  18.654  21.758   3.731
42947W        W 8207  11.117  42.368  14.871
42948W        W 8208  24.145  19.814   1.666
42949W        W 8209   8.134   1.108   2.917
42950W        W 8210  11.963  36.300  14.016
42951W        W 8211  33.982  16.056  13.867
42952W        W 8212  20.592  21.212  11.992
42953W        W 8213  28.550  17.471  11.129
42954W        W 8214  13.108  10.773   5.779
42955W        W 8215  41.234  23.523  11.236
42956W        W 8216  24.341  27.449  14.398
42957W        W 8217  35.944   4.913   0.728
42958W        W 8218  13.565  35.082  12.886
42959W        W 8219   5.196  37.554  11.099
42960W        W 8220  18.628  35.361   4.549
42961W        W 8221   3.936   9.770  13.566
42962W        W 8222  44.876  21.516  14.175
42963W        W 8223   9.650  26.398   3.369
42964W        W 8224  42.789  17.307   0.165
42965W        W 8225  33.518  17.565   3.230
42966W        W 8226  43.912   4.235   0.501
42967W        W 8227   7.213   5.834   4.222
42968W        W 8228  27.474  41.045  14.956
42969W        W 8229  37.833   0.228  13.651
42970W        W 8230  38.967  13.749  11.542
42971W        W 8231  18.935  41.769   1.772
42972W        W 8232  22.477  24.531  13.409
42973W        W 8233  38.569  40.800  14.031
42974W        W 8234   5.147  15.692  10.487
42975W        W 8235  12.163  14.202   1.811
42976W        W 8236  18.672   4.383  14.901
42977W        W 8237   0.230  14.388  13.821
42978W        W 8238  40.825   7.520  13.936
42979W        W 8239  21.349  23.929   3.202
42980W        W 8240  24.592  32.422   4.871
42981W        W 8241  15.214   4.911   1.437
42982W        W 8242  11.787  43.851   1.822
42983W        W 8243  12.358  28.716  14.463
42984W        W 8244  19.733  39.758  14.491
42985W        W 8245   5.745  41.011  11.830
42986W        W 8246  25.474  36.555   9.840
42987W        W 8247  21.700  19.883  12.991
42988W        W 8248  25.770  43.858   4.154
42989W        W 8249  12.084  15.669  13.370
42990W        W 8250  21.071  29.115   0.908
42991W        W 8251   6.126  11.929  13.012
42992W        W 8252  11.812  12.838  13.515
42993W        W 8253  36.877  27.938  10.637
42994W        W 8254  21.708  23.218   0.625
42995W        W 8255  21.302  18.641   9.674
42996W        W 8256  29.184  21.716   1.005
42997W        W 8257  22.108   1.454   2.184
42998W        W 8258  24.282  18.667   0.252
42999W        W 8259  41.024   5.619   1.031
43000W        W 8260  36.858   2.846   3.659
43001W        W 8261  10.797  21.923   0.026
43002W        W 8262  22.000  33.337  11.178
43003W        W 8263  23.277  44.357   2.676
43004W        W 8264  39.032  40.847   0.862
43005W        W 8265   8.450  13.197   1.855
43006W        W 8266  23.399  25.953   1.911
43007W        W 8267  15.434   0.280   2.826
43008W        W 8268   2.280  29.985  13.697
43009W        W 8269  28.268   9.583  13.789
43010W        W 8270   0.307  44.992  11.614
43011W        W 8271  28.566  23.489   0.243
43012W        W 8272  22.661   8.904  11.545
43013W        W 8273  26.932  25.136  11.123
43014W        W 8274  36.956  23.725   4.689
43015W        W 8275  23.738   5.245  14.866
43016W        W 8276  22.295   8.145   1.292
43017W        W 8277  20.696  13.789   3.266
43018W        W 8278  10.843  33.802   0.791
43019W        W 8279   7.996  43.769  11.924
43020W        W 8280  26.336  10.386   2.848
43021W        W 8281   9.890  29.359   4.700
43022W        W 8282  32.646   1.434   1.297
43023W        W 8283  25.699   7.267  13.409
43024W        W 8284  38.199   4.468  11.079
43025W        W 8285  37.692  42.628  14.375
43026W        W 8286  38.627  10.214  12.945
43027W        W 8287  36.811  26.707   0.432
43028W        W 8288  29.651  35.436   1.461
43029W        W 8289   8.191  18.261   1.388
43030W        W 8290   6.206  31.052  11.124
43031W        W 8291  31.503  15.406  11.526
43032W        W 8292   1.217  36.201   3.342
43033W        W 8293   1.222  15.757   4.639
43034W        W 8294  12.501   4.662  11.337
43035W        W 8295  14.121  30.609   4.540
43036W        W 8296   7.363  22.339   2.604
43037W        W 8297   6.831  24.631  13.284
43038W        W 8298  10.209  38.883  10.768
43039W        W 8299  25.120  34.428   3.178
43040W        W 8300  31.165  20.842   3.377
43041W        W 8301  21.991  21.517   0.749
43042W        W 8302   5.985   5.023  13.980
43043W        W 8303   7.026  41.966   3.162
43044W        W 8304  20.912  31.714  12.319
43045W        W 8305  12.847   4.138   1.409
43046W        W 8306  39.781   1.170   4.567
43047W        W 8307   4.632  22.716   4.974
43048W        W 8308  27.060  34.996  10.702
43049W        W 8309  30.948   4.896   1.160
43050W        W 8310  28.207  22.531  14.252
43051W        W 8311  12.270  15.219   0.649
43052W        W 8312  42.094  40.574  10.679
43053W        W 8313   6.071   2.999  11.116
43054W        W 8314  17.993  40.892  13.098
43055W        W 8315  36.171  34.632  14.328
43056W        W 8316  23.131   5.255  12.946
43057W        W 8317  37.372  36.106  12.524
43058W        W 8318  30.675  12.652   0.895
43059W        W 8319   9.221  22.770  12.987
43060W        W 8320  14.314   6.040   3.748
43061W        W 8321  25.008  36.116   2.209
43062W        W 8322  28.503  40.093  14.984
43063W        W 8323   2.327   4.925   3.892
43064W        W 8324  35.265  19.598  14.415
43065W        W 8325  26.954  28.388   3.311
43066W        W 8326  28.413   4.689   4.083
43067W        W 8327  21.957  29.900  14.752
43068W        W 8328  42.289  34.403  13.559
43069W        W 8329  18.179  22.078   4.044
43070W        W 8330  39.979   2.144  13.958
43071W        W 8331  37.370   3.945  12.742
43072W        W 8332   7.767  20.572   4.345
43073W        W 8333  41.720   9.716   1.904
43074W        W 8334  21.738  39.776   3.203
43075W        W 8335  44.558   1.919  11.625
43076W        W 8336  26.222  19.622  14.117
43077W        W 8337   4.460  37.975  11.480
43078W        W 8338  32.939   0.387   1.309
43079W        W 8339   3.323  14.673  11.157
43080W        W 8340  37.310  40.883   1.879
43081W        W 8341   8.030  19.489  12.353
43082W        W 8342  23.264  30.422  12.853
43083W        W 8343  36.573  21.138  11.556
43084W        W 8344  20.103  20.638  12.452
43085W        W 8345  20.173  43.245   3.747
43086W        W 8346  42.958   2.406  13.091
43087W        W 8347  22.456  33.417   0.011
43088W        W 8348  14.250   0.945   1.651
43089W        W 8349   5.211   1.454   3.243
43090W        W 8350  41.439   6.465   0.453
43091W        W 8351  41.882  13.517  11.914
43092W        W 8352   7.830  17.928  12.070
43093W        W 8353  44.417  17.562  11.962
43094W        W 8354  34.366  43.072  13.353
43095W        W 8355  12.360  38.365   3.800
43096W        W 8356  31.339   3.681   0.313
43097W        W 8357  21.733  17.380  12.920
43098W        W 8358  41.288  11.704  13.972
43099W        W 8359  24.541   8.146   0.537
43100W        W 8360   3.795  35.142   4.119
43101W        W 8361  28.514  14.213   1.041
43102W        W 8362  43.278  30.914  13.980
43103W        W 8363  44.341  17.579  14.617
43104W        W 8364  35.982  39.057  13.434
43105W        W 8365  10.069  30.369  12.353
43106W        W 8366  24.175   1.771  12.530
43107W        W 8367  21.111   7.980  11.489
43108W        W 8368  18.781  26.293  13.802
43109W        W 8369  19.627  17.646   2.289
43110W        W 8370  22.981  20.699   1.806
43111W        W 8371   2.832   0.728  12.109
43112W        W 8372   2.456  11.644   4.548
43113W        W 8373  11.923   3.200  12.502
43114W        W 8374  22.148  44.368   0.211
43115W        W 8375  24.629  43.936  14.484
43116W        W 8376   0.842  22.373  14.523
43117W        W 8377  37.622  30.437  11.977
43118W        W 8378  12.105  10.606   0.356
43119W        W 8379  34.657  44.481   2.150
43120W        W 8380  24.395  33.226  12.347
43121W        W 8381  19.045  38.000   4.714
43122W        W 8382  12.893  12.258   3.297
43123W        W 8383  19.587   7.781   3.530
43124W        W 8384   6.409  21.785  11.274
43125W        W 8385  14.880  41.166   1.266
43126W        W 8386  41.831   2.313   4.472
43127W        W 8387   3.246  21.318  11.765
43128W        W 8388  25.943   3.185   1.001
43129W        W 8389   4.309  11.339   0.485
43130W        W 8390  16.510  15.394  14.969
43131W        W 8391  34.810  33.025   2.774
43132W        W 8392  23.934  10.652  10.646
43133W        W 8393  21.873  42.240  12.965
43134W        W 8394  28.011   9.655  13.335
43135W        W 8395  37.009  14.067  11.314
43136W        W 8396  41.049  19.072  12.958
43137W        W 8397  28.323  37.010   4.064
43138W        W 8398  42.848   1.355   4.600
43139W        W 8399  34.856  33.432  13.763
43140W        W 8400  13.306  20.037   4.142
43141W        W 8401  31.340  43.985   3.910
43142W        W 8402  34.439  29.475  11.205
43143W        W 8403  18.797  19.937   0.658
43144W        W 8404   5.489  22.110  13.525
43145W        W 8405  40.311  19.296  12.059
43146W        W 8406  30.851  36.453   4.507
43147W        W 8407   7.033  23.995  14.998
43148W        W 8408  25.661  36.950   0.279
43149W        W 8409  17.540  37.077   0.614
43150W        W 8410   8.692  10.013  13.884
43151W        W 8411  29.229  37.336   4.809
43152W        W 8412  17.528  12.613  11.726
43153W        W 8413   7.335   9.380  12.412
43154W        W 8414   2.232   3.166  10.532
43155W        W 8415  20.809  22.162   2.034
43156W        W 8416  18.218  36.438   2.627
43157W        W 8417  24.302   3.327  13.733
43158W        W 8418  17.499   0.352   1.247
43159W        W 8419  44.032  34.076   1.310
43160W        W 8420  38.534  36.019   4.231
43161W        W 8421  19.556  29.098   1.669
43162W        W 8422  29.066  25.205  10.358
43163W        W 8423  35.059   3.622  14.861
43164W        W 8424  36.329  18.772   4.449
43165W        W 8425  15.591  12.781  13.424
43166W        W 8426  18.495  13.794   2.639
43167W        W 8427  10.558  27.226  14.853
43168W        W 8428  34.776  19.283   1.436
43169W        W 8429  34.561  35.039  10.593
43170W        W 8430  37.347  35.366  14.794
43171W        W 8431  27.669   2.472   4.329
43172W        W 8432   9.293   6.224   2.776
43173W        W 8433  19.240  16.048   3.669
43174W        W 8434   9.169  29.496   3.347
43175W        W 8435  25.077   0.988   0.188
43176W        W 8436  22.769   8.747  12.449
43177W        W 8437   8.222  27.128  14.246
43178W        W 8438   8.282   0.966  11.157
43179W        W 8439  34.080  21.652   2.393
43180W        W 8440  30.479  14.768   2.323
43181W        W 8441  12.172  18.395   0.212
43182W        W 8442  39.223  20.504  13.114
43183W        W 8443  25.237  44.526  14.007
43184W        W 8444  39.386   2.137  14.393
43185W        W 8445   7.208  14.786   0.266
43186W        W 8446  40.073   9.852  11.659
43187W        W 8447   9.473  37.359   4.484
43188W        W 8448   6.942   2.351   4.169
43189W        W 8449  38.476  30.029   1.725
43190W        W 8450  19.617  15.105  14.696
43191W        W 8451  12.786  34.958   0.355
43192W        W 8452  38.283  32.168  14.323
43193W        W 8453  21.195   2.999   2.163
43194W        W 8454  19.178  32.282   2.929
43195W        W 8455   7.395  19.069  13.509
43196W        W 8456   1.505  20.789  11.521
43197W        W 8457  28.730   0.326  13.274
43198W        W 8458   6.854   3.763   0.827
43199W        W 8459  29.434  44.607   4.173
43200W        W 8460  36.612   6.996  10.122
43201W        W 8461   7.762   6.626   4.099
43202W        W 8462   7.721  41.347  11.197
43203W        W 8463   0.983  16.063  14.440
43204W        W 8464  28.603  41.707   0.776
43205W        W 8465   1.511   3.391   2.390
43206W        W 8466  28.778  14.547   5.243
43207W        W 8467  15.683  23.027   4.059
43208W        W 8468  12.134  28.972   2.616
43209W        W 8469  11.902   7.611   3.535
43210W        W 8470  16.834  44.809   3.690
43211W        W 8471  25.472  41.874   4.127
43212W        W 8472  12.836  31.367   1.808
43213W        W 8473  44.888  27.978   2.412
43214W        W 8474  39.598  14.381  13.687
43215W        W 8475  44.747  24.587   2.323
43216W        W 8476  13.532  34.103   0.895
43217W        W 8477  14.489  32.409  13.060
43218W        W 8478  36.092   4.355   2.373
43219W        W 8479   8.795  41.388  12.915
43220W        W 8480  38.274  18.852  14.493
43221W        W 8481   8.699   6.617   1.391
43222W        W 8482   3.394  13.253  12.613
43223W        W 8483  16.252  35.847  10.725
43224W        W 8484  38.367  15.983  10.505
43225W        W 8485  38.798  36.537  14.808
43226W        W 8486  33.767  43.254  10.130
43227W        W 8487  42.933  22.977  12.854
43228W        W 8488  16.677   7.386   4.209
43229W        W 8489   6.941  34.618   0.251
43230W        W 8490  35.175  15.983   0.482
43231W        W 8491   5.822   4.435   2.418
43232W        W 8492  23.918  21.292  14.265
43233W        W 8493   4.385   5.928  14.881
43234W        W 8494  24.498  11.967  10.817
43235W        W 8495  40.901  18.926   3.956
43236W        W 8496   8.608   5.774   1.737
43237W        W 8497  44.747  35.006   2.972
43238W        W 8498  42.771  40.885   0.512
43239W        W 8499   3.396   3.707   4.008
43240W        W 8500  35.524   9.722   2.160
43241W        W 8501  18.355  13.996  12.993
43242W        W 8502   2.957  43.796  14.247
43243W        W 8503  43.790  10.806   1.557
43244W        W 8504   2.281  21.076   3.719
43245W        W 8505  24.121   6.386   5.362
43246W        W 8506  32.011  18.890   4.087
43247W        W 8507  19.568  17.140  13.404
43248W        W 8508   9.916  19.101   1.886
43249W        W 8509  22.329  21.796   9.667
43250W        W 8510  40.695  34.048   0.535
43251W        W 8511  27.121  31.503   0.465
43252W        W 8512  14.463  10.235   2.161
43253W        W 8513  41.677  17.388  12.076
43254W        W 8514  20.310  10.093  12.951
43255W        W 8515  15.201   9.344  14.488
43256W        W 8516  28.450  26.787  10.730
43257W        W 8517  28.983  11.223  14.350
43258W        W 8518  21.530   6.593   4.003
43259W        W 8519   8.209   8.230  13.400
43260W        W 8520  30.012  27.977   2.316
43261W        W 8521  26.845  17.682  14.936
43262W        W 8522  14.356  23.248  13.467
43263W        W 8523   1.766  25.161   2.782
43264W        W 8524  39.893   6.966  11.152
43265W        W 8525   4.677  40.117  13.816
43266W        W 8526  29.364  41.436  13.468
43267W        W 8527   6.481  29.075  10.513
43268W        W 8528  36.260  42.899  11.688
43269W        W 8529  23.572  21.844  13.916
43270W        W 8530   8.180  14.538   2.700
43271W        W 8531  34.920  36.150   2.315
43272W        W 8532  15.598  18.513  11.601
43273W        W 8533  36.629   3.808  10.014
43274W        W 8534  21.227   2.230   2.736
43275W        W 8535   5.023  44.874  11.223
43276W        W 8536   2.445  17.859   4.838
43277W        W 8537  31.636   8.644  11.088
43278W        W 8538   9.079  11.282  13.386
43279W        W 8539   2.443  33.479  10.593
43280W        W 8540  39.846  29.869  14.477
43281W        W 8541  29.373   7.704   3.713
43282W        W 8542  38.105  30.678   2.223
43283W        W 8543  32.639  31.800  11.448
43284W        W 8544  13.251   7.386   3.533
43285W        W 8545  29.101   3.848  14.695
43286W        W 8546  29.626  42.913  11.630
43287W        W 8547   5.270  42.922  14.708
43288W        W 8548  11.673  14.060   1.247
43289W        W 8549  35.351   6.215  12.003
43290W        W 8550  25.536  24.196  11.419
43291W        W 8551  31.592   2.927  14.858
43292W        W 8552  41.921  38.801  12.473
43293W        W 8553  12.671  14.024   0.892
43294W        W 8554  35.597   2.421  12.223
43295W        W 8555  42.429  26.103   4.359
43296W        W 8556  33.281  21.331   5.132
43297W        W 8557  26.327  18.018   2.566
43298W        W 8558  16.677   0.946  12.470
43299W        W 8559  15.349  14.314  13.827
43300W        W 8560  33.852   1.041  11.154
43301W        W 8561  44.174  18.001  12.068
43302W        W 8562  10.152  24.643  12.001
43303W        W 8563  41.119  38.938   2.403
43304W        W 8564  31.517   9.731   2.256
43305W        W 8565  14.320   0.462   1.887
43306W        W 8566  12.638  27.988   2.098
43307W        W 8567   9.769  37.627   0.937
43308W        W 8568  15.084  26.292  13.583
43309W        W 8569   7.695  33.455  14.999
43310W        W 8570  42.625  43.508  12.661
43311W        W 8571  31.947  25.031   0.515
43312W        W 8572  15.772  39.022  11.982
43313W        W 8573  37.072   3.317   3.678
43314W        W 8574   6.243  44.821   1.273
43315W        W 8575  36.121  30.724  14.409
43316W        W 8576  17.019  34.681  14.064
43317W        W 8577  10.244  35.845  11.091
43318W        W 8578  33.145   1.989   3.327
43319W        W 8579  43.521  18.096  14.931
43320W        W 8580  30.256   9.782  12.004
43321W        W 8581  24.150  34.888   1.328
43322W        W 8582   3.382  17.340  12.488
43323W        W 8583  11.449  29.314  13.823
43324W        W 8584  31.141  19.626  13.360
43325W        W 8585   5.169  36.412   3.584
43326W        W 8586   1.994  24.100   3.210
43327W        W 8587  11.290  31.970   0.451
43328W        W 8588  33.552   2.285   0.764
43329W        W 8589   6.402  29.051   3.665
43330W        W 8590  27.550   8.724   2.054
43331W        W 8591  35.673  14.259   0.801
43332W        W 8592  26.586  31.555   4.795
43333W        W 8593  18.625  35.023  11.568
43334W        W 8594  43.915  36.050   1.555
43335W        W 8595   2.891  40.879  14.017
43336W        W 8596  42.255  30.501  14.895
43337W        W 8597   3.740   4.914  11.574
43338W        W 8598  39.278  40.159   2.887
43339W        W 8599   0.592   4.227  13.342
43340W        W 8600  29.126   3.754   4.535
43341W        W 8601  30.560  20.528   1.848
43342W        W 8602  17.747  34.133   1.740
43343W        W 8603  43.843  30.019   3.630
43344W        W 8604  39.882  38.478  13.566
43345W        W 8605  28.105   1.518  14.908
43346W        W 8606  37.853  33.128  12.638
43347W        W 8607  40.387  10.156  13.610
43348W        W 8608  20.276  23.150  12.704
43349W        W 8609  30.142  30.605   0.866
43350W        W 8610  30.185  39.062   1.336
43351W        W 8611  30.999  40.282   4.681
43352W        W 8612  14.607   5.390   1.960
43353W        W 8613  34.968  18.622   0.827
43354W        W 8614  36.798  13.636  13.035
43355W        W 8615  14.829  38.335  10.772
43356W        W 8616   9.703   3.275  11.145
43357W        W 8617  25.148  22.079   2.854
43358W        W 8618  13.862  24.527  12.390
43359W        W 8619  14.045  34.988   4.346
43360W        W 8620  26.729  27.606  12.423
43361W        W 8621  24.868  24.534   3.194
43362W        W 8622  34.068  17.069  12.007
43363W        W 8623  27.140  26.096   4.142
43364W        W 8624  39.550  24.867   4.154
43365W        W 8625  13.166  36.557   1.348
43366W        W 8626  18.473  23.594  12.049
43367W        W 8627  15.370  43.817  14.940
43368W        W 8628   2.947   1.540   4.940
43369W        W 8629  40.994   8.760   0.328
43370W        W 8630  44.059  38.547   3.839
43371W        W 8631  41.046  40.548   1.803
43372W        W 8632  22.257  33.406   5.104
43373W        W 8633  38.888  42.277   3.832
43374W        W 8634   2.406  21.017   2.776
43375W        W 8635  26.728  20.206  14.778
43376W        W 8636  18.680   3.117   3.705
43377W        W 8637  35.757  33.601  13.621
43378W        W 8638  26.355  15.737  11.320
43379W        W 8639  33.007  26.273  13.880
43380W        W 8640   6.707   6.775  11.270
43381W        W 8641  43.733  26.469  14.329
43382W        W 8642  10.891  27.043   0.411
43383W        W 8643  42.777  39.576  11.947
43384W        W 8644  42.072  31.949  12.440
43385W        W 8645  33.298  21.260  12.381
43386W        W 8646  17.633  43.873  12.557
43387W        W 8647  39.968  24.002  12.127
43388W        W 8648  18.848  33.306  14.198
43389W        W 8649  42.507  16.754   0.720
43390W        W 8650  39.980  37.507   0.394
43391W        W 8651  10.045  40.132  11.136
43392W        W 8652  26.315  39.360  12.574
43393W        W 8653  35.496  12.814   0.252
43394W        W 8654  42.941   5.776  10.255
43395W        W 8655  25.982  34.613  12.401
43396W        W 8656  42.116  18.641   1.734
43397W        W 8657  34.162   2.913   4.674
43398W        W 8658  17.505  12.383  10.990
43399W        W 8659  41.583   1.518  11.482
43400W        W 8660   8.517  23.852  11.185
43401W        W 8661  36.117  41.361  13.718
43402W        W 8662   2.674   8.422   2.489
43403W        W 8663   3.235  33.406   4.261
43404W        W 8664  13.705  12.247   4.251
43405W        W 8665   3.975  31.328   1.989
43406W        W 8666  20.202  26.531  13.247
43407W        W 8667  23.983  17.744   2.827
43408W        W 8668   3.269  12.392   4.477
43409W        W 8669   8.851   7.649  14.439
43410W        W 8670   4.376  26.576  13.413
43411W        W 8671  11.533  44.193  11.579
43412W        W 8672  13.407  41.030   2.213
43413W        W 8673  29.598  33.905   1.689
43414W        W 8674  30.039  19.762  14.742
43415W        W 8675  20.561  40.288   3.261
43416W        W 8676  24.907   7.803  11.895
43417W        W 8677  20.458  34.027   3.275
43418W        W 8678  29.805  44.022   4.878
43419W        W 8679   7.649  42.187  14.437
43420W        W 8680   3.196  18.135  13.056
43421W        W 8681  43.939   8.913   0.279
43422W        W 8682  23.133  28.645   1.938
43423W        W 8683  40.937   3.057   5.009
43424W        W 8684  20.865  20.280   4.673
43425W        W 8685  14.646  24.638   2.272
43426W        W 8686  11.097  39.816   2.266
43427W        W 8687   6.276  22.168   4.411
43428W        W 8688  33.740  29.605  11.886
43429W        W 8689  17.111  13.942  14.541
43430W        W 8690  36.859   2.430   1.814
43431W        W 8691  30.637  44.936  11.456
43432W        W 8692  14.329  23.621  13.830
43433W        W 8693  10.948  20.769   4.854
43434W        W 8694  33.847  15.202  11.526
43435W        W 8695  43.818  16.626  14.539
43436W        W 8696  39.428   6.795   2.735
43437W        W 8697   2.433  18.509  11.187
43438W        W 8698  23.744  15.322   0.816
43439W        W 8699  20.981  42.755  14.012
43440W        W 8700   4.362   1.726   2.254
43441W        W 8701  23.025   9.759   0.658
43442W        W 8702  25.017  44.287  14.453
43443W        W 8703  19.580  28.832   4.322
43444W        W 8704   9.783  34.321   0.883
43445W        W 8705  27.195  16.343   3.754
43446W        W 8706  30.967  39.201  10.391
43447W        W 8707  18.006  32.624  11.871
43448W        W 8708  24.446  28.922   4.040
43449W        W 8709  31.505  23.953  13.772
43450W        W 8710  35.212  31.153  11.166
43451W        W 8711  31.335  24.654   3.336
43452W        W 8712  22.412  15.089   5.062
43453W        W 8713   4.416  35.402   3.853
43454W        W 8714  36.696  17.315   3.137
43455W        W 8715  16.107   2.654  11.105
43456W        W 8716  39.693  39.849  14.939
43457W        W 8717  22.154  44.431   2.074
43458W        W 8718  17.959   6.328   1.248
43459W        W 8719  44.856  19.686  11.500
43460W        W 8720  35.769  44.742  11.487
43461W        W 8721  38.939  44.282  12.394
43462W        W 8722  30.371  39.229   1.780
43463W        W 8723  17.536  36.557   1.428
43464W        W 8724   6.638  16.617   1.195
43465W        W 8725  23.012  32.909  10.542
43466W        W 8726  30.569  11.853  12.104
43467W        W 8727  20.241  31.698  14.856
43468W        W 8728   2.788  16.512  14.502
43469W        W 8729  29.692  21.555   0.931
43470W        W 8730  28.529  25.485   4.554
43471W        W 8731  14.176  14.914  11.237
43472W        W 8732  12.918   3.815  14.521
43473W        W 8733  40.874  43.759  13.515
43474W        W 8734   6.116  32.566   4.488
43475W        W 8735  32.504  26.521   0.983
43476W        W 8736  41.905   0.813   1.478
43477W        W 8737  37.720  41.881   4.141
43478W        W 8738  24.388  14.492  13.772
43479W        W 8739  26.717  39.572   2.853
43480W        W 8740  30.350  34.891  13.959
43481W        W 8741  34.462  11.735  11.500
43482W        W 8742   1.763  44.891   2.270
43483W        W 8743  40.266  19.221  13.403
43484W        W 8744  37.524  34.852   2.778
43485W        W 8745   0.494  26.192  14.329
43486W        W 8746  22.758   8.758  11.052
43487W        W 8747   7.754  34.429  13.344
43488W        W 8748  27.727  22.269   1.831
43489W        W 8749  40.103  34.553   2.882
43490W        W 8750  16.505  17.896  13.886
43491W        W 8751  20.074  18.619  14.795
43492W        W 8752  43.970  32.011   0.925
43493W        W 8753  32.661  24.443   3.600
43494W        W 8754  34.544  29.674   4.296
43495W        W 8755  37.384   1.951   0.342
43496W        W 8756  19.591  37.353  12.039
43497W        W 8757   7.561  17.256   4.544
43498W        W 8758  26.931  20.235   4.086
43499W        W 8759  29.696  43.605  14.453
43500W        W 8760  20.027  30.411  13.462
43501W        W 8761  43.591  26.452   3.356
43502W        W 8762   5.797  23.068   4.665
43503W        W 8763  40.522  17.188  10.724
43504W        W 8764  10.208  21.279   0.896
43505W        W 8765   2.040   0.908  11.680
43506W        W 8766  43.075  16.048  11.265
43507W        W 8767  16.740  20.578   1.776
43508W        W 8768   0.612   0.430   0.073
43509W        W 8769  25.711  21.447  12.428
43510W        W 8770  43.368  26.960   4.200
43511W        W 8771  28.161  44.792   2.294
43512W        W 8772  24.508  38.006  11.698
43513W        W 8773  37.884  11.612   3.348
43514W        W 8774  41.120  25.497  13.052
43515W        W 8775  42.499  14.591  12.487
43516W        W 8776  21.401  11.865  11.583
43517W        W 8777  41.465   4.273  14.008
43518W        W 8778  41.647   2.257  14.282
43519W        W 8779   3.879   1.992   1.394
43520W        W 8780   7.927  33.620   4.103
43521W        W 8781  20.187  37.060  11.090
43522W        W 8782  36.978  20.394  13.873
43523W        W 8783  44.120  41.956  11.611
43524W        W 8784  30.515   1.990   0.830
43525W        W 8785  36.600  16.771  13.205
43526W        W 8786  31.963   9.437   3.723
43527W        W 8787  34.584   8.174  12.567
43528W        W 8788  21.441  26.638  10.801
43529W        W 8789   6.333  36.907   1.387
43530W        W 8790  33.354  20.763  14.894
43531W        W 8791  31.624  29.260   1.107
43532W        W 8792   3.837  20.965  11.192
43533W        W 8793  37.252  17.798   3.639
43534W        W 8794  13.628  24.240   0.930
43535W        W 8795  29.413   4.300  11.715
43536W        W 8796  39.223   2.679  13.555
43537W        W 8797  44.862  37.898   4.266
43538W        W 8798  34.116  18.340  13.887
43539W        W 8799  34.573   9.712  11.055
43540W        W 8800  27.277  35.906  11.496
43541W        W 8801  41.479  13.184   4.602
43542W        W 8802   3.977  43.486   0.699
43543W        W 8803   6.275  23.604  10.221
43544W        W 8804  23.742  18.208   3.081
43545W        W 8805  21.077  30.561   3.044
43546W        W 8806   8.672  41.151   4.829
43547W        W 8807  13.554  38.907   2.602
43548W        W 8808  27.211  25.713   2.686
43549W        W 8809   1.953  32.304  11.551
43550W        W 8810  17.219  21.973  10.988
43551W        W 8811  42.906   7.415  14.419
43552W        W 8812  29.588  33.576   0.717
43553W        W 8813  19.031   4.668   5.129
43554W        W 8814  24.063  36.265  12.584
43555W        W 8815  35.364  13.111   1.174
43556W        W 8816  23.290   6.193   3.556
43557W        W 8817  33.006   5.091   0.394
43558W        W 8818   2.807  42.252  12.063
43559W        W 8819  43.525  37.971  14.878
43560W        W 8820   6.227  12.877   3.272
43561W        W 8821  44.355  21.207   1.386
43562W        W 8822   0.569  41.815  13.824
43563W        W 8823  21.953  22.645  14.357
43564W        W 8824   7.800  10.476  11.256
43565W        W 8825  40.444  42.862   0.556
43566W        W 8826  38.499   3.361  13.766
43567W        W 8827  23.296  20.125  12.417
43568W        W 8828  26.729  37.940  14.883
43569W        W 8829  41.995   2.868   0.976
43570W        W 8830  10.306  19.863   2.667
43571W        W 8831  42.399   8.031   1.056
43572W        W 8832  30.861   9.091   0.510
43573W        W 8833  30.563  40.806   2.252
43574W        W 8834  12.711  32.683  12.147
43575W        W 8835  43.161   7.896  13.474
43576W        W 8836   9.144  38.767   3.302
43577W        W 8837  33.013  28.983  12.417
43578W        W 8838   8.430  43.382  14.306
43579W        W 8839  22.006  13.267  13.871
43580W        W 8840  10.200   7.194   0.395
43581W        W 8841   3.653  24.146  13.887
43582W        W 8842   7.623  27.440  12.108
43583W        W 8843  25.193  37.824  13.596
43584W        W 8844   9.147  41.287  13.921
43585W        W 8845  34.034  36.189  11.539
43586W        W 8846  15.875   4.253  13.457
43587W        W 8847  27.508   7.024  13.304
43588W        W 8848  32.667  27.104   2.608
43589W        W 8849  27.724  19.655  12.660
43590W        W 8850  23.960  34.315  11.099
43591W        W 8851  32.034  37.325   2.148
43592W        W 8852  43.426  35.054  14.815
43593W        W 8853  43.224  34.012   2.946
43594W        W 8854  23.075  24.516   0.794
43595W        W 8855  25.095  40.204  12.625
43596W        W 8856   4.273  28.505   4.187
43597W        W 8857  31.034  28.665  13.454
43598W        W 8858   9.344  42.859   2.844
43599W        W 8859  43.115  22.245   1.626
43600W        W 8860  11.810  31.965   2.691
43601W        W 8861   5.611  42.226  13.036
43602W        W 8862  37.204  17.031   0.168
43603W        W 8863   8.611  22.125   4.599
43604W        W 8864  26.048  32.337   2.374
43605W        W 8865  26.761  12.115  11.375
43606W        W 8866   4.008  13.097  14.923
43607W        W 8867  42.826  24.452   4.322
43608W        W 8868  17.723  12.624   1.324
43609W        W 8869   3.123  31.972   1.134
43610W        W 8870  29.044  33.712   2.385
43611W        W 8871  11.425  35.829   4.918
43612W        W 8872  35.467   7.921  13.582
43613W        W 8873  40.767  39.455   3.373
43614W        W 8874  36.937  31.331   0.451
43615W        W 8875  28.855   4.979   1.358
43616W        W 8876  20.534  13.642  11.977
43617W        W 8877  43.987  21.276  13.526
43618W        W 8878  13.871   7.525   5.261
43619W        W 8879   8.758   1.706  13.557
43620W        W 8880  43.233  26.055  14.447
43621W        W 8881  24.701  13.143  13.419
43622W        W 8882  37.784   6.504   3.104
43623W        W 8883  13.102   3.694   2.741
43624W        W 8884   4.453  18.122   0.925
43625W        W 8885   5.517  36.543   0.469
43626W        W 8886   2.652  13.189  11.540
43627W        W 8887   1.278   6.866   4.295
43628W        W 8888  13.794  22.675  11.871
43629W        W 8889   2.188  38.403  13.035
43630W        W 8890   8.250  42.456  13.827
43631W        W 8891  14.091  26.303  11.487
43632W        W 8892  26.548  24.279  13.850
43633W        W 8893  12.173  43.930  10.960
43634W        W 8894  23.667  30.878   3.345
43635W        W 8895  20.045   5.171   2.373
43636W        W 8896  26.213  35.493   1.292
43637W        W 8897  36.288  10.923  11.648
43638W        W 8898  21.223   0.346   2.221
43639W        W 8899  37.415  28.440   4.368
43640W        W 8900  31.208  38.861   1.358
43641W        W 8901  21.178  32.647   3.262
43642W        W 8902  36.575  17.297  11.006
43643W        W 8903  29.925  39.864  13.031
43644W        W 8904  29.201  43.429   1.614
43645W        W 8905  17.246  26.135   4.723
43646W        W 8906  30.064  38.394  11.807
43647W        W 8907  40.341  10.784  14.333
43648W        W 8908  28.407  18.739  13.320
43649W        W 8909  27.635  27.031  14.972
43650W        W 8910  24.616   4.229  12.318
43651W        W 8911  25.710  31.120  14.403
43652W        W 8912   4.828  35.373   4.911
43653W        W 8913  23.552  20.432   2.191
43654W        W 8914  32.887   9.677  12.521
43655W        W 8915  39.927  20.656   2.749
43656W        W 8916  12.353  26.050   9.948
43657W        W 8917   3.894  31.878  11.153
43658W        W 8918   7.261   8.881   2.118
43659W        W 8919  28.160  27.750   2.634
43660W        W 8920  19.584  10.580   0.246
43661W        W 8921  28.492  16.791  10.585
43662W        W 8922  10.678  29.693  13.434
43663W        W 8923   6.219  38.558   5.111
43664W        W 8924  24.628  35.803   2.400
43665W        W 8925  34.445  36.151  11.198
43666W        W 8926  16.800  21.234   1.317
43667W        W 8927  42.613  29.247   2.829
43668W        W 8928  40.964   6.856   2.266
43669W        W 8929  15.350  33.044  12.067
43670W        W 8930  43.242  21.498  12.475
43671W        W 8931  25.726  31.609   3.491
43672W        W 8932  30.559  13.163   4.597
43673W        W 8933  40.449  18.516  11.595
43674W        W 8934  38.112  32.412  11.387
43675W        W 8935   4.669  21.850  10.686
43676W        W 8936  10.924  42.957  11.502
43677W        W 8937  24.021  33.433   1.871
43678W        W 8938  32.528  42.144   0.345
43679W        W 8939  40.009  14.901   2.888
43680W        W 8940   0.587  32.002   1.783
43681W        W 8941   7.520  16.522   3.830
43682W        W 8942  34.170  31.347  14.300
43683W        W 8943  44.381  43.903  13.718
43684W        W 8944  43.921  10.541  11.247
43685W        W 8945  17.105  29.887   5.004
43686W        W 8946  10.178  21.668   0.493
43687W        W 8947   8.505   6.786   0.916
43688W        W 8948  10.263  42.818   0.013
43689W        W 8949  16.184  17.816  11.137
43690W        W 8950   4.150  34.740  11.485
43691W        W 8951  37.804  29.069   2.377
43692W        W 8952  28.918  33.907   2.862
43693W        W 8953  35.350  18.442   4.490
43694W        W 8954  20.022  43.889  14.409
43695W        W 8955   4.372  34.522  14.693
43696W        W 8956   8.827  21.056   2.338
43697W        W 8957  32.985  34.009   0.039
43698W        W 8958  15.628  29.501   5.185
43699W        W 8959  14.760  40.721   4.392
43700W        W 8960  20.677  26.356  13.956
43701W        W 8961  39.516   1.161  14.498
43702W        W 8962   5.778  14.062  10.663
43703W        W 8963  43.377   6.264   1.246
43704W        W 8964  35.344  32.660   3.805
43705W        W 8965  12.544  13.166  12.870
43706W        W 8966  30.870  14.304   3.346
43707W        W 8967  36.352   4.792   2.286
43708W        W 8968  30.802   3.257   4.549
43709W        W 8969  26.092  21.662   3.267
43710W        W 8970   7.331  18.039  11.175
43711W        W 8971   5.413  21.031  11.597
43712W        W 8972  32.121  32.320  12.155
43713W        W 8973  35.786  16.261  14.710
43714W        W 8974  32.535   2.046   3.705
43715W        W 8975  35.166   5.442   3.402
43716W        W 8976  35.518   8.678   0.377
43717W        W 8977  36.311  38.590  13.161
43718W        W 8978  21.121  23.955   2.723
43719W        W 8979  35.859  44.029  14.434
43720W        W 8980  36.834   8.752   4.390
43721W        W 8981  42.221  10.177   4.329
43722W        W 8982  26.055  38.195  11.257
43723W        W 8983  12.631  33.100   4.738
43724W        W 8984  28.411  25.629  13.369
43725W        W 8985  32.892  34.023  14.507
43726W        W 8986  27.178  38.041  10.728
43727W        W 8987   0.797  38.669  13.577
43728W        W 8988  44.086  25.622  13.430
43729W        W 8989  40.791  18.541  14.762
43730W        W 8990  40.662  31.956  10.732
43731W        W 8991   1.509  35.492  14.745
43732W        W 8992  15.491  19.701  10.494
43733W        W 8993  20.131  15.206   0.442
43734W        W 8994  25.037  25.579  12.400
43735W        W 8995  35.409  24.984   2.679
43736W        W 8996  34.125  36.076   3.210
43737W        W 8997  24.599   0.373  12.889
43738W        W 8998  12.666  15.529   0.841
43739W        W 8999  21.100  13.051  12.893
43740W        W 9000  37.011  19.885   4.300
43741W        W 9001  12.168  39.770   2.744
43742W        W 9002  17.716  43.398  14.333
43743W        W 9003  41.959  22.095  14.497
43744W        W 9004  39.345  23.283   1.350
43745W        W 9005  39.794   4.452   1.697
43746W        W 9006  24.689  42.113   0.171
43747W        W 9007   9.635  13.729  12.869
43748W        W 9008  11.715  44.709  14.775
43749W        W 9009  22.208   8.618  14.765
43750W        W 9010  21.495  19.103   3.571
43751W        W 9011  24.287  20.553  13.207
43752W        W 9012  29.419   1.385   1.296
43753W        W 9013   0.063   0.932  14.046
43754W        W 9014   2.033   0.684   1.710
43755W        W 9015   4.874  11.615  11.229
43756W        W 9016   4.058   0.692  14.259
43757W        W 9017  34.997  34.385  10.717
43758W        W 9018   7.982  26.646  14.321
43759W        W 9019   8.389  25.032  14.329
43760W        W 9020  20.593  16.656  11.309
43761W        W 9021  13.899  21.573   4.543
43762W        W 9022  31.464  17.174   0.553
43763W        W 9023  12.457   2.500   0.345
43764W        W 9024   8.300  35.377   2.055
43765W        W 9025  12.556   2.278  14.048
43766W        W 9026   3.062  31.043   2.188
43767W        W 9027  40.506  42.012  10.800
43768W        W 9028  31.998  36.935  11.220
43769W        W 9029  11.902  41.755  11.894
43770W        W 9030   5.014  15.222  10.215
43771W        W 9031  18.746  34.526   4.799
43772W        W 9032  16.484  13.490   2.962
43773W        W 9033   3.077  12.564   0.489
43774W        W 9034  15.643  12.771  12.237
43775W        W 9035  20.245  28.222   4.786
43776W        W 9036  42.731  35.870  10.401
43777W        W 9037  41.067  28.494  10.696
43778W        W 9038  11.289  26.623  11.664
43779W        W 9039  44.066  28.189   0.738
43780W        W 9040  38.783  42.361   4.679
43781W        W 9041   3.212  20.020  14.057
43782W        W 9042   4.320   7.246   3.144
43783W        W 9043  27.130   1.739   4.494
43784W        W 9044  37.360  43.002  14.716
43785W        W 9045  11.339  38.091  14.951
43786W        W 9046  22.602  34.629  14.902
43787W        W 9047  28.600  34.846  12.116
43788W        W 9048  31.873  35.927  12.531
43789W        W 9049  37.835  11.747  12.895
43790W        W 9050  23.845  13.667  12.346
43791W        W 9051  10.462  37.854  11.069
43792W        W 9052  14.920  41.091  13.796
43793W        W 9053  37.866  43.804  10.991
43794W        W 9054  44.642   6.479   3.841
43795W        W 9055  40.955   2.642  11.603
43796W        W 9056  33.508  22.261   0.803
43797W        W 9057  43.087  11.448   1.918
43798W        W 9058   7.941   4.693  11.137
43799W        W 9059  17.260  39.372  13.451
43800W        W 9060   5.826  16.818   4.484
43801W        W 9061  16.830  12.617  11.184
43802W        W 9062  11.658   6.181   4.752
43803W        W 9063  44.683  14.196  11.723
43804W        W 9064  31.734  31.495   1.944
43805W        W 9065  36.323  42.420   1.773
43806W        W 9066  42.754  31.589   0.403
43807W        W 9067  15.736  24.592   3.068
43808W        W 9068  25.184  13.579  12.233
43809W        W 9069  44.599  27.970  14.570
43810W        W 9070  15.733  35.550   1.599
43811W        W 9071  41.935  29.457   3.872
43812W        W 9072  39.914   3.952   3.091
43813W        W 9073  40.572  34.054  11.652
43814W        W 9074   7.168  41.900  12.436
43815W        W 9075  28.144  39.422   4.626
43816W        W 9076   1.788   6.377   4.740
43817W        W 9077  21.272   4.013   1.315
43818W        W 9078  34.440  32.564   0.900
43819W        W 9079  39.632  27.964  14.025
43820W        W 9080  41.968  31.444  14.745
43821W        W 9081  15.620  17.838   1.086
43822W        W 9082  11.213  33.909   3.569
43823W        W 9083   5.068  12.692   4.642
43824W        W 9084  27.712   7.545  11.913
43825W        W 9085  16.238   4.882  14.015
43826W        W 9086  31.000  35.161   4.023
43827W        W 9087  35.988  44.518  14.553
43828W        W 9088  44.889  38.101  12.036
43829W        W 9089  17.440  33.230   0.482
43830W        W 9090  37.440  29.146  12.954
43831W        W 9091   3.474  13.262  11.531
43832W        W 9092   3.531  28.779   2.750
43833W        W 9093  40.514   0.367   0.713
43834W        W 9094  25.797   5.741  10.613
43835W        W 9095  30.501  35.399  13.992
43836W        W 9096  43.816  42.557  13.411
43837W        W 9097   5.389  34.671  14.487
43838W        W 9098  41.414   7.489  14.865
43839W        W 9099  28.876   5.292  10.987
43840W        W 9100  25.638  16.341  11.869
43841W        W 9101  19.755  12.385   1.879
43842W        W 9102  41.936   0.046   2.365
43843W        W 9103  28.377  22.750  12.078
43844W        W 9104  24.093  34.553   4.825
43845W        W 9105  33.415  41.068   0.280
43846W        W 9106  25.486   8.652  12.659
43847W        W 9107  40.465  18.270   4.978
43848W        W 9108  34.909  32.078   2.724
43849W        W 9109  24.300   4.325   0.786
43850W        W 9110   0.587   9.848  14.132
43851W        W 9111  30.850  35.156   3.534
43852W        W 9112  35.237  38.776  10.336
43853W        W 9113  15.736  29.494   2.411
43854W        W 9114  30.927  35.196  14.920
43855W        W 9115  11.463  15.773  12.710
43856W        W 9116  27.011  11.831  12.996
43857W        W 9117  22.194  14.622   2.718
43858W        W 9118  42.817  36.154   4.487
43859W        W 9119  40.965   6.667   3.808
43860W        W 9120  39.698  33.341   4.017
43861W        W 9121   8.117  14.775   0.410
43862W        W 9122  31.864  17.112  13.550
43863W        W 9123  25.480  29.562   0.930
43864W        W 9124  10.510   1.348  14.076
43865W        W 9125  14.742  23.549   3.723
43866W        W 9126  15.425  27.198  10.818
43867W        W 9127   1.665   2.552   1.908
43868W        W 9128   3.812   7.182  11.955
43869W        W 9129  20.588  33.488   4.138
43870W        W 9130   1.885  36.337  13.831
43871W        W 9131  44.923  27.848   0.559
43872W        W 9132  21.323  32.299  11.046
43873W        W 9133  36.978  38.343  12.499
43874W        W 9134  26.573  36.283  11.823
43875W        W 9135   4.682   6.863  10.992
43876W        W 9136   5.755   6.220   5.088
43877W        W 9137  20.714  13.178  13.231
43878W        W 9138  44.327  14.345   5.317
43879W        W 9139  17.212  38.546   3.759
43880W        W 9140  29.086   5.714   3.767
43881W        W 9141  30.765   5.764  12.738
43882W        W 9142  38.558  22.764  10.919
43883W        W 9143  22.102  19.140   1.766
43884W        W 9144  17.287   3.414  10.805
43885W        W 9145   1.978  43.227  13.492
43886W        W 9146  41.949  36.435   4.808
43887W        W 9147  12.409  17.061  12.422
43888W        W 9148  11.281  36.341  12.585
43889W        W 9149  11.697   8.117  11.937
43890W        W 9150  40.031  44.318   0.703
43891W        W 9151   4.155  24.043   1.877
43892W        W 9152  29.555  35.456   1.986
43893W        W 9153  41.801  18.861   2.075
43894W        W 9154  42.688  35.198   0.373
43895W        W 9155  30.932  31.449  12.807
43896W        W 9156  44.070   8.285   3.469
43897W        W 9157   1.775  19.329  11.249
43898W        W 9158  17.242  22.423  13.357
43899W        W 9159   8.650  16.850  10.409
43900W        W 9160   7.507  31.741   0.780
43901W        W 9161  33.478  38.468   2.638
43902W        W 9162  30.543  36.932  14.724
43903W        W 9163  43.495  12.810   2.416
43904W        W 9164  40.554  26.432  13.717
43905W        W 9165  13.333  30.961  10.714
43906W        W 9166  26.157  21.411  12.172
43907W        W 9167  37.874   7.102  13.021
43908W        W 9168  13.172  39.662   3.233
43909W        W 9169  15.105  42.439   0.770
43910W        W 9170  25.473  12.315   3.654
43911W        W 9171  31.725  16.083  11.889
43912W        W 9172  44.030  31.550  11.590
43913W        W 9173  41.890  43.623   2.620
43914W        W 9174  29.153  38.917  14.009
43915W        W 9175  34.868  24.077  10.911
43916W        W 9176  44.919  30.632  12.762
43917W        W 9177   7.323  27.911  13.004
43918W        W 9178   6.700   4.446   3.755
43919W        W 9179   2.468  10.190  12.873
43920W        W 9180  14.731  23.343   1.320
43921W        W 9181  30.581   4.025  14.142
43922W        W 9182  33.896   5.482   2.656
43923W        W 9183  16.879  33.997  14.879
43924W        W 9184  25.943   8.522  14.250
43925W        W 9185  19.249  27.868   4.373
43926W        W 9186  29.389   5.766   2.181
43927W        W 9187   5.871  33.042   4.570
43928W        W 9188  25.453  11.860   3.866
43929W        W 9189  40.888  27.573   5.042
43930W        W 9190  28.407  25.097  12.132
43931W        W 9191  28.123  11.167   2.461
43932W        W 9192  38.649   1.268  13.479
43933W        W 9193  38.136  35.899   3.233
43934W        W 9194  20.799  26.636  11.585
43935W        W 9195  36.887   6.404   4.105
43936W        W 9196  30.113  13.761  12.973
43937W        W 9197  37.326  34.901   4.620
43938W        W 9198  24.130   8.525  10.579
43939W        W 9199  16.243  24.716   2.929
43940W        W 9200   7.001  37.402  14.814
43941W        W 9201  44.300   3.043  10.318
43942W        W 9202  25.512   7.178  11.865
43943W        W 9203   6.144  24.434  14.421
43944W        W 9204  13.681  31.984  13.863
43945W        W 9205  37.880  17.768  10.809
43946W        W 9206   3.262   2.259   2.643
43947W        W 9207  29.141  31.938  11.413
43948W        W 9208  33.852   9.599   0.016
43949W        W 9209  31.025  20.994   2.857
43950W        W 9210  42.857  32.600   0.158
43951W        W 9211  16.761  16.732  14.783
43952W        W 9212   6.993   6.404  11.011
43953W        W 9213  35.103  29.473  12.485
43954W        W 9214   4.965  43.305  11.969
43955W        W 9215  12.774  16.163  14.248
43956W        W 9216  32.086  35.911   0.867
43957W        W 9217  40.507   2.150  12.523
43958W        W 9218  39.040  18.022  11.089
43959W        W 9219  39.369  42.977  14.017
43960W        W 9220  43.155  14.645   2.194
43961W        W 9221   8.090  38.649  12.412
43962W        W 9222  42.056  13.255   1.846
43963W        W 9223  29.603  39.242   4.375
43964W        W 9224  40.969   2.369  14.887
43965W        W 9225  16.196  29.132   1.106
43966W        W 9226  16.901  20.258   3.218
43967W        W 9227  42.851   2.797  10.659
43968W        W 9228  40.894  24.977  11.130
43969W        W 9229  17.268   1.264   4.094
43970W        W 9230  28.107   2.332   1.379
43971W        W 9231  37.878   8.345  14.350
43972W        W 9232  10.540  27.706  12.623
43973W        W 9233  31.504  31.008  11.353
43974W        W 9234  19.184  20.478  13.013
43975W        W 9235   7.596  35.281   2.415
43976W        W 9236  29.888   1.353  14.420
43977W        W 9237  34.027  41.342  12.613
43978W        W 9238  36.368   9.465   4.832
43979W        W 9239  10.849  29.485  12.962
43980W        W 9240  16.669  11.369  10.656
43981W        W 9241  18.604   7.660  12.327
43982W        W 9242  27.201  17.875   2.197
43983W        W 9243  11.441   3.836   3.544
43984W        W 9244  33.512  36.762  14.875
43985W        W 9245  29.347  31.303   0.843
43986W        W 9246  23.818  29.005  12.971
43987W        W 9247  31.814  43.457  13.521
43988W        W 9248   4.371  14.592  13.907
43989W        W 9249  31.116  42.982  10.654
43990W        W 9250  35.028  22.264   1.377
43991W        W 9251  26.343   5.742   1.414
43992W        W 9252  18.702  34.658   3.812
43993W        W 9253  43.675  11.818  14.360
43994W        W 9254  26.724  24.579  13.363
43995W        W 9255   9.482  13.949   2.363
43996W        W 9256  41.698  34.828  11.681
43997W        W 9257   1.373  39.665  11.570
43998W        W 9258  14.151  21.700   1.175
43999W        W 9259  15.547  17.046   3.661
44000W        W 9260  41.608  13.803  13.581
44001W        W 9261  17.495  22.171   3.804
44002W        W 9262  23.612  13.525   0.052
44003W        W 9263   7.309  37.578   1.467
44004W        W 9264  30.987  36.097  10.715
44005W        W 9265  20.462  22.229   2.727
44006W        W 9266  27.160   4.204   2.478
44007W        W 9267  14.705  32.231  14.513
44008W        W 9268   1.668  43.815   0.914
44009W        W 9269  13.844  23.750  12.945
44010W        W 9270  24.020   8.580  14.280
44011W        W 9271   5.900  24.298   3.282
44012W        W 9272  30.046   0.225   3.800
44013W        W 9273  17.760  11.577   4.362
44014W        W 9274   0.117  32.026  11.190
44015W        W 9275  11.279  40.810   1.222
44016W        W 9276  35.379  11.325   3.953
44017W        W 9277  25.699  42.966   0.272
44018W        W 9278  29.944  31.884   1.753
44019W        W 9279   0.941  17.864  12.120
44020W        W 9280   1.445  33.134  10.915
44021W        W 9281  20.521  32.687   0.284
44022W        W 9282  16.675  40.047   0.833
44023W        W 9283  41.985  43.075   0.340
44024W        W 9284   8.869  43.636  10.733
44025W        W 9285  20.618  33.588  10.434
44026W        W 9286  16.604  16.220   2.719
44027W        W 9287  22.546  15.366  12.485
44028W        W 9288  26.792   3.618  11.875
44029W        W 9289   6.548  20.695   4.746
44030W        W 9290  17.760  44.309   2.093
44031W        W 9291  34.081  27.537  12.556
44032W        W 9292  43.497  22.077  14.415
44033W        W 9293  31.633  36.130   1.013
44034W        W 9294  20.343  40.050  12.942
44035W        W 9295  13.357  30.711  11.587
44036W        W 9296  42.520  30.617  13.413
44037W        W 9297  18.104  21.463  12.966
44038W        W 9298  14.664  20.963  13.714
44039W        W 9299   5.856  22.159   4.722
44040W        W 9300   5.573   9.715   3.171
44041W        W 9301  25.475   9.267   4.313
44042W        W 9302  30.142  43.777   1.331
44043W        W 9303  38.504  11.330   3.767
44044W        W 9304  34.112  20.456   0.733
44045W        W 9305  17.295   8.880   2.695
44046W        W 9306   5.360  11.238  10.195
44047W        W 9307   3.873  15.772   1.231
44048W        W 9308  18.372  29.399  14.683
44049W        W 9309   4.610   7.137  12.899
44050W        W 9310  20.759  43.758  11.173
44051W        W 9311  25.906  23.548  10.719
44052W        W 9312  32.553  40.081   0.027
44053W        W 9313   2.878  18.590   2.707
44054W        W 9314  20.723  41.021   2.643
44055W        W 9315  27.463  34.359   2.137
44056W        W 9316  27.646   1.404  12.615
44057W        W 9317   4.969  10.174  14.976
44058W        W 9318   2.021  28.293  11.016
44059W        W 9319  14.881  15.091  11.931
44060W        W 9320  28.698  40.475   3.225
44061W        W 9321  24.555   2.300  13.516
44062W        W 9322  13.114  31.717   4.808
44063W        W 9323  43.482  30.012  12.076
44064W        W 9324  38.732  31.954  14.212
44065W        W 9325  21.630  44.327   3.691
44066W        W 9326  26.179  27.846   0.791
44067W        W 9327  15.556   0.364  11.512
44068W        W 9328  17.821  18.663  10.281
44069W        W 9329  18.303  17.916   2.751
44070W        W 9330  18.630   7.892   2.288
44071W        W 9331  12.197  27.742   4.795
44072W        W 9332  18.749  37.791  13.960
44073W        W 9333  25.948  28.372   2.214
44074W        W 9334   6.956  14.092  12.525
44075W        W 9335  37.552  34.557  14.314
44076W        W 9336   9.907  42.632   1.221
44077W        W 9337  17.108  25.957   2.431
44078W        W 9338  30.182   9.475   2.668
44079W        W 9339  28.407  27.136  14.547
44080W        W 9340   1.848  23.938  10.511
44081W        W 9341  44.367   3.968  14.579
44082W        W 9342  19.309  19.300   1.847
44083W        W 9343  10.282   3.258  13.365
44084W        W 9344   1.233   2.431   4.752
44085W        W 9345   0.485   8.574  11.482
44086W        W 9346   1.960   2.172   0.306
44087W        W 9347  28.899  14.279  10.981
44088W        W 9348  29.675  17.642   0.593
44089W        W 9349   1.256  40.307  14.335
44090W        W 9350  42.018  25.504   1.684
44091W        W 9351  20.427  37.389   2.255
44092W        W 9352  35.394  10.131   3.078
44093W        W 9353  19.804  18.660   2.328
44094W        W 9354  26.438   8.422   3.763
44095W        W 9355  18.145  17.092  12.561
44096W        W 9356  16.119  43.643  11.504
44097W        W 9357  21.145  27.050  14.092
44098W        W 9358   0.816  15.875   0.339
44099W        W 9359   4.971  37.294   3.238
44100W        W 9360  24.504   2.802   4.196
44101W        W 9361  42.313   9.326   1.675
44102W        W 9362  18.700  36.959  11.555
44103W        W 9363  37.679  14.342   0.301
44104W        W 9364  38.481   5.920   0.962
44105W        W 9365  15.658  17.913  14.025
44106W        W 9366  14.590   6.692   1.312
44107W        W 9367   4.190   6.321   4.598
44108W        W 9368   0.459   8.844   4.927
44109W        W 9369  17.590  29.626   3.665
44110W        W 9370  38.061  37.613   1.191
44111W        W 9371  13.323  20.730  14.484
44112W        W 9372  28.741  22.578   2.763
44113W        W 9373  21.997   6.474  10.564
44114W        W 9374  10.194  37.077  14.932
44115W        W 9375  20.525   2.573  12.433
44116W        W 9376   3.862  20.314  11.900
44117W        W 9377  41.891  11.843  12.734
44118W        W 9378   8.847  12.143   1.355
44119W        W 9379  10.879  33.486   0.401
44120W        W 9380  44.837   8.245  10.860
44121W        W 9381  24.986  29.356   2.723
44122W        W 9382  15.813  30.105   4.001
44123W        W 9383  36.977  24.967  12.972
44124W        W 9384   9.120   4.792  13.277
44125W        W 9385   7.593  29.090  12.567
44126W        W 9386  14.919  29.615   2.445
44127W        W 9387  31.362   2.332  13.059
44128W        W 9388  29.477  27.297   1.410
44129W        W 9389  29.960  10.326  12.623
44130W        W 9390  22.135  43.338  12.553
44131W        W 9391   4.213  22.207   0.712
44132W        W 9392  25.524  37.410  13.492
44133W        W 9393  44.538  33.968   3.271
44134W        W 9394   8.057  42.403  12.468
44135W        W 9395  33.991   2.754  12.087
44136W        W 9396   9.482   4.823   1.736
44137W        W 9397  43.606  27.921  11.264
44138W        W 9398  40.700  28.586  13.411
44139W        W 9399  18.633   6.259  12.421
44140W        W 9400   3.231  30.127   0.817
44141W        W 9401  10.623  13.366   0.851
44142W        W 9402   5.991  17.540   0.236
44143W        W 9403  42.997  42.808  10.445
44144W        W 9404  19.767  26.471   0.263
44145W        W 9405   0.958  29.480  13.954
44146W        W 9406  14.844  23.708  11.085
44147W        W 9407  15.705  37.234   4.216
44148W        W 9408  35.469   8.920   2.700
44149W        W 9409  41.945  36.682   1.906
44150W        W 9410  34.032  23.084  14.519
44151W        W 9411  41.850   2.991  10.705
44152W        W 9412   5.110   3.734  12.985
44153W        W 9413  12.247  34.943   4.675
44154W        W 9414  43.378  22.670  10.136
44155W        W 9415  24.463   8.231   4.526
44156W        W 9416  13.404  29.482  12.463
44157W        W 9417   8.284  16.873   3.333
44158W        W 9418  37.533  44.966  11.281
44159W        W 9419   5.313  25.736   0.513
44160W        W 9420  19.301  14.699   2.398
44161W        W 9421  36.369   8.798  14.942
44162W        W 9422   4.468   9.727  12.672
44163W        W 9423  29.750  23.263   1.415
44164W        W 9424  41.542  32.319  12.951
44165W        W 9425  33.567   8.821   0.585
44166W        W 9426  37.779   5.124  12.513
44167W        W 9427  10.191   9.092   5.414
44168W        W 9428  25.115   2.778   2.031
44169W        W 9429   5.882  17.420  13.512
44170W        W 9430  21.779  21.158   0.418
44171W        W 9431  39.328  31.689  10.840
44172W        W 9432  36.970  43.193   0.312
44173W        W 9433  34.311  13.989   2.967
44174W        W 9434   6.855  44.479   3.693
44175W        W 9435  28.710  38.577   4.817
44176W        W 9436   9.416  41.427   0.724
44177W        W 9437  23.060   0.390   1.282
44178W        W 9438  33.779  21.598   3.347
44179W        W 9439  32.218  41.575  13.920
44180W        W 9440  11.524  17.753   2.783
44181W        W 9441  25.776  14.921  13.474
44182W        W 9442   7.597  16.204   4.753
44183W        W 9443  40.979   8.759   2.780
44184W        W 9444  10.736   4.329  14.237
44185W        W 9445   1.304  43.106   1.378
44186W        W 9446  16.092  21.225   4.229
44187W        W 9447   5.872  21.456  12.868
44188W        W 9448  20.534   7.886  14.747
44189W        W 9449  30.752  23.634  10.709
44190W        W 9450  37.249  17.041  12.023
44191W        W 9451  31.098   2.393  11.478
44192W        W 9452  40.229  40.923   1.480
44193W        W 9453  19.731   4.322  14.059
44194W        W 9454  21.093  37.058   1.217
44195W        W 9455  32.591   3.172  14.442
44196W        W 9456   0.402  28.513   2.944
44197W        W 9457  12.590  10.834  13.933
44198W        W 9458  23.518  17.194   0.409
44199W        W 9459  25.734   8.134  13.950
44200W        W 9460  40.943   9.690   4.131
44201W        W 9461  13.553  10.754  14.350
44202W        W 9462   1.612  28.676  13.402
44203W        W 9463  10.540  20.397  11.177
44204W        W 9464   2.797  25.420   2.431
44205W        W 9465  26.048   6.426  11.727
44206W        W 9466  20.264  38.770  11.470
44207W        W 9467  18.045  34.453   3.116
44208W        W 9468  28.563  41.560  11.863
44209W        W 9469  44.495  21.119  13.521
44210W        W 9470  44.276  11.379   1.252
44211W        W 9471  43.038  17.990   1.743
44212W        W 9472  12.677  12.234  10.349
44213W        W 9473  33.798  43.399  12.631
44214W        W 9474   9.227  37.277  11.138
44215W        W 9475   4.962   9.937   2.363
44216W        W 9476  20.139   2.239  12.469
44217W        W 9477  12.923  21.081   2.634
44218W        W 9478  14.455  24.830   1.822
44219W        W 9479  15.109  14.917  13.440
44220W        W 9480  13.197  21.714   4.023
44221W        W 9481   5.925   7.258   2.106
44222W        W 9482  34.452  26.100  13.906
44223W        W 9483  29.568  24.805  13.387
44224W        W 9484  18.081  25.243   3.296
44225W        W 9485   4.184  30.555   1.715
44226W        W 9486  26.039  16.308  13.354
44227W        W 9487  40.317  14.354  11.042
44228W        W 9488  28.234  24.273   3.217
44229W        W 9489  37.066  18.225  12.059
44230W        W 9490   6.598  43.252  12.045
44231W        W 9491   3.729  13.327  14.563
44232W        W 9492  30.615  33.822  14.249
44233W        W 9493  15.811  33.598   3.708
44234W        W 9494  13.146  22.636   3.171
44235W        W 9495  44.786  28.981   2.667
44236W        W 9496  26.683   9.705   3.246
44237W        W 9497  41.767  14.256   2.240
44238W        W 9498   6.188  38.448   4.053
44239W        W 9499  44.488  18.142  13.890
44240W        W 9500  11.342  14.356  13.119
44241W        W 9501  30.440   8.600   9.797
44242W        W 9502  28.485  32.992  11.986
44243W        W 9503  33.036  10.834  12.708
44244W        W 9504  14.477  22.153   3.959
44245W        W 9505   8.819  28.729  13.997
44246W        W 9506  40.528   2.667   5.097
44247W        W 9507   9.327  11.163  12.222
44248W        W 9508   3.177  34.346   0.762
44249W        W 9509   1.337  38.358   2.231
44250W        W 9510  29.569  38.194  13.508
44251W        W 9511  16.803  27.034   3.053
44252W        W 9512  42.156  29.840  13.534
44253W        W 9513  41.792  19.759   2.143
44254W        W 9514  17.634  24.889   4.149
44255W        W 9515   7.202  28.850   3.138
44256W        W 9516  21.206  34.452   2.366
44257W        W 9517   5.401  16.723  13.897
44258W        W 9518   6.195   5.901   3.217
44259W        W 9519  44.888  19.362  11.928
44260W        W 9520  35.423  43.830  14.634
44261W        W 9521  15.724  23.483  14.771
44262W        W 9522  29.671   0.288  14.834
44263W        W 9523  10.264   1.854  14.765
44264W        W 9524   4.062  11.106   1.831
44265W        W 9525  25.752  37.299   2.029
44266W        W 9526  22.204  12.057   2.300
44267W        W 9527  19.047   3.976  10.968
44268W        W 9528   5.244   7.299   4.058
44269W        W 9529  44.257  34.367  14.023
44270W        W 9530   0.208  40.925   4.828
44271W        W 9531   4.202  20.420  13.949
44272W        W 9532  41.264  34.955   1.380
44273W        W 9533   1.473  41.458   1.981
44274W        W 9534   3.487   8.063  13.768
44275W        W 9535  40.169  37.067   0.688
44276W        W 9536  33.979   2.737  10.621
44277W        W 9537  38.194  41.305   2.410
44278W        W 9538  19.825  36.368   3.935
44279W        W 9539  37.320  42.513  13.923
44280W        W 9540   9.552  15.363   2.364
44281W        W 9541  30.953   9.267  11.858
44282W        W 9542   3.641  14.377   4.534
44283W        W 9543  20.366  16.117  12.381
44284W        W 9544  20.995   6.829  11.301
44285W        W 9545  38.790  34.038  13.944
44286W        W 9546  31.110   4.838  10.606
44287W        W 9547  35.094  28.396   2.645
44288W        W 9548  22.079   3.019   2.257
44289W        W 9549  34.497  15.011   0.243
44290W        W 9550  21.945  15.479   0.657
44291W        W 9551  32.620  24.283  12.076
44292W        W 9552  23.660  32.466   2.491
44293W        W 9553   5.937  26.495  13.504
44294W        W 9554   9.392   4.246  12.585
44295W        W 9555  44.503   7.320  14.009
44296W        W 9556  21.260   9.736  11.907
44297W        W 9557  39.155  44.926  12.882
44298W        W 9558  36.353  33.584  14.370
44299W        W 9559  28.496  39.398  10.464
44300W        W 9560  32.079  33.899  10.515
44301W        W 9561   7.266   8.399   0.714
44302W        W 9562  31.613  11.766   4.124
44303W        W 9563  14.292   6.891  11.795
44304W        W 9564  28.543  23.704   1.863
44305W        W 9565  20.269  27.970   2.851
44306W        W 9566  20.360   7.402  11.568
44307W        W 9567  25.226  37.026  11.146
44308W        W 9568  11.336  34.004   0.828
44309W        W 9569  42.936  37.669  11.122
44310W        W 9570  27.165   6.552  11.147
44311W        W 9571  10.135  41.657  11.137
44312W        W 9572   9.408  17.216  11.129
44313W        W 9573   9.135  15.728   3.201
44314W        W 9574  24.794  31.598   4.262
44315W        W 9575  17.938  19.625   3.205
44316W        W 9576  17.745  41.010   1.315
44317W        W 9577  20.345   6.956  13.345
44318W        W 9578  14.663  28.756  14.063
44319W        W 9579  40.926  32.724   0.393
44320W        W 9580  14.739  31.017   4.461
44321W        W 9581   4.215  22.452  11.071
44322W        W 9582  35.866  30.879   1.887
44323W        W 9583  18.059   5.158   2.271
44324W        W 9584  35.067   8.870  12.938
44325W        W 9585  30.577  13.185  11.640
44326W        W 9586   5.695  28.042  13.519
44327W        W 9587  35.091   8.632   4.545
44328W        W 9588  40.307  19.465  12.946
44329W        W 9589  36.896  39.622   2.230
44330W        W 9590  30.545   1.467   0.767
44331W        W 9591  38.826  34.870   4.586
44332W        W 9592  27.921  25.037   2.615
44333W        W 9593   9.805  11.606  11.989
44334W        W 9594  29.652  15.575  14.952
44335W        W 9595   3.540  21.318   2.850
44336W        W 9596  40.069  23.576  14.862
44337W        W 9597  34.502  11.321   0.410
44338W        W 9598  19.191   9.000  12.609
44339W        W 9599  22.244  34.902  10.239
44340W        W 9600  44.731  41.835  12.575
44341W        W 9601  38.152  31.581   4.135
44342W        W 9602   1.664  16.149   4.655
44343W        W 9603   5.206   7.447   0.889
44344W        W 9604  39.587  29.572   4.847
44345W        W 9605   3.360  25.650  13.013
44346W        W 9606  22.505  35.392   2.122
44347W        W 9607  33.705   6.747  13.007
44348W        W 9608  30.496   8.146  12.198
44349W        W 9609  34.065  37.882  14.429
44350W        W 9610  25.899  38.322   0.785
44351W        W 9611  25.442  41.031  12.469
44352W        W 9612  36.645   5.870   0.247
44353W        W 9613  13.749  44.404  12.600
44354W        W 9614   0.246  21.474   4.058
44355W        W 9615  44.379  39.946  12.331
44356W        W 9616  44.862   5.706  14.447
44357W        W 9617  19.056  33.442  14.657
44358W        W 9618  42.944   2.825   1.541
44359W        W 9619   0.455  33.591   0.974
44360W        W 9620   7.078  18.521   3.871
44361W        W 9621  40.010  38.539  11.564
44362W        W 9622   6.890  25.091   3.211
44363W        W 9623   9.842   1.863   3.811
44364W        W 9624  35.433   3.450   2.380
44365W        W 9625  19.200  42.019  10.685
44366W        W 9626   7.806  13.861  14.721
44367W        W 9627   9.884  12.728  13.819
44368W        W 9628   7.818   0.213  13.843
44369W        W 9629  21.945  17.779   0.426
44370W        W 9630  42.325  23.008   4.530
44371W        W 9631  10.349  20.501  13.879
44372W        W 9632  12.267  41.941   0.987
44373W        W 9633   3.970  28.628   2.937
44374W        W 9634  22.350  20.099  14.902
44375W        W 9635  11.874  44.492  11.285
44376W        W 9636  16.314  24.146   1.033
44377W        W 9637  17.115  43.240   4.712
44378W        W 9638  27.882   6.469   2.810
44379W        W 9639  27.677  17.984  11.025
44380W        W 9640   9.689  21.884   3.918
44381W        W 9641   4.655  24.129   0.733
44382W        W 9642  43.720  30.445  12.224
44383W        W 9643  22.758  16.964   2.172
44384W        W 9644  15.550  36.668   3.483
44385W        W 9645  25.719  27.784   3.468
44386W        W 9646   2.897  38.313   1.266
44387W        W 9647   8.154  24.448   1.299
44388W        W 9648  38.518  30.391  10.559
44389W        W 9649   4.347  43.613  12.256
44390W        W 9650  26.568  21.379  11.366
44391W        W 9651  21.561  42.912   1.517
44392W        W 9652  29.138   6.077   1.349
44393W        W 9653  21.480  21.027  10.405
44394W        W 9654  28.688   2.207  13.543
44395W        W 9655  41.536  37.593  11.001
44396W        W 9656  39.931  24.470   2.680
44397W        W 9657  28.420  38.822  11.494
44398W        W 9658  14.050  25.027   1.554
44399W        W 9659  13.226   4.449   2.323
44400W        W 9660  30.681  36.794  11.992
44401W        W 9661   9.612  22.857  10.813
44402W        W 9662   8.796   6.762  14.954
44403W        W 9663   1.383  28.922   4.591
44404W        W 9664   4.550  23.157  11.485
44405W        W 9665   9.623  13.614  11.501
44406W        W 9666  17.583  33.758   4.208
44407W        W 9667  20.937  18.319   5.375
44408W        W 9668  29.953   5.239  14.440
44409W        W 9669  19.503  37.455  14.334
44410W        W 9670  20.220  14.880   3.315
44411W        W 9671  22.899   7.646  10.669
44412W        W 9672  29.295  16.986  12.768
44413W        W 9673   8.633  23.509  12.619
44414W        W 9674  36.649   5.382   3.258
44415W        W 9675  14.665  42.277   1.361
44416W        W 9676  14.669   0.971   2.885
44417W        W 9677  11.204  23.298   3.155
44418W        W 9678  22.099  18.475   1.091
44419W        W 9679   0.484  24.963  14.329
44420W        W 9680  13.156  12.409   4.558
44421W        W 9681   9.134  39.594  13.389
44422W        W 9682  34.648   4.307   3.650
44423W        W 9683  37.588  20.067  11.510
44424W        W 9684  26.113  21.391  14.031
44425W        W 9685   5.840  27.489  14.727
44426W        W 9686  30.446  38.878  14.368
44427W        W 9687   2.434   0.926  14.475
44428W        W 9688  32.408  37.870   0.414
44429W        W 9689   6.342  10.096   3.516
44430W        W 9690   5.450  41.190  14.504
44431W        W 9691  16.801  14.989   2.211
44432W        W 9692  28.575   3.216   4.973
44433W        W 9693  20.438   4.883  13.986
44434W        W 9694   2.973  32.905   3.379
44435W        W 9695  35.619  34.788   3.933
44436W        W 9696  26.410  12.620  13.573
44437W        W 9697  44.694  19.169  14.767
44438W        W 9698   4.650   5.704   3.570
44439W        W 9699   0.393  10.866  13.494
44440W        W 9700  29.228  39.918   2.618
44441W        W 9701  16.202  40.658  13.715
44442W        W 9702   8.798  37.772  12.108
44443W        W 9703  18.707  39.891  13.405
44444W        W 9704  40.428   2.997   0.252
44445W        W 9705  32.877  30.517  13.098
44446W        W 9706   2.561  14.646  11.576
44447W        W 9707  36.218  12.142  13.522
44448W        W 9708  27.101   1.250   2.276
44449W        W 9709  41.467   0.514   1.169
44450W        W 9710  37.875   9.471  14.553
44451W        W 9711  19.672  34.887   4.113
44452W        W 9712   5.166   2.525   3.589
44453W        W 9713  31.480  43.997   2.945
44454W        W 9714  14.286   7.605   2.249
44455W        W 9715  22.012   5.602   0.131
44456W        W 9716  36.402  35.851   2.343
44457W        W 9717  11.103  32.650   4.576
44458W        W 9718   9.591  14.114  12.522
44459W        W 9719  10.125  39.215   1.899
44460W        W 9720  40.135  28.648   0.511
44461W        W 9721  29.139   7.859   0.235
44462W        W 9722  30.792  44.302   0.322
44463W        W 9723   9.092   1.231   3.673
44464W        W 9724  44.975  23.215   0.296
44465W        W 9725  30.552  25.495  13.855
44466W        W 9726   4.503  18.528   4.260
44467W        W 9727  38.381   8.613  11.237
44468W        W 9728   5.960   0.824  13.922
44469W        W 9729  38.021  24.591  12.274
44470W        W 9730  22.762  36.491  12.963
44471W        W 9731  31.072  16.919   0.331
44472W        W 9732   2.279  36.123  11.408
44473W        W 9733  31.153  22.598  12.439
44474W        W 9734  20.841  13.130   5.113
44475W        W 9735  10.394   4.479   0.972
44476W        W 9736  11.697  33.847  11.370
44477W        W 9737  19.977  33.804   4.006
44478W        W 9738  33.975   6.167   4.380
44479W        W 9739  30.707  43.337  14.511
44480W        W 9740  43.648   6.083  10.131
44481W        W 9741  22.564  43.998  12.565
44482W        W 9742  43.976  12.785   3.583
44483W        W 9743  39.653  12.561   4.096
44484W        W 9744  32.162  39.590  11.420
44485W        W 9745   7.694   5.148   1.503
44486W        W 9746  43.080  44.440   2.722
44487W        W 9747  10.684  16.837  14.276
44488W        W 9748   2.460  20.680  11.518
44489W        W 9749  30.555  14.865  13.566
44490W        W 9750  15.844  24.974  12.452
44491W        W 9751  26.613  36.564   0.947
44492W        W 9752  14.133  34.289  11.131
44493W        W 9753  28.020  24.535   2.743
44494W        W 9754  40.471   3.466  12.414
44495W        W 9755   3.851  13.061  12.466
44496W        W 9756  25.249  42.931   1.043
44497W        W 9757  43.828  16.314  14.077
44498W        W 9758  36.146  24.983  14.310
44499W        W 9759  28.494  19.298   0.031
44500W        W 9760  39.501  19.838   0.779
44501W        W 9761  29.232  39.060   0.284
44502W        W 9762  37.751  10.762  12.441
44503W        W 9763  28.856  30.206   1.873
44504W        W 9764   6.418  30.092   3.566
44505W        W 9765  20.000  43.775   0.424
44506W        W 9766  37.224   1.987  10.658
44507W        W 9767  18.257  39.825  11.134
44508W        W 9768  24.930   1.435   0.449
44509W        W 9769   4.681   3.271  11.470
44510W        W 9770   8.360  37.913  12.481
44511W        W 9771   9.628   4.007   4.738
44512W        W 9772  31.124   0.178  13.095
44513W        W 9773  26.528  16.662   0.431
44514W        W 9774   7.162   5.724  12.507
44515W        W 9775  27.632  22.602  11.087
44516W        W 9776   9.610  24.200   0.988
44517W        W 9777  18.515   1.505  13.600
44518W        W 9778   9.551  41.255  10.594
44519W        W 9779  13.492  10.226  13.568
44520W        W 9780  32.650   8.430  11.198
44521W        W 9781   4.681  30.560  14.037
44522W        W 9782  33.140  37.286   1.212
44523W        W 9783  39.344   0.986  10.663
44524W        W 9784  19.703   5.826  14.405
44525W        W 9785   2.898   6.758  12.997
44526W        W 9786  41.508  17.302   2.889
44527W        W 9787  16.353  39.116   3.739
44528W        W 9788  35.922   6.633  11.738
44529W        W 9789  31.787  28.277   1.440
44530W        W 9790  44.855  12.583   0.728
44531W        W 9791   2.173   6.406   5.092
44532W        W 9792  11.357  38.255  13.582
44533W        W 9793  44.393  39.860   0.010
44534W        W 9794  39.660  10.037   0.704
44535W        W 9795  18.656  16.598  14.276
44536W        W 9796   6.204  19.172  11.105
44537W        W 9797  30.578  41.079   1.799
44538W        W 9798  11.229   4.339   0.925
44539W        W 9799  13.503  44.093  10.588
44540W        W 9800  28.236  19.630   2.032
44541W        W 9801  21.690  41.236  11.650
44542W        W 9802  40.506  18.099  12.942
44543W        W 9803  27.229  28.644  13.384
44544W        W 9804  39.317  26.644  13.828
44545W        W 9805   0.382  14.787  11.463
44546W        W 9806  28.236   1.842  12.566
44547W        W 9807  44.998   5.833   0.764
44548W        W 9808  31.081  19.429   4.109
44549W        W 9809  27.954   8.856  12.625
44550W        W 9810   1.472   1.828  13.356
44551W        W 9811  37.563  36.995  11.328
44552W        W 9812  21.591  31.923   2.673
44553W        W 9813  39.072  34.599   3.745
44554W        W 9814  16.024  15.542   4.393
44555W        W 9815  24.138  13.778   3.249
44556W        W 9816  40.771   9.624  14.776
44557W        W 9817  29.934  28.364  12.500
44558W        W 9818   7.275  11.147  10.637
44559W        W 9819  14.641  25.627   4.300
44560W        W 9820  29.187   5.139   0.978
44561W        W 9821  38.972  43.678   4.112
44562W        W 9822  42.533  34.445   2.704
44563W        W 9823  33.660  44.455   0.226
44564W        W 9824  14.297  29.404  10.610
44565W        W 9825  18.239  28.985   4.193
44566W        W 9826  21.491   8.866  14.427
44567W        W 9827  19.183  13.892  13.432
44568W        W 9828   8.176  18.304  12.106
44569W        W 9829  21.675  21.783   1.999
44570W        W 9830  30.719   1.943   2.642
44571W        W 9831   8.386  42.327  10.669
44572W        W 9832  32.649   9.805  12.980
44573W        W 9833   3.624  23.679   3.263
44574W        W 9834  43.812  39.931  11.617
44575W        W 9835   9.194   1.443   1.233
44576W        W 9836  25.282  14.666   2.298
44577W        W 9837  18.330  16.539  11.802
44578W        W 9838  22.733  22.641  12.966
44579W        W 9839  40.908  16.845  10.529
44580W        W 9840   8.222   3.495   3.655
44581W        W 9841  28.636  28.542  12.992
44582W        W 9842  21.212  37.257  12.957
44583W        W 9843  23.858   5.323   3.651
44584W        W 9844  44.551  23.263  14.381
44585W        W 9845  43.881  10.439  10.342
44586W        W 9846  29.862  26.054  11.981
44587W        W 9847   0.188  31.701   2.344
44588W        W 9848  42.511  20.684  13.945
44589W        W 9849   0.516   4.569   0.862
44590W        W 9850  27.957  17.263  14.065
44591W        W 9851  22.743   8.591   3.402
44592W        W 9852  31.281  43.872  13.851
44593W        W 9853  19.279  40.388   2.625
44594W        W 9854   4.365  26.662   2.633
44595W        W 9855  25.975   1.276   3.734
44596W        W 9856  18.495   3.658   4.098
44597W        W 9857   3.322   6.573  13.969
44598W        W 9858  25.761   9.870   3.403
44599W        W 9859   4.573  33.584   2.916
44600W        W 9860  12.817  17.393   0.467
44601W        W 9861  32.481  34.990   1.468
44602W        W 9862   1.551  36.101   3.700
44603W        W 9863  26.984  44.804   3.828
44604W        W 9864  13.681   2.411  13.413
44605W        W 9865   0.696  11.630   1.733
44606W        W 9866  13.677  16.303   0.435
44607W        W 9867  35.260  38.335  11.924
44608W        W 9868  20.992   0.555   4.573
44609W        W 9869  29.100   2.786   3.302
44610W        W 9870  30.946  34.342  12.036
44611W        W 9871   6.682   8.335   4.341
44612W        W 9872  27.896  29.034   0.364
44613W        W 9873   2.213  23.040   5.090
44614W        W 9874  38.943  30.069   4.142
44615W        W 9875  27.125  40.928  12.178
44616W        W 9876  36.907  23.100  11.142
44617W        W 9877  33.957  35.954   4.015
44618W        W 9878  19.288  12.400  14.948
44619W        W 9879  43.280  25.033  10.986
44620W        W 9880  27.026   1.000   1.820
44621W        W 9881  19.145   9.189   3.380
44622W        W 9882  28.642   7.080  11.638
44623W        W 9883   7.928  37.371   2.655
44624W        W 9884  11.526  27.105  13.880
44625W        W 9885  21.226   7.493   2.654
44626W        W 9886   1.401  21.514   2.912
44627W        W 9887  32.454  40.448  11.206
44628W        W 9888  12.914  14.059   0.417
44629W        W 9889  35.995  16.178   0.192
44630W        W 9890  13.380  20.597   2.882
44631W        W 9891  11.045  36.654   1.054
44632W        W 9892  33.056  35.480  13.783
44633W        W 9893  33.682  39.943  13.009
44634W        W 9894  37.558  32.429   2.367
44635W        W 9895  16.653  28.428  14.363
44636W        W 9896  28.595  41.611   2.454
44637W        W 9897   7.456  31.860   3.252
44638W        W 9898  40.705   2.346  12.103
44639W        W 9899  44.586  16.976   1.850
44640W        W 9900  16.590  16.709   9.919
44641W        W 9901  25.615  18.316  12.267
44642W        W 9902  14.657  22.761  11.930
44643W        W 9903  43.384  28.169  13.177
44644W        W 9904  19.505  38.073   4.986
44645W        W 9905  34.700  40.421  14.460
44646W        W 9906  36.996  36.338  10.541
44647W        W 9907  23.934  25.920   4.352
44648W        W 9908  30.050  27.032   2.151
44649W        W 9909  18.759  33.469   4.762
44650W        W 9910  28.768  40.782  13.852
44651W        W 9911   7.921  12.976  12.477
44652W        W 9912  37.265  28.770   3.009
44653W        W 9913  22.667  21.088   1.130
44654W        W 9914  10.466  26.367  14.313
44655W        W 9915  34.884  34.700  14.773
44656W        W 9916  28.707  30.970  12.865
44657W        W 9917  43.500  41.529  11.681
44658W        W 9918   7.176  34.525   2.613
44659W        W 9919  20.312   6.663  14.373
44660W        W 9920  40.554  18.552   4.146
44661W        W 9921  19.309   6.920  14.659
44662W        W 9922   2.605  22.559   2.468
44663W        W 9923  33.978  14.905   4.140
44664W        W 9924  23.540  29.080   3.612
44665W        W 9925  22.758  11.912   4.048
44666W        W 9926  32.654   2.667  14.413
44667W        W 9927  19.786  38.796  12.802
44668W        W 9928   2.956   9.837  11.127
44669W        W 9929  24.626  27.242   2.857
44670W        W 9930   4.950  36.420  14.739
44671W        W 9931  38.511  23.380  12.813
44672W        W 9932  37.066   0.029  12.952
44673W        W 9933  44.415   5.756   3.849
44674W        W 9934  15.219  18.019   4.521
44675W        W 9935  14.868  11.796  10.826
44676W        W 9936  31.223  23.328  11.293
44677W        W 9937  38.446  39.417  12.386
44678W        W 9938  42.462  25.747  12.913
44679W        W 9939   8.311  32.376   0.900
44680W        W 9940  30.034  39.690  10.597
44681W        W 9941  36.108  35.358   1.322
44682W        W 9942  14.383  10.633  14.687
44683W        W 9943  36.010   4.002   0.178
44684W        W 9944  39.773  28.659  13.465
44685W        W 9945   1.483  14.338   1.804
44686W        W 9946  14.541  43.850   3.081
44687W        W 9947  32.114  13.540   3.790
44688W        W 9948  43.791  23.779  11.985
44689W        W 9949  42.813  39.397  12.914
44690W        W 9950  32.511  28.204   2.610
44691W        W 9951  42.801  25.771   3.280
44692W        W 9952  44.164   6.769  10.146
44693W        W 9953  34.689  44.305  13.817
44694W        W 9954  11.764   5.711   1.440
44695W        W 9955  16.175  41.604   4.154
44696W        W 9956  15.859  27.996   3.384
44697W        W 9957   8.108  40.701   2.594
44698W        W 9958  38.493  27.507   2.940
44699W        W 9959  37.844  21.210  12.394
44700W        W 9960   9.654  24.708   2.745
44701W        W 9961  32.230  23.573   1.910
44702W        W 9962  37.920  23.619  12.289
44703W        W 9963  10.323  14.532  14.535
44704W        W 9964  38.251  17.412   1.464
44705W        W 9965  27.554  43.498  13.721
44706W        W 9966   2.828   8.173  11.117
44707W        W 9967   0.902  14.466   3.698
44708W        W 9968  18.156  38.428   4.405
44709W        W 9969  30.930  22.458  10.758
44710W        W 9970  39.756  39.445  14.350
44711W        W 9971  31.864   9.932  12.562
44712W        W 9972  26.138   9.789  12.876
44713W        W 9973  20.517  35.873  12.514
44714W        W 9974  35.295  30.685  11.425
44715W        W 9975  22.535  42.886  11.608
44716W        W 9976  30.521  37.392   1.952
44717W        W 9977  31.715  44.459  11.333
44718W        W 9978  28.182  43.027   4.846
44719W        W 9979   0.964  18.181  11.656
44720W        W 9980  22.022  32.909  12.062
44721W        W 9981  28.168  20.664   3.694
44722W        W 9982  18.669  11.734  10.669
44723W        W 9983  15.802  39.825  13.859
44724W        W 9984  42.288  39.048   1.308
44725W        W 9985  14.449  37.066  12.611
44726W        W 9986  10.998   5.198  14.344
44727W        W 9987  30.579  35.082  14.380
44728W        W 9988  38.109   8.581   4.572
44729W        W 9989  36.774   2.462   3.278
44730W        W 9990  41.717   2.344   1.377
44731W        W 9991  11.799  34.594   0.787
44732W        W 9992   3.779  16.344  14.305
44733W        W 9993   7.057  24.205  13.498
44734W        W 9994  38.031  44.395   2.801
44735W        W 9995  33.880   7.275   2.684
44736W        W 9996   6.863  44.869  12.880
44737W        W 9997  35.139  41.878   1.440
44738W        W 9998  14.742  21.688   0.481
44739W        W 9999  31.967  14.191   1.627
44740W        W10000   7.116  39.863  14.503
44741W        W10001  38.501  28.940   3.177
44742W        W10002   9.720  36.901  11.888
44743W        W10003   6.604  34.293  14.899
44744W        W10004  29.344  17.269  11.891
44745W        W10005  16.568  43.292   0.220
44746W        W10006  43.342  24.002  14.293
44747W        W10007  41.686  19.546  12.834
44748W        W10008  21.096  16.953  14.831
44749W        W10009  42.874  36.834  14.958
44750W        W10010   0.271  13.763   1.483
44751W        W10011   2.416   3.418   4.027
44752W        W10012  22.612  26.029   9.908
44753W        W10013  40.971  12.736   0.438
44754W        W10014  41.500   2.024   2.226
44755W        W10015  41.342  13.904   3.396
44756W        W10016  37.806   1.233  14.416
44757W        W10017  18.863   4.338   2.371
44758W        W10018  30.988  28.674   0.457
44759W        W10019   6.236  43.458   2.355
44760W        W10020  19.720  44.486   0.869
44761W        W10021  10.142  38.977  13.659
44762W        W10022   2.142   0.602   2.734
44763W        W10023  33.969  34.100  14.640
44764W        W10024  26.706   3.313   2.289
44765W        W10025  41.296  41.900   3.777
44766W        W10026  19.613  22.955  11.992
44767W        W10027  27.431  32.016  12.932
44768W        W10028  21.011  29.569  10.975
44769W        W10029   5.375  40.322   4.658
44770W        W10030  30.492  24.991   1.745
44771W        W10031   2.898  37.683  13.422
44772W        W10032  43.451   8.727   0.244
44773W        W10033  20.075   2.974  11.051
44774W        W10034  27.308  19.212   4.282
44775W        W10035   5.446  22.903   1.944
44776W        W10036  37.311  41.395   2.749
44777W        W10037  26.906  44.945   0.699
44778W        W10038  38.265   9.671  10.454
44779W        W10039  34.809  37.004  12.480
44780W        W10040  12.204  35.295  14.020
44781W        W10041  25.463  18.095  11.825
44782W        W10042   8.844   2.119  13.261
44783W        W10043  29.417  31.705   2.196
44784W        W10044   4.328  32.653  14.286
44785W        W10045  22.200  42.956   2.989
44786W        W10046   4.375   4.403  12.529
44787W        W10047  42.244  39.930  14.438
44788W        W10048   5.703  29.192  11.068
44789W        W10049   3.263  22.007   0.905
44790W        W10050   7.865  34.759  12.563
44791W        W10051   3.162  41.971   2.719
44792W        W10052  28.041  40.776   3.190
44793W        W10053  17.641  27.065   2.251
44794W        W10054  29.356  38.881   1.824
44795W        W10055  16.017  16.308  11.901
44796W        W10056  33.935  17.422  13.455
44797W        W10057  38.639   8.190  11.181
44798W        W10058  22.235  12.576   2.297
44799W        W10059  25.951  12.172  10.795
44800W        W10060  12.777  30.365  14.303
44801W        W10061  28.426  41.356   3.734
44802W        W10062  29.052   7.808   1.377
44803W        W10063   9.559   7.700  14.018
44804W        W10064  36.532  38.526   1.361
44805W        W10065   9.877  36.007  11.450
44806W        W10066  18.829   7.643  10.712
44807W        W10067  30.519  16.153   2.760
44808W        W10068   2.584  43.761   3.299
44809W        W10069  12.620  30.087  11.999
44810W        W10070   8.881   0.910   0.706
44811W        W10071  38.851  38.061   0.708
44812W        W10072  22.084   2.406  14.418
44813W        W10073   4.284  44.833   0.307
44814W        W10074  35.797   3.687   3.473
44815W        W10075  15.695  21.249   4.598
44816W        W10076  33.338  38.942   2.765
44817W        W10077  23.584  43.190  14.621
44818W        W10078   9.355  42.549   3.850
44819W        W10079  19.492   3.850   2.900
44820W        W10080  33.704  32.438  13.778
44821W        W10081   5.490  31.145   0.462
44822W        W10082  23.659  19.827   3.950
44823W        W10083   4.501  25.150  13.421
44824W        W10084  42.441   2.155  13.871
44825W        W10085   1.110  40.514   0.270
44826W        W10086   5.933   6.627  13.576
44827W        W10087  14.163   3.948  14.863
44828W        W10088  18.245  39.888   4.154
44829W        W10089  39.329   5.222   1.665
44830W        W10090  16.707   8.412  11.958
44831W        W10091  36.382   8.689  11.652
44832W        W10092   2.152  15.682  10.703
44833W        W10093  38.447  10.237  11.676
44834W        W10094  40.525  32.011  14.823
44835W        W10095   2.917   1.512   3.922
44836W        W10096  28.638  17.871  12.034
44837W        W10097   8.809   0.969  10.498
44838W        W10098  34.712   3.400   0.248
44839W        W10099  22.566   7.142   3.618
44840W        W10100   3.223  13.645  13.945
44841W        W10101  40.518  25.530  12.496
44842W        W10102   2.693  31.848   1.463
44843W        W10103   5.500  29.650  13.501
44844W        W10104  15.499   2.462   2.300
44845W        W10105  22.184  32.647  13.334
44846W        W10106  34.328  25.523  13.527
44847W        W10107  34.373  40.612   1.281
44848W        W10108  23.631   7.508  12.127
44849W        W10109  44.791  36.071   0.532
44850W        W10110  39.516   0.318   0.228
44851W        W10111  24.195  25.092   0.839
44852W        W10112  11.663  40.934   2.892
44853W        W10113  27.854  14.630   1.532
44854W        W10114   8.639  22.038   4.103
44855W        W10115  12.878  26.717  11.959
44856W        W10116   2.898  12.792   4.298
44857W        W10117  31.006  28.030   0.378
44858W        W10118   0.903  41.015   0.981
44859W        W10119  27.011   9.268   2.584
44860W        W10120   2.746  19.663   2.085
44861W        W10121  38.815   0.249  14.432
44862W        W10122  30.130  36.413   1.968
44863W        W10123  29.960  32.589   4.088
44864W        W10124   3.717   6.884  12.403
44865W        W10125  21.529  31.800   4.098
44866W        W10126   0.574  43.537  14.981
44867W        W10127  24.028   8.426  12.354
44868W        W10128  16.170  23.934   3.798
44869W        W10129   4.844   5.264   1.651
44870W        W10130  41.539  26.552   3.142
44871W        W10131  41.487   2.406  11.485
44872W        W10132  37.812  35.113  14.886
44873W        W10133  43.089  16.847  11.080
44874W        W10134  29.257  16.292  13.932
44875W        W10135  12.520  22.743  11.670
44876W        W10136   2.236  11.838  13.193
44877W        W10137   7.626  34.462   2.835
44878W        W10138  22.200  41.230   1.205
44879W        W10139  19.711   8.272   2.343
44880W        W10140  40.446  33.712   0.897
44881W        W10141  12.905   1.168  14.900
44882W        W10142  22.800  34.442   0.920
44883W        W10143  20.349  15.375  12.006
44884W        W10144  10.139   4.899  11.642
44885W        W10145  27.041  35.541   5.517
44886W        W10146  39.909  14.739  12.021
44887W        W10147  43.477  32.156  10.623
44888W        W10148  37.276   7.220  13.631
44889W        W10149  14.107  15.351  11.471
44890W        W10150  14.938  29.881   0.844
44891W        W10151  22.217  31.396   3.313
44892W        W10152  38.367  26.978  11.637
44893W        W10153  33.590  20.963  12.063
44894W        W10154  15.569   9.355  13.424
44895W        W10155  19.304  29.414  12.154
44896W        W10156  11.296  22.286   3.343
44897W        W10157  20.523  13.689   1.820
44898W        W10158  20.110  17.479   0.740
44899W        W10159  14.636  12.756  13.962
44900W        W10160  17.256  35.939  14.408
44901W        W10161  28.612  22.487   2.163
44902W        W10162  19.150  32.022  11.604
44903W        W10163  36.982  41.358  12.387
44904W        W10164   7.350  18.567  11.202
44905W        W10165   0.844  43.562   1.863
44906W        W10166   1.950   8.768   4.656
44907W        W10167  20.283  10.601  13.039
44908W        W10168   7.302   2.963  11.575
44909W        W10169  36.554  30.309  14.062
44910W        W10170  28.171  43.238   0.350
44911W        W10171   8.160  15.614   1.063
44912W        W10172  41.936  20.449  13.121
44913W        W10173  25.506  28.193   3.696
44914W        W10174  43.390   9.458   4.156
44915W        W10175   9.614  41.487   3.057
44916W        W10176   2.270  31.693  12.633
44917W        W10177   6.957  40.950   1.568
44918W        W10178  19.266   2.500  12.027
44919W        W10179  16.702  20.291  13.535
44920W        W10180  19.632   5.743  12.956
44921W        W10181  30.993  25.676  14.285
44922W        W10182   5.033  16.352   0.177
44923W        W10183  24.003   1.952   1.888
44924W        W10184  10.155  26.657   2.640
44925W        W10185   5.278   3.070   1.632
44926W        W10186  21.774  17.800  11.082
44927W        W10187  37.332  26.155  14.963
44928W        W10188  44.347  41.767  12.038
44929W        W10189  21.561  42.138  12.575
44930W        W10190  30.647  16.697   3.235
44931W        W10191   7.211  32.608   1.860
44932W        W10192  39.304  36.479  14.945
44933W        W10193  41.749  31.005   0.865
44934W        W10194   7.790  42.135  11.259
44935W        W10195  22.583  14.374  12.690
44936W        W10196  40.309  24.162  10.585
44937W        W10197  18.267  26.234   1.450
44938W        W10198  24.780  31.261  14.455
44939W        W10199   8.727  30.176  10.786
44940W        W10200   5.326  39.867   3.652
44941W        W10201  44.336   3.696  11.900
44942W        W10202   1.024   4.814  12.512
44943W        W10203  17.900  31.698  12.990
44944W        W10204   5.503  10.813  14.468
44945W        W10205   7.126  32.538   4.562
44946W        W10206  44.195   0.741   4.124
44947W        W10207  43.066  13.748  13.897
44948W        W10208   7.595  24.774   3.747
44949W        W10209   7.361  28.858  10.922
44950W        W10210  17.868  16.198  12.899
44951W        W10211  31.639   0.730   2.651
44952W        W10212   4.383  13.900  12.984
44953W        W10213  34.883  39.342   2.265
44954W        W10214  34.464  37.134   2.686
44955W        W10215   7.817   6.356  13.471
44956W        W10216  17.288  41.338   1.767
44957W        W10217  21.466   3.631   4.550
44958W        W10218  26.027  36.597  14.477
44959W        W10219  16.581  23.701   0.951
44960W        W10220   0.881  29.056   3.010
44961W        W10221  12.615  34.656  11.904
44962W        W10222  24.208   6.056   2.592
44963W        W10223  33.540  19.463   4.687
44964W        W10224  17.763   5.742  11.629
44965W        W10225   0.619  11.110   1.251
44966W        W10226  43.673  14.881   5.076
44967W        W10227  33.104  34.900   4.330
44968W        W10228  28.452  26.556   2.181
44969W        W10229   6.495  43.717   3.303
44970W        W10230  15.673  23.792  13.055
44971W        W10231  10.730  37.946   2.673
44972W        W10232  30.715  33.305  14.248
44973W        W10233  28.306   0.988   1.723
44974W        W10234  24.415  39.410  13.657
44975W        W10235  43.389  10.854  13.568
44976W        W10236  40.767  19.122  13.434
44977W        W10237  39.600  24.187  14.416
44978W        W10238  21.982   8.858   3.504
44979W        W10239  26.638  29.803  11.192
44980W        W10240  28.614  32.170  14.848
44981W        W10241   9.452  44.243  10.474
44982W        W10242  24.155  11.117   4.741
44983W        W10243  30.145  14.944   1.239
44984W        W10244  25.273  34.155  14.407
44985W        W10245  25.796   4.350   0.778
44986W        W10246  31.677   1.442   3.772
44987W        W10247   9.666  24.343  12.411
44988W        W10248  19.546  24.793   0.186
44989W        W10249  42.612  26.593   4.529
44990W        W10250  22.826  24.168  11.185
44991W        W10251   7.898  22.644  13.557
44992W        W10252  37.400  34.422  12.540
44993W        W10253  26.704  13.904   3.674
44994W        W10254  27.148  27.252  10.686
44995W        W10255  30.481  20.443  13.855
44996W        W10256  15.106  14.297   4.492
44997W        W10257  27.144   0.769  14.217
44998W        W10258  36.353   8.124   0.337
44999W        W10259  28.247  33.949   0.001
45000W        W10260  20.834  20.180   9.760
45001W        W10261  24.362  28.319  13.277
45002W        W10262  24.518  41.511  12.491
45003W        W10263   2.010   1.176   4.231
45004W        W10264   1.661  27.448  10.496
45005W        W10265   0.240  22.780  12.907
45006W        W10266  27.632  44.741   1.229
45007W        W10267  36.440  14.648  13.875
45008W        W10268  19.547  34.098  12.013
45009W        W10269  29.947  16.320  14.724
45010W        W10270  17.199  11.292   2.384
45011W        W10271  27.170  11.869  13.934
45012W        W10272  42.920  40.105  11.362
45013W        W10273  21.125  27.137  12.246
45014W        W10274  17.840  33.200  11.172
45015W        W10275  19.441  12.325   4.934
45016W        W10276  36.578   1.067  13.873
45017W        W10277  41.584  23.591  10.864
45018W        W10278   2.911   7.155   4.151
45019W        W10279  19.697   4.811  12.402
45020W        W10280  35.073  24.680   0.798
45021W        W10281  19.121  10.362  14.222
45022W        W10282   3.643   8.341   2.807
45023W        W10283  38.469  40.034   3.354
45024W        W10284  13.652  37.970  14.741
45025W        W10285  24.139  21.176   1.999
45026W        W10286  16.210  15.346   1.409
45027W        W10287  10.073  21.359   1.396
45028W        W10288  29.822  27.865  12.868
45029W        W10289  20.232   3.731  12.754
45030W        W10290   8.374  21.119  10.616
45031W        W10291   1.319   6.762   3.807
45032W        W10292  32.474  23.805  10.668
45033W        W10293  42.850  14.574   0.830
45034W        W10294  10.125  28.075  12.423
45035W        W10295  16.997  18.574   3.711
45036W        W10296   7.321  16.493  14.024
45037W        W10297  38.249  35.399   0.123
45038W        W10298  22.593  33.374  11.483
45039W        W10299   8.939  40.411  12.733
45040W        W10300  33.867   4.266   4.051
45041W        W10301   6.275  27.750  12.063
45042W        W10302  20.397  35.061   0.120
45043W        W10303  23.724   5.292  10.754
45044W        W10304  38.872  26.636  11.093
45045W        W10305  44.379  42.566   3.830
45046W        W10306  41.654  17.612   4.561
45047W        W10307  32.854  26.897   0.935
45048W        W10308  10.083   8.946  11.047
45049W        W10309  30.920  15.082   2.268
45050W        W10310  29.044  24.200   0.719
45051W        W10311  28.520  29.696   3.183
45052W        W10312  23.971  22.114   1.467
45053W        W10313   2.557  20.277  12.346
45054W        W10314  10.312  44.729  11.277
45055W        W10315  34.860  20.094   4.788
45056W        W10316  44.507  31.409  14.885
45057W        W10317  18.142  33.044  11.640
45058W        W10318   8.211  12.646  12.712
45059W        W10319  16.324  16.640   2.894
45060W        W10320  40.479  30.969   3.285
45061W        W10321  32.009  20.841  10.555
45062W        W10322  28.211  14.120  12.911
45063W        W10323   5.281  33.152   1.308
45064W        W10324  36.471  11.451  14.238
45065W        W10325   4.643   6.832  13.491
45066W        W10326  23.303  33.532  13.534
45067W        W10327  43.527   3.387  10.089
45068W        W10328   1.671   4.421   2.082
45069W        W10329   9.750  19.839  10.779
45070W        W10330  14.815  44.242   1.144
45071W        W10331  37.965  33.181   1.304
45072W        W10332  44.866  20.897   4.526
45073W        W10333  19.649   8.678   4.144
45074W        W10334  23.918   7.273  14.518
45075W        W10335  13.503  10.420   2.338
45076W        W10336  14.500   5.033  13.909
45077W        W10337  40.598  36.589   4.144
45078W        W10338   6.819  29.144   3.349
45079W        W10339   1.100   1.351  14.517
45080W        W10340   3.515   8.369   4.171
45081W        W10341   8.838  32.725  13.998
45082W        W10342  38.981  30.572   4.392
45083W        W10343   6.167  14.168   3.612
45084W        W10344  42.507  28.669   0.048
45085W        W10345  36.625  32.920  14.629
45086W        W10346  37.422  30.467   0.684
45087W        W10347  23.101   2.233   4.278
45088W        W10348   9.968  34.367  10.247
45089W        W10349  13.246  42.786   4.338
45090W        W10350  18.195   5.967  13.303
45091W        W10351  34.054  38.558  13.702
45092W        W10352   6.761  43.290  10.745
45093W        W10353   7.410  35.022  12.380
45094W        W10354  27.739  36.641   1.265
45095W        W10355  44.365  25.239  13.220
45096W        W10356  20.971  32.392  11.901
45097W        W10357  26.199  28.943   3.481
45098W        W10358  31.229  31.454   2.058
45099W        W10359   0.425  24.989   3.151
45100W        W10360   9.667  15.831   0.498
45101W        W10361  13.581  10.904   1.392
45102W        W10362  36.010  14.032  14.827
45103W        W10363  42.255   3.959  12.571
45104W        W10364  34.366  31.609   3.887
45105W        W10365  21.345  13.539  11.611
45106W        W10366  23.699  35.210  13.807
45107W        W10367  37.115  30.770   4.878
45108W        W10368  11.762  28.027   1.439
45109W        W10369  14.466  34.053   4.543
45110W        W10370  10.622  14.312  10.869
45111W        W10371  16.448   0.023   2.345
45112W        W10372  31.969  24.498   4.148
45113W        W10373  20.155  40.961   3.138
45114W        W10374  28.062  16.520  12.572
45115W        W10375   3.978   5.235  12.497
45116W        W10376  13.085  10.714   1.342
45117W        W10377  22.969  31.563  13.848
45118W        W10378   1.498  28.951   3.693
45119W        W10379  15.404  42.349  14.039
45120W        W10380   6.750  42.459  11.119
45121W        W10381  40.015   1.007  11.178
45122W        W10382  29.034   0.354  11.559
45123W        W10383   8.425  25.721   0.422
45124W        W10384  28.200  30.324   3.714
45125W        W10385  28.145   6.236   4.984
45126W        W10386  24.757  41.903  12.259
45127W        W10387  33.164  29.441  12.550
45128W        W10388  31.115  33.844  12.095
45129W        W10389  29.805  42.799   4.605
45130W        W10390  44.078   0.786  14.277
45131W        W10391  41.232  18.239  12.367
45132W        W10392  11.129  34.575   2.730
45133W        W10393  10.939  42.449   2.330
45134W        W10394  21.035  40.281   1.352
45135W        W10395  42.448  15.121   1.676
45136W        W10396  36.851  23.701   1.805
45137W        W10397  16.605  35.626   1.734
45138W        W10398  42.341  35.370  14.937
45139W        W10399  13.054  23.194  12.350
45140W        W10400  23.219  41.875  11.840
45141W        W10401   4.842  36.012  10.375
45142W        W10402  44.227  20.707  10.149
45143W        W10403  15.342   3.194  14.241
45144W        W10404  16.512   6.966   3.444
45145W        W10405   8.895  37.855   3.310
45146W        W10406   1.320   6.695   2.021
45147W        W10407   8.212  34.077  11.582
45148W        W10408  23.995   1.372   3.724
45149W        W10409  27.894  26.630   4.996
45150W        W10410  15.217   1.463   2.273
45151W        W10411   0.947   7.573   1.783
45152W        W10412  17.737  25.545  10.824
45153W        W10413  42.825  40.074  10.863
45154W        W10414   3.422  15.175   3.608
45155W        W10415   8.290  43.270   4.330
45156W        W10416  39.979  41.378   3.655
45157W        W10417  36.358  33.853   4.497
45158W        W10418  11.810  20.891  10.976
45159W        W10419   4.989  41.108  13.903
45160W        W10420  42.491  36.629  12.616
45161W        W10421  43.259   1.781  14.253
45162W        W10422  31.717  17.302  13.071
45163W        W10423  43.984   6.905   2.640
45164W        W10424  10.343  25.543  14.869
45165W        W10425  24.167  25.641  14.345
45166W        W10426  43.467  26.649   5.116
45167W        W10427  24.301  21.665  10.806
45168W        W10428  30.177  35.767  13.763
45169W        W10429   9.880  33.010   2.871
45170W        W10430  42.997  42.130   3.651
45171W        W10431  23.714  16.299  11.093
45172W        W10432   0.213  37.441  10.146
45173W        W10433   8.368   8.215   3.042
45174W        W10434   6.372  17.159  10.546
45175W        W10435  11.354  43.719   3.470
45176W        W10436  23.149  24.917  11.679
45177W        W10437  20.224  16.703   0.520
45178W        W10438   7.750  23.301  12.495
45179W        W10439  40.126  28.860  12.547
45180W        W10440  20.966  28.590   4.149
45181W        W10441  44.709  38.731   1.346
45182W        W10442  14.719   0.455   4.762
45183W        W10443  37.734  44.407  14.278
45184W        W10444  14.626  35.596   2.029
45185W        W10445  14.200  31.932   0.111
45186W        W10446  23.185  10.852  14.901
45187W        W10447   9.139  32.643   0.869
45188W        W10448  43.059  13.921  10.749
45189W        W10449   2.024  36.830  13.613
45190W        W10450  38.486  16.545   3.357
45191W        W10451  44.227   4.744   4.645
45192W        W10452  20.772  15.793  11.566
45193W        W10453  39.555  23.171   1.842
45194W        W10454  36.489  15.752  11.021
45195W        W10455  35.354   3.763   1.453
45196W        W10456  18.586  35.870  13.879
45197W        W10457  11.392  11.186  13.446
45198W        W10458  11.287  11.370   3.203
45199W        W10459  44.990  31.185   0.418
45200W        W10460  36.020  35.965  14.396
45201W        W10461   0.006  22.029   3.288
45202W        W10462  39.289  21.804   2.887
45203W        W10463  29.326   2.598   0.448
45204W        W10464  19.721   4.130   2.277
45205W        W10465  25.711  36.815   1.872
45206W        W10466  14.132   3.897   2.832
45207W        W10467  40.514  30.009   3.263
45208W        W10468  27.959  35.471  13.285
45209W        W10469  41.912  30.428   0.280
45210W        W10470  18.257  19.816   4.034
45211W        W10471  14.536  31.110   0.238
45212W        W10472  44.986   5.794  13.429
45213W        W10473  37.377  10.104  14.049
45214W        W10474  12.314  41.489  10.658
45215W        W10475  31.623   7.167  14.489
45216W        W10476  30.439  34.453  14.901
45217W        W10477  26.692  12.136  13.836
45218W        W10478  31.443   8.192   4.654
45219W        W10479  43.475   4.998   3.098
45220W        W10480  26.031   7.339   0.885
45221W        W10481  22.649  18.582   3.698
45222W        W10482  16.553  19.262   2.164
45223W        W10483  25.976  38.358  12.539
45224W        W10484  12.293  29.945  10.730
45225W        W10485  43.792   9.397  14.434
45226W        W10486   0.914  12.384  12.512
45227W        W10487  17.170  11.647  13.794
45228W        W10488  39.643  27.193  12.234
45229W        W10489   8.641  25.154  10.253
45230W        W10490  44.376  19.836  10.059
45231W        W10491  23.324  33.521   0.872
45232W        W10492  36.731  15.248   2.033
45233W        W10493  11.540  13.232   0.887
45234W        W10494  26.668   7.235  13.850
45235W        W10495  41.354  23.228  13.919
45236W        W10496   3.259  36.542   0.325
45237W        W10497  11.727   2.319  10.937
45238W        W10498  40.417   4.689   4.610
45239W        W10499  30.995  26.910   2.327
45240W        W10500   8.749   5.934   0.763
45241W        W10501  38.429  41.350  10.512
45242W        W10502  20.715  22.653  13.001
45243W        W10503   7.105  28.109  13.511
45244W        W10504  23.047  13.617  11.161
45245W        W10505  39.794  11.185   4.252
45246W        W10506  15.646  40.231   0.353
45247W        W10507  24.995   8.718   2.431
45248W        W10508  44.207  16.799   2.437
45249W        W10509  35.452  37.950  10.635
45250W        W10510   7.322  12.687  10.690
45251W        W10511  23.647  24.697  12.920
45252W        W10512  24.015  25.962  12.936
45253W        W10513  43.308  44.857   2.532
45254W        W10514  13.013  34.154   4.130
45255W        W10515  38.442   2.460   2.297
45256W        W10516  30.433  43.334   2.354
45257W        W10517  41.570  44.385   0.762
45258W        W10518  17.562  39.546  14.661
45259W        W10519  29.017  19.504   0.053
45260W        W10520  21.442  20.159  14.508
45261W        W10521   5.949  12.437  13.284
45262W        W10522  25.476  19.710  14.737
45263W        W10523  20.153   2.936  13.018
45264W        W10524  42.910  32.615   2.849
45265W        W10525  25.990   7.818  10.412
45266W        W10526  40.585   9.330  12.117
45267W        W10527  20.634   5.003   1.435
45268W        W10528  39.816  33.214  11.667
45269W        W10529  34.767  42.880   1.356
45270W        W10530  32.164  13.299  11.219
45271W        W10531  30.768  35.512  11.044
45272W        W10532  13.952   6.262  11.343
45273W        W10533  39.855  22.719   3.942
45274W        W10534   1.766  25.137  14.921
45275W        W10535  33.142  35.979  13.892
45276W        W10536   9.434  38.456  10.665
45277W        W10537  38.060  33.059   3.153
45278W        W10538  37.679   7.701   3.653
45279W        W10539  44.709  31.185  14.064
45280W        W10540  16.625   3.958   4.308
45281W        W10541  28.698  44.300  12.533
45282W        W10542   4.099  43.531   3.200
45283W        W10543  30.486  38.383  14.201
45284W        W10544  10.912   2.426  14.876
45285W        W10545  14.051  21.071  10.286
45286W        W10546  27.784  35.776  11.515
45287W        W10547  41.648  31.134   0.005
45288W        W10548  26.446  34.065   4.157
45289W        W10549   6.366  27.587  10.825
45290W        W10550  41.822  38.549  11.853
45291W        W10551  20.527  35.387   1.604
45292W        W10552  18.626   8.743  11.547
45293W        W10553   5.420   9.359   2.796
45294W        W10554   6.718  12.252   0.589
45295W        W10555  23.512  19.196  13.418
45296W        W10556  35.024  29.338   3.577
45297W        W10557  31.036  15.617  11.477
45298W        W10558  35.532  42.977  13.908
45299W        W10559  44.846  43.434   1.900
45300W        W10560   6.261   0.782   1.313
45301W        W10561  37.284  20.136   1.522
45302W        W10562  36.300  24.781  11.362
45303W        W10563  39.081  42.794   4.716
45304W        W10564  35.002   9.436  11.092
45305W        W10565  18.545  27.908   0.285
45306W        W10566  33.191  23.060  11.693
45307W        W10567  19.423  26.399  14.865
45308W        W10568  44.798  13.276   0.086
45309W        W10569   5.995  41.440  13.558
45310W        W10570  27.643  27.753   4.433
45311W        W10571  19.529  24.618   0.701
45312W        W10572  35.903  44.325   0.939
45313W        W10573  41.550   8.662  10.707
45314W        W10574  12.205  41.776  11.230
45315W        W10575  21.770   2.283  14.028
45316W        W10576  38.310  29.937   2.205
45317W        W10577   6.783  24.836   2.166
45318W        W10578   6.858   2.112  14.840
45319W        W10579  40.953  38.288  11.478
45320W        W10580   6.164   8.363   3.631
45321W        W10581  39.539  34.092   2.355
45322W        W10582  36.983  11.641   3.250
45323W        W10583   9.513  22.718  12.144
45324W        W10584  20.115  27.909   3.773
45325W        W10585  12.024  27.115  13.979
45326W        W10586  26.699  25.730   2.819
45327W        W10587   0.536  37.960  14.850
45328W        W10588  14.659  42.362  14.948
45329W        W10589  34.173  40.950   4.609
45330W        W10590  15.121  38.088   3.356
45331W        W10591  41.779   9.310  12.558
45332W        W10592  28.980  40.501   1.047
45333W        W10593  29.140  29.464   2.225
45334W        W10594  14.880  25.670   2.165
45335W        W10595  10.832  23.943  11.170
45336W        W10596  41.815  18.714  11.364
45337W        W10597  16.008  13.410  11.124
45338W        W10598  25.233  36.207  12.222
45339W        W10599  34.013  23.169   3.759
45340W        W10600  40.564  37.377  10.576
45341W        W10601  11.360  25.982  14.483
45342W        W10602  18.097   4.171  12.832
45343W        W10603  43.226  13.323  14.143
45344W        W10604  37.542   8.126  13.957
45345W        W10605  36.537  40.424  11.725
45346W        W10606   9.563   4.269   1.212
45347W        W10607  30.166   6.150   5.094
45348W        W10608   7.366  24.542   4.208
45349W        W10609  18.827  26.760  13.595
45350W        W10610  16.139  33.270  13.624
45351W        W10611  20.631  43.394  12.465
45352W        W10612  12.400  12.200   2.267
45353W        W10613  35.302   0.796   1.332
45354W        W10614  42.055  40.302   1.744
45355W        W10615  19.869  36.022  10.829
45356W        W10616  18.032  39.912   1.385
45357W        W10617  37.870   1.898  12.162
45358W        W10618  19.460  31.573  13.832
45359W        W10619  39.695  13.534   1.951
45360W        W10620  37.777  44.591  13.023
45361W        W10621  11.894  39.578  11.928
45362W        W10622  20.221  28.412   0.086
45363W        W10623  27.924  28.168   1.324
45364W        W10624  14.133  37.448   1.742
45365W        W10625  24.008  28.726   4.260
45366W        W10626  20.275  39.875  12.442
45367W        W10627   6.102  43.693  12.809
45368W        W10628  28.747  20.333   0.792
45369W        W10629  27.173  17.685   2.674
45370W        W10630  35.310  36.940  12.553
45371W        W10631   8.191  16.255  13.923
45372W        W10632  41.708  27.577  13.078
45373W        W10633  25.996   3.651  13.835
45374W        W10634  40.831  15.744  13.482
45375W        W10635   8.917  18.859  10.653
45376W        W10636  32.859  31.618   2.759
45377W        W10637  30.217   6.797   2.440
45378W        W10638  40.913  41.247   3.263
45379W        W10639  30.935  29.656  14.788
45380W        W10640   2.521  26.340  10.772
45381W        W10641  37.878   9.767  14.120
45382W        W10642   1.053  32.827  12.504
45383W        W10643  14.833  18.179  10.177
45384W        W10644   3.412  44.035  14.082
45385W        W10645  16.279  25.043   4.550
45386W        W10646  43.341  17.828  13.150
45387W        W10647   3.682  22.559   0.304
45388W        W10648   1.734  38.553  14.476
45389W        W10649  40.998  15.301   0.314
45390W        W10650  23.728  33.992   3.691
45391W        W10651  40.842  34.122   0.040
45392W        W10652  39.426   9.108   0.870
45393W        W10653  33.775  37.083   2.375
45394W        W10654  10.545  19.720  14.469
45395W        W10655  43.327  44.697  14.505
45396W        W10656  43.604  41.536  13.066
45397W        W10657  14.251  20.382   4.473
45398W        W10658  18.623   5.754  11.688
45399W        W10659  15.224  21.238   4.369
45400W        W10660  29.420  34.052   2.764
45401W        W10661   3.635  31.887   1.339
45402W        W10662  15.347  27.749  13.013
45403W        W10663  33.613  40.575  10.184
45404W        W10664  42.832  40.111   1.832
45405W        W10665  29.501  33.539   2.526
45406W        W10666  11.214   9.483   0.411
45407W        W10667  24.217   3.741  12.902
45408W        W10668   9.286  30.014  13.520
45409W        W10669   3.332  26.401  11.248
45410W        W10670  22.641  26.183  10.413
45411W        W10671  21.839  18.766  10.276
45412W        W10672  20.156  33.655   2.650
45413W        W10673  20.486  36.563  11.869
45414W        W10674  38.910   6.956   1.827
45415W        W10675  17.413  17.065  10.336
45416W        W10676   8.010  19.199  11.930
45417W        W10677  16.588  42.816   1.633
45418W        W10678  23.928  16.747   1.483
45419W        W10679  36.469   1.254   1.840
45420W        W10680  28.776  42.960  14.267
45421W        W10681   5.871  25.745  12.860
45422W        W10682  27.727  40.168  11.159
45423W        W10683  32.320  24.732   1.756
45424W        W10684  18.263   9.347  14.871
45425W        W10685  37.800   4.557   0.973
45426W        W10686  29.947  44.144  11.200
45427W        W10687  42.559  17.531   3.674
45428W        W10688  37.930  27.627   1.620
45429W        W10689  38.065  22.270  12.567
45430W        W10690  22.687  33.611   3.132
45431W        W10691  34.881   9.325  14.300
45432W        W10692   6.487  29.459   2.768
45433W        W10693  28.929   0.225  13.894
45434W        W10694  41.849  27.152  13.389
45435W        W10695   5.869  14.895  14.362
45436W        W10696  38.779  21.246   2.332
45437W        W10697  30.543  44.858   1.866
45438W        W10698   1.710  42.730  13.658
45439W        W10699  43.666  15.336   0.822
45440W        W10700  11.631  31.773   4.102
45441W        W10701   0.350   2.292  11.547
45442W        W10702  38.986  43.903  14.657
45443W        W10703   0.921  21.989  13.075
45444W        W10704  24.445  27.165  10.705
45445W        W10705   1.682   8.703   1.792
45446W        W10706  40.380   5.899  12.955
45447W        W10707  22.637  21.418  11.112
45448W        W10708  42.978  17.150   2.826
45449W        W10709  20.691  12.228  12.943
45450W        W10710   4.788  22.194  11.894
45451W        W10711  31.100   4.834   4.509
45452W        W10712  43.270  24.665   4.465
45453W        W10713  21.798  41.725   0.814
45454W        W10714  20.474   2.757  14.961
45455W        W10715  27.137  20.320   1.265
45456W        W10716  16.058  16.029   4.519
45457W        W10717  36.517  16.688  12.656
45458W        W10718   5.447   1.666   3.682
45459W        W10719  16.686  26.545   3.172
45460W        W10720  16.676   4.836  13.529
45461W        W10721  17.831   6.158   2.322
45462W        W10722  37.070  36.478   1.869
45463W        W10723  33.212  21.078  11.149
45464W        W10724  13.633  28.541  13.549
45465W        W10725  15.707  32.072  14.565
45466W        W10726  32.419   2.954   0.981
45467W        W10727  43.460  16.394  12.843
45468W        W10728  33.291  36.597   3.199
45469W        W10729  39.325   0.204  14.314
45470W        W10730  44.479  17.077  10.395
45471W        W10731  27.515  17.130  10.608
45472W        W10732   5.030  27.491  14.514
45473W        W10733   0.622  10.770  10.252
45474W        W10734  27.692  25.592  12.084
45475W        W10735   5.621  33.374   1.907
45476W        W10736  14.172  10.640   2.031
45477W        W10737   4.998   4.637  13.922
45478W        W10738  21.339  10.531   0.954
45479W        W10739  42.001   0.254   2.846
45480W        W10740  38.702  14.651  12.899
45481W        W10741  30.453  27.034  13.683
45482W        W10742  35.349  13.798   0.918
45483W        W10743   0.947  16.222   2.587
45484W        W10744   0.171  26.143   0.720
45485W        W10745  13.318  40.030   0.189
45486W        W10746  31.701   9.743  11.245
45487W        W10747  38.849  14.983  14.987
45488W        W10748  22.054  19.603   3.155
45489W        W10749  13.707  11.727   5.043
45490W        W10750  13.875   2.710  14.286
45491W        W10751  42.042  42.931  13.003
45492W        W10752  32.098  43.397  13.975
45493W        W10753  31.863  28.597   0.304
45494W        W10754  11.844  21.173   1.827
45495W        W10755  15.402  33.037  14.451
45496W        W10756  18.500   9.321   2.207
45497W        W10757  42.779   0.744   4.411
45498W        W10758  32.587  37.388   0.354
45499W        W10759  27.901  39.876   3.130
45500W        W10760  19.078  44.767  12.312
45501W        W10761  42.075   9.582  14.049
45502W        W10762  22.525  29.730  14.329
45503W        W10763  18.243  36.900   1.343
45504W        W10764  44.520  28.291  10.349
45505W        W10765  34.403  19.827   3.276
45506W        W10766  37.299  35.612   3.411
45507W        W10767  27.089   4.831  10.557
45508W        W10768  27.333   5.188  13.357
45509W        W10769  14.721  21.096   2.094
45510W        W10770  14.790  19.172  11.129
45511W        W10771  25.133  21.555  12.596
45512W        W10772  35.498  42.460   2.195
45513W        W10773  41.399  13.680   4.356
45514W        W10774  26.075  44.331   4.119
45515W        W10775   5.467  44.097   4.110
45516W        W10776  26.454  10.319   1.032
45517W        W10777  15.977  41.939  13.805
45518W        W10778   8.793  34.054  14.236
45519W        W10779  39.376  44.929   3.808
45520W        W10780  41.588  13.779   2.956
45521W        W10781  34.458   3.808  11.364
45522W        W10782  38.981  12.832  13.316
45523W        W10783  27.722  37.225  14.279
45524W        W10784   3.814  25.584   0.890
45525W        W10785   2.177   0.221  12.568
45526W        W10786  30.332   3.903  12.753
45527W        W10787  10.002   5.345   4.124
45528W        W10788  43.025   1.527   0.101
45529W        W10789  25.236  21.238  12.120
45530W        W10790   5.411  43.007  13.959
45531W        W10791  12.140  16.170   2.766
45532W        W10792  32.368  21.568   1.545
45533W        W10793   6.732  11.373  13.388
45534W        W10794   7.712  11.360  11.489
45535W        W10795  32.017   6.651   3.797
45536W        W10796   9.311  39.135  14.484
45537W        W10797  43.783  19.742   4.894
45538W        W10798  22.201  29.427   2.206
45539W        W10799  39.143  18.612   2.638
45540W        W10800  37.294  31.552   3.790
45541W        W10801  12.040  16.702  12.360
45542W        W10802  33.283  30.261  14.071
45543W        W10803  30.940  41.881   1.865
45544W        W10804  40.998  32.424   1.772
45545W        W10805  11.831  20.932  12.767
45546W        W10806   1.350  22.924   2.761
45547W        W10807   8.460  40.693   2.242
45548W        W10808  24.973   5.440  12.645
45549W        W10809  40.921  43.922  14.016
45550W        W10810  18.341   2.389  12.707
45551W        W10811  40.318  32.911   2.719
45552W        W10812  28.046  43.370  13.778
45553W        W10813  10.307  15.687  12.928
45554W        W10814  22.232  42.223  14.706
45555W        W10815  13.063   3.760  11.118
45556W        W10816  10.430   7.710   2.556
45557W        W10817  17.827  20.098  13.990
45558W        W10818  20.555   9.416  10.976
45559W        W10819  16.247  31.404   4.227
45560W        W10820  19.031  32.490  14.721
45561W        W10821  25.593  21.194  10.134
45562W        W10822   5.906   5.848  12.917
45563W        W10823  29.920  37.521   2.668
45564W        W10824  14.998  32.667  14.461
45565W        W10825  41.927   0.710   0.968
45566W        W10826  38.822  19.064   0.810
45567W        W10827  10.987   5.295  13.343
45568W        W10828  42.134  35.772   4.809
45569W        W10829   7.829  29.765  12.891
45570W        W10830   2.166  27.927   2.247
45571W        W10831   7.379   6.941  12.570
45572W        W10832  34.624  16.459  12.988
45573W        W10833  10.599  11.879  11.070
45574W        W10834   8.578  23.506   5.246
45575W        W10835   3.499  33.853  13.951
45576W        W10836  42.292  27.619   0.388
45577W        W10837  41.991  11.615  11.770
45578W        W10838  13.757   8.748   0.276
45579W        W10839  37.517  44.331  12.458
45580W        W10840  38.338   9.255   2.667
45581W        W10841  39.275  13.432   2.320
45582W        W10842  36.535  23.963  13.046
45583W        W10843  19.651  29.162   3.638
45584W        W10844  13.053  44.713  14.524
45585W        W10845  26.601   5.770   9.564
45586W        W10846  35.160  32.392  10.660
45587W        W10847  42.466   5.789   3.710
45588W        W10848  10.365  31.931   2.780
45589W        W10849  18.519  10.308   0.842
45590W        W10850  19.853  39.790  12.765
45591W        W10851  30.583  42.558  12.419
45592W        W10852  19.958   4.828   4.114
45593W        W10853  42.547   1.889  13.420
45594W        W10854   5.043   2.948   3.858
45595W        W10855  36.522  42.388   3.126
45596W        W10856   9.638  19.461   1.316
45597W        W10857  40.234   2.402   1.347
45598W        W10858   1.039  44.865   3.606
45599W        W10859  26.876  17.239  13.728
45600W        W10860  14.228  11.273  13.830
45601W        W10861  36.956  28.824  14.886
45602W        W10862  10.830  38.833  12.897
45603W        W10863  24.693   2.988  12.830
45604W        W10864  35.402  17.781   1.470
45605W        W10865  35.327  20.839  12.833
45606W        W10866  22.632  22.788   5.435
45607W        W10867   4.248  35.239  11.452
45608W        W10868  20.164  29.109  14.433
45609W        W10869  18.041   8.963  14.612
45610W        W10870  21.737  44.864   4.427
45611W        W10871  18.480  36.429  12.197
45612W        W10872  42.785  14.910  11.938
45613W        W10873  39.065  36.816   3.826
45614W        W10874  33.207  26.012   3.295
45615W        W10875  44.726  10.430   0.030
45616W        W10876  21.722  30.357   0.966
45617W        W10877  29.723   0.349   2.653
45618W        W10878  29.541  32.308   4.157
45619W        W10879   7.974   7.946   3.791
45620W        W10880  29.572  22.439   4.200
45621W        W10881  22.736  24.986   3.559
45622W        W10882   4.319  21.005   2.657
45623W        W10883  12.358  33.428  13.853
45624W        W10884  29.636  42.998   2.542
45625W        W10885   3.431  32.924   1.386
45626W        W10886  38.319  14.241   3.712
45627W        W10887  29.690  14.340   1.812
45628W        W10888  32.138  15.088  10.440
45629W        W10889   7.573  40.826  12.993
45630W        W10890  16.267   1.980   2.121
45631W        W10891  32.867  33.597  13.727
45632W        W10892  42.046  18.749  12.411
45633W        W10893  43.368  40.992  10.990
45634W        W10894  42.828  38.276   0.250
45635W        W10895  16.512   2.513   3.287
45636W        W10896  27.908  41.039  13.049
45637W        W10897   9.243  14.487   4.432
45638W        W10898  21.774  15.066  14.816
45639W        W10899  20.081   6.759   3.575
45640W        W10900  37.840  42.504  10.575
45641W        W10901  36.037  15.718  14.942
45642W        W10902   1.521   2.714  11.681
45643W        W10903  34.851  32.190   0.870
45644W        W10904   1.714  16.109   0.746
45645W        W10905  24.717  19.585  12.546
45646W        W10906  44.501  39.242   0.840
45647W        W10907   6.084  12.320   1.740
45648W        W10908  17.319  25.748  13.925
45649W        W10909  27.952  42.044  11.097
45650W        W10910  43.716  14.129  11.684
45651W        W10911   8.294  11.630  11.614
45652W        W10912  34.592  21.110  10.741
45653W        W10913   1.425   5.745   4.850
45654W        W10914  21.557  35.524  13.180
45655W        W10915  44.813  41.650  10.768
45656W        W10916   1.855  20.974  12.541
45657W        W10917  41.302  16.615   3.244
45658W        W10918  31.164  23.954   5.482
45659W        W10919  19.883  14.341  12.122
45660W        W10920  19.329  25.606   0.998
45661W        W10921  14.331  28.078  13.049
45662W        W10922  14.628   5.662   4.106
45663W        W10923  18.208  42.020  11.928
45664W        W10924   9.762  11.711   1.797
45665W        W10925  29.812  19.680  10.721
45666W        W10926  44.355   8.541   4.354
45667W        W10927  10.803   1.270   4.425
45668W        W10928  43.801  29.263  12.480
45669W        W10929   5.034  40.746   4.087
45670W        W10930  14.355  33.375  13.353
45671W        W10931  12.138  34.042   4.122
45672W        W10932  30.880  44.261   0.842
45673W        W10933  33.464  23.816  12.391
45674W        W10934  38.497  36.316  11.947
45675W        W10935  35.544  19.654  13.532
45676W        W10936   9.639  20.607  11.420
45677W        W10937   5.324  17.752  12.914
45678W        W10938  36.140   3.541  11.815
45679W        W10939  24.562  25.710  11.626
45680W        W10940  32.608  11.686  13.417
45681W        W10941  19.811  43.305   4.344
45682W        W10942  39.058   7.850   1.095
45683W        W10943  13.278  22.981   2.790
45684W        W10944  41.479   3.021   2.446
45685W        W10945   6.408  13.391  11.665
45686W        W10946  25.434  41.078   0.533
45687W        W10947  18.224  43.922  13.886
45688W        W10948  15.787   6.281   4.578
45689W        W10949   1.837  42.391   1.427
45690W        W10950  15.138  44.446  11.926
45691W        W10951  44.134   6.866   1.770
45692W        W10952  14.729  13.612  14.312
45693W        W10953  35.246  23.433   9.790
45694W        W10954  30.406  33.985  14.691
45695W        W10955  42.217  12.857  10.606
45696W        W10956  15.787   0.787  14.100
45697W        W10957  13.729   0.283   2.618
45698W        W10958   7.322  19.830  10.604
45699W        W10959   2.338  37.602   2.387
45700W        W10960  39.395  16.122  12.587
45701W        W10961  36.629  32.818  12.641
45702W        W10962  29.697  37.074  11.911
45703W        W10963   5.259  17.474   1.804
45704W        W10964   1.434  21.800  13.804
45705W        W10965   4.850   5.810  12.683
45706W        W10966  26.407  19.771   0.011
45707W        W10967  36.442   5.457  13.982
45708W        W10968   8.174  26.450   3.135
45709W        W10969  31.177  16.547   1.027
45710W        W10970  33.961   2.532  13.341
45711W        W10971  11.126  32.040   2.340
45712W        W10972  37.636  21.746  11.179
45713W        W10973  44.895   2.267   4.008
45714W        W10974   0.436  26.662   2.801
45715W        W10975  24.984  29.243  13.551
45716W        W10976  19.597   2.693   2.816
45717W        W10977  31.618  44.631   1.263
45718W        W10978  21.036  19.233   3.323
45719W        W10979   1.391  29.270  10.596
45720W        W10980   9.717  16.267   2.589
45721W        W10981   8.931  37.594  10.496
45722W        W10982  10.624   5.436  12.073
45723W        W10983  31.124  16.709   4.100
45724W        W10984  35.118  38.862   2.275
45725W        W10985   7.633  17.607  10.436
45726W        W10986   1.209   2.500   3.217
45727W        W10987  33.647   4.428  13.867
45728W        W10988  17.081  19.761   3.122
45729W        W10989   5.200  31.058   3.315
45730W        W10990  28.402  17.735   0.925
45731W        W10991  38.929  23.529  11.974
45732W        W10992   2.695  37.907   2.205
45733W        W10993  24.440   4.590  13.974
45734W        W10994  44.361  16.436   4.644
45735W        W10995  43.978  43.009  14.989
45736W        W10996  20.429  19.691   0.782
45737W        W10997   9.757  28.424  14.069
45738W        W10998  42.744   3.794   0.190
45739W        W10999  10.139  44.328   0.952
45740W        W11000  32.881  42.868  12.042
45741W        W11001  44.417  13.048  13.396
45742W        W11002  35.630  37.364   4.418
45743W        W11003  31.419  30.169   2.328
45744W        W11004  39.858  23.241  10.731
45745W        W11005  12.854  41.827  14.298
45746W        W11006  36.113   4.790  13.937
45747W        W11007   0.830  23.271  11.187
45748W        W11008  17.186   7.383   4.750
45749W        W11009  32.198  24.227  10.338
45750W        W11010  38.511   9.172   0.149
45751W        W11011  27.592  32.627   3.783
45752W        W11012  30.939  30.765   4.258
45753W        W11013  20.578  40.081  11.638
45754W        W11014   3.653   9.708  13.998
45755W        W11015  37.749  36.103   4.826
45756W        W11016   8.792  15.574  12.093
45757W        W11017  25.815  10.774  10.996
45758W        W11018  19.683  30.394   4.415
45759W        W11019  40.812  30.542  11.131
45760W        W11020  33.351  34.630  13.508
45761W        W11021  31.106   6.981  13.914
45762W        W11022  40.949  30.003   4.194
45763W        W11023  34.777  31.452   4.182
45764W        W11024  44.888  28.649   1.755
45765W        W11025  35.273  35.132   2.961
45766W        W11026  32.022  19.255  11.627
45767W        W11027  22.731  43.941  13.987
45768W        W11028  29.905  33.399  10.220
45769W        W11029  15.060   8.425   3.150
45770W        W11030  27.137  35.566   0.422
45771W        W11031  26.999  26.273  10.679
45772W        W11032  23.924  16.613   3.488
45773W        W11033   3.350  39.264   4.656
45774W        W11034  29.968  12.575  14.104
45775W        W11035  20.006   6.720  11.664
45776W        W11036   3.771  31.368  11.210
45777W        W11037  24.414   7.147   5.131
45778W        W11038  23.834  16.327  10.591
45779W        W11039  25.541  20.770  11.224
45780W        W11040  35.356  22.154   3.740
45781W        W11041  26.521  19.057   1.565
45782W        W11042  29.033   0.358   1.385
45783W        W11043  15.215  29.079   3.232
45784W        W11044   5.192  24.532   4.540
45785W        W11045  22.150  16.041   1.874
45786W        W11046  44.362   5.171   2.740
45787W        W11047  11.464   8.853  12.465
45788W        W11048   1.923  21.781  13.501
45789W        W11049  24.948   7.444   2.613
45790W        W11050  24.279  34.641  11.505
45791W        W11051  34.011  40.523   1.772
45792W        W11052  35.049   1.290  12.910
45793W        W11053  38.383   1.699  13.343
45794W        W11054   9.911  33.683   0.293
45795W        W11055   6.765   9.723   3.537
45796W        W11056  17.268  38.446   4.438
45797W        W11057   6.686  25.079   2.643
45798W        W11058   0.486  38.322  11.162
45799W        W11059   9.331   1.946  14.363
45800W        W11060  28.129  34.673  12.004
45801W        W11061  21.557  20.101   0.442
45802W        W11062  43.764  37.359  12.975
45803W        W11063  30.186  44.400  13.335
45804W        W11064  18.942   6.965   2.737
45805W        W11065  16.685   8.801  14.600
45806W        W11066  11.239  20.453  12.230
45807W        W11067  12.297   8.636  12.620
45808W        W11068  35.936  39.669  12.694
45809W        W11069  33.601  13.166   1.858
45810W        W11070  41.869  36.814   4.459
45811W        W11071  29.952  20.703  13.044
45812W        W11072  20.095   0.909   4.499
45813W        W11073  26.400  35.067  13.092
45814W        W11074  32.979  36.228   2.383
45815W        W11075  18.163  32.870   3.740
45816W        W11076  27.477   2.688   0.411
45817W        W11077  42.905  43.316  14.841
45818W        W11078  42.091  12.844  12.527
45819W        W11079  27.249  21.177   1.928
45820W        W11080  30.612  13.793  10.929
45821W        W11081  15.580  10.668  11.060
45822W        W11082   8.681  43.023   2.353
45823W        W11083  26.535  41.407  11.530
45824W        W11084  27.815   5.224   4.762
45825W        W11085  17.721  31.976  14.837
45826W        W11086  27.094  15.842  12.884
45827W        W11087  13.779  10.402   1.395
45828W        W11088  14.124  32.068  11.185
45829W        W11089  17.483  36.440  14.415
45830W        W11090  18.164  26.496  12.676
45831W        W11091  27.563  12.161   2.172
45832W        W11092  30.891   5.678   3.281
45833W        W11093  44.867  13.189   5.407
45834W        W11094  18.702  27.034  14.457
45835W        W11095   0.942  34.599   4.131
45836W        W11096   3.907  33.008   3.876
45837W        W11097  23.956  21.615   0.184
45838W        W11098  16.134  42.145   4.914
45839W        W11099  21.394  13.297   2.914
45840W        W11100  14.331  11.819  13.126
45841W        W11101  10.933  18.896  14.266
45842W        W11102   3.261  38.171   0.344
45843W        W11103  35.723  40.486  14.186
45844W        W11104  26.428  38.452  14.305
45845W        W11105  37.668   5.201  10.801
45846W        W11106   8.722  13.819  12.905
45847W        W11107  21.714  29.445   2.979
45848W        W11108  42.129  18.508  13.396
45849W        W11109  10.303  42.421   0.965
45850W        W11110  12.103  29.181   1.241
45851W        W11111   6.416  13.581  11.183
45852W        W11112   8.430   1.893  14.872
45853W        W11113   5.690   1.904  12.850
45854W        W11114  41.557  21.466   2.646
45855W        W11115  35.401  23.995  13.958
45856W        W11116  12.908  23.711  10.693
45857W        W11117  19.184   5.820  10.894
45858W        W11118   2.454   1.030   0.759
45859W        W11119  36.950  24.757   1.006
45860W        W11120  37.757  42.958  12.222
45861W        W11121   7.377  19.104  11.225
45862W        W11122  44.762   6.704  14.522
45863W        W11123  39.118  26.711  14.292
45864W        W11124  25.907   4.627  11.401
45865W        W11125  10.862  16.257   1.843
45866W        W11126  37.425  43.382   5.101
45867W        W11127  44.637  24.929  13.536
45868W        W11128  21.763  35.186   4.158
45869W        W11129  19.904   7.510   1.949
45870W        W11130  38.519  37.841  14.399
45871W        W11131  44.567  40.445   4.152
45872W        W11132  44.378   7.542   4.017
45873W        W11133   3.281  38.589  12.457
45874W        W11134  44.367   9.748  12.979
45875W        W11135  37.996  21.137   1.328
45876W        W11136  37.447  42.032  14.739
45877W        W11137  38.747  24.682   1.950
45878W        W11138   9.868  15.784   2.440
45879W        W11139   1.165  18.363  12.986
45880W        W11140  18.265  32.561   4.473
45881W        W11141   1.939  28.153  10.190
45882W        W11142  33.000   7.453  12.005
45883W        W11143  23.130  32.037   0.955
45884W        W11144  16.362  34.170   4.535
45885W        W11145  41.265  30.849  14.381
45886W        W11146  27.395  20.085   4.417
45887W        W11147  33.441  31.812   3.703
45888W        W11148  38.996  18.445  11.918
45889W        W11149  42.504   0.358   4.189
45890W        W11150  35.573  10.107  12.990
45891W        W11151  35.048  35.909  13.325
45892W        W11152  42.819  18.133  11.163
45893W        W11153   5.649  29.446  14.302
45894W        W11154   7.436   2.438   1.293
45895W        W11155  33.978  18.053  14.761
45896W        W11156  43.468  32.453  12.506
45897W        W11157  42.566  39.901   1.426
45898W        W11158  23.177  23.642   4.198
45899W        W11159  13.718  26.603   2.728
45900W        W11160  39.353   6.243   2.845
45901W        W11161  29.619   7.459   4.347
45902W        W11162  34.467  31.182   2.592
45903W        W11163  21.816   1.257   1.361
45904W        W11164  31.889  31.463  11.741
45905W        W11165   9.256  24.648  12.179
45906W        W11166   2.066   7.192   4.617
45907W        W11167  32.520   9.015   3.596
45908W        W11168  40.767  21.173   0.832
45909W        W11169  29.739   9.771   0.936
45910W        W11170  35.500  38.987  13.234
45911W        W11171  21.249  23.695   3.661
45912W        W11172  34.900  12.569   0.944
45913W        W11173  10.969  14.926   3.760
45914W        W11174   4.939  23.484  12.043
45915W        W11175  18.399   2.785  14.094
45916W        W11176  30.236   5.776  12.679
45917W        W11177  39.454   9.068  11.657
45918W        W11178  11.399  11.883   4.842
45919W        W11179   0.718  41.469   4.223
45920W        W11180   5.781   5.921  13.735
45921W        W11181   4.894   3.751   2.174
45922W        W11182   2.020  26.686  13.812
45923W        W11183  31.371  29.056  11.429
45924W        W11184   8.693  40.698  11.010
45925W        W11185  26.254  33.891   4.608
45926W        W11186  12.751  26.768   3.082
45927W        W11187  40.658  21.356  10.793
45928W        W11188  29.892  28.101  10.669
45929W        W11189  20.028  26.210   4.711
45930W        W11190  11.326  18.906   2.134
45931W        W11191  26.012   0.137  14.938
45932W        W11192   6.708  41.555   3.264
45933W        W11193   5.144   7.312   2.625
45934W        W11194  23.068  38.806  12.350
45935W        W11195  39.918   9.675   1.293
45936W        W11196  18.287   9.847  12.162
45937W        W11197  18.603  23.561  14.953
45938W        W11198   5.885   9.821   2.760
45939W        W11199  23.046  34.132  13.696
45940W        W11200  29.939  14.353  11.962
45941W        W11201  41.027  38.976  13.972
45942W        W11202  22.941   6.326   2.301
45943W        W11203  34.926  35.505   3.129
45944W        W11204  33.967  42.855  11.320
45945W        W11205  39.128  18.608   4.493
45946W        W11206  20.165  44.829  14.034
45947W        W11207  22.053  27.005  13.749
45948W        W11208  40.502  19.184   4.692
45949W        W11209  26.894   2.033   4.097
45950W        W11210   8.062  10.174  13.511
45951W        W11211  31.575  14.723   1.013
45952W        W11212  28.482  11.464   1.221
45953W        W11213  41.912  27.482   0.744
45954W        W11214  27.825  37.656   4.998
45955W        W11215   3.509   8.409   3.662
45956W        W11216  18.771  31.220   0.809
45957W        W11217  36.992  28.133   0.389
45958W        W11218  19.496  34.767  13.451
45959W        W11219  15.679   9.876   4.281
45960W        W11220   1.755  11.223  13.734
45961W        W11221  20.765   0.068  11.073
45962W        W11222   1.165  29.256  11.534
45963W        W11223  31.528  37.707  14.489
45964W        W11224  37.511  31.931   1.368
45965W        W11225  18.972  19.111  12.394
45966W        W11226  39.865  27.101   4.844
45967W        W11227  39.525  38.850   3.942
45968W        W11228   7.628  15.634   2.802
45969W        W11229  30.993  38.634  10.589
45970W        W11230   2.857  14.710  10.305
45971W        W11231  17.700  26.792  13.023
45972W        W11232   1.015   7.751   3.196
45973W        W11233  24.954  36.789  14.833
45974W        W11234  23.955  11.906   3.752
45975W        W11235  16.567  28.722  11.064
45976W        W11236  41.046   9.890   0.431
45977W        W11237  33.312  27.116  14.878
45978W        W11238  17.783  10.060   1.371
45979W        W11239  16.089  22.805  10.403
45980W        W11240  18.154  42.245  11.054
45981W        W11241  11.619  37.834  12.561
45982W        W11242  33.635  15.738   0.329
45983W        W11243  15.761  25.649  11.750
45984W        W11244  31.901  14.606  14.857
45985W        W11245  37.981   9.329  12.695
45986W        W11246  31.006  34.045  12.564
45987W        W11247  26.102   2.502  10.498
45988W        W11248   8.928  35.580  13.438
45989W        W11249  32.892  43.395  12.107
45990W        W11250  30.854  38.092  13.493
45991W        W11251   2.183  22.606   9.838
45992W        W11252  13.497  33.311   1.146
45993W        W11253  42.570   0.201   3.703
45994W        W11254  44.079  37.347   0.295
45995W        W11255  25.494  30.743   1.842
45996W        W11256   2.393  25.113   1.151
45997W        W11257  38.447   6.485   2.427
45998W        W11258  33.325   4.213   4.040
45999W        W11259  34.364  17.708  11.302
46000W        W11260  39.295  42.417   2.317
46001W        W11261   0.380  34.283  11.825
46002W        W11262  27.229  33.748  11.176
46003W        W11263  12.303   6.386  12.003
46004W        W11264  23.162   9.369  10.252
46005W        W11265  36.398  28.701   0.144
46006W        W11266  12.690   1.366  12.679
46007W        W11267  20.262   2.204  10.732
46008W        W11268  44.765  41.940   4.158
46009W        W11269  27.150   3.925  13.104
46010W        W11270  11.332  44.912   0.080
46011W        W11271   0.876   9.908   4.008
46012W        W11272  19.699   7.778   3.036
46013W        W11273  30.179   1.279   3.686
46014W        W11274  20.061  42.871  12.841
46015W        W11275   6.018  10.720  14.570
46016W        W11276  38.651  36.354  14.341
46017W        W11277  35.055  24.733  12.093
46018W        W11278  29.012   9.402  13.012
46019W        W11279  17.123   1.708   1.570
46020W        W11280  10.243  15.501   4.131
46021W        W11281  19.062   0.262   3.819
46022W        W11282  40.735  38.295   2.876
46023W        W11283  18.278   1.190  11.758
46024W        W11284  14.136  34.068  11.992
46025W        W11285  40.476  38.259   4.164
46026W        W11286  29.643  10.438  14.289
46027W        W11287  25.563  32.418  12.134
46028W        W11288  36.568  20.185   4.371
46029W        W11289   7.429  19.452   2.614
46030W        W11290  30.513   2.790  13.496
46031W        W11291  36.325  22.689   0.435
46032W        W11292   7.948   2.779  14.324
46033W        W11293  18.826   2.283  11.075
46034W        W11294  23.035   2.900  13.821
46035W        W11295  30.709  23.164   2.242
46036W        W11296  28.255  21.339  11.176
46037W        W11297  16.574   6.648  11.055
46038W        W11298  15.391   4.158   4.524
46039W        W11299  20.521  41.953  11.171
46040W        W11300  22.871  17.577  12.183
46041W        W11301  41.197  14.868   1.159
46042W        W11302  38.481   3.739  13.394
46043W        W11303  24.549   6.876  12.791
46044W        W11304  10.415  27.598   3.182
46045W        W11305  12.095   1.995  10.708
46046W        W11306  33.326  37.980   2.427
46047W        W11307  15.588  14.461  10.726
46048W        W11308  17.849   5.274  14.415
46049W        W11309  16.419   6.395   1.730
46050W        W11310  14.240   4.748   5.020
46051W        W11311  22.956  25.222   0.337
46052W        W11312  37.107  35.209  13.898
46053W        W11313  23.714  11.638  12.094
46054W        W11314  29.586   1.376   2.852
46055W        W11315  33.077   9.267  14.350
46056W        W11316  11.252  41.977   2.501
46057W        W11317  16.234   4.493   0.475
46058W        W11318  32.799  13.673  11.686
46059W        W11319   4.848  17.693   2.625
46060W        W11320  10.353  41.832  14.655
46061W        W11321   4.804  27.609   3.024
46062W        W11322   1.026  16.772   1.788
46063W        W11323  18.860  30.224  12.849
46064W        W11324  31.023  21.039  14.323
46065W        W11325  44.765  15.808   2.196
46066W        W11326   7.816   1.865  13.515
46067W        W11327  29.928  23.655   1.778
46068W        W11328  10.059   0.933  14.887
46069W        W11329  34.308  12.164   1.427
46070W        W11330  26.514  31.928   3.659
46071W        W11331  11.562   7.185  13.833
46072W        W11332  13.768  24.460   0.091
46073W        W11333  40.188  16.703   0.962
46074W        W11334  22.756  17.617   4.590
46075W        W11335  10.017  30.545  10.199
46076W        W11336  33.988  19.782  14.588
46077W        W11337  16.185   6.910   2.912
46078W        W11338  17.103   7.936   0.886
46079W        W11339  25.720  27.187  11.986
46080W        W11340  31.439  18.016  12.127
46081W        W11341  10.453  41.033   0.200
46082W        W11342  18.700   6.311   4.495
46083W        W11343  15.845  26.212  12.477
46084W        W11344  26.529   2.391   2.186
46085W        W11345  24.958  16.286  14.309
46086W        W11346  38.234  28.696  13.527
46087W        W11347  32.093  35.405  10.768
46088W        W11348  31.913   9.130   3.301
46089W        W11349  19.548  36.556   4.639
46090W        W11350  21.728  19.559   2.285
46091W        W11351  37.563  27.232  12.026
46092W        W11352  41.243  33.184  10.946
46093W        W11353   3.378  33.033  11.581
46094W        W11354  22.970  40.571   0.001
46095W        W11355  30.200  20.661  11.701
46096W        W11356   5.589  10.376  11.599
46097W        W11357  37.475   9.227   0.507
46098W        W11358  15.954   0.470  10.744
46099W        W11359  37.401  20.923   3.134
46100W        W11360  22.035  17.088   1.821
46101W        W11361  19.355  32.919   1.304
46102W        W11362   1.944   6.405   2.149
46103W        W11363  13.727  26.584  12.500
46104W        W11364  10.763  32.613   0.322
46105W        W11365  14.620  19.330   2.215
46106W        W11366  39.398  14.382   3.269
46107W        W11367  31.407  22.493   0.883
46108W        W11368  12.200  28.563   4.195
46109W        W11369   0.211   3.520  14.029
46110W        W11370  15.622   7.795  11.424
46111W        W11371  22.167  35.944  14.160
46112W        W11372  19.735  11.344   0.656
46113W        W11373  30.143  41.331   1.631
46114W        W11374  12.823  36.085   2.690
46115W        W11375   5.463   1.242   2.406
46116W        W11376  30.152  19.519   1.703
46117W        W11377  12.693  43.177  14.143
46118W        W11378  26.510  36.326   0.494
46119W        W11379  37.279  11.088   4.173
46120W        W11380  22.235  18.233  12.924
46121W        W11381  28.029  23.696  12.370
46122W        W11382  22.689   0.400  10.632
46123W        W11383  26.128  40.887  14.627
46124W        W11384   7.625   0.044  14.312
46125W        W11385  33.562  21.538   2.481
46126W        W11386  28.969  37.111   1.671
46127W        W11387  13.251  32.440  10.993
46128W        W11388  27.057  12.128   4.443
46129W        W11389  38.389  36.480   1.695
46130W        W11390  39.427  24.697  14.418
46131W        W11391  36.875   3.340  11.743
46132W        W11392  38.650  43.353  11.270
46133W        W11393   8.170   0.527  12.067
46134W        W11394   4.502  17.182   0.482
46135W        W11395  24.450  33.207   3.579
46136W        W11396  17.696  40.420   1.761
46137W        W11397  17.485  40.079  11.860
46138W        W11398  20.759  19.282   5.097
46139W        W11399  44.077  15.812  12.123
46140W        W11400  19.687  20.551  13.084
46141W        W11401  27.693  19.646  12.152
46142W        W11402  41.858  24.512   0.701
46143W        W11403  31.639  17.342  13.963
46144W        W11404  38.126  44.545   1.280
46145W        W11405  31.663  26.157   3.094
46146W        W11406   6.847  39.376  14.456
46147W        W11407  42.237   1.820  12.902
46148W        W11408   4.041   5.734   0.839
46149W        W11409   6.950  23.172   0.405
46150W        W11410  33.568   6.233   0.913
46151W        W11411  11.855  15.401   4.222
46152W        W11412  16.395  29.364  12.042
46153W        W11413  26.966  31.800  13.942
46154W        W11414  16.521  25.248  11.021
46155W        W11415  30.410   3.247  11.608
46156W        W11416  38.281  23.818   4.108
46157W        W11417  11.250  14.569   3.185
46158W        W11418  32.852  13.266  13.453
46159W        W11419  12.855  38.848  10.373
46160W        W11420   5.873  12.604   3.495
46161W        W11421  38.362   4.186   4.268
46162W        W11422   6.770  35.624   2.299
46163W        W11423  11.234  42.342   1.423
46164W        W11424   1.344  31.899   0.212
46165W        W11425  16.335   5.463  13.334
46166W        W11426   9.469   6.805  13.811
46167W        W11427  10.229   1.232  12.485
46168W        W11428  10.190  16.531   1.296
46169W        W11429  22.609  13.741   2.397
46170W        W11430  34.136  36.943   3.654
46171W        W11431  37.136   0.919  12.095
46172W        W11432  11.801  10.275  13.739
46173W        W11433   8.156   8.160  14.909
46174W        W11434   4.620   3.376   5.078
46175W        W11435  15.847  35.510   0.380
46176W        W11436  29.432  13.108  10.765
46177W        W11437  13.176  27.213   1.744
46178W        W11438  25.114  35.186  12.377
46179W        W11439  43.076  41.276  12.979
46180W        W11440  18.083  25.944   4.423
46181W        W11441  41.234   9.852  12.392
46182W        W11442  35.388  20.505  12.412
46183W        W11443   3.194   4.904  13.409
46184W        W11444  33.185  38.579  13.926
46185W        W11445  36.021   5.750  11.049
46186W        W11446  36.543  10.219  13.842
46187W        W11447  22.308  19.071  14.887
46188W        W11448  20.667  27.212   0.860
46189W        W11449  21.543  16.663   4.401
46190W        W11450   2.894   2.428  14.991
46191W        W11451  43.320   9.237  11.082
46192W        W11452  22.537  29.615   1.146
46193W        W11453  24.099  41.811  11.154
46194W        W11454   6.486  10.341  10.733
46195W        W11455   7.198  15.132  11.050
46196W        W11456  27.581  20.068  14.564
46197W        W11457  21.770  38.467  13.297
46198W        W11458  22.067  11.152   4.043
46199W        W11459  28.683  25.603  12.032
46200W        W11460   9.445  38.755   3.728
46201W        W11461   2.658  29.944   4.402
46202W        W11462  33.771   1.599   9.648
46203W        W11463  22.509  13.274  11.467
46204W        W11464  18.277  29.741  12.040
46205W        W11465  44.382   2.954  14.446
46206W        W11466  39.783  19.761   0.245
46207W        W11467  35.478   6.023   2.739
46208W        W11468  25.942  41.919  10.496
46209W        W11469  35.055  30.607  10.464
46210W        W11470  39.053   9.235   0.376
46211W        W11471  33.572  11.806   4.209
46212W        W11472  29.481  27.310   3.292
46213W        W11473  28.938   3.304   3.233
46214W        W11474  13.964  23.997  14.957
46215W        W11475  16.725  31.166  13.848
46216W        W11476  38.542  39.382   0.856
46217W        W11477  28.090  30.999   1.354
46218W        W11478  14.672  42.756   2.297
46219W        W11479   0.761  38.836   9.971
46220W        W11480  36.372   8.158  10.489
46221W        W11481  40.886  18.022  14.734
46222W        W11482  11.087  41.807   3.766
46223W        W11483   8.358  42.364  12.050
46224W        W11484  39.858  34.093   0.980
46225W        W11485   1.949  23.002  11.668
46226W        W11486   0.542  26.744  12.021
46227W        W11487  17.216  39.769  13.815
46228W        W11488  18.125  26.909   4.441
46229W        W11489   0.258  26.728  13.473
46230W        W11490  10.954  36.611  13.848
46231W        W11491  32.690  34.094   1.207
46232W        W11492  16.580  34.640   3.156
46233W        W11493  41.463  42.330   1.642
46234W        W11494  34.837   3.106   1.159
46235W        W11495  36.733  42.186  11.421
46236W        W11496  12.230   0.880  13.671
46237W        W11497  42.141  36.327   2.698
46238W        W11498  31.968   3.757   5.017
46239W        W11499  34.128  39.003   3.231
46240W        W11500  36.155  29.892  12.924
46241W        W11501  24.126  17.503  11.918
46242W        W11502  38.297   2.701   2.720
46243W        W11503   0.783  23.383   0.950
46244W        W11504  20.470  31.068   1.429
46245W        W11505  22.689  27.754   0.913
46246W        W11506  27.013  12.073   1.451
46247W        W11507   9.814  18.968   3.374
46248W        W11508  44.737  16.818  13.394
46249W        W11509  36.366  23.543   0.609
46250W        W11510   6.128   6.337  14.669
46251W        W11511  40.640  34.372  12.094
46252W        W11512  38.361   8.152  13.466
46253W        W11513  44.326  43.839  11.183
46254W        W11514   1.266  10.267  10.677
46255W        W11515  38.842  20.330   0.229
46256W        W11516   1.296  11.788  12.044
46257W        W11517  28.901  28.874  13.347
46258W        W11518  16.312   4.620   3.609
46259W        W11519  40.425   0.058   1.676
46260W        W11520  38.898  20.256  12.469
46261W        W11521  33.303  15.161   2.277
46262W        W11522   6.583  28.663   0.753
46263W        W11523   5.762  27.709  12.780
46264W        W11524  14.629  31.450  13.141
46265W        W11525  22.393  33.048   3.733
46266W        W11526   7.718  13.682   2.201
46267W        W11527  15.219  17.080   4.658
46268W        W11528   0.753   3.773  10.660
46269W        W11529  34.004  32.156  13.311
46270W        W11530  40.508  39.292   1.881
46271W        W11531  37.352  31.596  14.217
46272W        W11532  12.261  20.864   5.110
46273W        W11533  19.642  33.658   2.748
46274W        W11534  18.781  36.716  12.538
46275W        W11535  33.079  19.930   1.479
46276W        W11536  43.677  24.101   4.115
46277W        W11537   1.687  30.019  10.497
46278W        W11538  37.893  40.045  13.381
46279W        W11539  37.795  29.986  11.650
46280W        W11540  27.133  29.547   2.720
46281W        W11541  39.509  10.006   2.314
46282W        W11542  32.852   0.952  11.153
46283W        W11543  19.893  44.389   3.218
46284W        W11544  32.648  22.152  11.534
46285W        W11545  30.113  12.080   2.683
46286W        W11546   1.874  31.925   0.819
46287W        W11547  29.898  36.528   4.159
46288W        W11548  28.503  23.168  14.421
46289W        W11549  20.534   7.025   2.218
46290W        W11550  20.736   5.913  12.458
46291W        W11551  16.282  33.163   2.390
46292W        W11552  15.272  10.281   3.599
46293W        W11553  16.264  26.834   4.176
46294W        W11554   0.966  41.297   4.651
46295W        W11555  42.165  23.696   0.472
46296W        W11556  14.879  43.904  12.908
46297W        W11557  14.771   5.339   3.683
46298W        W11558  17.613  18.200   2.464
46299W        W11559  33.038  42.452   0.796
46300W        W11560  33.856  34.584  13.509
46301W        W11561   4.109  13.418  12.147
46302W        W11562  34.507  12.117   4.127
46303W        W11563  41.775  31.276   3.785
46304W        W11564   8.977  35.319  14.889
46305W        W11565  37.050  32.474   3.832
46306W        W11566  36.428  37.312   0.005
46307W        W11567  40.640  42.718   4.380
46308W        W11568  15.212   9.180   3.912
46309W        W11569   9.253  39.242   1.387
46310W        W11570  42.650  15.294  11.158
46311W        W11571  24.542  25.673   1.738
46312W        W11572  23.627  18.765   3.203
46313W        W11573  23.648  41.588  10.975
46314W        W11574   1.850  37.768   2.278
46315W        W11575  30.249  24.554   2.160
46316W        W11576   7.070  17.804   1.835
46317W        W11577  26.217   3.163  11.141
46318W        W11578  30.988  43.219   0.956
46319W        W11579  21.502  34.548  12.479
46320W        W11580  38.378  39.801  12.699
46321W        W11581  39.647  15.671   2.571
46322W        W11582   8.259  35.187   4.977
46323W        W11583   4.745   5.230  13.382
46324W        W11584  28.603  43.626   4.271
46325W        W11585  39.989   6.202   2.402
46326W        W11586   8.158  32.705  11.738
46327W        W11587  17.567   4.262  11.952
46328W        W11588  41.251  44.239  14.417
46329W        W11589  25.676   8.756   1.805
46330W        W11590  39.364  23.035  10.660
46331W        W11591   8.601  33.219  13.723
46332W        W11592  27.923  44.343   2.171
46333W        W11593  31.964  11.622  12.932
46334W        W11594  43.393  41.691   4.332
46335W        W11595   1.214  10.887   4.067
46336W        W11596  20.074  23.511  12.389
46337W        W11597  39.023  27.173  10.344
46338W        W11598  10.316  33.405   3.672
46339W        W11599  29.070  37.859  12.123
46340W        W11600  20.023   8.389  11.545
46341W        W11601  20.593  41.313  12.963
46342W        W11602  24.299  30.766   4.531
46343W        W11603   1.521   6.798  12.202
46344W        W11604  42.893   3.346   2.308
46345W        W11605  35.381  36.559  13.828
46346W        W11606  10.461  20.207   2.286
46347W        W11607  23.092  32.917   2.817
46348W        W11608   8.385   3.976  14.341
46349W        W11609  26.446  38.968  11.439
46350W        W11610   8.352  17.693   0.233
46351W        W11611  20.323  34.907  12.875
46352W        W11612  37.881  36.605  14.933
46353W        W11613  30.539  23.339   1.253
46354W        W11614  35.837   5.854   0.264
46355W        W11615   9.415  41.354   1.245
46356W        W11616  17.933  17.759   5.047
46357W        W11617   3.697  25.552  14.232
46358W        W11618   7.913   6.372  11.195
46359W        W11619  35.184   6.335   2.426
46360W        W11620  14.188   0.690   3.578
46361W        W11621  18.686  40.486  14.510
46362W        W11622  33.626  26.240  13.528
46363W        W11623   0.839  28.409   0.442
46364W        W11624  23.229  32.842   4.669
46365W        W11625  29.604   3.851  14.524
46366W        W11626  22.773  32.439   1.164
46367W        W11627  40.213  12.615  13.865
46368W        W11628   2.276  19.198   3.876
46369W        W11629  33.880  37.123  13.934
46370W        W11630  33.708  22.564   1.259
46371W        W11631   1.982  37.966  12.105
46372W        W11632   8.487  15.513   2.345
46373W        W11633  18.129  15.187   4.075
46374W        W11634  30.706   6.835   3.690
46375W        W11635   7.416  21.787   3.821
46376W        W11636  38.941  17.092  14.384
46377W        W11637  40.987  39.603   0.893
46378W        W11638   5.896  10.131  11.972
46379W        W11639  32.824   2.793   3.354
46380W        W11640  43.296  35.327  13.464
46381W        W11641  24.684  37.628   1.368
46382W        W11642  44.814  27.616  14.213
46383W        W11643  26.669  25.472   0.435
46384W        W11644   9.655  32.903  11.167
46385W        W11645  38.088  21.160  14.329
46386W        W11646  26.602   0.851   2.380
46387W        W11647   6.127  16.751   2.173
46388W        W11648   0.455  43.002   3.539
46389W        W11649  21.018  38.045  11.527
46390W        W11650   1.384   8.680   1.302
46391W        W11651  35.914  43.628   1.206
46392W        W11652   1.941  25.193  12.097
46393W        W11653  43.721  13.443  11.186
46394W        W11654  26.023  22.222   3.338
46395W        W11655   2.352   9.675  10.999
46396W        W11656   1.310   9.227  13.916
46397W        W11657  11.596  30.214   0.023
46398W        W11658   2.210   7.461  14.334
46399W        W11659  44.254   2.115   3.412
46400W        W11660  21.543   4.180   5.399
46401W        W11661   0.571  40.355   3.118
46402W        W11662  15.726  31.402  13.118
46403W        W11663  38.450   5.212   4.760
46404W        W11664   3.101   4.042   0.434
46405W        W11665  15.185  42.662   4.892
46406W        W11666   3.487  28.676  14.394
46407W        W11667  27.834  38.270   2.164
46408W        W11668  29.034  24.484  14.413
46409W        W11669   6.406  18.457  13.011
46410W        W11670   1.487  37.454  11.619
46411W        W11671  13.716  40.189   0.463
46412W        W11672  10.448  40.944  11.599
46413W        W11673  13.603  44.830  14.798
46414W        W11674  16.109  30.163   4.765
46415W        W11675  16.355  20.543  12.958
46416W        W11676   8.125  35.417  12.470
46417W        W11677  37.644  14.722   1.359
46418W        W11678  12.464  17.764  12.955
46419W        W11679  27.550  21.773   0.758
46420W        W11680  42.002  42.072  13.095
46421W        W11681  41.073  39.040   3.311
46422W        W11682   3.477  38.532  13.452
46423W        W11683   8.641  13.407   0.728
46424W        W11684  29.970  28.684   2.780
46425W        W11685   9.240  10.758  12.504
46426W        W11686  15.161  18.264   2.643
46427W        W11687  39.767   9.837  12.106
46428W        W11688  41.527  10.139   3.751
46429W        W11689  19.614   4.341  13.553
46430W        W11690  33.987  18.234   3.446
46431W        W11691  28.769  14.718   2.538
46432W        W11692   4.946  28.503  11.195
46433W        W11693  25.982   9.454   2.132
46434W        W11694  19.585  41.405   4.708
46435W        W11695   1.818   0.037   3.209
46436W        W11696  32.821  41.503  13.210
46437W        W11697  12.340  39.082  12.448
46438W        W11698  27.597  21.472   3.965
46439W        W11699  30.487  39.053   3.296
46440W        W11700   5.375  15.627  14.767
46441W        W11701  38.421  20.512  11.341
46442W        W11702  21.631   2.917  11.925
46443W        W11703  43.274  30.472   2.487
46444W        W11704  30.611  14.617  12.065
46445W        W11705  21.955  13.915   3.755
46446W        W11706   5.235  21.149  10.689
46447W        W11707  42.557  44.221  14.013
46448W        W11708   4.968  28.608   0.233
46449W        W11709   6.691  43.341   4.520
46450W        W11710  25.450  23.513  10.965
46451W        W11711  33.502  14.232   2.770
46452W        W11712  24.901  42.797   0.629
46453W        W11713  38.922  25.134  10.178
46454W        W11714  29.858  17.231  11.901
46455W        W11715   8.104  11.154  13.362
46456W        W11716  40.846  19.333  11.629
46457W        W11717  33.537   9.723   0.410
46458W        W11718   1.507   1.726  11.339
46459W        W11719  15.828  19.772  12.866
46460W        W11720  44.991  14.647  11.756
46461W        W11721  10.167   4.859  14.745
46462W        W11722  31.165  11.493   4.069
46463W        W11723   2.163  16.364  14.882
46464W        W11724  44.802  40.988  12.836
46465W        W11725   2.890  12.505  12.055
46466W        W11726  28.096   0.967  12.884
46467W        W11727  37.159   5.090  10.825
46468W        W11728  41.913   9.771   4.689
46469W        W11729   4.701  21.185  12.921
46470W        W11730  27.183  13.938   4.562
46471W        W11731  32.665   0.207   4.247
46472W        W11732  28.130  13.520   0.496
46473W        W11733  14.814  25.470  13.840
46474W        W11734  12.888  19.952  13.015
46475W        W11735  20.843   5.253  13.070
46476W        W11736  20.120  30.968   1.820
46477W        W11737   7.840  31.910   4.503
46478W        W11738  44.867  20.145  14.423
46479W        W11739  20.089  16.078  14.511
46480W        W11740  35.610  44.328   3.999
46481W        W11741  31.963  33.352  10.356
46482W        W11742  31.668  36.894   1.402
46483W        W11743  29.001  31.051   3.137
46484W        W11744   9.564   8.936  11.735
46485W        W11745  44.344  19.172  14.022
46486W        W11746   7.205  41.483  11.250
46487W        W11747  40.917  32.824  12.126
46488W        W11748  14.658   4.136  12.101
46489W        W11749  14.709  34.646   1.841
46490W        W11750  38.888  40.962   4.186
46491W        W11751  13.094  44.722   3.499
46492W        W11752  31.595  21.279   3.210
46493W        W11753   9.854  16.593  12.125
46494W        W11754   6.803   1.558   2.871
46495W        W11755  39.907  38.306  11.105
46496W        W11756  27.734  12.074   1.192
46497W        W11757  28.629   0.545  11.855
46498W        W11758   3.328  35.834   0.981
46499W        W11759  11.134  27.740  13.754
46500W        W11760  43.273  42.878   3.295
46501W        W11761  36.267  28.282   0.936
46502W        W11762  33.935   0.028  14.088
46503W        W11763  41.963  26.752  10.624
46504W        W11764  42.636  31.681  12.092
46505W        W11765  36.064  30.004   4.137
46506W        W11766  28.711  23.450   3.628
46507W        W11767  26.154  40.457   2.654
46508W        W11768  22.734  22.950   2.365
46509W        W11769  14.691   0.733   3.336
46510W        W11770  23.830  24.310   1.174
46511W        W11771  29.633  29.152  13.977
46512W        W11772  23.683  14.604   1.663
46513W        W11773  34.722  31.995  14.946
46514W        W11774   0.209  42.083  14.725
46515W        W11775   0.044  29.384  13.084
46516W        W11776  12.329  28.593  10.693
46517W        W11777  35.007  39.138  14.477
46518W        W11778  24.311   6.736   0.129
46519W        W11779   5.126  43.373  10.608
46520W        W11780   0.957  42.274   1.282
46521W        W11781  30.157  37.885  13.008
46522W        W11782  22.416  29.378  11.784
46523W        W11783   4.680  10.402   2.300
46524W        W11784  21.277  38.950   2.603
46525W        W11785  10.246  22.309  14.463
46526W        W11786  24.291   2.951  12.508
46527W        W11787  24.030  27.546   2.319
46528W        W11788   9.655  19.974  13.059
46529W        W11789  13.708  24.864   2.488
46530W        W11790  43.307  16.282  11.907
46531W        W11791  29.471  25.220  11.541
46532W        W11792  43.931  23.019  12.571
46533W        W11793  31.545  15.765   4.205
46534W        W11794  16.595   1.893   3.981
46535W        W11795  30.321  26.943  14.172
46536W        W11796  41.993  14.009  14.363
46537W        W11797  37.802  27.922   2.435
46538W        W11798  17.165   8.268  11.002
46539W        W11799   2.187   2.281  12.467
46540W        W11800  10.346  33.840  11.096
46541W        W11801  30.899  31.433   1.664
46542W        W11802  11.246  36.271  13.528
46543W        W11803  14.521  39.617   3.655
46544W        W11804  27.058  44.741   2.278
46545W        W11805  41.309  35.983  11.608
46546W        W11806  37.398  42.468   4.650
46547W        W11807  30.529   0.492   2.442
46548W        W11808  34.961  15.121   3.275
46549W        W11809  38.586  17.136  13.539
46550W        W11810   2.431   1.239   2.185
46551W        W11811  23.589  22.784  11.083
46552W        W11812  16.487  40.372  14.415
46553W        W11813  19.670  33.037  10.739
46554W        W11814  20.204   5.792  10.778
46555W        W11815  32.962  22.592  14.815
46556W        W11816  10.315  29.663  11.220
46557W        W11817  16.805  19.070  14.619
46558W        W11818  24.310  24.746   4.934
46559W        W11819  31.862   4.477   4.570
46560W        W11820   4.893   7.216   1.259
46561W        W11821  43.757  35.542   2.869
46562W        W11822  44.689  42.439   0.287
46563W        W11823  17.227   8.763  12.515
46564W        W11824   6.990  27.956  12.600
46565W        W11825  33.465   2.293  11.601
46566W        W11826   1.891  21.817   1.799
46567W        W11827   1.733  12.844   0.334
46568W        W11828  34.274  39.405  10.917
46569W        W11829  22.277   9.167   3.237
46570W        W11830   2.301  20.276  10.635
46571W        W11831   6.633  36.799  13.032
46572W        W11832  13.237  19.537  13.567
46573W        W11833   9.956   0.579   4.493
46574W        W11834   2.363  35.185  11.550
46575W        W11835  34.958  34.890  12.352
46576W        W11836   8.688   0.722  12.903
46577W        W11837  44.094  29.055  13.327
46578W        W11838  15.903  27.936  12.985
46579W        W11839  41.401  30.548   0.185
46580W        W11840   5.126  36.280  11.592
46581W        W11841  38.384   5.815  14.887
46582W        W11842   1.651  32.070  11.074
46583W        W11843  34.936  24.464   1.536
46584W        W11844  14.649  39.031   5.011
46585W        W11845   1.237  42.846   1.822
46586W        W11846  13.181  27.004   3.352
46587W        W11847  42.430  26.410  10.712
46588W        W11848  16.071   3.254   0.749
46589W        W11849  44.417  25.010  14.415
46590W        W11850  11.688   2.629  11.900
46591W        W11851  24.246  20.021   3.265
46592W        W11852  37.175  11.670   0.799
46593W        W11853  30.878   5.423   3.796
46594W        W11854  12.113  11.930  11.343
46595W        W11855  16.841  30.078   2.780
46596W        W11856  22.299  32.670   0.307
46597W        W11857  27.898  44.867  11.519
46598W        W11858  32.659   5.390   1.357
46599W        W11859  11.718  37.576  14.300
46600W        W11860  42.148  25.021  14.437
46601W        W11861  23.379  27.128   4.901
46602W        W11862  40.839  10.946   2.824
46603W        W11863  37.882  40.359   4.714
46604W        W11864  22.192  10.206   2.618
46605W        W11865  41.621   6.420   2.665
46606W        W11866  15.241   3.107  11.492
46607W        W11867   8.140  19.359  10.686
46608W        W11868  17.580  32.820  12.113
46609W        W11869  37.481  36.835  14.621
46610W        W11870  33.703   3.030  10.940
46611W        W11871  44.423  30.708   2.597
46612W        W11872  11.066  32.487  10.444
46613W        W11873  19.606  21.458  13.390
46614W        W11874   6.252  14.286  13.251
46615W        W11875  40.834  21.525  13.964
46616W        W11876  29.219  33.113  13.318
46617W        W11877  27.269  31.025   0.269
46618W        W11878   0.755  44.305  11.548
46619W        W11879  36.389  11.447   0.845
46620W        W11880  30.790  31.797  10.395
46621W        W11881  21.463  20.103   9.916
46622W        W11882  39.916  41.948   3.611
46623W        W11883  13.660   9.886   1.441
46624W        W11884  23.636  33.618   3.259
46625W        W11885  44.725  25.324  11.177
46626W        W11886  20.578  22.132   4.217
46627W        W11887  32.508  10.434   0.003
46628W        W11888  19.800  12.663   2.388
46629W        W11889  24.489  38.469   2.039
46630W        W11890  20.699  19.655   3.415
46631W        W11891   7.606   9.327   0.367
46632W        W11892  18.513  42.102   1.796
46633W        W11893  12.563  17.263   4.278
46634W        W11894  25.765   2.657   3.682
46635W        W11895  39.527  39.597   2.714
46636W        W11896   1.745  13.120  13.031
46637W        W11897  10.452  24.181   4.050
46638W        W11898  26.568  21.688  10.966
46639W        W11899   9.202   9.042  10.893
46640W        W11900  32.155  28.424  14.152
46641W        W11901   1.879  16.381  14.431
46642W        W11902  40.500  31.909  12.054
46643W        W11903  23.016  43.922  13.281
46644W        W11904  43.212  44.466  13.366
46645W        W11905   5.739  11.719  10.583
46646W        W11906  14.719  32.083   1.817
46647W        W11907  10.052  16.575  11.022
46648W        W11908   6.334   8.705   2.157
46649W        W11909  16.549  38.082  10.564
46650W        W11910   0.882  22.055   1.175
46651W        W11911  32.505  13.834  14.262
46652W        W11912  15.159  35.179  13.851
46653W        W11913  35.330  22.302   0.643
46654W        W11914  19.652   9.272  11.074
46655W        W11915  36.536   2.950   2.312
46656W        W11916  20.245   3.946   3.165
46657W        W11917  35.820  18.819  12.503
46658W        W11918  23.677   0.970  14.310
46659W        W11919   1.782  11.101   9.797
46660W        W11920  35.882   1.923   0.454
46661W        W11921  17.268  14.872  13.039
46662W        W11922  20.106   4.959   3.254
46663W        W11923  31.095   4.634   3.160
46664W        W11924  31.489   2.093   4.717
46665W        W11925  28.290  15.836   3.814
46666W        W11926   2.122  31.798   3.227
46667W        W11927  40.157   8.855  11.709
46668W        W11928  34.023   9.229   4.505
46669W        W11929  42.276  17.705  10.756
46670W        W11930   6.682  44.830   1.799
46671W        W11931  43.870  10.924   2.204
46672W        W11932   3.035  25.478   1.606
46673W        W11933  24.643  44.789   0.880
46674W        W11934  32.882  30.191   1.124
46675W        W11935   7.731  32.865  14.370
46676W        W11936  13.943  41.741   0.294
46677W        W11937  18.218  13.707  11.150
46678W        W11938  25.771  34.070  14.427
46679W        W11939   4.918  40.525   4.569
46680W        W11940  41.971  42.533   1.554
46681W        W11941  14.346   3.126   4.337
46682W        W11942  35.755  28.966   1.585
46683W        W11943   2.505  32.961   3.164
46684W        W11944  38.690  40.818   1.861
46685W        W11945   9.917  12.383  14.208
46686W        W11946  40.996  16.539   2.815
46687W        W11947  44.341   9.450   3.569
46688W        W11948   7.779   2.426  11.220
46689W        W11949  15.247  38.003   0.880
46690W        W11950  34.105  31.687   3.409
46691W        W11951   6.354  21.956  14.874
46692W        W11952  26.192  20.966  13.738
46693W        W11953  34.994  29.177  12.091
46694W        W11954  14.796  25.262   3.081
46695W        W11955  21.735  12.535  14.160
46696W        W11956   7.826  44.779  10.884
46697W        W11957  22.111  36.960   1.728
46698W        W11958  24.983  16.671   0.502
46699W        W11959  26.937   1.123   2.762
46700W        W11960  27.517   8.741  10.607
46701W        W11961   0.451   1.888   3.659
46702W        W11962  35.884  20.246   0.500
46703W        W11963  44.000  42.509  14.275
46704W        W11964   4.068  33.586   2.837
46705W        W11965  44.410  18.064  12.531
46706W        W11966  13.283  40.598  10.563
46707W        W11967  23.601  37.685   5.122
46708W        W11968  30.467  11.789  13.006
46709W        W11969  17.178  12.183  12.494
46710W        W11970  38.736  34.669   4.118
46711W        W11971  18.102  15.897   4.115
46712W        W11972  16.327  31.170  11.112
46713W        W11973  26.951  40.804   2.612
46714W        W11974   8.626  37.521   4.404
46715W        W11975  14.650  23.272  12.010
46716W        W11976  10.510   8.844  12.819
46717W        W11977  21.753  35.020  12.422
46718W        W11978   6.241   8.248  12.358
46719W        W11979  30.008  42.368  10.685
46720W        W11980  12.164  27.494  14.801
46721W        W11981   5.005  22.837  14.970
46722W        W11982   8.670  12.337   4.566
46723W        W11983  28.128  11.160   3.000
46724W        W11984   0.383  31.233   2.378
46725W        W11985  11.945   1.313   0.836
46726W        W11986  31.981  23.945  12.586
46727W        W11987  32.421   4.712   2.076
46728W        W11988  32.074  42.053  13.891
46729W        W11989   1.545  24.015   4.553
46730W        W11990  17.091  40.821  12.062
46731W        W11991  18.358  43.308   4.118
46732W        W11992   8.350   4.452   2.261
46733W        W11993   4.621  12.807   2.481
46734W        W11994  36.981  31.279  13.330
46735W        W11995   3.345  14.066   1.707
46736W        W11996  33.035  12.587   3.785
46737W        W11997  19.785  32.133  14.231
46738W        W11998  30.080  41.750  14.424
46739W        W11999  18.978  31.637  13.743
46740W        W12000  28.527  30.154  13.559
46741W        W12001   3.052  36.966  11.405
46742W        W12002  24.494  34.414  11.901
46743W        W12003   0.687  19.656   0.561
46744W        W12004  28.552   7.097  12.547
46745W        W12005  16.823  39.411  10.551
46746W        W12006   9.049  31.949   0.420
46747W        W12007  36.564  35.077   1.386
46748W        W12008  23.614  24.004   0.163
46749W        W12009  40.957   4.949  14.894
46750W        W12010  22.328  29.046   4.726
46751W        W12011  28.532  17.572   3.650
46752W        W12012   0.132  20.998   1.709
46753W        W12013  25.367  33.664   2.454
46754W        W12014  15.313  14.776   4.516
46755W        W12015   2.215   8.649   3.399
46756W        W12016   6.685  14.154  12.985
46757W        W12017  18.918  33.408  10.675
46758W        W12018   5.834  39.339  14.437
46759W        W12019   5.707  16.310   3.056
46760W        W12020  44.300  13.920  10.718
46761W        W12021  11.267   8.834   2.334
46762W        W12022  34.769  17.147  11.327
46763W        W12023  31.984  21.069  13.286
46764W        W12024  14.105   4.835   3.152
46765W        W12025  17.770  21.196   1.263
46766W        W12026  10.286  36.913  11.053
46767W        W12027   8.863  10.566  12.869
46768W        W12028  31.402  34.352  11.443
46769W        W12029  35.495  44.682   0.855
46770W        W12030  19.756   7.880  12.849
46771W        W12031   7.353  43.292   3.864
46772W        W12032   1.331  19.410   2.698
46773W        W12033  12.656  13.567   3.266
46774W        W12034  32.510  33.919   1.658
46775W        W12035  42.614  31.484  11.129
46776W        W12036  11.753  35.931   1.106
46777W        W12037  13.675   5.413   1.572
46778W        W12038   4.761   4.838  14.342
46779W        W12039  35.480   8.169  11.483
46780W        W12040  36.634   3.291   2.768
46781W        W12041  10.392   2.269  10.345
46782W        W12042  29.740  32.119   2.361
46783W        W12043  30.380  17.111  13.699
46784W        W12044  24.656   3.165  13.393
46785W        W12045   2.341  14.629   4.102
46786W        W12046   7.307   8.406   2.658
46787W        W12047  33.514  30.970  14.899
46788W        W12048  23.898  30.623   2.299
46789W        W12049   5.659  39.802  10.636
46790W        W12050  17.639  11.362   3.078
46791W        W12051  27.521  43.205   2.169
46792W        W12052  37.023  28.182   4.170
46793W        W12053  22.350  15.290  14.823
46794W        W12054  29.846  16.799   4.558
46795W        W12055  24.793  40.091  11.061
46796W        W12056  28.911  35.347  13.141
46797W        W12057  15.223  41.020  10.623
46798W        W12058  14.126   1.531   1.425
46799W        W12059  22.185   6.317  13.463
46800W        W12060  28.710  36.084  10.697
46801W        W12061  23.212  25.979  13.337
46802W        W12062  36.457  33.021   4.156
46803W        W12063  13.737   0.714   1.366
46804W        W12064  11.794  24.657   4.437
46805W        W12065   0.437  19.307   0.295
46806W        W12066   5.671  43.276   3.200
46807W        W12067   0.943  15.814   3.348
46808W        W12068  16.298  18.936  13.337
46809W        W12069  32.646   7.342   2.354
46810W        W12070  31.807  25.280  13.412
46811W        W12071  17.585  29.915   3.232
46812W        W12072  15.220  23.081   1.897
46813W        W12073  23.519  37.372  11.673
46814W        W12074   6.840  26.457   0.469
46815W        W12075  41.868  26.043  11.551
46816W        W12076  17.565   9.726  10.494
46817W        W12077  20.768  38.794  14.934
46818W        W12078   6.187  39.307   3.018
46819W        W12079  38.252   4.247   1.850
46820W        W12080   2.909  34.053  12.113
46821W        W12081  13.246  22.183   3.832
46822W        W12082  38.949  44.510   1.917
46823W        W12083  24.518   1.507   1.257
46824W        W12084  26.681   1.895   2.163
46825W        W12085  27.117  29.766   4.027
46826W        W12086  28.170  40.536  13.213
46827W        W12087  35.034  32.660   0.728
46828W        W12088  44.042   1.873  11.625
46829W        W12089   9.395  26.708  12.526
46830W        W12090   3.737  37.453  14.897
46831W        W12091  22.030   8.581   1.157
46832W        W12092   4.802  13.643  13.862
46833W        W12093  38.874  40.062  11.050
46834W        W12094   2.531  23.147  13.910
46835W        W12095  18.559  28.679   4.545
46836W        W12096  22.556  39.022   4.032
46837W        W12097  19.301  43.321  14.469
46838W        W12098   8.984   8.889  12.596
46839W        W12099  42.090  30.527   0.761
46840W        W12100  11.356  42.942   2.829
46841W        W12101  28.410  29.951  13.060
46842W        W12102  42.014   4.865   0.438
46843W        W12103  41.302   7.789   1.213
46844W        W12104   8.896  14.968  10.780
46845W        W12105  18.199  24.274   0.818
46846W        W12106   6.159  26.995  11.549
46847W        W12107  11.730  26.251  13.067
46848W        W12108  16.376  33.017  11.122
46849W        W12109   0.564  21.785   0.196
46850W        W12110  40.079  23.083   3.661
46851W        W12111  21.330  27.001  14.580
46852W        W12112  23.613  28.568   3.656
46853W        W12113  11.182  26.714  12.560
46854W        W12114  36.270  43.391   3.108
46855W        W12115  28.768  12.548   4.529
46856W        W12116  13.419  42.056  11.343
46857W        W12117   4.309  23.202   0.870
46858W        W12118  21.445  32.569  14.874
46859W        W12119  34.518  25.721   3.254
46860W        W12120   7.946  23.070   2.366
46861W        W12121   6.405  42.478   1.240
46862W        W12122  13.833   6.374   2.819
46863W        W12123  37.006  32.137  10.242
46864W        W12124  18.777   0.494   0.499
46865W        W12125  38.353  36.810  14.995
46866W        W12126  25.412  39.850   5.344
46867W        W12127  42.054  19.136  13.084
46868W        W12128   7.369  27.492  11.108
46869W        W12129  20.134  18.262  12.736
46870W        W12130  19.346  24.271  11.136
46871W        W12131  26.735  42.417   3.218
46872W        W12132  37.373  19.367  11.046
46873W        W12133  41.771  18.293  13.685
46874W        W12134   0.806  35.262  12.850
46875W        W12135  19.582   1.317   1.884
46876W        W12136  14.829  31.680  12.135
46877W        W12137  24.779  27.059   1.192
46878W        W12138  18.476  14.891   0.384
46879W        W12139  25.677  10.714  14.919
46880W        W12140  30.490   1.793   0.332
46881W        W12141  36.563  23.581   1.270
46882W        W12142  22.568  26.647   2.554
46883W        W12143  25.727  18.502  14.771
46884W        W12144  31.907   2.729   0.985
46885W        W12145  30.611  37.661  12.893
46886W        W12146  16.855   0.484  12.574
46887W        W12147  36.849   1.168  14.347
46888W        W12148  42.228  32.568  11.825
46889W        W12149  29.970  27.795  11.074
46890W        W12150  34.134  34.782  13.919
46891W        W12151  28.696  24.838   3.744
46892W        W12152  13.560   5.844  13.512
46893W        W12153  16.370   1.355  10.611
46894W        W12154   6.790  20.581  12.654
46895W        W12155  26.323  36.593   0.042
46896W        W12156  44.371  31.294  11.307
46897W        W12157  25.913  11.315  14.422
46898W        W12158   7.934  17.378   1.631
46899W        W12159  18.074   2.903  10.720
46900W        W12160  30.480  13.006   2.039
46901W        W12161  35.123  24.198  11.342
46902W        W12162  27.636  38.991  13.812
46903W        W12163  44.039  38.881   2.693
46904W        W12164   8.506  30.474   5.036
46905W        W12165  37.525  10.363  11.602
46906W        W12166   6.642   7.339  14.788
46907W        W12167  33.674  27.510  14.930
46908W        W12168  10.708  27.654  12.116
46909W        W12169  26.078  44.642   2.328
46910W        W12170  13.731  15.084   2.881
46911W        W12171  19.333  25.206   2.742
46912W        W12172  16.710  44.301  12.969
46913W        W12173  38.773  21.337   4.141
46914W        W12174   2.919   3.410   3.941
46915W        W12175  14.158  18.156  13.701
46916W        W12176   3.258  15.619   3.786
46917W        W12177  14.319  17.770   2.744
46918W        W12178  44.801  32.122  12.949
46919W        W12179  37.077   8.857  13.535
46920W        W12180  13.607  17.699  12.497
46921W        W12181  21.942  22.538   4.183
46922W        W12182   1.857   4.841  10.128
46923W        W12183  42.551   6.845  13.849
46924W        W12184  23.584   5.521   3.210
46925W        W12185  12.363   1.680   1.643
46926W        W12186   5.662  30.487  11.612
46927W        W12187  30.939  31.434  13.798
46928W        W12188  13.100  17.723  11.009
46929W        W12189  42.346   9.317  10.223
46930W        W12190  35.645  25.072   3.321
46931W        W12191  37.785  38.556   3.836
46932W        W12192  30.209  13.735   1.599
46933W        W12193  24.692  33.976   2.317
46934W        W12194   1.178  18.597  12.520
46935W        W12195  35.080  44.419  14.877
46936W        W12196   3.729  26.442   2.803
46937W        W12197   3.880  40.319   2.318
46938W        W12198  24.455  38.885  13.524
46939W        W12199  22.379  36.870   0.925
46940W        W12200  20.296  13.956  11.079
46941W        W12201   3.222  30.000  11.062
46942W        W12202  25.197  38.441  11.921
46943W        W12203  32.881  15.290  14.470
46944W        W12204  32.575  25.544  12.030
46945W        W12205   4.873  26.994   0.407
46946W        W12206  33.419  28.598  11.240
46947W        W12207  19.313  38.467  14.920
46948W        W12208  25.527   3.494   3.217
46949W        W12209  40.991  31.584  14.726
46950W        W12210  42.316  14.582  14.433
46951W        W12211  43.372  21.538   0.023
46952W        W12212  34.107  30.843  14.347
46953W        W12213  32.492  18.235  11.296
46954W        W12214  44.619  42.679  11.715
46955W        W12215  12.834   4.653  13.994
46956W        W12216  15.654  34.818   4.582
46957W        W12217  33.465   0.475   5.127
46958W        W12218  22.009   1.994   2.100
46959W        W12219  40.543  18.256   2.421
46960W        W12220  24.724  30.753  14.485
46961W        W12221  17.267   1.790  14.787
46962W        W12222  25.771   8.632  11.917
46963W        W12223  42.067  42.947   2.485
46964W        W12224  29.999  25.222   3.379
46965W        W12225  41.916   4.016  13.899
46966W        W12226  44.584  13.672  14.821
46967W        W12227  22.675  13.594   0.516
46968W        W12228  14.842   1.521  13.510
46969W        W12229  19.274  28.561   1.195
46970W        W12230  32.594  39.481  12.477
46971W        W12231  43.695  16.589  11.537
46972W        W12232   7.921  16.057  13.255
46973W        W12233   2.658  43.381  14.196
46974W        W12234  32.064  27.669  14.446
46975W        W12235  44.301  35.012   1.496
46976W        W12236  15.912  43.671   1.358
46977W        W12237  41.508  19.811  14.959
46978W        W12238  15.851  41.719   1.320
46979W        W12239  22.991  18.910   2.076
46980W        W12240   5.449  44.456   3.702
46981W        W12241  17.145  26.921   2.316
46982W        W12242  26.953  14.423   2.713
46983W        W12243  14.309  39.020  11.622
46984W        W12244  34.677  22.163  11.966
46985W        W12245  34.555  41.786   2.777
46986W        W12246  37.541  12.557  10.793
46987W        W12247  21.067  20.822  10.164
46988W        W12248  33.080  38.822  11.165
46989W        W12249   2.347   0.454  11.358
46990W        W12250  28.253  24.151   4.000
46991W        W12251  28.469  24.788   1.392
46992W        W12252   0.861   7.936  12.140
46993W        W12253  30.120  24.437  12.093
46994W        W12254  12.819  39.330  10.565
46995W        W12255  32.662  22.722   0.235
46996W        W12256  15.712  12.422  10.561
46997W        W12257  16.901  23.656  13.308
46998W        W12258  17.654  21.219  11.289
46999W        W12259  32.565  15.790  12.164
47000W        W12260  44.669  13.295   1.288
47001W        W12261   9.269  36.809   1.753
47002W        W12262   5.641  23.705  13.850
47003W        W12263  31.054  42.490  10.782
47004W        W12264  38.872  11.663  11.727
47005W        W12265  16.861  21.471  11.569
47006W        W12266  12.257  27.816   1.228
47007W        W12267  37.053  10.618  14.872
47008W        W12268  28.807  28.637  10.761
47009W        W12269   1.707   3.861   2.179
47010W        W12270  28.297   5.307   0.700
47011W        W12271   5.878  33.101  12.526
47012W        W12272  40.485  13.323   2.178
47013W        W12273   2.330   7.577  11.912
47014W        W12274  23.931  10.577   2.867
47015W        W12275  28.240  19.131  14.327
47016W        W12276   6.248  35.068  13.002
47017W        W12277  27.939   3.831  11.093
47018W        W12278  10.811  30.445  11.811
47019W        W12279   9.302  21.817   1.828
47020W        W12280  11.410  18.097  10.832
47021W        W12281  35.349   1.947  12.417
47022W        W12282   6.778  39.685   0.943
47023W        W12283  25.547  30.177  12.930
47024W        W12284  11.064  40.290  11.142
47025W        W12285  25.050  14.513   1.838
47026W        W12286  17.825  35.049  14.406
47027W        W12287   1.287  15.551   3.653
47028W        W12288   4.810  27.957  12.374
47029W        W12289  12.835   1.119   4.237
47030W        W12290  18.767  32.246   5.298
47031W        W12291  27.388  16.658   2.445
47032W        W12292  38.255  19.615  11.228
47033W        W12293  18.954   8.925   0.081
47034W        W12294  10.769  20.738  10.872
47035W        W12295   7.213  44.264  10.737
47036W        W12296   3.171  20.346  14.512
47037W        W12297  34.927  11.208  13.994
47038W        W12298  10.245  31.484   5.451
47039W        W12299  41.982  19.818   1.664
47040W        W12300  12.244  20.653  11.134
47041W        W12301   5.222  42.993   2.391
47042W        W12302  18.598  28.602   4.045
47043W        W12303  30.625  16.198  14.072
47044W        W12304   7.735  19.747   0.002
47045W        W12305  12.736  11.704   2.278
47046W        W12306   4.324  40.829   3.712
47047W        W12307  34.029  40.450   3.659
47048W        W12308  32.434  19.620   0.631
47049W        W12309  18.819  15.182   3.655
47050W        W12310  22.724  35.847   1.961
47051W        W12311  35.636   4.802  13.290
47052W        W12312  43.278  15.561  14.975
47053W        W12313  17.867  43.791  13.452
47054W        W12314  14.590  33.335  14.916
47055W        W12315  41.350  27.974   0.046
47056W        W12316  12.828  40.824   0.466
47057W        W12317  20.819  30.114   1.222
47058W        W12318   1.764  44.512   1.389
47059W        W12319  23.716   1.105  11.153
47060W        W12320  37.147  35.797   2.942
47061W        W12321   9.171  11.926  10.199
47062W        W12322  44.647  21.076   1.858
47063W        W12323  11.919  40.053  12.757
47064W        W12324  19.762  39.001   1.732
47065W        W12325  24.430  35.418   0.788
47066W        W12326   8.211  13.611   1.429
47067W        W12327  35.612  34.041   1.748
47068W        W12328   8.125  29.069  12.465
47069W        W12329  13.090   3.267   3.586
47070W        W12330   5.975  34.530  11.432
47071W        W12331  40.957  36.542  13.310
47072W        W12332  41.457  42.005   2.185
47073W        W12333  35.652   3.801   0.562
47074W        W12334   9.689  11.695   3.827
47075W        W12335   1.472  13.168  14.896
47076W        W12336  36.545  35.972   4.179
47077W        W12337  32.305   3.197  13.474
47078W        W12338   1.762  29.115   2.717
47079W        W12339  15.347  24.309  10.739
47080W        W12340  44.403   0.864  13.414
47081W        W12341   8.638   9.442   4.096
47082W        W12342  24.385  36.250  14.402
47083W        W12343   0.101  30.204  13.443
47084W        W12344  36.386  44.192   4.061
47085W        W12345   2.558  12.774   1.855
47086W        W12346  21.345  25.697  11.672
47087W        W12347  43.456   9.273   3.656
47088W        W12348  34.372   5.141  11.835
47089W        W12349  33.996  21.475  11.570
47090W        W12350   2.672  17.359  12.976
47091W        W12351  11.766   5.520   5.391
47092W        W12352  11.571  11.130   4.487
47093W        W12353   3.852  41.779  14.817
47094W        W12354  32.924  27.549   0.294
47095W        W12355   5.404  14.955   2.008
47096W        W12356  19.007   9.887  13.462
47097W        W12357   4.104  26.204   5.375
47098W        W12358  32.714  24.207   2.594
47099W        W12359  41.767  10.694  11.218
47100W        W12360  42.629  12.233  12.277
47101W        W12361  37.541  23.178   1.240
47102W        W12362  31.530  37.588  13.948
47103W        W12363  15.595  29.685   2.886
47104W        W12364  28.416  28.162   2.803
47105W        W12365  23.683  39.505  13.301
47106W        W12366  11.689  23.040   3.376
47107W        W12367  40.950  24.494   2.937
47108W        W12368  22.563   7.803   2.001
47109W        W12369   7.252  32.875  13.814
47110W        W12370  22.549  44.026  13.512
47111W        W12371  14.563  22.447   1.716
47112W        W12372   0.989  13.498   0.040
47113W        W12373  25.575  29.843  12.535
47114W        W12374  36.145  40.384  14.479
47115W        W12375   8.327  10.330  11.125
47116W        W12376  40.035  10.810  12.029
47117W        W12377  42.437  24.025  11.919
47118W        W12378  28.255  34.636  13.840
47119W        W12379  16.907  32.877   3.184
47120W        W12380  34.388  36.295   0.459
47121W        W12381   6.240  25.041  13.331
47122W        W12382  25.707  35.577   2.227
47123W        W12383   7.734  15.120  13.374
47124W        W12384  20.983   0.291  12.885
47125W        W12385  17.051   0.041  12.428
47126W        W12386   6.301  36.912  13.580
47127W        W12387  22.802  41.862  13.871
47128W        W12388  13.776  34.649   2.344
47129W        W12389  38.888  33.884  11.608
47130W        W12390  38.870  36.693  13.407
47131W        W12391  35.411   7.502  13.321
47132W        W12392  28.489   4.914   4.535
47133W        W12393  19.162  41.578  11.175
47134W        W12394  15.428  19.278  10.185
47135W        W12395  12.630   4.805  13.442
47136W        W12396  44.494  22.502   0.711
47137W        W12397  24.222  16.228   0.741
47138W        W12398   9.479   8.966   1.624
47139W        W12399  34.581  30.124   2.769
47140W        W12400  24.609  29.113   0.769
47141W        W12401  11.133  11.339   9.508
47142W        W12402   9.484  13.205   1.780
47143W        W12403  17.103   0.470  11.656
47144W        W12404  42.406  13.273   1.441
47145W        W12405  31.216  10.263   1.326
47146W        W12406  41.998   6.777  10.980
47147W        W12407  21.010  30.603  13.927
47148W        W12408   8.371   0.690  14.264
47149W        W12409   8.681  19.022   1.360
47150W        W12410  43.772  15.744   4.939
47151W        W12411  27.524  37.339   3.284
47152W        W12412   7.246  15.806  10.760
47153W        W12413  25.560  39.852   1.798
47154W        W12414  22.490   3.384   2.304
47155W        W12415   4.920  39.939  13.404
47156W        W12416  20.006  28.177  11.111
47157W        W12417  18.113  21.462   0.196
47158W        W12418   2.172  13.284   0.562
47159W        W12419  25.723  11.721  10.895
47160W        W12420  23.990  33.849  14.027
47161W        W12421  12.139  25.683  11.387
47162W        W12422  27.197  13.018  14.874
47163W        W12423   5.495  35.785   3.123
47164W        W12424  31.588  18.081   3.884
47165W        W12425  32.363  24.156   4.337
47166W        W12426   7.724   0.222  12.061
47167W        W12427  16.451  22.150  14.137
47168W        W12428  36.927  21.809   2.100
47169W        W12429  44.515  12.579   4.647
47170W        W12430   0.146  44.412  13.374
47171W        W12431   9.117  10.318  10.670
47172W        W12432  19.391  21.278   4.170
47173W        W12433  15.150  31.541   4.709
47174W        W12434  34.075  25.446   3.153
47175W        W12435  28.344  36.982  12.218
47176W        W12436  33.404  44.631   1.276
47177W        W12437  37.855   8.044   1.299
47178W        W12438  43.617  21.283   1.927
47179W        W12439   3.563  16.761  14.981
47180W        W12440  38.383  43.284   3.243
47181W        W12441  29.178  36.650   2.411
47182W        W12442  17.595  34.193   0.417
47183W        W12443  25.919   7.584  14.076
47184W        W12444  17.128  14.749  12.541
47185W        W12445  14.351  39.924   2.377
47186W        W12446  32.392  43.818   2.448
47187W        W12447  28.540   2.939  12.144
47188W        W12448  28.031  22.455  13.311
47189W        W12449  22.399  32.251   1.501
47190W        W12450  24.237  30.191  11.153
47191W        W12451  15.379  26.815  10.468
47192W        W12452   1.763  23.339  11.185
47193W        W12453   0.836  43.187   4.487
47194W        W12454   9.870  39.082   3.889
47195W        W12455  17.748   0.326   4.424
47196W        W12456   6.341  38.812   1.611
47197W        W12457  28.984  33.461  14.848
47198W        W12458  19.757  33.892   4.468
47199W        W12459  34.388  37.946   1.362
47200W        W12460  43.838  15.121   2.631
47201W        W12461   6.762  31.197  12.645
47202W        W12462   3.689  29.629   3.629
47203W        W12463   9.821  16.288   3.093
47204W        W12464  26.773  16.825  11.163
47205W        W12465  24.583   2.780  11.877
47206W        W12466  35.326  16.829   4.034
47207W        W12467  31.970  41.273   3.014
47208W        W12468  44.345  19.847   2.855
47209W        W12469  33.926   5.297   3.135
47210W        W12470   4.826  43.956   2.014
47211W        W12471  43.494   3.436  13.023
47212W        W12472  26.082  28.349  10.674
47213W        W12473  40.545  42.049   2.769
47214W        W12474   2.766  29.022  14.755
47215W        W12475  29.896  33.062   1.331
47216W        W12476   0.543  35.875   3.748
47217W        W12477  39.284  22.995   2.246
47218W        W12478   8.787  17.643   1.190
47219W        W12479  27.619  31.275   4.016
47220W        W12480   4.589  25.915   9.691
47221W        W12481   9.802  35.574  11.126
47222W        W12482  20.426   8.275  12.485
47223W        W12483  27.027  36.313  12.114
47224W        W12484  35.029  43.645   3.581
47225W        W12485  21.400   4.479  11.144
47226W        W12486  12.115  31.027  13.579
47227W        W12487  34.362  10.854   3.629
47228W        W12488  15.696   7.751   0.512
47229W        W12489  17.855  14.534  10.467
47230W        W12490  44.416  31.745   1.008
47231W        W12491  13.857  36.443   3.617
47232W        W12492  15.090   4.187  13.911
47233W        W12493  24.664   8.656  12.983
47234W        W12494  32.506  23.024  14.063
47235W        W12495  38.087  16.972  14.783
47236W        W12496  10.312  27.371  14.413
47237W        W12497   8.886   8.561  12.192
47238W        W12498  26.531  29.115  12.525
47239W        W12499   9.966  12.334   4.872
47240W        W12500  17.798  39.008   0.245
47241W        W12501  13.834  24.439   1.355
47242W        W12502  18.047  16.144  11.624
47243W        W12503   7.870  43.814   4.598
47244W        W12504  29.366  33.087  14.129
47245W        W12505  29.899  38.955  13.128
47246W        W12506   3.870  41.130  13.071
47247W        W12507  16.049  22.099   4.035
47248W        W12508  42.904  38.089   1.733
47249W        W12509  27.785  40.756   0.460
47250W        W12510  42.906  32.800  14.655
47251W        W12511  34.883  27.627   1.935
47252W        W12512   2.291  33.511   3.302
47253W        W12513  24.532  38.099  13.892
47254W        W12514  12.435   0.316  12.130
47255W        W12515  30.629   0.479  13.791
47256W        W12516  16.793  19.733  12.102
47257W        W12517  44.931  39.981   3.669
47258W        W12518  15.566  31.134   2.283
47259W        W12519   9.383  22.503   4.772
47260W        W12520  33.610  24.258   4.114
47261W        W12521  24.641  38.993  11.357
47262W        W12522  44.496  22.217   1.151
47263W        W12523  36.608  41.527   2.190
47264W        W12524  31.305  17.855  14.387
47265W        W12525  10.745  25.919   2.139
47266W        W12526  39.731  33.719   0.594
47267W        W12527  21.022  33.512  14.932
47268W        W12528  39.786   4.475   4.286
47269W        W12529   7.936  32.004  13.100
47270W        W12530  12.800   7.469   1.818
47271W        W12531  38.376  34.509  11.204
47272W        W12532  32.937  27.702   1.749
47273W        W12533  17.745  14.836   0.864
47274W        W12534  11.378  12.281   4.068
47275W        W12535  33.933  19.294  14.822
47276W        W12536  20.560   0.761   3.715
47277W        W12537  19.709   6.672  10.720
47278W        W12538  30.924  42.165   2.795
47279W        W12539   8.703  27.986  12.042
47280W        W12540  42.437  23.579  10.528
47281W        W12541  38.779  10.619   1.300
47282W        W12542  40.133  29.285   5.137
47283W        W12543   1.392  17.588  13.332
47284W        W12544  17.902  40.573   2.689
47285W        W12545  25.448  32.640  13.421
47286W        W12546  43.016  30.038   2.280
47287W        W12547  18.591  41.507   0.390
47288W        W12548  26.473  38.071   3.753
47289W        W12549   2.272   3.172   4.943
47290W        W12550  15.757  34.617   0.217
47291W        W12551  40.273  37.389  10.130
47292W        W12552   6.138  24.553   1.196
47293W        W12553  41.099  22.564   4.290
47294W        W12554   5.499  16.323  13.548
47295W        W12555  20.856   5.583   3.702
47296W        W12556  36.018  17.048  14.022
47297W        W12557  28.318  12.952   0.795
47298W        W12558   9.240   1.950   4.477
47299W        W12559  22.164  24.230   1.349
47300W        W12560   9.318  20.341  13.823
47301W        W12561  40.061  18.781   4.291
47302W        W12562  12.764  32.534  10.803
47303W        W12563  37.955  11.365   4.597
47304W        W12564  20.450  17.108   0.836
47305W        W12565  36.389  43.644   1.393
47306W        W12566  24.024  40.442  11.165
47307W        W12567  14.966  17.636   1.344
47308W        W12568  17.006  35.538  12.669
47309W        W12569  16.712  15.839  13.335
47310W        W12570   3.772  24.202  12.556
47311W        W12571  21.227  10.664   1.772
47312W        W12572  38.331  41.093   0.353
47313W        W12573   2.803  12.329   0.862
47314W        W12574  33.526   3.762   1.787
47315W        W12575  29.546  33.054  10.466
47316W        W12576  26.493  27.985   3.110
47317W        W12577  12.914  20.712  11.904
47318W        W12578   5.475  11.614  13.235
47319W        W12579  34.869  12.743   1.889
47320W        W12580  37.838  15.718  13.233
47321W        W12581  19.780  43.393   2.335
47322W        W12582  20.117  25.013   4.127
47323W        W12583  25.821  31.572   0.679
47324W        W12584  24.002   3.823   0.001
47325W        W12585  30.978  42.262   0.386
47326W        W12586  43.402   9.104  14.328
47327W        W12587   8.327  31.601  13.914
47328W        W12588  27.709  37.546   1.571
47329W        W12589  33.160  27.182   1.846
47330W        W12590  30.047   1.759   0.747
47331W        W12591  42.023  41.792  12.576
47332W        W12592  34.566  23.200   0.406
47333W        W12593  42.092   6.068   1.832
47334W        W12594  26.299  25.538   1.343
47335W        W12595  15.140  32.552   1.235
47336W        W12596  44.882   9.164  10.623
47337W        W12597  43.456  34.468  11.764
47338W        W12598  33.137  18.722  13.888
47339W        W12599  24.666  38.068   1.778
47340W        W12600   9.384  42.454   4.381
47341W        W12601   8.447  38.779   0.799
47342W        W12602  43.076  14.764  13.344
47343W        W12603  23.434   7.485   5.078
47344W        W12604  27.028   0.799  10.640
47345W        W12605  23.091   7.635  12.977
47346W        W12606  40.588   6.295  12.541
47347W        W12607  44.059   6.285  11.649
47348W        W12608  18.916  37.982   1.457
47349W        W12609  33.009  40.521  13.335
47350W        W12610  26.137   1.007  10.680
47351W        W12611   3.856  33.537   4.646
47352W        W12612  11.016  17.760   2.845
47353W        W12613   5.826  24.561   0.742
47354W        W12614  15.156  43.763  14.430
47355W        W12615  30.097   1.179   2.840
47356W        W12616  20.407   9.247   0.745
47357W        W12617  34.492  27.374   1.708
47358W        W12618  11.047  27.807  12.455
47359W        W12619  44.435  39.932   2.398
47360W        W12620  17.311  39.851  12.313
47361W        W12621  41.771  17.179   0.248
47362W        W12622   6.461  31.061   0.148
47363W        W12623  39.337  29.916   1.864
47364W        W12624  40.889  40.429  11.695
47365W        W12625   3.308   5.364  14.332
47366W        W12626  40.796  40.737  10.878
47367W        W12627  38.779  18.648   1.327
47368W        W12628  34.295   1.547   9.761
47369W        W12629  39.407   3.245   0.654
47370W        W12630  15.569  14.640  13.425
47371W        W12631  12.114  12.675  12.337
47372W        W12632   7.479  40.380  11.202
47373W        W12633   5.817  25.690   0.890
47374W        W12634  30.418  22.642  13.070
47375W        W12635   1.319  32.587  13.034
47376W        W12636   0.530  37.548  10.577
47377W        W12637   3.857  36.921   0.019
47378W        W12638  33.075  40.256   1.785
47379W        W12639   1.883  33.443   4.122
47380W        W12640  10.301  25.248  14.043
47381W        W12641  24.128  39.627  12.869
47382W        W12642  20.607  27.426   2.246
47383W        W12643  29.655  34.295  11.706
47384W        W12644  11.335  11.671  10.372
47385W        W12645  17.614  11.752   4.900
47386W        W12646  24.004  20.691   1.913
47387W        W12647   6.743  23.775  13.602
47388W        W12648  13.589  34.331   1.364
47389W        W12649  21.159  26.620  12.545
47390W        W12650  37.308  36.868   0.638
47391W        W12651  42.718   8.115   3.232
47392W        W12652  11.574   5.997   0.026
47393W        W12653   5.347   6.960   0.759
47394W        W12654   8.430   1.582  11.867
47395W        W12655   2.267   7.910   2.606
47396W        W12656  24.710  32.080  13.479
47397W        W12657  27.043  11.436   3.637
47398W        W12658  24.634  18.275   3.391
47399W        W12659   9.420  20.347  12.388
47400W        W12660  31.384   3.924   1.798
47401W        W12661  42.564  25.250  11.439
47402W        W12662  19.888  20.199   3.475
47403W        W12663  25.483   1.455   3.176
47404W        W12664  37.387  15.525  13.392
47405W        W12665  40.038  34.926  11.429
47406W        W12666  38.477  44.985   0.310
47407W        W12667   7.455  22.594   0.339
47408W        W12668  43.976  37.805   3.245
47409W        W12669  25.307  37.790  13.075
47410W        W12670  40.513  25.866   1.944
47411W        W12671  11.302  42.502   0.359
47412W        W12672  22.738   8.585   2.449
47413W        W12673  35.348  19.467   0.201
47414W        W12674  28.535   4.602  13.452
47415W        W12675   7.772  14.666  14.403
47416W        W12676   0.395  43.956   2.820
47417W        W12677  17.064  43.256  12.438
47418W        W12678  34.040  43.923  11.400
47419W        W12679  15.847   9.192  14.714
47420W        W12680  11.162   5.414  14.799
47421W        W12681   2.918  26.106  13.497
47422W        W12682  11.810   3.716  12.392
47423W        W12683  16.048   2.446   4.503
47424W        W12684  24.144   3.242   1.316
47425W        W12685   7.214  29.253  11.244
47426W        W12686  30.653  28.214   1.006
47427W        W12687  17.008  40.587   3.638
47428W        W12688  40.074  25.154  14.551
47429W        W12689  44.509  36.049   1.933
47430W        W12690   3.442  32.622  11.277
47431W        W12691  39.484  19.767  13.230
47432W        W12692  44.509  43.757   2.893
47433W        W12693  15.325   8.886   1.299
47434W        W12694  12.581  14.452   4.183
47435W        W12695  33.079  38.338  10.341
47436W        W12696  13.084  37.827  13.990
47437W        W12697   6.936  37.772  12.887
47438W        W12698  28.972  40.504   4.688
47439W        W12699  42.801  35.123  10.772
47440W        W12700  11.910  19.970   0.243
47441W        W12701  29.770  40.792  14.053
47442W        W12702  38.093  36.071   2.241
47443W        W12703  18.505  26.119  11.105
47444W        W12704  19.263  37.006  14.496
47445W        W12705  25.158  36.062   0.481
47446W        W12706   3.608  37.391  12.005
47447W        W12707  31.652  16.679   4.098
47448W        W12708  12.282   2.336   4.278
47449W        W12709  33.441  24.419  11.622
47450W        W12710   6.448  41.143  14.165
47451W        W12711  27.233  24.654  13.445
47452W        W12712  21.108  13.319   3.346
47453W        W12713  34.947   3.387  13.968
47454W        W12714  33.219  36.057  11.313
47455W        W12715   8.433  12.192  12.827
47456W        W12716   4.766  37.468   0.731
47457W        W12717   6.670  18.853   3.798
47458W        W12718  10.822  19.212  11.486
47459W        W12719   3.435  11.592  11.101
47460W        W12720  29.358  39.111  14.429
47461W        W12721  13.182  24.211  11.565
47462W        W12722  21.822  17.247   0.236
47463W        W12723  20.604  12.352   5.017
47464W        W12724  25.247  14.830  13.488
47465W        W12725  30.296  27.985   1.339
47466W        W12726  10.223  27.528  12.250
47467W        W12727   4.188   9.319   3.211
47468W        W12728  36.910   0.759   0.639
47469W        W12729  12.652  31.868  14.836
47470W        W12730   9.151   6.239  11.520
47471W        W12731  34.314  14.647   2.790
47472W        W12732  15.549   3.529  12.394
47473W        W12733   0.011  19.305   4.647
47474W        W12734   0.732  29.654  14.459
47475W        W12735   8.317  43.619  11.559
47476W        W12736   0.256  28.160   1.335
47477W        W12737  16.654   1.732  13.403
47478W        W12738  28.357  13.208  11.922
47479W        W12739  22.363   1.463   9.974
47480W        W12740  33.773   3.148   2.614
47481W        W12741  18.733  40.685   1.212
47482W        W12742  30.966  24.128   4.076
47483W        W12743  37.604  37.261  14.341
47484W        W12744  16.585   2.228  11.767
47485W        W12745  39.564  16.473   1.948
47486W        W12746   1.912  10.137  13.045
47487W        W12747  44.735  40.250  13.533
47488W        W12748  38.268  36.042  10.661
47489W        W12749  16.737  17.203  11.533
47490W        W12750  41.103  27.244  13.857
47491W        W12751  22.871  37.167   0.405
47492W        W12752  14.166  16.835   0.144
47493W        W12753  27.940   3.311   3.690
47494W        W12754  27.638  26.578   0.774
47495W        W12755  32.891   9.237  10.754
47496W        W12756   7.377   0.259  14.823
47497W        W12757   5.445  15.569  11.241
47498W        W12758  27.583   7.161   2.420
47499W        W12759   6.912   7.665   2.150
47500W        W12760  37.773  41.456  12.044
47501W        W12761  41.928  21.530   3.683
47502W        W12762  24.892  14.634   4.553
47503W        W12763  11.710  28.302  12.338
47504W        W12764  38.762  17.615   0.783
47505W        W12765  21.792  19.641   5.529
47506W        W12766  25.155  24.196   2.478
47507W        W12767  28.483  17.716  11.566
47508W        W12768  27.075  21.209  11.233
47509W        W12769  14.340  33.654   4.236
47510W        W12770  22.603  14.787   1.818
47511W        W12771  39.876   6.623   3.238
47512W        W12772  32.933  21.590   0.340
47513W        W12773  42.629  38.847   2.203
47514W        W12774  44.434  29.354  11.168
47515W        W12775  37.963  40.265   0.288
47516W        W12776   8.914  15.595  13.332
47517W        W12777  10.314  22.227  12.973
47518W        W12778  39.540  22.471   4.256
47519W        W12779  37.528   5.843   3.755
47520W        W12780  19.375   6.407  13.063
47521W        W12781  36.150   2.983  11.152
47522W        W12782   7.289  29.540   1.696
47523W        W12783  41.689  10.587   0.286
47524W        W12784  24.084   6.434   4.064
47525W        W12785  27.253  24.282  12.705
47526W        W12786   0.532  30.792  11.183
47527W        W12787  41.771  44.911   4.172
47528W        W12788   5.218  10.404   2.241
47529W        W12789  18.646  21.258   4.711
47530W        W12790  40.388   1.484  10.578
47531W        W12791  40.608  38.819   4.623
47532W        W12792  28.242  43.041  12.970
47533W        W12793   6.634   0.233   4.737
47534W        W12794  22.594  44.659   2.223
47535W        W12795  19.124   2.374  11.516
47536W        W12796  10.664  17.699   4.354
47537W        W12797  22.539  34.134  13.418
47538W        W12798   7.987  21.108   3.728
47539W        W12799   0.164  18.775   1.189
47540W        W12800  26.706   3.480   0.213
47541W        W12801  33.386   7.103  13.944
47542W        W12802  30.702  20.069   3.558
47543W        W12803  12.876  20.627   1.155
47544W        W12804   2.305  37.283   0.424
47545W        W12805  28.754  35.385  14.511
47546W        W12806  35.938   9.297  11.085
47547W        W12807  43.234  12.827  13.969
47548W        W12808  34.475  43.819  11.157
47549W        W12809  24.053   6.702   4.495
47550W        W12810   2.788  42.568   1.106
47551W        W12811  17.021   2.738   1.145
47552W        W12812   9.054  26.432  13.467
47553W        W12813  27.195  44.442  12.070
47554W        W12814  24.465   7.669  12.876
47555W        W12815  37.740  17.670   3.523
47556W        W12816  17.398  17.150  14.518
47557W        W12817  28.516  20.981   1.318
47558W        W12818  29.927  18.710   1.380
47559W        W12819   3.758  16.994   3.773
47560W        W12820   2.767   0.876   3.224
47561W        W12821  14.737  23.951   2.842
47562W        W12822  19.162   9.670  13.029
47563W        W12823  18.202  22.697   2.835
47564W        W12824  22.657  29.543   4.243
47565W        W12825  17.723  19.716  12.605
47566W        W12826  35.105   9.747  14.690
47567W        W12827  14.631  14.322   1.795
47568W        W12828  10.878  40.284  14.424
47569W        W12829  38.831  31.048   4.565
47570W        W12830  22.180  15.088  10.798
47571W        W12831   0.722  33.184   4.058
47572W        W12832  37.970  41.703   1.455
47573W        W12833  23.549  34.952  12.841
47574W        W12834  13.173  39.419   3.683
47575W        W12835  16.060  27.645   4.542
47576W        W12836  21.162  31.357  12.050
47577W        W12837  18.039  35.935   3.750
47578W        W12838  14.117  41.088   2.716
47579W        W12839  12.359  31.454  13.371
47580W        W12840  21.184  43.840  12.357
47581W        W12841  31.974   1.928   1.448
47582W        W12842  41.950  38.988  13.854
47583W        W12843  36.925  21.632   3.003
47584W        W12844  31.251  31.948   3.261
47585W        W12845  10.542  40.555  12.831
47586W        W12846  43.271   0.029   0.798
47587W        W12847   8.780   0.778   2.368
47588W        W12848  30.076  20.504   2.831
47589W        W12849   4.920  26.830   4.193
47590W        W12850  44.292  36.245   0.831
47591W        W12851  44.338  15.114   2.247
47592W        W12852   8.210  14.005  11.710
47593W        W12853  32.308   7.796   1.467
47594W        W12854  19.049  16.630   4.504
47595W        W12855   7.655  12.074  14.794
47596W        W12856  17.777  44.094   1.636
47597W        W12857  25.080  34.914  12.826
47598W        W12858  25.589  18.888   3.743
47599W        W12859  33.837  12.248  12.447
47600W        W12860  39.190  35.493  12.173
47601W        W12861  20.517   3.636   2.659
47602W        W12862  13.838  20.169   0.084
47603W        W12863  13.867  19.233   2.865
47604W        W12864  40.333  25.690   0.396
47605W        W12865  20.308  35.493  13.636
47606W        W12866  40.194  26.198   2.202
47607W        W12867  30.888   2.448   3.915
47608W        W12868   5.372  28.794  11.159
47609W        W12869  17.221   5.414   3.321
47610W        W12870   7.769   3.948   4.765
47611W        W12871   0.809   7.507  11.199
47612W        W12872  43.417  36.630  14.833
47613W        W12873   1.348   2.561  11.130
47614W        W12874   7.969  22.629   3.617
47615W        W12875   4.354  19.726   4.691
47616W        W12876  10.701  39.954   0.284
47617W        W12877  38.029  22.882   4.105
47618W        W12878  42.909   9.656  13.796
47619W        W12879  12.793  18.222  11.348
47620W        W12880   1.812  41.270  11.080
47621W        W12881  20.318  28.672   1.404
47622W        W12882  32.409   6.800  12.521
47623W        W12883   6.914  35.474  14.754
47624W        W12884  36.937  11.254   3.812
47625W        W12885   3.780  37.963  13.200
47626W        W12886  14.836   2.810   3.727
47627W        W12887  18.156   0.551   1.853
47628W        W12888   4.701   7.548   0.922
47629W        W12889   8.219  31.811  10.936
47630W        W12890  10.778  33.984  12.712
47631W        W12891  39.987  36.043   4.070
47632W        W12892  17.306  36.066   2.619
47633W        W12893   5.803  12.330  11.429
47634W        W12894  18.356  26.611   0.810
47635W        W12895  13.844  40.484  14.463
47636W        W12896  43.946  36.542   2.304
47637W        W12897  33.592  25.535   2.641
47638W        W12898  10.576  12.126   1.779
47639W        W12899  10.216   3.230  12.865
47640W        W12900  14.278  19.113   3.328
47641W        W12901  21.742  23.785   3.621
47642W        W12902   6.730  21.287  14.790
47643W        W12903  32.123  21.268   3.059
47644W        W12904  38.646  32.659   2.753
47645W        W12905  29.219   8.102   0.934
47646W        W12906  13.533   1.215  12.854
47647W        W12907  21.710  17.535   4.556
47648W        W12908   7.943  29.139   1.685
47649W        W12909  11.816   0.197  14.894
47650W        W12910  16.225  42.020  14.352
47651W        W12911   7.186  39.349  14.836
47652W        W12912  35.086  25.565   5.236
47653W        W12913  43.484   3.427   3.208
47654W        W12914  23.144   8.208   3.344
47655W        W12915   9.865  39.495   0.545
47656W        W12916  20.331   7.238   3.683
47657W        W12917  17.748  23.629   4.647
47658W        W12918  39.770   5.748   2.269
47659W        W12919  34.558  44.728   2.601
47660W        W12920  40.402  11.440   5.169
47661W        W12921  32.416  32.483  13.452
47662W        W12922  13.065  22.768   3.922
47663W        W12923   2.271  34.329   4.553
47664W        W12924  40.685   6.706   0.050
47665W        W12925   6.335   9.663  13.603
47666W        W12926  30.460  23.752   1.610
47667W        W12927  25.964  20.608  14.907
47668W        W12928  28.560   0.579   3.284
47669W        W12929  15.489  20.430   2.769
47670W        W12930  13.775  13.434   1.436
47671W        W12931  44.781   2.837   0.463
47672W        W12932  13.911   0.282   1.591
47673W        W12933   3.758  14.439  10.325
47674W        W12934   0.845  25.097   1.778
47675W        W12935  41.817   6.141   1.386
47676W        W12936  23.671  37.732   3.714
47677W        W12937  41.592  35.124  13.819
47678W        W12938  32.633  27.664   4.991
47679W        W12939  31.195  42.175  11.154
47680W        W12940   5.907  11.839  12.434
47681W        W12941   4.388  12.374  11.550
47682W        W12942   9.395  17.366  10.642
47683W        W12943  38.404  14.453   4.591
47684W        W12944   4.736  41.836   0.257
47685W        W12945  28.947   6.623   0.794
47686W        W12946   0.282  30.421  14.906
47687W        W12947  37.483  17.019  10.539
47688W        W12948  13.043   2.667   1.973
47689W        W12949   6.292  32.843  10.664
47690W        W12950  24.972  25.038   1.329
47691W        W12951  11.988   6.522   3.826
47692W        W12952  21.326  36.394   9.912
47693W        W12953  17.008  23.408  12.483
47694W        W12954   8.141  15.971   3.356
47695W        W12955  31.518  33.932   3.706
47696W        W12956  25.511  12.932  12.208
47697W        W12957   7.852  37.608   0.851
47698W        W12958  44.235  31.716  13.531
47699W        W12959   8.295   9.157  13.350
47700W        W12960   4.954  25.178   0.863
47701W        W12961  30.986  11.828  12.470
47702W        W12962  21.766  14.291  12.048
47703W        W12963   6.915  23.941   2.411
47704W        W12964  36.630  29.035  13.829
47705W        W12965  19.553  15.411   2.863
47706W        W12966   1.933  41.633   0.406
47707W        W12967  16.846   3.325   5.199
47708W        W12968   6.370  22.941  14.583
47709W        W12969  15.668  21.701  13.963
47710W        W12970  30.041  33.702  12.427
47711W        W12971  44.695   2.065   4.744
47712W        W12972  14.689  19.744  12.028
47713W        W12973  42.433  36.821   1.867
47714W        W12974   4.467  28.666   0.337
47715W        W12975  25.004  32.610   3.296
47716W        W12976   0.876  32.459   2.274
47717W        W12977  35.027  33.166   3.256
47718W        W12978  19.941  20.273   1.318
47719W        W12979  36.427  38.024  10.667
47720W        W12980  14.182  42.662   0.660
47721W        W12981  37.385  27.897  14.461
47722W        W12982   8.322  13.363  14.973
47723W        W12983   7.405   1.812   1.620
47724W        W12984  29.145  16.032  12.857
47725W        W12985  10.661  29.914   0.926
47726W        W12986   8.685  12.745   1.858
47727W        W12987   5.267  13.212   0.449
47728W        W12988  38.241  38.465   3.423
47729W        W12989  13.700  20.621  12.899
47730W        W12990  43.337   9.270  12.471
47731W        W12991  29.418  30.681  14.943
47732W        W12992  39.566   5.277   4.627
47733W        W12993  25.750   2.257  12.057
47734W        W12994  17.001   0.864   3.927
47735W        W12995  40.322  35.853   3.637
47736W        W12996  22.654  18.384   2.325
47737W        W12997  30.823  23.416   1.785
47738W        W12998  18.267  10.734  11.527
47739W        W12999   7.167  42.492   4.255
47740W        W13000   8.560  29.985   1.814
47741W        W13001   6.769   0.616  12.104
47742W        W13002  10.659   1.646  13.297
47743W        W13003  13.726  28.152  11.561
47744W        W13004  15.897   9.155  11.987
47745W        W13005  41.459   9.662   4.465
47746W        W13006  26.407  36.480  10.356
47747W        W13007  20.428  19.786  11.284
47748W        W13008  23.875  22.977   4.886
47749W        W13009  37.263   1.503   3.172
47750W        W13010  33.532  30.630  13.810
47751W        W13011  40.054  38.866  13.997
47752W        W13012   7.342  40.283   0.731
47753W        W13013   8.920   1.631  13.044
47754W        W13014  28.055  41.739  10.698
47755W        W13015  20.213  21.184  14.076
47756W        W13016  38.068  10.803  14.972
47757W        W13017   4.617  11.382  14.531
47758W        W13018  35.160   3.358  14.430
47759W        W13019   9.670  38.315  13.374
47760W        W13020  36.049  23.699   1.217
47761W        W13021  20.752  40.423  14.978
47762W        W13022  31.643  36.072  12.956
47763W        W13023  37.397  27.572  11.091
47764W        W13024  10.429  40.169   1.781
47765W        W13025  38.714  35.398  11.075
47766W        W13026  24.237   7.885   1.683
47767W        W13027  28.230   6.116  11.656
47768W        W13028   4.323  44.501  11.885
47769W        W13029  42.958   8.525   2.240
47770W        W13030  31.496  36.622   2.471
47771W        W13031  24.947   7.746  11.357
47772W        W13032   7.326  16.386  12.624
47773W        W13033   5.906  24.596   1.908
47774W        W13034  32.777  39.976  14.046
47775W        W13035  28.003  10.790  10.309
47776W        W13036   5.371  36.601   2.156
47777W        W13037  19.442  30.655  13.965
47778W        W13038  31.958  15.808  11.124
47779W        W13039  16.400  13.803   4.112
47780W        W13040  43.939  35.294  13.911
47781W        W13041   3.890  26.890   2.556
47782W        W13042  42.422   8.654  11.792
47783W        W13043  18.524   3.022  11.967
47784W        W13044   0.087   2.982   4.518
47785W        W13045   2.630  33.637  13.888
47786W        W13046  25.490  35.109   2.197
47787W        W13047  25.130  15.313   3.219
47788W        W13048  27.421   9.732  11.577
47789W        W13049  41.420   2.902   3.889
47790W        W13050  28.438  30.364  14.951
47791W        W13051  16.208   7.303   0.678
47792W        W13052  27.738  14.030   2.787
47793W        W13053  23.989   8.953  11.867
47794W        W13054  10.631  17.665   4.882
47795W        W13055   9.172  31.400  13.529
47796W        W13056   0.872  26.459   3.070
47797W        W13057   1.210   4.480  14.573
47798W        W13058  39.754  21.403  11.142
47799W        W13059   2.711  17.300  14.939
47800W        W13060   7.663  21.123  11.896
47801W        W13061  25.509  27.349  10.766
47802W        W13062  27.041  12.353  14.126
47803W        W13063  14.801   6.759  13.693
47804W        W13064   6.391   9.322  11.581
47805W        W13065  39.857  16.964  12.134
47806W        W13066  38.028  12.318  13.507
47807W        W13067  21.632  15.294  10.666
47808W        W13068  12.151  12.351  11.053
47809W        W13069  42.093  23.206  14.422
47810W        W13070  11.299  16.591  10.605
47811W        W13071  13.658  28.650  13.045
47812W        W13072   7.912  35.036   2.002
47813W        W13073  17.020  10.107  10.079
47814W        W13074  10.352   5.234   2.714
47815W        W13075   3.968   1.929  12.079
47816W        W13076  44.945  15.893  13.782
47817W        W13077   0.898  22.930  10.302
47818W        W13078  28.569   6.889  13.012
47819W        W13079  28.682  36.502   2.406
47820W        W13080  11.369  35.012  14.771
47821W        W13081  30.889  16.240   3.269
47822W        W13082  22.091  10.190   4.428
47823W        W13083   4.027  42.803  12.066
47824W        W13084   6.465  35.164   2.421
47825W        W13085  20.066  38.288  11.506
47826W        W13086  30.063  35.180  12.274
47827W        W13087  11.297  27.477  13.324
47828W        W13088  14.730   9.156   3.637
47829W        W13089  28.801  34.837  14.946
47830W        W13090  27.179  32.570   4.360
47831W        W13091  17.850   8.231   0.564
47832W        W13092  11.078  27.909  14.250
47833W        W13093  17.268  26.259  13.807
47834W        W13094  28.072  28.802  13.524
47835W        W13095  43.667   8.313  12.215
47836W        W13096  37.257  27.931  12.481
47837W        W13097   7.690  13.638  11.580
47838W        W13098   5.234  44.795   4.547
47839W        W13099  24.789  25.655   0.378
47840W        W13100  34.097  30.350   2.762
47841W        W13101  33.414   0.898   2.318
47842W        W13102  38.922  34.942  11.139
47843W        W13103   0.321  13.885  13.976
47844W        W13104  26.393  43.479   0.190
47845W        W13105  19.340  25.824  11.748
47846W        W13106  33.987   8.150  13.079
47847W        W13107  34.948  30.488   4.529
47848W        W13108   7.980  15.190  10.607
47849W        W13109  20.094  33.386   4.330
47850W        W13110  27.208  33.276  12.776
47851W        W13111  40.774  10.284  10.517
47852W        W13112  31.903  10.413   1.741
47853W        W13113  33.514  27.974  14.741
47854W        W13114  23.707  38.176  12.112
47855W        W13115  28.677  17.146   3.396
47856W        W13116  19.672   1.242   4.092
47857W        W13117  33.537  39.759  13.453
47858W        W13118  22.552  37.575  13.818
47859W        W13119  23.370   6.077  12.077
47860W        W13120  24.065  13.178   1.436
47861W        W13121  14.976  22.042   3.807
47862W        W13122  35.464  28.890  11.431
47863W        W13123  42.333  38.294   0.430
47864W        W13124  20.086  15.222  10.518
47865W        W13125   1.212   8.923   1.761
47866W        W13126  18.683  35.768  12.756
47867W        W13127  26.157  43.744  12.684
47868W        W13128   4.022  18.305  12.530
47869W        W13129   2.297  15.216  10.493
47870W        W13130  40.828  44.353   1.238
47871W        W13131  25.143  27.459  14.916
47872W        W13132  13.177   9.420  14.051
47873W        W13133  43.408  37.564  14.598
47874W        W13134   4.213  15.696   3.871
47875W        W13135  22.070  24.482  14.209
47876W        W13136  39.892  41.520   4.141
47877W        W13137  24.061  40.821   2.685
47878W        W13138  32.807  34.683  13.520
47879W        W13139   6.903   8.672   0.391
47880W        W13140  36.818  31.919   2.713
47881W        W13141  33.043  44.491  11.248
47882W        W13142  32.066  18.280   2.669
47883W        W13143  37.310   4.078   0.392
47884W        W13144   8.169  37.526  12.765
47885W        W13145  41.376  37.436  12.409
47886W        W13146  18.037   5.751  14.272
47887W        W13147  13.657  40.988  10.714
47888W        W13148  28.013  25.093  14.975
47889W        W13149   4.425   4.521  14.926
47890W        W13150   2.059  41.641  10.731
47891W        W13151  24.789  22.979  13.473
47892W        W13152  33.863  10.247  10.735
47893W        W13153   2.194  25.382   0.382
47894W        W13154  37.988  28.062   4.542
47895W        W13155  17.246  44.175   2.799
47896W        W13156  30.865  44.713   3.229
47897W        W13157  15.785  39.748   2.186
47898W        W13158  42.324  19.219  14.863
47899W        W13159  34.862  12.120  11.537
47900W        W13160   1.879   9.376   2.357
47901W        W13161  25.569  41.572  10.303
47902W        W13162  23.651  41.444   0.866
47903W        W13163   2.241  28.566   4.525
47904W        W13164  15.569  35.541  12.520
47905W        W13165  37.145  33.030   0.266
47906W        W13166  10.579  39.113   0.381
47907W        W13167  10.407  23.144   1.424
47908W        W13168  36.351  14.408  14.339
47909W        W13169   4.317  18.247   4.760
47910W        W13170   8.667  11.097   2.331
47911W        W13171  19.511  11.753  12.897
47912W        W13172  12.327  37.165  13.346
47913W        W13173   3.943  26.918  14.531
47914W        W13174  41.477  11.549   4.214
47915W        W13175   8.683   3.732  12.270
47916W        W13176   5.010   3.792   3.642
47917W        W13177  13.629  18.553  11.470
47918W        W13178  38.808  35.640   1.871
47919W        W13179  35.135  16.161   1.721
47920W        W13180  35.317  20.524   4.080
47921W        W13181  25.598  41.791  12.975
47922W        W13182  43.586  35.061   1.564
47923W        W13183   8.287   2.238   4.586
47924W        W13184  24.497  10.713  11.470
47925W        W13185  44.041  34.121  12.412
47926W        W13186  44.531  13.751   3.099
47927W        W13187  44.743  42.244  13.438
47928W        W13188  39.874  32.980   1.329
47929W        W13189   8.657  13.510   4.263
47930W        W13190   8.772  24.675   9.878
47931W        W13191  19.542  25.506  12.145
47932W        W13192  22.012  21.591  12.770
47933W        W13193  41.014  42.295  12.458
47934W        W13194  30.525   4.207   4.334
47935W        W13195   7.285  22.671   4.046
47936W        W13196  18.206  28.525  13.290
47937W        W13197  22.159  22.032   0.757
47938W        W13198   2.162   5.495  12.852
47939W        W13199   6.258  32.436  14.960
47940W        W13200   0.518  10.271   1.726
47941W        W13201   1.188  20.610   4.365
47942W        W13202  23.169  18.532  14.053
47943W        W13203  20.514  19.319  11.503
47944W        W13204  31.380  34.297   2.177
47945W        W13205  41.569  38.286  13.442
47946W        W13206  13.653  32.580  12.551
47947W        W13207   3.440  39.018   4.234
47948W        W13208   9.989  11.536   3.434
47949W        W13209  10.606   9.877   3.624
47950W        W13210   5.398  25.421   2.684
47951W        W13211  43.643  36.565  11.483
47952W        W13212  17.919  19.091   4.649
47953W        W13213  11.102   0.880  14.934
47954W        W13214   0.749  35.595  13.466
47955W        W13215  11.308  26.719   2.246
47956W        W13216  26.264   5.899   0.913
47957W        W13217  18.077  43.310   0.039
47958W        W13218  22.616   6.488  11.712
47959W        W13219   3.359   7.974  11.963
47960W        W13220  18.761  21.021   1.349
47961W        W13221  39.107  15.413   3.790
47962W        W13222  29.972  26.219  14.914
47963W        W13223  42.325  25.243   2.391
47964W        W13224  30.586  35.929   3.235
47965W        W13225   6.064   3.388   2.422
47966W        W13226  32.574  35.893  10.652
47967W        W13227  20.925  32.524   0.019
47968W        W13228  36.262  29.858  11.701
47969W        W13229  12.403   4.320  10.387
47970W        W13230  15.667  35.132   3.728
47971W        W13231  13.533  36.012  12.447
47972W        W13232   4.094  14.712   3.230
47973W        W13233  27.285  40.085  14.211
47974W        W13234  14.274  40.793  13.308
47975W        W13235  35.867  21.998   4.352
47976W        W13236   6.618  17.925   3.312
47977W        W13237  24.512  27.857   0.716
47978W        W13238  12.776  27.366   5.540
47979W        W13239  15.021  22.010  11.645
47980W        W13240   4.444  21.510  11.944
47981W        W13241  41.013  10.848  13.463
47982W        W13242  22.544  23.111  13.096
47983W        W13243   8.124  18.973  11.054
47984W        W13244  27.980  32.161   4.397
47985W        W13245  26.180  18.853  14.871
47986W        W13246  39.864  30.339  13.548
47987W        W13247  32.118   0.177   0.935
47988W        W13248   9.255   6.632  12.337
47989W        W13249   2.305  27.769  10.227
47990W        W13250  34.474  27.497  13.556
47991W        W13251  24.612  24.303  12.952
47992W        W13252  22.473  43.999  10.686
47993W        W13253  16.092  18.045   3.569
47994W        W13254  37.547  41.308  13.190
47995W        W13255   5.753  42.002  12.512
47996W        W13256   3.623  21.637   4.645
47997W        W13257   9.197  19.649   1.488
47998W        W13258  28.714  10.178   3.788
47999W        W13259  21.878  19.838  12.467
48000W        W13260   5.374  37.874  11.478
48001W        W13261   9.319  37.880   2.752
48002W        W13262  27.046  31.681  10.955
48003W        W13263  13.299  27.137  14.473
48004W        W13264  23.516  16.533   1.266
48005W        W13265  17.245  19.263  12.927
48006W        W13266  37.379   7.755   0.840
48007W        W13267   8.676  26.578  14.847
48008W        W13268  25.009  35.507  13.626
48009W        W13269  41.212  21.597  11.047
48010W        W13270   3.132  44.984  13.785
48011W        W13271  13.272  33.985   3.220
48012W        W13272  44.303  15.624   2.333
48013W        W13273  23.089  19.880  13.781
48014W        W13274  22.126  23.073   3.716
48015W        W13275  11.966   0.662   4.488
48016W        W13276  32.743   3.740  12.154
48017W        W13277  33.510  40.444   1.053
48018W        W13278   3.970  11.886  11.622
48019W        W13279  22.689   6.825  12.942
48020W        W13280  43.921  18.521  11.357
48021W        W13281  29.512  39.829   0.466
48022W        W13282   4.663  33.369  11.196
48023W        W13283   3.261  10.737  12.833
48024W        W13284  19.092  33.913   2.244
48025W        W13285  41.513  15.337  13.049
48026W        W13286  33.876  24.943   1.397
48027W        W13287  20.989   9.893   0.385
48028W        W13288  32.995  22.935   4.164
48029W        W13289  36.072  20.872  13.317
48030W        W13290  32.753  12.546   1.730
48031W        W13291  17.511  27.233  12.846
48032W        W13292   7.257  44.183   0.506
48033W        W13293   2.056  33.871   4.355
48034W        W13294  30.468  38.107   3.262
48035W        W13295  36.054  24.452  12.476
48036W        W13296   2.958  17.753  12.833
48037W        W13297  21.529   8.198   1.000
48038W        W13298  11.244   1.207   3.517
48039W        W13299  17.115  11.640  10.634
48040W        W13300  22.309   6.828  14.722
48041W        W13301   3.407  15.540  12.171
48042W        W13302   4.745  26.078   2.539
48043W        W13303  18.794  15.059  12.505
48044W        W13304   5.231  18.292  13.072
48045W        W13305  13.277   7.128  13.015
48046W        W13306   6.063  44.441   0.064
48047W        W13307  22.057  29.150   2.635
48048W        W13308  42.301  11.178   1.314
48049W        W13309  44.501   6.515  12.899
48050W        W13310   6.379  34.120  12.134
48051W        W13311  31.486   9.204  12.594
48052W        W13312   6.287  28.200  11.006
48053W        W13313  43.119   9.356   2.756
48054W        W13314  11.108  11.871  11.163
48055W        W13315  40.929  37.918   0.546
48056W        W13316  35.015  22.606  10.721
48057W        W13317  13.820  16.306   4.708
48058W        W13318   5.774  38.995  14.861
48059W        W13319  30.624   0.317  12.975
48060W        W13320  16.713  17.271  10.587
48061W        W13321  35.478  29.361  11.238
48062W        W13322   0.849  18.458  13.388
48063W        W13323   3.129  21.571   3.705
48064W        W13324  25.585  41.048  10.781
48065W        W13325   4.498   7.779  14.369
48066W        W13326  31.199  31.127   0.050
48067W        W13327  17.495   0.744  11.903
48068W        W13328  29.537   5.307   3.373
48069W        W13329  21.859  23.131   4.172
48070W        W13330  42.529   9.449  10.761
48071W        W13331  38.967  33.527  11.991
48072W        W13332  18.196   5.206   4.760
48073W        W13333  12.260  30.741  11.349
48074W        W13334   9.688  21.767  13.822
48075W        W13335  21.567  30.755  12.438
48076W        W13336   8.260   7.186   3.135
48077W        W13337  27.129   4.798  11.591
48078W        W13338  15.460  40.972   2.618
48079W        W13339  22.054  22.567   2.336
48080W        W13340  31.235  41.759  14.829
48081W        W13341   9.534  42.459   2.574
48082W        W13342  24.312   2.368  12.016
48083W        W13343  13.793  11.401   4.657
48084W        W13344  15.997  36.403   3.332
48085W        W13345  25.765  40.066   0.483
48086W        W13346  42.027  35.209   3.145
48087W        W13347  33.950  34.047   4.946
48088W        W13348  23.465  38.879   3.134
48089W        W13349  18.864   0.860  14.701
48090W        W13350   8.199  42.736   1.467
48091W        W13351  15.800   2.171   1.421
48092W        W13352  14.119  17.589   0.852
48093W        W13353   6.185  18.575  10.262
48094W        W13354  15.787  11.558  13.168
48095W        W13355  44.104  40.490   3.262
48096W        W13356  23.218  30.867  13.988
48097W        W13357  35.552  44.527  11.909
48098W        W13358  16.183  13.053   1.375
48099W        W13359  28.387   8.119  11.737
48100W        W13360   3.210  22.242   3.984
48101W        W13361  37.299  26.628  10.997
48102W        W13362  24.990  25.112  12.634
48103W        W13363  20.923  30.905   1.831
48104W        W13364   7.844   8.821   4.240
48105W        W13365   1.662  17.083   0.138
48106W        W13366  36.312  27.422   0.409
48107W        W13367  16.799  43.280  14.385
48108W        W13368  16.751  10.632  13.017
48109W        W13369   6.635  25.533   0.356
48110W        W13370  16.696  18.758   4.089
48111W        W13371  35.091   4.697   0.812
48112W        W13372   3.038   6.254   2.761
48113W        W13373  31.444  12.185   0.829
48114W        W13374  42.519  15.053  13.746
48115W        W13375   9.617  19.602   3.718
48116W        W13376   2.859  13.763  11.004
48117W        W13377   5.375  21.604  14.985
48118W        W13378  24.756   5.809  13.447
48119W        W13379   4.565  28.969   0.750
48120W        W13380  41.584  40.002  12.975
48121W        W13381  17.650  15.629  14.770
48122W        W13382   0.969  30.481   4.333
48123W        W13383  40.032  43.755   3.790
48124W        W13384  24.312   7.746  11.226
48125W        W13385   0.060  25.499  14.942
48126W        W13386  42.019  44.940  10.948
48127W        W13387   9.935  20.985  11.579
48128W        W13388  34.110  27.012   2.458
48129W        W13389  35.804  20.114  12.046
48130W        W13390   4.987  34.927  14.766
48131W        W13391  17.054  38.920  12.246
48132W        W13392  27.687  14.099  14.484
48133W        W13393  12.840  20.808   0.183
48134W        W13394  22.090  36.263   2.626
48135W        W13395  14.650  38.968  14.258
48136W        W13396  24.432  43.778   1.723
48137W        W13397   4.676   0.304  12.046
48138W        W13398  14.045  40.317  13.316
48139W        W13399   7.879  20.465  11.485
48140W        W13400  41.966  19.972  11.223
48141W        W13401   9.605  40.003  14.324
48142W        W13402  10.212  35.018  14.555
48143W        W13403  42.341  28.557   1.897
48144W        W13404  33.335  44.232   0.954
48145W        W13405  28.242  12.456   4.616
48146W        W13406  31.105  20.165  10.685
48147W        W13407   7.085  25.019   4.538
48148W        W13408  34.087   1.411  14.312
48149W        W13409  30.917   8.137  11.892
48150W        W13410  24.428  21.303  14.319
48151W        W13411   9.257   9.857   1.936
48152W        W13412  31.955   4.927   3.269
48153W        W13413  32.604  21.688  12.749
48154W        W13414  40.753  24.877  13.776
48155W        W13415   6.918  44.595  11.984
48156W        W13416   1.400  21.512   3.436
48157W        W13417  38.577  10.688  14.975
48158W        W13418  24.020  12.206   0.010
48159W        W13419  15.519  37.825   0.451
48160W        W13420  12.738  41.377  13.471
48161W        W13421  14.934   1.576   1.331
48162W        W13422  36.181   2.907  10.639
48163W        W13423  29.935  32.016   2.871
48164W        W13424  32.294  15.199  12.556
48165W        W13425  19.644   1.000  13.361
48166W        W13426  38.570  38.188   3.732
48167W        W13427  20.237   2.789   0.640
48168W        W13428  44.272   6.357   0.953
48169W        W13429   2.397   9.232  14.007
48170W        W13430  28.385  21.638  14.368
48171W        W13431  16.538  34.288   3.539
48172W        W13432  18.644  25.181  13.033
48173W        W13433  15.466  41.929  13.767
48174W        W13434  35.876  35.194  14.973
48175W        W13435  34.059   8.795   0.374
48176W        W13436  44.711   1.066   1.465
48177W        W13437   1.418   3.950  11.156
48178W        W13438  13.161  15.925  13.975
48179W        W13439  14.203  16.780   2.830
48180W        W13440   9.713  28.582  14.547
48181W        W13441  20.599  21.690   3.670
48182W        W13442  35.345  43.079  14.453
48183W        W13443   2.443  40.994  14.335
48184W        W13444  19.219  31.112   1.731
48185W        W13445  30.492  14.080  12.701
48186W        W13446  22.454  44.287   3.005
48187W        W13447  32.490  10.823   0.958
48188W        W13448   1.225  23.173  12.892
48189W        W13449   4.523  42.831  10.556
48190W        W13450  10.921  23.637   0.822
48191W        W13451  42.903  28.368  14.908
48192W        W13452  18.890  21.598   4.987
48193W        W13453  25.598  28.443   0.556
48194W        W13454   7.925  23.957  10.732
48195W        W13455  33.574  40.986  11.847
48196W        W13456  33.487   1.378  13.983
48197W        W13457   1.225  40.677   0.744
48198W        W13458  34.438  21.014   0.429
48199W        W13459  36.318  41.592   1.767
48200W        W13460  29.075  24.083   1.823
48201W        W13461  27.233  23.620   3.567
48202W        W13462  13.093  25.075   0.552
48203W        W13463  26.968  13.717   1.490
48204W        W13464   8.734   9.455   2.687
48205W        W13465  15.858  30.301  10.148
48206W        W13466  34.416  25.986   1.680
48207W        W13467  38.446  13.029  13.557
48208W        W13468  31.813   3.854   0.393
48209W        W13469  14.920  27.982   0.527
48210W        W13470  26.665  28.737   2.472
48211W        W13471  16.125  15.908  11.475
48212W        W13472  16.330  25.772  10.696
48213W        W13473  10.872   9.245   3.223
48214W        W13474  22.489  16.830   4.517
48215W        W13475  12.650  21.491   2.819
48216W        W13476  41.777  25.797   4.910
48217W        W13477  32.958  40.967  11.336
48218W        W13478   2.267   5.126   0.808
48219W        W13479  41.447  13.856   2.413
48220W        W13480  14.265  37.995   1.327
48221W        W13481   4.566  37.168  12.153
48222W        W13482   3.319  13.394  10.611
48223W        W13483   8.548   0.448  13.375
48224W        W13484  37.545  23.712   1.270
48225W        W13485  26.276   6.768  13.911
48226W        W13486  10.450  34.574   3.115
48227W        W13487  34.244  34.835  12.141
48228W        W13488  39.069  32.391  12.852
48229W        W13489  11.130   3.228  10.816
48230W        W13490   5.713   1.649   3.217
48231W        W13491  44.741   0.327  10.580
48232W        W13492  14.097  33.623   3.772
48233W        W13493  27.993  40.518   2.720
48234W        W13494  17.304  30.036  11.746
48235W        W13495  33.033  42.594   4.290
48236W        W13496  19.230  21.360   1.408
48237W        W13497  34.016   8.092   2.280
48238W        W13498  13.606   8.671  13.373
48239W        W13499  12.560  13.737  12.085
48240W        W13500   4.017   6.428   1.580
48241W        W13501  33.541   6.348  10.603
48242W        W13502  41.686   6.445  10.735
48243W        W13503  40.356  39.454   2.369
48244W        W13504  12.222  23.211   2.157
48245W        W13505  31.666  44.322  14.894
48246W        W13506  22.467  39.810   1.344
48247W        W13507  12.041  27.488  10.040
48248W        W13508  15.240   1.487  12.063
48249W        W13509  11.369   4.391  13.444
48250W        W13510   5.742  38.537  12.525
48251W        W13511  15.740  32.075  13.529
48252W        W13512  34.570  25.980   3.698
48253W        W13513  30.945  29.205   2.725
48254W        W13514  25.649  27.551  11.547
48255W        W13515   9.752  13.646  13.369
48256W        W13516  34.428  32.147  10.963
48257W        W13517  30.951  23.346   2.650
48258W        W13518  33.591   1.940  13.943
48259W        W13519  16.307  37.379   0.402
48260W        W13520  31.366  14.284   0.248
48261W        W13521  40.916  43.521   4.871
48262W        W13522  15.811   4.839  12.882
48263W        W13523  16.349  17.600   2.710
48264W        W13524   7.860   7.941   4.674
48265W        W13525  27.964  14.501  14.809
48266W        W13526  42.962  41.920   2.270
48267W        W13527   3.194  35.197  11.245
48268W        W13528  21.320   1.720   3.090
48269W        W13529  14.524  18.931  10.704
48270W        W13530   2.797  44.445  10.739
48271W        W13531   4.780  29.136  13.645
48272W        W13532  36.554   2.550  12.631
48273W        W13533  33.659  11.845  12.674
48274W        W13534   9.827  39.638  12.063
48275W        W13535  36.565  19.325  13.991
48276W        W13536  29.176  40.511   4.202
48277W        W13537  10.761  31.607  14.445
48278W        W13538  28.665  19.261  10.327
48279W        W13539  21.036  26.575   3.421
48280W        W13540  10.045  27.502   1.827
48281W        W13541  26.717  31.946  13.525
48282W        W13542  20.632   6.260  14.248
48283W        W13543   4.870  10.894  11.706
48284W        W13544  40.297  15.695   1.855
48285W        W13545  33.571   0.319  14.933
48286W        W13546  25.379  38.230   2.766
48287W        W13547   3.810  15.220   4.408
48288W        W13548   0.034  34.893  11.167
48289W        W13549  17.631  11.101   1.317
48290W        W13550  30.980   5.072   2.862
48291W        W13551  28.024  23.845   9.845
48292W        W13552   7.156  27.436   1.696
48293W        W13553  43.382  35.447   4.168
48294W        W13554  35.650   5.832  12.192
48295W        W13555  20.379  18.143   4.652
48296W        W13556   2.757  30.039   3.043
48297W        W13557   6.189  37.578  11.434
48298W        W13558  18.602  15.658  13.904
48299W        W13559  22.053  16.857   0.490
48300W        W13560   1.632  22.423  12.460
48301W        W13561   2.428  36.496  11.090
48302W        W13562  36.700  32.828  14.092
48303W        W13563  29.164   0.203   4.433
48304W        W13564  22.292   9.832  14.851
48305W        W13565   6.227  36.643   4.060
48306W        W13566  25.561  33.604  10.107
48307W        W13567  13.269  35.844   3.701
48308W        W13568  31.413  11.694   2.796
48309W        W13569  44.962  43.499  13.428
48310W        W13570  14.300  10.605  10.065
48311W        W13571  13.238  38.963  10.033
48312W        W13572   4.049  18.533  13.863
48313W        W13573  27.697  42.162  14.417
48314W        W13574  28.845   5.274   4.639
48315W        W13575   3.772  25.354  12.946
48316W        W13576  25.116  20.304   5.712
48317W        W13577  12.324  19.760  14.499
48318W        W13578  41.415  34.334   3.131
48319W        W13579  29.760  24.535   1.444
48320W        W13580   6.269  17.607  14.748
48321W        W13581  20.663  42.324  12.677
48322W        W13582  18.241   5.295   1.754
48323W        W13583   6.472  13.648  13.500
48324W        W13584  31.164   7.850  13.952
48325W        W13585  34.169   8.345   0.066
48326W        W13586  24.877  18.389   1.702
48327W        W13587  24.832  29.862  12.465
48328W        W13588   9.456  34.745   0.993
48329W        W13589  35.544  39.349   4.607
48330W        W13590   9.110  41.258   4.600
48331W        W13591  36.362   5.366   1.762
48332W        W13592  39.497  30.584   0.780
48333W        W13593  32.961   4.012  14.275
48334W        W13594  29.151  34.070   1.910
48335W        W13595  32.476  29.456  11.556
48336W        W13596   9.326  35.954  12.690
48337W        W13597  43.437   7.167  11.989
48338W        W13598  23.492   4.184  12.037
48339W        W13599  34.629  29.620   2.856
48340W        W13600  42.088   3.145   0.513
48341W        W13601   6.680   6.805   4.170
48342W        W13602  40.509  38.082   3.285
48343W        W13603  16.255   6.408   4.308
48344W        W13604   3.246  24.143  12.535
48345W        W13605   5.891  38.568   2.931
48346W        W13606  28.398  24.032  13.831
48347W        W13607   0.296  37.803  11.849
48348W        W13608  24.092  13.078  10.659
48349W        W13609   9.722   4.368   2.968
48350W        W13610   6.474  20.260  12.322
48351W        W13611  21.249  29.982  11.205
48352W        W13612  36.682  33.131  11.100
48353W        W13613  12.389  13.598  12.653
48354W        W13614  37.823  21.264   3.196
48355W        W13615   5.475  13.577  12.080
48356W        W13616  35.444  21.577  10.646
48357W        W13617   0.712  11.132   9.860
48358W        W13618  19.746  35.375  13.007
48359W        W13619  13.920  23.674   3.951
48360W        W13620   9.984  26.553  14.493
48361W        W13621  25.580  19.300  10.576
48362W        W13622  21.059  31.467  10.656
48363W        W13623  33.113  18.783  13.380
48364W        W13624  44.012  18.153   1.919
48365W        W13625   6.463   5.817   0.883
48366W        W13626  37.966  25.555  12.486
48367W        W13627  21.220  11.303  11.068
48368W        W13628  31.577  40.029  11.403
48369W        W13629  10.693  32.352   2.417
48370W        W13630  29.717  38.388   4.671
48371W        W13631  14.272   3.106  14.930
48372W        W13632  34.238  16.105  12.924
48373W        W13633  31.704  11.412  11.565
48374W        W13634   3.128  33.473  13.939
48375W        W13635  15.849  28.650  13.831
48376W        W13636  13.039  39.335  13.876
48377W        W13637   7.111  34.123   1.398
48378W        W13638  16.594  16.675   9.391
48379W        W13639  35.965  27.186   3.933
48380W        W13640  17.275  36.050   4.981
48381W        W13641   6.078  24.436   4.095
48382W        W13642  13.654  37.749  13.441
48383W        W13643  21.504   3.846  10.712
48384W        W13644  42.236  40.789   2.206
48385W        W13645  28.221  32.367   2.417
48386W        W13646   1.760  33.318   2.105
48387W        W13647  37.886  37.762   3.317
48388W        W13648  28.915  15.375  11.188
48389W        W13649  34.839  28.055  10.646
48390W        W13650  20.057   7.217   2.335
48391W        W13651  43.327  21.767   1.968
48392W        W13652   6.837  42.526  10.293
48393W        W13653  32.281  39.906   0.436
48394W        W13654  21.144   5.353  13.526
48395W        W13655  17.292   9.283  11.221
48396W        W13656   2.381   8.868   2.578
48397W        W13657  31.749  28.934   0.736
48398W        W13658  16.673  22.055  12.622
48399W        W13659  20.259  44.921  12.034
48400W        W13660  38.908  26.281  12.041
48401W        W13661  32.468   2.363  11.203
48402W        W13662  32.117  25.665  13.521
48403W        W13663  43.588  43.327   1.853
48404W        W13664  11.391  20.762   4.592
48405W        W13665  14.966  10.192   9.682
48406W        W13666  18.571  43.062   0.136
48407W        W13667  11.660  38.356  12.514
48408W        W13668  33.553  34.000  10.986
48409W        W13669  14.507   1.333  11.450
48410W        W13670   6.599  26.956   4.014
48411W        W13671  36.311  40.761  12.966
48412W        W13672  23.208  20.186  14.192
48413W        W13673  31.094   3.101   3.871
48414W        W13674  17.945   4.204   1.920
48415W        W13675  32.294   9.192  13.682
48416W        W13676   9.351  16.288   3.850
48417W        W13677  38.468  44.230   1.874
48418W        W13678   7.698  16.159  14.068
48419W        W13679  32.922   8.414   1.937
48420W        W13680   3.498   4.193  14.585
48421W        W13681  28.922   6.592  14.938
48422W        W13682  13.073   4.468   1.015
48423W        W13683   4.674  12.879   1.946
48424W        W13684  44.720   5.214   3.713
48425W        W13685   1.234   4.363  14.072
48426W        W13686  33.648  15.751   1.286
48427W        W13687  40.380  37.848  10.446
48428W        W13688  23.020  35.138  10.266
48429W        W13689  39.187  26.207  11.145
48430W        W13690  27.906  34.884  10.438
48431W        W13691  18.233  10.341   1.279
48432W        W13692  38.074  27.611  12.465
48433W        W13693  21.024   6.402  14.653
48434W        W13694   6.258  41.726  12.523
48435W        W13695  30.089  33.405  13.551
48436W        W13696   3.482  20.073  12.467
48437W        W13697  31.487   0.464  11.669
48438W        W13698  12.135  42.297  13.247
48439W        W13699   9.388  29.437   1.757
48440W        W13700  26.138   6.339   3.070
48441W        W13701  19.585   6.982   1.387
48442W        W13702  24.117  26.131   1.123
48443W        W13703  16.700  21.097   1.816
48444W        W13704  40.921  34.948   3.725
48445W        W13705   9.324  27.735  12.178
48446W        W13706  43.444  40.937  10.471
48447W        W13707  22.977  35.070  12.169
48448W        W13708  22.306   2.145  14.841
48449W        W13709  38.498   2.044  12.370
48450W        W13710  33.183  18.010  12.193
48451W        W13711   0.509   5.473   1.410
48452W        W13712  20.366   7.101  11.151
48453W        W13713   5.983  29.065  11.509
48454W        W13714  13.803   0.342  13.078
48455W        W13715   0.507  24.661   1.753
48456W        W13716   8.749  19.497  12.829
48457W        W13717  30.925  29.999  13.515
48458W        W13718  25.174  17.306   1.233
48459W        W13719  32.901   7.794   0.301
48460W        W13720  42.029  44.455  10.761
48461W        W13721  30.846  20.326   0.002
48462W        W13722  27.331   1.346   4.846
48463W        W13723   2.315   5.001   9.927
48464W        W13724  22.636  19.309   2.096
48465W        W13725   0.412  34.413   3.261
48466W        W13726  23.127  39.280   0.307
48467W        W13727  29.942  26.506  12.651
48468W        W13728  21.367  43.255   3.292
48469W        W13729  17.299  13.230   2.746
48470W        W13730  40.952   6.771  10.432
48471W        W13731  41.876  32.876  13.462
48472W        W13732  20.099   6.868   1.324
48473W        W13733  13.355  36.137   5.118
48474W        W13734  22.603  33.175  14.553
48475W        W13735   2.869  23.059   0.820
48476W        W13736  20.744   2.424  13.075
48477W        W13737   0.960  37.247  14.440
48478W        W13738   3.748  13.062   1.640
48479W        W13739   0.972  11.311   0.899
48480W        W13740  38.297  13.665  10.696
48481W        W13741  34.652  19.649  12.559
48482W        W13742  42.402   3.761   5.073
48483W        W13743  44.545  37.338  10.602
48484W        W13744   0.773  19.080   3.602
48485W        W13745   4.812  22.602   2.676
48486W        W13746  10.701  18.632   4.350
48487W        W13747  39.390   3.241  11.682
48488W        W13748  35.352  18.082   5.146
48489W        W13749  11.474  41.840  14.380
48490W        W13750  35.387  23.709  13.505
48491W        W13751  26.134  13.350   3.207
48492W        W13752  23.609   1.300   2.304
48493W        W13753  23.577  32.127  12.818
48494W        W13754  18.405  36.768  12.910
48495W        W13755  18.555  23.780  11.554
48496W        W13756   3.894   4.898   3.427
48497W        W13757  13.038  43.907   3.035
48498W        W13758  15.190   2.935   3.181
48499W        W13759  11.944  31.702  11.570
48500W        W13760  23.343  36.414   1.459
48501W        W13761   1.959  21.790   3.338
48502W        W13762   7.374  33.754  11.147
48503W        W13763  14.600  43.238   1.321
48504W        W13764  12.811  28.671   0.939
48505W        W13765  42.546  39.200  14.987
48506W        W13766  13.884   1.716  12.051
48507W        W13767  42.302  21.707  14.879
48508W        W13768  39.476  22.788   1.193
48509W        W13769  25.140  42.251   1.746
48510W        W13770   2.963  41.411  13.245
48511W        W13771  18.496  41.641  12.685
48512W        W13772   7.874  24.833  12.664
48513W        W13773  23.991  33.709  10.311
48514W        W13774   1.781   8.354   2.187
48515W        W13775  33.646  39.565  12.354
48516W        W13776  27.258  10.159  13.527
48517W        W13777  12.241  18.698  13.870
48518W        W13778  13.699   7.502  13.771
48519W        W13779  26.480  29.506   0.272
48520W        W13780  21.342  23.303  14.354
48521W        W13781  16.051  15.627   1.827
48522W        W13782  14.383   5.314   3.217
48523W        W13783  23.904  26.603   1.062
48524W        W13784  16.381  19.416  14.897
48525W        W13785   8.666   4.853   3.339
48526W        W13786  26.075  10.291  11.057
48527W        W13787  26.670  38.063   2.307
48528W        W13788  13.669  35.958  12.971
48529W        W13789  35.067  44.759  14.484
48530W        W13790  32.976   7.795   4.339
48531W        W13791   9.068   4.213   1.121
48532W        W13792  14.494  20.079  13.062
48533W        W13793  34.731  16.189  10.719
48534W        W13794   2.728  13.527  13.600
48535W        W13795  38.724  41.762  11.234
48536W        W13796   9.466   5.422  14.351
48537W        W13797   6.525  42.307   2.208
48538W        W13798  15.667  19.256   2.241
48539W        W13799   2.304  18.169  14.381
48540W        W13800  24.898   3.005  11.048
48541W        W13801  29.430  27.845   1.408
48542W        W13802   9.493  13.286   2.665
48543W        W13803   4.992  32.415   1.244
48544W        W13804  14.230  18.712   1.858
48545W        W13805  31.751   6.521   4.295
48546W        W13806  41.648  24.403   2.382
48547W        W13807  21.511  39.075   1.637
48548W        W13808  34.436  17.321  13.537
48549W        W13809   6.694   6.555   0.370
48550W        W13810  41.009  16.156  13.772
48551W        W13811  36.469  37.880   4.358
48552W        W13812  35.860  10.197   1.697
48553W        W13813  11.640   6.841   1.519
48554W        W13814   7.869  26.637  12.671
48555W        W13815  14.033  22.301   1.633
48556W        W13816   7.040  24.028   1.058
48557W        W13817  12.038  32.592  14.984
48558W        W13818  34.449  42.508   4.684
48559W        W13819  40.818  22.913  11.754
48560W        W13820  23.114  22.160  11.026
48561W        W13821   1.871   7.451   0.018
48562W        W13822  39.393  40.561   1.194
48563W        W13823   7.936  35.583  11.953
48564W        W13824  43.749  14.798   4.197
48565W        W13825  26.206  35.057   1.638
48566W        W13826   8.451  39.896  14.939
48567W        W13827  38.768  32.436   5.088
48568W        W13828   4.741  12.604   5.070
48569W        W13829   5.828  23.450  10.449
48570W        W13830   3.854  22.905   2.340
48571W        W13831  24.020   5.422  14.449
48572W        W13832  23.641  32.900  11.170
48573W        W13833   8.187  20.062   1.872
48574W        W13834  23.104  26.931   0.430
48575W        W13835  29.472  43.524  10.622
48576W        W13836  19.778   2.235   2.668
48577W        W13837  38.284  29.148  13.257
48578W        W13838   6.193  42.252  12.434
48579W        W13839  16.996  19.794   0.622
48580W        W13840  41.034  25.754   2.684
48581W        W13841  16.155  42.584   1.428
48582W        W13842  26.879  39.255  13.445
48583W        W13843  20.126  44.673  11.587
48584W        W13844  16.729  44.114   4.515
48585W        W13845  22.222  13.150  10.436
48586W        W13846   6.273   7.982   1.441
48587W        W13847  19.129  29.474   4.898
48588W        W13848  19.717  22.910  12.820
48589W        W13849  18.699  20.969  14.838
48590W        W13850  29.040  19.664  11.176
48591W        W13851  16.557  12.939   2.191
48592W        W13852  29.026  22.561  14.098
48593W        W13853   8.831  20.466   3.287
48594W        W13854  23.820  34.776   0.569
48595W        W13855  38.275  20.917  11.017
48596W        W13856  26.304  32.135  12.706
48597W        W13857   6.658  34.501  13.380
48598W        W13858  31.373   5.284   3.761
48599W        W13859  35.975  35.110   4.069
48600W        W13860   1.407  34.150  14.893
48601W        W13861  26.958  35.010   3.312
48602W        W13862  43.736  23.361  11.614
48603W        W13863  24.174  13.628   0.384
48604W        W13864  25.931  38.307  10.269
48605W        W13865  17.134  28.186   3.780
48606W        W13866  19.702  30.205   3.892
48607W        W13867  21.124  31.976  14.340
48608W        W13868  35.821  28.732   3.644
48609W        W13869  22.275  18.149  13.452
48610W        W13870  23.396   7.957  12.226
48611W        W13871   3.475  20.103  11.091
48612W        W13872  35.514  11.564  11.672
48613W        W13873  20.997  10.713  14.663
48614W        W13874  21.045  19.631   1.632
48615W        W13875  14.673  13.550  12.628
48616W        W13876   8.799  32.134   1.323
48617W        W13877  39.288  19.285  12.127
48618W        W13878  10.885  15.602  12.107
48619W        W13879  30.010  30.207  12.188
48620W        W13880  13.048  11.527  11.133
48621W        W13881  44.833  14.686  14.570
48622W        W13882   3.179  15.595   1.784
48623W        W13883  17.566   1.697   1.879
48624W        W13884  39.036  18.828   1.747
48625W        W13885  28.769   5.332   2.840
48626W        W13886  26.486   9.761  11.546
48627W        W13887  13.658  39.346   3.841
48628W        W13888   7.874  11.158   3.921
48629W        W13889  29.484  14.792  13.097
48630W        W13890  12.188  40.565  14.892
48631W        W13891  13.842  43.979   0.908
48632W        W13892  11.277  24.730   4.147
48633W        W13893  34.127   8.968  11.127
48634W        W13894  23.254  30.474   1.876
48635W        W13895  10.370  41.465   0.915
48636W        W13896  37.857  35.600   2.284
48637W        W13897   5.293  32.069  10.130
48638W        W13898  21.565  24.277   2.844
48639W        W13899  34.982  30.244  12.170
48640W        W13900   9.276  23.577   2.313
48641W        W13901  10.935   2.198   0.327
48642W        W13902  19.787  34.421   0.535
48643W        W13903  34.382   3.634  10.659
48644W        W13904   5.813   1.688  13.776
48645W        W13905   4.942   0.945  14.601
48646W        W13906  13.319  12.291  13.074
48647W        W13907  30.483   5.233  11.898
48648W        W13908  13.960  32.173  12.471
48649W        W13909  43.518  13.896  13.362
48650W        W13910  44.231   4.704  11.068
48651W        W13911   3.329  28.921   0.243
48652W        W13912  28.170  15.578   4.386
48653W        W13913  43.264  21.825   2.474
48654W        W13914  23.024  21.820  14.920
48655W        W13915  37.153  37.334   2.722
48656W        W13916   1.491  24.730   0.093
48657W        W13917  35.451  26.895   2.771
48658W        W13918  42.474  42.285  13.365
48659W        W13919  42.814  30.379   3.421
48660W        W13920  16.504  36.213   2.472
48661W        W13921  40.316   4.991   4.158
48662W        W13922  17.499   6.342   1.482
48663W        W13923  39.332  34.976   4.582
48664W        W13924  43.350  16.731  14.273
48665W        W13925   3.544  43.830  11.536
48666W        W13926  20.189   4.474   9.702
48667W        W13927  26.718   5.353  14.827
48668W        W13928  15.806  18.804  14.751
48669W        W13929  10.297  17.343  10.774
48670W        W13930   3.467  16.782  12.419
48671W        W13931  33.134  43.771   2.693
48672W        W13932   3.748  20.911  12.918
48673W        W13933  18.009   6.254   0.255
48674W        W13934  31.519  10.182   0.894
48675W        W13935  28.964  37.446   3.930
48676W        W13936  33.801  23.737   3.187
48677W        W13937  26.551  38.082  13.385
48678W        W13938  10.467  37.303   1.838
48679W        W13939  44.821   6.937   4.588
48680W        W13940   6.740  19.759  13.590
48681W        W13941  27.617  21.048  11.219
48682W        W13942  26.894   5.139   4.668
48683W        W13943   1.680  31.049   4.203
48684W        W13944  10.823  14.410  11.339
48685W        W13945  35.932  39.894  11.439
48686W        W13946  42.095  29.890   4.117
48687W        W13947  34.398  10.898  10.995
48688W        W13948   1.592   3.636   1.180
48689W        W13949  31.201  44.273  12.529
48690W        W13950   1.798  44.020   4.662
48691W        W13951   4.368  31.037  12.700
48692W        W13952  24.143   6.424   0.530
48693W        W13953   9.581  43.269   0.658
48694W        W13954  43.289  39.437  13.111
48695W        W13955  43.305  20.040  10.710
48696W        W13956  34.438   6.106  13.906
48697W        W13957  24.687  42.016   3.713
48698W        W13958  39.017  36.315   1.180
48699W        W13959   3.142   7.741  11.082
48700W        W13960   3.286  19.639   1.157
48701W        W13961  43.138   9.631   3.251
48702W        W13962  19.303   0.356  13.368
48703W        W13963  40.990  42.225  11.610
48704W        W13964  16.804  30.139   3.664
48705W        W13965  32.373  11.259  13.978
48706W        W13966   9.742  42.731  12.644
48707W        W13967   9.710  13.954  11.151
48708W        W13968   0.828  35.390   0.372
48709W        W13969  14.613  39.948   2.845
48710W        W13970   1.788  42.749   3.901
48711W        W13971  33.135  28.086  12.549
48712W        W13972   2.263  11.830  13.687
48713W        W13973   9.691  27.700   5.363
48714W        W13974   3.822  16.389  12.336
48715W        W13975  25.444   1.834  12.000
48716W        W13976  16.605  39.905  11.543
48717W        W13977   6.544   8.209   4.854
48718W        W13978  30.709  31.959  10.889
48719W        W13979  14.006  34.638   1.445
48720W        W13980   3.405  11.369  12.166
48721W        W13981  19.468   9.944   0.921
48722W        W13982  31.258   8.685   4.540
48723W        W13983   3.912  23.302   1.352
48724W        W13984  36.826  35.501  12.191
48725W        W13985   9.706  23.865   2.242
48726W        W13986  31.140  22.061   1.645
48727W        W13987  38.293  44.654  13.835
48728W        W13988  16.585  12.636  14.266
48729W        W13989  33.887   4.127   2.653
48730W        W13990  42.086  29.940   0.273
48731W        W13991   4.224  33.097  12.954
48732W        W13992  17.530   7.865   4.056
48733W        W13993  39.215  15.025   0.353
48734W        W13994  27.170  10.876  12.058
48735W        W13995  37.770  23.995   4.891
48736W        W13996  15.499  42.288   3.175
48737W        W13997  16.547  23.889  14.305
48738W        W13998  15.330  39.996   1.543
48739W        W13999  35.374  10.251  13.503
48740W        W14000  35.421  21.808   0.718
48741W        W14001  40.007  37.613   4.337
48742W        W14002   1.895  25.417  14.479
48743W        W14003  36.474  26.482  12.068
48744W        W14004   8.098  30.130   2.806
48745W        W14005  27.478  14.341   1.797
48746W        W14006  10.220  26.866   1.631
48747W        W14007  22.943  23.425  13.055
48748W        W14008  40.783   6.946  10.896
48749W        W14009  42.027   5.420  14.190
48750W        W14010  19.754   0.947  12.426
48751W        W14011  40.907  25.123   5.081
48752W        W14012  11.377  40.847  13.060
48753W        W14013   5.208  13.566   3.577
48754W        W14014  21.231  40.988   2.761
48755W        W14015  12.651  10.201  14.465
48756W        W14016  10.529  39.346  13.567
48757W        W14017   4.501  14.877  14.358
48758W        W14018   8.096  43.119   2.292
48759W        W14019   3.368   5.397  13.389
48760W        W14020  10.043  36.328   1.078
48761W        W14021   8.681  40.072  10.423
48762W        W14022  22.942  10.250   1.815
48763W        W14023   0.953  14.068  14.980
48764W        W14024  39.969   3.808   0.232
48765W        W14025  42.835   6.050   2.464
48766W        W14026  15.040   6.902   2.247
48767W        W14027  43.983  17.576   4.178
48768W        W14028  33.561   5.453  13.945
48769W        W14029  31.970  27.022  14.934
48770W        W14030  19.341  44.287   2.249
48771W        W14031  35.046  21.115   2.942
48772W        W14032  42.336  41.818  14.306
48773W        W14033  38.441   2.712  13.446
48774W        W14034  37.416  16.587  14.388
48775W        W14035  36.359  35.009  14.888
48776W        W14036  13.232  27.993  10.703
48777W        W14037  19.579  35.186   1.213
48778W        W14038   2.823  36.546  12.957
48779W        W14039  32.324  20.869  14.889
48780W        W14040  21.720   6.195   0.744
48781W        W14041  27.564  26.011   2.974
48782W        W14042  39.941  20.527  13.722
48783W        W14043  16.519  20.318   3.562
48784W        W14044  21.808  25.114  13.903
48785W        W14045  19.152  18.729  11.479
48786W        W14046  17.235  12.217  14.919
48787W        W14047   8.419  17.803  14.302
48788W        W14048  23.094   8.616  14.742
48789W        W14049  16.195  19.580  12.563
48790W        W14050  15.769  44.004   3.616
48791W        W14051  28.293  12.640  10.299
48792W        W14052  11.538  24.736  13.861
48793W        W14053  19.955  32.933   3.068
48794W        W14054  28.977  20.050   5.018
48795W        W14055  40.986  14.116   1.016
48796W        W14056   7.939   7.685  11.566
48797W        W14057   0.260   1.153  12.333
48798W        W14058  34.918   7.448  11.654
48799W        W14059  18.788  21.454   0.651
48800W        W14060  19.182   5.448  13.025
48801W        W14061  37.797   8.949  12.377
48802W        W14062  34.900  25.204  12.949
48803W        W14063  17.812  33.289   4.115
48804W        W14064  29.976  44.996  14.031
48805W        W14065  21.129   2.361  10.624
48806W        W14066  22.028  23.285   2.915
48807W        W14067  36.843  35.117  13.441
48808W        W14068  24.073  23.538   0.801
48809W        W14069  29.376   6.358  14.869
48810W        W14070  43.408   3.589   0.792
48811W        W14071   7.786  44.681   3.052
48812W        W14072  10.734  28.531  14.728
48813W        W14073  36.556  17.519   2.686
48814W        W14074   7.615  10.244  10.816
48815W        W14075  31.081  21.019  13.335
48816W        W14076  24.001  41.800  13.128
48817W        W14077  10.220  16.072   2.684
48818W        W14078  13.915  14.629   0.009
48819W        W14079  14.548  12.353   4.095
48820W        W14080  24.678  44.179   4.836
48821W        W14081  26.341  17.923   1.998
48822W        W14082   5.303  13.015  12.669
48823W        W14083  29.443  36.274  13.040
48824W        W14084  37.064  31.387  12.803
48825W        W14085   4.589  14.834   3.363
48826W        W14086  38.840   5.651  12.440
48827W        W14087  36.957   7.221   2.636
48828W        W14088  32.026  18.105   0.761
48829W        W14089  31.875  16.705   3.640
48830W        W14090  39.382   2.015  12.967
48831W        W14091  32.035  13.745   2.801
48832W        W14092  31.348  23.981   0.796
48833W        W14093   1.916  12.708  11.530
48834W        W14094  25.169  34.988  11.888
48835W        W14095  14.338  37.868   2.805
48836W        W14096  21.030  44.267  12.085
48837W        W14097  30.917   7.785   4.077
48838W        W14098  34.452  13.564   1.435
48839W        W14099   4.421  20.158   1.635
48840W        W14100  40.082  26.287  13.930
48841W        W14101   2.749  19.544  14.836
48842W        W14102  12.241  10.125   4.763
48843W        W14103  12.277   7.981   3.655
48844W        W14104  43.972  43.752  11.519
48845W        W14105  18.218  37.029  11.419
48846W        W14106   7.478  16.273  11.555
48847W        W14107  38.601  28.170   0.777
48848W        W14108  18.036   5.399   3.626
48849W        W14109   9.102  23.090  11.170
48850W        W14110   5.832  37.933   0.873
48851W        W14111  16.183   1.235   3.240
48852W        W14112  34.434  39.871  14.798
48853W        W14113   5.305  13.367  13.041
48854W        W14114  29.987  34.704   3.630
48855W        W14115  42.462  37.212  14.409
48856W        W14116  17.700  20.367   1.723
48857W        W14117  17.590  22.247   0.844
48858W        W14118   7.685  38.411  14.975
48859W        W14119  35.804  16.995  13.535
48860W        W14120  18.219  38.270  12.062
48861W        W14121   6.220  41.450  12.983
48862W        W14122  32.557  43.856   0.577
48863W        W14123   6.041  26.644  14.401
48864W        W14124   4.231  21.327   2.260
48865W        W14125  24.137   2.289   1.318
48866W        W14126  42.338   3.176   1.740
48867W        W14127  17.224  13.213   0.215
48868W        W14128   1.952   6.384  14.029
48869W        W14129  18.442  17.268   4.037
48870W        W14130   9.356  29.585   2.793
48871W        W14131  12.268   9.341   3.199
48872W        W14132  41.794  20.351  11.599
48873W        W14133  29.150   0.563  10.969
48874W        W14134  16.022  32.092   3.675
48875W        W14135  14.205  27.928   0.019
48876W        W14136  25.497   8.683   2.305
48877W        W14137  19.299  42.282   3.747
48878W        W14138   5.481  35.332   1.873
48879W        W14139  16.214   6.628  11.444
48880W        W14140   1.940  43.394   1.061
48881W        W14141  31.411   7.446   2.754
48882W        W14142  23.078  43.047   1.763
48883W        W14143   8.470  31.229  13.455
48884W        W14144  33.678   3.768   2.306
48885W        W14145  29.795  36.582  12.090
48886W        W14146  15.210   2.376  13.347
48887W        W14147  15.822  12.139   1.507
48888W        W14148  41.865  27.338   3.701
48889W        W14149  40.839  44.256   3.317
48890W        W14150  10.839  42.823   4.537
48891W        W14151   7.084  16.287   3.098
48892W        W14152  34.120   9.475  11.158
48893W        W14153  32.048  12.015   0.158
48894W        W14154   7.764  35.394  11.502
48895W        W14155  39.627  43.462   0.760
48896W        W14156  12.178  23.472   1.280
48897W        W14157  35.807   6.966  10.806
48898W        W14158  34.864   5.690   1.715
48899W        W14159  41.363   2.520   4.663
48900W        W14160  32.134  42.084  12.348
48901W        W14161   2.313  42.485   3.902
48902W        W14162  40.940  11.824  12.515
48903W        W14163  35.129  34.666   3.139
48904W        W14164  21.512  43.069  12.455
48905W        W14165  14.122   8.959   1.630
48906W        W14166   8.731  34.550  13.366
48907W        W14167  27.003  15.239  14.913
48908W        W14168  18.691  26.361  14.401
48909W        W14169  38.034   1.967  13.686
48910W        W14170  40.688  13.567  11.188
48911W        W14171  29.659  39.755   4.526
48912W        W14172  14.120   6.033   2.057
48913W        W14173  41.379  22.286   3.234
48914W        W14174  22.256   1.906  12.540
48915W        W14175  36.024  15.326  14.490
48916W        W14176   9.907  40.896  11.533
48917W        W14177  34.905  12.726  14.793
48918W        W14178   9.875  42.566   2.194
48919W        W14179  42.279  20.202  13.981
48920W        W14180   4.819  40.834  11.605
48921W        W14181  27.803   0.790   0.707
48922W        W14182  25.703  24.281  14.299
48923W        W14183  38.868  15.133   0.809
48924W        W14184   7.063   7.221   2.391
48925W        W14185  24.912   3.257   1.753
48926W        W14186  18.716   8.462  11.136
48927W        W14187  14.585  23.277  11.106
48928W        W14188   7.490  41.176  12.065
48929W        W14189   4.897  33.259  12.463
48930W        W14190  19.948  20.623  14.281
48931W        W14191  20.490   6.365  10.605
48932W        W14192   6.282  27.636  12.893
48933W        W14193  31.137  44.878   2.813
48934W        W14194  31.978  33.352  13.808
48935W        W14195  39.559  20.121  14.884
48936W        W14196   2.212  26.129  14.993
48937W        W14197  31.362  19.256  13.855
48938W        W14198  35.586  13.935   3.506
48939W        W14199   7.919  24.144  11.622
48940W        W14200  44.767  12.328  14.032
48941W        W14201  11.832   8.808  12.842
48942W        W14202   2.476   9.071   0.777
48943W        W14203  11.216   6.108   5.005
48944W        W14204  35.459  15.632  14.152
48945W        W14205  21.329   1.326   3.387
48946W        W14206  23.182  35.323  13.026
48947W        W14207   3.861  36.507   3.113
48948W        W14208  26.570  19.721   5.097
48949W        W14209  42.950  22.470   4.144
48950W        W14210  12.365  26.037   2.759
48951W        W14211   5.839  39.962  11.467
48952W        W14212  10.833   6.296  14.516
48953W        W14213  19.661  40.552  11.702
48954W        W14214  12.612  40.488   4.792
48955W        W14215  40.876  43.965  12.064
48956W        W14216  20.999  30.340  13.378
48957W        W14217  28.104  33.438   3.970
48958W        W14218  15.612  13.561   3.257
48959W        W14219  20.071  32.080   0.924
48960W        W14220   4.647  25.204  14.891
48961W        W14221  42.447  25.413  11.953
48962W        W14222  35.048  32.186  13.298
48963W        W14223  35.016  33.562   0.761
48964W        W14224  42.403  21.281   3.776
48965W        W14225  38.788  22.064  10.076
48966W        W14226  35.846  39.543   1.309
48967W        W14227  44.562  36.386  11.535
48968W        W14228  20.562  39.464   3.632
48969W        W14229   8.683  11.352  14.170
48970W        W14230  14.163  20.167   3.161
48971W        W14231  38.381   3.950   2.278
48972W        W14232  15.169  33.830   1.781
48973W        W14233  29.183  40.337  11.989
48974W        W14234   0.469   5.276  11.961
48975W        W14235   6.730  20.659  12.137
48976W        W14236  10.053  32.408   2.707
48977W        W14237  14.755  19.123   4.255
48978W        W14238  11.126  16.384   1.390
48979W        W14239  26.672  23.577   1.507
48980W        W14240  29.220  36.733   2.912
48981W        W14241  41.008   6.772  12.743
48982W        W14242  28.941  20.833   1.674
48983W        W14243   5.293   7.846   0.279
48984W        W14244  43.360  15.096   2.396
48985W        W14245  21.011  44.740  11.403
48986W        W14246  15.141  32.813   1.685
48987W        W14247  28.229  18.775   1.132
48988W        W14248  43.022  34.363   0.597
48989W        W14249   8.682   0.484  10.375
48990W        W14250  35.325  40.932   1.375
48991W        W14251   1.722   4.881   4.586
48992W        W14252  42.429  17.101  12.469
48993W        W14253  20.477  31.913   4.759
48994W        W14254  42.307   1.367  11.854
48995W        W14255  37.509  35.541   0.499
48996W        W14256  18.975  29.657  13.109
48997W        W14257  18.707  30.517   1.984
48998W        W14258  13.466  37.339   3.738
48999W        W14259  24.311  20.021  10.724
49000W        W14260   3.222  40.471   1.721
49001W        W14261  29.738  35.454  11.019
49002W        W14262  26.955  35.695  12.401
49003W        W14263  12.804  11.737  10.695
49004W        W14264  34.666   5.681   2.232
49005W        W14265   7.181  34.853  11.934
49006W        W14266  23.674  44.107   2.439
49007W        W14267  39.392  29.925   4.385
49008W        W14268  24.262  15.360   0.855
49009W        W14269   5.784  32.049  11.389
49010W        W14270  12.218  15.789   0.845
49011W        W14271   8.643  32.175   4.200
49012W        W14272  42.507   7.765  10.724
49013W        W14273  20.243  23.994  12.406
49014W        W14274  37.455  34.218  10.709
49015W        W14275  42.766  25.921  10.792
49016W        W14276  23.517  38.757  12.834
49017W        W14277  20.631   8.912   4.030
49018W        W14278  42.368   0.539   4.676
49019W        W14279  39.607  11.731  12.274
49020W        W14280  38.428  35.369  13.811
49021W        W14281  36.799  40.897   0.344
49022W        W14282  36.399  14.352  13.427
49023W        W14283  21.011  37.490   4.554
49024W        W14284   7.926  24.779  12.175
49025W        W14285  13.852  12.425   1.271
49026W        W14286  16.122  23.719   2.768
49027W        W14287  31.345  17.194  13.485
49028W        W14288  37.611  31.924  14.990
49029W        W14289   6.939  11.158  11.990
49030W        W14290   3.677  36.959  10.793
49031W        W14291  33.016  30.628  11.419
49032W        W14292  15.821  24.296   3.639
49033W        W14293  18.916   6.765  10.794
49034W        W14294  39.367  23.262  14.869
49035W        W14295  36.190  32.462  12.639
49036W        W14296  29.026  22.638  13.597
49037W        W14297   8.181  26.439  13.509
49038W        W14298  18.074  28.638   2.754
49039W        W14299   4.262  12.206   0.061
49040W        W14300  22.010  34.084  13.456
49041W        W14301  33.175  19.251  13.860
49042W        W14302  33.535  38.605  11.105
49043W        W14303  20.004  19.231  12.250
49044W        W14304  32.644   9.348   2.780
49045W        W14305   3.064  41.757   4.225
49046W        W14306  44.778  14.771  13.103
49047W        W14307   6.897  33.914  12.016
49048W        W14308  26.558  21.745  13.691
49049W        W14309  11.939   1.262  14.931
49050W        W14310  40.537   6.676  13.517
49051W        W14311   7.609  43.374  12.061
49052W        W14312  25.627   6.941  14.877
49053W        W14313  24.151  13.409   2.715
49054W        W14314   5.905   5.729   2.833
49055W        W14315   6.120  28.059   2.719
49056W        W14316  14.341  15.126  13.088
49057W        W14317  18.264  33.839   3.521
49058W        W14318  38.823  17.284  12.426
49059W        W14319  41.842   6.967   4.024
49060W        W14320  25.211  25.759   4.515
49061W        W14321  30.604  31.355   1.233
49062W        W14322  23.723  27.912  11.407
49063W        W14323  32.127  20.008   5.058
49064W        W14324  10.238  21.714  13.101
49065W        W14325  32.663  12.213   3.904
49066W        W14326   6.180  22.788   0.518
49067W        W14327  21.168  22.621  12.115
49068W        W14328  11.870  12.389  14.321
49069W        W14329  31.004  13.843  14.899
49070W        W14330   1.402  43.959  10.496
49071W        W14331   0.323   9.058  11.585
49072W        W14332  40.830  31.445   2.317
49073W        W14333   9.599   9.636   3.354
49074W        W14334   7.728   9.679   1.316
49075W        W14335  27.658  31.115  13.276
49076W        W14336  23.844  36.814   3.720
49077W        W14337  25.875  28.037  11.511
49078W        W14338  38.788  25.634   4.604
49079W        W14339  43.005  43.532  14.378
49080W        W14340  30.446   2.917  12.541
49081W        W14341  40.071  12.153  11.152
49082W        W14342  42.911  28.902  14.328
49083W        W14343  18.662  41.520   3.162
49084W        W14344  22.775  10.897   0.758
49085W        W14345  32.293  40.530   4.683
49086W        W14346  14.760  17.547   3.745
49087W        W14347   1.312  25.666  13.112
49088W        W14348  43.274  26.600   1.820
49089W        W14349  18.249  30.131  13.806
49090W        W14350  16.740  26.255  13.886
49091W        W14351  44.518  35.948   2.848
49092W        W14352   4.500  35.007   4.732
49093W        W14353  28.856   8.616  12.509
49094W        W14354  15.648   8.724  11.868
49095W        W14355   4.542  16.976   2.105
49096W        W14356  37.920  32.491   0.882
49097W        W14357  25.475  31.784  14.794
49098W        W14358  17.857   4.851  13.168
49099W        W14359  39.540  40.997  11.672
49100W        W14360  35.124  23.534  13.926
49101W        W14361  39.157   7.159   2.475
49102W        W14362  34.487   5.668  14.204
49103W        W14363  10.405   3.684  13.053
49104W        W14364   9.758  28.563   2.277
49105W        W14365   1.483   1.717   3.045
49106W        W14366   8.239   3.420   1.807
49107W        W14367  18.838  34.826   1.569
49108W        W14368  17.809   5.001  14.948
49109W        W14369   3.238  25.748  14.374
49110W        W14370  19.532  35.878   2.707
49111W        W14371   6.204   3.269  10.699
49112W        W14372  33.201  39.090  12.901
49113W        W14373  14.338  25.425  12.498
49114W        W14374   0.301  16.596   1.424
49115W        W14375   3.684  25.515   2.343
49116W        W14376   6.876  16.209  12.932
49117W        W14377   5.111  37.050  11.153
49118W        W14378   9.060  26.049  12.965
49119W        W14379  28.076  25.384   0.394
49120W        W14380  31.184  18.518   1.661
49121W        W14381  19.020  21.921   4.589
49122W        W14382  32.651   7.952  14.294
49123W        W14383  40.556  21.015  12.235
49124W        W14384  19.078  36.640  12.967
49125W        W14385   2.370  14.884   1.802
49126W        W14386  32.034  36.083  14.447
49127W        W14387  41.881  44.805   1.297
49128W        W14388   6.901  36.897  12.573
49129W        W14389  38.437  40.118   3.862
49130W        W14390  35.465   9.412   4.732
49131W        W14391  44.804  17.732  13.803
49132W        W14392  41.964  27.150  14.388
49133W        W14393  20.326  10.320  10.628
49134W        W14394   6.870  14.572  14.468
49135W        W14395  20.140  16.703  11.575
49136W        W14396  22.053   1.069   5.009
49137W        W14397  33.114  40.379   3.585
49138W        W14398   4.891  17.840   0.885
49139W        W14399  37.929  23.219   1.653
49140W        W14400   8.678  22.474  11.877
49141W        W14401  38.825  11.549  11.212
49142W        W14402  38.845   9.189  13.416
49143W        W14403  40.537   1.413   4.641
49144W        W14404  18.511   0.158  11.178
49145W        W14405   6.174  40.527   0.401
49146W        W14406  19.065  15.207  12.916
49147W        W14407   0.921  19.304   3.168
49148W        W14408  42.728   5.739   4.939
49149W        W14409  38.394  10.368   1.762
49150W        W14410  15.703  20.160   1.442
49151W        W14411  11.248   5.462   3.115
49152W        W14412  37.165   8.846   1.289
49153W        W14413   8.538  21.517  14.457
49154W        W14414  29.945  32.359  10.635
49155W        W14415  30.393  31.569  10.642
49156W        W14416  16.052  18.167  11.992
49157W        W14417  12.754  29.203  10.224
49158W        W14418  26.415  34.386  12.550
49159W        W14419  42.841  19.526  11.242
49160W        W14420  35.492  27.412   2.653
49161W        W14421   7.372   3.265  10.711
49162W        W14422   3.325  13.364   4.867
49163W        W14423  27.729  21.562  11.976
49164W        W14424  16.169  39.863  10.962
49165W        W14425  34.827   9.603  12.446
49166W        W14426  18.109   3.724   0.274
49167W        W14427  28.924  23.716   0.966
49168W        W14428  28.444   6.289  12.094
49169W        W14429   1.746  18.818  11.213
49170W        W14430  21.297  41.982  11.631
49171W        W14431  29.003   4.681  12.355
49172W        W14432  25.391  15.321  14.855
49173W        W14433   8.049   6.997   3.698
49174W        W14434  21.005  13.148   2.582
49175W        W14435  10.356  26.454   0.712
49176W        W14436  42.861  29.681  14.115
49177W        W14437  26.219  38.111   3.049
49178W        W14438  31.694  11.031   1.726
49179W        W14439  27.411  32.187   3.529
49180W        W14440  12.141   0.043  10.512
49181W        W14441  34.958  31.476   1.822
49182W        W14442   0.651   9.291   0.551
49183W        W14443  41.872  44.038   2.950
49184W        W14444  10.758  21.323   0.907
49185W        W14445   9.301  14.269  11.156
49186W        W14446   2.492  13.549   4.506
49187W        W14447  19.469  12.315  11.424
49188W        W14448  17.507  32.098   4.791
49189W        W14449   5.905  15.786   1.223
49190W        W14450  14.014  36.647  13.958
49191W        W14451  41.773  43.993   0.485
49192W        W14452  35.138  28.742   4.994
49193W        W14453  16.598  39.372   4.566
49194W        W14454  37.554   2.864   3.344
49195W        W14455  27.209  12.824  13.941
49196W        W14456  17.865  21.696   2.140
49197W        W14457   4.659  33.519  14.899
49198W        W14458  24.080   6.525  13.682
49199W        W14459   5.604  35.394  13.733
49200W        W14460  12.144  24.590   1.217
49201W        W14461   1.858   4.130   1.205
49202W        W14462  33.219  36.920  10.671
49203W        W14463   1.249  38.233   3.258
49204W        W14464  35.042   9.613  13.226
49205W        W14465   2.647  16.384   3.176
49206W        W14466  13.350  33.189   1.673
49207W        W14467  21.944  23.603  13.305
49208W        W14468  20.891  21.058   0.316
49209W        W14469  30.909  36.329  12.059
49210W        W14470  10.840  33.806  13.820
49211W        W14471   6.748  18.147   0.374
49212W        W14472   8.930  13.775  12.069
49213W        W14473  37.960  16.482  14.358
49214W        W14474  12.572  11.788  13.304
49215W        W14475  21.077  17.524   5.013
49216W        W14476  38.562  37.140  11.505
49217W        W14477  18.813  40.497  11.464
49218W        W14478  21.629  28.688  14.245
49219W        W14479  12.214  10.883  14.942
49220W        W14480  26.192  36.848   1.737
49221W        W14481  17.822  10.283   2.467
49222W        W14482   9.412  34.480  14.251
49223W        W14483  35.922  12.292   4.228
49224W        W14484   6.972  37.090  14.394
49225W        W14485  29.974   9.891  14.548
49226W        W14486  24.838  38.489   3.423
49227W        W14487  31.440  22.876   0.016
49228W        W14488  34.075  20.726   2.225
49229W        W14489  40.641  44.521  10.850
49230W        W14490  42.470  18.530   3.429
49231W        W14491  21.753  32.974  14.911
49232W        W14492  34.862   5.056   3.366
49233W        W14493  32.745  31.117  14.171
49234W        W14494  16.172  14.794   4.043
49235W        W14495   5.494  44.730  13.493
49236W        W14496  27.447  43.571  13.218
49237W        W14497  30.548   9.427   3.049
49238W        W14498  27.768  11.253   1.705
49239W        W14499  40.474  26.466  14.732
49240W        W14500  40.996  39.855   1.374
49241W        W14501   4.310   1.390   3.746
49242W        W14502  18.746  14.596   4.424
49243W        W14503  38.663  34.006  12.868
49244W        W14504  13.528   0.007  12.290
49245W        W14505  17.756  33.815  12.018
49246W        W14506   7.455  16.597  11.975
49247W        W14507  24.425  37.856   2.223
49248W        W14508  20.718  17.894   4.148
49249W        W14509  24.513   7.829   0.003
49250W        W14510   8.289  42.250  13.326
49251W        W14511  32.577  18.543   2.711
49252W        W14512  26.948   4.593   2.737
49253W        W14513   7.443   0.699   4.774
49254W        W14514  22.751  42.979   4.164
49255W        W14515  36.162  26.577   4.144
49256W        W14516  35.853  36.061   4.529
49257W        W14517  29.926  12.553  11.135
49258W        W14518  36.050  18.033  14.446
49259W        W14519  10.347  32.206  11.975
49260W        W14520  21.630  33.372   1.731
49261W        W14521  10.337  41.934   2.681
49262W        W14522   4.172   6.713   2.292
49263W        W14523  35.446  28.390   0.745
49264W        W14524   6.094  20.954   4.078
49265W        W14525  38.904  30.377  14.445
49266W        W14526  10.703  11.120  10.743
49267W        W14527  39.406  17.771  12.132
49268W        W14528  35.632  27.623  14.724
49269W        W14529   4.293  22.188   4.603
49270W        W14530   7.622   6.464   3.637
49271W        W14531   5.348   5.791  13.968
49272W        W14532  29.353  16.778  12.069
49273W        W14533  30.703  32.632  14.998
49274W        W14534  38.034  27.402  13.562
49275W        W14535   8.113  35.106  14.925
49276W        W14536  26.605  25.253   2.675
49277W        W14537   8.645  35.025   3.239
49278W        W14538  36.960  43.146  11.566
49279W        W14539  32.337  20.590   2.796
49280W        W14540  21.348  30.430   4.044
49281W        W14541  35.230  32.027  14.889
49282W        W14542  16.704  17.128   1.517
49283W        W14543  16.214  40.527   2.349
49284W        W14544  36.461  13.069  10.893
49285W        W14545  26.485  41.620   3.654
49286W        W14546  31.100  30.242   2.732
49287W        W14547  43.032  32.411  11.421
49288W        W14548  35.092  18.505   2.329
49289W        W14549  27.912  23.230   1.336
49290W        W14550  26.224  24.451  13.473
49291W        W14551  25.040  16.737  10.503
49292W        W14552   3.338  42.351   4.103
49293W        W14553  30.968  12.893  12.478
49294W        W14554  43.173  22.411   3.696
49295W        W14555  16.571  11.544   0.401
49296W        W14556  14.664  43.211   0.349
49297W        W14557  24.737  37.383   0.236
49298W        W14558   7.308  37.716  11.391
49299W        W14559  30.941   6.150   1.885
49300W        W14560  28.407  34.023   4.176
49301W        W14561  10.568  38.504   3.092
49302W        W14562  13.663   0.265  11.590
49303W        W14563  19.448  33.295  13.334
49304W        W14564  34.568  30.680   3.473
49305W        W14565  39.284  10.218  13.968
49306W        W14566   0.268  35.538  11.584
49307W        W14567  18.355   0.872  14.795
49308W        W14568   9.185  12.257   0.967
49309W        W14569  35.826  10.647   0.969
49310W        W14570  27.403  21.816   0.263
49311W        W14571  19.274   0.390   4.286
49312W        W14572   0.322   9.384   2.744
49313W        W14573  13.280  43.852   4.596
49314W        W14574   2.846  24.375  14.354
49315W        W14575  38.871  32.786   1.116
49316W        W14576  44.386  18.299   0.242
49317W        W14577  33.579  23.491   2.263
49318W        W14578  22.730  34.758  10.016
49319W        W14579  25.737  30.047  11.194
49320W        W14580   2.987   7.453   3.728
49321W        W14581  26.285  12.703   2.096
49322W        W14582  27.457  28.219   4.245
49323W        W14583   9.865  23.729   0.910
49324W        W14584  31.256  29.550  14.390
49325W        W14585   2.918  37.589   1.033
49326W        W14586  27.901  30.743  11.142
49327W        W14587   4.178  30.645  13.900
49328W        W14588  25.181  18.270   0.387
49329W        W14589   9.207  30.124  14.426
49330W        W14590  29.655  10.791   2.605
49331W        W14591   7.806  25.882  11.143
49332W        W14592  39.029  18.182   1.313
49333W        W14593  37.544   2.860  11.004
49334W        W14594  32.080  10.611   4.907
49335W        W14595   5.192  41.740   2.841
49336W        W14596  28.880  39.320  12.000
49337W        W14597   5.044  44.577  13.684
49338W        W14598  22.110  18.586   5.026
49339W        W14599  25.007  44.842   4.793
49340W        W14600   2.904   3.037  12.519
49341W        W14601  38.008  12.912   1.182
49342W        W14602  19.985  41.770   2.755
49343W        W14603   0.500  43.908   4.365
49344W        W14604  18.822   0.055   4.218
49345W        W14605   5.672  36.124   1.447
49346W        W14606  38.116  12.355  13.003
49347W        W14607  21.167  18.522  13.854
49348W        W14608  42.339  24.804   2.100
49349W        W14609   5.274  17.274  14.107
49350W        W14610  13.316  18.349  10.256
49351W        W14611  34.433  28.458  11.898
49352W        W14612  26.520  17.421  12.833
49353W        W14613  13.042   3.783  11.917
49354W        W14614  13.653  17.641   1.086
49355W        W14615  38.256   1.590  12.380
49356W        W14616  43.160  38.418  13.404
49357W        W14617  17.611   7.418  13.089
49358W        W14618  18.516  28.183  13.520
49359W        W14619  20.723   6.255  13.736
49360W        W14620  26.585   1.354   2.223
49361W        W14621  18.839  41.311   0.803
49362W        W14622  33.072  31.977  13.155
49363W        W14623  38.833   2.351  13.446
49364W        W14624  36.301   6.899  11.470
49365W        W14625  28.630  24.369   2.322
49366W        W14626  27.586  14.768   4.645
49367W        W14627  44.029   1.015   2.169
49368W        W14628   0.058   1.863  11.554
49369W        W14629   1.243   0.063  14.005
49370W        W14630  10.678   2.504   0.703
49371W        W14631  11.413   3.296  13.693
49372W        W14632  13.281  40.562   3.587
49373W        W14633  41.529  37.363  14.536
49374W        W14634  29.815   1.802  11.633
49375W        W14635  11.635  19.813   3.701
49376W        W14636  21.002  19.179   1.381
49377W        W14637  29.261   6.662   2.200
49378W        W14638   1.698  13.886  13.445
49379W        W14639  22.268  11.171   2.328
49380W        W14640  39.786  32.883   2.757
49381W        W14641   1.799   6.963  11.525
49382W        W14642  36.030  22.538   4.703
49383W        W14643  23.348  44.384   4.618
49384W        W14644  42.401  23.505  13.495
49385W        W14645   8.677  18.269   0.189
49386W        W14646  41.274   8.357  15.000
49387W        W14647   2.828  17.172  14.052
49388W        W14648  33.558  10.743  13.777
49389W        W14649   0.223  42.274  11.182
49390W        W14650   0.145   3.614  13.354
49391W        W14651  13.264  39.026  10.635
49392W        W14652  36.090  33.217  13.515
49393W        W14653  24.727  40.295  12.297
49394W        W14654   5.542  24.790   5.391
49395W        W14655   6.257  12.067  11.522
49396W        W14656  35.355   2.884  13.449
49397W        W14657   7.103  39.797  10.626
49398W        W14658  35.976  11.245   4.672
49399W        W14659  19.136  36.272  13.365
49400W        W14660  13.522   4.874   1.707
49401W        W14661  10.902  41.756  14.387
49402W        W14662   7.836  14.595  12.567
49403W        W14663  21.721  43.756   0.760
49404W        W14664   3.722   2.205  11.212
49405W        W14665  30.435  20.150   2.685
49406W        W14666  42.455  39.008   4.513
49407W        W14667   0.258  29.707   0.453
49408W        W14668  16.133  12.618   0.944
49409W        W14669  38.393  16.106   3.629
49410W        W14670  19.294   3.768  13.396
49411W        W14671  17.038  38.051  13.759
49412W        W14672  36.559  14.241  10.659
49413W        W14673   2.576   4.791  12.536
49414W        W14674  15.362  26.079   3.297
49415W        W14675  10.776  39.393  14.044
49416W        W14676  11.363   6.932  14.682
49417W        W14677  36.875  13.519   4.634
49418W        W14678  27.650   7.408  14.327
49419W        W14679  39.994  30.743   3.325
49420W        W14680   3.346  20.949  11.398
49421W        W14681  16.701  38.177   2.339
49422W        W14682   8.394  25.094  10.712
49423W        W14683   5.557   0.430  12.989
49424W        W14684  18.696  29.438  13.500
49425W        W14685  21.870  25.407   3.208
49426W        W14686  23.400  36.635  13.479
49427W        W14687  34.651   5.239   0.480
49428W        W14688  31.241  29.242  14.895
49429W        W14689  11.804  24.042   4.417
49430W        W14690  33.663   0.143  11.197
49431W        W14691  25.518  30.120   4.549
49432W        W14692  26.624  17.713  13.804
49433W        W14693  44.229  28.211   1.239
49434W        W14694  38.478   6.363  12.961
49435W        W14695  11.657  25.909   2.138
49436W        W14696  11.293   9.127   2.817
49437W        W14697  31.602  32.619  13.920
49438W        W14698  30.840  25.452   0.987
49439W        W14699  15.757  37.912   5.071
49440W        W14700  44.869  38.718  14.017
49441W        W14701  25.129  41.421   0.800
49442W        W14702  28.811  26.917  11.982
49443W        W14703   3.383  17.810  14.152
49444W        W14704  40.792  38.537   2.435
49445W        W14705   2.586  27.690   0.046
49446W        W14706  39.015  39.880   0.338
49447W        W14707  39.968  13.826   3.209
49448W        W14708  25.027  31.342   4.882
49449W        W14709   4.641  31.186  14.912
49450W        W14710  15.308   7.301   4.341
49451W        W14711   2.707   3.008  14.244
49452W        W14712   7.469  20.755  10.645
49453W        W14713  42.922  27.020   4.480
49454W        W14714   2.076   2.446   3.115
49455W        W14715   2.009  38.266  12.526
49456W        W14716  27.371  11.499   4.047
49457W        W14717   5.848  37.859  14.339
49458W        W14718  16.104   9.316  12.413
49459W        W14719  15.226  27.808   2.844
49460W        W14720  22.217  35.386  12.507
49461W        W14721  29.445  12.457  12.105
49462W        W14722  31.647  13.736   3.646
49463W        W14723  40.730  33.132  11.766
49464W        W14724  42.889  21.308  11.631
49465W        W14725  12.990  37.316  14.898
49466W        W14726   9.317  13.262   0.402
49467W        W14727  22.447   5.051  12.166
49468W        W14728  15.715  39.417   4.129
49469W        W14729  14.187  16.995   2.362
49470W        W14730   2.950   8.084  11.620
49471W        W14731  24.608  36.510  10.531
49472W        W14732  42.867  37.837  12.252
49473W        W14733  19.431   5.161  14.906
49474W        W14734  12.602  44.235   5.044
49475W        W14735  11.019  31.128   4.152
49476W        W14736  18.196  16.384   4.286
49477W        W14737  36.556  10.264   3.703
49478W        W14738  10.618  16.408   2.753
49479W        W14739  23.077  22.335   2.238
49480W        W14740   6.036  24.704   3.604
49481W        W14741  17.569   1.224   0.542
49482W        W14742  16.913  16.538   3.728
49483W        W14743  10.883  28.652  12.369
49484W        W14744  11.988  26.986   2.672
49485W        W14745   8.110  38.205   3.666
49486W        W14746   8.077   8.097   0.826
49487W        W14747  15.376   2.887   0.132
49488W        W14748  31.957  42.984  10.252
49489W        W14749  23.184  42.744  11.954
49490W        W14750  29.526  23.503   0.316
49491W        W14751   5.838  39.262   1.340
49492W        W14752  41.812  40.667   4.087
49493W        W14753  32.552  36.027   3.554
49494W        W14754  41.285   9.177   0.555
49495W        W14755  33.749  30.153  13.895
49496W        W14756  38.788  24.016   3.305
49497W        W14757  37.092  13.617  11.574
49498W        W14758  12.288  42.207   0.521
49499W        W14759  31.192  10.895   0.496
49500W        W14760  33.313  11.879   4.679
49501W        W14761  13.850  31.681  12.554
49502W        W14762  26.625  41.716  13.800
49503W        W14763  35.330  28.725  14.009
49504W        W14764  11.276  14.229   0.940
49505W        W14765   3.599  33.697   2.627
49506W        W14766  19.213  41.435  12.830
49507W        W14767  15.880  26.422   2.629
49508W        W14768  43.818  36.959   1.027
49509W        W14769  28.550  27.275  10.528
49510W        W14770  36.796  38.602   3.199
49511W        W14771  18.209   8.453  13.313
49512W        W14772   5.408  42.035   4.319
49513W        W14773  42.360  28.179   3.867
49514W        W14774  24.681  39.252   4.180
49515W        W14775  23.950  30.301  12.087
49516W        W14776  13.657  32.384   3.778
49517W        W14777  13.243  16.083  14.484
49518W        W14778  39.538  40.894   0.761
49519W        W14779  33.861  12.393   2.332
49520W        W14780  40.776  23.563  11.487
49521W        W14781  31.708   2.292   4.259
49522W        W14782  41.543  13.198   1.826
49523W        W14783  33.156   8.373   2.770
49524W        W14784  14.082  30.932   2.215
49525W        W14785   2.932  38.812   2.543
49526W        W14786  16.542  13.376   4.859
49527W        W14787  22.942   8.075  11.967
49528W        W14788  29.071  16.767  14.812
49529W        W14789  20.140   1.703  10.669
49530W        W14790   9.237  17.057  14.141
49531W        W14791  19.598  13.871  12.104
49532W        W14792  26.969  12.777  14.441
49533W        W14793  44.456  22.299   1.816
49534W        W14794  36.542   2.419   2.229
49535W        W14795  20.801   0.218  13.376
49536W        W14796  30.661  40.948  13.891
49537W        W14797  21.200  38.813  14.297
49538W        W14798  11.739  27.623   0.505
49539W        W14799  26.732   1.409  12.657
49540W        W14800  21.021   7.152   4.449
49541W        W14801   4.270   4.910   0.262
49542W        W14802  37.303  26.066   2.870
49543W        W14803  43.872  11.079   3.698
49544W        W14804   4.807  27.005  14.008
49545W        W14805   4.748  36.651  13.575
49546W        W14806  15.789  10.557   2.832
49547W        W14807  13.299  21.932  11.823
49548W        W14808  28.397  13.489  13.505
49549W        W14809  17.356  24.478   4.516
49550W        W14810  37.662  42.377   2.251
49551W        W14811  33.918  39.034   0.404
49552W        W14812  28.680  14.020  11.390
49553W        W14813  36.429  24.472   0.390
49554W        W14814   4.981  40.307   3.290
49555W        W14815  14.705  34.871  10.811
49556W        W14816   6.237  31.659  13.376
49557W        W14817  41.961  23.560  13.215
49558W        W14818  43.746  39.827  11.075
49559W        W14819   1.939  37.525  13.806
49560W        W14820  18.153   3.977   3.848
49561W        W14821   6.407  15.321   3.252
49562W        W14822   6.712  41.505   4.589
49563W        W14823  11.637  12.661   1.290
49564W        W14824  43.444   9.372  13.874
49565W        W14825  40.994  38.073  13.510
49566W        W14826   2.020  14.891   1.287
49567W        W14827  27.894  42.517  13.264
49568W        W14828   8.718   4.484   4.235
49569W        W14829  20.774  26.577   4.401
49570W        W14830   6.674   2.902   2.648
49571W        W14831  12.410  43.052  13.031
49572W        W14832  20.293  14.167  14.400
49573W        W14833  43.786   6.456   1.753
49574W        W14834  38.357  15.036   2.200
49575W        W14835  29.417  37.167  13.279
49576W        W14836   5.351  20.617  12.698
49577W        W14837  40.281   3.324   3.383
49578W        W14838   2.242  19.882  12.430
49579W        W14839  23.005  34.319  13.196
49580W        W14840  20.503  30.797  10.665
49581W        W14841   6.860   4.501  11.645
49582W        W14842  25.981   6.556   1.317
49583W        W14843   0.891  11.891  14.742
49584W        W14844  13.964   4.921  13.940
49585W        W14845  34.834  11.425  12.515
49586W        W14846   1.234  16.196   4.356
49587W        W14847  21.685  41.748  13.483
49588W        W14848  15.125  33.523  12.069
49589W        W14849  28.538  39.838   0.430
49590W        W14850  13.876  11.612  13.023
49591W        W14851  35.460   3.758  14.539
49592W        W14852   4.837  22.182   0.523
49593W        W14853  22.449  28.640  13.986
49594W        W14854  33.225  27.684  13.794
49595W        W14855  13.650  43.302   2.364
49596W        W14856  24.046  15.847   2.341
49597W        W14857  31.494  14.297  13.493
49598W        W14858   7.354   3.548   3.663
49599W        W14859  39.300  26.692   4.351
49600W        W14860  16.719  39.756   2.190
49601W        W14861  33.281  27.206  12.118
49602W        W14862   5.805  27.086  14.003
49603W        W14863  13.873   6.819  12.107
49604W        W14864   4.028   7.329   0.183
49605W        W14865  27.180  30.267  13.379
49606W        W14866   6.874   6.373  13.512
49607W        W14867  35.068   9.176   3.481
49608W        W14868  25.071  19.734   4.120
49609W        W14869  37.705  42.735   4.338
49610W        W14870  25.943  27.034  12.486
49611W        W14871  42.838  44.311   2.258
49612W        W14872   2.478  37.382  14.574
49613W        W14873   2.190  43.350  12.491
49614W        W14874  17.826  35.490  11.674
49615W        W14875  12.125  33.914  11.091
49616W        W14876  44.478  17.554  10.589
49617W        W14877  31.114  32.937  14.790
49618W        W14878   5.395  37.446   1.465
49619W        W14879  14.049   6.692  12.653
49620W        W14880  22.296  41.954  12.415
49621W        W14881  22.139  15.821   2.377
49622W        W14882   7.102  11.888   2.000
49623W        W14883  37.934  23.410   4.918
49624W        W14884  14.302   3.797   1.840
49625W        W14885   2.307  27.126  14.950
49626W        W14886  20.167  42.240   1.264
49627W        W14887   5.735   8.317  13.316
49628W        W14888  15.968  21.688   4.460
49629W        W14889  30.051  33.458   0.893
49630W        W14890  35.163  31.777   4.064
49631W        W14891  15.775   9.620   0.013
49632W        W14892   7.707  28.983   0.868
49633W        W14893  11.184   8.317  13.330
49634W        W14894  38.318   8.726   2.730
49635W        W14895  32.050   1.127   0.035
49636W        W14896  15.610  15.063  14.749
49637W        W14897  39.831  34.114   1.569
49638W        W14898  38.896  31.829  13.323
49639W        W14899  34.045  24.704   5.363
49640W        W14900   9.649   6.602   0.488
49641W        W14901  22.720  20.525  14.205
49642W        W14902  28.765   8.798   3.787
49643W        W14903  29.350   4.413  12.587
49644W        W14904  11.172  23.065  11.449
49645W        W14905  15.243  41.307  11.042
49646W        W14906  19.020  16.128   0.533
49647W        W14907  27.039  11.801  14.459
49648W        W14908   0.300  20.272  14.894
49649W        W14909  43.057  44.451   9.972
49650W        W14910  42.602  13.339  13.494
49651W        W14911  43.850   9.550  14.950
49652W        W14912  22.595  11.837   4.534
49653W        W14913   9.315  17.653   4.011
49654W        W14914   8.830   3.209  10.672
49655W        W14915  24.118   7.826   3.108
49656W        W14916  26.474   1.929  12.878
49657W        W14917  10.726  12.894   3.549
49658W        W14918   3.143  14.193   2.706
49659W        W14919  12.695  14.535  12.952
49660W        W14920  26.718  34.507   2.541
49661W        W14921  35.434  14.333  11.513
49662W        W14922  25.235  43.835  11.426
49663W        W14923  27.074   7.376   0.938
49664W        W14924  21.065  18.724  13.407
49665W        W14925  39.580  25.975   0.998
49666W        W14926   9.168  42.947  12.027
49667W        W14927  21.237   1.891  10.820
49668W        W14928  14.223  29.352  13.996
49669W        W14929  33.805  35.130   2.381
49670W        W14930  41.867  15.503  11.149
49671W        W14931  36.112  27.798  14.677
49672W        W14932   1.886   3.826   2.721
49673W        W14933   5.493  42.219  14.449
49674W        W14934   6.191  33.466  14.927
49675W        W14935  31.548   0.972   3.583
49676W        W14936  39.989  24.727  10.902
49677W        W14937  14.605  33.512   0.955
49678W        W14938   0.532  15.127  13.475
49679W        W14939  41.807   3.160  12.066
49680W        W14940   4.182   1.688   4.343
49681W        W14941  18.997  39.264   3.787
49682W        W14942  32.498  43.988  14.873
49683W        W14943  30.977   5.303  12.598
49684W        W14944   7.128  25.203  12.509
49685W        W14945  29.651  40.946  14.903
49686W        W14946  35.128  16.096   3.273
49687W        W14947  20.175   7.072   1.816
49688W        W14948  42.237  33.598  10.930
49689W        W14949  17.843   8.823  11.313
49690W        W14950  20.152  35.850  12.998
49691W        W14951  12.264  31.626   4.377
49692W        W14952  10.170  22.004   3.301
49693W        W14953   5.007  11.788  11.774
49694W        W14954  31.090  18.235   2.121
49695W        W14955  43.731  27.721   0.670
49696W        W14956   4.721  19.628   2.872
49697W        W14957  22.995  41.748   0.332
49698W        W14958  24.524  36.218   3.347
49699W        W14959  33.159  30.699   2.894
49700W        W14960  21.084  16.877   1.898
49701W        W14961   9.650  39.577   1.462
49702W        W14962  20.124  25.612  10.694
49703W        W14963  41.590   9.565   0.775
49704W        W14964  22.678  28.442   3.646
49705W        W14965  29.178  16.048  10.696
49706W        W14966  37.441  42.425   1.306
49707W        W14967  20.321  11.562  12.728
49708W        W14968   7.621  21.184   9.877
49709W        W14969  18.233  27.234  10.453
49710W        W14970  43.833  27.543   1.906
49711W        W14971  24.476  23.080   4.115
49712W        W14972   3.910  16.806  12.064
49713W        W14973   4.838  12.291  14.220
49714W        W14974   6.756  30.587   1.199
49715W        W14975  42.938  10.818  10.191
49716W        W14976  39.893  14.956   1.653
49717W        W14977  24.308  18.171   2.984
49718W        W14978  43.899  33.325  11.233
49719W        W14979  43.467  27.755  12.873
49720W        W14980  17.816  17.143  14.834
49721W        W14981  19.206  35.734   9.549
49722W        W14982  34.042  23.325   2.976
49723W        W14983  43.991  21.622   0.226
49724W        W14984  40.371  29.216   2.159
49725W        W14985  21.253   9.804  12.482
49726W        W14986  12.253  22.054  11.107
49727W        W14987  32.935  29.620  14.865
49728W        W14988  41.520  35.644   4.197
49729W        W14989  38.517   1.981  14.314
49730W        W14990   6.403   9.210   4.078
49731W        W14991  32.272  33.296  12.879
49732W        W14992  15.527  22.096   1.722
49733W        W14993  10.146  35.626   2.151
49734W        W14994  12.322  38.130  13.671
49735W        W14995  32.093  40.417   2.864
49736W        W14996   8.226  44.216   3.922
49737W        W14997  20.258  35.359  13.136
49738W        W14998  21.647  16.408   1.153
49739W        W14999   9.955  19.420  10.960
49740W        W15000  25.311  36.600   3.052
49741W        W15001  43.558   9.920  13.278
49742W        W15002  13.691  44.876  13.346
49743W        W15003  34.989  33.320  10.704
49744W        W15004  31.320  21.231   1.218
49745W        W15005   5.479  15.164   4.896
49746W        W15006   9.224  19.695   2.005
49747W        W15007  38.180   3.293   5.078
49748W        W15008  39.416  39.520   2.173
49749W        W15009  38.384  38.084  12.609
49750W        W15010  39.754  14.532   0.852
49751W        W15011  27.830  26.876   1.166
49752W        W15012  37.127  36.405   1.312
49753W        W15013  36.668  17.088   4.235
49754W        W15014  36.518  26.846   0.854
49755W        W15015  32.557  15.326   1.679
49756W        W15016  26.889   1.440   0.477
49757W        W15017   3.471  40.623  11.089
49758W        W15018  20.756  43.251   2.214
49759W        W15019  34.029  36.412   4.289
49760W        W15020  16.299   0.772   0.415
49761W        W15021   2.457  10.965  12.087
49762W        W15022   4.948  24.727  14.968
49763W        W15023  28.519  32.424   3.804
49764W        W15024  25.465  39.897  14.450
49765W        W15025  14.948   9.017  12.969
49766W        W15026   4.347  25.255   2.113
49767W        W15027  29.645  43.222   1.796
49768W        W15028   1.693   0.274  12.468
49769W        W15029   7.532  16.173   3.471
49770W        W15030  32.017  17.136  10.599
49771W        W15031  31.061  35.905   0.463
49772W        W15032  39.073  25.507   3.171
49773W        W15033  10.104  37.522   3.726
49774W        W15034  33.453  19.743   0.804
49775W        W15035  36.388  14.084   4.147
49776W        W15036  43.289  21.805  14.037
49777W        W15037  35.457  22.058   3.241
49778W        W15038  44.454  12.814   3.792
49779W        W15039  43.772  38.077  14.415
49780W        W15040  43.610  17.914   4.989
49781W        W15041   4.427  32.009   1.608
49782W        W15042  26.654  10.754  11.972
49783W        W15043  43.413   9.115  11.976
49784W        W15044  33.634   9.754  11.226
49785W        W15045   0.174   5.228  11.529
49786W        W15046   5.537  26.115  12.664
49787W        W15047  20.433  12.795  14.036
49788W        W15048  25.708  22.688  11.097
49789W        W15049  43.823   7.095  10.379
49790W        W15050  39.589  44.744  14.465
49791W        W15051  30.126  35.342   2.850
49792W        W15052  41.311  35.057   0.424
49793W        W15053  31.025  25.985   2.050
49794W        W15054  20.019   4.633  13.716
49795W        W15055  10.415  11.231   3.602
49796W        W15056  41.787  20.624   3.618
49797W        W15057  16.340   8.237   1.411
49798W        W15058  24.527   8.569   3.734
49799W        W15059  41.008  38.010  12.157
49800W        W15060  25.688  13.602   4.829
49801W        W15061  12.342  11.793   5.088
49802W        W15062  44.749  16.750   3.859
49803W        W15063  18.075   5.424   0.854
49804W        W15064  44.781  32.679   2.862
49805W        W15065  42.849  10.788  12.824
49806W        W15066  34.981   8.109  13.516
49807W        W15067  36.870  30.014   0.421
49808W        W15068   3.328   8.613  10.624
49809W        W15069   8.716  27.915  14.334
49810W        W15070  29.529   7.566  10.648
49811W        W15071  11.574  35.057  13.021
49812W        W15072   7.160   0.323  14.362
49813W        W15073  34.467  18.823   1.288
49814W        W15074  28.521  25.498  11.072
49815W        W15075  20.823  30.442   0.282
49816W        W15076  26.592  20.034   3.133
49817W        W15077  43.371  21.200   0.407
49818W        W15078  12.075   5.460   3.101
49819W        W15079  41.440  11.867   3.746
49820W        W15080  34.904  42.766   2.689
49821W        W15081  14.238  21.194   1.031
49822W        W15082  23.016   0.395   3.636
49823W        W15083  13.780   4.297  14.726
49824W        W15084  40.207  12.440  12.543
49825W        W15085  41.850   2.648  12.366
49826W        W15086  32.386  11.717  10.508
49827W        W15087  44.250  29.423   3.179
49828W        W15088  31.873   7.585   3.387
49829W        W15089  32.190  23.188   3.138
49830W        W15090  10.859  12.669   4.564
49831W        W15091  14.667  11.023  13.240
49832W        W15092  14.398  22.620   3.187
49833W        W15093   1.411  34.908   2.133
49834W        W15094  26.326  36.771   5.458
49835W        W15095  21.216   1.255   2.874
49836W        W15096  35.411  30.909   1.523
49837W        W15097  44.677  25.413   2.127
49838W        W15098  28.945  25.355   1.926
49839W        W15099  41.176  12.495  14.822
49840W        W15100   6.168  33.987  14.885
49841W        W15101  33.659  20.324  13.094
49842W        W15102  41.246  14.660  11.163
49843W        W15103  15.606  13.990  14.735
49844W        W15104  12.972  44.868  13.562
49845W        W15105  18.131  42.433  11.542
49846W        W15106   6.836   4.457  13.886
49847W        W15107   6.332  33.876   3.564
49848W        W15108  26.045  13.619  11.966
49849W        W15109   7.903  16.824   3.692
49850W        W15110  25.224  13.322   4.450
49851W        W15111  26.959  10.057  11.600
49852W        W15112   5.921  17.417  10.331
49853W        W15113  39.660   1.657   3.169
49854W        W15114  29.737   6.203   3.319
49855W        W15115  38.392  14.238   2.747
49856W        W15116   0.244  16.711   2.309
49857W        W15117  18.635  17.836   2.287
49858W        W15118  39.682  42.545  14.039
49859W        W15119  35.943  32.517  14.722
49860W        W15120  28.114  42.034  12.896
49861W        W15121   2.145  30.942  12.997
49862W        W15122  38.954  25.738  13.866
49863W        W15123  10.331  31.874   4.527
49864W        W15124   9.152  42.411  11.434
49865W        W15125  17.492  26.999  12.113
49866W        W15126  44.592  34.407   0.890
49867W        W15127  33.185   0.662   9.871
49868W        W15128   8.259  17.696  12.934
49869W        W15129  16.315  25.909   0.330
49870W        W15130  34.193  26.000  14.406
49871W        W15131  35.125  44.050  13.017
49872W        W15132  17.269  42.663  13.988
49873W        W15133  15.138  44.427  11.429
49874W        W15134  12.395   5.287  13.226
49875W        W15135  21.114  34.876   0.611
49876W        W15136  27.816  32.929   0.866
49877W        W15137  42.616  35.608  12.597
49878W        W15138  20.086  13.821   3.686
49879W        W15139  23.732  42.424  11.566
49880W        W15140  29.696  43.416  11.549
49881W        W15141  34.775  12.151  14.511
49882W        W15142  30.263  20.587   1.302
49883W        W15143  40.294  14.981  13.546
49884W        W15144   5.136   3.234   2.839
49885W        W15145  24.544   0.040  11.039
49886W        W15146  38.881  32.500   4.147
49887W        W15147   2.296  41.816   4.971
49888W        W15148   8.118  19.258   3.876
49889W        W15149   0.595  39.914   0.690
49890W        W15150  33.912  32.685   1.555
49891W        W15151  35.829  17.974  12.040
49892W        W15152  41.956  33.943  10.690
49893W        W15153  43.746  22.157  13.986
49894W        W15154  31.383  30.044   1.387
49895W        W15155  42.493  38.949  14.546
49896W        W15156  17.697   9.261   4.626
49897W        W15157  39.763  17.865   2.288
49898W        W15158  38.223  31.545   1.857
49899W        W15159  41.097  22.116  11.124
49900W        W15160  32.532  23.965  11.180
49901W        W15161  44.257  39.324   2.886
49902W        W15162  21.290   7.216  13.512
49903W        W15163   1.895  36.155  12.881
49904W        W15164  20.184  44.785   3.372
49905W        W15165  12.679   8.222  10.230
49906W        W15166  40.486  30.656   4.113
49907W        W15167  19.274  10.771  12.912
49908W        W15168  23.204  28.638   0.503
49909W        W15169   6.899  14.158   2.110
49910W        W15170  41.998  38.938  14.717
49911W        W15171  28.182  32.422   1.911
49912W        W15172   1.192  40.395  13.414
49913W        W15173   7.618   3.942   0.384
49914W        W15174  21.997   2.301   1.677
49915W        W15175   4.183  19.616   0.452
49916W        W15176  16.780  16.695  12.443
49917W        W15177  12.243  26.203  12.927
49918W        W15178  36.440  24.151   2.545
49919W        W15179  22.892  34.959   0.186
49920W        W15180  25.003  42.376  14.842
49921W        W15181  41.666  38.808   4.247
49922W        W15182  20.851   9.753  10.614
49923W        W15183  13.275  15.733   3.562
49924W        W15184   8.336  32.081   4.619
49925W        W15185  33.523  33.425  11.703
49926W        W15186  15.984  31.007  11.470
49927W        W15187  31.170   5.851  11.046
49928W        W15188   9.396  23.577  13.925
49929W        W15189  35.381  33.013   0.184
49930W        W15190  22.991  12.595   4.728
49931W        W15191  31.994   7.308  14.830
49932W        W15192   9.387  23.595  11.399
49933W        W15193  43.457   8.687  10.290
49934W        W15194  40.832  32.870  13.021
49935W        W15195   8.389  22.247   2.746
49936W        W15196  20.569  10.993   4.509
49937W        W15197  23.490  16.981   2.571
49938W        W15198  41.865  27.441  14.840
49939W        W15199  23.724  42.037   1.377
49940W        W15200  15.212   9.737   3.305
49941W        W15201  41.738  43.831   1.503
49942W        W15202   8.621  27.021  13.010
49943W        W15203  40.257  39.728  10.626
49944W        W15204   3.248   9.598   3.213
49945W        W15205  24.550  17.742   1.043
49946W        W15206  23.281  29.738   0.703
49947W        W15207   1.036  28.319  12.855
49948W        W15208  39.053  14.160  10.469
49949W        W15209   9.758   4.229  11.121
49950W        W15210   0.888  20.819   0.934
49951W        W15211   3.533  15.390   1.359
49952W        W15212  10.480   4.261  10.664
49953W        W15213  25.858  30.336   4.177
49954W        W15214  18.159  34.368  13.058
49955W        W15215  42.104  20.777  11.568
49956W        W15216  40.339  29.133   0.404
49957W        W15217  19.718   1.945  12.565
49958W        W15218  33.394  30.048   2.318
49959W        W15219  23.439   8.761   3.691
49960W        W15220  26.567   9.394   4.133
49961W        W15221  36.014   6.733   2.956
49962W        W15222  42.326  41.998   4.662
49963W        W15223  42.238  27.598  12.986
49964W        W15224  16.260  14.908  12.120
49965W        W15225  22.535  44.807  12.876
49966W        W15226  32.633  28.019   0.368
49967W        W15227  24.151  40.734   0.768
49968W        W15228   4.727  20.661   2.637
49969W        W15229  44.955  21.825   4.462
49970W        W15230  23.593  15.999   2.753
49971W        W15231  44.288  38.031  12.942
49972W        W15232  30.127  19.907  11.981
49973W        W15233  38.890   9.431   1.866
49974W        W15234  13.872  37.519  13.037
49975W        W15235  26.345  17.859  13.350
49976W        W15236   1.445  44.315  14.923
49977W        W15237  41.591  43.346  12.002
49978W        W15238  17.210  18.054   5.019
49979W        W15239  37.443   2.121   9.877
49980W        W15240  38.359   8.446  13.053
49981W        W15241  18.878  29.584  11.201
49982W        W15242  42.155  11.455  14.061
49983W        W15243  37.301  24.044  12.622
49984W        W15244  21.144  18.736   2.641
49985W        W15245  43.201  12.351   2.262
49986W        W15246  11.845  34.969  13.783
49987W        W15247  10.942  15.260   0.293
49988W        W15248   8.349   8.231  13.892
49989W        W15249  13.135  34.402  13.522
49990W        W15250  36.153  18.199   3.339
49991W        W15251  19.014  39.158  13.962
49992W        W15252  35.166  19.501  13.859
49993W        W15253  32.532  31.423   2.394
49994W        W15254  27.100  41.272   4.076
49995W        W15255   2.053  13.045   1.855
49996W        W15256   6.188  36.194   2.661
49997W        W15257  21.463  37.559   4.795
49998W        W15258   1.238   4.856   0.462
49999W        W15259  19.832  24.236   0.477
50000W        W15260  15.365  25.885  12.593
50001W        W15261  39.441   9.967  13.503
50002W        W15262   2.379  32.274   1.581
50003W        W15263  27.907  20.662   4.154
50004W        W15264  28.098   7.668  13.846
50005W        W15265  10.129  25.151  10.211
50006W        W15266  43.629  16.029   2.151
50007W        W15267  41.986  43.198  11.657
50008W        W15268  44.921  17.771  11.928
50009W        W15269   4.214  18.009  13.919
50010W        W15270  24.982  23.102   4.171
50011W        W15271  41.736   5.245   3.806
50012W        W15272  13.181   5.350  13.876
50013W        W15273  44.402  16.059  12.834
50014W        W15274   0.940  43.399  13.508
50015W        W15275  11.395  42.969  11.814
50016W        W15276   8.366  25.049  11.554
50017W        W15277  17.868  13.195   0.264
50018W        W15278   2.746   9.355   3.190
50019W        W15279  39.510  20.366   0.766
50020W        W15280  18.055  23.183  10.663
50021W        W15281   2.777  17.899   0.973
50022W        W15282  25.478  33.337   2.850
50023W        W15283  19.114  38.628  13.111
50024W        W15284  20.561  27.718  11.466
50025W        W15285  10.773   9.211  13.411
50026W        W15286  12.482  28.478  14.955
50027W        W15287   9.615  10.301  11.536
50028W        W15288  26.993  39.117  12.613
50029W        W15289  18.748  41.053   2.940
50030W        W15290  33.234   8.141  12.516
50031W        W15291   9.153   4.655  11.547
50032W        W15292  13.045  14.550   1.234
50033W        W15293  40.195  30.613   2.113
50034W        W15294   5.486  40.505   3.243
50035W        W15295   2.782  17.336   3.837
50036W        W15296  44.055  41.776  13.023
50037W        W15297   9.785  28.768   4.776
50038W        W15298  10.700  22.554  14.265
50039W        W15299   5.960  33.561  12.345
50040W        W15300  20.980  28.103  13.352
50041W        W15301  11.448  34.989   0.745
50042W        W15302   8.945  19.334  13.720
50043W        W15303  26.248  29.297   3.122
50044W        W15304  16.877  38.823   0.344
50045W        W15305  32.051   4.222   1.019
50046W        W15306  13.580  16.730  14.193
50047W        W15307  18.238  31.196  13.103
50048W        W15308  21.511  33.623  12.080
50049W        W15309  24.437  37.267  14.351
50050W        W15310  41.477  42.179   2.698
50051W        W15311  20.768  14.892  13.991
50052W        W15312  18.886   0.520   9.749
50053W        W15313  23.157  28.077  14.273
50054W        W15314  29.166  35.535  12.172
50055W        W15315  19.560  32.455  14.868
50056W        W15316  22.725   1.724   1.163
50057W        W15317  25.667   9.802   2.906
50058W        W15318  22.936  19.842  10.719
50059W        W15319   6.951   5.273  12.356
50060W        W15320  15.233  25.841  11.501
50061W        W15321  42.965   0.854  13.567
50062W        W15322  40.344  22.494  13.036
50063W        W15323  13.814  35.457  14.959
50064W        W15324   2.288   7.652   3.141
50065W        W15325  32.993  33.138   3.717
50066W        W15326  38.298  28.069   1.680
50067W        W15327  37.913  43.691   1.348
50068W        W15328  37.077   8.927  12.169
50069W        W15329  34.176   2.013  11.143
50070W        W15330  10.083   7.258  12.047
50071W        W15331  22.442  26.634  14.733
50072W        W15332  16.183  41.631   0.431
50073W        W15333  27.886  25.697   3.242
50074W        W15334  13.881   3.778  11.557
50075W        W15335  22.456  32.417  14.872
50076W        W15336  37.799  26.450  12.193
50077W        W15337  13.633   8.872  12.419
50078W        W15338   2.299  23.507   2.175
50079W        W15339  35.135   9.819  12.085
50080W        W15340  42.960  36.863  12.534
50081W        W15341  28.916  22.717  12.146
50082W        W15342   3.812  40.856   1.460
50083W        W15343  20.436   0.983   0.737
50084W        W15344   4.138  27.457  13.933
50085W        W15345   7.562  10.982   1.173
50086W        W15346   8.393   3.408  12.045
50087W        W15347  11.356   8.513   3.513
50088W        W15348   5.179  11.356   2.347
50089W        W15349  33.552  29.501  13.482
50090W        W15350  33.697  39.830   1.401
50091W        W15351  16.158   2.440  14.542
50092W        W15352  21.370  13.868  12.936
50093W        W15353  39.442  36.242   4.830
50094W        W15354  12.500   3.250  10.304
50095W        W15355  41.237  44.724   0.533
50096W        W15356  31.846   6.000  13.359
50097W        W15357  18.954  33.488  13.346
50098W        W15358  40.334   4.100   2.779
50099W        W15359  12.399   0.572   4.788
50100W        W15360  22.620  37.612   0.171
50101W        W15361  36.891  11.895  10.678
50102W        W15362  15.974  30.964  12.664
50103W        W15363  29.611  13.391  13.848
50104W        W15364   6.237   7.756  12.622
50105W        W15365  23.541  30.212  11.490
50106W        W15366  38.154  35.484  12.345
50107W        W15367  33.382   0.077  13.231
50108W        W15368   5.991  10.158   0.970
50109W        W15369   9.772  33.673  13.454
50110W        W15370  24.625  27.970   1.759
50111W        W15371   5.408  22.206  11.559
50112W        W15372  20.666  24.520  11.925
50113W        W15373  40.476   3.172   1.909
50114W        W15374   0.457  37.354  11.555
50115W        W15375  44.735  21.987  14.918
50116W        W15376  12.304  31.673  14.464
50117W        W15377   9.757   6.456  10.577
50118W        W15378  21.735   6.830  11.522
50119W        W15379  13.159   2.202   2.781
50120W        W15380  44.692  12.341   3.640
50121W        W15381   9.026  28.947  12.904
50122W        W15382  10.405  31.089  12.829
50123W        W15383   2.293  36.834   4.602
50124W        W15384  20.530  18.688  13.429
50125W        W15385  44.042  40.483   4.275
50126W        W15386   8.707  30.028  11.779
50127W        W15387  21.785  20.146  11.678
50128W        W15388  10.389  21.015  13.431
50129W        W15389  43.737  41.936   0.688
50130W        W15390  11.840  33.064  12.183
50131W        W15391  16.135  30.854   3.360
50132W        W15392  39.754  32.032  14.308
50133W        W15393  33.020  24.511   4.128
50134W        W15394   4.862   7.908  13.413
50135W        W15395  11.264   2.770  10.608
50136W        W15396  13.419  14.198  10.344
50137W        W15397  20.101   8.497  10.936
50138W        W15398  13.828  11.827  11.588
50139W        W15399  28.433  43.685   2.842
50140W        W15400  22.396  42.261  12.988
50141W        W15401  12.190  15.173   3.713
50142W        W15402   9.550  29.852  11.193
50143W        W15403  10.469  13.922  11.460
50144W        W15404  15.778  43.686   2.267
50145W        W15405   7.374  10.172  10.363
50146W        W15406  35.725  43.014  11.704
50147W        W15407  22.685   0.313  12.883
50148W        W15408  31.422   7.302  12.955
50149W        W15409  38.898  25.421  12.808
50150W        W15410  29.994  30.721  13.056
50151W        W15411  13.400   9.598   2.740
50152W        W15412  18.118  14.159  12.094
50153W        W15413  17.003  13.078   1.771
50154W        W15414  11.401  34.359  14.457
50155W        W15415  23.450  42.928   0.401
50156W        W15416   2.030  44.880   4.492
50157W        W15417   7.830  34.413   3.660
50158W        W15418  43.121  41.333  10.371
50159W        W15419  39.074  17.275   2.937
50160W        W15420  28.434  14.785  14.753
50161W        W15421   5.332  11.246   0.516
50162W        W15422   0.509  37.928  13.528
50163W        W15423  41.844   1.419   1.772
50164W        W15424  22.976  28.045   3.773
50165W        W15425  19.106   8.915  11.656
50166W        W15426  37.536  31.925   2.232
50167W        W15427  36.861  32.741   3.349
50168W        W15428  11.792  19.897  11.716
50169W        W15429  24.938  21.178  11.684
50170W        W15430  30.245   7.896   2.413
50171W        W15431  43.264  34.487  10.749
50172W        W15432   1.429  44.727  13.517
50173W        W15433  12.653  39.317   3.766
50174W        W15434  25.970   8.679  12.426
50175W        W15435  27.317  16.795   3.505
50176W        W15436   3.253  10.639   2.327
50177W        W15437  33.863   7.813   0.480
50178W        W15438  41.822  39.344  11.598
50179W        W15439  30.315   5.758  10.620
50180W        W15440   8.681  37.056   4.095
50181W        W15441  19.845  43.287   0.302
50182W        W15442  19.936   6.772  12.170
50183W        W15443  25.219  16.271  10.646
50184W        W15444  32.841  40.039  13.538
50185W        W15445  21.335  28.114  12.049
50186W        W15446  28.633  32.733  12.840
50187W        W15447  26.036  35.977   4.736
50188W        W15448  18.501  25.654  11.442
50189W        W15449  18.717  22.057   5.074
50190W        W15450  25.167  13.843   1.465
50191W        W15451  13.250  30.621  11.100
50192W        W15452   2.445  30.650   2.676
50193W        W15453   7.750  15.206  11.462
50194W        W15454  31.718   1.376   0.836
50195W        W15455  10.101  35.202  11.775
50196W        W15456  28.444  30.195  10.809
50197W        W15457  17.462  13.820  13.034
50198W        W15458  32.132  11.530   0.249
50199W        W15459  27.101  18.999   1.198
50200W        W15460  27.895   7.211  10.093
50201W        W15461   5.295  20.369   0.366
50202W        W15462   4.164  35.756  11.534
50203W        W15463  25.145  10.667   3.622
50204W        W15464  44.377  29.134  10.698
50205W        W15465  40.040  10.693   4.229
50206W        W15466  27.493  12.318   4.123
50207W        W15467  33.867  26.926  12.933
50208W        W15468  42.532   8.949  10.553
50209W        W15469  26.550  38.805   1.073
50210W        W15470   8.250  30.284  11.089
50211W        W15471   8.080  44.612   4.240
50212W        W15472  28.598   1.939  13.099
50213W        W15473  24.543   4.216   1.767
50214W        W15474  19.719  11.084   2.449
50215W        W15475  23.737  25.086  14.937
50216W        W15476  38.248  35.297  11.861
50217W        W15477   4.625  14.800   1.260
50218W        W15478  28.141  25.995  10.565
50219W        W15479  35.398  28.921  11.915
50220W        W15480  31.527  11.345  12.977
50221W        W15481   1.871  14.637   0.854
50222W        W15482  34.339  39.252  13.268
50223W        W15483  20.916  38.192   2.351
50224W        W15484  16.031   8.336   2.810
50225W        W15485  36.530  27.262   5.148
50226W        W15486  44.928  20.622  14.873
50227W        W15487  40.907  32.472   3.125
50228W        W15488  14.875  30.092  11.510
50229W        W15489  32.971   6.869   1.767
50230W        W15490   5.357   5.295   2.241
50231W        W15491   8.072  33.612  12.825
50232W        W15492  10.816  14.288  13.794
50233W        W15493  11.568  44.918   2.582
50234W        W15494  21.140  16.498  11.107
50235W        W15495  29.370   5.887   4.175
50236W        W15496  28.182  41.918   4.571
50237W        W15497  19.767  15.780  11.563
50238W        W15498   8.301  18.728   2.426
50239W        W15499  32.500  14.181   4.773
50240W        W15500  11.846  29.832   1.926
50241W        W15501  40.819  30.172  14.845
50242W        W15502  20.222  25.422  14.368
50243W        W15503  27.221  36.076  10.630
50244W        W15504  21.707  20.316   4.146
50245W        W15505  41.038  30.958   2.330
50246W        W15506   5.828  29.713   1.759
50247W        W15507   2.216   1.521  12.127
50248W        W15508  36.617  21.773   0.411
50249W        W15509   4.539  44.667  13.644
50250W        W15510  34.847  44.884   1.274
50251W        W15511  36.019  35.589   3.702
50252W        W15512   1.982  28.890   0.815
50253W        W15513  21.646  39.026   1.140
50254W        W15514  14.260  30.774   5.012
50255W        W15515   4.616  18.334   3.155
50256W        W15516  28.310  30.610  13.409
50257W        W15517  14.372  20.198   0.040
50258W        W15518  34.404  39.743  13.437
50259W        W15519  44.748  35.002   4.493
50260W        W15520  12.450  27.725  10.261
50261W        W15521  13.122   9.142   3.128
50262W        W15522  44.996   3.997  12.978
50263W        W15523  26.490   2.390   4.001
50264W        W15524  24.112  12.921   3.871
50265W        W15525  38.745  17.148   4.984
50266W        W15526  28.901   9.794   2.954
50267W        W15527  15.782  31.173   4.037
50268W        W15528  33.844  26.412  11.677
50269W        W15529  36.023   3.481   0.241
50270W        W15530  10.612  32.791   3.253
50271W        W15531  23.814  19.307  14.976
50272W        W15532   4.466   8.158   3.290
50273W        W15533  38.353  11.631   0.019
50274W        W15534  30.505   4.826  14.837
50275W        W15535   5.855  21.915  11.509
50276W        W15536  13.350  28.492   4.224
50277W        W15537   9.615  24.460   9.824
50278W        W15538  27.947   5.583   2.412
50279W        W15539  32.269  30.842   2.370
50280W        W15540  42.598  17.426   4.186
50281W        W15541  16.671  23.743   2.823
50282W        W15542  43.865  36.363  14.883
50283W        W15543   9.422  21.024  11.689
50284W        W15544  15.788  16.990   3.213
50285W        W15545   5.860   6.778   2.793
50286W        W15546  26.048  41.939   2.917
50287W        W15547  21.805  27.036  12.842
50288W        W15548  13.890  43.962  11.400
50289W        W15549  41.312  12.343   4.114
50290W        W15550  22.761   7.357   1.787
50291W        W15551  15.080  44.006   2.147
50292W        W15552  14.165  22.984  14.075
50293W        W15553   6.625  24.304   5.078
50294W        W15554   2.596  43.209   3.330
50295W        W15555  20.621  19.655   1.964
50296W        W15556  35.522  17.265   0.829
50297W        W15557  39.768  39.984  12.474
50298W        W15558  42.528  19.111   0.359
50299W        W15559  42.395   5.835  11.539
50300W        W15560   7.321  33.203  14.210
50301W        W15561  18.672  28.653  11.439
50302W        W15562   1.756  12.595  13.489
50303W        W15563  14.857  27.989   3.268
50304W        W15564  42.501  34.169  12.519
50305W        W15565  17.584  11.196   0.385
50306W        W15566  41.972  22.591   0.410
50307W        W15567  31.473   9.383  14.017
50308W        W15568   3.725  23.104  14.665
50309W        W15569  22.594  12.368   3.818
50310W        W15570  25.365   8.413   2.744
50311W        W15571  38.046  44.118  13.069
50312W        W15572  36.570  19.135   1.783
50313W        W15573  35.271  12.012   0.433
50314W        W15574  26.357   2.596   2.624
50315W        W15575   8.124  43.525  11.104
50316W        W15576  42.951  40.417   0.284
50317W        W15577  37.552  37.053   2.931
50318W        W15578   1.257  20.932  12.059
50319W        W15579  37.052  22.980   2.751
50320W        W15580  33.129  30.579   4.314
50321W        W15581  39.799  44.297  12.510
50322W        W15582  36.574  16.410   0.510
50323W        W15583  22.641  37.604   1.432
50324W        W15584  17.581  34.642  11.153
50325W        W15585  16.755   0.180  12.037
50326W        W15586  13.080   6.969   1.241
50327W        W15587  23.141  30.202   3.766
50328W        W15588  16.768   3.605  14.302
50329W        W15589  30.912   8.810   0.069
50330W        W15590  11.340  25.967  10.881
50331W        W15591   7.698  13.584  12.550
50332W        W15592   1.701  38.403  12.091
50333W        W15593   9.350  24.779   4.058
50334W        W15594  18.986  44.264  11.226
50335W        W15595  15.199  42.045  10.885
50336W        W15596   2.257  14.146   2.686
50337W        W15597  26.053  26.246  13.027
50338W        W15598  21.105  44.846  13.874
50339W        W15599  31.986  38.941   0.288
50340W        W15600  35.248  33.470  12.405
50341W        W15601   8.572  15.565  12.934
50342W        W15602  28.024  18.574   1.944
50343W        W15603   7.297  19.774   3.608
50344W        W15604  26.122  44.452   0.938
50345W        W15605   0.723  44.272   3.113
50346W        W15606   2.965  16.591  12.678
50347W        W15607   7.078  37.892  10.428
50348W        W15608  13.267  30.106   3.846
50349W        W15609  19.424   3.512   4.081
50350W        W15610  38.131  37.598   3.725
50351W        W15611   8.800  34.026  14.763
50352W        W15612   1.018  17.149  11.142
50353W        W15613  17.204  43.798   0.906
50354W        W15614  22.297  12.637   4.160
50355W        W15615  23.786  16.730  13.299
50356W        W15616   3.547   4.648  14.872
50357W        W15617  39.770  12.338   0.065
50358W        W15618  21.773   6.922   3.260
50359W        W15619  23.544  26.204   1.004
50360W        W15620  12.863   7.107  13.381
50361W        W15621   8.253  38.624   2.325
50362W        W15622  25.660   7.678  12.073
50363W        W15623  37.546  37.624   1.325
50364W        W15624  24.348  34.087  14.358
50365W        W15625   2.783  38.557   4.742
50366W        W15626  26.475  40.766   0.012
50367W        W15627  32.843  13.305  10.591
50368W        W15628  42.020  38.525   1.920
50369W        W15629  35.981  42.758   0.924
50370W        W15630   1.379  24.105  13.460
50371W        W15631  14.052  23.138  12.439
50372W        W15632  34.285  30.053   1.765
50373W        W15633   4.834  27.959  12.875
50374W        W15634  40.084  13.500  14.575
50375W        W15635  14.406  41.404  12.062
50376W        W15636   7.668   3.135  12.903
50377W        W15637  39.297   1.483   1.234
50378W        W15638   3.644  39.483   4.158
50379W        W15639  12.997  41.368   3.755
50380W        W15640  39.600  37.921  12.831
50381W        W15641  31.515  38.491  11.452
50382W        W15642   9.170  38.961  12.221
50383W        W15643   9.595  43.984  12.851
50384W        W15644   3.643  36.870  14.032
50385W        W15645  22.692  33.874  11.604
50386W        W15646  16.961  11.301   5.020
50387W        W15647   1.816  41.500  11.571
50388W        W15648  29.968  36.819  13.994
50389W        W15649  10.667  41.373  13.131
50390W        W15650   3.337  23.584   4.198
50391W        W15651  27.285   0.924  14.707
50392W        W15652  16.606  28.396  12.815
50393W        W15653   2.849  20.126  13.066
50394W        W15654  25.003  10.003  14.790
50395W        W15655   9.371  25.681   1.793
50396W        W15656   8.644   8.445   2.661
50397W        W15657  12.150  22.565   2.834
50398W        W15658   0.424  20.229  12.024
50399W        W15659  18.400  22.979  13.305
50400W        W15660  31.407   8.608   0.996
50401W        W15661  13.595  37.521   1.501
50402W        W15662  16.845  24.322  12.425
50403W        W15663  23.251  13.130   1.768
50404W        W15664  31.251  29.000   0.847
50405W        W15665  16.290   6.424   4.842
50406W        W15666  32.322  26.579  10.174
50407W        W15667  32.745  17.653   1.693
50408W        W15668  43.041  12.943   2.093
50409W        W15669  24.685  35.448   0.334
50410W        W15670  42.996  13.288   0.451
50411W        W15671  30.091  28.625   1.618
50412W        W15672  34.133  10.690   1.932
50413W        W15673  43.922  29.517  12.049
50414W        W15674  26.108   0.012   3.308
50415W        W15675  14.192  38.593   0.126
50416W        W15676  20.192   1.230  12.476
50417W        W15677  18.035  43.964  11.899
50418W        W15678   2.846  21.714   1.486
50419W        W15679   6.977  28.577   3.504
50420W        W15680  36.613  17.218   5.291
50421W        W15681   6.185   6.156  11.576
50422W        W15682  22.210  13.733   4.151
50423W        W15683   0.072  35.953  11.842
50424W        W15684  16.155  12.679  10.496
50425W        W15685  37.506  37.603   3.790
50426W        W15686  10.688  18.137   2.155
50427W        W15687  33.111  16.138   1.941
50428W        W15688  16.337   2.853   4.726
50429W        W15689  16.812  34.125   1.805
50430W        W15690  39.064  37.442   1.648
50431W        W15691  10.540  41.538  10.850
50432W        W15692  25.209  25.530  14.368
50433W        W15693  40.754  10.169   4.250
50434W        W15694  16.106   4.386  13.940
50435W        W15695   6.646   9.124  11.178
50436W        W15696  27.549  33.601  11.562
50437W        W15697  40.049  17.134   4.333
50438W        W15698  36.489  20.690   3.562
50439W        W15699  43.582   2.495  12.394
50440W        W15700  23.456  44.934   1.912
50441W        W15701  27.636   6.329   1.961
50442W        W15702  32.300  31.241  13.674
50443W        W15703  29.505  10.815   3.600
50444W        W15704   2.976  18.056  11.772
50445W        W15705  12.189  38.393   2.031
50446W        W15706  31.174   1.766  14.409
50447W        W15707  40.978  30.555  13.009
50448W        W15708   4.601  38.483   2.710
50449W        W15709  31.452   8.740  12.414
50450W        W15710  44.707  35.193  12.085
50451W        W15711  22.096  43.280   0.354
50452W        W15712   3.855   3.437   0.730
50453W        W15713  12.315  15.401  14.190
50454W        W15714  40.480  32.469  10.817
50455W        W15715   9.731   2.354  11.107
50456W        W15716   4.194  39.744   0.158
50457W        W15717  37.724   7.239   2.309
50458W        W15718  15.900  18.561  13.304
50459W        W15719  21.692  28.169  14.295
50460W        W15720  22.139  15.382  11.228
50461W        W15721  38.345  35.322   0.606
50462W        W15722  33.659  34.624   3.224
50463W        W15723  22.566   8.245   1.721
50464W        W15724  22.448  22.492  14.336
50465W        W15725  33.379   8.629  10.220
50466W        W15726  42.740  19.982  10.538
50467W        W15727   2.435  20.203   1.931
50468W        W15728  43.259   1.358   2.147
50469W        W15729  32.058  34.885   1.172
50470W        W15730   4.484  25.008   0.784
50471W        W15731  15.246  24.088   2.809
50472W        W15732  38.431  35.782  11.988
50473W        W15733  41.755  44.540  12.620
50474W        W15734  33.011   5.698  13.391
50475W        W15735  17.263  18.627   0.482
50476W        W15736  34.446  26.488   1.839
50477W        W15737   7.467  24.048   4.027
50478W        W15738  25.627  15.800  11.844
50479W        W15739   9.229  39.451  12.007
50480W        W15740  20.403   3.808  11.546
50481W        W15741  17.730  30.074  10.842
50482W        W15742  35.986  30.560   1.313
50483W        W15743   2.720   7.824   3.370
50484W        W15744  21.188  25.694  14.442
50485W        W15745   0.727  34.071   2.714
50486W        W15746  43.472   6.035   1.748
50487W        W15747  33.411  25.769  13.516
50488W        W15748  23.809  38.966   1.013
50489W        W15749   0.931  39.264  11.195
50490W        W15750  20.762  21.670  14.285
50491W        W15751   4.742  24.106  12.484
50492W        W15752  27.220  27.759   4.113
50493W        W15753  37.739  27.054  13.302
50494W        W15754  33.486  10.895   2.419
50495W        W15755  35.175   2.773   2.760
50496W        W15756   3.731  34.003  10.441
50497W        W15757  40.405  33.022  10.991
50498W        W15758  12.170  20.420   2.709
50499W        W15759  36.339  32.205   1.869
50500W        W15760  18.367   2.367   1.881
50501W        W15761  29.946  13.992  10.670
50502W        W15762  12.260  36.651  14.263
50503W        W15763  28.462  41.483   4.692
50504W        W15764  43.584  39.822  13.510
50505W        W15765  12.514  33.591  11.078
50506W        W15766  30.127   0.788  13.023
50507W        W15767  38.244  32.339  14.937
50508W        W15768   0.270  10.803   0.016
50509W        W15769  44.816   4.015  11.622
50510W        W15770   6.181  18.107   4.843
50511W        W15771   9.706  15.633  10.677
50512W        W15772  20.336  37.070   2.883
50513W        W15773  41.579  12.742   2.909
50514W        W15774  39.097  41.726  13.973
50515W        W15775  18.237  29.775  14.336
50516W        W15776  41.524  39.553  14.965
50517W        W15777   1.855  12.716   4.060
50518W        W15778  36.978  30.147  11.270
50519W        W15779  40.316  20.130  11.564
50520W        W15780   7.091  43.370   0.876
50521W        W15781  19.225  22.073   3.099
50522W        W15782  38.938  35.875  11.200
50523W        W15783   9.158  37.658   0.436
50524W        W15784  42.796  23.237   4.626
50525W        W15785   5.905  20.710  14.478
50526W        W15786  30.281  11.101  13.524
50527W        W15787  32.937  12.847  11.517
50528W        W15788  20.279   3.495  11.130
50529W        W15789   5.228  37.254   3.941
50530W        W15790  29.567   1.655   2.325
50531W        W15791   7.356  25.068   4.108
50532W        W15792   6.092   9.550   3.203
50533W        W15793  28.850  34.651  11.044
50534W        W15794  40.964  32.814   4.927
50535W        W15795   9.610   7.848   3.405
50536W        W15796  36.082  42.314  13.556
50537W        W15797  19.790  33.989   1.753
50538W        W15798   5.896  11.379  13.388
50539W        W15799   4.938  19.215  10.763
50540W        W15800  13.365  24.718  12.413
50541W        W15801  44.304  10.192  11.174
50542W        W15802  13.859  27.520  12.066
50543W        W15803  11.738  36.815  12.455
50544W        W15804  30.140  10.777  11.346
50545W        W15805  38.943  33.292  10.238
50546W        W15806  43.328  42.682   4.692
50547W        W15807  34.888  42.095  13.815
50548W        W15808  27.077  37.009   3.157
50549W        W15809  29.184  33.009  14.675
50550W        W15810   4.745  31.920  10.467
50551W        W15811  32.348  14.850   1.714
50552W        W15812  23.701   8.949  11.053
50553W        W15813   8.144   0.188  14.265
50554W        W15814  21.034  39.018   0.327
50555W        W15815  40.100   4.811   3.655
50556W        W15816  19.964  43.750   4.180
50557W        W15817  41.401  14.356  12.871
50558W        W15818  13.238   2.003   4.136
50559W        W15819  10.153  15.269  12.417
50560W        W15820  44.763  40.723  13.300
50561W        W15821  39.599  19.791  12.475
50562W        W15822  13.172  12.327  13.575
50563W        W15823   2.240  21.092  13.919
50564W        W15824  34.121  38.122   1.757
50565W        W15825  27.942  13.026   0.378
50566W        W15826   9.376  44.172  13.596
50567W        W15827  25.411  21.524   3.766
50568W        W15828   3.819  34.783  11.871
50569W        W15829  43.778  28.606  11.426
50570W        W15830  24.237  41.911   1.350
50571W        W15831   4.632  14.267  11.163
50572W        W15832  40.316  13.698   4.146
50573W        W15833  14.564  36.592  12.406
50574W        W15834  16.348  42.424   1.899
50575W        W15835  21.595   7.731   0.765
50576W        W15836  16.826  18.774  13.231
50577W        W15837   6.856  28.585  13.398
50578W        W15838  35.937  17.971   0.819
50579W        W15839  16.407  17.130  10.156
50580W        W15840  25.943   2.411  14.761
50581W        W15841  24.158   1.870   3.744
50582W        W15842  20.908  39.505   4.670
50583W        W15843  16.259  15.739   3.411
50584W        W15844  28.073  19.002  12.891
50585W        W15845  26.251  33.351   3.669
50586W        W15846   6.252  35.294  12.368
50587W        W15847  32.189  18.527  11.987
50588W        W15848  13.713  33.633   0.246
50589W        W15849   1.582  26.744   4.917
50590W        W15850  20.453  13.570   0.438
50591W        W15851  16.471  33.394  12.398
50592W        W15852  16.370  16.640  14.452
50593W        W15853   4.949  41.729  12.853
50594W        W15854  29.391  35.965  14.413
50595W        W15855  31.942   1.386   4.694
50596W        W15856  26.155   9.092  14.922
50597W        W15857  21.067  40.508   0.438
50598W        W15858   8.585  40.160   0.912
50599W        W15859   4.881  34.859  13.247
50600W        W15860  44.255  17.013   3.215
50601W        W15861  41.397   7.206   2.351
50602W        W15862  22.105  42.019  13.361
50603W        W15863  14.232  29.453   0.543
50604W        W15864  11.080  12.350   1.761
50605W        W15865  20.117   6.203   1.325
50606W        W15866  26.465  28.133   4.078
50607W        W15867  34.804  41.547   1.634
50608W        W15868  15.844   6.929   0.642
50609W        W15869  16.634   2.251  13.517
50610W        W15870  42.278  25.650   1.242
50611W        W15871  42.183  21.106  13.885
50612W        W15872  13.734  40.490   1.860
50613W        W15873  24.547  44.506  14.553
50614W        W15874  19.286  10.133   3.001
50615W        W15875  26.973  31.001   3.680
50616W        W15876  14.341   6.133   4.636
50617W        W15877  16.247  38.786   2.873
50618W        W15878  20.649  33.597  10.945
50619W        W15879  25.874  11.774  14.661
50620W        W15880  40.013  37.528  13.352
50621W        W15881  17.526  21.274   3.984
50622W        W15882   3.838  28.652  12.995
50623W        W15883  24.217  43.618  13.381
50624W        W15884  15.909  35.339  14.828
50625W        W15885   3.190  40.817   4.729
50626W        W15886  38.447  41.290  14.242
50627W        W15887   2.039  20.832  11.230
50628W        W15888   9.915  41.631   2.659
50629W        W15889   2.295  34.889   4.679
50630W        W15890  10.830  20.727  14.052
50631W        W15891  35.487   5.453   4.594
50632W        W15892  12.900   5.367  13.033
50633W        W15893  37.270  29.777  12.504
50634W        W15894  35.762   7.825  11.162
50635W        W15895  11.645   4.202  14.112
50636W        W15896  13.126  15.810   0.911
50637W        W15897   0.500   9.800   0.668
50638W        W15898  16.348  12.269  11.950
50639W        W15899  13.128  22.636   1.601
50640W        W15900  25.178   7.812  12.345
50641W        W15901  36.616  14.369  11.569
50642W        W15902  11.364   5.164  10.197
50643W        W15903  42.597  38.495  13.316
50644W        W15904  19.154  12.301   3.082
50645W        W15905  37.341  28.120  11.411
50646W        W15906  20.802  44.275  12.921
50647W        W15907  26.328   7.026   1.302
50648W        W15908   4.782  18.503  10.388
50649W        W15909  26.240   4.451  14.942
50650W        W15910  22.225   6.204   1.679
50651W        W15911  12.380   1.336   4.161
50652W        W15912  16.750  38.975   2.754
50653W        W15913   6.187  23.686   0.272
50654W        W15914  15.641  33.512  12.089
50655W        W15915  32.618  34.636   0.367
50656W        W15916   5.930   9.836   4.152
50657W        W15917  32.650   6.278  14.977
50658W        W15918  41.377   4.369  13.001
50659W        W15919  11.358  33.064   4.336
50660W        W15920  17.237  33.481   4.518
50661W        W15921  29.689   0.303   4.495
50662W        W15922  11.739  36.399  13.550
50663W        W15923   4.483  12.844  14.402
50664W        W15924  42.798  28.977  11.567
50665W        W15925  11.480  30.960  11.101
50666W        W15926  20.724  35.975   1.754
50667W        W15927  35.136  13.034  13.566
50668W        W15928   9.621  35.025   4.070
50669W        W15929  20.330  26.177  10.641
50670W        W15930  28.109  40.404   0.224
50671W        W15931  18.743  19.613   2.192
50672W        W15932  29.535  41.643  14.402
50673W        W15933  38.499  23.250  11.135
50674W        W15934  25.655  32.124   3.553
50675W        W15935  17.128  16.767  11.203
50676W        W15936  20.319  10.213   0.723
50677W        W15937  19.803  20.169   2.602
50678W        W15938  34.981   8.444  13.913
50679W        W15939  22.052  44.918  13.428
50680W        W15940  13.011  13.773   4.892
50681W        W15941   6.285   3.771  11.592
50682W        W15942  16.752  20.811  10.189
50683W        W15943  43.939   6.870  13.941
50684W        W15944   7.197  11.274  11.532
50685W        W15945  16.228   8.411   0.931
50686W        W15946  11.450  32.212   4.543
50687W        W15947  12.641  33.187   1.345
50688W        W15948  29.508  29.627   4.069
50689W        W15949  39.337  38.574   4.695
50690W        W15950  11.750   2.467  11.421
50691W        W15951  43.827  23.311   4.578
50692W        W15952  28.259  38.354  11.669
50693W        W15953  29.521  39.805  14.130
50694W        W15954  17.236  39.071  10.552
50695W        W15955   3.440   9.386  12.573
50696W        W15956  24.702  20.484  12.901
50697W        W15957   9.833   3.341   4.994
50698W        W15958  31.237  43.770   0.303
50699W        W15959  18.958  23.388   3.431
50700W        W15960  15.781  22.527   4.013
50701W        W15961  42.814  37.511   3.203
50702W        W15962  18.829  24.335   4.978
50703W        W15963  13.160   9.350  13.014
50704W        W15964  23.656   8.635  14.974
50705W        W15965  14.438  14.171  14.132
50706W        W15966  21.124  27.542   2.928
50707W        W15967  21.501  43.771   4.947
50708W        W15968  34.869  22.118  13.873
50709W        W15969  15.771   8.444  14.288
50710W        W15970  14.542  40.524  12.423
50711W        W15971   2.185   7.411  13.038
50712W        W15972  37.574  19.059  10.662
50713W        W15973  13.331  20.448  12.035
50714W        W15974  43.793  31.179  12.454
50715W        W15975  26.999  13.915  10.699
50716W        W15976  21.201  15.309  12.410
50717W        W15977  43.860   6.148   1.348
50718W        W15978   1.685  18.487  12.529
50719W        W15979  21.644  27.033   0.008
50720W        W15980  37.343  15.245   0.220
50721W        W15981  12.562  11.636  12.023
50722W        W15982  25.853  33.936  13.925
50723W        W15983   8.668  13.558  14.314
50724W        W15984  13.900  38.439   3.767
50725W        W15985   7.438   3.340   4.131
50726W        W15986  31.507   9.911   3.248
50727W        W15987  43.124   5.891   3.265
50728W        W15988  36.868  43.478  13.918
50729W        W15989  30.642  11.083  10.651
50730W        W15990   5.806   0.667  14.880
50731W        W15991  20.771  36.651   5.074
50732W        W15992  35.888   6.898  12.199
50733W        W15993  35.448   2.873   3.185
50734W        W15994  27.940  31.789   0.259
50735W        W15995  26.769  24.819   3.555
50736W        W15996  15.429   8.420  13.900
50737W        W15997   8.395  22.764   0.244
50738W        W15998  29.735  22.924  11.830
50739W        W15999  44.957   1.420  13.887
50740W        W16000  28.063  41.955   2.110
50741W        W16001  19.512  22.845   9.864
50742W        W16002  20.490   6.364  12.432
50743W        W16003   8.629  25.460   1.467
50744W        W16004  29.470  43.415   0.893
50745W        W16005  12.053  33.867   0.428
50746W        W16006  17.389  42.753   4.587
50747W        W16007   3.668   6.684   3.689
50748W        W16008  33.110   9.583   0.782
50749W        W16009  29.859  27.531   4.016
50750W        W16010  19.127  30.979  12.636
50751W        W16011  35.525  39.070  14.226
50752W        W16012  41.426  32.861   3.013
50753W        W16013   3.310   0.363  10.860
50754W        W16014  31.342  28.394   0.196
50755W        W16015  32.846   1.417  13.837
50756W        W16016  41.018  10.584   2.476
50757W        W16017  19.983  35.535   1.847
50758W        W16018  24.226  12.140  13.834
50759W        W16019  29.680   4.757  14.018
50760W        W16020  40.366  44.205   4.092
50761W        W16021  28.614  15.766   4.580
50762W        W16022   0.216  44.405   3.068
50763W        W16023  16.256  18.973  11.156
50764W        W16024   4.887   4.893   2.786
50765W        W16025  20.774  32.850   4.539
50766W        W16026  25.045   5.173  13.104
50767W        W16027  19.303  39.953   0.958
50768W        W16028  31.797  44.911   3.114
50769W        W16029  17.164  18.086   2.245
50770W        W16030  43.612  33.935   4.268
50771W        W16031   9.476  43.673  12.462
50772W        W16032   5.030  16.232  12.471
50773W        W16033  34.874   6.566   0.701
50774W        W16034  12.464   3.109   4.129
50775W        W16035   5.395  19.714  14.761
50776W        W16036  33.860  40.715   2.246
50777W        W16037  25.298   4.737  14.262
50778W        W16038  11.412  13.685   2.229
50779W        W16039   1.014  39.662  14.458
50780W        W16040  38.921  30.525   3.398
50781W        W16041  23.213  31.739   3.294
50782W        W16042   8.371  18.788   3.897
50783W        W16043  32.859  36.317   3.882
50784W        W16044  18.040  28.613   4.502
50785W        W16045   8.754  16.706  10.886
50786W        W16046  31.585  10.129  14.517
50787W        W16047  37.020  29.011   1.131
50788W        W16048  42.025  30.495  12.953
50789W        W16049  26.648  39.401   1.742
50790W        W16050  29.918   6.629  10.748
50791W        W16051  30.575  17.710   4.627
50792W        W16052  40.289  19.497  14.425
50793W        W16053  41.916  24.932  10.812
50794W        W16054  43.813  37.948   1.728
50795W        W16055  38.773  39.026  12.364
50796W        W16056  29.250  29.379   2.737
50797W        W16057  44.878   6.632   3.147
50798W        W16058  43.825  38.073   1.195
50799W        W16059  31.802  33.476  12.898
50800W        W16060  23.224  31.969   4.637
50801W        W16061  28.598   5.039  14.323
50802W        W16062   0.344  38.424   3.217
50803W        W16063  27.822   7.487   3.810
50804W        W16064  34.787  33.411   4.701
50805W        W16065  12.737  20.581  14.200
50806W        W16066  39.487  35.979  12.823
50807W        W16067  37.378  26.153  13.878
50808W        W16068  26.755  28.391  11.447
50809W        W16069  17.716  19.002  12.972
50810W        W16070   5.306  14.479   1.866
50811W        W16071  11.793  31.204  12.636
50812W        W16072  18.262  27.800   2.405
50813W        W16073  44.322  26.172   2.704
50814W        W16074  23.186   4.681   2.945
50815W        W16075  24.238  26.723   4.953
50816W        W16076  12.276  21.638   3.660
50817W        W16077  20.487  44.902  10.647
50818W        W16078  26.504   3.613  14.765
50819W        W16079  44.876   2.999   2.802
50820W        W16080  11.296  40.807   3.699
50821W        W16081  39.031  33.333  14.466
50822W        W16082  43.361   3.087   0.796
50823W        W16083  36.832  10.807   4.707
50824W        W16084  44.416   1.325   0.484
50825W        W16085  11.315  19.206  13.483
50826W        W16086  39.447  24.491   2.132
50827W        W16087  13.333  22.210  14.421
50828W        W16088   4.205   3.754  13.383
50829W        W16089  22.834  35.646   2.436
50830W        W16090  37.943  12.301   4.438
50831W        W16091  37.309   3.189   4.154
50832W        W16092  26.195  15.975   2.623
50833W        W16093  44.122  24.777  12.065
50834W        W16094   0.599  41.259   3.232
50835W        W16095  30.956  37.067  12.452
50836W        W16096  40.419   5.848  14.833
50837W        W16097   8.226  21.721   0.860
50838W        W16098  18.266  31.287  14.387
50839W        W16099  43.961  43.888   4.137
50840W        W16100  29.199  34.170   3.221
50841W        W16101  25.789  26.248   4.636
50842W        W16102  21.656  18.569  10.711
50843W        W16103   5.708   2.223  12.451
50844W        W16104  28.187  25.547  11.989
50845W        W16105  30.936  34.015  13.881
50846W        W16106  30.377  43.904  11.021
50847W        W16107   6.882  21.228  10.777
50848W        W16108  35.008  41.686   2.571
50849W        W16109   9.107  31.907   4.153
50850W        W16110  27.107  14.293   1.425
50851W        W16111   5.433  24.133   0.383
50852W        W16112  18.345   4.589   1.199
50853W        W16113  33.633   0.983   5.133
50854W        W16114   8.217   8.237  11.473
50855W        W16115  29.492  17.084  13.269
50856W        W16116  42.186  24.424   2.415
50857W        W16117   9.353  28.732   5.052
50858W        W16118  34.453  24.469   3.924
50859W        W16119   0.881  19.668   2.773
50860W        W16120   1.895  23.165   3.395
50861W        W16121  27.905   4.053   1.458
50862W        W16122  23.239   0.951  10.978
50863W        W16123   0.338  22.168   4.552
50864W        W16124  20.167  43.629  10.713
50865W        W16125   1.955   1.874   3.702
50866W        W16126  33.329   2.973   0.594
50867W        W16127   2.566   2.881   4.623
50868W        W16128  35.609   9.196  11.549
50869W        W16129  36.296  44.252  14.231
50870W        W16130  22.346  42.035  10.661
50871W        W16131   4.406   6.654  11.865
50872W        W16132  27.154  35.304  11.092
50873W        W16133  29.891  29.702   1.436
50874W        W16134  17.288  13.516   4.368
50875W        W16135  24.723   4.003   1.320
50876W        W16136  22.549  33.955   9.984
50877W        W16137  23.744  22.305  11.218
50878W        W16138  27.471  40.904   4.024
50879W        W16139  42.371  36.161  11.696
50880W        W16140  10.717  43.502  14.833
50881W        W16141  40.275  28.346  10.276
50882W        W16142  11.418  10.369   4.059
50883W        W16143  39.566  39.429   4.683
50884W        W16144  19.688  24.801  10.424
50885W        W16145  40.688  43.535  11.860
50886W        W16146   2.345  19.156   1.243
50887W        W16147   0.162   4.411  14.955
50888W        W16148   7.699  31.319  11.786
50889W        W16149  18.541  25.561  10.612
50890W        W16150  39.893  39.416  13.372
50891W        W16151  29.096  41.011   2.346
50892W        W16152  14.855   3.312  14.074
50893W        W16153   0.825  30.551   3.309
50894W        W16154  11.533  31.269   4.037
50895W        W16155  14.824  36.116  14.691
50896W        W16156  21.892  17.036  14.751
50897W        W16157  40.309  22.496   3.816
50898W        W16158   0.121  33.851   4.131
50899W        W16159   2.836  36.036   4.908
50900W        W16160  33.807  40.577   4.583
50901W        W16161  15.089  33.856  12.469
50902W        W16162   8.499  34.496  14.268
50903W        W16163   0.479   9.969  12.403
50904W        W16164  21.513  39.387   0.791
50905W        W16165   8.047  10.777   3.103
50906W        W16166  41.254  36.868   0.832
50907W        W16167  43.438  12.194   1.820
50908W        W16168  30.655  30.129  13.981
50909W        W16169  23.628  38.230   1.439
50910W        W16170   1.673   7.293  11.121
50911W        W16171  44.182  28.100  12.573
50912W        W16172   8.131  31.059   1.901
50913W        W16173   2.740   4.269   3.707
50914W        W16174  32.698  21.183  14.747
50915W        W16175   1.436  16.233   2.376
50916W        W16176  17.235  16.631   5.025
50917W        W16177   4.760  44.511   1.841
50918W        W16178  11.335  44.995  11.145
50919W        W16179  25.002  28.256   4.576
50920W        W16180   4.335  25.532   0.799
50921W        W16181  24.960  30.590   3.220
50922W        W16182  25.218  16.341   0.005
50923W        W16183  23.535   8.796  11.660
50924W        W16184  12.143  27.456   2.790
50925W        W16185  24.616  12.448  10.979
50926W        W16186  36.043   3.377  12.450
50927W        W16187   3.408  18.179  14.981
50928W        W16188  30.400  35.270   4.228
50929W        W16189   6.822   2.908   0.237
50930W        W16190  41.056   5.794   0.536
50931W        W16191  19.825  25.565  12.591
50932W        W16192  29.515  39.366   1.089
50933W        W16193  22.357  39.856   3.801
50934W        W16194  21.394  42.824   3.650
50935W        W16195  39.269  32.195  13.362
50936W        W16196  14.809  10.674  10.107
50937W        W16197  29.484  31.055   2.774
50938W        W16198   8.731   8.587   1.240
50939W        W16199  38.410  20.504   4.105
50940W        W16200  33.438  28.562  11.745
50941W        W16201   6.529  34.560   0.895
50942W        W16202   5.288  13.309   3.093
50943W        W16203  38.748   4.281  11.816
50944W        W16204  41.015  41.273   0.215
50945W        W16205   7.540  17.523  11.980
50946W        W16206  17.010   5.809  14.468
50947W        W16207   4.923   3.838   1.630
50948W        W16208  17.245  16.029  12.204
50949W        W16209   2.247  30.226   4.211
50950W        W16210  13.768   5.348  13.213
50951W        W16211   4.024  38.873  11.558
50952W        W16212   8.314   0.458   3.288
50953W        W16213  11.744  24.863  11.469
50954W        W16214   5.505  10.792   4.210
50955W        W16215  37.282  20.156   0.100
50956W        W16216  36.942  10.918   0.312
50957W        W16217   2.005  25.164   0.835
50958W        W16218  22.895  33.760   1.007
50959W        W16219  21.447  32.185   1.378
50960W        W16220  34.956   2.836  10.502
50961W        W16221   9.167  26.732   2.288
50962W        W16222  36.071  12.782  11.400
50963W        W16223  22.233  34.541  13.599
50964W        W16224  25.245  17.977   2.821
50965W        W16225  12.508  29.037   4.439
50966W        W16226  28.703  14.803   4.770
50967W        W16227  34.337  32.464   3.940
50968W        W16228  11.009  34.158  10.543
50969W        W16229   4.410  28.960   3.510
50970W        W16230  13.427   2.507  12.052
50971W        W16231  29.871  20.742  12.173
50972W        W16232   6.884  26.941  12.017
50973W        W16233  38.382   0.095  11.627
50974W        W16234  16.165  28.268  14.290
50975W        W16235  17.720   1.759   3.308
50976W        W16236  15.560   8.797   3.818
50977W        W16237  28.998   1.022  11.093
50978W        W16238  41.491   6.120  14.364
50979W        W16239   6.502   7.317   0.289
50980W        W16240  30.603  40.459  14.915
50981W        W16241  41.586  37.054   3.737
50982W        W16242  33.805  39.941   0.436
50983W        W16243   4.783  15.019   2.847
50984W        W16244  33.071  29.946   1.887
50985W        W16245  13.363  35.529  13.087
50986W        W16246   4.203  43.272   1.275
50987W        W16247  42.957  33.583   2.735
50988W        W16248  31.380  29.259  11.959
50989W        W16249  21.305  37.811   2.378
50990W        W16250  24.608  13.151  12.853
50991W        W16251  44.992  29.882   0.011
50992W        W16252  28.369  34.473  12.445
50993W        W16253  20.289   9.280   4.084
50994W        W16254  25.146  14.162   2.441
50995W        W16255  13.689  13.097  10.726
50996W        W16256  19.335   7.238  12.035
50997W        W16257  10.151  31.204  10.401
50998W        W16258  37.093  25.893  10.710
50999W        W16259   9.656   6.624   1.340
51000W        W16260  20.850  41.657  11.563
51001W        W16261  10.816  36.454   4.217
51002W        W16262   6.289  25.359  11.878
51003W        W16263  40.454  31.562   3.832
51004W        W16264  12.249  32.146   0.181
51005W        W16265  13.976   4.961   4.503
51006W        W16266   7.106  19.152  12.290
51007W        W16267  18.164   8.448  11.852
51008W        W16268  41.787  17.278   1.700
51009W        W16269   1.421  36.026  12.947
51010W        W16270  22.559   8.678   0.427
51011W        W16271  42.898  42.849  10.952
51012W        W16272  40.554   3.709   1.866
51013W        W16273  43.036   3.884  12.914
51014W        W16274  43.802   5.703   0.457
51015W        W16275  39.846  16.681  14.048
51016W        W16276  19.471   6.468   0.448
51017W        W16277  44.845  10.521   2.600
51018W        W16278  42.320  32.951  13.179
51019W        W16279  18.070  33.061  12.160
51020W        W16280  27.075  17.192  10.892
51021W        W16281  25.096  14.017   1.946
51022W        W16282   4.847  38.540  11.075
51023W        W16283  12.075   0.027   1.778
51024W        W16284   1.733  23.803  10.985
51025W        W16285  22.497  33.430  10.573
51026W        W16286  37.518   8.618  11.093
51027W        W16287   4.651  29.895   3.776
51028W        W16288  43.291  42.530   0.306
51029W        W16289  10.683   0.041   3.584
51030W        W16290  20.130  38.209   0.961
51031W        W16291  24.186  42.648  11.449
51032W        W16292  18.988  36.402   3.607
51033W        W16293  15.284  31.815   1.810
51034W        W16294  31.993  23.060   4.092
51035W        W16295  34.078  36.094  13.396
51036W        W16296  35.981  44.323  12.161
51037W        W16297  12.693  27.263   0.809
51038W        W16298  35.570  20.310  14.020
51039W        W16299   5.289   8.867   0.028
51040W        W16300  38.891  15.018  13.822
51041W        W16301   0.000  20.499   2.781
51042W        W16302  18.004  20.841  13.535
51043W        W16303   7.115  11.405  12.408
51044W        W16304  26.994  22.481   0.873
51045W        W16305  19.501   8.609  12.449
51046W        W16306  18.519  15.229  11.561
51047W        W16307   5.126  38.780   0.449
51048W        W16308   4.893  33.164   2.858
51049W        W16309   8.987  13.282   2.782
51050W        W16310   6.966  16.842   1.796
51051W        W16311  20.975  22.992  11.057
51052W        W16312  20.912  30.915   4.856
51053W        W16313   4.268  21.042   1.287
51054W        W16314  42.270  16.998   3.489
51055W        W16315  43.450   5.978   0.792
51056W        W16316  36.478  20.804   0.328
51057W        W16317  18.719  39.112  14.389
51058W        W16318  41.763  37.540   1.303
51059W        W16319  36.835  25.949   2.699
51060W        W16320   3.741  22.798   1.243
51061W        W16321  13.901  10.911  11.504
51062W        W16322   9.404  27.523   0.428
51063W        W16323  16.815   9.002   1.461
51064W        W16324  32.574  40.353   3.649
51065W        W16325   3.400  43.298   1.857
51066W        W16326  41.535  31.118  12.070
51067W        W16327  20.765   0.874   3.238
51068W        W16328   6.748  27.230  13.334
51069W        W16329   8.316   4.032   3.620
51070W        W16330   0.919  39.954  11.517
51071W        W16331  28.922  30.486  10.989
51072W        W16332   4.017  26.095   3.537
51073W        W16333  21.205  41.990   4.606
51074W        W16334   0.040  11.379  13.494
51075W        W16335  39.077   5.746   0.364
51076W        W16336  19.531  28.981  14.496
51077W        W16337  10.003  11.982   0.508
51078W        W16338   4.493  20.226  11.189
51079W        W16339  16.630  30.198  12.298
51080W        W16340  39.721  32.610   0.448
51081W        W16341  26.615  38.698  10.118
51082W        W16342  38.709  21.777   2.310
51083W        W16343  10.183  13.950  13.454
51084W        W16344  24.116  25.774  13.830
51085W        W16345   2.834  32.951  12.668
51086W        W16346  22.583  19.804  13.475
51087W        W16347  15.265  36.133  11.238
51088W        W16348  38.618   6.850  13.365
51089W        W16349  13.302  11.802  11.580
51090W        W16350  26.085  36.084  12.334
51091W        W16351  13.310   1.496   4.160
51092W        W16352  27.199   4.164   5.071
51093W        W16353  42.570  19.894   1.653
51094W        W16354  20.960  30.875  12.073
51095W        W16355   5.679  12.522   3.966
51096W        W16356  26.685   6.050   5.156
51097W        W16357  27.878  17.947  14.995
51098W        W16358  43.895  23.957  12.481
51099W        W16359  37.479   3.848  12.269
51100W        W16360  12.442  16.272   1.768
51101W        W16361   9.840  19.545  13.366
51102W        W16362  37.422  39.497  12.337
51103W        W16363  21.681  29.165   0.411
51104W        W16364  29.822  44.799   2.884
51105W        W16365   8.917  18.688   0.775
51106W        W16366  36.827  41.021  14.420
51107W        W16367  13.516  16.935   3.629
51108W        W16368  13.801  43.377  13.401
51109W        W16369  21.475  16.212  10.318
51110W        W16370  37.653  32.855   1.587
51111W        W16371   8.174  23.023  14.813
51112W        W16372  20.845  36.378  11.042
51113W        W16373  25.726  35.581  10.645
51114W        W16374  17.557   9.319   2.598
51115W        W16375  36.584  24.136   3.034
51116W        W16376   9.685   5.798  13.425
51117W        W16377   4.611  11.871  14.400
51118W        W16378  35.122  25.671  12.052
51119W        W16379  37.153  43.422  10.193
51120W        W16380  17.871  29.351   4.035
51121W        W16381  16.899  12.326  10.752
51122W        W16382  38.519  40.513  12.608
51123W        W16383   7.430  40.954   4.655
51124W        W16384  28.858  27.085   9.508
51125W        W16385   1.263  14.930  11.946
51126W        W16386   8.951  29.181  14.766
51127W        W16387  38.033  29.470  14.867
51128W        W16388  22.432  39.836   2.272
51129W        W16389  27.892  15.155   1.842
51130W        W16390  14.017  12.827  10.326
51131W        W16391  34.830   1.916  12.536
51132W        W16392  25.035  16.630   4.511
51133W        W16393  35.203  40.040   3.641
51134W        W16394   7.633  12.113  11.006
51135W        W16395   8.805   7.624   1.154
51136W        W16396  35.630  39.294  12.848
51137W        W16397  29.154  34.983   4.484
51138W        W16398  34.495  10.260  14.762
51139W        W16399  40.992  12.590  11.215
51140W        W16400  39.352  23.424  13.108
51141W        W16401  13.016  39.853   0.569
51142W        W16402  43.055  11.549  13.759
51143W        W16403   0.924  18.829  12.139
51144W        W16404  25.718  29.564   1.390
51145W        W16405  35.474  11.642  13.591
51146W        W16406  25.429   6.845   3.149
51147W        W16407  23.256  12.755   3.783
51148W        W16408  41.950  16.325  14.540
51149W        W16409  25.895  25.167  12.166
51150W        W16410   1.406  39.603  13.144
51151W        W16411  31.953  21.746   2.386
51152W        W16412  16.727  28.167  12.383
51153W        W16413  24.237  40.407   3.622
51154W        W16414  32.789  34.652   1.745
51155W        W16415  32.136  18.776  13.773
51156W        W16416   8.270   5.418   0.736
51157W        W16417  30.791   6.661   4.699
51158W        W16418   1.888  28.481  11.486
51159W        W16419  43.210  33.296  10.751
51160W        W16420   9.694  25.422   1.233
51161W        W16421  24.596   5.865   2.258
51162W        W16422   0.375   9.187  13.488
51163W        W16423  27.766   8.388  12.294
51164W        W16424  39.401   8.211   1.001
51165W        W16425  29.925   7.230  12.802
51166W        W16426  11.773  25.403   2.173
51167W        W16427  13.859  42.575  14.923
51168W        W16428  26.133  23.630   1.383
51169W        W16429  32.019  33.084   3.651
51170W        W16430  32.431   3.413   0.704
51171W        W16431  22.620  18.861   3.258
51172W        W16432  34.047  35.643  11.558
51173W        W16433  25.505   8.945   3.273
51174W        W16434  37.561  38.066  12.958
51175W        W16435  20.529   2.045  14.075
51176W        W16436  14.187   4.697   0.870
51177W        W16437  33.670  29.654   0.769
51178W        W16438  41.701  12.785  13.835
51179W        W16439  21.345  29.952  13.381
51180W        W16440  36.547  20.723  12.908
51181W        W16441  14.023  40.594  12.489
51182W        W16442  26.061  19.220  11.385
51183W        W16443   5.095  29.619   3.646
51184W        W16444  36.994  21.656  14.485
51185W        W16445  12.159   7.517   2.380
51186W        W16446  42.500  25.552  14.338
51187W        W16447   4.801  15.648  12.488
51188W        W16448  28.466  20.506  11.138
51189W        W16449  12.688  25.420   0.385
51190W        W16450  26.455   5.801  14.851
51191W        W16451  41.988  28.172   4.275
51192W        W16452  34.104  12.151  13.486
51193W        W16453   6.818  19.720   3.929
51194W        W16454  24.754  39.061  12.957
51195W        W16455   0.736   1.892   2.645
51196W        W16456  33.519  22.743  12.492
51197W        W16457  14.336   1.484  11.937
51198W        W16458  22.624   6.813   1.203
51199W        W16459  19.031  39.170  12.538
51200W        W16460  39.432  34.933   1.353
51201W        W16461  15.278  30.974   1.877
51202W        W16462  35.964  39.244   0.855
51203W        W16463  43.361  23.706  10.993
51204W        W16464  39.552   3.817  10.383
51205W        W16465  31.334  20.976   2.075
51206W        W16466  15.191  37.082  13.107
51207W        W16467  12.603  42.756  10.634
51208W        W16468   9.761   0.276   1.654
51209W        W16469  39.016  39.883   1.507
51210W        W16470  38.511  44.056  14.772
51211W        W16471  24.608  32.372   0.993
51212W        W16472  38.493  35.044   2.398
51213W        W16473  27.850   7.908   5.056
51214W        W16474  35.691  11.506   0.031
51215W        W16475   4.364   8.836   3.753
51216W        W16476  38.450  28.488   3.433
51217W        W16477  33.774  10.090   4.087
51218W        W16478  33.287  30.024   1.428
51219W        W16479  35.568  43.407  12.376
51220W        W16480  37.526  41.886  11.208
51221W        W16481  28.270  17.181   4.288
51222W        W16482  22.022  44.019   1.777
51223W        W16483  25.065  14.108   3.866
51224W        W16484  26.630  36.782   3.325
51225W        W16485  31.344  41.511   2.191
51226W        W16486  28.625   8.355   3.168
51227W        W16487   0.479  33.598   3.881
51228W        W16488  13.304   2.967  11.847
51229W        W16489   4.792  36.835  14.997
51230W        W16490  39.931  39.393   3.779
51231W        W16491   0.670  19.836   3.221
51232W        W16492  11.769  20.729   2.803
51233W        W16493  15.165  39.867  12.008
51234W        W16494  44.426  32.618   1.372
51235W        W16495  33.572  35.655  11.192
51236W        W16496  23.489  28.707  13.204
51237W        W16497   8.214  27.036   0.318
51238W        W16498  43.304   1.682   2.602
51239W        W16499  36.665   5.197   2.199
51240W        W16500  19.036   1.010   0.559
51241W        W16501  28.249  23.223  13.977
51242W        W16502  41.217  13.681   3.847
51243W        W16503  19.503  14.497  13.890
51244W        W16504  13.564   2.017  11.205
51245W        W16505  36.599  37.366  14.398
51246W        W16506  33.251  13.545   0.346
51247W        W16507  26.509  31.495   1.264
51248W        W16508  38.261  18.638   1.367
51249W        W16509  40.887   0.576  13.002
51250W        W16510  24.650  29.620   3.465
51251W        W16511   7.349  23.435   1.860
51252W        W16512  30.531   6.781   0.212
51253W        W16513  10.379  32.280   1.614
51254W        W16514  29.371  12.130   0.733
51255W        W16515  23.501  11.202  14.298
51256W        W16516  17.193  44.496  13.795
51257W        W16517  20.011   9.895  10.564
51258W        W16518  19.778  19.604   2.320
51259W        W16519  37.327  34.880   3.823
51260W        W16520   9.341  25.974   2.670
51261W        W16521  15.015  33.036  10.835
51262W        W16522  27.313  36.926  14.244
51263W        W16523  28.498  23.085  12.983
51264W        W16524  20.643  39.558  14.510
51265W        W16525  34.813  22.506   3.132
51266W        W16526  32.700  29.950   4.964
51267W        W16527  25.941  27.104   4.651
51268W        W16528  31.403  10.932  12.034
51269W        W16529   5.790  40.074  13.872
51270W        W16530  16.210  21.504  14.704
51271W        W16531  11.396  28.688  11.438
51272W        W16532   5.728  32.438  13.305
51273W        W16533  19.506   7.418  10.317
51274W        W16534  29.591  36.610  14.707
51275W        W16535  25.640  22.738   2.362
51276W        W16536  44.940  10.573  11.554
51277W        W16537  12.635  37.504   1.714
51278W        W16538  29.580  21.499  12.028
51279W        W16539  35.487  38.802  10.784
51280W        W16540  12.541   0.508   0.372
51281W        W16541  34.139  30.580  10.752
51282W        W16542  18.857   4.865   0.681
51283W        W16543  43.246  15.612  12.430
51284W        W16544  28.380  20.590   2.129
51285W        W16545  12.246  40.053  12.379
51286W        W16546  25.540  15.116   1.154
51287W        W16547  16.736  40.456  10.678
51288W        W16548   7.421  24.920  12.191
51289W        W16549  20.993  20.899   3.743
51290W        W16550  25.161  12.720  11.687
51291W        W16551  33.260  44.832  10.895
51292W        W16552  11.231   3.932   3.998
51293W        W16553  14.664  25.676   3.327
51294W        W16554  12.951  21.552  11.787
51295W        W16555   3.501  10.786   4.598
51296W        W16556  21.322  28.596  11.838
51297W        W16557  17.131  40.105   0.615
51298W        W16558  20.144  34.995  12.393
51299W        W16559  35.970  22.114   3.830
51300W        W16560  37.131   0.233  14.736
51301W        W16561  22.618  39.276   2.888
51302W        W16562  30.893  13.322   4.203
51303W        W16563   8.721  23.075   3.873
51304W        W16564  44.080  11.133  12.394
51305W        W16565  29.202  11.371  12.428
51306W        W16566  31.445  29.696  13.156
51307W        W16567   5.362  35.116  11.225
51308W        W16568   3.626  24.563   2.830
51309W        W16569   0.351  17.167  14.264
51310W        W16570  38.022  41.564  14.450
51311W        W16571  24.988  24.595   3.944
51312W        W16572  31.935  17.389   2.920
51313W        W16573   0.974  37.433  12.538
51314W        W16574  27.457  19.189  10.637
51315W        W16575  44.952  33.771  11.901
51316W        W16576   9.368  26.503   4.564
51317W        W16577  38.583   5.336  12.063
51318W        W16578   5.429   6.748  12.058
51319W        W16579  39.053  17.686  11.506
51320W        W16580   9.243  33.090   0.625
51321W        W16581  35.526  21.198  11.125
51322W        W16582  24.883  35.529   1.691
51323W        W16583  16.264  23.476  13.576
51324W        W16584  20.724   3.072  12.367
51325W        W16585  26.179  30.758   2.107
51326W        W16586  10.283   6.762  13.840
51327W        W16587  12.673  29.715   3.244
51328W        W16588   6.943  44.219   4.692
51329W        W16589   5.514  31.863  13.895
51330W        W16590  30.134  43.340   3.711
51331W        W16591  23.760  42.023  10.750
51332W        W16592   0.729  44.932   0.917
51333W        W16593  18.051  28.175   3.712
51334W        W16594  39.455  21.093  10.577
51335W        W16595  36.452  35.491  13.646
51336W        W16596   7.815  32.929   4.523
51337W        W16597  38.299  38.976  12.622
51338W        W16598  15.443  15.254   3.175
51339W        W16599  24.716  21.367  11.222
51340W        W16600  41.429  32.103   2.326
51341W        W16601  43.859  12.401  12.034
51342W        W16602   7.412  33.030   1.154
51343W        W16603  32.663  35.367   0.024
51344W        W16604  25.726  38.806   1.827
51345W        W16605   5.950  33.894  11.202
51346W        W16606  40.939  15.535   2.710
51347W        W16607   5.866   6.946   0.800
51348W        W16608  28.866  41.535  13.354
51349W        W16609  41.129  14.716  12.524
51350W        W16610  13.265  18.225  11.172
51351W        W16611  19.121   1.876  10.948
51352W        W16612  22.709  43.274  10.753
51353W        W16613  38.935  23.120  12.321
51354W        W16614  18.403  24.967  12.004
51355W        W16615  36.276  40.923  11.718
51356W        W16616  39.492  32.902   1.781
51357W        W16617  19.172  15.542   3.701
51358W        W16618  40.318  42.969  13.360
51359W        W16619  26.564   3.253   1.808
51360W        W16620   6.892   0.726   1.802
51361W        W16621   1.960  39.278  11.016
51362W        W16622  39.294   4.360   0.443
51363W        W16623  27.359  22.283   3.536
51364W        W16624  36.093  15.735   4.541
51365W        W16625  24.926  20.647  14.842
51366W        W16626  25.094  18.785  10.795
51367W        W16627  40.070  31.940  12.350
51368W        W16628   1.520  10.623   2.246
51369W        W16629  22.162  19.505   4.358
51370W        W16630  24.141  12.943  11.956
51371W        W16631  10.265   4.693  12.474
51372W        W16632  40.853   9.618   2.490
51373W        W16633  33.409  13.382   2.317
51374W        W16634  37.614  25.693  13.855
51375W        W16635  28.073  27.089   4.801
51376W        W16636  25.589  10.180  11.631
51377W        W16637  16.768  16.770   0.831
51378W        W16638  42.327  33.616  13.784
51379W        W16639  21.005  35.461   1.856
51380W        W16640  14.858  10.392  10.581
51381W        W16641   2.463  21.596  11.176
51382W        W16642  11.085  10.088   3.573
51383W        W16643  37.366   0.925   1.421
51384W        W16644  29.846  15.228   1.685
51385W        W16645  44.568  34.532   3.681
51386W        W16646   6.274   2.547  10.903
51387W        W16647  16.730   5.280  11.626
51388W        W16648  25.156   1.310   2.394
51389W        W16649  41.481   7.896   0.183
51390W        W16650  18.667  22.508   2.623
51391W        W16651  17.572   4.245   4.946
51392W        W16652  30.518  14.264   3.739
51393W        W16653  14.358  17.274  14.503
51394W        W16654  30.690  14.843  14.283
51395W        W16655  24.194  39.352  11.907
51396W        W16656   4.218   6.384  13.735
51397W        W16657  35.386   1.985   5.400
51398W        W16658  39.989  23.668   2.387
51399W        W16659  28.421  17.107  14.494
51400W        W16660  26.519  20.762  14.069
51401W        W16661  19.992  26.986  11.474
51402W        W16662  11.110  19.995  13.013
51403W        W16663   5.183   1.228  10.995
51404W        W16664   5.259  21.312  12.001
51405W        W16665  37.811  39.383   0.144
51406W        W16666  42.703  10.349   0.348
51407W        W16667   2.526  34.551  14.390
51408W        W16668   2.457   7.809   1.173
51409W        W16669  30.607  36.134  14.374
51410W        W16670   2.917  40.791  12.084
51411W        W16671  21.214  26.705   1.877
51412W        W16672  15.061   9.349  13.345
51413W        W16673  43.844  14.214  10.721
51414W        W16674  20.264  44.906  14.533
51415W        W16675  19.739  11.720   0.294
51416W        W16676  18.098  28.311   2.342
51417W        W16677  15.709   2.438   0.960
51418W        W16678  41.002  20.939   0.411
51419W        W16679  21.099  11.720   4.703
51420W        W16680   9.221  25.279   4.051
51421W        W16681  12.731  24.248  10.362
51422W        W16682  40.738  27.544  14.081
51423W        W16683  30.072  31.785  14.984
51424W        W16684  37.650  31.127   3.087
51425W        W16685  40.731   6.053   0.842
51426W        W16686  33.029   6.325   2.943
51427W        W16687   2.619  26.585   4.054
51428W        W16688   1.306  21.027   3.605
51429W        W16689   0.243   3.824  12.423
51430W        W16690  22.269  22.598   4.607
51431W        W16691  14.525  21.273   3.385
51432W        W16692   8.682  29.961   0.912
51433W        W16693  31.097  20.766   0.949
51434W        W16694  15.821  15.760   4.898
51435W        W16695   7.752  13.149   4.577
51436W        W16696  10.434  23.612   1.771
51437W        W16697   1.810  36.072   2.760
51438W        W16698  24.758  43.807   3.162
51439W        W16699  38.795  42.547   2.396
51440W        W16700  16.893   1.348  10.643
51441W        W16701  37.956  41.246  11.617
51442W        W16702  18.979  32.781  12.906
51443W        W16703  35.183  30.158  10.767
51444W        W16704  37.612   7.294   0.912
51445W        W16705  10.228  14.088  10.075
51446W        W16706  20.057  18.777   2.752
51447W        W16707  37.648   8.799   2.225
51448W        W16708  18.839  12.036  12.011
51449W        W16709  43.512  40.539  12.968
51450W        W16710  33.331  38.320   0.787
51451W        W16711  16.638  21.643  14.407
51452W        W16712  21.456  39.877   1.269
51453W        W16713  34.865  32.208  12.401
51454W        W16714  43.836   2.932   0.012
51455W        W16715  44.558  29.661  11.550
51456W        W16716  30.448  27.200   0.890
51457W        W16717   1.928  38.553   0.811
51458W        W16718  11.888   0.907  14.461
51459W        W16719  12.649   4.060   0.372
51460W        W16720   5.832  35.615  13.018
51461W        W16721  18.786   6.909  14.952
51462W        W16722  22.066  36.752  12.213
51463W        W16723   6.673  18.351   3.615
51464W        W16724  42.003   6.378   2.272
51465W        W16725  12.197   9.315   2.675
51466W        W16726  22.122  18.725   2.093
51467W        W16727  31.527  44.803  14.706
51468W        W16728  10.700  28.688  14.252
51469W        W16729   3.270   4.853  14.437
51470W        W16730  16.280  34.060  11.182
51471W        W16731  30.774  37.369  13.517
51472W        W16732  35.491  12.246  10.404
51473W        W16733  13.449  24.020   0.002
51474W        W16734   7.874  28.769   2.624
51475W        W16735  41.503  17.269  10.799
51476W        W16736  14.801  32.607   0.329
51477W        W16737  22.752  40.692   2.844
51478W        W16738  35.850  27.699  11.991
51479W        W16739   2.068  32.451  11.071
51480W        W16740  16.411  33.321  11.528
51481W        W16741   3.699   9.819  10.534
51482W        W16742  19.249  11.849   0.462
51483W        W16743  14.106   7.793   3.897
51484W        W16744  12.203  40.305  14.431
51485W        W16745   4.022  28.572  13.602
51486W        W16746  14.048  43.045   1.731
51487W        W16747  27.445  20.947   3.234
51488W        W16748   1.393  30.619  12.133
51489W        W16749  25.316  37.479   4.084
51490W        W16750  26.124  32.899  14.578
51491W        W16751   5.105  14.753   1.082
51492W        W16752  23.551   5.501  13.067
51493W        W16753  31.050  10.694  14.430
51494W        W16754  20.125  42.957  10.786
51495W        W16755  32.413  10.359   1.864
51496W        W16756  42.252  34.609  14.067
51497W        W16757  26.080  26.083   4.238
51498W        W16758  19.253  42.430  14.700
51499W        W16759   5.099  29.746   1.197
51500W        W16760  16.573  17.989  12.842
51501W        W16761  37.532  44.245  13.823
51502W        W16762   4.838  32.618  14.068
51503W        W16763  42.079  28.631  10.457
51504W        W16764  10.363  30.679   2.474
51505W        W16765  27.457  44.980   1.675
51506W        W16766   4.615   3.524   3.898
51507W        W16767  20.361  38.376  13.402
51508W        W16768   0.384  33.642  12.630
51509W        W16769   6.932  32.001  12.913
51510W        W16770  13.451  35.603   3.278
51511W        W16771  44.162  26.501   3.788
51512W        W16772  42.072  22.978   0.802
51513W        W16773  44.019   6.917  12.972
51514W        W16774  30.418   5.201   3.938
51515W        W16775  39.944  14.415   1.379
51516W        W16776   6.354  44.430   1.914
51517W        W16777  11.335   1.848   2.227
51518W        W16778  17.223  20.138   3.608
51519W        W16779  36.899  44.936   2.336
51520W        W16780   4.806  10.549   1.796
51521W        W16781  41.363   6.192   4.492
51522W        W16782  32.607  12.530   2.618
51523W        W16783  20.590  27.003   3.695
51524W        W16784   9.224  18.175   1.750
51525W        W16785  10.975  18.448   3.437
51526W        W16786   1.391  30.172  10.920
51527W        W16787  21.464  28.438   4.063
51528W        W16788  34.276  15.215  12.907
51529W        W16789   9.390  29.045   3.561
51530W        W16790   9.578  11.727   0.396
51531W        W16791  20.039  24.034  14.524
51532W        W16792   1.433  37.755   3.410
51533W        W16793  35.733  22.427  11.160
51534W        W16794   8.179  13.512  11.638
51535W        W16795   0.365  28.034  13.314
51536W        W16796  18.677  10.070   1.296
51537W        W16797   6.245  10.765   1.266
51538W        W16798  21.503  32.122  11.574
51539W        W16799   4.767  42.504  12.572
51540W        W16800  15.453  33.794  10.831
51541W        W16801  11.737  15.749   2.741
51542W        W16802  39.344  18.038  13.837
51543W        W16803  24.712  24.265   2.784
51544W        W16804  25.926  29.203  11.862
51545W        W16805  30.857  23.225   0.510
51546W        W16806  34.531  15.715  12.014
51547W        W16807  19.313  42.770   4.812
51548W        W16808  33.446  35.785  12.635
51549W        W16809  18.543  28.339  11.042
51550W        W16810  24.933  17.782  12.892
51551W        W16811  24.815   8.056   3.188
51552W        W16812  32.908  30.520   3.326
51553W        W16813  10.637  38.509  13.313
51554W        W16814  22.408  40.366  11.963
51555W        W16815  16.188  24.268  11.689
51556W        W16816   3.168  17.324  13.071
51557W        W16817  37.901  28.925  10.794
51558W        W16818  22.076   7.307   3.518
51559W        W16819  26.999   5.134   0.379
51560W        W16820  26.722  43.804   0.431
51561W        W16821  35.909  10.666  11.416
51562W        W16822  25.263   7.356  13.697
51563W        W16823   1.366  14.282  14.716
51564W        W16824   5.689  17.015   2.689
51565W        W16825   0.875  33.644  14.171
51566W        W16826  29.702  44.886   2.383
51567W        W16827  17.356   9.535   1.635
51568W        W16828  38.502  40.635  13.111
51569W        W16829  24.036  22.288  12.065
51570W        W16830  37.920  11.810   1.399
51571W        W16831  18.565  30.294   0.906
51572W        W16832  10.300  18.103   0.388
51573W        W16833  16.808  37.264  13.356
51574W        W16834  15.172  40.842  13.391
51575W        W16835  10.236   4.406   3.094
51576W        W16836   8.578  15.236   0.989
51577W        W16837  43.951   3.212   3.337
51578W        W16838   6.366  39.349   4.235
51579W        W16839  37.593  18.747  13.824
51580W        W16840  25.325  24.771   3.111
51581W        W16841  31.876  21.544  14.407
51582W        W16842  11.830   5.366  10.120
51583W        W16843  21.515  34.668  11.964
51584W        W16844  25.397   7.950  11.183
51585W        W16845   9.275  42.242   3.441
51586W        W16846  23.259  40.127   0.062
51587W        W16847  18.386  27.285   2.443
51588W        W16848   7.279  19.560  13.702
51589W        W16849  40.947  40.460   0.445
51590W        W16850  42.601  24.993   0.996
51591W        W16851   5.818  28.321  14.723
51592W        W16852  33.867  16.572  12.092
51593W        W16853  21.669   5.646  13.857
51594W        W16854   5.670  24.476   2.365
51595W        W16855  12.767  20.046  12.511
51596W        W16856  23.052  27.879  10.388
51597W        W16857  36.877   4.335   0.301
51598W        W16858   2.797   3.360  13.886
51599W        W16859   9.433  44.046   3.900
51600W        W16860  27.177  39.463  11.640
51601W        W16861   2.657   7.227  13.143
51602W        W16862  27.659  13.738   0.454
51603W        W16863  20.107  30.430   4.116
51604W        W16864  26.749   3.705   4.149
51605W        W16865   7.737  21.608   4.577
51606W        W16866   4.339  20.992  10.612
51607W        W16867  42.775  19.009  11.268
51608W        W16868   0.987   0.866  14.355
51609W        W16869  39.957  38.831   1.488
51610W        W16870  18.426   0.373  14.561
51611W        W16871  12.154  21.982  13.512
51612W        W16872   6.061  28.129   4.922
51613W        W16873   5.896   0.469   3.654
51614W        W16874  26.416  41.936  11.481
51615W        W16875  38.817  19.575  14.421
51616W        W16876  31.561  33.819   0.387
51617W        W16877  11.809  40.586  14.208
51618W        W16878   1.118  24.567  14.776
51619W        W16879  12.143   5.950   0.514
51620W        W16880   1.402  44.007   3.849
51621W        W16881  19.763  30.236  13.903
51622W        W16882  19.754  20.580  10.812
51623W        W16883  34.186   9.549  14.281
51624W        W16884  19.245  23.764   1.493
51625W        W16885  25.719  15.701  12.594
51626W        W16886   9.891  14.058  14.088
51627W        W16887  11.337  30.713  13.252
51628W        W16888  12.309  26.655  11.699
51629W        W16889  34.574  17.161  12.183
51630W        W16890  35.883  23.061  13.945
51631W        W16891  20.279  11.949  12.237
51632W        W16892  11.777  11.115  11.413
51633W        W16893   4.836  31.225   1.838
51634W        W16894   4.980   4.017  11.062
51635W        W16895  18.174  42.767  10.993
51636W        W16896   3.646  10.577  12.502
51637W        W16897  14.275  24.682   1.222
51638W        W16898  28.746   3.570   2.420
51639W        W16899  33.213   6.857  13.014
51640W        W16900  37.973  20.637  13.070
51641W        W16901  27.372  33.048   4.018
51642W        W16902   5.758  40.798  14.380
51643W        W16903  32.371  36.397  11.447
51644W        W16904  32.586  43.534   4.748
51645W        W16905  29.518   8.669   2.200
51646W        W16906   9.455  34.805  11.392
51647W        W16907  38.403  28.857  10.680
51648W        W16908  16.289  43.406  10.659
51649W        W16909  11.520   7.039  12.095
51650W        W16910  37.460  11.232   4.642
51651W        W16911  40.956  15.570  13.953
51652W        W16912  37.809  27.172  11.578
51653W        W16913  39.967  20.987  14.001
51654W        W16914  44.427   8.724  12.931
51655W        W16915  21.553  29.307   0.910
51656W        W16916  27.012  35.802  14.993
51657W        W16917  41.309   7.443   0.401
51658W        W16918  11.633  39.009   4.909
51659W        W16919   7.703  39.571  11.634
51660W        W16920  17.278  39.066  14.492
51661W        W16921  30.147  11.696   0.856
51662W        W16922  31.055  23.259  13.150
51663W        W16923  16.719   0.721   1.109
51664W        W16924  11.621  40.380   4.566
51665W        W16925   2.819  30.496   1.817
51666W        W16926  22.688   4.914  14.340
51667W        W16927  17.257  16.724   1.012
51668W        W16928  14.081  15.773   1.713
51669W        W16929   3.832  37.034   3.921
51670W        W16930  44.763   2.723   2.395
51671W        W16931   2.737  11.822  13.313
51672W        W16932  26.939  11.722  11.660
51673W        W16933  30.765  22.863   2.704
51674W        W16934   2.741  14.944   3.031
51675W        W16935  44.735  24.606  10.245
51676W        W16936  35.630  28.818   4.134
51677W        W16937  24.697  29.422  13.955
51678W        W16938  36.102  37.495   0.452
51679W        W16939  30.533  12.063  12.577
51680W        W16940  19.716  37.105   3.900
51681W        W16941   0.892   3.189   0.127
51682W        W16942  16.039  30.673   2.826
51683W        W16943  23.834  16.401  14.922
51684W        W16944   8.858  10.752  11.544
51685W        W16945  17.257  27.251   3.188
51686W        W16946   7.814  28.951  14.261
51687W        W16947  22.098   2.001   3.125
51688W        W16948  14.036  11.884   4.093
51689W        W16949  19.357  28.603   2.449
51690W        W16950  18.693   0.336   2.446
51691W        W16951  32.637  27.232   0.596
51692W        W16952  12.153  41.994  10.775
51693W        W16953  10.718   2.491  13.454
51694W        W16954  22.968  27.840   4.232
51695W        W16955  41.032  41.193  14.711
51696W        W16956  44.800  31.952   1.370
51697W        W16957  12.818  27.528   1.965
51698W        W16958  22.104  32.424   4.510
51699W        W16959  18.465  13.477  13.000
51700W        W16960  22.349  42.316   3.174
51701W        W16961  35.492  36.988   1.177
51702W        W16962  14.335  17.147  11.636
51703W        W16963   3.397  17.682   0.172
51704W        W16964  20.095  30.918  13.389
51705W        W16965   3.501  18.269  12.602
51706W        W16966  23.413  42.823  10.393
51707W        W16967  19.138  30.135   3.235
51708W        W16968  22.244   1.530   1.236
51709W        W16969  19.624  41.026  11.534
51710W        W16970  21.664   0.309  10.883
51711W        W16971  28.958   8.334  14.440
51712W        W16972   3.923  11.048  12.435
51713W        W16973  27.155  36.070  13.977
51714W        W16974  17.725  31.832   1.404
51715W        W16975  19.771  26.288   3.172
51716W        W16976   1.901   1.933   2.399
51717W        W16977  13.108  11.278   0.759
51718W        W16978   5.410   3.320   0.680
51719W        W16979  10.970  24.284  12.043
51720W        W16980  18.779   3.468  12.001
51721W        W16981  30.544  27.431   2.753
51722W        W16982  21.320  26.563  13.392
51723W        W16983  30.483  17.658   0.981
51724W        W16984  36.664  14.522   4.246
51725W        W16985  26.960   7.957  12.822
51726W        W16986  19.786  17.281  13.876
51727W        W16987  25.061   2.809   0.555
51728W        W16988  28.593  38.505  12.573
51729W        W16989  28.056   0.502  12.617
51730W        W16990  37.152  43.144   1.225
51731W        W16991   9.016  10.151   2.386
51732W        W16992  35.471   6.509  11.484
51733W        W16993  17.475  29.485  13.769
51734W        W16994  39.457   7.316   0.650
51735W        W16995  44.544  38.536  11.951
51736W        W16996  40.396  14.076  10.608
51737W        W16997  30.157  44.678   2.234
51738W        W16998   1.833  25.914  14.545
51739W        W16999  27.435  22.983   1.308
51740W        W17000  41.915   1.397  10.644
51741W        W17001  37.629  13.748   1.905
51742W        W17002  28.065  26.066   3.730
51743W        W17003   7.412  11.777  11.430
51744W        W17004  12.200   2.508  10.807
51745W        W17005   1.749  36.443   0.191
51746W        W17006   7.542  41.312  14.320
51747W        W17007   0.242  16.605   4.202
51748W        W17008   1.985  44.096   0.554
51749W        W17009   2.866  17.127   2.828
51750W        W17010   8.571   8.636  13.034
51751W        W17011   3.421  12.865   0.771
51752W        W17012   3.868  23.969   0.247
51753W        W17013  23.027  11.621   2.771
51754W        W17014  39.514  27.973   2.621
51755W        W17015  17.413  10.325  14.076
51756W        W17016  21.486  11.393  10.621
51757W        W17017   2.678   9.246  13.247
51758W        W17018   7.611   8.848  14.046
51759W        W17019  40.274  43.018   4.973
51760W        W17020  37.528   3.307  14.088
51761W        W17021   6.472  21.299   3.827
51762W        W17022  26.647   1.222  11.641
51763W        W17023  25.495  15.342  13.496
51764W        W17024   6.762   5.205   1.289
51765W        W17025   0.797  29.972   0.506
51766W        W17026   0.969  17.513  14.431
51767W        W17027  30.702   0.040  13.438
51768W        W17028  18.499  18.381   4.520
51769W        W17029  17.572  28.998  13.520
51770W        W17030  26.649  11.303  11.621
51771W        W17031  27.863  43.255  12.141
51772W        W17032  25.153   7.662  13.272
51773W        W17033  24.451  42.395  14.788
51774W        W17034   1.433  18.102   3.373
51775W        W17035  41.307  15.824   2.928
51776W        W17036  12.168   4.089  14.807
51777W        W17037   9.222  37.406  12.517
51778W        W17038  17.995  11.500  14.061
51779W        W17039  11.377   9.116   3.677
51780W        W17040   9.836   3.017   0.886
51781W        W17041   8.674   4.976  10.700
51782W        W17042   1.950  25.473   4.118
51783W        W17043   4.026  10.107   4.325
51784W        W17044  10.355  15.131  10.110
51785W        W17045  40.402   2.375   3.260
51786W        W17046   1.394  11.324   1.191
51787W        W17047  34.376   0.852   2.175
51788W        W17048   5.783  14.110   0.504
51789W        W17049  20.098  19.702  14.500
51790W        W17050  22.080  10.737  10.463
51791W        W17051  23.280  42.448   3.546
51792W        W17052   0.878   5.818  11.845
51793W        W17053  33.929  19.657   1.030
51794W        W17054  39.405  40.577  12.855
51795W        W17055   0.528  25.383  13.419
51796W        W17056  38.859  23.530  14.184
51797W        W17057  26.396  31.758  14.821
51798W        W17058  43.642  41.291   2.286
51799W        W17059  10.278  38.895   2.578
51800W        W17060  14.526  15.679   0.852
51801W        W17061   0.268  29.412   4.671
51802W        W17062   8.707   2.549   1.630
51803W        W17063  21.711  33.929  11.546
51804W        W17064   2.002  29.093   3.696
51805W        W17065  36.425  33.201  11.566
51806W        W17066   1.693   0.196  14.294
51807W        W17067   6.305  26.719   4.450
51808W        W17068   8.294   4.697  13.300
51809W        W17069  14.416   9.574   3.632
51810W        W17070   7.973  28.415  11.631
51811W        W17071   6.251   8.786   4.469
51812W        W17072  32.413  13.644   2.354
51813W        W17073  25.283  31.433   4.254
51814W        W17074  37.955  29.677   4.683
51815W        W17075  10.030  39.076  12.931
51816W        W17076  37.037  43.710   0.368
51817W        W17077  11.858   2.775  12.859
51818W        W17078  30.356  10.261   0.413
51819W        W17079  18.120  11.244   0.845
51820W        W17080  40.043  11.432   4.649
51821W        W17081  37.971  17.031   1.228
51822W        W17082  30.839  12.438  13.457
51823W        W17083  13.102  38.779   2.852
51824W        W17084  21.285  18.248  13.280
51825W        W17085  32.045   7.909   1.900
51826W        W17086   0.723  21.720  13.771
51827W        W17087  14.135  10.878  13.494
51828W        W17088   3.827  25.444  14.711
51829W        W17089  35.081  34.029   1.672
51830W        W17090  37.090  33.940  14.832
51831W        W17091  17.511   6.102   1.026
51832W        W17092  17.231  26.480   1.963
51833W        W17093  20.589  20.568   1.721
51834W        W17094  31.902  35.048   2.143
51835W        W17095  31.176  36.871   4.623
51836W        W17096   8.129   3.297  11.209
51837W        W17097   2.296  24.017   0.293
51838W        W17098  31.094  12.257  13.902
51839W        W17099  44.307  11.101  11.938
51840W        W17100  18.598   1.811  11.034
51841W        W17101   3.963  25.506   1.904
51842W        W17102  26.982  11.696   3.212
51843W        W17103  20.704   8.769  11.651
51844W        W17104   4.331  20.700   3.088
51845W        W17105  23.469  28.567  12.189
51846W        W17106  43.845   7.830   2.593
51847W        W17107  13.643  37.320   1.964
51848W        W17108  22.621  21.175   4.580
51849W        W17109  23.437  41.393   4.616
51850W        W17110   3.230   6.734  11.505
51851W        W17111  28.963  12.079  14.672
51852W        W17112  11.587   3.323   1.174
51853W        W17113  39.986  16.458   2.735
51854W        W17114  12.728  14.759   0.297
51855W        W17115  16.658  37.191  10.758
51856W        W17116  41.232  44.640   1.064
51857W        W17117   9.272   4.780  12.767
51858W        W17118  19.966  38.050   2.748
51859W        W17119  15.316  10.436  13.148
51860W        W17120  29.165  21.470  14.839
51861W        W17121  14.301  10.619   2.572
51862W        W17122  33.507  10.409   4.521
51863W        W17123  25.587  23.390   1.388
51864W        W17124   8.722  11.341  14.680
51865W        W17125   3.329  28.821   4.022
51866W        W17126  31.353  39.732   1.560
51867W        W17127  10.901  38.951  13.458
51868W        W17128  17.502  37.891  13.619
51869W        W17129  29.883   6.430  13.269
51870W        W17130   9.720   8.628  12.108
51871W        W17131  25.561   2.772  14.857
51872W        W17132  15.319  31.550   0.307
51873W        W17133  44.457  29.979   0.894
51874W        W17134  28.779  38.112  14.484
51875W        W17135  13.754  20.660   4.590
51876W        W17136  22.242  17.330  12.836
51877W        W17137   4.921   2.310   4.018
51878W        W17138  35.844  34.471  11.620
51879W        W17139  33.863  30.023   1.421
51880W        W17140   8.745  34.884  14.678
51881W        W17141  11.209  15.758   2.827
51882W        W17142   6.640  37.611  13.303
51883W        W17143  22.601  26.219   0.711
51884W        W17144  26.170  31.075  10.738
51885W        W17145  15.206   8.103  11.475
51886W        W17146   0.247  28.464  13.033
51887W        W17147  42.909  40.285   3.309
51888W        W17148   2.856   1.829  10.682
51889W        W17149   3.608  26.251   9.846
51890W        W17150  16.271   2.300  10.753
51891W        W17151  39.612  34.113  11.403
51892W        W17152  38.540  37.109  12.628
51893W        W17153  30.029  22.141   0.305
51894W        W17154  24.674  39.798   2.338
51895W        W17155  39.325   4.177   1.733
51896W        W17156  43.645   7.801  12.066
51897W        W17157  33.196   0.940  10.317
51898W        W17158  21.294  28.403   1.446
51899W        W17159  32.579  32.454   2.448
51900W        W17160   7.466  31.602  14.583
51901W        W17161  12.262  41.097  12.591
51902W        W17162  11.263   6.428  14.829
51903W        W17163  35.449  34.682  10.696
51904W        W17164  23.912   3.729   2.232
51905W        W17165  43.886  18.524  10.827
51906W        W17166  41.772  25.875   0.732
51907W        W17167  35.177  36.433  14.527
51908W        W17168  39.787   6.557   0.022
51909W        W17169  10.633  19.648  13.942
51910W        W17170  40.922  20.096  14.319
51911W        W17171  35.835  32.007   3.672
51912W        W17172  16.622  32.900   1.287
51913W        W17173  38.408  26.064   0.927
51914W        W17174  23.898  42.045  13.585
51915W        W17175  34.031  35.964   1.942
51916W        W17176  35.474  18.959   0.171
51917W        W17177  35.021  26.660  10.751
51918W        W17178  35.415  27.462   0.194
51919W        W17179  34.135   2.869  11.620
51920W        W17180  41.727   7.592  13.902
51921W        W17181   3.433  29.275   4.891
51922W        W17182   1.016   8.276   3.918
51923W        W17183  15.605  21.092  12.723
51924W        W17184   6.943  30.009   3.579
51925W        W17185  11.932   4.275   4.786
51926W        W17186  32.561  44.521  10.639
51927W        W17187  32.216  42.986  12.818
51928W        W17188  22.210  36.928  13.732
51929W        W17189  10.231  41.248  13.535
51930W        W17190  40.054  33.857  11.196
51931W        W17191  40.981  12.124  12.939
51932W        W17192   8.386  32.615  11.259
51933W        W17193  36.883  21.079   0.490
51934W        W17194  33.669  19.470   0.411
51935W        W17195  36.442   5.797   3.509
51936W        W17196   1.318  23.529   4.109
51937W        W17197  21.227  13.180  14.486
51938W        W17198  37.920  27.502   2.138
51939W        W17199  27.226  15.842  14.767
51940W        W17200  35.586  36.474  14.841
51941W        W17201   3.892  10.122   3.834
51942W        W17202   2.346   1.879   0.441
51943W        W17203  10.827  13.596   1.682
51944W        W17204  27.564  16.478   3.188
51945W        W17205  36.629  44.478   9.836
51946W        W17206  21.119  37.849   0.831
51947W        W17207  39.482  24.664  11.619
51948W        W17208  17.028   0.271  14.918
51949W        W17209  41.042   3.983  13.842
51950W        W17210  43.349  27.545   1.646
51951W        W17211  13.289   1.270  10.685
51952W        W17212  26.864  26.404   4.528
51953W        W17213  20.083  26.702   3.202
51954W        W17214  31.022  14.812   2.704
51955W        W17215  44.409  19.034  10.726
51956W        W17216  24.444  24.368  13.483
51957W        W17217  32.903  44.726  11.680
51958W        W17218  13.518  27.476   4.997
51959W        W17219  29.043  29.409   1.197
51960W        W17220   6.722   6.999   0.646
51961W        W17221   8.705   6.725  10.993
51962W        W17222  12.652   6.784   2.142
51963W        W17223  38.289  43.568  11.602
51964W        W17224  38.627   5.819  14.409
51965W        W17225  12.684   0.828  13.369
51966W        W17226  20.159  35.544  14.993
51967W        W17227  23.679  33.807   1.801
51968W        W17228  16.147  34.092   1.366
51969W        W17229   1.929  18.638   2.296
51970W        W17230   7.139  23.286   1.358
51971W        W17231  23.780  30.151  13.504
51972W        W17232  29.896  33.016   4.388
51973W        W17233  17.828  43.582  12.945
51974W        W17234   1.758  22.332   4.464
51975W        W17235  22.651  31.998   2.467
51976W        W17236  20.133  19.513   3.661
51977W        W17237  38.499  27.643   3.437
51978W        W17238  21.602  32.642  10.802
51979W        W17239   4.752  43.430  12.528
51980W        W17240   9.751  16.690   4.393
51981W        W17241  20.107  29.217  13.893
51982W        W17242   8.064  32.321   5.212
51983W        W17243   6.432  37.789   1.492
51984W        W17244  34.046  31.084   2.307
51985W        W17245  15.989  40.939   2.651
51986W        W17246   8.240  10.460  13.113
51987W        W17247  11.698  30.543   0.411
51988W        W17248  25.363   9.515   0.934
51989W        W17249  34.371   5.912   4.170
51990W        W17250  27.240  27.096   0.295
51991W        W17251   1.975  37.170  11.624
51992W        W17252  21.302  42.794  14.420
51993W        W17253  11.995  41.875  14.277
51994W        W17254  33.710  30.884   1.941
51995W        W17255   6.391  44.341   3.801
51996W        W17256  44.248  37.540  13.082
51997W        W17257  24.293  16.417  10.821
51998W        W17258   1.581  12.906  14.462
51999W        W17259   2.064   5.952  14.425
52000W        W17260  33.203  34.004   2.766
52001W        W17261  17.743  38.296  11.433
52002W        W17262  11.664  11.760  14.957
52003W        W17263  20.442  28.572  11.230
52004W        W17264  23.812  37.447   1.647
52005W        W17265  30.019  24.157  11.608
52006W        W17266   6.171  42.773  12.513
52007W        W17267  31.403  36.387   3.862
52008W        W17268   9.064   8.566   0.352
52009W        W17269  39.128  33.613  14.001
52010W        W17270   7.244  11.310   2.757
52011W        W17271  39.895  17.514  11.207
52012W        W17272  24.339  24.272   1.185
52013W        W17273  12.710  35.256   3.689
52014W        W17274  28.884  44.177   4.567
52015W        W17275  11.622   0.840  14.918
52016W        W17276  42.262  22.738   3.639
52017W        W17277  31.553  40.471   3.548
52018W        W17278  24.619  38.279  14.509
52019W        W17279  37.029  27.093   3.438
52020W        W17280  38.462  28.717   4.430
52021W        W17281   6.006   4.445  12.631
52022W        W17282   6.289  19.006   3.405
52023W        W17283  12.870  20.627   4.816
52024W        W17284  35.253  12.079  11.884
52025W        W17285  23.941  28.665  12.010
52026W        W17286  35.466   9.704  10.894
52027W        W17287  11.706  27.118   1.337
52028W        W17288  10.299  39.070   3.588
52029W        W17289  13.316  35.594  12.230
52030W        W17290  10.258  28.951   4.752
52031W        W17291  34.576  19.836  13.237
52032W        W17292  36.589  30.968  11.455
52033W        W17293  36.068  16.098  11.126
52034W        W17294  17.540  32.127  14.370
52035W        W17295  18.799  30.439   4.152
52036W        W17296  19.140  20.366  11.167
52037W        W17297  22.110   1.478  14.475
52038W        W17298  19.897   7.707   9.775
52039W        W17299  44.971  12.256  10.571
52040W        W17300  21.162  12.547  13.413
52041W        W17301  36.023  42.101  12.977
52042W        W17302  32.574  14.633   1.282
52043W        W17303   7.148  30.785  10.514
52044W        W17304   5.644  14.094   1.970
52045W        W17305   9.676  18.497   3.544
52046W        W17306  21.238   9.806  14.950
52047W        W17307  31.543  23.517   0.837
52048W        W17308  44.070  43.497   0.040
52049W        W17309   5.801  42.547   3.688
52050W        W17310  15.831   0.442  12.470
52051W        W17311  29.985  36.921  14.510
52052W        W17312  21.129  42.619  10.635
52053W        W17313  41.819  10.179   4.993
52054W        W17314  32.708  28.648   4.141
52055W        W17315  21.711   4.792  14.501
52056W        W17316  28.823  19.130  12.018
52057W        W17317  20.621  13.800   3.772
52058W        W17318  19.514  22.182   1.721
52059W        W17319   4.941  11.190   2.791
52060W        W17320  13.872   8.248  13.245
52061W        W17321  12.343   0.302   3.524
52062W        W17322   2.769   4.795   3.627
52063W        W17323  10.245  22.746   3.679
52064W        W17324  12.633   1.499   4.627
52065W        W17325   4.481  31.814   0.342
52066W        W17326  13.011  32.314   4.744
52067W        W17327  42.525  33.615  12.403
52068W        W17328  23.585  38.881  11.547
52069W        W17329   3.515  13.274  12.083
52070W        W17330  30.810  33.061   1.273
52071W        W17331  43.701   8.106  13.566
52072W        W17332   2.633  16.080   4.539
52073W        W17333   3.377   8.604   3.209
52074W        W17334  42.030  20.704   3.150
52075W        W17335  15.553  12.865  14.705
52076W        W17336  13.267  42.802   3.821
52077W        W17337  30.935  13.510  13.520
52078W        W17338  12.353  37.657  11.603
52079W        W17339  42.839  38.083   4.458
52080W        W17340   9.706  17.233  14.054
52081W        W17341  34.597   8.232  11.343
52082W        W17342  29.628  31.005   3.805
52083W        W17343   1.840  36.193  11.656
52084W        W17344   6.163   9.233   2.220
52085W        W17345  15.264  27.647   4.108
52086W        W17346  33.660  36.268  12.731
52087W        W17347  39.084   6.678   2.231
52088W        W17348  42.302  16.763  13.364
52089W        W17349  28.985   0.560  12.601
52090W        W17350  43.888   0.831  10.906
52091W        W17351  42.524  32.098  14.899
52092W        W17352  26.503   3.424  14.275
52093W        W17353   0.512  35.380   1.531
52094W        W17354  33.689   4.108  10.173
52095W        W17355  31.723  24.082  10.252
52096W        W17356  24.238  44.861  13.953
52097W        W17357  28.989  25.038   4.318
52098W        W17358  26.245   9.833  14.308
52099W        W17359  38.934   4.694  11.564
52100W        W17360   5.426  37.445   0.377
52101W        W17361  24.222   8.123  12.735
52102W        W17362   7.374  31.076   2.697
52103W        W17363  41.990  10.941  12.952
52104W        W17364   5.959  21.106  11.186
52105W        W17365  11.153  40.877   0.711
52106W        W17366  19.344  13.974   2.692
52107W        W17367  10.744  27.479  14.075
52108W        W17368  17.827  38.497   0.243
52109W        W17369  39.258  21.026   2.327
52110W        W17370   2.760   6.166   1.483
52111W        W17371   0.660  26.605   0.357
52112W        W17372   2.422  29.749   0.746
52113W        W17373  21.156  29.621   0.787
52114W        W17374  37.447  25.718   2.219
52115W        W17375  22.827  14.692   1.361
52116W        W17376  14.728  39.469  13.016
52117W        W17377  11.907  26.095   4.836
52118W        W17378  17.623  34.683   2.870
52119W        W17379  43.254   7.698   0.725
52120W        W17380   8.130  17.494  11.197
52121W        W17381   6.312  22.605   1.536
52122W        W17382  43.379   5.224   3.584
52123W        W17383  17.110  42.419   4.899
52124W        W17384  13.603  15.604  14.933
52125W        W17385   7.151  35.694   3.611
52126W        W17386  38.539  22.345  11.249
52127W        W17387  40.453   7.710  14.775
52128W        W17388  43.254  30.866  14.788
52129W        W17389  16.669  17.084   4.552
52130W        W17390  14.060  38.916   1.808
52131W        W17391  35.494  30.080   3.741
52132W        W17392  23.504   8.897  13.142
52133W        W17393  42.295  10.657  14.471
52134W        W17394   1.742  23.688   9.646
52135W        W17395  39.388  40.456  11.608
52136W        W17396  44.905  42.474   4.173
52137W        W17397  41.330  19.051   1.980
52138W        W17398  36.179  29.915  13.933
52139W        W17399   7.841  23.071   4.255
52140W        W17400  25.204  41.736  13.386
52141W        W17401  16.666  19.755   2.307
52142W        W17402  10.295  12.883  12.629
52143W        W17403  29.469  18.200   4.187
52144W        W17404  20.839  13.327   3.785
52145W        W17405  12.496  25.267  12.433
52146W        W17406   4.684  36.169  13.907
52147W        W17407  25.556  12.641   1.824
52148W        W17408  12.700  35.225  12.572
52149W        W17409  39.156   7.298   3.259
52150W        W17410  15.560   4.709  13.336
52151W        W17411  16.865  11.594  11.094
52152W        W17412  30.574  15.047   0.004
52153W        W17413  43.297  41.294  14.843
52154W        W17414  27.113  37.283   4.497
52155W        W17415  30.139  26.702   1.368
52156W        W17416  16.773  27.674  13.315
52157W        W17417  18.522  22.233  10.750
52158W        W17418   8.740  39.229  12.063
52159W        W17419  25.566  14.725   1.891
52160W        W17420  34.966  21.593   2.674
52161W        W17421   0.099  23.152   2.335
52162W        W17422  27.004  38.898  13.085
52163W        W17423   6.105  31.391   2.790
52164W        W17424  35.408  32.324  12.921
52165W        W17425  21.163  26.221   1.637
52166W        W17426   6.473  39.527  12.870
52167W        W17427  38.904  11.036  13.059
52168W        W17428  17.110  27.437   4.144
52169W        W17429  16.067  42.105   3.620
52170W        W17430  14.116  33.622  12.961
52171W        W17431  32.370   7.461  12.022
52172W        W17432  44.314  26.058   0.748
52173W        W17433  33.431  10.902  14.873
52174W        W17434  39.262  41.925  13.144
52175W        W17435   2.478  36.314  14.466
52176W        W17436  43.723  13.179  11.647
52177W        W17437   8.607   7.918  14.812
52178W        W17438  11.141  12.302  11.539
52179W        W17439   7.583  18.235  14.992
52180W        W17440  35.659  12.697   2.333
52181W        W17441  14.746  44.978   3.842
52182W        W17442  25.600  14.785  12.184
52183W        W17443  10.627  27.589  10.550
52184W        W17444  26.927  18.069  12.190
52185W        W17445  31.116   2.420  14.964
52186W        W17446   3.250  34.868  13.990
52187W        W17447  18.661  35.789   1.431
52188W        W17448  16.257  43.795   4.598
52189W        W17449  10.143  14.046  14.559
52190W        W17450  38.762  23.008   2.269
52191W        W17451  39.977  30.630  12.606
52192W        W17452  31.670  33.944   1.334
52193W        W17453   9.067  25.560  14.418
52194W        W17454  27.968  28.125   0.422
52195W        W17455  12.397  33.514  11.856
52196W        W17456  34.293  26.503  10.102
52197W        W17457  36.432  23.136  10.956
52198W        W17458  17.969  15.990   3.287
52199W        W17459  16.611  23.143   3.632
52200W        W17460  34.927  44.094  11.297
52201W        W17461  26.365  17.788   0.822
52202W        W17462  44.766  27.506   2.222
52203W        W17463  11.864   9.058  14.332
52204W        W17464   8.841   1.737  14.369
52205W        W17465   6.164  43.437  10.637
52206W        W17466  26.765  23.669   0.154
52207W        W17467   0.363  42.362  12.156
52208W        W17468  30.109  36.079   4.711
52209W        W17469  12.889  32.381  11.349
52210W        W17470  37.465  43.002   2.795
52211W        W17471   5.832   5.253   1.911
52212W        W17472  14.770  22.638   1.224
52213W        W17473  41.768  34.392   1.687
52214W        W17474  13.328  41.374  11.963
52215W        W17475  13.177   7.532   2.165
52216W        W17476   1.327   7.907  14.373
52217W        W17477  36.151  25.247  11.622
52218W        W17478  31.426  16.371  11.560
52219W        W17479  41.645  34.059  12.039
52220W        W17480   8.169  39.442  14.996
52221W        W17481  13.745   3.916   1.063
52222W        W17482  34.189  43.944  13.416
52223W        W17483  40.808   4.893  12.541
52224W        W17484   5.340  40.427   1.906
52225W        W17485  37.604  22.575  12.066
52226W        W17486  23.247   6.835   0.708
52227W        W17487   1.762  26.395   1.411
52228W        W17488  40.037  27.999   1.219
52229W        W17489  13.595   8.490  12.849
52230W        W17490  20.225  27.393   3.744
52231W        W17491  24.880  22.322   5.341
52232W        W17492  13.841  29.907   2.238
52233W        W17493  10.198   6.138   0.458
52234W        W17494  21.644  39.066  14.391
52235W        W17495  17.189  30.917  14.997
52236W        W17496  16.826  38.861  14.329
52237W        W17497  23.289  22.512   1.745
52238W        W17498  15.659   2.939  12.692
52239W        W17499   6.926  35.570   1.740
52240W        W17500   2.345  40.416   4.570
52241W        W17501  41.836  16.752   4.187
52242W        W17502  25.631   3.209   2.792
52243W        W17503  12.302  27.584   3.784
52244W        W17504  17.578  26.794   4.598
52245W        W17505  34.341  16.155   3.647
52246W        W17506  44.935  14.117   4.074
52247W        W17507  32.948  13.584  13.043
52248W        W17508  20.997   5.915  14.876
52249W        W17509  37.279  33.130   1.801
52250W        W17510  31.554  31.459   1.439
52251W        W17511  20.310  31.649   2.140
52252W        W17512  19.027  14.333  10.673
52253W        W17513  28.191   3.137   2.854
52254W        W17514  12.206  19.524   0.991
52255W        W17515   1.964  29.416   0.821
52256W        W17516  30.461  14.065   2.889
52257W        W17517  21.737  38.023  13.570
52258W        W17518  10.562  21.458   4.068
52259W        W17519  23.247   3.016  14.696
52260W        W17520  26.486  19.696   2.215
52261W        W17521  43.003  21.029   4.558
52262W        W17522   4.392  26.329  10.230
52263W        W17523   7.814   8.648  12.767
52264W        W17524  14.061  30.477  11.795
52265W        W17525  13.785   6.349   0.779
52266W        W17526  34.926  41.119  13.080
52267W        W17527  30.039  26.235   4.886
52268W        W17528   4.705   9.348  11.655
52269W        W17529  44.936   4.254  14.364
52270W        W17530  27.999   5.943   4.036
52271W        W17531  11.703  24.650   3.551
52272W        W17532  17.029  10.855  14.810
52273W        W17533  17.132  40.350  12.593
52274W        W17534  34.046  17.102   2.594
52275W        W17535   7.724  16.657  12.418
52276W        W17536  30.429  34.957   3.782
52277W        W17537   5.431   5.856   3.756
52278W        W17538  22.188  44.495   1.572
52279W        W17539  10.530   9.849  11.565
52280W        W17540   3.738  17.362   1.857
52281W        W17541  23.821  19.740   4.828
52282W        W17542  34.021  26.160   0.427
52283W        W17543  19.685  41.875  12.184
52284W        W17544  28.349  20.537   1.070
52285W        W17545  26.777  32.623  12.301
52286W        W17546  42.306  26.329   2.798
52287W        W17547   6.710  18.386   2.550
52288W        W17548  31.036  36.662   3.624
52289W        W17549   8.329  27.712  14.034
52290W        W17550  40.709  11.887   4.449
52291W        W17551   3.748   2.924   4.209
52292W        W17552  22.507  11.391   0.624
52293W        W17553  42.773   6.682   1.777
52294W        W17554  41.491  31.132   4.196
52295W        W17555   0.384  29.137  13.881
52296W        W17556  10.102  13.096  12.144
52297W        W17557   1.196  41.822   0.843
52298W        W17558   0.010   8.205  14.322
52299W        W17559  27.844  28.425   3.704
52300W        W17560  36.302  41.723   3.706
52301W        W17561  14.378   8.371  14.519
52302W        W17562  23.755  39.030  14.124
52303W        W17563  17.658  29.127   2.628
52304W        W17564  15.064  43.023  13.998
52305W        W17565  24.698  31.662  10.697
52306W        W17566  14.096  42.146  13.852
52307W        W17567  30.805  10.735   4.162
52308W        W17568  14.746  22.956  14.794
52309W        W17569  32.982  32.653  11.776
52310W        W17570   6.460  11.247  10.437
52311W        W17571  37.446  23.499   4.216
52312W        W17572   2.983   8.341   3.777
52313W        W17573  29.049  41.293   0.176
52314W        W17574  43.845  10.740   0.016
52315W        W17575  31.604  15.322  13.975
52316W        W17576  40.338  24.946   2.483
52317W        W17577   1.317  12.179  14.859
52318W        W17578  29.924  25.737   2.613
52319W        W17579  36.567  36.837  14.365
52320W        W17580  26.029  26.724   0.561
52321W        W17581  31.192  41.268  14.717
52322W        W17582  20.614  44.377  14.411
52323W        W17583  22.188  38.934   1.203
52324W        W17584   0.715  12.613   1.937
52325W        W17585  25.064  10.655   0.386
52326W        W17586  29.444  44.209   0.194
52327W        W17587  19.268  12.929   1.823
52328W        W17588   9.896  36.955   1.469
52329W        W17589  36.547  41.990   0.673
52330W        W17590  31.075  29.439   4.466
52331W        W17591  37.364  31.538   0.255
52332W        W17592  30.186  13.167  13.094
52333W        W17593  35.082  41.243   4.910
52334W        W17594  43.229   8.820   1.909
52335W        W17595  41.176  41.233   4.713
52336W        W17596   8.153  18.636  13.873
52337W        W17597  26.076  36.906  14.001
52338W        W17598   7.719  43.331   1.978
52339W        W17599  23.373  16.788  14.792
52340W        W17600  35.960  22.791  11.442
52341W        W17601  42.083  39.747  11.442
52342W        W17602  26.497  41.257  12.918
52343W        W17603  38.377  42.304  12.901
52344W        W17604   0.131   9.233   4.733
52345W        W17605  37.351   5.610  11.021
52346W        W17606  21.568  31.069  12.861
52347W        W17607  29.095   1.468   2.655
52348W        W17608   6.413   8.619   4.011
52349W        W17609  38.083  31.230  14.629
52350W        W17610  22.166  37.804   0.362
52351W        W17611   2.921  31.603   3.209
52352W        W17612   8.380   8.831   3.730
52353W        W17613   6.424  40.303  14.430
52354W        W17614   9.233  13.674   1.876
52355W        W17615  44.692  25.505   0.283
52356W        W17616   0.158  16.150  14.882
52357W        W17617  39.161  44.353   2.387
52358W        W17618  44.430  34.464  13.494
52359W        W17619  14.406  25.219   4.016
52360W        W17620  11.728  16.412   3.972
52361W        W17621  20.296  31.938  10.100
52362W        W17622  36.116  14.678   1.128
52363W        W17623  12.766  39.846  10.616
52364W        W17624   4.559  24.492  11.188
52365W        W17625   9.029  24.426   0.384
52366W        W17626  38.383  35.422  10.688
52367W        W17627  13.192  11.872   3.662
52368W        W17628  38.815  16.899   3.171
52369W        W17629  18.355  33.872   4.863
52370W        W17630  36.067  33.986   4.068
52371W        W17631  36.950  20.751   1.411
52372W        W17632  29.599  38.888  11.776
52373W        W17633  16.222  42.746   2.887
52374W        W17634  39.828   6.377  11.974
52375W        W17635  15.651  19.614   0.633
52376W        W17636  19.971  13.029  12.891
52377W        W17637  26.536  20.402   4.379
52378W        W17638  32.552  33.867  14.120
52379W        W17639  23.935  14.656  11.176
52380W        W17640  22.700  21.983   2.208
52381W        W17641   9.076  15.034  11.491
52382W        W17642  20.405  33.354   1.376
52383W        W17643  29.334  40.134   0.876
52384W        W17644  24.016  16.726   2.471
52385W        W17645   2.509  22.113   1.397
52386W        W17646  25.057  34.394  12.785
52387W        W17647  30.491  40.518  13.655
52388W        W17648  30.584  28.073  13.524
52389W        W17649   7.753   9.769  10.685
52390W        W17650  43.477  22.667   4.076
52391W        W17651  17.064  39.401  12.546
52392W        W17652   3.653  32.540   2.794
52393W        W17653  44.046  28.709   0.785
52394W        W17654  24.723  44.699   0.001
52395W        W17655  14.587  10.197  10.978
52396W        W17656  10.381  23.254   0.922
52397W        W17657   3.473  34.380   4.198
52398W        W17658  11.925   3.259   4.113
52399W        W17659  15.787  34.900   3.168
52400W        W17660  24.678  17.882   0.111
52401W        W17661   9.262   8.920  12.156
52402W        W17662  10.357   5.746  12.422
52403W        W17663  26.453  15.402   5.099
52404W        W17664  36.517  10.178  10.220
52405W        W17665  38.928  23.054   0.070
52406W        W17666  26.947  34.765  13.847
52407W        W17667   5.355  40.830   2.856
52408W        W17668  40.731  13.611   1.816
52409W        W17669  24.650  31.341  12.401
52410W        W17670  18.762  19.479   0.870
52411W        W17671  30.106  32.918  13.340
52412W        W17672  14.759   1.971   2.868
52413W        W17673  14.777  34.617   0.416
52414W        W17674   2.226   6.660  11.576
52415W        W17675  22.450  34.221  12.483
52416W        W17676  38.537  29.431  11.589
52417W        W17677  15.852  38.612   3.177
52418W        W17678   7.930   6.195   0.877
52419W        W17679  40.874  22.950   5.062
52420W        W17680   2.670  37.035  12.835
52421W        W17681  23.221  41.996   3.248
52422W        W17682  17.503  36.396   0.942
52423W        W17683   4.880  21.562   3.718
52424W        W17684  17.811  26.138  13.781
52425W        W17685  25.698  33.582  10.624
52426W        W17686  39.830   5.678   0.912
52427W        W17687   3.042  12.088  12.969
52428W        W17688  23.559  19.032   2.749
52429W        W17689  17.173   9.464  14.855
52430W        W17690  15.283  25.702   1.227
52431W        W17691  31.427   7.969   0.209
52432W        W17692  28.615  10.654   3.628
52433W        W17693   8.503  15.976   0.814
52434W        W17694   3.316   7.679   0.129
52435W        W17695  19.214   1.861   0.455
52436W        W17696  38.832  19.495  13.563
52437W        W17697  11.642  43.337   0.388
52438W        W17698  30.121  21.130  13.297
52439W        W17699  31.189  40.883   0.974
52440W        W17700  16.627  32.324   2.266
52441W        W17701  15.283  13.060   4.919
52442W        W17702  13.712  30.442   2.899
52443W        W17703   5.157  29.991   0.733
52444W        W17704  43.907  43.988  12.415
52445W        W17705  42.871  31.430   5.041
52446W        W17706  15.643  17.185   4.950
52447W        W17707  31.083  13.053   0.836
52448W        W17708   0.596  23.020   2.432
52449W        W17709  40.846  22.399   3.875
52450W        W17710   2.345  12.718  10.784
52451W        W17711  40.344  37.542  11.036
52452W        W17712  15.298  17.151   3.210
52453W        W17713  25.144   1.273  12.967
52454W        W17714  44.871  13.202   1.734
52455W        W17715  43.876  31.486   4.661
52456W        W17716  18.025  41.542   3.844
52457W        W17717  34.038  36.850   2.746
52458W        W17718  30.106   4.310   4.062
52459W        W17719  19.306  38.933  14.352
52460W        W17720   5.227  27.935   4.550
52461W        W17721  27.205  40.878  13.944
52462W        W17722  19.878  40.995   0.339
52463W        W17723  44.460   6.269  13.925
52464W        W17724   1.244  27.512   1.850
52465W        W17725  23.118  33.639  13.991
52466W        W17726  17.481  34.913  13.909
52467W        W17727  24.174  42.313  10.609
52468W        W17728   3.396   9.321   1.899
52469W        W17729  42.734   4.241  10.737
52470W        W17730  44.219  17.722   2.201
52471W        W17731  10.857  25.245   3.618
52472W        W17732  33.615  31.880   0.477
52473W        W17733  41.322  39.432   4.115
52474W        W17734   4.169  32.600   2.761
52475W        W17735  20.744  19.666  12.953
52476W        W17736  38.070  30.693   3.077
52477W        W17737  28.082  20.193  11.004
52478W        W17738  37.033  13.721  12.535
52479W        W17739  34.845  10.618   3.643
52480W        W17740  35.679  18.105   1.750
52481W        W17741  35.417  17.810  13.951
52482W        W17742  29.287  12.688   4.558
52483W        W17743  15.737  10.013   1.977
52484W        W17744  39.617  42.571   0.876
52485W        W17745   8.768  34.181   0.942
52486W        W17746   2.326  13.677   2.421
52487W        W17747  21.597   7.135   2.817
52488W        W17748  13.269   3.461   3.155
52489W        W17749  13.768  17.082  10.644
52490W        W17750  25.118  11.767   0.387
52491W        W17751  33.901  18.332   2.936
52492W        W17752  34.016  18.828  14.044
52493W        W17753  44.734  44.119  14.035
52494W        W17754  19.793   3.425  13.970
52495W        W17755   7.097  10.995  11.098
52496W        W17756   1.560  23.502   3.633
52497W        W17757   5.895  37.011  13.932
52498W        W17758  14.272  37.142  13.087
52499W        W17759  26.564  23.105  13.413
52500W        W17760  37.380  40.370   3.614
52501W        W17761  33.480   4.272  10.624
52502W        W17762  11.712  15.828  13.744
52503W        W17763  23.306   1.792   0.788
52504W        W17764  26.992  31.926   2.377
52505W        W17765   7.308  14.820   0.794
52506W        W17766   1.757  35.156   0.395
52507W        W17767  41.347  26.913  12.010
52508W        W17768  25.432  43.947   2.450
52509W        W17769  20.680  42.825  10.892
52510W        W17770  11.249   7.901  13.758
52511W        W17771  37.303  15.327  11.086
52512W        W17772  43.379   1.188   1.215
52513W        W17773   3.449  21.617  13.078
52514W        W17774   0.537  26.517   2.290
52515W        W17775  26.596  13.327   0.009
52516W        W17776   9.142   8.569  11.071
52517W        W17777  11.640  15.189  12.406
52518W        W17778  19.961  41.347   1.348
52519W        W17779  43.719  31.498  14.422
52520W        W17780   7.313  26.240  13.809
52521W        W17781  38.629  32.628   3.655
52522W        W17782  15.312  32.285   3.572
52523W        W17783  31.554  44.132   1.441
52524W        W17784  14.814  17.238  14.710
52525W        W17785  26.201   6.987   2.252
52526W        W17786  20.623  36.204  10.201
52527W        W17787  13.679   2.176   4.799
52528W        W17788  15.776  32.363   4.669
52529W        W17789   3.942  24.536   1.831
52530W        W17790  43.401   2.856   1.801
52531W        W17791  30.455  37.469  12.420
52532W        W17792  44.467  42.615   2.060
52533W        W17793  18.778  35.892   3.223
52534W        W17794  34.118  35.730   3.592
52535W        W17795  22.441  28.614  10.712
52536W        W17796  15.515  32.007   2.261
52537W        W17797   6.931  41.017  13.890
52538W        W17798  37.145   8.409   1.560
52539W        W17799  36.818  27.609   3.591
52540W        W17800  44.202   2.672   3.341
52541W        W17801  44.230  44.556   2.375
52542W        W17802   2.029  35.814   3.903
52543W        W17803  13.914   7.304  12.326
52544W        W17804   5.996  44.457  11.990
52545W        W17805  31.541  12.428   1.311
52546W        W17806   6.721  30.559  13.348
52547W        W17807  44.309  31.539   4.172
52548W        W17808  41.326  16.288  13.324
52549W        W17809  39.043  28.476   1.961
52550W        W17810  33.887  39.375   1.288
52551W        W17811  16.351  26.387  11.715
52552W        W17812  31.926  19.988   1.780
52553W        W17813   5.840  43.058  11.360
52554W        W17814   0.271  27.050  14.026
52555W        W17815  38.899  33.798  10.736
52556W        W17816  13.484  22.773   4.902
52557W        W17817   7.405  28.189   2.327
52558W        W17818  33.033  20.054   0.979
52559W        W17819  25.090   8.623   4.563
52560W        W17820  31.905  27.091  13.425
52561W        W17821  42.321  28.116  13.978
52562W        W17822  42.695  22.508  13.986
52563W        W17823   0.483  16.121   1.282
52564W        W17824  37.605  20.346  14.750
52565W        W17825  41.151  25.669  10.703
52566W        W17826  35.214  42.831  13.475
52567W        W17827  30.666   8.551  11.392
52568W        W17828  24.060   8.391  13.788
52569W        W17829  26.646  25.170   4.305
52570W        W17830  28.421  37.802   2.693
52571W        W17831  40.867  11.940   4.921
52572W        W17832   0.487  31.467   4.703
52573W        W17833  43.448   7.404  10.658
52574W        W17834  26.646  13.365   2.463
52575W        W17835  43.354  11.794  12.531
52576W        W17836  12.333  35.780  13.210
52577W        W17837  33.641  12.622  11.698
52578W        W17838  24.242  16.664   4.908
52579W        W17839  38.754  17.217  11.526
52580W        W17840   6.525  38.777  11.242
52581W        W17841  40.393  10.112   1.397
52582W        W17842  32.570  37.558  10.836
52583W        W17843  30.513  26.271  14.337
52584W        W17844   4.954  12.521  10.740
52585W        W17845  42.384  33.495  14.971
52586W        W17846   6.418  33.198   3.082
52587W        W17847   6.466  38.161  13.565
52588W        W17848  33.416  43.291  14.822
52589W        W17849  10.848  41.045   1.449
52590W        W17850  32.491  41.320  12.858
52591W        W17851  11.848  31.599  11.061
52592W        W17852  16.471  21.718   4.560
52593W        W17853  25.175  44.039   5.144
52594W        W17854  12.374  11.295  14.017
52595W        W17855  40.356  41.143  12.067
52596W        W17856  20.199  24.360   0.856
52597W        W17857   4.406  34.750   1.240
52598W        W17858   1.643  17.184  12.587
52599W        W17859   6.467  24.923   1.405
52600W        W17860  33.944   0.434   4.696
52601W        W17861  36.402  23.045  11.488
52602W        W17862  21.017  31.090  14.832
52603W        W17863  19.566  44.721  12.880
52604W        W17864  38.498   8.813  10.768
52605W        W17865   2.386   1.284   4.582
52606W        W17866  18.168   8.933  13.109
52607W        W17867   1.657  15.644  10.950
52608W        W17868  22.105   5.327  13.108
52609W        W17869   9.350  14.176   4.013
52610W        W17870  43.119  17.848   4.811
52611W        W17871  24.705  39.124  13.971
52612W        W17872  24.611  42.891   3.209
52613W        W17873   1.099   3.589  10.986
52614W        W17874  21.425   0.254   4.593
52615W        W17875  32.814  12.509   4.304
52616W        W17876  19.781  37.047  14.426
52617W        W17877  18.996  36.360   2.283
52618W        W17878  42.262  12.190  13.446
52619W        W17879  31.901  34.168  11.468
52620W        W17880  41.269   5.669   3.177
52621W        W17881  24.866  41.995   2.755
52622W        W17882  11.785  18.022   1.840
52623W        W17883   9.430  15.198   4.066
52624W        W17884  37.615  31.981   3.079
52625W        W17885  22.083  16.112  13.005
52626W        W17886  43.385  27.454   2.161
52627W        W17887  30.377   6.772  14.411
52628W        W17888  30.620  31.631   2.722
52629W        W17889   2.308  20.525  14.714
52630W        W17890  23.111  14.064  13.388
52631W        W17891  34.986  30.435   2.750
52632W        W17892   2.425  19.577  13.817
52633W        W17893  43.816  42.023  13.398
52634W        W17894  18.871  16.229   0.030
52635W        W17895   9.354  25.705  10.256
52636W        W17896   7.373  36.438  14.938
52637W        W17897  24.676  10.810  13.503
52638W        W17898  40.262  31.616  10.769
52639W        W17899   3.819   2.319   4.901
52640W        W17900  32.278  25.174  13.633
52641W        W17901  21.792  18.039   4.600
52642W        W17902  33.311   5.290  13.515
52643W        W17903  41.917  41.775  13.947
52644W        W17904  43.446  10.767   4.571
52645W        W17905  14.361  21.746  14.248
52646W        W17906  17.384  29.519   2.405
52647W        W17907  12.189  23.172   0.822
52648W        W17908   9.339   8.245  12.946
52649W        W17909  20.889  33.195  13.608
52650W        W17910  26.027  42.797  12.508
52651W        W17911   0.229  25.000  14.811
52652W        W17912  43.165  43.940  13.382
52653W        W17913  19.070  17.382  10.628
52654W        W17914   1.402  12.523   2.489
52655W        W17915  33.123  44.064   2.268
52656W        W17916  40.376  10.546   4.661
52657W        W17917   9.809   8.311   3.203
52658W        W17918   2.903  44.456   2.777
52659W        W17919  28.282  32.467   4.654
52660W        W17920  39.508  25.028   2.004
52661W        W17921  28.557  36.677  11.885
52662W        W17922  42.996  37.121  14.317
52663W        W17923  25.981  16.548   2.175
52664W        W17924  10.113  36.364   3.624
52665W        W17925   5.937   2.631   0.888
52666W        W17926  32.480  33.164   4.706
52667W        W17927  13.249  33.270  13.835
52668W        W17928   7.009   7.802   3.609
52669W        W17929   1.765  14.056   4.537
52670W        W17930  13.050  38.876   3.761
52671W        W17931  37.091   0.941   4.442
52672W        W17932  28.598   6.976   3.361
52673W        W17933  23.205   2.353  10.706
52674W        W17934   3.349   0.703   2.308
52675W        W17935  10.778   1.823  14.090
52676W        W17936   7.232  14.418   5.029
52677W        W17937  40.126  23.937  13.893
52678W        W17938  37.058  43.098  12.333
52679W        W17939  14.818  15.770   0.442
52680W        W17940  40.361  21.346   1.866
52681W        W17941  34.423   4.401  10.240
52682W        W17942   8.367  24.991   3.292
52683W        W17943  25.832  37.805   0.839
52684W        W17944  10.688  20.705   1.293
52685W        W17945  41.879  10.495   4.569
52686W        W17946  11.201  43.757  11.209
52687W        W17947  35.098   5.867  12.383
52688W        W17948  25.648  26.634   1.162
52689W        W17949   5.283  32.464   2.942
52690W        W17950   3.642  20.626   3.812
52691W        W17951  26.262  29.994  14.939
52692W        W17952  44.489  14.631  11.552
52693W        W17953  28.923  43.871  13.292
52694W        W17954  25.155  43.442   2.858
52695W        W17955  19.544   5.324  11.177
52696W        W17956   4.917  42.117  11.072
52697W        W17957  42.604  31.019  11.660
52698W        W17958   3.488  30.579  11.076
52699W        W17959  22.663  41.805   4.008
52700W        W17960  32.864  23.484   0.936
52701W        W17961  18.304  35.343   0.291
52702W        W17962  27.676  43.732  14.458
52703W        W17963  43.588  19.522   2.947
52704W        W17964  10.589  44.413   2.375
52705W        W17965  20.963  30.134  12.890
52706W        W17966  15.541  43.251   2.187
52707W        W17967  33.471  19.055  10.308
52708W        W17968  40.384   3.507   0.143
52709W        W17969  42.509  43.214  11.005
52710W        W17970  40.357  30.765   4.915
52711W        W17971  43.767  33.497   3.192
52712W        W17972  13.336  14.829   3.653
52713W        W17973  20.274   5.355  12.024
52714W        W17974  39.926   8.209   2.234
52715W        W17975   6.416  17.609   4.114
52716W        W17976  20.140  11.861   1.441
52717W        W17977   9.951  29.249  12.943
52718W        W17978   9.869  11.518   0.774
52719W        W17979  31.183  14.165  12.116
52720W        W17980  20.112  43.206   1.469
52721W        W17981  37.463   6.800  11.618
52722W        W17982  27.008  33.979  10.763
52723W        W17983  18.998   9.176  13.058
52724W        W17984  41.514  34.842  13.382
52725W        W17985   0.235   8.199  11.750
52726W        W17986  40.339  38.058  10.931
52727W        W17987   1.473  23.235   2.322
52728W        W17988   6.507  13.329  12.882
52729W        W17989  40.536  15.887  13.927
52730W        W17990  25.547  31.471  12.075
52731W        W17991  25.059  35.181  11.419
52732W        W17992  36.718   7.159  14.978
52733W        W17993  18.327  31.156   4.390
52734W        W17994  22.603  38.005  14.786
52735W        W17995   0.099  41.027  11.534
52736W        W17996  29.508  30.689  12.515
52737W        W17997  30.888  20.765   2.270
52738W        W17998  24.797   4.151   0.712
52739W        W17999   6.762  31.858   0.378
52740W        W18000  33.060  38.606  11.628
52741W        W18001  40.707  17.565  14.547
52742W        W18002  30.667   4.894  12.525
52743W        W18003  21.029  31.945  13.294
52744W        W18004  27.241  34.109   1.724
52745W        W18005   0.408  28.523  13.519
52746W        W18006  11.036  41.454  10.903
52747W        W18007  16.312  31.490  10.669
52748W        W18008  17.296  25.035   2.823
52749W        W18009   5.707  18.231   1.301
52750W        W18010  35.058  27.931  12.453
52751W        W18011  28.547  27.279   1.804
52752W        W18012  19.523  23.476   4.234
52753W        W18013  36.987   0.409  13.911
52754W        W18014  42.758   1.821   1.867
52755W        W18015  23.608  13.377  14.275
52756W        W18016  20.107  22.542   3.414
52757W        W18017  39.989  24.611   4.266
52758W        W18018  37.750  31.352   1.725
52759W        W18019  19.543  14.515  12.898
52760W        W18020  23.703  36.647   0.846
52761W        W18021  16.289  17.826   1.773
52762W        W18022  17.150   6.756   4.193
52763W        W18023  35.043  28.034   4.595
52764W        W18024   5.453  25.193  11.602
52765W        W18025  34.841  17.835   3.012
52766W        W18026  18.836  34.919  13.097
52767W        W18027  21.693   8.393   5.092
52768W        W18028  29.011  22.705   3.229
52769W        W18029  31.553  29.095   1.604
52770W        W18030  42.407  27.475   0.878
52771W        W18031  13.267  15.409  10.521
52772W        W18032  17.089  20.192   0.963
52773W        W18033   6.966  13.340  10.769
52774W        W18034  31.609   3.784   4.206
52775W        W18035  32.877  21.355   2.811
52776W        W18036  20.059  39.134  13.953
52777W        W18037  19.649  40.605  10.442
52778W        W18038  18.416  10.244  11.370
52779W        W18039   1.032   1.437   4.281
52780W        W18040  22.411  23.590  10.734
52781W        W18041  36.020  25.346   1.421
52782W        W18042  35.997  31.556   2.871
52783W        W18043  19.575  28.164   3.658
52784W        W18044  23.000  16.722  14.408
52785W        W18045   4.335  24.493  12.875
52786W        W18046  32.863  32.249   0.707
52787W        W18047  22.291  27.806  11.674
52788W        W18048   8.357  28.685  13.487
52789W        W18049  13.161  29.396   5.020
52790W        W18050  24.838  33.581   3.597
52791W        W18051  12.444  42.482   2.030
52792W        W18052  39.026  28.084   4.927
52793W        W18053  22.392  24.018   3.200
52794W        W18054  40.048   2.711   4.644
52795W        W18055  12.811  13.692  13.467
52796W        W18056  38.069  39.767   0.427
52797W        W18057  22.168  15.852   4.727
52798W        W18058  16.319  39.052  14.345
52799W        W18059  34.594   8.765  13.693
52800W        W18060  26.640  28.653   4.267
52801W        W18061  36.810  40.916  10.600
52802W        W18062   1.662  32.703   1.223
52803W        W18063  30.872  22.946  11.441
52804W        W18064  31.147   3.801   0.850
52805W        W18065  11.767  40.860   4.425
52806W        W18066   0.437  18.911   4.766
52807W        W18067  12.655   5.125   0.458
52808W        W18068   9.005   7.409   4.100
52809W        W18069  20.375  41.806  11.666
52810W        W18070  12.151  44.244   4.072
52811W        W18071   1.845  41.590  12.941
52812W        W18072  18.708  14.656  14.398
52813W        W18073   9.678  16.649   1.232
52814W        W18074  35.885   8.459   1.259
52815W        W18075  13.924   8.277  12.442
52816W        W18076  11.845  22.629  10.818
52817W        W18077  28.967  26.048   4.265
52818W        W18078  44.434   9.004   3.825
52819W        W18079  23.506  27.657   3.231
52820W        W18080   6.898  26.648  14.975
52821W        W18081  26.301   4.376  11.637
52822W        W18082  10.060  44.544  12.271
52823W        W18083  17.109  12.950  14.385
52824W        W18084  41.569  30.038  11.059
52825W        W18085   0.718  29.477   1.334
52826W        W18086  35.868  32.693   3.840
52827W        W18087  29.882  29.138  13.515
52828W        W18088   4.713  42.496   1.281
52829W        W18089   0.905  30.903  10.840
52830W        W18090  34.996  23.648  10.645
52831W        W18091  32.125  34.494   0.368
52832W        W18092  22.187  40.271   1.616
52833W        W18093  43.026  33.387  12.525
52834W        W18094  15.847  25.956  10.538
52835W        W18095   8.439   2.383  13.649
52836W        W18096  23.388  18.063  13.509
52837W        W18097  16.168  25.815   4.272
52838W        W18098  36.635   1.702   0.852
52839W        W18099   4.426  41.543   1.157
52840W        W18100   8.691  38.778   2.095
52841W        W18101  21.287  33.613   3.243
52842W        W18102  38.258   9.029   1.443
52843W        W18103   9.392   8.432  14.377
52844W        W18104  44.854  21.255   1.368
52845W        W18105  43.594  41.458   3.180
52846W        W18106  15.609   0.360  12.924
52847W        W18107  40.460  29.385  11.413
52848W        W18108  10.804  12.075   0.441
52849W        W18109   9.188  20.238  10.555
52850W        W18110  12.401  29.406  14.011
52851W        W18111  44.558  33.023   3.224
52852W        W18112   8.739   7.391   1.613
52853W        W18113  43.352  29.887   0.026
52854W        W18114  14.405  35.659  10.895
52855W        W18115  34.031  35.820  13.856
52856W        W18116  28.962   7.269  13.329
52857W        W18117  33.991   0.681   0.653
52858W        W18118  18.089  35.566  14.307
52859W        W18119  34.139  24.306   0.650
52860W        W18120  44.743  17.570   4.957
52861W        W18121  13.557  16.905  11.123
52862W        W18122  33.181  40.010   2.252
52863W        W18123  12.849  38.950   0.292
52864W        W18124   1.824  34.836  13.941
52865W        W18125  28.551  41.153  14.128
52866W        W18126   2.939  26.046  12.590
52867W        W18127  41.893  41.193   4.157
52868W        W18128  18.082  17.876  13.456
52869W        W18129  37.967   8.570   1.911
52870W        W18130  36.076  13.250  11.184
52871W        W18131  27.656  40.127   1.385
52872W        W18132  21.492  43.975   1.740
52873W        W18133  34.527   7.773   2.277
52874W        W18134  40.591   5.698  14.349
52875W        W18135  40.059   3.903   5.712
52876W        W18136  21.809  37.388   1.177
52877W        W18137  17.466  19.016   5.286
52878W        W18138   2.788  28.227  10.579
52879W        W18139  19.601   6.225  13.546
52880W        W18140  16.095  29.621   2.751
52881W        W18141  31.574  39.472  13.651
52882W        W18142   9.060  44.461  11.174
52883W        W18143  13.943  35.989  14.860
52884W        W18144  19.549  39.182  12.496
52885W        W18145  19.116  32.379  10.861
52886W        W18146  29.917  43.102  11.168
52887W        W18147  34.779  33.612  13.292
52888W        W18148   1.928   9.678  11.930
52889W        W18149  27.959  21.091  12.096
52890W        W18150  19.526  32.297   4.917
52891W        W18151   3.555  29.200  14.303
52892W        W18152  24.149  17.152   4.698
52893W        W18153  43.991  15.283   3.607
52894W        W18154   6.188  37.420  14.312
52895W        W18155  33.208  20.090  12.985
52896W        W18156  37.406  33.867  13.952
52897W        W18157   8.248  37.351   4.097
52898W        W18158  32.160  37.637   3.641
52899W        W18159  44.528  31.566  11.710
52900W        W18160  19.133  37.458   2.173
52901W        W18161   8.376  44.705   4.651
52902W        W18162  42.542  30.569   3.857
52903W        W18163  37.164  43.270  11.089
52904W        W18164  36.017  22.419   5.206
52905W        W18165  11.258  37.477   0.462
52906W        W18166  16.423  37.862   4.371
52907W        W18167  26.522  27.374  14.261
52908W        W18168  28.059  23.228   3.181
52909W        W18169  21.193  30.056   3.723
52910W        W18170  30.183  13.014  11.922
52911W        W18171   8.140  31.019  10.614
52912W        W18172  12.331  22.443  10.772
52913W        W18173   4.377  44.888  12.756
52914W        W18174   8.479   7.200   0.028
52915W        W18175  23.182  24.437  12.937
52916W        W18176   7.372  33.687  14.433
52917W        W18177  39.766  25.665   4.634
52918W        W18178   1.917  10.972   2.407
52919W        W18179  44.052  23.734  10.787
52920W        W18180  38.083  32.692   1.338
52921W        W18181  36.552   2.664  11.157
52922W        W18182   6.714  33.433  12.810
52923W        W18183   4.778   2.753  11.488
52924W        W18184  18.633  33.838  12.432
52925W        W18185  35.083  27.734   3.315
52926W        W18186  27.987  17.839   5.032
52927W        W18187   4.251   8.326   3.719
52928W        W18188  22.983  22.879  13.341
52929W        W18189  40.029  34.852  12.403
52930W        W18190   0.855  13.622   0.993
52931W        W18191  21.680  34.876   1.856
52932W        W18192  27.627  10.733  11.425
52933W        W18193   1.701  10.709  14.032
52934W        W18194  27.116  23.306  12.705
52935W        W18195   2.210  13.167  10.612
52936W        W18196   0.172   6.392  14.514
52937W        W18197   1.544  11.316   2.668
52938W        W18198  30.439  24.030  13.913
52939W        W18199  30.468  22.747  14.973
52940W        W18200  12.062  15.316   1.123
52941W        W18201  20.540  10.157  14.386
52942W        W18202  36.519  24.166   2.051
52943W        W18203   8.687  15.440  11.589
52944W        W18204  33.910  26.567   0.066
52945W        W18205  10.306   4.506   4.091
52946W        W18206  35.995  23.289  11.197
52947W        W18207  19.088  16.785  14.052
52948W        W18208   6.167  25.118   2.411
52949W        W18209   1.726  20.104  14.069
52950W        W18210  42.946  24.202  13.500
52951W        W18211  28.694  44.914   1.426
52952W        W18212  26.159  44.113   3.222
52953W        W18213   4.743  31.058   3.622
52954W        W18214  36.954  18.840   1.134
52955W        W18215  17.190  13.210  12.417
52956W        W18216  16.463  27.537  11.506
52957W        W18217  13.811  12.998   0.474
52958W        W18218  21.204  43.932  12.884
52959W        W18219   5.512   2.897   4.716
52960W        W18220  37.359  42.696  12.464
52961W        W18221  10.888  41.455   4.103
52962W        W18222  14.547  30.528  13.596
52963W        W18223  30.141  35.725   3.423
52964W        W18224  16.319   8.269   4.543
52965W        W18225   4.371   4.829   2.690
52966W        W18226   7.723  32.713   1.844
52967W        W18227   5.488  13.085   1.576
52968W        W18228  14.738   2.740  12.276
52969W        W18229  39.066  30.211  14.929
52970W        W18230  41.831  31.577   0.242
52971W        W18231   2.669  10.710  10.256
52972W        W18232  29.833  15.110   3.379
52973W        W18233  28.483  23.586  14.727
52974W        W18234  20.590  31.475   0.907
52975W        W18235   7.700  14.104  11.774
52976W        W18236  43.778  33.459  13.191
52977W        W18237   1.279  12.868   4.004
52978W        W18238  25.693  21.460  14.338
52979W        W18239  35.645  18.116   4.184
52980W        W18240  32.419  24.569   5.640
52981W        W18241  44.480  28.619  12.504
52982W        W18242  13.929  40.782  14.888
52983W        W18243  33.847   7.268  14.093
52984W        W18244   3.810  27.926  11.474
52985W        W18245  24.008   4.370  13.144
52986W        W18246  32.042   5.656  14.110
52987W        W18247  24.168   9.603  14.319
52988W        W18248  35.428  42.045  11.173
52989W        W18249  42.264  34.961   3.885
52990W        W18250   2.700  21.995  12.996
52991W        W18251   7.984  24.188   0.234
52992W        W18252  26.974  40.836  14.861
52993W        W18253  26.463   9.880  12.473
52994W        W18254  12.271  40.893  13.073
52995W        W18255  42.567   0.054   4.640
52996W        W18256  38.794  19.400  12.061
52997W        W18257   9.161  13.333  11.863
52998W        W18258  34.013   0.168  14.727
52999W        W18259  26.061  43.411   3.103
53000W        W18260   8.095  14.951   1.271
53001W        W18261  41.453  16.067   4.646
53002W        W18262  32.983  13.191  11.888
53003W        W18263  20.260  21.313   4.397
53004W        W18264   6.668   6.317  11.511
53005W        W18265   4.145   9.319  13.436
53006W        W18266  21.186  32.671   2.740
53007W        W18267  44.390   4.487   0.496
53008W        W18268  36.539  15.063  10.414
53009W        W18269  31.886   5.437   3.142
53010W        W18270  21.031  12.784   1.714
53011W        W18271  40.998  35.728  11.260
53012W        W18272  38.345   7.571   4.856
53013W        W18273  42.057   5.950   3.997
53014W        W18274  20.794  32.898  14.057
53015W        W18275  33.862  20.675  14.860
53016W        W18276  32.539   1.000   2.727
53017W        W18277  38.336  15.517  14.524
53018W        W18278  21.640   0.080  12.433
53019W        W18279  36.281  12.783   3.153
53020W        W18280  37.856  28.467   0.167
53021W        W18281  42.116   2.695  12.804
53022W        W18282  10.746  39.291  11.179
53023W        W18283  21.344  35.498   5.241
53024W        W18284  27.715   6.353   4.112
53025W        W18285  29.607  35.419  10.465
53026W        W18286  30.013  14.511   2.236
53027W        W18287  11.238   9.849   1.728
53028W        W18288  36.328   8.122  13.234
53029W        W18289   0.026   7.425   2.703
53030W        W18290  30.709   0.395   0.831
53031W        W18291  18.543  26.789  13.158
53032W        W18292  40.328  31.931  12.998
53033W        W18293  18.332  33.575   2.628
53034W        W18294  23.561  44.451  13.140
53035W        W18295  24.540  14.680   1.932
53036W        W18296   8.095   2.954  10.846
53037W        W18297  20.442  36.783   4.060
53038W        W18298  38.167  12.438   0.390
53039W        W18299   7.374   7.294  14.019
53040W        W18300   3.954  26.409   0.382
53041W        W18301  37.801   5.913  13.002
53042W        W18302  34.444  11.163  11.603
53043W        W18303  18.112  23.129  12.909
53044W        W18304  31.391  11.818  11.694
53045W        W18305  16.510  30.000   1.510
53046W        W18306  12.580  23.451   2.465
53047W        W18307  12.645  28.989   2.141
53048W        W18308  11.775  33.553  12.665
53049W        W18309  40.628   4.493  11.804
53050W        W18310  13.786  22.696  12.373
53051W        W18311   0.994  13.922  12.325
53052W        W18312   5.134  18.270   0.320
53053W        W18313  10.348  40.781   4.089
53054W        W18314  24.500  25.627  14.950
53055W        W18315  24.925  32.373  11.649
53056W        W18316  26.593  13.664  11.283
53057W        W18317  18.562  44.888  10.698
53058W        W18318  27.676   2.309   0.713
53059W        W18319  37.505  39.641  10.645
53060W        W18320  13.116  19.152  12.783
53061W        W18321  12.661  23.621  14.416
53062W        W18322   0.387  27.098  13.056
53063W        W18323  19.176  20.524  10.161
53064W        W18324  29.904  10.517   0.411
53065W        W18325  20.818  22.045   0.973
53066W        W18326  40.033  15.057  11.530
53067W        W18327   4.432   0.537  13.944
53068W        W18328  32.142   9.661   4.478
53069W        W18329  16.880   6.724  12.444
53070W        W18330  41.245   8.302   0.497
53071W        W18331  25.318  31.226  11.064
53072W        W18332  43.050  31.928   1.802
53073W        W18333  23.456  34.435   3.669
53074W        W18334  30.022  16.672  13.286
53075W        W18335  23.136  26.199   2.316
53076W        W18336  26.612  11.502   0.242
53077W        W18337  42.419  41.982  10.521
53078W        W18338  27.618  38.017   1.345
53079W        W18339  33.395  13.384  12.146
53080W        W18340  22.116   8.462   0.252
53081W        W18341  28.638  42.199   0.940
53082W        W18342   6.639  39.830  14.291
53083W        W18343   3.200   9.084   3.192
53084W        W18344  11.281  14.870  13.086
53085W        W18345  26.681  41.674  11.096
53086W        W18346   4.936  37.304   0.275
53087W        W18347  34.932   8.759   3.772
53088W        W18348  10.672  15.230   1.864
53089W        W18349  26.773  21.732   1.243
53090W        W18350  37.446  40.012  12.103
53091W        W18351  22.565  31.598  10.861
53092W        W18352  17.691   0.937  14.746
53093W        W18353  16.395  38.124  13.423
53094W        W18354   0.585  43.450   0.524
53095W        W18355  32.442   9.659  10.765
53096W        W18356  29.644  17.666  12.080
53097W        W18357  10.978   9.411   1.871
53098W        W18358  34.791  41.479  12.142
53099W        W18359   4.906  42.756   2.746
53100W        W18360  28.166  25.191  10.769
53101W        W18361  25.225  23.377   2.757
53102W        W18362  38.546  31.014  13.522
53103W        W18363  31.091  21.770   2.403
53104W        W18364  19.157  27.517  10.643
53105W        W18365  22.678   1.247   1.884
53106W        W18366   5.909  15.156   3.603
53107W        W18367  25.625  23.204  13.636
53108W        W18368  42.940  10.778   0.199
53109W        W18369  28.063  41.561   1.791
53110W        W18370  16.041  12.659   0.440
53111W        W18371   5.847  33.873   0.957
53112W        W18372   9.795   7.722  14.464
53113W        W18373  19.337   3.474   3.294
53114W        W18374   1.484  42.024   4.771
53115W        W18375  20.954   2.084  11.184
53116W        W18376  44.383  20.649   0.149
53117W        W18377  14.065  19.418   3.696
53118W        W18378  34.978  40.922  10.204
53119W        W18379  26.581  15.095  13.126
53120W        W18380  30.583  18.765  13.125
53121W        W18381  27.895   6.671  14.934
53122W        W18382   0.733   7.462   4.135
53123W        W18383  21.253  14.237  12.028
53124W        W18384  17.292  40.066  14.235
53125W        W18385  14.593  26.616   3.176
53126W        W18386   5.082  16.766   2.395
53127W        W18387  43.413  15.574   2.091
53128W        W18388  38.617  38.550   0.537
53129W        W18389  33.006  28.055  14.588
53130W        W18390  38.586  43.816  14.324
53131W        W18391   1.804  12.116  13.298
53132W        W18392  14.862  14.397   3.188
53133W        W18393   9.255  19.238  14.557
53134W        W18394  15.633  13.001   3.166
53135W        W18395  42.742  27.194  13.907
53136W        W18396  13.101  16.718   2.795
53137W        W18397  38.598  40.518   3.589
53138W        W18398   3.372  13.690   2.381
53139W        W18399  32.970  20.803  11.526
53140W        W18400  32.687  13.774  10.751
53141W        W18401   0.509   0.689   4.209
53142W        W18402  24.073  10.892  14.331
53143W        W18403  37.476   3.434  12.653
53144W        W18404  37.795  18.742  14.297
53145W        W18405   9.951  22.307   3.755
53146W        W18406  34.346   5.785  12.137
53147W        W18407   7.001   4.236   0.682
53148W        W18408  24.660  21.563   3.273
53149W        W18409  42.437  11.355   0.838
53150W        W18410   9.694  33.940  14.813
53151W        W18411  38.442   9.547  13.456
53152W        W18412  36.679  10.016  11.772
53153W        W18413  38.405  25.474   2.680
53154W        W18414   8.974  40.817  13.626
53155W        W18415  34.350  11.448  13.980
53156W        W18416   2.826  15.351  10.478
53157W        W18417  29.676  28.175   0.801
53158W        W18418  17.096  10.210   3.592
53159W        W18419  14.329  37.705   2.302
53160W        W18420  26.087  37.436  12.587
53161W        W18421  25.331  39.060   2.018
53162W        W18422  16.323  21.706  12.450
53163W        W18423  34.887  43.945  12.566
53164W        W18424  20.086  23.621   1.331
53165W        W18425  43.030  36.347  14.978
53166W        W18426  40.348  27.971   3.386
53167W        W18427   2.067  21.690   4.574
53168W        W18428   4.605  31.489   2.823
53169W        W18429   3.158  30.396   1.263
53170W        W18430  33.508   5.558  11.707
53171W        W18431   9.078  37.167  11.653
53172W        W18432  26.203  33.616   3.070
53173W        W18433   4.256   2.125   1.908
53174W        W18434  41.445   1.524   3.126
53175W        W18435  41.013  38.053   3.268
53176W        W18436  25.965  20.664   3.057
53177W        W18437  24.920   6.393   3.706
53178W        W18438  17.576  11.340  11.514
53179W        W18439  11.662  31.284  11.472
53180W        W18440  29.574  19.038  14.028
53181W        W18441  44.495   0.798  12.058
53182W        W18442  15.647  32.624   4.248
53183W        W18443  10.387   7.632  13.021
53184W        W18444  31.214  10.020  12.990
53185W        W18445  15.551  19.390  13.097
53186W        W18446  20.578  10.749  12.093
53187W        W18447  40.650  14.352  11.687
53188W        W18448  31.347  39.101   0.909
53189W        W18449   4.336   1.168  13.313
53190W        W18450  27.112  21.500  14.991
53191W        W18451   2.826  17.355   0.853
53192W        W18452  29.424  31.927   1.719
53193W        W18453  31.661  21.428  14.954
53194W        W18454  43.258  21.616  14.528
53195W        W18455   5.764  26.959   2.231
53196W        W18456  27.073   2.011   2.721
53197W        W18457  19.472  13.014   1.055
53198W        W18458  23.144  43.465   0.896
53199W        W18459  11.128   6.837   1.658
53200W        W18460  40.697  33.780  12.074
53201W        W18461  30.858  36.577  12.493
53202W        W18462  19.121  30.556  11.448
53203W        W18463  31.925  15.224   4.599
53204W        W18464  38.227   4.280   0.434
53205W        W18465  31.526  12.342   2.377
53206W        W18466  40.412  43.592  10.797
53207W        W18467  27.012  44.170  14.780
53208W        W18468  18.524  16.916  11.097
53209W        W18469  27.664   8.423   4.839
53210W        W18470  18.656   4.128   2.800
53211W        W18471  35.771  29.844   1.846
53212W        W18472  11.222  37.233   3.193
53213W        W18473  23.579   9.349   4.643
53214W        W18474  24.798   5.305  13.554
53215W        W18475   7.744   0.607  14.976
53216W        W18476   5.451   4.582  12.096
53217W        W18477  30.675  17.586  13.789
53218W        W18478  14.183   2.843   1.408
53219W        W18479  31.574  43.947  11.609
53220W        W18480  35.999  39.422   3.331
53221W        W18481  11.368  41.009  14.910
53222W        W18482  34.000  11.451   0.349
53223W        W18483  27.234  23.593  11.421
53224W        W18484   8.793  22.615  13.218
53225W        W18485  31.585   4.065   0.839
53226W        W18486  21.470  10.768   2.391
53227W        W18487  33.508  32.173   2.693
53228W        W18488  21.101  36.807  12.593
53229W        W18489  17.010  42.506   3.310
53230W        W18490   6.296  31.099   0.652
53231W        W18491  10.242   3.699  12.563
53232W        W18492   1.986  13.816   1.243
53233W        W18493  10.152  24.853  13.097
53234W        W18494  15.555   7.347   2.292
53235W        W18495  13.677   9.863   0.431
53236W        W18496  36.771  40.849   3.773
53237W        W18497  25.530   8.023   4.474
53238W        W18498   9.312   4.871  14.813
53239W        W18499  35.084  33.995  13.471
53240W        W18500   1.771  25.831   1.425
53241W        W18501  38.500  31.480  14.002
53242W        W18502  39.963  17.216   3.172
53243W        W18503  38.280   5.459   0.721
53244W        W18504   4.776  10.091  11.209
53245W        W18505  42.286  22.960   2.182
53246W        W18506  12.820  11.160   2.153
53247W        W18507  21.197   4.007  10.262
53248W        W18508  40.831  19.784   4.275
53249W        W18509  11.236  33.048   1.124
53250W        W18510   7.174  18.013   1.321
53251W        W18511  19.015  37.284  13.490
53252W        W18512  38.102  29.944  13.995
53253W        W18513   0.918   7.258   2.670
53254W        W18514  36.476   8.683   5.235
53255W        W18515  40.257   0.827   2.650
53256W        W18516  17.842  27.889  12.594
53257W        W18517  30.941  13.544   0.752
53258W        W18518  27.210  14.171  14.320
53259W        W18519  37.139  16.061   2.352
53260W        W18520  33.074  32.944  11.028
53261W        W18521  25.755  29.541  10.995
53262W        W18522  18.604  13.737   4.411
53263W        W18523  29.775  21.024  12.611
53264W        W18524   0.149  14.223   1.254
53265W        W18525   9.774  14.080  12.043
53266W        W18526  26.785  13.113  12.459
53267W        W18527   8.589   9.530  12.129
53268W        W18528  26.253  40.072  14.327
53269W        W18529   5.894  11.798  14.867
53270W        W18530  19.814  44.671  11.139
53271W        W18531  26.606   0.984  12.908
53272W        W18532   2.247  25.190   2.624
53273W        W18533  19.631  41.838   3.723
53274W        W18534  24.489  28.163   3.548
53275W        W18535  26.485  14.202   2.797
53276W        W18536  19.848  44.084   2.786
53277W        W18537   7.521  41.923   4.905
53278W        W18538  10.337  33.048   0.999
53279W        W18539   2.376  33.838  14.991
53280W        W18540  24.155  29.871   2.605
53281W        W18541  36.978  36.978   2.350
53282W        W18542   1.841  18.397  13.410
53283W        W18543  22.905  34.656   2.372
53284W        W18544  13.222  41.365  14.461
53285W        W18545  16.984   2.542  11.757
53286W        W18546  19.449   8.292  12.867
53287W        W18547   8.333   1.303   1.656
53288W        W18548   3.704   2.386   1.699
53289W        W18549   2.525  41.290  10.284
53290W        W18550  30.600  44.897   2.376
53291W        W18551  14.819  42.563   1.796
53292W        W18552   3.359   9.122  10.636
53293W        W18553  10.184  27.361  11.053
53294W        W18554  15.149  23.052   1.370
53295W        W18555  28.750  10.082  14.201
53296W        W18556  25.569  12.369  11.696
53297W        W18557  37.180  32.653   1.545
53298W        W18558  25.562  13.317  14.705
53299W        W18559   4.851   4.914  12.508
53300W        W18560  33.198   0.045  13.975
53301W        W18561  11.742  28.742   3.283
53302W        W18562  15.184  41.997   2.355
53303W        W18563  37.792  27.190  12.518
53304W        W18564  11.083  21.239   0.517
53305W        W18565  12.575  29.327  14.533
53306W        W18566  35.461  27.932   1.006
53307W        W18567  22.485  18.006  10.661
53308W        W18568  44.463  30.626   1.731
53309W        W18569  12.956   5.590   3.990
53310W        W18570   3.919  24.896   4.138
53311W        W18571  10.078   9.829   1.134
53312W        W18572  42.221  22.457   2.318
53313W        W18573  25.733  43.171  13.320
53314W        W18574  20.216  28.557  13.531
53315W        W18575   7.011   6.662  12.782
53316W        W18576  24.532  19.677   2.906
53317W        W18577   7.279   2.762  12.106
53318W        W18578   7.446  34.416  13.859
53319W        W18579  35.356  11.749   4.595
53320W        W18580  43.880  14.199   4.545
53321W        W18581  43.474   7.175   4.538
53322W        W18582  10.811   7.921  13.110
53323W        W18583  12.249  28.175   1.639
53324W        W18584  16.492  16.442  11.812
53325W        W18585  43.122  38.804   2.162
53326W        W18586  42.011  34.517   3.670
53327W        W18587  34.742  17.964  12.930
53328W        W18588  12.140  36.104   1.448
53329W        W18589  15.388   3.282   0.482
53330W        W18590  38.509  32.125   3.552
53331W        W18591   1.979   1.842   2.909
53332W        W18592   7.267  21.991  11.172
53333W        W18593  30.063  25.228  13.078
53334W        W18594  34.077  24.035   1.885
53335W        W18595  40.413   3.945   0.457
53336W        W18596  16.683  16.064  11.524
53337W        W18597  15.314  44.121  13.208
53338W        W18598   0.964  16.840  11.955
53339W        W18599  22.116   7.302  14.542
53340W        W18600   0.944  39.710  12.123
53341W        W18601  23.665  36.635  13.942
53342W        W18602  35.040   0.225   3.981
53343W        W18603  28.106   9.749  14.848
53344W        W18604  10.551  11.492   4.613
53345W        W18605   0.419  42.831   1.612
53346W        W18606  27.360  20.497   4.120
53347W        W18607   9.675  44.783  12.978
53348W        W18608  25.057   3.241   3.187
53349W        W18609  10.691   5.178  12.919
53350W        W18610   4.073   6.805   4.738
53351W        W18611   6.691   8.782  10.787
53352W        W18612  10.408  19.868   3.181
53353W        W18613   3.776  33.916   1.283
53354W        W18614  14.573  36.783   4.317
53355W        W18615   3.472  26.766  13.795
53356W        W18616  16.255  27.572   2.358
53357W        W18617  22.440  43.379   1.367
53358W        W18618  12.814  12.358   1.953
53359W        W18619  21.217  30.559  11.621
53360W        W18620   4.448  25.350   1.611
53361W        W18621   2.868  42.454   4.750
53362W        W18622  28.261  37.032   0.276
53363W        W18623  29.122  39.852   3.657
53364W        W18624  43.167  37.127   5.106
53365W        W18625  36.553  34.450   4.104
53366W        W18626  21.530  17.709   0.825
53367W        W18627  27.939  11.610   4.250
53368W        W18628  25.082   2.907   5.428
53369W        W18629  15.911  13.560  14.830
53370W        W18630  17.408  25.358   4.171
53371W        W18631  41.027  41.583  13.980
53372W        W18632   2.571   2.232  13.870
53373W        W18633  24.152  33.339  13.953
53374W        W18634  44.047   0.063   1.464
53375W        W18635   4.821  28.601   4.118
53376W        W18636  27.912  11.636   0.996
53377W        W18637  29.522   5.391   3.885
53378W        W18638  41.696  41.556   3.837
53379W        W18639  12.023   1.408  11.554
53380W        W18640  14.664  27.792   1.755
53381W        W18641  44.338  25.550   0.727
53382W        W18642  15.380  31.059  11.599
53383W        W18643  26.153  26.477  12.534
53384W        W18644  13.750  41.029  13.388
53385W        W18645  11.306   5.071   1.745
53386W        W18646  15.731  41.771   2.319
53387W        W18647  10.178  12.639  11.296
53388W        W18648  12.922  41.845  14.809
53389W        W18649  10.136   3.454   0.912
53390W        W18650  12.835  40.115  11.940
53391W        W18651   3.738   9.708   1.855
53392W        W18652  36.926   1.284   0.737
53393W        W18653  15.089  22.294  13.038
53394W        W18654  37.760  32.661   3.301
53395W        W18655  27.180  41.359  11.861
53396W        W18656  24.463  16.832  11.092
53397W        W18657  43.534  31.502  12.801
53398W        W18658  38.358  16.241   0.263
53399W        W18659  11.801  12.929   4.038
53400W        W18660  27.859   8.806   2.944
53401W        W18661  36.979  31.097  14.954
53402W        W18662  15.683  29.138   2.785
53403W        W18663  38.354  12.367   4.131
53404W        W18664  27.838  19.605  13.543
53405W        W18665  39.410  38.057   4.515
53406W        W18666  12.690   6.269   2.250
53407W        W18667  30.538  18.774   3.244
53408W        W18668  35.175   9.145   4.047
53409W        W18669  32.916   0.144   3.670
53410W        W18670  23.815  24.394  14.536
53411W        W18671   5.792  20.652  12.472
53412W        W18672   3.802  42.756   4.692
53413W        W18673  43.301   8.148   0.962
53414W        W18674  27.984  34.460  11.134
53415W        W18675  44.891  27.977  13.806
53416W        W18676  37.863   3.329  14.484
53417W        W18677   6.687  36.608   4.282
53418W        W18678   4.849  28.914   1.171
53419W        W18679  31.608  19.724   4.103
53420W        W18680  15.054  29.315   0.389
53421W        W18681  29.396  25.479   4.155
53422W        W18682   6.793  39.343   1.349
53423W        W18683   4.435  29.429   4.220
53424W        W18684  27.912  42.939  14.009
53425W        W18685  11.078  16.890   1.252
53426W        W18686  22.841  20.239  14.996
53427W        W18687  22.223   0.549   4.129
53428W        W18688  35.361  34.501   1.763
53429W        W18689  14.799  37.808  12.763
53430W        W18690  20.704   9.349   4.343
53431W        W18691  36.817  18.036   3.811
53432W        W18692   6.684  18.840  13.990
53433W        W18693   8.149  12.198  11.492
53434W        W18694  38.529  39.628   3.029
53435W        W18695  27.667   9.257  14.365
53436W        W18696  37.933   1.860  13.170
53437W        W18697   4.060  17.741  13.472
53438W        W18698  36.212  43.998   0.024
53439W        W18699  23.078  14.177  12.399
53440W        W18700  11.705   1.940  14.385
53441W        W18701   4.856   7.965   1.480
53442W        W18702  23.662  24.258  13.571
53443W        W18703  30.012  25.124   0.932
53444W        W18704  29.656  29.304  11.844
53445W        W18705  29.130  13.916   2.223
53446W        W18706  40.769   0.780   4.472
53447W        W18707  25.640  36.914  14.287
53448W        W18708  18.348   8.623   1.066
53449W        W18709   7.129  41.043   0.526
53450W        W18710  13.770  37.740   4.879
53451W        W18711  39.488  30.799   4.201
53452W        W18712  10.825  19.781  11.565
53453W        W18713  23.092   2.721  11.054
53454W        W18714   9.897   6.763   2.251
53455W        W18715  13.706  23.733  11.994
53456W        W18716  13.200   8.058  14.296
53457W        W18717  24.919  19.826   3.640
53458W        W18718  39.429  13.950  13.429
53459W        W18719  13.797  39.114  12.403
53460W        W18720   1.409  17.885  11.922
53461W        W18721  29.729  42.301  12.577
53462W        W18722  35.841  10.085  10.715
53463W        W18723  19.535   1.301   2.795
53464W        W18724  36.359  16.587   0.029
53465W        W18725  30.580   8.421   0.835
53466W        W18726  21.085  12.002   5.174
53467W        W18727  27.458  25.551   2.231
53468W        W18728   6.929  38.556   2.776
53469W        W18729  34.003  13.716  14.680
53470W        W18730  38.577   9.684   4.298
53471W        W18731  17.123  31.436   2.671
53472W        W18732  40.419  21.230  13.976
53473W        W18733  44.970  37.444  12.482
53474W        W18734  23.172  16.665  13.536
53475W        W18735  28.936  42.445   4.537
53476W        W18736  25.989  36.434   9.700
53477W        W18737  34.949  20.671   1.808
53478W        W18738  13.581  28.595   3.205
53479W        W18739  14.321  26.586   0.493
53480W        W18740  31.195  34.664  11.100
53481W        W18741  21.665  32.570  11.839
53482W        W18742   2.911   7.236   2.288
53483W        W18743  11.099  11.038   5.010
53484W        W18744  34.521  33.082   0.791
53485W        W18745  25.670  38.310  14.888
53486W        W18746  39.385   0.809   1.746
53487W        W18747  42.807  16.213   1.223
53488W        W18748   9.343   4.638   3.275
53489W        W18749  30.926  21.827   3.332
53490W        W18750  12.321  30.550   0.288
53491W        W18751  30.758  24.979   2.183
53492W        W18752   9.780  21.500  12.907
53493W        W18753  36.417  41.938  12.683
53494W        W18754  41.276  38.168   4.632
53495W        W18755  20.274   6.281   3.567
53496W        W18756  28.058  37.559   0.759
53497W        W18757  15.225  35.642  12.915
53498W        W18758  38.145  22.632  12.922
53499W        W18759  10.250  18.264   1.890
53500W        W18760  13.371  23.677  10.432
53501W        W18761   2.711  22.954  12.056
53502W        W18762  21.129  17.819   1.582
53503W        W18763  14.502   8.694   3.557
53504W        W18764  33.364  23.726  13.319
53505W        W18765  36.993  24.654  10.940
53506W        W18766  17.640  40.467  13.762
53507W        W18767   8.346   1.249  10.559
53508W        W18768  41.359  39.291   2.137
53509W        W18769  25.610   9.650   4.625
53510W        W18770  17.852  29.468   3.196
53511W        W18771  19.509  40.264   2.150
53512W        W18772  39.359  34.614  12.592
53513W        W18773  24.762  22.641   4.086
53514W        W18774   7.391  23.440   3.703
53515W        W18775  17.858  24.103   0.454
53516W        W18776  15.210  15.698   3.621
53517W        W18777  36.860  30.016  14.432
53518W        W18778  24.462  33.808   3.302
53519W        W18779   0.814  27.950   1.337
53520W        W18780  21.597  37.091   5.046
53521W        W18781  34.884   9.183   0.728
53522W        W18782  11.359  33.530   4.577
53523W        W18783  39.729  40.253  13.595
53524W        W18784   6.853   2.634  14.777
53525W        W18785   3.248  12.044   0.959
53526W        W18786   9.112  38.050  10.649
53527W        W18787  28.938   9.118   1.873
53528W        W18788  27.753  28.019  11.329
53529W        W18789  44.414  24.631  14.944
53530W        W18790   8.971   7.800   1.832
53531W        W18791   2.949  23.894   4.053
53532W        W18792   9.598  35.722   3.628
53533W        W18793  11.554  38.899   0.514
53534W        W18794  24.663  35.424  14.018
53535W        W18795   2.217  42.741  11.270
53536W        W18796   1.736  18.723  14.179
53537W        W18797  21.192  32.472  10.568
53538W        W18798  26.722   5.545   5.008
53539W        W18799  31.975  14.540   0.753
53540W        W18800   7.975  17.752   4.375
53541W        W18801  35.200   2.879  10.947
53542W        W18802  28.860   6.678  13.384
53543W        W18803  19.413  35.291  13.382
53544W        W18804   7.260   6.368   1.637
53545W        W18805  30.665   2.870   2.885
53546W        W18806  35.862   7.346  13.124
53547W        W18807   1.169   3.343   4.581
53548W        W18808   4.221   2.271   3.275
53549W        W18809  32.388  43.453  10.704
53550W        W18810  27.588  31.185   2.241
53551W        W18811  27.631   5.595   3.545
53552W        W18812  22.223   6.477   4.562
53553W        W18813  16.794   5.459  14.174
53554W        W18814  33.966  34.315   2.589
53555W        W18815   8.209  14.918  13.472
53556W        W18816  42.753  41.870  14.616
53557W        W18817  40.179  40.020  14.897
53558W        W18818  20.752  29.586   3.817
53559W        W18819   6.557  44.470  14.851
53560W        W18820  39.054  24.731   2.832
53561W        W18821  23.340   6.305  14.087
53562W        W18822   5.524   3.070   3.692
53563W        W18823  15.238  32.957   2.175
53564W        W18824   4.378  13.628   3.300
53565W        W18825  30.065   7.667   1.868
53566W        W18826   1.704  18.628  11.680
53567W        W18827  14.740  44.344   3.096
53568W        W18828  15.350  18.221   2.153
53569W        W18829  30.227  36.493  14.374
53570W        W18830  35.838  21.661   1.034
53571W        W18831   0.952  11.285   0.389
53572W        W18832  35.035  29.078   2.203
53573W        W18833   8.647   9.234   2.211
53574W        W18834  19.564   8.676  14.383
53575W        W18835  33.646  22.248  11.611
53576W        W18836  39.267  16.246   0.578
53577W        W18837   1.424  11.882  13.550
53578W        W18838  10.705   4.879   3.376
53579W        W18839  44.964  15.540  11.983
53580W        W18840   1.010   2.673   4.350
53581W        W18841  40.276  44.929   3.115
53582W        W18842  12.655  30.998   1.477
53583W        W18843   5.148  16.817  10.349
53584W        W18844  42.000   7.447   1.667
53585W        W18845  39.924  38.424   1.171
53586W        W18846   8.339  41.567  12.536
53587W        W18847  11.857  35.346   0.374
53588W        W18848  20.285   7.637  12.037
53589W        W18849  16.336  43.321  14.754
53590W        W18850   8.797  10.551  13.880
53591W        W18851  36.076  21.110   2.849
53592W        W18852  33.443   6.712  13.471
53593W        W18853  30.329  16.521   3.663
53594W        W18854   1.164   4.818   3.261
53595W        W18855  10.067  41.340  10.741
53596W        W18856   9.257  26.252   3.085
53597W        W18857  36.358  17.753   1.334
53598W        W18858  30.044  44.184   2.338
53599W        W18859  30.887  21.751  11.484
53600W        W18860  37.510  15.582  14.818
53601W        W18861   8.951  12.773   3.646
53602W        W18862  34.066  41.395   3.836
53603W        W18863   4.247   9.514   4.137
53604W        W18864  35.482  38.547  12.879
53605W        W18865  16.643  13.886  11.533
53606W        W18866  43.319  42.896  11.746
53607W        W18867  20.712   1.945  11.610
53608W        W18868  12.193   2.075  14.484
53609W        W18869  15.043  15.523   4.629
53610W        W18870  17.698  24.934   0.524
53611W        W18871  15.689   6.228   1.744
53612W        W18872  33.550  22.395   3.626
53613W        W18873  21.058  12.715  12.023
53614W        W18874  34.174  20.178  13.971
53615W        W18875  23.523  35.812  14.510
53616W        W18876  38.811  11.541  13.063
53617W        W18877  26.938  37.880   3.652
53618W        W18878  13.424  40.912  14.945
53619W        W18879  19.698  10.382   2.797
53620W        W18880  43.739  34.857   4.225
53621W        W18881   2.931  33.002   2.321
53622W        W18882   2.790  29.085   0.259
53623W        W18883  43.000  10.616  13.828
53624W        W18884  28.250  17.819   2.735
53625W        W18885  13.755  40.496  11.636
53626W        W18886  37.459  15.686   2.219
53627W        W18887  27.848   4.284   4.516
53628W        W18888  36.418  20.243  10.811
53629W        W18889  10.108  11.145  12.780
53630W        W18890   8.012  41.994  13.800
53631W        W18891   6.327  42.709  10.198
53632W        W18892  31.501  21.034   2.588
53633W        W18893   5.959  32.059   4.625
53634W        W18894   5.356  29.108   4.355
53635W        W18895  42.781  24.850  10.942
53636W        W18896  11.146  11.312  13.022
53637W        W18897  34.045  18.831  12.586
53638W        W18898  20.777   4.335   0.811
53639W        W18899  29.878  39.744   0.064
53640W        W18900  26.727  27.970  11.169
53641W        W18901  43.699  20.024  13.196
53642W        W18902  38.010   2.536   4.564
53643W        W18903  19.701  40.104   2.624
53644W        W18904  31.535  16.181  10.577
53645W        W18905  19.659   3.429  10.219
53646W        W18906  43.481  37.169  13.388
53647W        W18907   6.790  17.888   3.780
53648W        W18908   3.851  26.746   4.163
53649W        W18909  39.861  15.773   0.208
53650W        W18910   4.474  34.558   3.874
53651W        W18911  10.841  35.421   2.932
53652W        W18912   6.924  42.362  13.463
53653W        W18913  30.152  37.380  12.818
53654W        W18914  26.586   4.454  14.543
53655W        W18915  22.486  10.706  11.138
53656W        W18916  26.275  13.189  12.475
53657W        W18917  13.111  27.729   3.306
53658W        W18918   0.826  44.526   4.895
53659W        W18919  43.476   1.304   0.309
53660W        W18920  34.347   7.988   4.300
53661W        W18921  29.890   2.523   3.253
53662W        W18922  29.664  18.588  14.752
53663W        W18923  18.871  12.710   3.259
53664W        W18924  43.669  44.448  12.469
53665W        W18925   8.904  16.369   0.955
53666W        W18926  10.356  18.756   2.111
53667W        W18927  44.434  10.143  14.721
53668W        W18928  25.224  13.653  14.461
53669W        W18929  11.865  39.334   2.842
53670W        W18930  33.495  11.489   5.023
53671W        W18931   9.558   2.376   0.285
53672W        W18932  10.285  16.343  12.236
53673W        W18933  12.305  10.697   2.876
53674W        W18934  35.293   4.420   2.842
53675W        W18935  23.484  41.117  11.051
53676W        W18936  29.167  12.606   3.137
53677W        W18937  32.419  16.883   0.235
53678W        W18938  10.808   0.463   0.812
53679W        W18939  39.903  30.908  10.404
53680W        W18940   2.822  28.568  10.956
53681W        W18941   2.754  12.860  10.513
53682W        W18942  18.243  14.649   0.780
53683W        W18943  13.170  27.699   1.550
53684W        W18944  26.643  21.577   0.369
53685W        W18945  11.056  44.030   1.867
53686W        W18946  14.713  22.587   3.812
53687W        W18947  25.869   6.158  10.910
53688W        W18948   3.172  19.207   4.178
53689W        W18949  23.062  28.994  10.616
53690W        W18950   2.229  26.179   3.588
53691W        W18951   7.348  15.315   0.122
53692W        W18952  21.848  24.446   2.409
53693W        W18953  20.814   5.376  13.953
53694W        W18954  29.628  13.130   2.439
53695W        W18955  12.116  13.093  14.794
53696W        W18956  23.651  38.753   1.485
53697W        W18957  14.371  15.913  14.426
53698W        W18958   7.778  30.943   2.271
53699W        W18959  21.505  44.034  13.373
53700W        W18960  44.722  24.541   4.558
53701W        W18961  41.904   5.322   0.186
53702W        W18962   5.091  29.044   0.716
53703W        W18963  43.327  12.826  13.077
53704W        W18964  18.539  38.334   3.624
53705W        W18965   7.624  23.547  10.818
53706W        W18966  24.246  11.571  12.946
53707W        W18967  13.272   4.214  10.980
53708W        W18968  41.163  13.499  12.939
53709W        W18969  23.176   0.430   1.834
53710W        W18970   2.922   2.637   2.851
53711W        W18971   1.909  43.239   2.017
53712W        W18972  19.764  33.998   0.868
53713W        W18973   7.782  29.735   2.947
53714W        W18974  15.358  26.697  10.986
53715W        W18975  24.761  21.609  14.887
53716W        W18976  28.574  34.873   1.824
53717W        W18977   3.951  13.253  14.132
53718W        W18978  15.349  11.284  12.550
53719W        W18979  43.969  17.088  10.606
53720W        W18980  16.953  33.821  10.444
53721W        W18981   2.678  24.304  13.864
53722W        W18982  34.372  35.145   4.212
53723W        W18983  23.751   8.195   4.230
53724W        W18984  41.483   0.496   4.546
53725W        W18985  26.861  27.549  10.047
53726W        W18986  32.675   0.928  13.855
53727W        W18987   0.298  15.952  12.978
53728W        W18988  16.611  35.125  13.519
53729W        W18989  20.809  20.801   4.222
53730W        W18990  29.850  24.568  10.805
53731W        W18991  19.558   4.470   5.033
53732W        W18992   9.790  20.177   1.971
53733W        W18993  18.494  33.373  11.536
53734W        W18994  11.710  32.875   1.212
53735W        W18995  24.786  35.976  14.562
53736W        W18996  34.394  17.245   3.319
53737W        W18997  27.018  19.829  10.945
53738W        W18998  14.554   0.433  11.337
53739W        W18999  29.922   5.490  14.942
53740W        W19000  44.231  25.134  11.199
53741W        W19001   4.913   6.921  10.539
53742W        W19002  11.363  10.263  10.175
53743W        W19003   0.308  41.318   1.047
53744W        W19004  27.067  42.789   3.387
53745W        W19005  40.916   6.388   4.299
53746W        W19006  11.220   5.342  12.837
53747W        W19007  21.523  37.002  14.476
53748W        W19008  20.532   7.124  14.531
53749W        W19009  12.256  40.327   0.360
53750W        W19010  22.108  37.593  14.407
53751W        W19011  15.382   9.268  14.997
53752W        W19012  14.791   1.737   4.266
53753W        W19013  35.599  40.026   1.258
53754W        W19014  42.759  24.925   3.565
53755W        W19015   1.043   4.394  12.196
53756W        W19016  17.684  13.412   2.303
53757W        W19017  42.040  42.562   0.504
53758W        W19018  35.092  41.369   0.722
53759W        W19019  12.727   6.177   3.358
53760W        W19020   7.458  42.045  12.850
53761W        W19021  40.385  27.464   2.758
53762W        W19022  39.737  32.426  13.475
53763W        W19023  32.820  27.927   2.887
53764W        W19024  20.113  14.340   2.873
53765W        W19025  41.106  24.535  12.539
53766W        W19026  18.671  32.150   1.051
53767W        W19027  40.989  25.493  14.831
53768W        W19028  19.744  32.536  13.918
53769W        W19029  33.419   2.747   2.473
53770W        W19030  41.912  22.519  11.116
53771W        W19031  11.720  23.546  14.261
53772W        W19032  27.972  33.603  14.025
53773W        W19033  32.750   4.253   3.244
53774W        W19034  41.837   1.372   3.914
53775W        W19035  42.004  28.153   3.321
53776W        W19036  11.622  13.158   4.462
53777W        W19037   4.843  39.060  14.933
53778W        W19038   1.817  19.836  11.231
53779W        W19039  35.692   2.844  11.647
53780W        W19040  23.593  12.384   0.278
53781W        W19041   9.109  39.810  10.550
53782W        W19042  23.027  35.686  13.367
53783W        W19043  25.913  11.104  12.150
53784W        W19044  19.002   6.256   0.312
53785W        W19045  40.979   7.239   3.728
53786W        W19046  24.928  32.513  13.314
53787W        W19047  17.739  25.520  12.593
53788W        W19048  15.671   2.028   3.361
53789W        W19049  42.054  43.486   0.671
53790W        W19050  29.039  37.369   0.912
53791W        W19051  42.569  25.283   2.840
53792W        W19052  20.056  21.636  13.620
53793W        W19053   8.186  12.505  13.205
53794W        W19054  24.104  44.456   3.126
53795W        W19055  39.065  44.770  14.355
53796W        W19056   8.207   7.683   4.971
53797W        W19057   7.352   6.614  14.555
53798W        W19058  30.353   0.987   2.395
53799W        W19059  37.014  20.940  14.445
53800W        W19060   1.168   4.727  10.584
53801W        W19061   6.555  21.739   4.118
53802W        W19062  31.371  24.161   5.038
53803W        W19063  43.314  10.238   3.468
53804W        W19064  26.637   3.464  11.087
53805W        W19065  31.614  20.046  11.547
53806W        W19066  10.002  20.968   3.359
53807W        W19067  14.330   6.586   4.398
53808W        W19068  20.578  25.232  13.449
53809W        W19069   1.745   2.275  13.391
53810W        W19070  34.062  36.347   2.768
53811W        W19071  11.289   3.318   4.612
53812W        W19072  16.553  12.609  12.569
53813W        W19073  25.194  20.147   1.899
53814W        W19074   5.780  32.268   0.241
53815W        W19075  33.954  36.582  13.076
53816W        W19076  23.568  35.590  14.996
53817W        W19077  31.826  32.728   4.243
53818W        W19078  40.450  13.119   2.878
53819W        W19079  40.271  12.363  14.811
53820W        W19080  16.441  33.694  13.514
53821W        W19081   0.741   3.668  11.571
53822W        W19082  13.625   3.978  13.573
53823W        W19083   1.135  15.255  13.794
53824W        W19084  44.441  37.386  12.595
53825W        W19085   8.595  32.296  14.130
53826W        W19086  44.264  14.578   3.229
53827W        W19087  18.136  34.676  13.479
53828W        W19088  44.590   9.917  14.300
53829W        W19089  44.028   6.276  14.511
53830W        W19090  14.730  16.690   2.788
53831W        W19091  10.573  31.408   4.105
53832W        W19092  44.232   3.895  10.413
53833W        W19093  39.086  15.781  10.197
53834W        W19094  22.664  34.607  12.883
53835W        W19095   3.464  11.596   1.165
53836W        W19096  43.813   0.445   4.513
53837W        W19097  22.416  41.418   4.491
53838W        W19098  15.977  41.555  14.502
53839W        W19099   1.789   9.138  12.999
53840W        W19100  44.864  40.935  14.526
53841W        W19101  27.992   4.330  12.829
53842W        W19102   6.656  12.399  11.645
53843W        W19103  41.750  24.647  13.842
53844W        W19104   1.909  16.082  10.952
53845W        W19105  36.509  21.519   3.292
53846W        W19106  26.754  37.396  10.165
53847W        W19107   8.872  30.091   2.241
53848W        W19108   8.955  44.920  11.417
53849W        W19109  29.001  18.933  11.560
53850W        W19110  38.642  22.451  12.858
53851W        W19111  39.582  35.931   4.428
53852W        W19112  40.422   9.639  13.406
53853W        W19113   1.333  34.046   3.634
53854W        W19114   6.905  37.389  11.564
53855W        W19115  33.925   0.404   2.774
53856W        W19116  17.471  12.612   2.270
53857W        W19117  11.442  24.225   3.133
53858W        W19118  35.922  23.348   4.016
53859W        W19119  37.398  26.720   2.240
53860W        W19120   3.495  39.809  13.054
53861W        W19121  29.673   2.328   1.271
53862W        W19122  23.561   2.747   2.809
53863W        W19123  11.360   1.970   1.066
53864W        W19124   6.855  29.461   2.413
53865W        W19125  22.803  11.767  12.117
53866W        W19126   3.800  17.765   4.206
53867W        W19127  11.359  40.400  14.356
53868W        W19128  31.909  42.991  13.223
53869W        W19129  26.166  27.352   1.707
53870W        W19130  29.194  23.593  11.602
53871W        W19131  22.776  28.484  13.640
53872W        W19132  15.593  43.496  11.521
53873W        W19133  25.507  44.452   0.344
53874W        W19134   9.328  43.590  13.334
53875W        W19135  42.074  32.942  12.148
53876W        W19136  10.799  14.536   4.715
53877W        W19137  44.313  42.708   0.800
53878W        W19138  34.951  40.887   3.172
53879W        W19139   1.564  41.497  10.675
53880W        W19140  43.818  43.033  11.052
53881W        W19141  39.907  25.082  10.168
53882W        W19142   5.363  26.166   1.477
53883W        W19143   2.185  29.989   2.389
53884W        W19144  42.759  39.042  11.960
53885W        W19145  17.729   2.234  11.119
53886W        W19146  19.151   7.112  13.885
53887W        W19147  32.532  44.262  12.841
53888W        W19148  15.251  15.710  13.054
53889W        W19149  21.697  29.901   2.739
53890W        W19150  22.072  20.102   3.265
53891W        W19151  19.219  15.148   0.444
53892W        W19152  17.232  14.141   2.243
53893W        W19153  25.901  38.469  14.410
53894W        W19154  29.039  34.943  14.388
53895W        W19155  25.740   4.313  14.894
53896W        W19156   6.273   4.167   3.598
53897W        W19157  35.816  13.834  10.758
53898W        W19158  40.079   0.015  14.308
53899W        W19159  44.883  23.317  14.801
53900W        W19160  22.727  22.563   0.434
53901W        W19161   5.660  17.560  11.099
53902W        W19162  32.739  28.138   0.884
53903W        W19163  37.064  44.322   5.372
53904W        W19164  31.574  26.907  14.643
53905W        W19165  39.812  18.774  14.381
53906W        W19166  25.624   4.410   1.267
53907W        W19167  21.940  17.394  12.410
53908W        W19168  43.300   6.379   4.161
53909W        W19169  36.086  30.630  13.534
53910W        W19170  44.313   5.278   4.123
53911W        W19171  34.542  27.001   2.755
53912W        W19172  42.511  44.236  13.005
53913W        W19173  34.511  15.809  10.438
53914W        W19174   9.975   9.411   0.815
53915W        W19175  41.536   7.060  12.043
53916W        W19176  26.026  24.196  11.212
53917W        W19177  22.032  13.283   2.847
53918W        W19178  30.832  21.683   4.574
53919W        W19179  15.814  42.938   0.207
53920W        W19180  16.647  12.051  14.107
53921W        W19181  23.648  37.138  12.131
53922W        W19182  42.474  20.432  10.506
53923W        W19183  20.350   4.816   5.457
53924W        W19184  30.424  17.666  12.458
53925W        W19185  10.364  43.430  14.290
53926W        W19186  26.948  44.771  12.521
53927W        W19187  12.560  32.984   0.826
53928W        W19188  12.230  32.425   2.978
53929W        W19189   9.122   3.367   3.622
53930W        W19190  19.791   5.282  12.186
53931W        W19191  26.735  28.123  13.886
53932W        W19192  34.406  11.353   2.222
53933W        W19193  22.686  20.355  11.992
53934W        W19194  17.950  33.160   0.450
53935W        W19195  18.773   9.897   0.371
53936W        W19196   5.800  28.115  10.864
53937W        W19197  31.332  33.551   1.500
53938W        W19198   5.649  21.651  13.936
53939W        W19199  40.853  23.043  13.842
53940W        W19200  15.658  35.648   3.732
53941W        W19201  16.626  34.569  13.092
53942W        W19202  37.627  20.863  14.810
53943W        W19203  12.305  10.669  12.744
53944W        W19204  39.570  33.650  12.978
53945W        W19205  30.930  32.414  10.775
53946W        W19206  22.960  44.409  13.985
53947W        W19207  35.430  18.470  12.583
53948W        W19208   4.217   5.111   3.086
53949W        W19209  13.724  13.823  12.470
53950W        W19210  19.351   9.749  11.131
53951W        W19211  39.569   7.420   2.314
53952W        W19212  44.886  15.831  13.282
53953W        W19213   7.944   4.191  14.531
53954W        W19214   0.224   9.752  13.775
53955W        W19215  21.918   6.001  14.782
53956W        W19216  15.533  26.055  13.444
53957W        W19217  19.214  27.025  13.311
53958W        W19218  24.196   0.360   4.767
53959W        W19219  31.531  42.330   2.348
53960W        W19220  31.149  44.732  13.379
53961W        W19221  10.374   3.951   3.244
53962W        W19222  11.314   9.967   0.263
53963W        W19223  33.631  32.062   1.326
53964W        W19224   4.865   6.244   1.032
53965W        W19225  22.607  38.104   0.317
53966W        W19226   3.848  26.669  13.465
53967W        W19227   0.393  14.379   0.835
53968W        W19228  43.672  32.396  12.976
53969W        W19229  17.755   1.329   2.342
53970W        W19230  44.943   8.702  14.496
53971W        W19231  34.018   4.777  14.615
53972W        W19232  23.795  43.149   2.305
53973W        W19233  11.701  41.350   3.238
53974W        W19234   7.315   0.800  11.087
53975W        W19235  31.143  17.171   3.035
53976W        W19236  17.235  39.523   0.780
53977W        W19237   0.144  27.246   4.469
53978W        W19238  17.722  24.916  13.987
53979W        W19239   1.522  23.912  14.427
53980W        W19240  18.167  40.755  13.569
53981W        W19241  41.021   6.845   4.594
53982W        W19242  37.058  36.004   4.232
53983W        W19243  35.681  23.169   4.794
53984W        W19244  13.697  18.862  11.894
53985W        W19245  40.914  39.551  13.511
53986W        W19246   3.244  17.794  14.680
53987W        W19247  20.995   3.767   0.794
53988W        W19248  39.983  21.023  14.852
53989W        W19249  41.994   5.253   4.786
53990W        W19250  38.791  28.168  11.517
53991W        W19251  19.737  38.527   2.706
53992W        W19252  30.276  18.535  11.238
53993W        W19253  38.572  42.207   4.234
53994W        W19254  34.613  35.545  10.597
53995W        W19255  41.310  43.483  10.692
53996W        W19256  21.957  39.379  14.653
53997W        W19257  40.852  44.892   1.358
53998W        W19258  26.142  28.513   4.247
53999W        W19259  42.121   3.098  11.127
54000W        W19260  40.983  36.035  10.829
54001W        W19261  33.829  24.234  14.826
54002W        W19262   0.560  33.333   4.897
54003W        W19263  16.273  11.072   2.448
54004W        W19264  17.680   7.791   0.312
54005W        W19265   5.862  22.588   3.399
54006W        W19266  28.194   9.769  11.174
54007W        W19267  19.655  44.935   1.724
54008W        W19268  10.167   1.476   2.771
54009W        W19269  13.901   6.720   4.158
54010W        W19270  27.403  42.534  12.593
54011W        W19271  21.839  33.628   1.186
54012W        W19272   6.413   5.836   1.414
54013W        W19273  40.271  31.196  14.362
54014W        W19274  21.078  16.731   4.645
54015W        W19275  13.321  32.120   2.692
54016W        W19276  25.494  16.323   1.308
54017W        W19277  31.601  12.062  14.845
54018W        W19278  21.169  11.026  10.120
54019W        W19279  12.167  24.591  12.886
54020W        W19280   9.837  23.595  11.158
54021W        W19281  42.610  23.337   2.754
54022W        W19282  20.333  40.133  14.994
54023W        W19283   0.287  40.538   2.247
54024W        W19284  11.905  39.960   4.920
54025W        W19285  32.428   0.343   3.814
54026W        W19286  35.942  40.457  12.720
54027W        W19287  39.911   0.280  10.736
54028W        W19288  30.183  23.218   2.183
54029W        W19289  39.982  19.301  11.644
54030W        W19290   0.580   9.729   1.667
54031W        W19291  23.428  24.450  10.937
54032W        W19292  34.395  42.841  14.291
54033W        W19293  43.413   8.503   4.228
54034W        W19294  12.703  41.180  11.721
54035W        W19295  21.436  35.783  11.462
54036W        W19296  22.726  15.749  13.979
54037W        W19297  24.761   7.262  13.075
54038W        W19298  17.069  29.615   3.689
54039W        W19299  18.348  22.264   0.425
54040W        W19300  14.382  17.287   0.015
54041W        W19301  25.548  11.421  13.920
54042W        W19302  32.866  15.748  11.113
54043W        W19303  22.054  30.298  12.038
54044W        W19304  29.485  23.103   2.886
54045W        W19305  25.815  14.107  13.353
54046W        W19306   9.540  19.947  13.567
54047W        W19307  33.975  12.703  12.159
54048W        W19308  14.242  30.102   0.837
54049W        W19309  14.840   4.635  10.687
54050W        W19310  22.530   4.831  12.627
54051W        W19311  23.170  40.569  11.522
54052W        W19312  19.770  28.845  13.775
54053W        W19313  30.396  16.088   0.110
54054W        W19314  40.841  12.674   2.766
54055W        W19315   8.227   8.488   1.123
54056W        W19316  24.802  34.015  11.958
54057W        W19317  15.329   5.577   0.408
54058W        W19318   5.837  38.642  11.147
54059W        W19319  44.283  43.322   3.326
54060W        W19320  27.634  30.751   0.559
54061W        W19321  31.532  24.998  14.722
54062W        W19322  16.928  22.967  11.634
54063W        W19323  15.832  30.647   0.243
54064W        W19324  43.420  14.811   5.519
54065W        W19325  28.419  38.907  10.641
54066W        W19326   0.279  10.738  14.517
54067W        W19327  12.621  18.604   1.855
54068W        W19328  28.406  40.466  12.389
54069W        W19329  39.571  29.367   3.390
54070W        W19330  15.134  43.363   0.725
54071W        W19331   7.634  13.261  12.178
54072W        W19332  32.031  15.561  11.579
54073W        W19333  26.541  13.146  12.925
54074W        W19334  12.725  21.038   1.436
54075W        W19335  22.584  28.678   1.303
54076W        W19336   8.613  18.032  13.111
54077W        W19337  24.780   9.835  13.204
54078W        W19338  42.035  24.144  11.550
54079W        W19339   5.641  30.457  14.396
54080W        W19340  36.170  33.891  10.722
54081W        W19341  30.102  31.015  14.422
54082W        W19342  22.412  26.012  11.852
54083W        W19343  29.643  21.706  14.979
54084W        W19344  13.577   0.465  14.970
54085W        W19345  36.098  39.868   4.138
54086W        W19346  42.730  11.228   1.587
54087W        W19347   4.820  37.618  11.427
54088W        W19348  20.621   1.536  12.580
54089W        W19349  38.925  24.099  11.077
54090W        W19350   3.228  12.905  10.763
54091W        W19351   8.189   4.836  12.816
54092W        W19352  21.538  33.590  12.878
54093W        W19353  29.479  19.313   3.711
54094W        W19354  32.964   5.420   2.685
54095W        W19355  36.766  22.569   1.441
54096W        W19356  24.290   4.776   1.235
54097W        W19357  27.401   2.364  13.971
54098W        W19358  32.043  32.522   4.664
54099W        W19359   8.586  11.105   4.247
54100W        W19360  11.087  11.801  11.664
54101W        W19361  19.718   5.896   0.388
54102W        W19362  19.236  36.062   0.891
54103W        W19363  23.171   1.851   4.607
54104W        W19364  16.848  16.381  10.758
54105W        W19365  44.233  35.472   1.223
54106W        W19366  33.462  25.563   2.137
54107W        W19367   2.634  14.025  13.440
54108W        W19368  21.697  26.675  12.437
54109W        W19369  32.972  32.617   3.733
54110W        W19370  15.168  37.984   0.118
54111W        W19371  21.711  44.861  12.991
54112W        W19372  38.907   9.205   0.910
54113W        W19373  23.780  24.764  11.975
54114W        W19374  42.268  15.617  10.392
54115W        W19375  37.333   2.630   1.749
54116W        W19376  24.008  11.732   2.890
54117W        W19377  16.088  10.882   1.989
54118W        W19378  14.234  28.528  14.344
54119W        W19379  22.200  22.058   3.139
54120W        W19380  33.408  37.112   3.348
54121W        W19381  43.920   3.938  11.712
54122W        W19382  10.872  32.316  14.870
54123W        W19383  22.105  11.634  11.248
54124W        W19384  37.030  33.567   1.365
54125W        W19385  19.055   8.453  14.861
54126W        W19386  14.274   2.075   0.291
54127W        W19387  10.381  42.933  10.635
54128W        W19388   7.100  18.845  11.566
54129W        W19389  11.905  16.850   0.342
54130W        W19390  43.860  18.312   4.666
54131W        W19391  25.938   0.721  14.913
54132W        W19392  31.984  38.724   4.565
54133W        W19393  33.356  28.695  10.745
54134W        W19394  34.984  40.025  14.674
54135W        W19395  21.715  11.070  14.009
54136W        W19396  28.040  18.527  13.035
54137W        W19397  36.329   0.466  12.508
54138W        W19398  19.701  32.903   0.828
54139W        W19399   2.545  35.027   2.890
54140W        W19400  12.918  39.886  13.768
54141W        W19401  10.901  19.203  13.847
54142W        W19402   6.007   7.299  11.065
54143W        W19403  13.595   5.871   1.322
54144W        W19404   7.180  23.922   3.634
54145W        W19405   7.656  33.253   3.195
54146W        W19406   3.052  40.355  11.176
54147W        W19407  30.834  17.755   1.381
54148W        W19408  25.056  25.839  11.518
54149W        W19409  36.313  13.569  10.818
54150W        W19410   2.932  34.024  10.962
54151W        W19411  44.414  20.675   2.143
54152W        W19412  14.100  39.638   0.845
54153W        W19413  41.824  21.472  13.847
54154W        W19414   1.543   4.800  12.432
54155W        W19415  42.769  25.794   0.453
54156W        W19416   2.335  23.309   2.656
54157W        W19417  31.436  11.428  14.063
54158W        W19418  40.873   1.027   0.493
54159W        W19419   3.225  31.216   4.838
54160W        W19420  42.449  35.167  11.668
54161W        W19421  27.696  39.425  11.663
54162W        W19422  36.794  11.411   0.508
54163W        W19423  23.744   7.705   4.083
54164W        W19424  37.813  38.561   1.255
54165W        W19425   9.442   1.520  13.001
54166W        W19426   3.522  12.363   4.011
54167W        W19427   8.187  11.844  14.863
54168W        W19428  38.003  31.173   2.158
54169W        W19429  43.891   1.439  12.120
54170W        W19430   2.377  17.862  13.554
54171W        W19431  24.241   3.289  12.116
54172W        W19432  41.547   6.580  12.214
54173W        W19433   7.819  21.653  13.151
54174W        W19434  38.838  33.576  11.184
54175W        W19435  24.566   9.393  11.265
54176W        W19436  33.641  13.118   4.233
54177W        W19437  26.546  16.001  12.788
54178W        W19438  25.483  39.567   2.229
54179W        W19439  26.632  32.170  10.304
54180W        W19440  17.085  30.812  14.015
54181W        W19441  29.141   4.469   4.194
54182W        W19442  26.948  19.342  10.761
54183W        W19443  33.120   3.978   4.489
54184W        W19444  40.556  38.633  12.649
54185W        W19445  38.611  33.046   3.219
54186W        W19446   5.418  42.877   0.215
54187W        W19447  13.125   8.274  12.915
54188W        W19448  16.203  36.577   3.805
54189W        W19449   2.405   0.546  11.872
54190W        W19450  33.458  26.013  13.968
54191W        W19451  25.710  33.133   1.887
54192W        W19452   4.301  39.962  10.648
54193W        W19453  22.633  17.805   3.186
54194W        W19454  10.198  18.627   0.313
54195W        W19455  36.894  10.221  13.402
54196W        W19456   9.772  23.375  11.671
54197W        W19457  33.776   3.817  10.628
54198W        W19458  21.457  24.535  11.114
54199W        W19459  12.880  17.290  12.142
54200W        W19460   7.600   8.733   2.951
54201W        W19461  23.837  12.530  12.933
54202W        W19462  11.573   5.676   4.927
54203W        W19463  19.573  28.720   0.757
54204W        W19464   7.462  18.739   3.585
54205W        W19465  38.315  17.044   3.305
54206W        W19466  30.468  11.322  12.071
54207W        W19467  43.084  36.581   4.625
54208W        W19468  37.886  43.464  10.610
54209W        W19469  12.038   7.937  13.820
54210W        W19470  27.867   4.275   3.031
54211W        W19471  26.118  14.542  13.417
54212W        W19472  23.094  31.990  14.272
54213W        W19473  14.697  34.927   4.108
54214W        W19474  17.595  31.884  10.553
54215W        W19475  41.947   1.937  11.527
54216W        W19476   6.874   5.955  13.807
54217W        W19477  38.144  41.984   1.855
54218W        W19478  35.493  25.521   4.740
54219W        W19479   1.888  11.389  12.496
54220W        W19480  11.605  40.509   1.557
54221W        W19481   5.246  32.616  13.433
54222W        W19482  14.416  32.681   3.420
54223W        W19483  17.863  41.384  13.283
54224W        W19484  12.591  25.178  14.699
54225W        W19485  18.678   0.104  12.923
54226W        W19486  29.151  22.711   4.057
54227W        W19487  31.735   1.895   2.311
54228W        W19488  12.956  14.232  10.569
54229W        W19489  16.330  35.564  13.480
54230W        W19490   0.765  36.381  13.402
54231W        W19491  28.764  15.773  12.570
54232W        W19492   5.764  17.852   4.569
54233W        W19493  40.561   3.789   0.950
54234W        W19494  23.132   5.918  11.202
54235W        W19495  34.722  42.701  14.947
54236W        W19496   3.042  29.716  13.439
54237W        W19497  31.154  15.646  14.802
54238W        W19498   2.276  44.436  10.679
54239W        W19499  39.213  37.604   4.315
54240W        W19500  25.009  44.056   9.948
54241W        W19501  18.040  41.753  11.013
54242W        W19502   1.008  23.300   1.465
54243W        W19503  14.705  13.924   1.465
54244W        W19504  43.925  30.561  11.243
54245W        W19505  42.390  13.714  12.009
54246W        W19506  38.341  11.203   1.183
54247W        W19507   4.764  22.305   0.032
54248W        W19508  11.047  13.300   2.411
54249W        W19509   1.076  36.384   1.388
54250W        W19510   1.975  37.352  12.565
54251W        W19511   0.942  35.853  14.451
54252W        W19512   4.835  13.759   0.832
54253W        W19513   8.288  34.412   1.751
54254W        W19514   1.377  16.376   2.872
54255W        W19515  16.147  15.756  14.987
54256W        W19516   6.351  32.298  12.084
54257W        W19517  16.168  18.902   3.275
54258W        W19518   1.819  35.186  11.605
54259W        W19519  15.641  41.753  12.946
54260W        W19520   3.538  33.126  12.389
54261W        W19521  24.524  40.631  14.939
54262W        W19522  10.119  16.348  14.020
54263W        W19523  22.947  40.988  12.261
54264W        W19524  26.595  14.248   9.613
54265W        W19525   2.576  43.998  10.613
54266W        W19526  36.470   5.676  10.233
54267W        W19527   6.749  24.027  14.519
54268W        W19528  14.228   9.783   4.441
54269W        W19529  19.851  41.880  11.708
54270W        W19530  41.307   1.982  14.939
54271W        W19531  21.990  28.014  11.284
54272W        W19532  14.889  41.931   0.117
54273W        W19533   2.339  35.549   2.200
54274W        W19534   8.139  24.521   4.507
54275W        W19535  27.466  27.531   0.012
54276W        W19536   6.434  18.132  11.079
54277W        W19537   7.082  23.643   4.082
54278W        W19538  42.718  37.388  12.039
54279W        W19539  39.475  29.847  14.014
54280W        W19540  26.827   6.851  12.501
54281W        W19541   8.787  24.344   2.349
54282W        W19542  36.362  37.335   3.107
54283W        W19543  39.128  16.526  11.045
54284W        W19544  15.131  17.750  10.790
54285W        W19545   1.944  19.119   3.043
54286W        W19546  36.420  44.080  12.048
54287W        W19547  38.994  34.809  11.661
54288W        W19548   1.888  23.997   4.957
54289W        W19549  36.225  10.664   3.674
54290W        W19550   3.406   0.709   1.707
54291W        W19551  24.265  43.487  11.582
54292W        W19552  23.893   6.268   0.951
54293W        W19553  16.157  44.514   3.121
54294W        W19554  41.308  40.287   1.428
54295W        W19555  40.461  11.780  12.035
54296W        W19556  27.414  14.139  12.409
54297W        W19557  32.890   2.179   0.393
54298W        W19558  32.219  19.634   4.590
54299W        W19559  15.097  20.311   3.070
54300W        W19560  27.782  24.037   0.676
54301W        W19561  34.961  40.447  14.991
54302W        W19562  13.512   7.806   5.526
54303W        W19563   4.614  31.586   3.659
54304W        W19564  19.109   2.547   4.069
54305W        W19565  26.743   0.458  11.061
54306W        W19566  28.075  14.707   3.362
54307W        W19567  43.299  16.666  10.639
54308W        W19568  35.124  15.719   4.568
54309W        W19569  11.498   9.481   2.032
54310W        W19570  19.026  24.563   0.886
54311W        W19571  44.644  23.991  13.044
54312W        W19572  42.014  32.150   1.706
54313W        W19573  36.020  26.347   1.199
54314W        W19574  36.277  41.046  11.209
54315W        W19575   6.395   7.298  12.861
54316W        W19576  27.404  21.663  14.434
54317W        W19577   6.970  29.254   2.871
54318W        W19578   8.005  44.462  12.569
54319W        W19579  33.867  10.235   3.215
54320W        W19580  22.504  27.090   2.823
54321W        W19581  25.523  32.931  13.865
54322W        W19582  17.828  13.612  14.905
54323W        W19583  41.244  38.185  12.890
54324W        W19584  25.663  21.071   2.805
54325W        W19585  13.093  39.228  12.007
54326W        W19586  39.425  27.556   1.746
54327W        W19587  32.534  29.097  13.107
54328W        W19588  29.706  37.054   1.403
54329W        W19589  40.747  37.809   1.906
54330W        W19590  10.718  40.351   3.585
54331W        W19591  35.137  26.082   5.109
54332W        W19592  20.170  12.755  14.933
54333W        W19593  23.239  25.017   1.733
54334W        W19594  39.347  13.191  10.939
54335W        W19595  32.607  35.810   2.143
54336W        W19596  16.591   1.889  10.551
54337W        W19597   6.756  34.430  12.014
54338W        W19598  30.922  35.602  11.519
54339W        W19599  42.304  22.890  11.011
54340W        W19600   8.828  36.351   4.648
54341W        W19601  32.641  32.048   0.271
54342W        W19602  33.332   4.978   4.518
54343W        W19603  32.638  18.215   3.599
54344W        W19604  14.462   9.846  10.604
54345W        W19605   5.729   4.490   0.596
54346W        W19606   9.666  28.574   4.183
54347W        W19607  31.495   4.383  12.167
54348W        W19608  15.059  22.626   1.653
54349W        W19609  19.302  23.036  14.290
54350W        W19610  23.180  24.740   4.130
54351W        W19611  25.491  37.418   2.475
54352W        W19612  34.333  30.036   4.614
54353W        W19613  21.820   3.779  14.507
54354W        W19614  44.135   8.836   4.771
54355W        W19615  25.619  28.562   0.052
54356W        W19616  25.932  42.501   2.172
54357W        W19617  37.599  17.763  14.783
54358W        W19618   4.428  31.081   2.142
54359W        W19619  11.368  20.737   5.177
54360W        W19620  38.637  44.416   3.695
54361W        W19621  21.061  40.619   0.950
54362W        W19622  27.583  36.872  12.434
54363W        W19623   3.921  24.105  14.328
54364W        W19624  29.745  12.330  11.558
54365W        W19625  43.290  16.255   4.163
54366W        W19626  14.672  16.535  11.082
54367W        W19627   9.660  40.160  12.059
54368W        W19628  28.876   1.287   0.340
54369W        W19629  22.643  42.048   1.253
54370W        W19630  22.264  36.405  12.976
54371W        W19631  16.205  31.600   3.594
54372W        W19632  34.950  42.350   0.268
54373W        W19633   2.846  35.874   2.472
54374W        W19634  26.715  23.817  10.017
54375W        W19635  28.393  16.216   0.026
54376W        W19636  21.664  12.105   3.456
54377W        W19637  42.327   0.909   1.772
54378W        W19638   9.617   0.594   1.251
54379W        W19639  14.133  26.048  11.931
54380W        W19640  39.239  41.035  13.101
54381W        W19641  41.094  28.422   4.690
54382W        W19642  25.587  14.542  13.200
54383W        W19643  43.531  34.653   1.011
54384W        W19644   1.890  33.434   0.752
54385W        W19645  15.584  43.115   0.638
54386W        W19646  17.059  14.216  10.668
54387W        W19647  32.520  42.022  10.737
54388W        W19648  36.920  34.455  14.999
54389W        W19649  33.602  31.976  12.438
54390W        W19650   0.706  20.704   4.477
54391W        W19651  10.872  27.319  12.502
54392W        W19652  44.383  30.184  10.687
54393W        W19653  10.309  20.540   0.220
54394W        W19654  38.835  25.501   2.353
54395W        W19655  26.835  40.813   1.290
54396W        W19656  39.354   9.576  13.056
54397W        W19657  22.028  17.617   0.936
54398W        W19658  13.861  41.327  12.060
54399W        W19659  20.367  25.944  13.902
54400W        W19660  20.160  38.531  12.505
54401W        W19661  15.534  22.151  12.462
54402W        W19662   6.157  31.829  10.710
54403W        W19663  29.116  29.024   3.436
54404W        W19664  28.409  30.514  13.967
54405W        W19665  35.526  33.915  14.743
54406W        W19666   1.219  29.464   0.507
54407W        W19667  17.096  35.016  11.634
54408W        W19668  41.820  26.089   3.129
54409W        W19669   7.197  24.681  14.254
54410W        W19670   0.809  10.458  13.577
54411W        W19671  14.365  37.143  13.931
54412W        W19672  43.105  30.538  12.877
54413W        W19673   0.928  39.370   0.325
54414W        W19674  36.439  39.494   4.162
54415W        W19675  39.861   3.413  11.792
54416W        W19676  31.518  10.859  14.250
54417W        W19677  43.625  13.571   5.051
54418W        W19678  28.196  37.282  13.892
54419W        W19679  44.835  43.316  12.948
54420W        W19680  15.798   1.182  13.364
54421W        W19681   4.497  14.780   1.891
54422W        W19682  34.505  29.342  10.713
54423W        W19683  29.409  23.380  12.788
54424W        W19684  24.355  32.797   2.396
54425W        W19685  10.072  29.143   1.362
54426W        W19686  26.036  11.084   1.263
54427W        W19687  26.997  30.629  11.194
54428W        W19688  32.065   0.392  13.646
54429W        W19689  19.504   3.377  11.562
54430W        W19690   8.193  29.203  13.355
54431W        W19691  13.628   0.653   0.449
54432W        W19692   4.278   4.306  12.001
54433W        W19693  16.378  21.249  11.665
54434W        W19694  13.196  26.023   9.883
54435W        W19695  37.921   8.571  14.819
54436W        W19696  42.568  38.992   2.685
54437W        W19697   6.697  43.906   2.826
54438W        W19698  15.762  21.995  12.898
54439W        W19699  20.704  20.597   0.426
54440W        W19700  18.317  36.076  14.349
54441W        W19701  19.640   9.604   3.129
54442W        W19702   6.756  22.078   0.471
54443W        W19703  36.926  38.364   1.078
54444W        W19704  37.136  23.125  12.540
54445W        W19705   9.216   3.844   3.816
54446W        W19706   0.096  32.873  13.587
54447W        W19707   1.509  11.864   0.496
54448W        W19708  40.978  29.434  12.572
54449W        W19709  35.266  26.129   4.121
54450W        W19710   1.042  18.284  13.885
54451W        W19711  10.973  37.636   4.122
54452W        W19712  19.099  14.718  13.082
54453W        W19713  42.119  20.587   2.231
54454W        W19714   5.181  19.565   3.571
54455W        W19715  20.102  17.430  12.819
54456W        W19716  23.554  42.050   4.122
54457W        W19717  10.194  18.991  11.703
54458W        W19718  40.445  39.410   4.497
54459W        W19719   2.305  31.880  11.719
54460W        W19720  40.700  27.969   3.790
54461W        W19721  12.736  22.146  12.503
54462W        W19722  21.455  38.557   3.891
54463W        W19723  41.980  15.866   9.964
54464W        W19724  35.644  42.318   2.666
54465W        W19725  40.286  30.971  12.935
54466W        W19726  38.099  21.093  12.873
54467W        W19727  25.016  15.728   3.510
54468W        W19728   3.183  41.747   0.846
54469W        W19729  11.318  44.041  12.709
54470W        W19730  26.203  33.033  12.569
54471W        W19731  27.259  23.629   0.298
54472W        W19732  20.725  25.048  11.309
54473W        W19733   0.387  39.582   4.701
54474W        W19734  13.546  43.239  14.416
54475W        W19735   5.957   2.911   3.893
54476W        W19736  27.168  30.586   4.502
54477W        W19737   2.037  26.056  11.690
54478W        W19738  17.596  29.629  10.636
54479W        W19739  39.493  40.850   2.329
54480W        W19740  37.782   7.255  13.524
54481W        W19741  23.042  31.583   3.758
54482W        W19742  43.237  33.530   3.185
54483W        W19743  14.667  11.116   3.629
54484W        W19744  21.033  33.407  11.955
54485W        W19745  20.614  17.129  13.552
54486W        W19746  15.629  43.878   4.679
54487W        W19747  30.444   7.387   2.448
54488W        W19748  17.068  10.306  12.542
54489W        W19749  12.282  11.833   3.676
54490W        W19750   5.113  43.254  11.469
54491W        W19751  43.618  39.141  12.821
54492W        W19752   3.483  29.529   2.290
54493W        W19753  32.889  24.487  11.669
54494W        W19754  30.774  34.845   0.835
54495W        W19755  30.891  20.051   1.816
54496W        W19756  34.695  25.227  10.304
54497W        W19757  36.889   3.636  10.744
54498W        W19758  13.161  37.910   4.404
54499W        W19759  39.802  41.561  10.870
54500W        W19760  11.513  17.679  11.091
54501W        W19761  35.347  11.764  10.639
54502W        W19762  38.670  24.805  11.126
54503W        W19763  10.159   4.140   4.422
54504W        W19764   9.225   7.787   2.652
54505W        W19765  29.587  25.804   3.812
54506W        W19766  37.973   5.349   4.004
54507W        W19767   5.482  38.613  12.096
54508W        W19768  15.123  44.041  13.996
54509W        W19769  18.104   4.847  14.522
54510W        W19770  10.752  36.761   0.599
54511W        W19771   5.163  33.241   2.169
54512W        W19772  24.481  30.681   9.751
54513W        W19773  27.029   3.373   2.681
54514W        W19774  31.531  32.926  12.950
54515W        W19775   0.045  42.786   0.152
54516W        W19776  27.305  23.809   2.626
54517W        W19777  19.828  16.785  11.993
54518W        W19778  35.395  25.918   2.608
54519W        W19779  13.884  38.902   3.991
54520W        W19780  41.786  30.802  10.971
54521W        W19781  13.662  33.169  14.307
54522W        W19782   5.682  44.800   0.116
54523W        W19783   1.008  30.328  13.279
54524W        W19784  26.051  42.024  11.862
54525W        W19785  37.120   5.092   4.062
54526W        W19786  32.013  35.841  13.944
54527W        W19787  34.611   9.739   4.253
54528W        W19788   5.258   2.960   3.273
54529W        W19789  19.099  14.646   0.356
54530W        W19790  29.107  15.612   2.763
54531W        W19791  31.048  20.535  14.298
54532W        W19792  37.650   9.796   3.213
54533W        W19793  16.847   8.406  10.588
54534W        W19794  34.481   7.549  12.707
54535W        W19795  38.926  13.150  14.893
54536W        W19796   7.785   5.201  12.024
54537W        W19797   8.756  44.395   2.585
54538W        W19798  34.333  21.609   1.402
54539W        W19799   0.360  23.281   2.830
54540W        W19800  24.015   6.877   5.339
54541W        W19801  18.075  28.081   4.628
54542W        W19802  37.153  31.994   4.042
54543W        W19803  41.007  40.400  14.131
54544W        W19804   9.673   7.443   2.285
54545W        W19805   0.619  41.114   0.098
54546W        W19806  35.559  13.353   0.760
54547W        W19807   6.775  12.248   3.381
54548W        W19808   2.464   7.228  11.545
54549W        W19809   2.651  24.887   2.416
54550W        W19810   7.125  11.113   1.447
54551W        W19811  34.936  42.438  10.377
54552W        W19812  20.786   0.856  13.361
54553W        W19813  27.644  12.786  14.994
54554W        W19814  19.359  40.370  14.843
54555W        W19815  19.648  10.659  10.662
54556W        W19816  31.652  27.082   0.326
54557W        W19817  42.158  38.323  14.660
54558W        W19818  19.536  30.489  12.136
54559W        W19819  15.598   2.981   2.386
54560W        W19820  25.807  27.460   0.815
54561W        W19821  35.822  38.908   4.628
54562W        W19822  29.420  39.999  13.092
54563W        W19823  41.475  41.336   0.459
54564W        W19824  29.273  14.133  13.624
54565W        W19825  32.581  17.212   4.523
54566W        W19826  41.970  28.062   1.966
54567W        W19827  33.433  12.189  13.134
54568W        W19828  25.133   3.740   1.924
54569W        W19829  44.351  35.615   2.251
54570W        W19830  12.098  31.474   3.898
54571W        W19831   9.745  30.800   4.308
54572W        W19832   5.151  24.977   2.680
54573W        W19833  17.273  20.716   2.801
54574W        W19834  12.857  14.142  12.044
54575W        W19835   4.350  24.110   3.864
54576W        W19836   6.501  41.610   3.837
54577W        W19837  18.610  27.632   3.193
54578W        W19838  42.465  40.688  13.466
54579W        W19839  35.700  38.562  14.294
54580W        W19840  16.164  11.906  14.332
54581W        W19841  32.914  21.601  12.353
54582W        W19842   0.353  38.453  13.479
54583W        W19843  44.007  24.939   3.253
54584W        W19844   1.602  40.682   0.328
54585W        W19845  36.699  36.120  11.465
54586W        W19846   4.702  33.034  10.671
54587W        W19847  20.180  44.502  10.672
54588W        W19848  22.709  23.602   3.214
54589W        W19849   9.608   8.734  12.945
54590W        W19850  43.979  30.203   0.710
54591W        W19851  28.214  37.009  14.358
54592W        W19852   0.310  40.876   3.816
54593W        W19853  44.400  35.588   5.086
54594W        W19854  23.793  16.106  11.576
54595W        W19855   2.792  38.670   1.726
54596W        W19856  21.614  24.566   1.881
54597W        W19857  26.655  39.409   4.201
54598W        W19858  16.523   1.343  11.577
54599W        W19859  31.434   4.818   2.783
54600W        W19860  25.709   8.009   0.856
54601W        W19861   8.957   7.596   3.619
54602W        W19862   8.614  35.551   4.615
54603W        W19863  19.230   0.237  11.417
54604W        W19864  29.568  26.445  11.081
54605W        W19865   4.903  37.164  13.552
54606W        W19866   1.177  28.981  13.227
54607W        W19867  30.526  27.611  10.738
54608W        W19868  23.281  41.068   0.789
54609W        W19869  33.036   0.329   0.784
54610W        W19870  21.237  14.293  11.212
54611W        W19871  24.044  20.845  12.752
54612W        W19872   2.499  26.169  14.020
54613W        W19873  44.841  16.299   1.235
54614W        W19874  18.797  10.755   4.079
54615W        W19875   5.926  32.658  13.799
54616W        W19876  22.942  33.399   2.749
54617W        W19877   3.853   9.477   0.511
54618W        W19878   6.688  33.101  13.617
54619W        W19879   3.389  41.541   2.139
54620W        W19880  24.217  38.196   4.004
54621W        W19881   4.831  35.390  13.090
54622W        W19882   7.830  38.663  12.875
54623W        W19883   5.832  27.662   2.638
54624W        W19884  29.211  32.167   2.333
54625W        W19885   4.385  41.838  10.959
54626W        W19886   6.932  31.520  14.529
54627W        W19887  30.118  35.463   1.702
54628W        W19888   4.512  43.768  10.704
54629W        W19889  38.363  17.259  13.088
54630W        W19890  44.602  17.255   2.759
54631W        W19891  16.854  14.061  12.864
54632W        W19892   3.507   4.044   3.548
54633W        W19893  20.069   0.187   1.939
54634W        W19894  23.514   7.829   4.515
54635W        W19895  35.098  19.219  11.077
54636W        W19896   9.918  34.379   4.173
54637W        W19897  25.007  19.000  11.256
54638W        W19898  28.283  32.378  12.886
54639W        W19899  36.405  14.573   2.705
54640W        W19900  26.896  30.974  12.680
54641W        W19901  25.689  17.138   0.515
54642W        W19902  27.905   3.402  12.966
54643W        W19903   2.980  38.660  13.403
54644W        W19904  20.550  43.965  14.124
54645W        W19905  40.369  12.061   4.090
54646W        W19906  36.479   6.946   2.785
54647W        W19907   8.669  35.478   2.395
54648W        W19908  23.298   4.656   1.578
54649W        W19909   0.770  31.952   1.322
54650W        W19910  36.627  11.703  11.159
54651W        W19911  18.752  27.856   0.750
54652W        W19912   5.452  12.754   0.250
54653W        W19913   7.195  29.715   4.504
54654W        W19914  11.579   6.268  11.547
54655W        W19915  29.419  16.576   2.431
54656W        W19916  20.975   0.379   5.053
54657W        W19917   8.207  16.774  10.759
54658W        W19918  36.506  13.265  12.144
54659W        W19919   1.811  39.860   1.317
54660W        W19920  27.187  29.242  10.088
54661W        W19921  32.503  35.585   0.780
54662W        W19922  15.165  31.981  11.851
54663W        W19923  32.746  26.189   2.283
54664W        W19924  21.209  22.439   4.585
54665W        W19925  37.396   0.470   3.361
54666W        W19926  31.987  31.179   1.567
54667W        W19927  39.928  33.608   1.595
54668W        W19928   9.728   0.497  14.080
54669W        W19929  19.722  30.584   3.036
54670W        W19930  39.938  43.406   3.282
54671W        W19931  15.220  27.234  13.120
54672W        W19932  34.820   7.211   0.136
54673W        W19933  16.252  12.798   5.196
54674W        W19934  43.108  37.420   0.548
54675W        W19935   4.420   2.032   2.849
54676W        W19936  42.914  28.016   4.676
54677W        W19937  32.149   6.265   3.116
54678W        W19938   1.972  11.215  11.149
54679W        W19939  25.964  17.229   4.644
54680W        W19940   8.592  24.080  12.133
54681W        W19941  34.951  35.986   3.713
54682W        W19942  39.099  24.157   3.711
54683W        W19943  40.939  39.965  13.839
54684W        W19944  25.325  23.724   2.367
54685W        W19945  21.651  10.128  12.331
54686W        W19946  42.935  26.724  13.929
54687W        W19947  27.958  22.447  11.909
54688W        W19948  29.859   8.594   4.999
54689W        W19949  28.127  27.596   4.029
54690W        W19950  20.560   9.712  14.134
54691W        W19951   8.598  38.883  12.436
54692W        W19952  33.890  38.071   0.407
54693W        W19953   9.250  25.444   0.341
54694W        W19954  12.590  19.722   0.679
54695W        W19955  15.616  29.572   3.952
54696W        W19956  22.797  11.112   0.282
54697W        W19957  22.204  15.620  10.777
54698W        W19958  11.822  34.904   2.185
54699W        W19959  17.094  17.621   3.197
54700W        W19960   9.766  18.117   0.869
54701W        W19961  29.055  40.715  10.769
54702W        W19962  20.169  38.397   0.321
54703W        W19963  36.061  27.718   3.764
54704W        W19964  41.088   9.422  12.144
54705W        W19965   8.260  40.349  13.988
54706W        W19966  38.005  26.077  11.008
54707W        W19967  13.467  16.796  12.650
54708W        W19968  14.673   4.138   3.231
54709W        W19969  19.712  41.108  14.458
54710W        W19970  33.239   9.347  13.384
54711W        W19971  15.226  41.108   0.248
54712W        W19972  20.284  34.592   4.569
54713W        W19973   3.931  13.092  10.710
54714W        W19974  34.880  33.530   1.892
54715W        W19975  32.075   7.340   3.804
54716W        W19976  43.500   4.420  12.955
54717W        W19977  22.726  33.382  12.510
54718W        W19978   6.353   4.546   3.258
54719W        W19979  23.532  34.489   0.215
54720W        W19980  17.510   6.655   3.192
54721W        W19981  34.646  31.139  11.897
54722W        W19982   7.777  12.563  13.541
54723W        W19983  43.971  27.634   1.393
54724W        W19984  38.803  36.178   1.881
54725W        W19985  11.085  31.979  12.390
54726W        W19986  19.931  44.076  10.863
54727W        W19987  27.190  42.387   0.160
54728W        W19988  38.873  10.160  12.068
54729W        W19989   8.386  35.746   1.677
54730W        W19990  24.086   8.848  10.167
54731W        W19991  16.057  40.011   4.649
54732W        W19992  33.954  40.518   2.732
54733W        W19993  29.704  20.791   0.637
54734W        W19994  13.831   4.790  11.510
54735W        W19995  30.304   1.488   4.188
54736W        W19996  28.072   2.955   2.340
54737W        W19997  28.663  40.033   3.497
54738W        W19998  13.178   1.690  10.324
54739W        W19999  19.448  40.066  12.554
54740W        W20000  40.354  24.612   0.885
54741W        W20001   1.211   1.877   1.297
54742W        W20002  15.146  16.183   0.478
54743W        W20003   4.699   0.933  14.133
54744W        W20004  31.137  28.886   1.357
54745W        W20005  36.957  28.161   2.395
54746W        W20006  35.415  30.099  14.515
54747W        W20007  43.841  40.771   2.273
54748W        W20008  25.167  23.923  11.122
54749W        W20009  38.373  14.831  12.005
54750W        W20010  25.113  11.745  12.064
54751W        W20011  39.239  21.973   3.598
54752W        W20012  13.314  17.933   0.795
54753W        W20013   7.911  12.761  10.686
54754W        W20014  40.238  33.627  14.721
54755W        W20015  36.374  23.987   0.894
54756W        W20016  21.681  34.504  14.949
54757W        W20017  38.907  43.232   3.211
54758W        W20018  44.511   0.833   0.317
54759W        W20019  43.318  16.248   1.792
54760W        W20020  21.148   0.248  12.369
54761W        W20021  39.547  39.284  12.041
54762W        W20022  23.485   8.560   1.973
54763W        W20023   1.547  32.566  11.143
54764W        W20024  20.593  17.152  14.988
54765W        W20025  12.011  43.434  10.963
54766W        W20026  39.889  14.674  11.108
54767W        W20027  21.312   3.852  14.460
54768W        W20028   5.360  11.749  10.244
54769W        W20029  33.599  13.416  11.269
54770W        W20030  17.387  34.947   4.142
54771W        W20031  32.256  23.452   4.908
54772W        W20032  20.785  44.870  14.334
54773W        W20033  13.080  11.929  10.214
54774W        W20034  23.142  15.727   1.393
54775W        W20035  30.598  15.252  13.966
54776W        W20036  14.880  31.068  10.762
54777W        W20037  12.881  13.856   2.367
54778W        W20038  24.149  41.253   0.785
54779W        W20039  40.230  18.301  12.507
54780W        W20040  14.347  36.339  11.568
54781W        W20041  16.056  18.275   2.751
54782W        W20042   9.300  40.427   2.590
54783W        W20043  12.270  39.437  13.139
54784W        W20044  13.408  14.587   4.089
54785W        W20045  22.808  11.204   4.758
54786W        W20046  31.059  15.161  13.107
54787W        W20047  32.521  29.881   3.603
54788W        W20048  38.937  37.333   1.157
54789W        W20049  16.355   2.458  13.120
54790W        W20050   0.095  38.787  11.929
54791W        W20051  17.709   7.143  14.565
54792W        W20052  37.080  40.282   1.458
54793W        W20053   1.701   5.162  14.340
54794W        W20054  36.247  29.617  14.870
54795W        W20055  16.691  42.789   4.098
54796W        W20056  43.524  39.744   4.041
54797W        W20057  42.351  14.824   3.848
54798W        W20058   6.021   4.697  14.795
54799W        W20059  22.721  31.967  14.899
54800W        W20060   3.649  16.115   3.374
54801W        W20061  16.172  38.606  13.399
54802W        W20062  23.619  43.840  11.943
54803W        W20063  33.711   6.292  13.307
54804W        W20064  36.355  31.913   3.639
54805W        W20065  18.143   6.412  12.443
54806W        W20066  18.230   4.667   1.718
54807W        W20067  18.587  12.209   4.220
54808W        W20068  12.222  19.059   1.215
54809W        W20069  25.177  11.396   1.693
54810W        W20070  35.579  33.067   3.597
54811W        W20071  35.415  25.616  12.493
54812W        W20072   8.810  38.606   2.843
54813W        W20073   3.419  34.357   1.452
54814W        W20074  44.739  12.229   3.134
54815W        W20075  41.347   2.210   1.750
54816W        W20076  30.244  36.424   3.807
54817W        W20077   4.442  15.622  13.814
54818W        W20078  18.037  44.204   3.169
54819W        W20079  18.451   3.732   1.939
54820W        W20080  26.105  24.039   2.195
54821W        W20081  41.522  10.241  12.893
54822W        W20082   2.415  36.553   3.268
54823W        W20083  17.226  30.830  12.103
54824W        W20084  24.930  28.694   0.780
54825W        W20085   7.429  30.488  10.176
54826W        W20086  40.984  26.763  12.945
54827W        W20087  30.535  26.598   2.117
54828W        W20088   9.610  41.337   4.592
54829W        W20089  25.627  43.409  13.956
54830W        W20090   1.211  38.342  13.613
54831W        W20091  37.054  37.622  14.350
54832W        W20092  35.612  11.232   3.039
54833W        W20093  14.301   3.021  12.072
54834W        W20094  33.020  43.662  14.809
54835W        W20095  40.096  27.153  13.940
54836W        W20096  24.165  42.466  12.463
54837W        W20097  10.734  17.002   0.783
54838W        W20098  29.136  17.871   2.377
54839W        W20099  30.549  38.502  14.888
54840W        W20100  23.455   4.880  13.529
54841W        W20101  41.602  20.839  11.676
54842W        W20102  26.231  36.123  14.224
54843W        W20103  31.478  43.075  13.472
54844W        W20104  19.544  43.272   4.785
54845W        W20105  21.167   5.189   3.174
54846W        W20106   8.292  21.960   2.313
54847W        W20107  15.266  22.325   0.289
54848W        W20108  39.047  38.364  12.058
54849W        W20109   1.368  19.924   2.761
54850W        W20110  28.604  22.377  13.871
54851W        W20111   7.162  38.413  14.881
54852W        W20112  44.264  20.711  14.343
54853W        W20113  19.749  10.381   1.870
54854W        W20114  29.567  14.788  12.590
54855W        W20115   2.976   9.176  12.381
54856W        W20116  31.219  12.766   4.948
54857W        W20117  12.172  39.708   4.183
54858W        W20118   0.272  33.057  11.567
54859W        W20119  15.503   7.941  13.523
54860W        W20120   9.349  24.052   2.894
54861W        W20121  22.701   3.439  14.987
54862W        W20122  15.448  44.797   2.644
54863W        W20123  39.005  37.949   2.674
54864W        W20124   6.598  19.989  11.520
54865W        W20125  15.257   1.883   4.666
54866W        W20126   5.427  19.671  12.311
54867W        W20127  35.751  29.769  14.756
54868W        W20128  18.075  41.477   0.417
54869W        W20129  31.734  14.739  11.261
54870W        W20130  44.550   1.170   0.979
54871W        W20131  36.393   3.456   2.325
54872W        W20132  41.300  20.207  10.739
54873W        W20133   3.671  26.312  14.937
54874W        W20134  21.258   8.968  13.954
54875W        W20135  30.129  13.597  11.017
54876W        W20136  21.197   1.580   4.646
54877W        W20137  25.198  20.508  13.006
54878W        W20138  44.993  36.059  14.498
54879W        W20139  28.393   0.699   0.501
54880W        W20140   4.209  36.079  12.475
54881W        W20141  37.474   7.560  11.129
54882W        W20142  18.085  43.050  11.401
54883W        W20143  19.736  37.074  13.443
54884W        W20144   8.202  38.828   1.840
54885W        W20145  36.136  20.060  11.204
54886W        W20146  10.577  43.099   4.918
54887W        W20147  31.254  28.030   4.062
54888W        W20148  14.265  24.465   0.247
54889W        W20149  17.562  40.010   2.325
54890W        W20150   2.239   6.966   4.153
54891W        W20151  22.682   3.278  14.462
54892W        W20152  41.145  34.518  14.916
54893W        W20153  18.694  27.232   1.993
54894W        W20154  42.586  30.175  13.699
54895W        W20155  24.490  22.053   3.240
54896W        W20156   3.672   0.988  13.332
54897W        W20157   2.487  33.202  14.628
54898W        W20158  28.545  30.955  14.357
54899W        W20159  17.998   0.949  13.958
54900W        W20160  14.598  38.979  12.899
54901W        W20161  31.723  14.124  11.494
54902W        W20162  13.297  29.099   1.961
54903W        W20163  16.929  41.530  12.425
54904W        W20164  23.132  14.834  12.952
54905W        W20165  27.630  21.332  13.880
54906W        W20166  33.090  19.036  12.029
54907W        W20167  21.921  18.472  12.002
54908W        W20168   9.963  26.700   4.176
54909W        W20169  11.156  28.131   0.234
54910W        W20170  30.603  38.496  13.707
54911W        W20171   5.016  42.207   2.700
54912W        W20172  34.806  31.000   4.523
54913W        W20173  42.042  26.548  11.533
54914W        W20174  40.803  38.342  14.763
54915W        W20175   8.904   6.680  11.452
54916W        W20176  44.304  39.430   2.401
54917W        W20177  44.179  13.296  11.403
54918W        W20178  35.529  18.990   3.121
54919W        W20179  14.828  22.150   1.002
54920W        W20180  32.231  20.299  12.883
54921W        W20181  19.206  24.032  10.277
54922W        W20182  43.446  39.380  14.807
54923W        W20183  25.149  33.741   0.714
54924W        W20184  40.765  25.688   4.135
54925W        W20185  17.792  36.111   1.320
54926W        W20186  38.361  32.863  11.521
54927W        W20187  17.766  25.215  11.654
54928W        W20188  13.382   6.432  10.656
54929W        W20189  31.677  26.217  14.164
54930W        W20190   5.662   5.212  14.434
54931W        W20191  17.014  40.234   0.117
54932W        W20192  17.699  39.069   2.807
54933W        W20193  43.312  23.266  12.398
54934W        W20194  14.221  41.578   2.809
54935W        W20195  29.585  14.765   2.377
54936W        W20196  13.159  18.637  12.640
54937W        W20197   2.438   8.424  10.266
54938W        W20198  28.985  24.253   2.699
54939W        W20199  12.344  23.141   1.652
54940W        W20200   4.114  43.256  11.276
54941W        W20201   3.244   0.277   4.574
54942W        W20202  27.667   2.319  13.466
54943W        W20203  14.973  17.292  11.024
54944W        W20204   7.153   1.838   2.600
54945W        W20205  19.110  37.434   0.810
54946W        W20206  36.863   1.695  14.417
54947W        W20207  15.800   8.650  11.071
54948W        W20208  41.554  17.842  13.578
54949W        W20209  11.568  36.450  10.754
54950W        W20210  31.190  23.726  11.729
54951W        W20211  27.160  20.111  11.641
54952W        W20212  43.349   1.999  13.796
54953W        W20213   7.908  41.155   1.706
54954W        W20214   9.349  33.423  13.290
54955W        W20215   4.936  40.289   1.605
54956W        W20216  42.328  41.424  12.101
54957W        W20217  42.752   9.795  14.346
54958W        W20218  24.019  23.811   1.239
54959W        W20219  22.026  42.988  11.718
54960W        W20220  26.820   9.698   2.369
54961W        W20221  17.700   5.228  11.522
54962W        W20222  44.747   9.177   3.421
54963W        W20223  20.531  14.527   3.098
54964W        W20224   7.113  38.300  10.788
54965W        W20225  15.711  23.542  13.486
54966W        W20226  19.977  22.257   0.835
54967W        W20227   1.783  33.483   4.632
54968W        W20228  35.447  34.881  14.097
54969W        W20229   4.080   2.597  14.790
54970W        W20230   3.415   7.746  10.558
54971W        W20231   9.189   3.363  11.001
54972W        W20232  19.634  43.851   5.086
54973W        W20233   5.530   6.410   2.644
54974W        W20234   8.405   2.639  11.723
54975W        W20235   3.283  21.595  10.791
54976W        W20236  26.558  42.254   4.598
54977W        W20237   2.946  39.911  10.939
54978W        W20238   9.485  31.276   9.693
54979W        W20239  28.945  36.481  11.605
54980W        W20240  35.071   7.678   2.346
54981W        W20241  37.821   2.751   0.348
54982W        W20242  17.767  25.793  14.956
54983W        W20243   5.323   4.210   0.759
54984W        W20244  30.449   2.378   3.652
54985W        W20245  42.377  37.701  14.566
54986W        W20246  21.796  18.571   4.636
54987W        W20247   0.301  38.045   4.522
54988W        W20248  28.233   5.619  11.626
54989W        W20249  12.725   1.334  13.192
54990W        W20250  34.807   8.106   1.891
54991W        W20251  20.634  23.106  10.668
54992W        W20252  37.533  19.134   4.826
54993W        W20253   0.804  13.127   1.060
54994W        W20254  24.612   2.339   3.144
54995W        W20255  43.003  23.418   3.755
54996W        W20256  23.651  36.327   3.278
54997W        W20257  41.391  12.402  12.068
54998W        W20258  16.709  37.818  11.383
54999W        W20259  34.829  29.749  10.797
55000W        W20260  10.242  13.102  13.918
55001W        W20261  33.181  26.882   1.386
55002W        W20262   8.351   1.532   2.681
55003W        W20263  12.151  26.700   0.236
55004W        W20264  33.170   6.215  13.331
55005W        W20265  28.958  14.343  11.657
55006W        W20266  32.752  24.000  13.136
55007W        W20267   4.467   5.716   1.132
55008W        W20268   8.830  29.939  13.305
55009W        W20269   4.325   9.234  12.940
55010W        W20270  12.375   2.116   2.271
55011W        W20271   6.380  16.276  11.592
55012W        W20272  40.959  14.763   4.100
55013W        W20273  16.332  44.993  11.447
55014W        W20274   6.465  35.759   2.739
55015W        W20275  35.157  18.222   1.357
55016W        W20276  34.661  35.079   2.958
55017W        W20277  41.496  18.044  14.062
55018W        W20278  29.519   8.698  14.718
55019W        W20279   1.039  40.542   1.989
55020W        W20280  44.448  14.910  11.068
55021W        W20281  22.387  41.017   3.145
55022W        W20282  30.935  10.602   1.946
55023W        W20283   3.043  41.273  10.981
55024W        W20284  17.347  31.110  10.027
55025W        W20285  29.199  30.318   0.709
55026W        W20286  42.861  35.828   1.200
55027W        W20287  11.265  24.686   2.276
55028W        W20288  13.295   0.292   4.979
55029W        W20289   7.202  33.355   4.197
55030W        W20290  30.856  14.219   0.307
55031W        W20291  20.132   0.704  11.562
55032W        W20292   8.296  26.558  13.022
55033W        W20293  11.786  23.782  13.800
55034W        W20294   1.229  13.169  12.816
55035W        W20295   2.882  33.105  13.687
55036W        W20296  10.487  16.824   2.467
55037W        W20297  19.698  35.961   1.698
55038W        W20298  38.546   4.454  12.333
55039W        W20299  25.010  26.121  10.673
55040W        W20300  31.513   4.133   2.302
55041W        W20301  27.649  19.443   3.327
55042W        W20302   4.233  13.239   1.889
55043W        W20303   2.584  42.645  11.677
55044W        W20304  17.317  44.267   1.756
55045W        W20305  27.010  30.090   1.810
55046W        W20306  10.211   5.850  13.377
55047W        W20307  30.695  26.778   4.693
55048W        W20308  11.765   9.176  13.449
55049W        W20309  16.772  13.188  13.201
55050W        W20310  39.484   2.243  11.666
55051W        W20311  12.630  31.957   4.814
55052W        W20312  18.511  24.618  13.025
55053W        W20313  39.893   0.488  11.988
55054W        W20314  31.406  41.560  13.530
55055W        W20315   0.616  35.663  11.988
55056W        W20316  22.600  24.715   2.101
55057W        W20317  18.776   5.658   2.418
55058W        W20318   5.433  18.611   2.269
55059W        W20319  22.661  21.210  13.371
55060W        W20320  35.299  24.451  10.302
55061W        W20321   8.126  25.200  11.133
55062W        W20322  11.190  44.819  10.696
55063W        W20323   6.451  13.862  11.989
55064W        W20324   5.490  10.800  12.476
55065W        W20325  28.450   8.490   0.314
55066W        W20326   4.416  24.040   4.395
55067W        W20327   6.551   4.896  10.267
55068W        W20328  41.519   8.680   3.691
55069W        W20329  38.263  42.646   4.256
55070W        W20330  31.501   6.973  12.035
55071W        W20331  17.728  15.562   3.076
55072W        W20332  35.949  18.971   4.079
55073W        W20333  21.528  24.727   0.829
55074W        W20334  26.864  36.613   0.158
55075W        W20335   5.505  25.167  12.476
55076W        W20336   5.319  14.632  12.653
55077W        W20337  11.758  11.261   1.845
55078W        W20338  22.821   8.204   0.460
55079W        W20339   7.822  18.789  14.937
55080W        W20340   3.150  11.141   3.255
55081W        W20341   2.746  21.939   4.652
55082W        W20342  38.417   2.617   1.310
55083W        W20343  21.063  14.552   4.295
55084W        W20344  30.608  13.579  14.082
55085W        W20345   2.798  14.177  14.844
55086W        W20346  42.307  14.135  12.699
55087W        W20347  15.163  11.716  14.336
55088W        W20348  27.176  10.772   2.885
55089W        W20349  32.895  38.498   3.381
55090W        W20350  34.299  13.398  12.152
55091W        W20351   3.463  39.357  13.909
55092W        W20352  14.640   8.671   0.402
55093W        W20353  36.119  32.413  13.868
55094W        W20354  21.411   0.972  14.108
55095W        W20355  43.395  18.683  12.065
55096W        W20356  43.026  40.537  13.119
55097W        W20357  36.922  21.332  14.106
55098W        W20358  26.495  44.273  11.497
55099W        W20359  25.152   9.213  12.087
55100W        W20360   2.852  23.491  14.802
55101W        W20361  16.637   4.218   1.850
55102W        W20362  20.343   2.733   2.209
55103W        W20363  37.555   7.052  10.324
55104W        W20364   5.808  33.533  11.519
55105W        W20365   7.776   9.207  12.661
55106W        W20366   0.849  25.908   1.328
55107W        W20367  36.071  13.638   2.703
55108W        W20368   7.669  23.631   3.041
55109W        W20369   0.114   4.313   4.058
55110W        W20370  26.752  36.882  10.209
55111W        W20371  30.055  28.919  10.361
55112W        W20372  36.144  33.110  11.131
55113W        W20373   5.723  19.714   5.010
55114W        W20374  12.203  25.221   2.390
55115W        W20375   3.328  18.021  11.163
55116W        W20376  23.690  43.353   3.879
55117W        W20377  29.810   6.468   0.704
55118W        W20378  37.761  25.571   0.678
55119W        W20379   3.237  36.368  10.743
55120W        W20380  26.987   7.260  12.239
55121W        W20381  16.767  12.144   1.280
55122W        W20382  17.538  29.229  14.978
55123W        W20383  27.558  34.861   2.108
55124W        W20384   1.392  28.162   4.179
55125W        W20385   2.531  18.390   4.595
55126W        W20386  11.150  18.754  11.534
55127W        W20387  37.730  23.098  10.672
55128W        W20388  38.953  21.562  10.094
55129W        W20389  41.958  33.672  14.383
55130W        W20390  17.718   9.606   0.279
55131W        W20391  10.918   0.872  11.143
55132W        W20392  24.594  35.077  10.293
55133W        W20393  16.052  16.579   3.329
55134W        W20394  32.954  36.328   1.340
55135W        W20395  38.077  40.504   3.762
55136W        W20396  28.124  18.959  14.832
55137W        W20397  41.338   6.244  11.907
55138W        W20398  32.988  26.252  12.893
55139W        W20399  12.407  10.610   0.766
55140W        W20400  33.647  38.818  13.897
55141W        W20401   5.636  36.899   0.886
55142W        W20402  25.795   6.497   3.432
55143W        W20403  29.667  14.859   0.934
55144W        W20404  36.646   7.263   3.174
55145W        W20405  12.345  20.773   2.265
55146W        W20406  27.543  17.846  12.959
55147W        W20407   5.462  14.291   1.336
55148W        W20408  11.168  34.507  11.851
55149W        W20409  23.797  16.944   0.045
55150W        W20410  25.771  29.472  12.855
55151W        W20411  30.658  23.565  14.000
55152W        W20412   1.670  28.321  13.763
55153W        W20413  41.428  33.105   3.652
55154W        W20414   0.469  40.034   4.426
55155W        W20415   5.589  24.691   3.358
55156W        W20416  12.105  19.482  11.105
55157W        W20417  29.414  36.980   3.324
55158W        W20418   5.312  44.988  13.075
55159W        W20419   7.260   5.313  10.561
55160W        W20420   4.958  40.491   1.137
55161W        W20421  20.234  42.938   1.896
55162W        W20422  24.442  35.926  13.983
55163W        W20423  24.072  25.087   3.248
55164W        W20424   2.106  27.168   5.554
55165W        W20425  26.189  23.511   2.011
55166W        W20426  38.422  41.531   1.711
55167W        W20427  44.277   9.178  10.201
55168W        W20428  15.297  10.314  12.164
55169W        W20429  19.373  28.998   0.361
55170W        W20430   3.801  11.320   0.401
55171W        W20431   5.297   2.843  12.944
55172W        W20432  21.410  38.837  13.768
55173W        W20433  11.163  37.566  13.862
55174W        W20434  11.752  44.993  14.242
55175W        W20435  30.685   6.326   3.934
55176W        W20436   9.953  31.247  11.138
55177W        W20437  18.855  20.009   0.161
55178W        W20438  32.438   8.269  13.901
55179W        W20439  20.554  15.816  12.805
55180W        W20440  31.149  38.565   0.463
55181W        W20441  39.926  30.500   4.196
55182W        W20442   1.307  17.153  13.796
55183W        W20443  14.462   7.616  13.640
55184W        W20444  38.130  43.828   1.823
55185W        W20445  24.873  28.412  11.296
55186W        W20446  26.343   8.920   4.070
55187W        W20447  17.794   6.623   3.632
55188W        W20448   8.802  23.206  14.480
55189W        W20449  26.058  19.345   0.009
55190W        W20450   7.415  44.980   2.319
55191W        W20451  14.746  11.271   0.469
55192W        W20452   3.168  32.655   3.778
55193W        W20453  43.788   9.379  12.202
55194W        W20454  14.200  27.505   0.434
55195W        W20455  35.520  26.044   4.775
55196W        W20456   8.154   5.172   3.374
55197W        W20457   8.130  38.939  13.947
55198W        W20458  37.781  24.034  11.652
55199W        W20459   5.680  43.489   0.820
55200W        W20460  41.184  24.111   4.696
55201W        W20461  13.368   7.661   0.764
55202W        W20462  41.531  27.891   2.443
55203W        W20463  14.587   8.937  14.933
55204W        W20464  33.647   1.138   9.461
55205W        W20465  33.470  14.203   1.819
55206W        W20466  11.429  34.529  12.316
55207W        W20467  14.084  44.121  12.957
55208W        W20468  29.383  29.136   1.820
55209W        W20469  14.290  10.770  12.987
55210W        W20470   4.506  22.526  14.432
55211W        W20471  23.771   6.789   0.907
55212W        W20472   2.301  19.777  14.762
55213W        W20473  37.500  33.335   0.011
55214W        W20474  38.783  37.547  14.005
55215W        W20475  34.121  40.424  13.851
55216W        W20476  15.532  14.832   2.853
55217W        W20477  24.186  36.013  11.778
55218W        W20478  14.093   3.461  11.907
55219W        W20479  35.423  16.836   1.086
55220W        W20480  13.900  34.248   3.787
55221W        W20481  30.834  41.108   2.728
55222W        W20482  10.167  30.878  14.608
55223W        W20483  40.483   1.342   0.641
55224W        W20484  37.865  24.891  14.103
55225W        W20485  35.132  37.444  12.432
55226W        W20486  13.590  25.674   3.736
55227W        W20487   3.591   1.091  14.843
55228W        W20488  23.921   7.953  12.099
55229W        W20489   0.342   8.857   2.868
55230W        W20490  33.034  36.102  10.826
55231W        W20491  42.748  37.771   0.368
55232W        W20492  40.515  29.206   1.305
55233W        W20493  41.102   4.614   0.273
55234W        W20494  13.352   8.744  11.031
55235W        W20495  13.093  33.794   5.104
55236W        W20496  19.881   6.215  13.087
55237W        W20497  36.477  12.236  14.927
55238W        W20498  30.446  15.252   4.593
55239W        W20499  44.169  27.537   0.881
55240W        W20500  11.688  30.915   2.705
55241W        W20501  34.106  14.643  10.865
55242W        W20502  15.421  34.344   2.349
55243W        W20503  30.231  39.779  12.613
55244W        W20504  37.085  31.660   2.337
55245W        W20505  36.492  23.648   3.212
55246W        W20506  10.791  26.440   2.104
55247W        W20507   2.833   8.815   4.588
55248W        W20508   7.351  43.079  13.056
55249W        W20509   7.434   6.136   0.729
55250W        W20510  25.939  26.949   2.903
55251W        W20511  23.186  42.020  14.922
55252W        W20512  40.385  17.353  14.037
55253W        W20513   6.876  40.045  12.353
55254W        W20514  31.925  40.246   0.237
55255W        W20515  41.389   2.922  11.496
55256W        W20516  20.473  22.215  13.147
55257W        W20517  29.735  44.765  11.996
55258W        W20518  20.818  14.187  12.953
55259W        W20519  14.752  41.015  12.480
55260W        W20520   2.907  23.119  10.672
55261W        W20521  27.596  17.093   0.844
55262W        W20522   9.373  36.696   0.005
55263W        W20523   0.390  22.601  13.382
55264W        W20524   8.551   7.483  12.810
55265W        W20525   4.360  16.560  12.395
55266W        W20526  38.949  10.175  14.931
55267W        W20527  41.467  41.432  14.911
55268W        W20528  24.485  18.769   3.536
55269W        W20529  27.218  39.948   2.162
55270W        W20530  31.251  25.174   2.178
55271W        W20531  24.051  31.004  10.627
55272W        W20532  17.333  20.056  12.515
55273W        W20533   4.444  26.269   0.300
55274W        W20534  25.104   6.493   2.870
55275W        W20535  39.213  20.686  10.195
55276W        W20536  44.524  23.106  10.670
55277W        W20537  14.101  14.339  14.515
55278W        W20538   3.626  33.467   3.117
55279W        W20539   8.530  32.510  10.740
55280W        W20540  41.133   7.239  10.612
55281W        W20541  42.983  38.374  14.149
55282W        W20542  33.926  23.176   1.947
55283W        W20543  33.985  38.557  14.217
55284W        W20544   6.179  34.104  11.628
55285W        W20545  30.495  27.179  11.002
55286W        W20546  21.974  35.697  14.584
55287W        W20547  10.806  38.534  10.678
55288W        W20548  44.720  23.566   4.192
55289W        W20549  33.375  35.623   3.153
55290W        W20550  25.089   8.355  13.067
55291W        W20551  36.858  28.606   2.135
55292W        W20552  14.062  42.721   4.135
55293W        W20553  33.645  28.623   0.833
55294W        W20554  21.141  34.903   1.124
55295W        W20555  44.559  17.160   4.128
55296W        W20556   5.664   7.701   3.210
55297W        W20557   8.913  43.478   2.537
55298W        W20558  21.012  31.507   4.980
55299W        W20559   3.794  14.821   0.851
55300W        W20560  32.154  41.153   4.551
55301W        W20561  34.362  35.802   1.524
55302W        W20562  13.504  31.926  12.873
55303W        W20563  12.404  26.047  11.609
55304W        W20564  15.926  21.779   1.824
55305W        W20565  28.345  31.770  13.895
55306W        W20566  29.276  17.395   4.169
55307W        W20567  42.144   2.760  11.960
55308W        W20568  23.234  10.658  12.391
55309W        W20569  36.569  17.836   0.343
55310W        W20570   6.747  36.723  13.833
55311W        W20571   5.310  34.627   4.340
55312W        W20572  20.282   3.075   4.309
55313W        W20573  23.474  36.814   3.340
55314W        W20574   7.759  23.593  11.556
55315W        W20575  34.299  32.979   1.318
55316W        W20576  41.351  25.596   0.901
55317W        W20577   8.671  25.062  13.906
55318W        W20578  21.647  38.633  12.811
55319W        W20579  40.964  20.058  11.092
55320W        W20580  19.187  17.757  14.425
55321W        W20581  42.506   5.278  14.388
55322W        W20582  41.864  43.437   4.599
55323W        W20583   3.075  36.826   0.706
55324W        W20584  19.781  39.794  12.243
55325W        W20585  11.162   9.092  14.919
55326W        W20586  31.932   7.221  12.147
55327W        W20587  34.113   5.772  13.659
55328W        W20588  10.605   4.897  13.338
55329W        W20589   0.465   3.842   2.869
55330W        W20590  26.032  10.759  14.553
55331W        W20591  10.786  16.663   3.321
55332W        W20592  41.568  13.750  14.114
55333W        W20593  36.485  26.677   2.256
55334W        W20594   7.210  35.855  13.088
55335W        W20595  22.235   0.745  11.512
55336W        W20596  31.560  31.524  12.143
55337W        W20597  14.221  22.120  14.779
55338W        W20598  40.439  36.814   2.781
55339W        W20599  31.329  26.062  14.949
55340W        W20600  16.770   2.331  10.820
55341W        W20601   2.579  14.177   1.146
55342W        W20602   4.048  23.803   1.446
55343W        W20603  17.360   4.720  14.015
55344W        W20604   3.430  42.957   4.292
55345W        W20605   7.184  13.206   4.613
55346W        W20606   6.018  25.145  14.609
55347W        W20607  40.605   4.644  11.290
55348W        W20608   0.890  34.882   3.699
55349W        W20609  17.265  34.003  11.902
55350W        W20610  18.818  11.822  11.140
55351W        W20611  40.521  11.274  14.426
55352W        W20612  24.092   0.722   4.434
55353W        W20613   0.529  15.083   1.362
55354W        W20614  29.505  22.159   4.618
55355W        W20615   6.889  42.717   1.948
55356W        W20616   9.174  30.227  11.079
55357W        W20617  23.957  10.259  12.563
55358W        W20618  21.314  12.693  14.390
55359W        W20619  10.823  10.838  11.208
55360W        W20620  23.258  21.089  12.708
55361W        W20621  32.890  26.426   1.325
55362W        W20622  39.352   3.197  14.745
55363W        W20623  14.417  32.061  10.758
55364W        W20624  14.667   7.456  10.272
55365W        W20625   0.258  42.256   3.416
55366W        W20626  20.330   4.788  14.622
55367W        W20627  40.855  44.749   1.856
55368W        W20628  16.205  41.397   2.593
55369W        W20629  30.114  25.295   2.809
55370W        W20630  21.750   6.981  13.383
55371W        W20631   0.796  27.526  14.410
55372W        W20632   5.774   6.223   0.369
55373W        W20633  11.189   3.379   1.497
55374W        W20634  12.383  26.289   4.657
55375W        W20635  16.322   1.444   1.433
55376W        W20636   3.640   5.104  11.119
55377W        W20637  19.989  14.150  10.553
55378W        W20638  26.515  21.002   3.262
55379W        W20639   2.797  31.509   2.719
55380W        W20640  39.841  10.823  14.535
55381W        W20641  37.509  24.914   0.517
55382W        W20642  27.599  43.634  10.499
55383W        W20643  15.622  39.869   3.873
55384W        W20644   5.314  41.955  11.921
55385W        W20645   1.244  18.005  14.304
55386W        W20646  36.482  42.908   3.176
55387W        W20647  34.002  41.633  14.824
55388W        W20648  25.301  26.921   2.231
55389W        W20649  42.909  22.511   0.879
55390W        W20650  28.493   5.805  14.940
55391W        W20651  38.146   9.010  14.326
55392W        W20652   8.658  32.976  10.930
55393W        W20653   8.842  34.914   5.020
55394W        W20654   9.683  19.484  12.837
55395W        W20655  21.794  22.814   1.878
55396W        W20656  20.581  37.439  14.302
55397W        W20657  17.535  13.614   0.441
55398W        W20658  17.888   2.555   3.485
55399W        W20659  11.817   1.035   0.388
55400W        W20660  32.582  35.851   1.582
55401W        W20661  24.401   3.254   0.848
55402W        W20662   9.298  18.646   3.894
55403W        W20663  39.923  38.975  14.507
55404W        W20664  21.302  27.454  11.150
55405W        W20665  44.203  16.676  12.172
55406W        W20666   7.951  16.469   3.295
55407W        W20667  40.535  12.367  11.158
55408W        W20668  21.710  41.484  11.193
55409W        W20669   8.917  42.384   4.096
55410W        W20670  16.555  33.742   3.314
55411W        W20671  14.327  18.456   1.432
55412W        W20672   6.815   3.792   4.386
55413W        W20673  24.008  31.936  14.093
55414W        W20674  15.887  33.329  11.615
55415W        W20675  43.067  19.371  13.193
55416W        W20676  17.267  39.442  10.173
55417W        W20677   4.468  15.656   2.424
55418W        W20678  20.270  13.726   4.154
55419W        W20679  20.059  23.672  12.878
55420W        W20680  28.541  30.670   1.825
55421W        W20681  19.529   5.398   0.362
55422W        W20682   6.776  37.773   4.591
55423W        W20683  34.457  26.453  13.371
55424W        W20684  32.077  27.614   5.001
55425W        W20685  14.145  14.137  13.139
55426W        W20686  23.540  40.919   3.935
55427W        W20687  17.985  29.038  13.205
55428W        W20688  17.801  12.750  11.177
55429W        W20689  16.814  25.009   0.462
55430W        W20690   7.311  15.716   4.616
55431W        W20691  31.126  29.487  12.359
55432W        W20692  37.569  11.542   4.251
55433W        W20693  17.276  29.938  13.906
55434W        W20694  33.960  21.607   4.482
55435W        W20695  27.234  20.190  13.121
55436W        W20696  28.646   3.739  10.617
55437W        W20697  39.389  23.882   0.467
55438W        W20698   7.121  35.936  14.847
55439W        W20699  30.462  36.400   4.927
55440W        W20700  40.803  33.590   3.227
55441W        W20701  24.028   7.794   3.637
55442W        W20702   6.040  41.356   0.269
55443W        W20703  39.798  29.990   4.027
55444W        W20704  35.856  41.471   1.122
55445W        W20705  14.589  30.862  11.158
55446W        W20706  13.847   6.733  11.572
55447W        W20707  33.966  14.666  13.674
55448W        W20708  39.516   1.636  10.720
55449W        W20709  25.862  20.488  12.212
55450W        W20710  36.442  32.235  13.029
55451W        W20711  41.398   7.600  12.578
55452W        W20712  43.574  40.024  13.018
55453W        W20713   9.272  44.929  13.302
55454W        W20714  39.228  41.012   4.615
55455W        W20715  37.199  29.277   4.183
55456W        W20716  21.403  17.697   2.953
55457W        W20717   8.956  19.562  12.357
55458W        W20718  30.171   6.315   2.636
55459W        W20719  13.253  42.591  13.907
55460W        W20720  13.735  12.223   2.128
55461W        W20721   0.142  20.311  11.146
55462W        W20722  23.141  28.790   3.781
55463W        W20723   1.547  12.935   4.992
55464W        W20724  19.482   1.978  11.310
55465W        W20725   9.380  29.030   4.091
55466W        W20726  43.376   3.262   5.548
55467W        W20727   8.078  18.678  11.735
55468W        W20728  38.810  31.676   0.467
55469W        W20729  44.280  29.754  13.308
55470W        W20730  40.526  19.248  12.526
55471W        W20731  11.262   8.985   1.211
55472W        W20732  14.289  15.677  13.020
55473W        W20733   0.850  29.540   2.197
55474W        W20734  14.079  15.016   3.679
55475W        W20735  26.449  22.428  11.516
55476W        W20736  43.912  13.663  11.653
55477W        W20737  10.029  37.039   4.550
55478W        W20738  24.740  16.524   0.055
55479W        W20739  25.682  20.235   3.182
55480W        W20740  37.318  18.761   4.063
55481W        W20741  38.364  31.213   4.441
55482W        W20742  11.173   3.832   4.495
55483W        W20743  10.812  43.904   0.814
55484W        W20744  21.583  40.524   0.313
55485W        W20745  40.352  17.547   4.147
55486W        W20746   0.912  44.522  14.285
55487W        W20747  44.981   7.219   1.782
55488W        W20748  41.206   2.921   0.754
55489W        W20749  38.818   7.975   2.728
55490W        W20750  36.001  22.849  10.424
55491W        W20751  13.498  40.552  12.615
55492W        W20752  14.544  35.029  12.605
55493W        W20753  11.784  35.467   1.323
55494W        W20754  40.582  29.315  10.895
55495W        W20755  25.560  40.294   0.897
55496W        W20756   2.582  38.867   2.166
55497W        W20757  12.125  25.737   2.394
55498W        W20758  29.595  12.775  10.179
55499W        W20759  43.497  30.922   0.294
55500W        W20760  33.162  35.863  11.978
55501W        W20761  37.814  18.593  11.212
55502W        W20762  19.174  31.181   4.518
55503W        W20763  39.967   3.976   1.794
55504W        W20764   9.240  31.658  13.986
55505W        W20765   7.953  41.945   2.032
55506W        W20766  14.799   8.427  14.926
55507W        W20767  27.468  35.098   3.173
55508W        W20768  24.137  10.221   4.581
55509W        W20769  20.506  32.119   2.222
55510W        W20770  27.258   1.737   3.899
55511W        W20771  10.048  38.219  12.500
55512W        W20772  20.830  26.212   4.769
55513W        W20773  24.253  28.167  12.711
55514W        W20774  44.568  30.209  14.278
55515W        W20775  39.479  19.039  11.703
55516W        W20776  24.062  28.622   0.288
55517W        W20777   2.635  43.214   4.184
55518W        W20778  43.753  30.347   1.973
55519W        W20779   9.618  13.716   4.198
55520W        W20780  36.411  29.588  10.769
55521W        W20781  15.305  40.855   1.218
55522W        W20782  39.461  25.448  11.890
55523W        W20783  28.654  11.437  11.586
55524W        W20784  26.712  20.537   0.490
55525W        W20785  35.985  25.937  14.745
55526W        W20786  33.312  32.803   0.278
55527W        W20787  19.313  20.730   3.214
55528W        W20788  35.881  10.313  13.377
55529W        W20789  26.980  32.875   1.487
55530W        W20790  22.667   0.753   4.992
55531W        W20791   8.973  18.149   1.270
55532W        W20792  27.819   9.762  14.408
55533W        W20793  38.517  32.482  12.859
55534W        W20794  21.338  20.477   4.579
55535W        W20795  40.688   3.842   3.620
55536W        W20796  24.502  24.779   2.687
55537W        W20797  18.167  29.542   0.618
55538W        W20798  25.548  19.072   0.511
55539W        W20799  24.995  22.663   3.647
55540W        W20800  24.928  41.354   1.285
55541W        W20801  38.540  30.648   0.796
55542W        W20802  37.319  38.474   1.417
55543W        W20803  32.545  34.167  10.637
55544W        W20804  23.853  14.580  12.942
55545W        W20805  38.165  34.907  13.021
55546W        W20806  20.049  23.189  10.996
55547W        W20807  19.089  14.682   4.065
55548W        W20808  11.805  43.276  12.461
55549W        W20809  36.033  43.334   2.149
55550W        W20810  31.141  17.498  13.999
55551W        W20811  35.953  43.410   3.517
55552W        W20812  20.385  38.103  12.643
55553W        W20813  44.031  27.529  13.681
55554W        W20814  40.456   2.737  11.871
55555W        W20815  33.359   0.893   0.394
55556W        W20816   3.499  36.344   1.230
55557W        W20817  40.682  16.710   1.871
55558W        W20818  13.875  35.836  13.506
55559W        W20819  32.448  28.511   0.335
55560W        W20820  27.485  30.858   1.834
55561W        W20821  21.259  31.894   3.687
55562W        W20822  24.863  25.607   4.166
55563W        W20823  36.203  31.019  11.065
55564W        W20824  42.909  32.062   0.885
55565W        W20825  25.616  24.321  10.572
55566W        W20826  14.615  32.449  14.057
55567W        W20827  29.587  36.957   4.710
55568W        W20828  40.500  44.968   2.182
55569W        W20829  12.115  21.287   3.124
55570W        W20830   7.802  28.165   0.650
55571W        W20831  34.725  26.921   1.757
55572W        W20832  32.865  34.942   2.872
55573W        W20833   0.151   8.185  14.880
55574W        W20834  43.075  21.521   1.253
55575W        W20835  12.029   1.296   2.765
55576W        W20836  31.824   5.162   1.006
55577W        W20837  40.273   6.357  14.945
55578W        W20838  25.674   1.494   1.192
55579W        W20839  40.638   9.897   0.778
55580W        W20840  17.827   6.623   4.772
55581W        W20841  31.102  40.431   1.638
55582W        W20842  30.626  35.319  13.504
55583W        W20843  38.124   3.370  12.171
55584W        W20844  44.693   4.715  10.825
55585W        W20845  23.120   1.913   0.320
55586W        W20846  31.082  40.329  14.815
55587W        W20847  23.085   9.374   4.379
55588W        W20848   2.804  42.407   2.080
55589W        W20849  42.898  36.578   1.845
55590W        W20850  29.047   4.754   4.612
55591W        W20851  24.007   5.872   1.540
55592W        W20852   4.702  30.015  13.412
55593W        W20853  34.709   0.367   4.350
55594W        W20854  33.654   5.120  10.117
55595W        W20855   2.238  15.647  14.437
55596W        W20856  21.875  33.446  10.255
55597W        W20857  44.367   0.986  11.081
55598W        W20858  30.667  44.542  12.360
55599W        W20859  34.825  35.179   1.315
55600W        W20860   6.353  25.971  12.908
55601W        W20861  42.456  10.474   1.941
55602W        W20862  20.415  43.369   5.086
55603W        W20863   4.957   3.412   4.637
55604W        W20864   7.785  11.543  14.770
55605W        W20865  16.180   7.895  10.858
55606W        W20866  29.956   7.512  12.358
55607W        W20867  40.450  40.608  10.112
55608W        W20868   2.319  41.072  11.097
55609W        W20869  39.064   7.351   1.000
55610W        W20870  37.554  26.582  13.619
55611W        W20871  36.232  11.810   3.553
55612W        W20872  20.710  39.768  14.974
55613W        W20873   1.535   1.058  14.391
55614W        W20874   5.285  20.681  14.688
55615W        W20875   2.244  26.273  11.244
55616W        W20876   4.678  24.678  13.604
55617W        W20877   2.976  32.355  11.206
55618W        W20878  34.604  18.478   3.222
55619W        W20879  15.047  37.520  14.947
55620W        W20880  35.440  14.575  11.063
55621W        W20881  35.124  24.902  11.161
55622W        W20882  41.127  42.637  14.979
55623W        W20883  33.056  44.567   2.346
55624W        W20884   1.656  40.855   4.064
55625W        W20885  39.907   7.711  13.573
55626W        W20886  17.555  21.946   1.782
55627W        W20887  35.100  31.265  14.444
55628W        W20888  19.066  13.341   1.123
55629W        W20889  30.819  30.501   1.727
55630W        W20890  43.761  12.790   0.352
55631W        W20891  32.469  14.621  13.386
55632W        W20892  41.123  39.995  13.305
55633W        W20893  44.964   2.451   4.487
55634W        W20894  36.418  27.183   2.301
55635W        W20895  31.448   9.618   3.672
55636W        W20896   3.705  21.112   0.035
55637W        W20897  23.259  20.155  14.718
55638W        W20898  16.659   7.174  10.774
55639W        W20899  19.065  37.018   4.815
55640W        W20900  42.332  33.059   3.837
55641W        W20901  43.599  13.555   3.193
55642W        W20902   7.770   7.664  10.660
55643W        W20903  13.081  31.503   3.523
55644W        W20904  40.910  38.386   0.267
55645W        W20905  31.868  41.437   0.484
55646W        W20906  29.538  26.026  14.289
55647W        W20907  33.626  23.685  13.755
55648W        W20908   2.891   1.813   1.311
55649W        W20909  34.616  25.506   4.979
55650W        W20910  23.741  35.806   2.189
55651W        W20911   5.480   2.899  14.391
55652W        W20912  11.590   4.860   4.602
55653W        W20913  21.744   0.735  10.602
55654W        W20914   7.299  14.515   1.831
55655W        W20915  42.399  24.219  12.930
55656W        W20916  25.658  37.330   1.024
55657W        W20917  24.504  22.860   2.779
55658W        W20918  19.199  44.805   1.501
55659W        W20919  15.828  41.367  11.883
55660W        W20920   1.388  32.532   2.204
55661W        W20921  38.994  37.778   0.266
55662W        W20922  27.935  30.829   3.982
55663W        W20923  29.935  42.247  12.108
55664W        W20924   6.387  29.989   4.589
55665W        W20925  27.853   9.437  11.554
55666W        W20926  26.035  29.081   1.434
55667W        W20927  33.995  15.203  13.573
55668W        W20928   4.582  26.489  12.002
55669W        W20929   7.921  24.566  13.448
55670W        W20930  43.717  41.148  14.509
55671W        W20931  41.313  14.528  10.682
55672W        W20932   6.848  36.005  11.594
55673W        W20933  25.043  29.594   2.251
55674W        W20934   6.748  35.375   3.567
55675W        W20935  44.186  32.466   4.796
55676W        W20936  15.524   7.953   1.520
55677W        W20937  13.590  26.675   3.225
55678W        W20938   0.248  26.663  14.447
55679W        W20939  11.708  11.091  11.951
55680W        W20940  43.944  17.689   3.260
55681W        W20941   1.284  24.050   4.117
55682W        W20942   8.677  15.528   3.663
55683W        W20943  12.248  43.874  11.909
55684W        W20944   4.829  32.853  13.620
55685W        W20945  17.062  31.670   3.122
55686W        W20946   2.720  38.928   3.550
55687W        W20947  37.834  10.321   1.707
55688W        W20948   4.191  13.763   2.847
55689W        W20949  16.095  10.745  11.039
55690W        W20950   6.734  43.319   2.328
55691W        W20951   3.019  29.495  11.856
55692W        W20952  16.686  41.755  14.280
55693W        W20953   3.236   9.620   2.328
55694W        W20954  39.404  32.437   4.198
55695W        W20955  44.948   2.308   0.525
55696W        W20956  23.066  34.652   1.893
55697W        W20957  11.576  18.740  14.730
55698W        W20958  16.016  31.947   0.384
55699W        W20959  23.312  29.954   3.055
55700W        W20960  22.467  36.347  12.185
55701W        W20961  30.516  43.356   3.321
55702W        W20962   6.876  30.051  14.048
55703W        W20963   9.214  29.132   0.883
55704W        W20964  21.199  21.326  13.821
55705W        W20965  33.977   0.248   3.790
55706W        W20966  25.452   4.254   2.290
55707W        W20967  17.125  25.516  14.376
55708W        W20968  19.940   9.248   2.250
55709W        W20969  30.717  11.007  12.598
55710W        W20970   1.896   5.875   4.631
55711W        W20971  14.382   5.492   1.480
55712W        W20972  40.264  30.603  13.782
55713W        W20973  13.609  38.880   3.095
55714W        W20974  35.848  40.239   4.813
55715W        W20975  29.704  34.458   0.344
55716W        W20976  22.240  41.745   1.447
55717W        W20977  30.046  36.029  11.952
55718W        W20978   6.270  17.664  10.689
55719W        W20979  35.468  40.054  14.362
55720W        W20980  18.428   7.365  13.175
55721W        W20981  38.448  15.281   4.382
55722W        W20982  35.607  33.567   1.496
55723W        W20983  21.770  18.870  12.986
55724W        W20984   3.954  33.684  13.729
55725W        W20985   1.034  20.855  14.004
55726W        W20986   9.935  36.259  14.841
55727W        W20987  29.403   2.971  10.633
55728W        W20988  26.127  39.102   2.887
55729W        W20989  31.655  18.630   1.817
55730W        W20990  44.131  29.393  11.606
55731W        W20991  16.811   5.425  12.110
55732W        W20992   4.790  15.993  14.844
55733W        W20993  30.799  30.050   1.474
55734W        W20994  13.528  25.781   1.194
55735W        W20995  24.217   3.359  14.797
55736W        W20996  38.530   9.400  14.693
55737W        W20997  34.105  24.629   3.561
55738W        W20998  41.823  29.145  12.562
55739W        W20999  41.858  16.250   4.123
55740W        W21000  19.198  13.737   3.166
55741W        W21001  37.726   4.323   3.692
55742W        W21002  17.340  24.071   0.533
55743W        W21003  43.879   8.320  13.112
55744W        W21004   6.572  34.895   1.334
55745W        W21005  41.219  36.019   0.368
55746W        W21006  43.198  35.091   0.286
55747W        W21007   2.694  37.354   0.076
55748W        W21008  28.239  39.263   0.948
55749W        W21009  21.973   8.507  12.008
55750W        W21010  15.106  42.639  11.657
55751W        W21011  15.318  23.620   4.136
55752W        W21012  35.211  20.977   3.411
55753W        W21013  29.514   1.303   4.670
55754W        W21014  18.280  15.749  10.737
55755W        W21015  19.735  23.077   4.503
55756W        W21016  12.637  27.275  13.144
55757W        W21017  29.553  43.484   2.302
55758W        W21018  39.701  29.281   2.864
55759W        W21019  29.682  34.955   4.501
55760W        W21020  23.757  15.778  10.404
55761W        W21021  31.667  40.018   1.238
55762W        W21022   0.012  42.585  10.807
55763W        W21023  36.710   7.410   3.716
55764W        W21024  38.999   4.243  12.514
55765W        W21025  22.269   6.352  14.925
55766W        W21026  17.612  35.710   2.859
55767W        W21027   5.228   0.811   2.124
55768W        W21028   1.303  23.592  13.375
55769W        W21029  44.488   6.920  13.244
55770W        W21030   2.215   6.673   4.613
55771W        W21031  10.843  41.696   2.719
55772W        W21032  26.851  41.315   1.329
55773W        W21033   7.292   9.782   2.642
55774W        W21034   6.116  40.380  12.025
55775W        W21035  38.499  10.816   3.200
55776W        W21036  43.777  13.690   4.560
55777W        W21037   1.975  13.891  11.229
55778W        W21038  19.661   2.098   0.647
55779W        W21039  17.184  33.727   5.001
55780W        W21040  37.108  16.217  13.807
55781W        W21041  43.834  36.326   4.055
55782W        W21042  44.855  17.809   0.965
55783W        W21043  32.590  41.082   1.900
55784W        W21044  32.849   4.655   2.367
55785W        W21045  33.757  29.677  10.142
55786W        W21046   7.911   7.408  11.094
55787W        W21047  39.219  17.482  13.432
55788W        W21048  21.567   0.265   3.620
55789W        W21049  35.298   5.435   1.882
55790W        W21050  30.106  25.298   1.882
55791W        W21051  29.564   3.616  13.071
55792W        W21052  38.694  31.578  14.955
55793W        W21053  29.168  41.353   3.150
55794W        W21054   0.534  16.296   2.268
55795W        W21055  36.465   2.898  13.426
55796W        W21056  17.477   8.467  11.500
55797W        W21057  12.384   7.203   1.941
55798W        W21058  13.506  14.824   1.287
55799W        W21059  22.583  12.847  12.648
55800W        W21060  31.784  38.100   2.776
55801W        W21061   3.661  42.327   3.245
55802W        W21062   5.474  18.800   3.146
55803W        W21063  12.583  14.542  11.219
55804W        W21064  11.853  16.710  12.832
55805W        W21065   8.166  12.200   4.685
55806W        W21066  32.030  39.164  14.412
55807W        W21067  25.648  33.915  11.942
55808W        W21068  11.835   7.440   1.242
55809W        W21069   0.517  18.499   2.723
55810W        W21070  13.356  28.213  14.023
55811W        W21071  41.738  12.231  13.432
55812W        W21072  28.029   7.142   4.489
55813W        W21073  31.198   0.978   1.364
55814W        W21074   4.568  20.441   4.199
55815W        W21075  29.323  20.116   0.034
55816W        W21076  26.280  23.673   0.006
55817W        W21077  29.826  17.951   1.784
55818W        W21078  23.656   8.144   2.242
55819W        W21079  11.241   4.939   3.140
55820W        W21080  11.057  28.297  13.832
55821W        W21081  39.795  13.113  14.340
55822W        W21082   2.412  34.669  11.539
55823W        W21083   3.756   4.828  10.677
55824W        W21084  26.774   4.483  10.749
55825W        W21085   0.738  18.797   3.111
55826W        W21086   9.730   4.941   2.198
55827W        W21087  27.096  17.680  13.574
55828W        W21088  30.199  21.685   3.886
55829W        W21089  30.027  34.243  10.752
55830W        W21090  33.893  24.957   2.266
55831W        W21091  14.203  44.120  13.843
55832W        W21092  27.446  37.841  12.456
55833W        W21093  28.628  41.100   2.529
55834W        W21094  41.574   8.110   4.427
55835W        W21095  29.664  31.479   4.643
55836W        W21096  30.587  15.158  12.014
55837W        W21097  12.454  23.661   0.874
55838W        W21098  22.044  17.733   2.417
55839W        W21099  28.539  10.949  14.380
55840W        W21100  14.334   4.817  10.601
55841W        W21101  13.175  44.453   0.850
55842W        W21102  29.605  40.566  11.275
55843W        W21103  13.786   2.012   0.479
55844W        W21104  33.467  21.827  12.984
55845W        W21105  16.881  19.402   0.022
55846W        W21106   3.188  34.906   4.808
55847W        W21107   8.310  26.101   0.875
55848W        W21108   1.385  34.129   4.725
55849W        W21109  32.963  28.453  11.959
55850W        W21110  10.245  33.052  10.404
55851W        W21111  12.041   0.727   2.281
55852W        W21112  14.722  17.893  13.391
55853W        W21113   5.803  38.936  12.876
55854W        W21114  21.201  29.509   1.797
55855W        W21115  19.780   0.448  12.490
55856W        W21116  43.271   1.726   4.546
55857W        W21117   2.955  26.430   2.625
55858W        W21118  14.375  14.021   3.533
55859W        W21119  12.589  32.141  12.999
55860W        W21120  22.751   1.813   0.665
55861W        W21121   6.647  23.451   4.917
55862W        W21122   2.275  31.908   3.737
55863W        W21123  38.342  33.619  11.246
55864W        W21124   1.805  26.703  14.312
55865W        W21125  19.258  30.088   1.823
55866W        W21126   1.205  39.704   4.169
55867W        W21127   9.136   4.953  11.977
55868W        W21128  10.925  13.881  14.096
55869W        W21129   0.454   1.366   1.332
55870W        W21130  40.717  26.364  11.095
55871W        W21131  21.970  29.874   3.201
55872W        W21132   9.810   0.244   3.128
55873W        W21133  38.723  37.442   4.229
55874W        W21134  26.225   7.252   2.717
55875W        W21135  15.280  35.578  11.207
55876W        W21136  19.133  15.127  13.767
55877W        W21137  21.516   3.732   0.951
55878W        W21138  33.191  16.815   4.070
55879W        W21139  33.430  44.568   1.790
55880W        W21140  10.056  18.646  14.809
55881W        W21141  19.135  35.685   4.179
55882W        W21142   9.370  26.485  13.007
55883W        W21143  42.967  43.784   3.175
55884W        W21144  36.340  37.824  14.965
55885W        W21145  22.334  33.904   3.367
55886W        W21146  39.851  41.283   2.760
55887W        W21147   9.288  22.448   2.126
55888W        W21148  35.889  28.694   0.876
55889W        W21149   3.137  15.847  11.551
55890W        W21150  34.306  22.628   4.489
55891W        W21151  11.328  37.781  12.128
55892W        W21152  30.195   2.426  14.989
55893W        W21153  23.119  18.241  12.582
55894W        W21154  23.472  23.286   1.899
55895W        W21155  12.752  38.284  13.367
55896W        W21156  16.043  20.171  13.119
55897W        W21157  44.534  42.163   2.331
55898W        W21158   7.820  28.420   1.329
55899W        W21159  13.007  41.769   1.752
55900W        W21160  43.040  31.526   0.863
55901W        W21161  20.211  10.519   1.694
55902W        W21162  20.722  28.594  13.328
55903W        W21163   9.131  27.426  11.822
55904W        W21164  41.745  41.161  13.276
55905W        W21165  37.567  27.637   2.806
55906W        W21166  23.695  41.968  14.966
55907W        W21167   4.841  34.079   5.104
55908W        W21168   2.412   7.919   0.253
55909W        W21169  14.640  33.139   3.353
55910W        W21170  17.191  29.220   4.676
55911W        W21171  28.874   4.228   4.565
55912W        W21172   6.299  11.686   0.509
55913W        W21173  20.739  32.254  14.566
55914W        W21174  16.660  11.640  13.140
55915W        W21175  40.066  16.078  11.061
55916W        W21176  40.952  35.035  10.557
55917W        W21177  24.152  10.078   2.751
55918W        W21178  41.531   1.347  14.469
55919W        W21179  16.819  42.785   4.624
55920W        W21180   3.288  28.653  11.145
55921W        W21181  42.482   2.799   0.315
55922W        W21182   7.892   0.052   4.031
55923W        W21183  14.509   9.148  11.526
55924W        W21184  19.745   5.313   4.106
55925W        W21185  35.610  32.713   2.662
55926W        W21186   9.316  15.173  10.997
55927W        W21187  33.572  34.046   2.393
55928W        W21188  15.295  31.348   2.744
55929W        W21189  34.288   8.783   4.471
55930W        W21190  23.159  41.068   2.944
55931W        W21191  36.424  17.293  11.899
55932W        W21192  27.039   0.289  12.511
55933W        W21193  38.825  24.911  12.886
55934W        W21194   0.216   5.428   0.959
55935W        W21195   4.802   9.613   4.199
55936W        W21196   2.709   1.496  11.963
55937W        W21197  21.787  37.064   2.332
55938W        W21198  34.483   1.836   2.585
55939W        W21199  41.976  35.989  13.464
55940W        W21200  36.444  25.300  12.549
55941W        W21201  17.222  17.058   0.440
55942W        W21202  24.072  38.450   1.260
55943W        W21203  27.256  19.628   3.590
55944W        W21204   6.932  10.394   1.829
55945W        W21205  41.149  39.062  14.484
55946W        W21206  40.856  19.151   1.829
55947W        W21207  22.066  21.219   9.806
55948W        W21208  36.468   5.892   0.758
55949W        W21209  26.342  39.506  14.928
55950W        W21210  31.201  10.769   2.882
55951W        W21211  11.565  21.748  10.680
55952W        W21212  34.251   2.492   9.844
55953W        W21213  35.589   9.413   1.733
55954W        W21214   9.399  33.585  13.806
55955W        W21215  36.441  20.514   3.076
55956W        W21216  37.749  28.085   3.122
55957W        W21217  13.306  38.663   0.274
55958W        W21218  16.044  43.866   1.820
55959W        W21219  27.041  30.564  14.893
55960W        W21220  14.918  35.460   3.374
55961W        W21221  24.576  39.331  14.416
55962W        W21222   3.998  35.024  11.039
55963W        W21223  33.679  13.890  13.434
55964W        W21224  10.075  24.688   4.553
55965W        W21225   7.020  29.676  11.016
55966W        W21226   0.965  10.478  11.479
55967W        W21227  35.630  24.060  10.201
55968W        W21228  11.324  41.004   1.686
55969W        W21229  15.514  38.830   2.464
55970W        W21230   6.001  18.258  12.697
55971W        W21231   5.920  17.858   4.070
55972W        W21232  24.125  23.297   0.356
55973W        W21233  15.872  37.002   3.742
55974W        W21234  11.396  38.797  13.570
55975W        W21235  17.292  14.659  14.764
55976W        W21236  42.079   6.889   3.113
55977W        W21237  24.936   1.752  12.008
55978W        W21238  17.142   1.738   2.597
55979W        W21239   0.355  39.141   2.113
55980W        W21240  16.137  19.249  14.327
55981W        W21241  35.753  12.876   0.733
55982W        W21242  18.548  10.898  11.072
55983W        W21243   0.996  38.957  10.728
55984W        W21244  42.017   4.914   2.198
55985W        W21245  42.531  31.178   3.491
55986W        W21246  21.042  27.091  11.724
55987W        W21247  35.573  23.062  11.635
55988W        W21248   9.856  27.229  10.236
55989W        W21249  44.281  44.683   5.059
55990W        W21250  27.242  37.679  12.017
55991W        W21251  41.968   4.264  14.353
55992W        W21252   1.463  10.149  14.822
55993W        W21253   1.972  41.330  13.351
55994W        W21254  23.027  17.409   4.208
55995W        W21255  23.074  34.208   2.179
55996W        W21256   6.818   3.262  12.832
55997W        W21257  34.416  34.830  12.672
55998W        W21258  30.479  29.246  10.916
55999W        W21259  25.711  21.787   4.129
56000W        W21260  31.449   2.666   1.194
56001W        W21261  32.320   9.411  14.283
56002W        W21262   0.951  22.491  12.904
56003W        W21263  21.645  15.202  11.175
56004W        W21264   6.560  30.226   3.090
56005W        W21265  41.251  27.910  11.101
56006W        W21266  23.220  41.287   4.138
56007W        W21267  14.197  15.027   1.256
56008W        W21268   7.252  10.121  14.978
56009W        W21269  29.969  16.044  11.604
56010W        W21270   7.383  25.161   4.975
56011W        W21271  36.147   9.255  11.540
56012W        W21272  28.703  44.346   3.674
56013W        W21273   6.320  18.294  11.550
56014W        W21274  36.123  35.754   2.774
56015W        W21275   4.246   0.379  12.588
56016W        W21276  27.023  41.945  13.103
56017W        W21277  15.252  39.108   1.068
56018W        W21278  39.844   2.266   4.501
56019W        W21279  18.257  31.970   4.183
56020W        W21280  41.487   7.615  10.692
56021W        W21281  13.207   3.480   0.639
56022W        W21282  38.370  23.495   1.663
56023W        W21283  16.602   7.377   1.259
56024W        W21284  26.795   6.415  13.409
56025W        W21285  15.637  40.863   4.144
56026W        W21286  19.973  38.009  11.073
56027W        W21287   0.011  33.050   4.634
56028W        W21288  19.041  12.888   3.703
56029W        W21289  10.722  27.313  10.973
56030W        W21290  37.556  21.850   0.349
56031W        W21291   5.206  27.884  14.211
56032W        W21292  17.140  24.611  14.912
56033W        W21293  10.944  35.110   1.588
56034W        W21294  42.433  17.269   0.836
56035W        W21295   8.199  37.105  14.332
56036W        W21296  20.230  30.747   3.125
56037W        W21297  34.003  38.800  12.512
56038W        W21298  34.118  43.685   3.656
56039W        W21299   9.475  28.553  13.393
56040W        W21300  38.413  11.800   0.501
56041W        W21301   7.723  25.220   0.691
56042W        W21302   8.100  19.233  13.152
56043W        W21303   6.624  30.619  14.882
56044W        W21304   9.461   0.637   4.180
56045W        W21305   1.931  28.611   1.823
56046W        W21306   8.924  30.716   0.525
56047W        W21307  27.592   4.215  10.996
56048W        W21308   6.642   7.352  13.352
56049W        W21309   7.312  37.477  10.643
56050W        W21310  27.424  39.880   4.010
56051W        W21311  13.240  14.674   1.698
56052W        W21312   5.699   3.314  10.836
56053W        W21313  28.664  24.933  14.903
56054W        W21314  41.140   5.879   4.136
56055W        W21315   8.216  26.658   1.143
56056W        W21316  27.482   8.872   4.149
56057W        W21317  19.527   3.892  13.864
56058W        W21318  30.577  37.874   4.692
56059W        W21319   5.180  22.941  14.487
56060W        W21320  37.369  31.601   0.769
56061W        W21321  25.985  33.868   2.187
56062W        W21322   2.008  24.150  11.240
56063W        W21323  18.007   0.832  12.013
56064W        W21324  39.454   4.098  11.147
56065W        W21325  40.756  36.037  12.380
56066W        W21326  33.157  36.583  14.429
56067W        W21327   2.228  27.050   1.828
56068W        W21328   7.459  41.565  13.065
56069W        W21329  13.367  27.435   3.639
56070W        W21330  44.260  33.990   0.828
56071W        W21331   3.132  21.756   3.194
56072W        W21332  40.041  21.166   2.768
56073W        W21333  36.500  34.610  10.669
56074W        W21334  19.030  21.033   5.558
56075W        W21335  30.996  29.507  13.389
56076W        W21336  17.917  35.700   1.641
56077W        W21337  16.585   4.691   2.030
56078W        W21338  20.530  35.858   3.501
56079W        W21339  44.959  17.652  10.376
56080W        W21340  21.200   3.807  13.162
56081W        W21341  13.946  26.321   4.581
56082W        W21342  35.452  26.386   0.308
56083W        W21343  42.481  39.502   3.228
56084W        W21344  21.957  37.992  14.925
56085W        W21345  41.317  23.910  13.482
56086W        W21346  21.300  41.649   4.997
56087W        W21347  23.256  33.208   1.291
56088W        W21348  40.956  34.545   3.380
56089W        W21349  34.971   7.579  13.595
56090W        W21350   8.372  44.702   0.904
56091W        W21351  10.168   9.360   1.334
56092W        W21352  19.271  39.557  12.273
56093W        W21353  41.451  42.712  11.138
56094W        W21354  17.121   4.679  11.103
56095W        W21355  20.711  26.515   0.332
56096W        W21356  11.224  33.020  13.832
56097W        W21357  32.485  37.920   4.561
56098W        W21358  26.925   9.267   2.065
56099W        W21359  39.570   5.748   2.801
56100W        W21360  21.491  14.342  10.757
56101W        W21361   5.381  29.452   1.694
56102W        W21362  38.619  38.899   2.641
56103W        W21363  25.315  19.069   1.747
56104W        W21364  13.141   2.804   4.636
56105W        W21365   6.178  36.862   3.596
56106W        W21366  27.037  44.724  11.672
56107W        W21367  41.490  24.180   1.955
56108W        W21368  31.096   6.863   1.456
56109W        W21369  43.796   5.757  10.913
56110W        W21370   6.410   5.344  13.333
56111W        W21371  44.311  34.924   3.405
56112W        W21372  27.652   5.505   1.336
56113W        W21373  27.346  22.741  14.077
56114W        W21374  27.900   5.047   0.427
56115W        W21375  43.892   2.095  14.148
56116W        W21376   6.609   9.527   3.083
56117W        W21377   0.791  17.034  14.534
56118W        W21378  19.587  12.984   2.756
56119W        W21379  19.985  13.753  14.317
56120W        W21380  16.838  27.704   2.497
56121W        W21381  29.582   2.287  12.507
56122W        W21382  28.858  13.655  14.260
56123W        W21383  12.744  11.637   3.777
56124W        W21384  34.999  35.038  13.924
56125W        W21385  33.057   6.438   0.834
56126W        W21386  40.190   2.434  12.180
56127W        W21387  21.115  33.667  12.592
56128W        W21388  22.031   3.112  12.204
56129W        W21389  25.562  35.981  11.890
56130W        W21390  44.423  17.716   0.119
56131W        W21391  16.069  15.798  14.070
56132W        W21392   5.927   8.821   1.225
56133W        W21393  25.822  22.200  10.952
56134W        W21394  15.738  40.786   2.172
56135W        W21395   5.171  25.767   3.269
56136W        W21396   7.265  22.121   3.079
56137W        W21397  36.998  15.878   3.194
56138W        W21398  29.966   9.242  14.114
56139W        W21399  20.102  26.257  11.975
56140W        W21400   1.879  16.722  11.291
56141W        W21401  37.975  13.402  12.855
56142W        W21402  11.420  28.502  13.524
56143W        W21403  13.674  19.317  11.642
56144W        W21404   3.517  33.463   0.808
56145W        W21405  15.089   7.874   3.683
56146W        W21406  30.591  21.401  12.056
56147W        W21407  13.430  10.910   0.019
56148W        W21408  33.320  31.308  10.703
56149W        W21409  18.039   2.281  11.535
56150W        W21410  25.708  35.514   4.931
56151W        W21411  40.950  13.963   9.881
56152W        W21412  13.840  34.605  12.933
56153W        W21413  22.800  42.337   4.702
56154W        W21414  43.370  21.899  12.155
56155W        W21415  40.847  16.864   4.743
56156W        W21416   8.381  43.897  10.813
56157W        W21417  33.308  28.611   4.982
56158W        W21418  28.930  42.748   1.988
56159W        W21419  12.764   0.606   3.414
56160W        W21420   5.422   1.641   1.341
56161W        W21421  32.550  27.921   3.575
56162W        W21422  38.410   2.115   1.408
56163W        W21423  42.035  28.373   2.832
56164W        W21424  26.523  13.025   0.484
56165W        W21425  17.930  41.379  10.576
56166W        W21426  33.581  38.861   2.291
56167W        W21427  35.288   6.002  10.576
56168W        W21428  38.983   1.000  11.053
56169W        W21429  43.573  11.980  12.957
56170W        W21430  23.639  19.453  14.488
56171W        W21431  30.928  27.494  11.054
56172W        W21432   0.058  44.130  14.445
56173W        W21433  13.849  34.090  13.111
56174W        W21434   3.987   6.115  14.618
56175W        W21435  12.989  42.956  10.348
56176W        W21436  24.970  22.677  10.660
56177W        W21437  20.168   9.562  13.845
56178W        W21438   5.034  39.082   4.117
56179W        W21439  21.118  17.630  12.114
56180W        W21440  28.894   2.401  13.118
56181W        W21441  15.187  39.128  14.285
56182W        W21442  30.482  23.564   4.101
56183W        W21443   4.245  23.987  13.050
56184W        W21444  29.937  43.241  13.521
56185W        W21445  36.709  22.688   2.454
56186W        W21446  24.681  16.191  11.549
56187W        W21447  22.366  31.457   4.709
56188W        W21448  20.148  24.583   2.912
56189W        W21449   8.976   6.581   3.693
56190W        W21450  14.535  20.792   2.469
56191W        W21451   7.277  29.515  13.862
56192W        W21452  35.845  17.622   3.996
56193W        W21453  38.735  26.019   4.962
56194W        W21454  25.946  10.867  12.616
56195W        W21455  29.775  20.032   9.876
56196W        W21456   3.666   1.272  11.171
56197W        W21457  42.505  38.560  11.496
56198W        W21458  20.931   9.739  14.524
56199W        W21459  28.603   6.652  13.870
56200W        W21460   1.481  18.094   1.853
56201W        W21461  29.069  27.531  11.604
56202W        W21462  41.052   2.297  13.490
56203W        W21463  35.446  31.715   1.818
56204W        W21464  37.549  13.041  14.700
56205W        W21465  38.563  21.761   4.370
56206W        W21466  41.207  10.353   0.285
56207W        W21467  41.058  41.792  14.494
56208W        W21468  30.078  38.226   3.882
56209W        W21469  40.373  42.992   1.046
56210W        W21470  29.473  16.113   2.125
56211W        W21471   0.478  43.043   0.062
56212W        W21472   8.685   2.753   0.357
56213W        W21473  29.391  44.352  13.855
56214W        W21474   0.375   1.834   2.282
56215W        W21475   0.680  44.775  11.333
56216W        W21476  20.272  17.697  10.603
56217W        W21477   0.447  28.934   0.911
56218W        W21478  11.175  30.330   4.052
56219W        W21479  39.980  21.463   2.284
56220W        W21480  10.257  18.877   0.755
56221W        W21481  39.363  26.383   2.411
56222W        W21482  30.038  22.205   3.089
56223W        W21483   9.741  34.097  13.747
56224W        W21484   1.931  11.640   4.734
56225W        W21485  15.681  17.458   1.914
56226W        W21486  30.556  15.051   1.888
56227W        W21487  18.805  23.973   5.336
56228W        W21488   5.769   5.499  14.022
56229W        W21489   1.356   4.737   3.717
56230W        W21490  26.220  30.336   2.423
56231W        W21491  29.074  26.880  13.532
56232W        W21492   3.743  30.103   3.397
56233W        W21493  18.397   9.273  12.290
56234W        W21494  25.740  14.705   0.866
56235W        W21495  22.520  14.786  11.754
56236W        W21496  18.273  33.336   3.601
56237W        W21497  32.648  10.193  12.418
56238W        W21498  34.499  32.236   1.848
56239W        W21499  31.979  14.225   4.661
56240W        W21500  17.755  38.090  11.891
56241W        W21501  15.995  28.133  13.811
56242W        W21502  42.766  32.166   1.388
56243W        W21503  18.283  15.591   4.684
56244W        W21504  23.143  20.921   9.769
56245W        W21505   1.401  13.024  10.401
56246W        W21506  27.345  39.031   3.187
56247W        W21507   5.236  16.836  14.395
56248W        W21508  33.841  12.714  10.919
56249W        W21509   7.211  11.301   0.313
56250W        W21510  22.181   5.709   1.793
56251W        W21511  41.056  30.552  11.598
56252W        W21512  32.268  40.776   3.699
56253W        W21513  23.106   8.327   0.865
56254W        W21514  28.859  25.886  13.393
56255W        W21515  18.246  12.284  11.556
56256W        W21516  13.494  12.597   0.436
56257W        W21517   7.098  23.692  10.827
56258W        W21518  13.853  14.735   4.885
56259W        W21519  17.333  14.543   0.669
56260W        W21520   1.473   9.758   1.221
56261W        W21521  37.646  17.811   2.651
56262W        W21522  32.846  35.309  11.341
56263W        W21523  33.181  28.053  11.740
56264W        W21524  43.011   7.028  14.087
56265W        W21525  37.898   8.504   4.104
56266W        W21526  35.392  16.218   2.377
56267W        W21527  33.333  15.289  11.672
56268W        W21528  23.776  15.100   1.731
56269W        W21529  27.957  39.554  11.094
56270W        W21530  26.818  28.533   3.787
56271W        W21531  36.145  11.905   0.816
56272W        W21532  42.478  39.787  14.899
56273W        W21533   5.754  35.816  13.494
56274W        W21534  11.777  34.635   1.713
56275W        W21535   8.585  30.345  13.090
56276W        W21536  39.827  34.153   3.582
56277W        W21537   9.413  44.245  11.493
56278W        W21538  13.616  20.642   4.066
56279W        W21539  37.040  31.495  11.028
56280W        W21540   0.730  40.639  12.543
56281W        W21541  30.681  38.312  11.138
56282W        W21542  39.492   3.881   0.373
56283W        W21543   3.497   8.927   4.024
56284W        W21544  40.690  25.238  12.900
56285W        W21545  12.847  27.116  13.587
56286W        W21546  33.229  39.892  13.828
56287W        W21547  20.666  34.944  12.458
56288W        W21548  42.079   1.842   0.114
56289W        W21549  28.020  38.408   0.080
56290W        W21550  17.994  33.189  13.992
56291W        W21551  32.501  12.109   5.141
56292W        W21552  31.964  44.720   4.436
56293W        W21553  13.758  16.223   4.205
56294W        W21554  20.162  21.631   1.393
56295W        W21555  44.704   0.465  13.581
56296W        W21556   2.908  42.743  12.125
56297W        W21557  20.937  42.357   2.360
56298W        W21558   6.731   0.404   4.230
56299W        W21559  32.067  20.817  11.598
56300W        W21560  39.337  18.628  12.632
56301W        W21561  41.971  19.269  14.021
56302W        W21562  15.408  13.816   3.769
56303W        W21563  23.930   8.419  11.837
56304W        W21564  31.898  41.215  13.501
56305W        W21565   3.956  23.992  11.227
56306W        W21566  32.671  35.886   3.071
56307W        W21567  31.914  42.971  13.738
56308W        W21568   9.853  38.178   0.211
56309W        W21569  26.791   2.705  12.252
56310W        W21570  23.528  16.749  10.871
56311W        W21571  23.047  25.740   4.585
56312W        W21572  42.241   9.784   1.926
56313W        W21573  19.075  15.610  11.082
56314W        W21574  40.660   1.934   3.318
56315W        W21575  33.988  21.167  13.572
56316W        W21576  21.070  11.588  13.509
56317W        W21577  39.027   5.357  13.365
56318W        W21578  23.946  32.065   2.768
56319W        W21579  37.141   7.658  12.899
56320W        W21580  11.569  17.634  12.664
56321W        W21581   9.801  21.447  11.900
56322W        W21582  29.465   2.918  13.727
56323W        W21583  38.794  33.265  12.407
56324W        W21584  10.426  32.987  14.494
56325W        W21585  26.224   6.729  12.958
56326W        W21586   9.622  29.126  10.311
56327W        W21587  23.574  22.797   2.830
56328W        W21588  42.557  36.927  13.469
56329W        W21589  28.421  20.850   4.113
56330W        W21590   5.702  18.563  12.403
56331W        W21591  19.610  28.596  11.911
56332W        W21592  12.958  34.371  12.690
56333W        W21593   8.678  30.485   1.859
56334W        W21594   3.338   0.277   1.990
56335W        W21595  29.652  34.425  14.106
56336W        W21596   8.682  36.783  12.964
56337W        W21597  24.083  40.617  11.635
56338W        W21598  45.000  38.374   4.082
56339W        W21599  40.945  35.947   2.699
56340W        W21600  13.301  28.947  11.959
56341W        W21601  28.840  33.063   0.655
56342W        W21602  36.573  20.322  11.811
56343W        W21603  25.517  38.373   2.092
56344W        W21604  33.425  27.529   2.218
56345W        W21605  32.948  12.009  12.960
56346W        W21606  44.908  34.846  13.929
56347W        W21607   9.642  31.358  13.895
56348W        W21608  21.145  15.184  14.162
56349W        W21609   8.713   9.704  10.500
56350W        W21610   2.283   8.333  12.548
56351W        W21611  20.966  23.913   2.216
56352W        W21612  42.247  20.634   1.227
56353W        W21613  14.526   5.604  12.093
56354W        W21614   6.373   9.103  12.050
56355W        W21615  18.166  12.361   1.455
56356W        W21616   6.421  22.279   1.113
56357W        W21617  17.624  16.008   2.844
56358W        W21618  17.385   1.519  10.642
56359W        W21619  25.546   9.988  12.117
56360W        W21620  10.150  18.716   4.551
56361W        W21621   5.859  16.077  13.039
56362W        W21622   5.905   9.830   4.669
56363W        W21623  11.139  19.485  13.052
56364W        W21624  32.687  18.451   4.436
56365W        W21625  16.239  29.162  14.200
56366W        W21626  12.282  30.222  14.429
56367W        W21627  30.410  10.153  12.399
56368W        W21628  27.042  27.438  12.008
56369W        W21629  14.247   2.213  14.795
56370W        W21630   7.210  11.944   1.007
56371W        W21631  24.906  17.107  12.492
56372W        W21632  37.652  23.037  14.464
56373W        W21633   0.458  30.054  13.784
56374W        W21634  35.855  25.737  13.406
56375W        W21635  20.308  14.172  11.900
56376W        W21636  21.101  38.775   1.717
56377W        W21637  38.616  29.580   0.980
56378W        W21638  26.273  42.351   0.844
56379W        W21639  26.737  10.826  11.460
56380W        W21640  12.263  16.101   4.788
56381W        W21641  24.462   1.624  14.291
56382W        W21642   1.428  40.504   1.624
56383W        W21643  29.443  37.314  13.807
56384W        W21644   9.704  11.443   4.682
56385W        W21645  22.699  35.380   1.263
56386W        W21646  23.229  22.726   4.715
56387W        W21647   0.484  29.068  12.008
56388W        W21648  15.802  28.129   2.880
56389W        W21649  12.272  27.058  12.548
56390W        W21650  10.034   8.862   4.289
56391W        W21651  11.157  19.354   0.735
56392W        W21652  37.588   5.916   0.474
56393W        W21653  33.214  19.093   2.215
56394W        W21654  34.412   3.268  13.029
56395W        W21655  23.924  15.601   2.769
56396W        W21656  10.924   8.780  13.152
56397W        W21657  43.178   2.024  14.989
56398W        W21658  42.464  43.726  10.990
56399W        W21659  10.119   6.902   1.807
56400W        W21660   4.351  43.022  12.439
56401W        W21661  36.496   0.539   2.913
56402W        W21662  42.874  33.598  13.082
56403W        W21663   3.165  30.447   0.426
56404W        W21664  33.471  37.535   2.663
56405W        W21665  34.478  21.277  12.958
56406W        W21666  10.667  23.175  12.605
56407W        W21667   6.715  21.374  12.218
56408W        W21668  42.281  31.643   2.174
56409W        W21669  14.258  44.351  12.491
56410W        W21670   8.651  33.580   0.011
56411W        W21671   7.200  44.760   1.860
56412W        W21672   5.481  20.649   1.391
56413W        W21673  38.341  39.424   4.482
56414W        W21674  10.723  36.189  13.021
56415W        W21675   6.194   6.071   4.276
56416W        W21676  27.760  23.228  12.214
56417W        W21677  35.513  10.623  14.481
56418W        W21678  44.012  30.016   1.174
56419W        W21679  44.444  12.412  11.243
56420W        W21680  20.220  44.337   3.669
56421W        W21681  41.341  36.481  12.961
56422W        W21682  33.597  14.817  13.301
56423W        W21683  34.799  31.962  13.878
56424W        W21684  25.474   1.130   2.766
56425W        W21685  40.587  25.832   2.961
56426W        W21686  24.950  41.564  12.942
56427W        W21687  38.103  20.224   0.918
56428W        W21688  21.351  20.124   2.856
56429W        W21689  41.367  31.501   2.236
56430W        W21690  43.307  26.199  12.467
56431W        W21691   1.258  44.836   2.114
56432W        W21692   9.934  23.525  13.971
56433W        W21693  37.883  42.856  13.400
56434W        W21694  12.769   1.864   0.451
56435W        W21695  18.156  22.641   5.018
56436W        W21696  17.509  27.689  13.879
56437W        W21697  36.493   3.513   0.491
56438W        W21698   0.843  15.880   2.163
56439W        W21699  26.106  27.934  14.903
56440W        W21700  29.012  39.038   3.147
56441W        W21701  42.397   9.116   4.177
56442W        W21702   7.766   2.246   4.495
56443W        W21703  23.236   9.787  14.692
56444W        W21704  34.481   2.538  12.065
56445W        W21705   0.047  26.423  14.945
56446W        W21706  26.063  14.554  12.077
56447W        W21707  13.470  17.741   3.308
56448W        W21708  34.010   1.954  14.949
56449W        W21709  42.872  39.488   1.341
56450W        W21710  28.380  21.561   2.629
56451W        W21711  29.803  26.320   1.221
56452W        W21712  33.960  10.177   2.145
56453W        W21713  15.005  10.684  13.461
56454W        W21714  21.467   7.389   2.204
56455W        W21715  34.539  24.591   0.823
56456W        W21716  37.851  44.759   4.858
56457W        W21717   1.891   1.816  11.633
56458W        W21718  35.038  41.800   4.637
56459W        W21719   6.901   4.910   3.125
56460W        W21720  26.933  44.039   3.812
56461W        W21721  29.799  12.654   4.541
56462W        W21722  35.899  10.214   2.233
56463W        W21723  13.362   4.467   3.046
56464W        W21724  42.748  17.128  13.778
56465W        W21725  42.979  42.215  13.169
56466W        W21726   7.418  29.338   3.128
56467W        W21727  23.902  40.317  12.010
56468W        W21728  39.306  36.963  14.665
56469W        W21729  35.462  27.929   0.476
56470W        W21730  32.433   2.278   1.607
56471W        W21731  11.318  19.140  14.511
56472W        W21732  30.509  20.868  12.964
56473W        W21733  37.109   8.161  14.950
56474W        W21734  24.951   6.987  13.497
56475W        W21735  31.214  24.081   3.607
56476W        W21736   7.354   8.163  11.960
56477W        W21737   1.719   0.361  10.555
56478W        W21738  41.606  40.028   1.768
56479W        W21739   3.890  16.079   3.829
56480W        W21740  13.816  30.657   0.254
56481W        W21741   0.870  15.196  14.453
56482W        W21742  37.403  32.857  14.853
56483W        W21743  19.268   4.919  13.054
56484W        W21744  27.011  34.864  12.017
56485W        W21745  32.335  12.117  12.476
56486W        W21746  21.487  20.696  12.393
56487W        W21747  41.398  33.053   4.162
56488W        W21748  12.353  17.180   1.883
56489W        W21749  40.851  21.068   3.126
56490W        W21750   4.349  17.124  14.337
56491W        W21751  19.089   8.280   2.485
56492W        W21752  21.446  18.329   5.492
56493W        W21753   9.752   8.499  13.790
56494W        W21754   1.901   0.512   1.237
56495W        W21755   2.968  32.828   2.851
56496W        W21756   4.942  42.541   2.283
56497W        W21757  40.353   8.297  14.937
56498W        W21758  27.318  33.090   1.164
56499W        W21759   0.181  29.859  13.066
56500W        W21760  20.078  10.724   2.645
56501W        W21761  26.726  29.625  12.915
56502W        W21762  11.704  10.220  14.261
56503W        W21763  41.465  28.780  12.398
56504W        W21764  30.418  38.507   3.579
56505W        W21765   6.946   7.710   1.352
56506W        W21766  14.121  41.314   4.874
56507W        W21767  40.579  22.459  14.365
56508W        W21768  28.869  20.021   0.355
56509W        W21769  42.823  38.622  11.063
56510W        W21770   7.809   9.556   2.370
56511W        W21771  24.224  26.542  14.951
56512W        W21772  22.450  29.146  13.043
56513W        W21773  13.119  36.214  14.114
56514W        W21774  39.047  37.027   2.941
56515W        W21775  21.086  20.292  10.210
56516W        W21776  11.278  39.554   4.422
56517W        W21777  12.098   7.482  10.537
56518W        W21778  11.145  42.464  13.361
56519W        W21779  38.952   3.904  12.099
56520W        W21780  18.570  28.482   1.861
56521W        W21781  39.884  40.574  11.696
56522W        W21782  15.001  27.264   0.940
56523W        W21783  41.912  36.421  13.766
56524W        W21784  22.598  14.135  12.233
56525W        W21785  42.982   6.870  13.001
56526W        W21786  35.828   6.191  11.241
56527W        W21787  10.184  15.281   4.607
56528W        W21788  39.647  18.390  13.451
56529W        W21789   3.022  25.631   2.901
56530W        W21790  30.381  17.723  14.296
56531W        W21791   9.501  24.250  11.930
56532W        W21792  29.468  21.303  14.464
56533W        W21793  14.026   2.510   2.718
56534W        W21794   9.815   4.015  13.038
56535W        W21795   5.806  22.561   2.859
56536W        W21796   0.820  17.118   0.856
56537W        W21797  19.369  36.686   2.142
56538W        W21798  37.622  16.349   1.835
56539W        W21799  17.149  11.469  13.097
56540W        W21800  31.850  18.310  13.731
56541W        W21801  33.632   9.312   2.599
56542W        W21802   7.351  34.280  11.178
56543W        W21803  37.550  24.001   4.059
56544W        W21804   8.091  21.783  12.235
56545W        W21805  11.652  24.331   0.213
56546W        W21806  16.031  42.904  14.275
56547W        W21807  31.523  11.215   0.857
56548W        W21808  13.740  19.859   2.279
56549W        W21809  20.586  23.956   4.795
56550W        W21810  34.219   6.713  12.986
56551W        W21811  30.147  32.772   4.952
56552W        W21812  28.516  11.456  14.531
56553W        W21813  14.176  12.717   3.388
56554W        W21814   4.721  13.630   2.876
56555W        W21815   2.750  30.965  12.037
56556W        W21816  31.164   2.171  11.968
56557W        W21817  29.737  29.407  13.094
56558W        W21818  11.401   5.383   0.822
56559W        W21819  26.438  22.273  14.847
56560W        W21820  18.016  41.789  12.906
56561W        W21821   7.362  14.223   4.184
56562W        W21822   2.492   1.740   3.703
56563W        W21823   9.204  40.340   4.554
56564W        W21824   3.197  36.459  14.004
56565W        W21825   7.299   4.384  11.443
56566W        W21826  34.601  14.885  10.520
56567W        W21827   7.832  34.888  14.168
56568W        W21828  31.083  44.995   2.258
56569W        W21829  10.754  30.812  11.429
56570W        W21830  37.507   2.745  14.909
56571W        W21831  44.397  29.180  10.083
56572W        W21832  43.685  34.792   2.384
56573W        W21833  29.958  43.375  10.726
56574W        W21834  25.922  31.006   1.699
56575W        W21835  27.139  37.965  12.843
56576W        W21836  41.156  14.162  10.349
56577W        W21837  15.818  33.854  14.843
56578W        W21838  17.155   3.343   4.735
56579W        W21839  14.275   8.950  11.115
56580W        W21840   2.225  22.044  13.165
56581W        W21841  29.619  19.428  12.522
56582W        W21842  10.432  39.894  14.818
56583W        W21843  43.963   7.417   3.763
56584W        W21844  11.617  19.270   3.767
56585W        W21845   5.861   8.693  11.231
56586W        W21846   2.295   4.690   3.443
56587W        W21847   5.344   7.734  10.480
56588W        W21848  35.853  14.265  14.332
56589W        W21849  36.649   6.875   1.709
56590W        W21850   7.981  12.231   1.834
56591W        W21851   6.999  41.519   0.653
56592W        W21852   0.275  42.299   0.743
56593W        W21853  32.283  24.590  13.408
56594W        W21854  41.378  35.934   3.578
56595W        W21855  41.882  33.371  13.939
56596W        W21856  32.506  29.403   1.261
56597W        W21857  22.586  29.639   3.293
56598W        W21858  12.734  32.714   2.237
56599W        W21859  41.176  40.636  14.578
56600W        W21860  28.615  38.503  13.630
56601W        W21861  16.642  29.444  14.406
56602W        W21862   1.911  32.155  12.882
56603W        W21863   1.428  15.677   0.935
56604W        W21864   7.664  32.574   2.772
56605W        W21865  34.195   8.248  12.211
56606W        W21866  25.096  10.574   1.205
56607W        W21867  36.024  31.877   0.244
56608W        W21868  26.257  27.989  13.983
56609W        W21869   5.160  10.759   3.759
56610W        W21870  24.839   5.964   4.732
56611W        W21871  37.079  37.368   1.201
56612W        W21872  32.825  23.855   2.973
56613W        W21873  12.121  14.055  14.258
56614W        W21874  26.591  12.157  12.845
56615W        W21875  10.486   3.475   4.977
56616W        W21876  22.240   8.618  13.973
56617W        W21877  38.278  23.720   3.577
56618W        W21878  26.861  36.166  12.617
56619W        W21879  36.592   8.328  11.375
56620W        W21880   1.178  18.654  11.726
56621W        W21881  42.294   6.306   3.662
56622W        W21882   3.304  29.088  14.746
56623W        W21883   1.280  28.006  12.340
56624W        W21884  36.085  29.196  13.676
56625W        W21885  42.523  34.538   3.714
56626W        W21886  13.162  40.786   2.593
56627W        W21887  19.251   1.455  12.147
56628W        W21888   9.339  12.852   2.895
56629W        W21889  13.595   2.914  13.519
56630W        W21890  16.008  25.122  12.926
56631W        W21891  19.111  26.676  11.209
56632W        W21892  10.280   1.969   1.902
56633W        W21893  31.869  12.703  11.656
56634W        W21894  17.126  40.477   1.016
56635W        W21895  38.714  17.575  11.148
56636W        W21896  24.363  23.589  12.533
56637W        W21897  14.384  32.916   0.241
56638W        W21898   7.405  36.984   4.033
56639W        W21899  35.433  19.859   1.302
56640W        W21900  42.613  22.092   3.188
56641W        W21901  20.517  42.886  12.618
56642W        W21902  29.442  44.596  14.337
56643W        W21903   0.472  17.849   4.560
56644W        W21904   2.491  43.789  13.894
56645W        W21905  24.066  12.089   4.240
56646W        W21906  28.784   7.762  13.242
56647W        W21907  25.708  26.542  13.332
56648W        W21908  35.173  35.830  10.572
56649W        W21909  24.724  41.790   1.456
56650W        W21910   2.785  27.094   4.554
56651W        W21911  21.011  31.346  11.161
56652W        W21912  16.535  35.402  13.960
56653W        W21913   7.419  15.300   3.119
56654W        W21914  27.626  23.474  12.659
56655W        W21915   4.343  14.456   1.511
56656W        W21916  23.065  34.332   0.062
56657W        W21917  13.662  37.965   0.679
56658W        W21918   8.120  26.413  12.138
56659W        W21919  15.613  32.619   1.953
56660W        W21920  10.891  10.324   0.252
56661W        W21921  13.952  27.560  14.114
56662W        W21922   0.877   1.510   1.616
56663W        W21923  32.331   8.344  11.641
56664W        W21924  33.447   7.361   1.703
56665W        W21925  36.045  44.340   3.714
56666W        W21926  22.223  17.476  14.975
56667W        W21927  17.057  26.976  12.923
56668W        W21928  15.072  27.894  13.849
56669W        W21929  15.773  29.090  14.523
56670W        W21930   1.652  13.173  11.393
56671W        W21931  17.086  38.005   0.280
56672W        W21932   2.149  32.412   4.649
56673W        W21933   0.161  24.570  10.592
56674W        W21934  30.082  36.607  13.500
56675W        W21935  41.958  39.901   2.111
56676W        W21936  22.259  25.864  11.195
56677W        W21937   6.411  20.560  14.532
56678W        W21938  32.677  44.213  11.039
56679W        W21939  43.511   0.689   3.766
56680W        W21940  31.050   8.197   0.946
56681W        W21941  37.751  28.035  12.450
56682W        W21942  26.511  16.008  14.445
56683W        W21943  26.084  37.111   1.299
56684W        W21944  28.690  34.511   0.334
56685W        W21945   1.746   0.253   1.828
56686W        W21946  43.533  38.527   3.861
56687W        W21947  11.638  37.967   0.374
56688W        W21948  37.566  36.076   2.209
56689W        W21949   9.656   9.219  14.781
56690W        W21950  31.209   0.572  10.274
56691W        W21951  15.390  16.782   0.720
56692W        W21952  22.206  16.038   4.241
56693W        W21953  27.489  14.636  13.108
56694W        W21954   6.654  32.044   1.142
56695W        W21955  23.972   0.434  13.460
56696W        W21956  22.860  44.258   3.354
56697W        W21957  16.111  34.459  13.078
56698W        W21958  43.976   5.926   0.899
56699W        W21959  36.349  28.724   0.657
56700W        W21960  32.540  39.446  13.363
56701W        W21961   4.419   5.029   1.860
56702W        W21962  29.875  21.297   3.755
56703W        W21963  23.580  12.237   0.823
56704W        W21964  27.926  19.527   0.728
56705W        W21965  10.551   5.483   4.047
56706W        W21966   2.923  14.917  13.520
56707W        W21967  24.168  33.579  12.644
56708W        W21968  14.293  39.513  12.583
56709W        W21969  27.489   6.577   3.687
56710W        W21970  41.903  29.810   1.233
56711W        W21971  16.388   3.260  11.964
56712W        W21972  11.962   7.512   0.333
56713W        W21973  32.107  21.072   1.668
56714W        W21974   6.121  17.208   3.369
56715W        W21975  12.562  16.709  14.900
56716W        W21976  32.414  33.939   2.175
56717W        W21977  34.027  16.637   0.850
56718W        W21978  18.065  39.843   3.220
56719W        W21979   6.020  13.439  14.295
56720W        W21980  15.661  43.298  13.113
56721W        W21981   1.750   7.639   4.807
56722W        W21982  17.738  21.757  13.925
56723W        W21983   3.342  21.855   2.204
56724W        W21984  34.597  17.662   0.820
56725W        W21985  17.736  30.819  11.430
56726W        W21986  16.834  40.954  13.239
56727W        W21987  31.774  30.950  12.606
56728W        W21988  29.204  32.054   3.264
56729W        W21989  35.616  16.751   3.113
56730W        W21990  42.771  39.945   3.679
56731W        W21991   1.914  39.562   4.542
56732W        W21992  26.591  20.540  13.622
56733W        W21993  22.169  41.378  10.603
56734W        W21994  34.902  27.893  14.296
56735W        W21995  25.567  32.393  13.868
56736W        W21996  23.693  16.736  13.814
56737W        W21997  23.240  14.868  13.935
56738W        W21998  40.305  14.786   3.278
56739W        W21999   9.174  26.607   1.422
56740W        W22000  25.564   3.640  13.568
56741W        W22001   6.010  27.540  14.211
56742W        W22002  21.087  17.091   1.410
56743W        W22003   0.233  31.410   0.964
56744W        W22004  14.749  37.546  10.289
56745W        W22005  21.224   4.005  11.165
56746W        W22006  44.874   7.295   0.336
56747W        W22007  23.816  14.359   2.308
56748W        W22008  10.268  37.804   1.936
56749W        W22009  32.150  30.412   2.750
56750W        W22010  42.421  39.828   1.923
56751W        W22011  14.687  35.396   3.833
56752W        W22012  42.850  40.374   4.011
56753W        W22013   4.002  33.377  14.349
56754W        W22014   9.063   7.759  13.987
56755W        W22015   8.828  36.736  12.110
56756W        W22016  33.138  29.453  11.172
56757W        W22017  12.323  12.140   4.130
56758W        W22018  16.155   1.479  11.955
56759W        W22019  27.535  24.105   1.132
56760W        W22020  18.971  19.525  13.104
56761W        W22021  36.575  18.788  13.955
56762W        W22022  18.574  43.323  12.584
56763W        W22023  22.541   9.732   1.390
56764W        W22024   8.663  20.975  14.014
56765W        W22025  16.234  19.957  13.564
56766W        W22026   3.486   7.485   3.885
56767W        W22027  28.005   9.284   2.771
56768W        W22028  38.950  30.245   1.704
56769W        W22029  44.508  13.323  13.958
56770W        W22030  42.456  28.994   2.190
56771W        W22031  31.631  30.037  14.986
56772W        W22032  33.055  42.153  12.536
56773W        W22033  44.949  14.931  10.285
56774W        W22034  28.394   2.218   2.990
56775W        W22035   7.154  31.323  13.632
56776W        W22036  38.505  12.732  14.518
56777W        W22037  12.471  14.043   3.296
56778W        W22038  31.893  34.417   1.296
56779W        W22039  30.630  24.236   1.472
56780W        W22040  12.558  44.060   2.919
56781W        W22041  18.194  39.309   0.413
56782W        W22042  44.193  13.307  11.914
56783W        W22043  22.863   2.363   2.173
56784W        W22044  35.273  39.091  12.138
56785W        W22045   7.062   5.047   2.245
56786W        W22046  16.324  10.224   1.085
56787W        W22047  21.715  40.107  12.523
56788W        W22048   5.654  19.071  13.887
56789W        W22049  20.180  32.528  10.629
56790W        W22050   6.346   3.197  14.038
56791W        W22051   8.713  31.654  11.028
56792W        W22052  18.546  14.634   1.228
56793W        W22053   7.753  20.253  14.965
56794W        W22054   4.769  35.687  14.068
56795W        W22055  22.593   7.767  11.067
56796W        W22056  21.160  44.803   3.019
56797W        W22057  22.698  30.959   0.403
56798W        W22058  12.135   5.839   2.712
56799W        W22059  17.099  31.463   1.645
56800W        W22060  34.160  20.231   2.315
56801W        W22061   2.328   5.563   1.093
56802W        W22062  42.223  10.273  13.534
56803W        W22063  34.481  35.746   4.566
56804W        W22064  28.750  23.181  11.991
56805W        W22065  19.437   9.098   2.321
56806W        W22066  32.176  10.377  12.642
56807W        W22067  23.006  34.734   2.849
56808W        W22068  21.668  34.225   2.400
56809W        W22069  32.539  23.142   4.055
56810W        W22070   8.593  44.639   0.214
56811W        W22071  31.164  42.537  14.402
56812W        W22072   5.882  42.581  12.127
56813W        W22073  33.276  40.715  14.288
56814W        W22074  26.014  12.949   0.937
56815W        W22075   4.458   6.380   2.876
56816W        W22076   3.330  24.842   2.339
56817W        W22077  10.465   8.567   5.158
56818W        W22078  19.634  31.654  14.312
56819W        W22079  11.409  18.293   3.664
56820W        W22080  32.290   0.781  14.351
56821W        W22081  24.052  40.379  14.983
56822W        W22082  30.134  10.307  11.572
56823W        W22083  10.258  30.636   0.567
56824W        W22084   7.713  26.748  13.444
56825W        W22085  33.135  12.176  10.808
56826W        W22086  30.090  27.218   0.192
56827W        W22087   0.439  17.175  12.383
56828W        W22088  28.503  33.530  13.594
56829W        W22089  37.360  37.489  13.926
56830W        W22090   4.445  19.232   2.622
56831W        W22091   9.274  36.083  13.176
56832W        W22092  22.969  34.614   1.397
56833W        W22093   2.705  33.554  11.066
56834W        W22094   5.781  28.456   4.065
56835W        W22095  36.624  38.734   1.880
56836W        W22096  10.759  37.742   1.751
56837W        W22097  21.041  35.976  10.019
56838W        W22098  36.147   9.095   0.308
56839W        W22099  24.502  15.332   4.638
56840W        W22100   9.410  44.965  14.073
56841W        W22101   9.923  23.688   1.797
56842W        W22102  16.835   5.739  12.984
56843W        W22103   8.626  38.052  14.059
56844W        W22104  20.329  38.267  14.834
56845W        W22105  17.435  37.276  12.088
56846W        W22106  15.271  38.555   4.248
56847W        W22107  19.108  31.404   1.315
56848W        W22108  15.173  19.322   0.401
56849W        W22109  25.561  12.091   3.184
56850W        W22110  27.087  37.061   0.295
56851W        W22111  38.952  14.035   1.049
56852W        W22112  10.197  30.285   4.607
56853W        W22113  11.187  12.823  12.223
56854W        W22114  39.552  11.283   4.730
56855W        W22115   1.905  17.328   3.739
56856W        W22116   7.426  24.687   0.818
56857W        W22117  41.600   5.105  14.197
56858W        W22118  25.512  14.381  11.883
56859W        W22119   1.989   6.716  14.510
56860W        W22120  25.298  23.209  12.762
56861W        W22121  23.542  20.210  13.790
56862W        W22122  43.384  16.528   3.729
56863W        W22123  17.122   3.589   0.435
56864W        W22124  43.527  20.240   4.298
56865W        W22125  35.837   9.659  11.609
56866W        W22126  21.517  10.198  14.683
56867W        W22127   2.664  30.479  14.012
56868W        W22128  39.109  28.929   1.255
56869W        W22129  36.528  22.439   2.895
56870W        W22130  18.268  18.727   0.394
56871W        W22131   0.197  36.574  10.533
56872W        W22132  21.242  14.146   1.175
56873W        W22133  19.743   2.848  13.373
56874W        W22134   0.456   6.468  12.941
56875W        W22135  16.050  43.421   0.287
56876W        W22136  24.854  43.375  14.405
56877W        W22137  20.735  39.038  14.484
56878W        W22138  40.006  37.956  13.652
56879W        W22139  16.715  27.993  11.290
56880W        W22140   7.669   3.195   0.879
56881W        W22141  41.865  18.948  14.964
56882W        W22142  30.666  39.859   4.660
56883W        W22143  40.854  28.058   3.265
56884W        W22144  11.263   2.911   3.169
56885W        W22145   5.962  12.897  14.361
56886W        W22146  37.313  27.051  14.479
56887W        W22147  13.220   3.669  13.723
56888W        W22148  43.748  37.871  13.877
56889W        W22149  29.066  10.308   0.978
56890W        W22150  12.979  10.294  14.873
56891W        W22151   6.143  42.948   3.691
56892W        W22152   0.285  43.025   0.555
56893W        W22153   7.697   2.894  12.379
56894W        W22154   4.029   2.003  14.732
56895W        W22155  13.298   4.282   0.538
56896W        W22156   0.294  30.146   3.670
56897W        W22157  36.589  26.845   2.729
56898W        W22158   7.078  43.097   1.314
56899W        W22159  43.010  39.897   4.146
56900W        W22160  11.372  11.838   4.329
56901W        W22161  14.867  37.071  13.952
56902W        W22162  18.047   1.183  11.136
56903W        W22163  38.882  35.922  12.215
56904W        W22164   5.954  41.494  11.643
56905W        W22165  16.299  29.218   4.637
56906W        W22166  17.206   8.185   1.356
56907W        W22167  39.923  21.942  13.962
56908W        W22168  22.229  10.248  13.133
56909W        W22169  18.596  34.846  12.583
56910W        W22170  39.410  10.433  12.736
56911W        W22171  34.958  35.950  12.385
56912W        W22172  19.290   3.356  12.037
56913W        W22173   0.322  30.317  12.880
56914W        W22174  25.020   0.087  13.084
56915W        W22175  11.787  19.338   1.409
56916W        W22176  19.248  35.757  11.499
56917W        W22177   7.769   1.275  14.932
56918W        W22178   6.524  42.605  11.560
56919W        W22179  10.365   8.232   2.662
56920W        W22180   9.861  43.517  11.250
56921W        W22181  19.039  22.124   3.575
56922W        W22182  25.394  31.297   2.614
56923W        W22183   8.449  20.113   2.337
56924W        W22184  44.389   6.574  11.403
56925W        W22185  33.040  20.609   4.922
56926W        W22186  40.825  17.537  11.238
56927W        W22187  39.619  32.843   3.793
56928W        W22188  12.066  44.224   2.249
56929W        W22189  36.955  22.182  12.713
56930W        W22190   1.766  39.788  11.884
56931W        W22191  30.828  34.549   4.595
56932W        W22192  17.968  33.041   3.269
56933W        W22193  37.934  44.399  10.769
56934W        W22194  40.011  31.772   3.992
56935W        W22195  17.014  37.495   0.388
56936W        W22196  11.740  24.716  10.982
56937W        W22197  39.393  34.904   1.891
56938W        W22198   0.793  19.179   5.073
56939W        W22199  24.815  20.180   0.742
56940W        W22200  23.002   8.787   1.205
56941W        W22201  13.936  40.857  11.262
56942W        W22202   8.639  30.479   3.663
56943W        W22203  42.241  38.535   1.444
56944W        W22204  18.612  44.292  13.389
56945W        W22205  22.584  30.864   3.911
56946W        W22206  42.472  24.440   5.050
56947W        W22207  38.943  24.868  14.537
56948W        W22208  43.263  29.198  14.094
56949W        W22209   7.878  35.828  10.268
56950W        W22210   8.098  31.396   2.276
56951W        W22211  20.105  30.289   1.812
56952W        W22212   6.619  21.004  14.371
56953W        W22213  41.886  41.691   4.303
56954W        W22214  43.293  18.805   3.290
56955W        W22215  18.771   1.950   0.888
56956W        W22216  30.987  35.637   3.391
56957W        W22217   1.515  37.593   2.920
56958W        W22218  23.235   4.204  11.215
56959W        W22219  26.197   3.306   2.441
56960W        W22220   1.682  23.732   0.779
56961W        W22221  35.349   4.966  10.260
56962W        W22222  44.477  38.876  11.537
56963W        W22223  11.392  11.384   1.216
56964W        W22224  35.931  11.714  13.325
56965W        W22225  38.321  34.098   4.626
56966W        W22226  16.393  28.811   3.703
56967W        W22227  20.791  27.957  11.964
56968W        W22228  27.183   9.849  12.025
56969W        W22229  32.634  16.662  13.369
56970W        W22230  36.016  35.442  11.605
56971W        W22231  14.136  19.855   4.446
56972W        W22232   1.909   4.425  11.649
56973W        W22233  23.456  11.230   1.693
56974W        W22234  16.815   9.062   4.620
56975W        W22235  20.666  27.150  10.723
56976W        W22236  44.841   7.185  14.374
56977W        W22237  28.392   7.884   3.060
56978W        W22238  28.260  35.701  12.109
56979W        W22239  25.778   7.144   4.705
56980W        W22240  24.950  34.826   1.439
56981W        W22241   1.360  44.373   1.856
56982W        W22242  35.541  27.936   4.543
56983W        W22243  36.877  36.927  12.688
56984W        W22244  21.127   3.757  12.648
56985W        W22245  30.885  34.225  11.116
56986W        W22246  23.743  17.435   4.448
56987W        W22247  39.923   1.005  12.041
56988W        W22248  27.597   3.467   1.211
56989W        W22249   3.714  33.509  11.028
56990W        W22250  22.690  10.430  12.953
56991W        W22251  42.322  41.888   2.798
56992W        W22252  40.245   6.500   0.877
56993W        W22253  20.525  16.720   4.698
56994W        W22254  43.355  29.610  14.377
56995W        W22255  30.095   6.251  12.425
56996W        W22256  27.064   1.291  10.376
56997W        W22257  40.722  35.159   1.505
56998W        W22258   6.554  32.905  11.970
56999W        W22259  16.847  18.678  11.137
57000W        W22260  36.456  25.916   3.660
57001W        W22261  23.425  22.689  14.141
57002W        W22262  34.397   3.747   9.807
57003W        W22263  42.840  11.183   9.794
57004W        W22264  42.530  20.147   4.871
57005W        W22265  10.171   8.396  13.497
57006W        W22266  10.250  30.374  14.519
57007W        W22267  26.063   3.056   1.841
57008W        W22268  28.037  37.598   3.258
57009W        W22269  31.387   4.840   4.093
57010W        W22270  22.292  39.454   4.639
57011W        W22271  13.108   5.445   2.238
57012W        W22272  23.791   9.802  13.446
57013W        W22273   1.878   1.491  10.552
57014W        W22274  26.544  25.872   3.290
57015W        W22275  26.555  18.206   1.091
57016W        W22276  42.484   2.675  13.857
57017W        W22277  15.725   5.213   0.304
57018W        W22278   4.384  38.827  11.997
57019W        W22279  13.103   5.161   1.801
57020W        W22280  16.366  31.062   2.713
57021W        W22281   8.407  44.969   1.365
57022W        W22282  15.356  43.393   1.719
57023W        W22283  41.977  10.684   1.772
57024W        W22284   5.935  19.595   2.409
57025W        W22285  43.448  44.847  11.264
57026W        W22286  26.189  39.026   0.062
57027W        W22287  37.857  18.093  13.009
57028W        W22288  19.521  29.241  11.595
57029W        W22289  24.641  21.687  13.414
57030W        W22290  31.568  24.511  14.482
57031W        W22291  36.977  34.135  12.998
57032W        W22292  33.362  19.126   4.196
57033W        W22293  24.081   6.356   1.411
57034W        W22294  44.626  29.708  12.886
57035W        W22295  30.231   9.935  11.063
57036W        W22296  39.831  31.873  11.899
57037W        W22297   6.237  31.534   4.863
57038W        W22298  12.836  36.096  11.567
57039W        W22299  21.950  25.774   2.802
57040W        W22300  28.707  32.957   1.145
57041W        W22301  38.533  25.149  13.272
57042W        W22302  24.723  40.287   4.117
57043W        W22303  11.825  39.200  11.550
57044W        W22304  12.604  39.073   0.760
57045W        W22305  12.915   7.418   0.824
57046W        W22306  13.276  44.979   3.953
57047W        W22307   0.131  17.218  12.787
57048W        W22308   1.334  23.442   5.395
57049W        W22309  19.339   7.230  13.385
57050W        W22310  34.023   4.142   0.292
57051W        W22311  22.592   5.152  13.859
57052W        W22312  14.283  37.159   3.583
57053W        W22313  28.490  41.498  13.704
57054W        W22314  22.666  16.563   1.211
57055W        W22315  15.409  25.054  14.976
57056W        W22316  35.344  21.255   4.541
57057W        W22317  18.121  32.672  14.022
57058W        W22318  42.765  42.131   2.703
57059W        W22319  36.936  29.194   0.237
57060W        W22320  25.148  24.447  11.960
57061W        W22321  41.953  37.389  14.250
57062W        W22322  28.907  16.510  11.957
57063W        W22323  29.431  24.211  13.903
57064W        W22324  13.245  30.373   2.644
57065W        W22325  38.736  35.667  13.511
57066W        W22326  27.542  34.105   1.275
57067W        W22327  36.232   8.504  10.105
57068W        W22328  29.003  20.677  13.095
57069W        W22329  13.650  37.178   1.137
57070W        W22330  33.448  13.711  13.020
57071W        W22331   4.092  35.803  12.919
57072W        W22332  43.763  25.342   2.858
57073W        W22333  24.118  33.136   4.520
57074W        W22334  24.410   6.380  14.143
57075W        W22335  11.674  13.903  14.487
57076W        W22336   2.731  25.637   3.354
57077W        W22337  18.534  14.152   3.458
57078W        W22338  29.402  40.642  13.125
57079W        W22339  22.495  31.374  12.955
57080W        W22340   9.668  20.759  13.891
57081W        W22341   1.337  15.084   2.322
57082W        W22342  11.259  29.429  11.286
57083W        W22343   8.938   0.376  11.654
57084W        W22344   1.886  28.426   3.248
57085W        W22345  40.994  37.903  14.007
57086W        W22346  25.177   3.442   2.729
57087W        W22347  34.792  19.651  14.189
57088W        W22348  42.424  27.997   0.734
57089W        W22349  27.124   7.409   3.656
57090W        W22350  16.881  18.086   3.237
57091W        W22351  25.609  40.079   4.601
57092W        W22352   6.224  21.690   0.315
57093W        W22353  29.127  14.393   9.706
57094W        W22354  36.524  24.651  13.809
57095W        W22355  26.770  14.246  12.003
57096W        W22356  17.373  33.555  10.548
57097W        W22357  23.588  31.321  12.209
57098W        W22358   5.035   9.359   1.305
57099W        W22359  16.532  38.577  14.957
57100W        W22360  44.780  16.724  10.696
57101W        W22361   0.736  19.975   1.433
57102W        W22362  23.821   6.653  14.938
57103W        W22363  30.972  18.503  12.880
57104W        W22364  22.345  19.045  11.870
57105W        W22365  21.329  18.756   2.146
57106W        W22366  42.416  37.447  13.512
57107W        W22367   8.515  23.708   4.546
57108W        W22368   0.659  20.239  11.216
57109W        W22369  37.861   3.577  14.926
57110W        W22370  14.694  13.387   3.205
57111W        W22371   4.628  11.688  12.956
57112W        W22372  27.583  20.564   1.387
57113W        W22373   3.010  44.518  11.199
57114W        W22374  35.021   3.247   2.661
57115W        W22375  30.092  35.181   0.150
57116W        W22376  15.329  33.374  10.567
57117W        W22377  24.113   2.936   0.080
57118W        W22378  37.499  13.091  12.477
57119W        W22379  26.254  29.978   4.179
57120W        W22380  27.894  18.689  13.498
57121W        W22381  33.852   2.226   0.355
57122W        W22382  27.094  23.090   1.681
57123W        W22383  16.128  14.748   3.529
57124W        W22384  33.554  31.897   1.806
57125W        W22385   0.329  23.134   4.610
57126W        W22386  21.805  26.982   4.025
57127W        W22387  22.278   2.656  14.818
57128W        W22388   3.326  13.346   3.393
57129W        W22389  18.089   8.860   1.479
57130W        W22390  33.790  44.481  12.705
57131W        W22391  14.471  32.385  14.958
57132W        W22392   7.085  35.362  13.984
57133W        W22393  36.872  19.620  11.771
57134W        W22394   1.283  12.091   2.229
57135W        W22395   2.510   6.378   2.857
57136W        W22396  35.312   7.263  14.449
57137W        W22397  15.668   7.197  10.816
57138W        W22398  14.336  12.742  10.733
57139W        W22399  33.947  19.753   2.447
57140W        W22400  36.391  10.250  13.323
57141W        W22401  21.732  21.265   4.119
57142W        W22402  11.370   7.708  11.908
57143W        W22403   4.152  28.256   0.346
57144W        W22404   3.766   3.243  11.830
57145W        W22405  44.694  32.552  13.717
57146W        W22406  10.794  39.385   4.655
57147W        W22407   5.854   0.216  12.621
57148W        W22408  16.261   7.913  13.600
57149W        W22409  12.682  23.263   0.627
57150W        W22410  37.565  41.716   3.687
57151W        W22411   8.360  36.582   4.711
57152W        W22412  19.589  35.683   2.192
57153W        W22413  39.790  11.262   1.397
57154W        W22414  26.426  14.758   3.212
57155W        W22415  32.459  42.399  11.558
57156W        W22416  44.686  40.901   1.647
57157W        W22417   0.326   4.380  12.932
57158W        W22418  16.819  24.136   3.632
57159W        W22419  14.573  27.508   3.148
57160W        W22420  40.937   4.250  11.167
57161W        W22421  20.345  44.658  10.181
57162W        W22422  29.053   8.346  10.745
57163W        W22423  20.961   4.270  12.908
57164W        W22424   2.690  42.933  11.241
57165W        W22425  23.770  19.242   2.306
57166W        W22426   6.711  19.333   4.661
57167W        W22427   5.266  12.081  12.147
57168W        W22428  38.449  13.322  11.040
57169W        W22429   2.756  44.078   1.788
57170W        W22430   1.807  44.756  12.367
57171W        W22431  16.788  29.742  14.933
57172W        W22432  11.838  43.809  12.635
57173W        W22433  34.844  37.040   2.326
57174W        W22434  32.440  13.392   4.169
57175W        W22435  17.836  13.367  14.402
57176W        W22436  28.060  13.999   0.234
57177W        W22437  25.594   9.664  11.698
57178W        W22438  29.077   0.069   0.527
57179W        W22439  43.519  27.710  12.352
57180W        W22440  40.006  17.077  10.792
57181W        W22441   1.386  42.415   3.721
57182W        W22442  31.923   8.439   1.031
57183W        W22443  16.194  10.190   4.575
57184W        W22444   3.657  26.064   1.384
57185W        W22445  30.994  13.422   3.319
57186W        W22446   0.777  44.753  11.822
57187W        W22447  13.792  18.131  10.504
57188W        W22448  31.554  14.889  12.106
57189W        W22449  15.070  40.170   3.632
57190W        W22450  21.164   6.890   1.046
57191W        W22451  29.986   8.899   0.459
57192W        W22452  15.692  31.033   4.531
57193W        W22453   4.399  26.971  12.001
57194W        W22454  12.373  23.776   2.874
57195W        W22455  12.213  26.067  14.835
57196W        W22456  19.242  19.122   4.458
57197W        W22457  31.656   2.731  14.335
57198W        W22458  34.921  35.517   0.755
57199W        W22459  14.792  38.497   2.194
57200W        W22460  34.587  43.001   0.687
57201W        W22461  23.787   7.875   5.011
57202W        W22462  39.523   8.739  10.517
57203W        W22463  35.276   6.348  14.239
57204W        W22464  30.512  24.326   0.972
57205W        W22465   2.778  21.482   1.938
57206W        W22466  39.877  44.929   3.963
57207W        W22467  28.995   0.335   3.175
57208W        W22468  18.005  12.206   4.315
57209W        W22469  23.979  23.163  12.009
57210W        W22470  34.977  17.624   3.890
57211W        W22471  29.315  19.845  12.528
57212W        W22472  28.507   3.903   3.750
57213W        W22473  33.339  12.657  10.773
57214W        W22474  35.552  29.859   4.213
57215W        W22475  19.825  20.975  13.363
57216W        W22476  25.549  42.806  14.255
57217W        W22477  17.562  41.488   0.467
57218W        W22478  42.876  28.477  11.512
57219W        W22479  13.231  33.436   0.013
57220W        W22480   3.939   6.533   2.778
57221W        W22481  21.092  37.328  13.479
57222W        W22482  12.870  31.115  13.928
57223W        W22483  12.563  22.383  12.045
57224W        W22484  27.486   1.271   1.297
57225W        W22485  27.959  40.029  13.305
57226W        W22486  24.020  38.104   5.392
57227W        W22487  26.219   3.325   0.108
57228W        W22488  38.591  24.900  11.993
57229W        W22489   6.123  32.750  12.237
57230W        W22490  42.960  25.650  14.589
57231W        W22491  33.412  20.454  13.863
57232W        W22492  42.881   6.594  12.588
57233W        W22493  32.547  28.684   2.830
57234W        W22494  23.184  40.299   2.422
57235W        W22495   4.425  18.012   2.786
57236W        W22496  40.982   4.271  14.274
57237W        W22497   6.753  33.541   3.268
57238W        W22498  43.889  19.447   2.114
57239W        W22499   5.907  16.761  12.076
57240W        W22500  39.001  32.137   3.353
57241W        W22501  10.598  22.554  14.777
57242W        W22502  20.641   9.064  10.620
57243W        W22503  44.925  17.644   4.440
57244W        W22504  25.559  42.460  13.849
57245W        W22505  17.808   9.290   1.587
57246W        W22506   0.044  21.758   0.283
57247W        W22507   9.712  15.669   3.352
57248W        W22508  31.427   4.432   3.764
57249W        W22509  44.051  29.064   0.071
57250W        W22510   3.763  28.610   0.939
57251W        W22511  34.797  16.753  14.954
57252W        W22512  37.227   6.821  12.412
57253W        W22513  42.588  19.792  13.921
57254W        W22514   9.912   5.855   4.761
57255W        W22515  40.454  37.006  11.536
57256W        W22516  15.255  27.125   4.129
57257W        W22517  37.456  44.445   1.869
57258W        W22518  39.512  21.631  14.082
57259W        W22519  19.301   3.436  13.837
57260W        W22520  22.109  30.004   0.954
57261W        W22521  12.589   1.423  14.160
57262W        W22522   2.234  17.666  11.659
57263W        W22523   7.373  32.399   3.231
57264W        W22524  14.489  43.779  13.200
57265W        W22525  38.601  18.692   4.551
57266W        W22526   2.007  22.720   0.862
57267W        W22527  38.516   9.227   3.170
57268W        W22528   8.308  22.139   0.542
57269W        W22529  29.110  42.999   3.820
57270W        W22530  12.158  15.158   2.287
57271W        W22531  24.969  21.201   1.379
57272W        W22532  12.772  40.311   0.440
57273W        W22533   2.126  30.537  11.240
57274W        W22534  17.861  27.390  12.515
57275W        W22535  32.545   6.436  13.119
57276W        W22536  13.259   0.969  11.093
57277W        W22537  24.504  37.478   3.813
57278W        W22538  19.114  33.954  14.542
57279W        W22539   9.790   4.228   0.377
57280W        W22540  27.638  15.261  14.337
57281W        W22541  31.152  35.857  12.953
57282W        W22542  19.325  10.118  13.786
57283W        W22543  43.448   5.424  13.020
57284W        W22544  22.712  44.854  10.434
57285W        W22545   4.802   0.387   4.473
57286W        W22546   8.181   1.158   1.184
57287W        W22547   1.984  17.121  11.603
57288W        W22548   9.131  25.933  10.672
57289W        W22549   7.156   9.203  13.471
57290W        W22550  14.578   8.708  13.953
57291W        W22551   4.199  27.662  11.646
57292W        W22552   7.200  26.956  10.263
57293W        W22553  26.670  31.692  10.593
57294W        W22554   6.483  43.347   3.708
57295W        W22555  19.835  20.114  14.374
57296W        W22556  37.675   1.860   0.784
57297W        W22557  37.566   2.964   1.409
57298W        W22558  37.566  20.016   0.551
57299W        W22559  34.729  29.405  14.255
57300W        W22560   0.255  39.528   2.472
57301W        W22561   1.234  21.703  14.701
57302W        W22562  32.830  18.038  10.962
57303W        W22563  20.395  11.989   4.562
57304W        W22564  10.697  26.829  12.465
57305W        W22565  33.991  42.921   1.514
57306W        W22566  29.683   7.857  11.435
57307W        W22567   8.007   2.751  12.947
57308W        W22568  40.786  36.564   3.383
57309W        W22569  25.101  28.348   3.252
57310W        W22570  40.142  39.520   0.724
57311W        W22571  27.480  42.271  11.108
57312W        W22572  30.935  14.052   2.470
57313W        W22573  33.034  44.867   0.447
57314W        W22574  34.015  11.250  10.514
57315W        W22575  20.762  19.880   4.365
57316W        W22576  30.975  23.953  13.901
57317W        W22577  20.490  34.042  13.563
57318W        W22578  33.841  28.693  10.978
57319W        W22579  16.514   6.742  14.433
57320W        W22580  36.362  35.347   2.427
57321W        W22581  31.155  15.619   3.161
57322W        W22582  19.055   8.156   1.467
57323W        W22583  44.043  17.065   4.136
57324W        W22584  32.534  27.084   5.346
57325W        W22585   0.199  38.542   0.393
57326W        W22586  11.683  20.263   0.916
57327W        W22587  27.233  40.941   2.202
57328W        W22588  23.257  44.472  14.972
57329W        W22589  20.800  23.023  13.651
57330W        W22590   6.980   0.818  14.448
57331W        W22591  17.687   6.641   2.339
57332W        W22592   7.274  35.515  12.685
57333W        W22593  10.170  35.527  13.856
57334W        W22594  28.627   9.699  14.783
57335W        W22595   7.407  30.341   3.413
57336W        W22596  37.401   9.246   1.538
57337W        W22597   2.402  13.379   4.988
57338W        W22598  29.594  19.122   4.215
57339W        W22599  33.593  30.638  14.313
57340W        W22600  24.455  24.747  13.165
57341W        W22601   3.188  36.272   4.540
57342W        W22602  13.350   3.857  12.316
57343W        W22603   7.077  33.356   2.424
57344W        W22604  24.799  15.990  13.910
57345W        W22605  42.908  34.093  10.650
57346W        W22606  31.141  15.397   1.896
57347W        W22607  10.881   0.003  11.596
57348W        W22608  31.651  29.976   1.890
57349W        W22609   2.325   6.171   4.618
57350W        W22610  20.546  31.081  13.589
57351W        W22611   2.685  16.283  14.952
57352W        W22612  40.449  22.287   0.282
57353W        W22613  15.015  37.066   4.245
57354W        W22614  16.767  34.001   4.857
57355W        W22615  20.933  31.612  14.049
57356W        W22616  43.787  15.730  14.926
57357W        W22617  29.882  11.992   2.001
57358W        W22618  34.562  41.020   0.946
57359W        W22619  26.576  23.253  14.942
57360W        W22620  23.014   8.773  14.250
57361W        W22621  35.464  41.263  10.682
57362W        W22622  37.275  20.726   0.628
57363W        W22623  41.563  10.755  12.159
57364W        W22624  26.452  25.642   2.337
57365W        W22625  37.624  39.011  14.801
57366W        W22626  37.003  42.321   3.314
57367W        W22627  17.953  22.290  10.368
57368W        W22628  19.744  22.809   3.172
57369W        W22629  37.982  10.861  12.919
57370W        W22630   5.970   5.892   4.749
57371W        W22631  36.724  37.179  10.493
57372W        W22632  40.868  28.573   2.357
57373W        W22633  37.849  42.850  11.751
57374W        W22634   1.457   8.453  12.496
57375W        W22635   4.859  29.873  12.507
57376W        W22636  36.547  41.803   2.798
57377W        W22637  16.634   8.127   0.792
57378W        W22638  18.613  38.537  10.387
57379W        W22639  42.305  27.607   1.840
57380W        W22640  34.311  18.755   4.125
57381W        W22641  33.572  34.625   0.597
57382W        W22642  10.095   2.456   2.785
57383W        W22643  44.904  20.294  10.682
57384W        W22644  21.165   4.374   0.253
57385W        W22645  38.457  14.715   3.609
57386W        W22646  12.193  38.665   2.471
57387W        W22647  40.575  26.672  11.506
57388W        W22648   4.735   3.956   2.620
57389W        W22649   0.759  24.122  12.551
57390W        W22650   0.765   5.575  14.512
57391W        W22651  24.224  44.847  14.990
57392W        W22652   3.436  16.118   4.830
57393W        W22653   1.487  13.608  13.032
57394W        W22654   1.027  24.234  12.111
57395W        W22655   5.734  43.476  12.471
57396W        W22656  16.055  40.835  11.107
57397W        W22657  42.987   0.797   1.216
57398W        W22658  26.751  38.327   4.119
57399W        W22659  26.691  29.026   3.304
57400W        W22660  28.475   9.352   0.617
57401W        W22661   2.952  31.878  10.430
57402W        W22662  15.755  16.113   4.100
57403W        W22663  30.142  22.076   0.809
57404W        W22664  15.883  26.097   3.061
57405W        W22665  15.233  37.033   0.876
57406W        W22666   6.861  43.831  11.578
57407W        W22667  43.265   8.410  13.576
57408W        W22668   4.463  23.105   1.727
57409W        W22669  22.250  15.676  14.458
57410W        W22670  28.684  28.890   0.821
57411W        W22671  16.064  17.417   3.231
57412W        W22672  13.825  42.992   0.858
57413W        W22673  28.842  19.438   5.741
57414W        W22674   6.305  31.549   0.371
57415W        W22675   9.805  38.320   4.493
57416W        W22676   0.016  33.906   2.445
57417W        W22677  18.094   8.219   4.097
57418W        W22678  16.900   9.834   1.667
57419W        W22679   4.851  21.409   4.222
57420W        W22680  11.353  32.229  14.996
57421W        W22681  26.755  43.586   4.244
57422W        W22682  28.758   0.419   4.131
57423W        W22683  12.800  38.495   3.401
57424W        W22684   8.603  14.012  10.600
57425W        W22685  15.538  38.516   1.666
57426W        W22686  29.648  20.245  13.049
57427W        W22687  16.727  20.301   2.297
57428W        W22688  10.330  32.115  12.949
57429W        W22689  35.322  10.516   0.887
57430W        W22690  22.204  34.428  13.088
57431W        W22691  16.466   5.861  10.408
57432W        W22692  29.958  20.255  13.906
57433W        W22693  12.205  34.564   2.234
57434W        W22694  39.795   5.274   3.384
57435W        W22695  22.964  25.188  12.111
57436W        W22696  27.408  34.678  12.338
57437W        W22697  40.853   0.515   0.315
57438W        W22698  19.243  13.361  13.364
57439W        W22699  44.954  44.269   3.520
57440W        W22700  27.376   7.879   2.551
57441W        W22701  23.894  28.588  14.003
57442W        W22702   4.415  32.469  13.786
57443W        W22703  18.285  35.728   3.149
57444W        W22704   5.243  42.575   1.859
57445W        W22705  37.288  32.102   2.656
57446W        W22706  16.515  33.773  10.719
57447W        W22707  34.856  15.103  13.762
57448W        W22708  17.154   1.902   0.652
57449W        W22709  16.909  39.429  13.061
57450W        W22710   4.258   6.162   3.307
57451W        W22711   1.660  31.409   1.467
57452W        W22712  33.118  34.216   4.993
57453W        W22713  16.369  35.360  12.126
57454W        W22714  38.561  39.016   3.658
57455W        W22715  31.970  13.786  11.146
57456W        W22716  37.026   1.052   3.057
57457W        W22717  13.121   9.266  14.895
57458W        W22718  21.999  32.011   1.787
57459W        W22719  24.679  25.169   1.778
57460W        W22720   6.890  43.999  13.294
57461W        W22721   5.935  17.720   1.137
57462W        W22722  32.800  33.010  11.455
57463W        W22723  40.570  30.680   1.761
57464W        W22724  14.153  24.759   2.257
57465W        W22725   0.362   9.477  12.532
57466W        W22726   4.159   5.355  14.569
57467W        W22727  37.703  11.655   0.897
57468W        W22728  30.997  42.671   2.956
57469W        W22729   6.008  34.905   2.201
57470W        W22730  27.918  23.223  14.518
57471W        W22731  31.622  28.436  14.214
57472W        W22732  10.400  10.806  14.026
57473W        W22733  26.081  26.083   3.277
57474W        W22734   3.572  19.601  12.219
57475W        W22735  25.003  37.112  12.436
57476W        W22736  33.020  19.766  12.441
57477W        W22737  10.171  36.141   5.006
57478W        W22738  14.811  38.771   4.046
57479W        W22739  35.053  11.458  10.937
57480W        W22740  36.944  22.129   3.173
57481W        W22741  41.546   3.843   0.834
57482W        W22742   9.855  39.404   3.017
57483W        W22743  18.517  37.000   2.915
57484W        W22744  43.805   2.848   0.523
57485W        W22745   9.098   5.109   3.161
57486W        W22746  37.004   0.224   5.435
57487W        W22747  27.089  13.407   4.610
57488W        W22748   4.170  22.262   3.217
57489W        W22749  38.779  42.650  11.105
57490W        W22750  34.641   5.029   1.449
57491W        W22751  23.516  37.759   1.226
57492W        W22752  15.697   4.059  12.543
57493W        W22753  16.133   7.775  14.091
57494W        W22754  41.487  21.724  10.644
57495W        W22755   2.774  20.517  10.699
57496W        W22756  33.274  34.863  10.537
57497W        W22757  31.056   3.243  14.445
57498W        W22758  28.599  39.278   2.888
57499W        W22759  33.672  38.351   4.122
57500W        W22760  25.673   5.334   4.926
57501W        W22761  38.086  13.756  14.582
57502W        W22762  15.441  16.783   1.238
57503W        W22763  25.590  10.213  14.670
57504W        W22764  15.155  34.668  13.865
57505W        W22765  26.607  18.872   2.667
57506W        W22766  42.414  33.581   3.773
57507W        W22767  35.297   1.485   0.698
57508W        W22768  12.670  33.641   4.757
57509W        W22769  28.608  23.422   2.288
57510W        W22770  29.604  18.074  14.867
57511W        W22771  17.691  21.614  14.914
57512W        W22772  43.743  33.783  12.752
57513W        W22773  13.671  26.643   0.145
57514W        W22774  33.600   0.242  12.799
57515W        W22775  41.531  24.253  11.537
57516W        W22776  21.751   0.224  10.382
57517W        W22777   1.224  42.004   3.448
57518W        W22778   8.672  18.611   4.705
57519W        W22779   0.931  14.172  11.846
57520W        W22780  24.672   0.872  12.184
57521W        W22781  23.520  27.475  13.977
57522W        W22782  19.009   3.268   0.360
57523W        W22783  10.009  43.724   3.255
57524W        W22784   2.222  31.399   2.284
57525W        W22785  38.081  40.558   4.289
57526W        W22786   7.522  20.947  12.344
57527W        W22787  36.975   8.294   2.562
57528W        W22788   4.470  13.708   2.403
57529W        W22789  38.461  33.095   1.278
57530W        W22790  39.512  41.521   0.035
57531W        W22791  18.393  11.085  14.887
57532W        W22792   8.946  17.512   4.840
57533W        W22793  34.805  30.878  11.329
57534W        W22794  28.740  34.755  14.010
57535W        W22795   8.220   8.846   4.676
57536W        W22796  35.054  38.050   3.548
57537W        W22797   2.990  12.571   3.163
57538W        W22798  13.274  39.101  12.501
57539W        W22799  16.072  40.563   0.407
57540W        W22800  43.436  24.672   3.674
57541W        W22801  15.964  30.534  14.242
57542W        W22802   5.548   4.257  12.468
57543W        W22803   4.819  42.427   3.117
57544W        W22804  22.674  31.626  13.390
57545W        W22805   6.498   1.908  12.556
57546W        W22806  18.300   1.231   3.213
57547W        W22807   4.829  26.535   2.172
57548W        W22808  19.627  18.213  12.904
57549W        W22809   7.284  16.068   3.910
57550W        W22810  33.190  24.232   1.101
57551W        W22811  36.447  15.416   2.415
57552W        W22812  14.768  14.362  12.972
57553W        W22813  17.914  16.050   2.405
57554W        W22814   2.524  34.020  11.751
57555W        W22815  37.537  30.162   1.754
57556W        W22816  43.785  15.120  10.670
57557W        W22817  26.754   5.492   3.763
57558W        W22818  14.683  11.884   0.233
57559W        W22819   2.426  40.681   2.359
57560W        W22820  26.981  17.712  11.090
57561W        W22821  39.539  35.433  13.993
57562W        W22822   9.080  10.753   0.218
57563W        W22823  36.500  15.230  10.936
57564W        W22824   0.379  13.027  13.572
57565W        W22825  10.730  38.934   3.344
57566W        W22826  33.658  43.378  14.373
57567W        W22827  19.602  18.169   2.309
57568W        W22828  22.191   7.712  10.741
57569W        W22829   3.921  19.461  11.531
57570W        W22830  34.803  12.689   3.281
57571W        W22831   4.766   4.682   0.257
57572W        W22832  34.908  15.245   4.486
57573W        W22833  33.246  13.542   5.116
57574W        W22834  32.473  20.107   4.679
57575W        W22835  17.795  12.961   2.062
57576W        W22836  11.933   0.551   3.305
57577W        W22837  26.959  35.858  11.885
57578W        W22838  10.651  37.549  12.390
57579W        W22839   4.898  41.846  14.764
57580W        W22840  36.380   0.092  12.136
57581W        W22841   3.960  37.287  13.975
57582W        W22842  12.043   8.313  10.949
57583W        W22843   5.906  25.965   0.458
57584W        W22844  34.972  28.159  13.849
57585W        W22845  29.704   3.724   2.964
57586W        W22846  18.906   5.442  11.981
57587W        W22847  31.838  11.713  13.884
57588W        W22848   2.842  43.802  14.760
57589W        W22849  33.424   7.806   0.777
57590W        W22850  22.316  22.886   4.165
57591W        W22851  39.533  20.975   2.811
57592W        W22852  22.802  37.156  10.452
57593W        W22853  34.986  38.510   4.385
57594W        W22854  26.637  38.982   4.510
57595W        W22855  43.720  14.362  12.124
57596W        W22856  31.510   5.464   0.498
57597W        W22857   0.503  14.825  13.906
57598W        W22858   8.722  44.839  10.959
57599W        W22859   0.760  24.496   2.342
57600W        W22860  17.053   7.123   2.798
57601W        W22861  44.086  33.835   4.098
57602W        W22862  30.692   2.359  12.418
57603W        W22863  44.665  44.997   3.740
57604W        W22864  41.276  26.334  11.991
57605W        W22865   4.022  13.537   0.532
57606W        W22866  38.609  34.041  12.022
57607W        W22867  15.505  20.549   2.181
57608W        W22868  15.720  16.263  11.475
57609W        W22869  17.586  41.990  11.092
57610W        W22870  28.040  24.988  12.867
57611W        W22871  40.219   9.753  13.896
57612W        W22872  43.789  18.445  13.706
57613W        W22873  18.685  44.438  11.607
57614W        W22874  15.499  13.343   2.812
57615W        W22875  21.427  22.895   0.936
57616W        W22876   1.749  20.448  12.515
57617W        W22877   1.048  29.382   9.945
57618W        W22878  30.752  26.735  14.410
57619W        W22879  26.168   1.478  11.570
57620W        W22880  37.979  16.800   4.072
57621W        W22881  30.487   9.335  14.057
57622W        W22882  19.235  27.961  10.915
57623W        W22883   2.875  21.670   0.980
57624W        W22884   5.960  37.242   9.916
57625W        W22885  27.930  17.500  13.026
57626W        W22886  17.715   5.536   4.089
57627W        W22887  13.266  39.074   0.631
57628W        W22888   8.094  14.097   4.467
57629W        W22889  30.499  41.386  12.074
57630W        W22890  38.464  37.795  10.709
57631W        W22891  41.424   6.957  13.068
57632W        W22892   8.888  28.944   4.237
57633W        W22893  22.459  40.331   0.096
57634W        W22894  14.052  30.578   0.909
57635W        W22895  36.078  15.227  10.620
57636W        W22896  32.841  30.473   3.901
57637W        W22897   8.744   8.891  10.685
57638W        W22898  39.312   7.503  10.526
57639W        W22899  37.905  23.548  14.724
57640W        W22900  27.329   4.805  12.090
57641W        W22901   8.674  26.954  13.926
57642W        W22902  27.974  17.087   4.685
57643W        W22903  29.328  20.487   1.815
57644W        W22904  25.286  15.508   2.743
57645W        W22905  29.791  18.737  11.221
57646W        W22906   1.356  44.847   0.559
57647W        W22907  29.390  13.342   0.075
57648W        W22908  41.606  29.540  12.843
57649W        W22909   5.387  30.118  10.643
57650W        W22910   1.266   9.319  11.575
57651W        W22911   5.116  34.319  11.509
57652W        W22912  12.961  29.312   0.900
57653W        W22913  28.578  38.479  14.129
57654W        W22914  23.054  26.739   4.808
57655W        W22915  25.786  12.853   2.267
57656W        W22916  44.466  19.801   1.415
57657W        W22917  21.807  13.391   3.295
57658W        W22918  17.767  14.175   2.837
57659W        W22919  32.916   2.537  11.063
57660W        W22920  21.246  25.237   2.878
57661W        W22921  14.191  24.929  10.802
57662W        W22922   9.524  35.293  14.740
57663W        W22923   7.821  30.250  10.452
57664W        W22924  33.775  18.175  10.721
57665W        W22925  17.064   2.591  12.596
57666W        W22926  37.912  42.690   1.219
57667W        W22927  18.770  10.433   0.400
57668W        W22928  11.164  37.050  11.662
57669W        W22929  15.549  44.141  11.240
57670W        W22930  34.377  10.376  13.221
57671W        W22931  16.699  11.236   2.192
57672W        W22932   5.282  11.816   1.579
57673W        W22933  15.328  26.475   1.965
57674W        W22934  32.441  23.228  13.037
57675W        W22935  42.024  31.915   5.013
57676W        W22936   8.382  27.623   3.234
57677W        W22937  28.758  32.254  13.081
57678W        W22938   0.066  27.491  13.773
57679W        W22939  11.370  15.795   0.001
57680W        W22940   2.447  43.134  10.373
57681W        W22941  32.561   1.808  12.026
57682W        W22942   0.265   1.406  11.428
57683W        W22943  41.506  30.512  12.912
57684W        W22944  10.065  35.991  11.949
57685W        W22945  31.627  39.519  14.449
57686W        W22946  36.547  41.340  11.533
57687W        W22947  33.593  29.617  14.326
57688W        W22948  17.706  35.079   0.930
57689W        W22949  20.040  10.209   4.201
57690W        W22950  11.088  31.489   2.315
57691W        W22951  16.878  14.094  11.136
57692W        W22952  21.203   2.521  11.107
57693W        W22953   3.782  16.112  10.995
57694W        W22954  24.224  24.809   0.346
57695W        W22955  19.277  36.746   1.409
57696W        W22956   4.898  31.072  12.650
57697W        W22957  18.195  26.587  11.680
57698W        W22958  28.947  40.940  14.376
57699W        W22959  15.842   2.657   2.802
57700W        W22960  11.788  33.548   1.760
57701W        W22961  22.532  38.966   1.633
57702W        W22962  44.691  12.742  13.045
57703W        W22963   5.750  20.733  14.978
57704W        W22964   2.448  18.258  12.581
57705W        W22965  35.088  30.628   1.252
57706W        W22966  18.260  38.254   0.421
57707W        W22967  44.233  19.134  14.980
57708W        W22968  32.828  39.932   4.352
57709W        W22969  42.317  35.333  12.127
57710W        W22970  19.608  23.469   2.157
57711W        W22971  10.309   7.552   0.798
57712W        W22972  28.057  20.316   1.426
57713W        W22973  13.180  13.243  14.872
57714W        W22974  35.538  42.393  15.000
57715W        W22975  23.743  30.536  14.274
57716W        W22976  24.686  26.368  13.349
57717W        W22977  44.736  44.075  13.327
57718W        W22978  23.740  17.736  12.207
57719W        W22979  21.850  37.546   5.137
57720W        W22980  33.062  21.516  12.853
57721W        W22981   9.074  29.732  11.999
57722W        W22982   5.323  38.859  13.096
57723W        W22983  40.763   9.923  13.865
57724W        W22984  13.044  16.183  11.715
57725W        W22985  40.281   0.483  14.436
57726W        W22986  16.123  28.492   3.352
57727W        W22987   1.451   9.460  14.380
57728W        W22988   2.327  40.349   2.792
57729W        W22989   5.204  28.776   3.173
57730W        W22990   3.738  23.177  11.278
57731W        W22991  20.170  18.399   0.292
57732W        W22992  21.967  35.958   0.467
57733W        W22993  43.087  27.647  12.085
57734W        W22994  13.819  37.560  14.450
57735W        W22995   1.796  37.597   4.580
57736W        W22996  17.014   5.097  13.870
57737W        W22997  10.254  11.515  11.148
57738W        W22998   2.374  18.368  13.443
57739W        W22999   9.022   6.864   0.750
57740W        W23000  22.688  40.319   2.210
57741W        W23001  20.837  14.085  14.315
57742W        W23002  42.973   5.892   3.824
57743W        W23003  42.957  28.434   1.357
57744W        W23004  11.885  31.496  13.564
57745W        W23005  43.748  21.503   3.848
57746W        W23006  23.102   5.379   4.051
57747W        W23007  22.172  43.471   4.544
57748W        W23008  39.816  12.232   1.463
57749W        W23009  34.810  18.134   0.991
57750W        W23010  37.102  14.641   3.797
57751W        W23011  12.891  12.174   2.444
57752W        W23012  37.064  36.803   3.804
57753W        W23013  28.212  39.781  10.684
57754W        W23014  16.638  24.595   3.363
57755W        W23015  12.846   6.120   4.805
57756W        W23016  15.527  37.421  11.173
57757W        W23017  16.974  21.714   1.236
57758W        W23018  44.833  21.367   3.681
57759W        W23019  32.314  21.829   4.654
57760W        W23020   9.413  40.822   1.212
57761W        W23021  25.990  28.350   0.890
57762W        W23022  37.404  43.418  13.902
57763W        W23023  26.633   5.903   3.384
57764W        W23024  20.158   1.336   1.012
57765W        W23025  17.129  30.525  13.043
57766W        W23026  42.732  21.451  12.414
57767W        W23027  27.704  19.483   2.215
57768W        W23028  42.357  42.357  11.939
57769W        W23029  38.086  32.864  13.040
57770W        W23030  39.272  25.154  11.475
57771W        W23031  37.972  17.094   2.150
57772W        W23032  30.952   8.151  13.085
57773W        W23033  18.311  35.232   3.246
57774W        W23034  30.670  34.042   1.214
57775W        W23035  20.363  17.379   2.701
57776W        W23036  33.286  42.000   0.975
57777W        W23037  40.546   2.725   1.648
57778W        W23038  34.207   8.369   2.694
57779W        W23039  24.735  17.774   1.576
57780W        W23040  11.838  19.182   4.683
57781W        W23041  27.672  17.012   3.208
57782W        W23042  35.119  10.720   0.467
57783W        W23043  20.037  25.401   1.609
57784W        W23044  37.905  33.440  12.202
57785W        W23045  36.951   2.969   1.754
57786W        W23046   9.079  35.465  13.909
57787W        W23047  20.671  12.286   0.916
57788W        W23048  39.271  14.765   2.212
57789W        W23049  12.788   2.811   3.536
57790W        W23050  23.142  43.817   3.304
57791W        W23051  41.518  39.099   3.034
57792W        W23052  17.866   7.400  11.946
57793W        W23053   0.843  38.368   2.375
57794W        W23054  36.936  42.028   0.990
57795W        W23055  39.241  41.901  11.507
57796W        W23056  20.760  33.592   3.259
57797W        W23057  36.072  15.243  12.722
57798W        W23058  23.160   5.651   1.600
57799W        W23059  25.167   5.740  14.956
57800W        W23060   7.811   2.201   2.101
57801W        W23061  23.628  43.607   2.417
57802W        W23062  12.707  38.253  13.991
57803W        W23063  41.280  43.414   3.946
57804W        W23064  11.177  29.090   2.234
57805W        W23065   7.965   8.162  12.919
57806W        W23066   0.732  16.691   3.372
57807W        W23067  22.793  29.017  12.645
57808W        W23068  34.416  32.649  10.862
57809W        W23069  17.496  14.009   3.256
57810W        W23070  24.790   1.769   4.618
57811W        W23071  21.716  25.210   4.639
57812W        W23072  27.133   3.692  14.449
57813W        W23073  18.814  35.054   4.166
57814W        W23074  33.020  11.391  13.442
57815W        W23075  16.374   3.991  14.344
57816W        W23076   3.311  25.120  14.040
57817W        W23077  32.658  28.288  14.909
57818W        W23078  33.968  34.112  13.327
57819W        W23079  31.653  10.658   0.262
57820W        W23080  18.460   1.840  13.995
57821W        W23081   6.683  21.046  12.907
57822W        W23082   6.168  40.794   2.263
57823W        W23083  19.794  13.083  14.227
57824W        W23084  14.198  15.833   9.928
57825W        W23085  23.143  17.907   2.281
57826W        W23086  19.162  22.659   1.746
57827W        W23087   8.119  13.132  13.985
57828W        W23088  15.556  42.028   3.618
57829W        W23089  14.730  11.218   4.572
57830W        W23090  35.513  36.395   4.777
57831W        W23091  17.620  39.217   1.109
57832W        W23092  42.180  12.383  14.833
57833W        W23093   1.714  37.621  13.010
57834W        W23094  35.427  25.437  14.383
57835W        W23095  36.751  10.753  11.555
57836W        W23096   2.145  43.098   5.092
57837W        W23097  26.797   1.518   4.138
57838W        W23098  30.603  41.707   0.492
57839W        W23099  24.896  36.432   1.679
57840W        W23100  18.883  43.128  13.027
57841W        W23101  28.364  42.887   3.604
57842W        W23102  38.396  15.298  12.839
57843W        W23103  23.470   2.300   4.616
57844W        W23104  44.455  25.053  10.752
57845W        W23105  43.357   0.293  13.841
57846W        W23106  15.139   1.386  13.940
57847W        W23107   5.997  20.812   1.324
57848W        W23108  21.540  21.008  14.101
57849W        W23109  27.027  24.489   0.012
57850W        W23110  22.008  35.150  10.675
57851W        W23111   5.151  15.190   3.893
57852W        W23112  14.081  12.291  10.733
57853W        W23113  27.010  21.037  11.724
57854W        W23114  18.847  24.707   4.276
57855W        W23115  34.842  17.355   1.688
57856W        W23116  18.697  19.527  12.276
57857W        W23117  18.848  26.467   0.703
57858W        W23118   6.865  22.438   2.859
57859W        W23119  31.570  38.382   4.633
57860W        W23120   7.422  33.982  12.583
57861W        W23121  14.786  44.175   4.179
57862W        W23122  41.429  26.960  11.131
57863W        W23123  13.677  13.244  14.672
57864W        W23124  37.350  11.131   1.464
57865W        W23125  44.323  37.071  11.019
57866W        W23126  17.869  37.331  10.181
57867W        W23127   4.910   7.398  10.312
57868W        W23128   6.420  18.100   2.878
57869W        W23129  32.529   9.265   4.465
57870W        W23130   6.655  39.568  12.359
57871W        W23131  39.449  20.767   4.544
57872W        W23132  43.480  19.287   0.422
57873W        W23133  27.234   0.792   3.082
57874W        W23134  44.345  21.338  13.058
57875W        W23135  18.627  39.623   9.890
57876W        W23136  27.763  16.775   2.755
57877W        W23137   3.518  30.182  13.661
57878W        W23138  14.889  10.668   1.323
57879W        W23139  39.481  22.552  10.487
57880W        W23140  29.028  41.462  14.280
57881W        W23141  28.056  26.076   4.248
57882W        W23142  25.768  17.401   2.374
57883W        W23143  20.133  34.299  10.727
57884W        W23144  20.758  35.008   1.915
57885W        W23145   2.211   1.941   4.535
57886W        W23146  36.097  19.560  11.232
57887W        W23147  37.358  17.184  11.481
57888W        W23148  30.536  13.578  12.729
57889W        W23149  20.025  20.047   2.167
57890W        W23150  23.956  28.171  14.995
57891W        W23151   9.889  21.363   2.719
57892W        W23152   3.867   3.761  12.528
57893W        W23153   4.386  41.040  12.812
57894W        W23154   1.408  23.406  12.447
57895W        W23155   0.942   0.218   0.476
57896W        W23156   9.313  40.154   0.373
57897W        W23157  41.997   1.812   1.305
57898W        W23158  43.314  26.698  10.909
57899W        W23159   0.874  19.231   4.076
57900W        W23160  37.608  26.214  12.996
57901W        W23161  15.181  19.212  14.524
57902W        W23162  33.638  31.146  11.103
57903W        W23163  17.250  36.491   4.697
57904W        W23164  39.725   6.882   4.111
57905W        W23165  10.875  40.941  12.923
57906W        W23166  34.057  29.699   3.109
57907W        W23167  15.834   2.981  14.884
57908W        W23168  10.771  36.083  13.525
57909W        W23169  29.685  13.361  12.998
57910W        W23170   5.170  41.113   2.414
57911W        W23171  14.279   4.315   1.831
57912W        W23172  25.130  29.163   0.934
57913W        W23173   6.774  13.253  13.336
57914W        W23174  26.219   6.879  11.494
57915W        W23175  12.526   1.287  11.555
57916W        W23176  40.445  26.184  11.532
57917W        W23177  13.191   8.283   3.389
57918W        W23178  43.006  33.980   0.231
57919W        W23179   8.232  21.329   4.175
57920W        W23180   3.419   0.861   3.716
57921W        W23181  33.846   7.121   4.095
57922W        W23182   3.866   4.250  13.306
57923W        W23183  10.728  29.086   1.931
57924W        W23184  30.489  41.033  13.361
57925W        W23185  23.766  42.774  11.168
57926W        W23186  29.620   2.448   4.191
57927W        W23187  19.648  19.080  13.073
57928W        W23188   1.410  11.595   2.239
57929W        W23189  43.198  43.019  14.536
57930W        W23190   7.747  39.575   2.960
57931W        W23191  17.876  23.548  11.033
57932W        W23192  33.112   5.676   1.387
57933W        W23193  25.539  21.179  10.659
57934W        W23194  11.231  21.099  12.945
57935W        W23195  29.226  12.662  10.536
57936W        W23196  29.981  43.969  13.043
57937W        W23197   9.774  36.011  14.424
57938W        W23198  10.109  22.960   1.792
57939W        W23199  42.515  12.724  13.453
57940W        W23200  25.431  22.887   2.804
57941W        W23201  27.571   7.941   4.585
57942W        W23202  25.627   3.900   1.407
57943W        W23203  33.547  22.297  10.782
57944W        W23204  38.462  15.803   4.503
57945W        W23205  38.453  27.059  13.800
57946W        W23206   2.784  11.654  14.500
57947W        W23207  10.777   0.501  11.488
57948W        W23208  34.513   1.832   0.852
57949W        W23209  16.624  25.410  13.368
57950W        W23210   4.314  17.396   4.920
57951W        W23211  29.443  23.571   3.136
57952W        W23212  19.354  32.476  11.696
57953W        W23213   4.670  43.582   4.969
57954W        W23214  28.349   6.355   2.657
57955W        W23215  14.250   3.372   3.064
57956W        W23216  15.727  19.678   4.977
57957W        W23217  39.951   2.905  11.959
57958W        W23218  12.316  22.592   4.661
57959W        W23219  26.010  37.637   1.295
57960W        W23220  19.461  31.000   1.287
57961W        W23221  10.377  37.783   4.099
57962W        W23222  30.579  43.062  10.668
57963W        W23223   9.539  42.892   4.199
57964W        W23224   2.694  17.672  13.938
57965W        W23225  44.942  44.763   3.362
57966W        W23226  44.542  27.581  13.772
57967W        W23227  14.348   6.356   2.904
57968W        W23228  12.918  17.087  14.499
57969W        W23229   7.236  14.121   2.819
57970W        W23230  33.937   2.905   4.225
57971W        W23231   7.815  11.924   0.276
57972W        W23232  42.371  39.925   4.655
57973W        W23233  42.226  25.681   2.124
57974W        W23234  18.577  30.047  10.419
57975W        W23235   4.237  10.174  13.435
57976W        W23236  31.161   0.649   0.082
57977W        W23237  17.705  15.915   1.156
57978W        W23238  27.844  26.378   2.723
57979W        W23239  26.066  41.357   2.766
57980W        W23240   3.927   5.067   1.338
57981W        W23241  15.307  10.861   0.999
57982W        W23242  24.997  23.653   3.673
57983W        W23243  25.641  14.114   4.570
57984W        W23244  31.141   2.267  10.935
57985W        W23245  20.312  26.944   2.781
57986W        W23246   1.950  43.026   3.101
57987W        W23247  17.221  15.092  12.099
57988W        W23248  25.998  38.737  13.540
57989W        W23249   9.704  16.163   2.092
57990W        W23250   9.018  27.520   1.720
57991W        W23251  37.865   4.888   0.111
57992W        W23252  23.160  23.164   3.980
57993W        W23253   6.914  16.713  12.662
57994W        W23254   5.236  15.597   5.009
57995W        W23255  43.342  24.261  13.822
57996W        W23256  44.333  30.768   1.250
57997W        W23257  16.269   1.870  13.753
57998W        W23258  15.248  24.816  10.710
57999W        W23259  29.948   9.140   0.908
58000W        W23260   0.807  18.317   4.261
58001W        W23261  29.076  17.136   1.930
58002W        W23262  11.570  40.469  11.121
58003W        W23263  17.993  41.829   1.133
58004W        W23264   4.963  32.535  11.235
58005W        W23265  25.397   7.700   2.613
58006W        W23266  42.713  20.552   0.296
58007W        W23267  34.454   0.184   0.012
58008W        W23268  36.295  39.985   0.413
58009W        W23269  28.116  44.986  10.533
58010W        W23270  43.326  28.254   3.443
58011W        W23271  20.380  18.946   4.969
58012W        W23272  28.620  15.753   0.803
58013W        W23273   3.815  15.171  13.607
58014W        W23274   8.162  44.833   0.433
58015W        W23275  14.867   4.417  12.509
58016W        W23276  22.213  22.571   3.755
58017W        W23277  31.645   5.725   3.842
58018W        W23278  13.566  35.395  13.551
58019W        W23279  41.902  24.635  11.636
58020W        W23280  16.208   8.938   0.815
58021W        W23281   9.697  37.839  14.172
58022W        W23282  29.322   2.495  12.098
58023W        W23283  34.423   7.087  12.445
58024W        W23284  37.963  17.765   0.224
58025W        W23285  15.384  28.648  13.512
58026W        W23286  11.887  21.118   0.943
58027W        W23287  12.827  21.543   1.504
58028W        W23288  22.515  21.686   4.712
58029W        W23289  16.624  15.578  12.856
58030W        W23290  13.665  21.569   1.238
58031W        W23291  37.555  10.639   4.125
58032W        W23292  33.720  29.035  10.577
58033W        W23293  42.445  10.307   2.412
58034W        W23294  26.644  23.501  12.548
58035W        W23295  19.346  39.451   4.723
58036W        W23296  25.515  16.871   4.634
58037W        W23297  15.313   9.794  14.234
58038W        W23298   8.954   1.349  14.021
58039W        W23299  28.397  26.919   9.715
58040W        W23300   2.463  22.992   4.632
58041W        W23301  39.758  18.573  12.960
58042W        W23302  40.855  15.278   4.372
58043W        W23303  30.076  32.504   2.125
58044W        W23304  12.202  24.377  12.037
58045W        W23305  22.286  29.901  11.130
58046W        W23306  18.958   8.242  14.379
58047W        W23307  35.887  16.957  12.141
58048W        W23308   4.782  16.661   4.691
58049W        W23309  22.018  23.206  12.991
58050W        W23310  40.485  24.544  11.594
58051W        W23311  29.782  14.618   1.387
58052W        W23312  20.168  42.471  12.538
58053W        W23313  29.372  43.673   3.813
58054W        W23314   6.460   4.926  13.061
58055W        W23315  32.395  26.467   1.478
58056W        W23316  16.960   7.232  12.363
58057W        W23317  24.739   9.867  11.103
58058W        W23318  32.487  29.738  13.924
58059W        W23319  14.743  33.917  11.415
58060W        W23320  37.009  10.316  11.478
58061W        W23321  39.641  26.668  12.475
58062W        W23322  28.016   3.802   3.825
58063W        W23323  12.826  17.902   0.568
58064W        W23324  26.596   1.739   0.811
58065W        W23325  33.975   4.795  14.101
58066W        W23326  23.627  26.862   4.081
58067W        W23327  33.131  10.894  13.510
58068W        W23328   5.733   8.959  12.519
58069W        W23329  36.385  16.330   2.359
58070W        W23330  22.986   2.360   4.797
58071W        W23331  39.637  40.163  11.945
58072W        W23332   8.650   0.426   0.043
58073W        W23333  37.612   5.210   3.301
58074W        W23334  26.568  18.122   0.108
58075W        W23335  20.062   5.489   3.226
58076W        W23336  25.356   8.140  13.485
58077W        W23337   4.908   4.523  11.199
58078W        W23338   1.939  12.425   2.600
58079W        W23339  26.675  43.771   0.958
58080W        W23340  34.329   8.825  10.680
58081W        W23341  30.902  28.029  11.154
58082W        W23342  32.513   3.762   3.155
58083W        W23343  11.796  11.648   4.574
58084W        W23344  29.524  27.679   4.373
58085W        W23345  29.046  28.356  11.193
58086W        W23346   0.540  30.662   3.732
58087W        W23347  31.720  14.377  14.392
58088W        W23348  13.928   8.452  13.741
58089W        W23349  23.290  17.814   1.445
58090W        W23350  36.483  44.582  12.049
58091W        W23351  24.139  15.618   3.661
58092W        W23352  19.062  35.376   2.450
58093W        W23353  15.118   3.234   0.944
58094W        W23354   3.650   5.745  14.467
58095W        W23355  41.789  38.754  13.428
58096W        W23356  33.375   8.710   1.876
58097W        W23357  37.122   7.877   2.283
58098W        W23358  31.486  43.064   0.853
58099W        W23359  44.720   5.320  12.519
58100W        W23360  20.991  39.318  11.543
58101W        W23361  33.692  29.593   3.807
58102W        W23362   6.855  39.469   0.468
58103W        W23363   2.505  36.800   2.787
58104W        W23364  28.014   1.790  13.848
58105W        W23365  44.035  29.194   0.967
58106W        W23366   9.313  20.456  11.031
58107W        W23367   6.175   1.276  13.792
58108W        W23368  39.112  42.298   4.284
58109W        W23369  44.521  16.365   2.442
58110W        W23370   2.507  13.852  14.470
58111W        W23371  27.463  28.124  12.531
58112W        W23372  33.295  18.491   1.539
58113W        W23373  32.882  30.160   4.533
58114W        W23374   5.413  39.439   4.801
58115W        W23375  11.303   0.264   1.541
58116W        W23376  18.635   4.913  11.171
58117W        W23377  27.416  22.292   0.060
58118W        W23378  15.741   9.796   3.356
58119W        W23379  30.072  40.738  12.459
58120W        W23380  36.402  13.177   1.210
58121W        W23381  21.113  10.202   4.622
58122W        W23382  35.569   2.216   2.163
58123W        W23383  32.559  14.032   0.458
58124W        W23384   7.851  35.870   0.316
58125W        W23385   6.005  31.591   3.728
58126W        W23386  26.424   4.490   2.597
58127W        W23387  31.133  15.528  13.892
58128W        W23388   6.688  32.583   0.860
58129W        W23389  30.493   9.512  11.609
58130W        W23390   9.901  30.549   2.698
58131W        W23391  27.551   2.736   1.767
58132W        W23392  34.595  28.549   0.066
58133W        W23393  25.618  16.246   0.796
58134W        W23394  14.335   8.863  14.388
58135W        W23395  16.658  18.758   4.982
58136W        W23396  32.066  21.611   0.829
58137W        W23397  36.495  20.616   1.187
58138W        W23398  36.594   2.937  11.980
58139W        W23399  33.490   3.009  13.950
58140W        W23400  11.366   8.432  13.854
58141W        W23401  21.113   2.049   4.937
58142W        W23402  34.398   0.482   2.538
58143W        W23403  37.753  15.069  11.029
58144W        W23404  40.892   8.350   4.091
58145W        W23405   8.452  41.018  12.700
58146W        W23406   2.591  20.121   3.279
58147W        W23407  36.372   6.421   1.707
58148W        W23408  37.304  36.606  11.181
58149W        W23409   0.923  38.760  11.583
58150W        W23410  26.052  41.292   0.003
58151W        W23411  17.115   3.985  11.644
58152W        W23412  40.268  21.691  14.765
58153W        W23413  18.297  32.956  11.159
58154W        W23414  10.243  43.371  10.910
58155W        W23415  15.060  13.296  12.114
58156W        W23416  10.214  42.043  10.171
58157W        W23417   6.102  33.187  11.954
58158W        W23418  22.616  18.636   4.449
58159W        W23419   4.453  28.507   2.783
58160W        W23420  26.950   1.135   4.573
58161W        W23421   9.448  42.817  11.572
58162W        W23422  44.237  40.512   1.212
58163W        W23423  20.556  13.319   2.288
58164W        W23424  44.189  10.362  11.646
58165W        W23425  21.470   2.185   3.220
58166W        W23426  10.280   0.673   5.057
58167W        W23427  38.142  38.227  10.704
58168W        W23428  30.271  29.385  11.983
58169W        W23429  32.434  42.636   0.455
58170W        W23430   3.196  19.987  11.521
58171W        W23431  43.748  21.145   1.005
58172W        W23432  17.638  10.805  12.888
58173W        W23433  33.086  16.458  14.203
58174W        W23434   1.365  15.377   1.885
58175W        W23435  42.423   6.097   4.657
58176W        W23436  35.119  38.837   0.953
58177W        W23437  41.373   9.067  14.422
58178W        W23438  17.244  35.108  12.906
58179W        W23439  14.561  43.045   1.845
58180W        W23440  43.189   6.452   0.820
58181W        W23441  38.528  40.074   0.307
58182W        W23442  25.544  14.894  13.934
58183W        W23443  42.288  44.266   2.236
58184W        W23444  34.609  28.655  12.659
58185W        W23445  30.099  21.640  12.018
58186W        W23446  24.013  28.415   1.817
58187W        W23447   8.410  22.615  11.437
58188W        W23448  28.636  24.192  10.753
58189W        W23449   9.410  44.675   4.199
58190W        W23450  36.078  33.481   0.478
58191W        W23451   5.271   7.612   1.378
58192W        W23452  40.451   3.965  14.894
58193W        W23453  28.992  12.695  11.966
58194W        W23454  22.140  24.149  12.518
58195W        W23455  29.343  14.138   4.444
58196W        W23456  22.476  18.446  12.029
58197W        W23457  16.818  40.861   4.972
58198W        W23458  39.480  33.215  13.226
58199W        W23459   2.952  36.496  11.149
58200W        W23460  18.113  39.383   2.807
58201W        W23461  40.351  25.515  14.258
58202W        W23462   3.317   3.002  10.747
58203W        W23463  15.508  18.619  10.711
58204W        W23464   2.365  34.510   2.355
58205W        W23465  39.368   7.899  12.484
58206W        W23466  21.991  20.162  14.529
58207W        W23467  43.294  20.268  11.973
58208W        W23468  34.395  20.821   4.258
58209W        W23469  40.851  31.987  11.205
58210W        W23470  36.799  13.024  12.491
58211W        W23471  18.994   4.527  14.518
58212W        W23472  25.376  17.797   2.359
58213W        W23473  24.036  37.154   2.391
58214W        W23474  11.285  30.587   0.735
58215W        W23475  33.551  17.638  14.777
58216W        W23476  30.092  12.361  12.694
58217W        W23477  31.051  24.441   5.366
58218W        W23478  10.927  33.061  13.415
58219W        W23479  26.642   4.122  11.939
58220W        W23480  16.847  16.646   2.899
58221W        W23481  12.059  21.637  10.846
58222W        W23482  25.981  22.624  11.542
58223W        W23483   0.422  44.379   4.608
58224W        W23484   7.214  41.543  14.015
58225W        W23485  33.468   3.485  11.125
58226W        W23486  23.638  31.629   2.790
58227W        W23487  27.434  44.255   1.410
58228W        W23488  42.846  43.375   2.372
58229W        W23489  28.496  11.868  14.839
58230W        W23490  38.285  33.872   0.567
58231W        W23491  44.278  31.708   0.294
58232W        W23492  41.812  41.416  10.810
58233W        W23493  37.722  12.183  11.171
58234W        W23494  44.224  33.569   0.014
58235W        W23495   1.584  23.121   4.293
58236W        W23496  11.650   8.549  14.286
58237W        W23497  11.242  18.336  14.789
58238W        W23498  23.824  21.677  12.999
58239W        W23499   4.160  39.791   0.728
58240W        W23500  21.668  44.282   0.805
58241W        W23501  12.937  41.553   0.508
58242W        W23502  21.093  19.468  13.475
58243W        W23503   1.049  35.852   3.651
58244W        W23504  16.575  29.250  11.065
58245W        W23505  30.300  38.086  11.417
58246W        W23506   0.501  31.811   2.758
58247W        W23507   5.920  18.052   2.775
58248W        W23508  37.638  31.420  13.802
58249W        W23509   2.378  31.505  12.147
58250W        W23510   8.923  31.994  12.973
58251W        W23511  34.016  16.144   1.070
58252W        W23512  10.290  43.943  14.386
58253W        W23513  14.344   1.705  14.846
58254W        W23514  42.587  37.939   2.274
58255W        W23515  44.828  27.470  12.070
58256W        W23516  35.497  31.625   3.694
58257W        W23517  42.416  20.951  10.619
58258W        W23518  32.475  24.618   4.617
58259W        W23519   8.940  28.641  13.482
58260W        W23520  21.218  35.111   3.579
58261W        W23521   9.006  39.281  11.598
58262W        W23522  37.205  42.909   4.401
58263W        W23523  25.463  17.380   4.629
58264W        W23524  27.068   5.270   4.204
58265W        W23525   0.713   7.965   4.182
58266W        W23526   1.982  22.077   1.339
58267W        W23527  20.122   5.926  12.520
58268W        W23528  16.773   4.506  12.503
58269W        W23529  40.931  40.255  12.898
58270W        W23530  14.006  38.400   1.884
58271W        W23531  37.040   2.904   3.185
58272W        W23532  40.263  20.810   0.508
58273W        W23533  42.829  22.203   4.568
58274W        W23534   6.931   7.046   0.171
58275W        W23535  25.620  21.657   2.026
58276W        W23536  34.836  14.583  13.891
58277W        W23537   5.927  30.207  13.973
58278W        W23538   3.488  31.997  13.013
58279W        W23539  43.753  43.812  14.780
58280W        W23540   3.230  31.952   5.012
58281W        W23541  29.297   5.709  14.458
58282W        W23542   7.735  43.753  12.375
58283W        W23543   6.275  20.974  13.517
58284W        W23544  28.968   3.932  10.960
58285W        W23545  34.271  19.755  11.882
58286W        W23546   0.409  15.033  11.931
58287W        W23547  12.798  11.685  11.566
58288W        W23548  15.828  10.974  14.570
58289W        W23549   1.297  40.354   1.144
58290W        W23550  44.580   0.995  12.623
58291W        W23551  39.316  24.178  14.853
58292W        W23552  27.657  20.853  10.709
58293W        W23553  20.244  43.427   2.088
58294W        W23554  20.594  38.732  13.113
58295W        W23555  25.704   2.026   4.548
58296W        W23556  41.099  34.728   0.804
58297W        W23557   6.821  27.579  14.209
58298W        W23558   5.880  25.450   4.132
58299W        W23559   7.193  21.489  13.860
58300W        W23560  10.596   2.429   2.679
58301W        W23561  40.925  30.030  11.586
58302W        W23562   7.670  29.917   4.753
58303W        W23563  44.937   4.345  10.560
58304W        W23564   8.682  17.522  13.246
58305W        W23565  39.871  17.535  12.094
58306W        W23566  32.479  33.760   3.984
58307W        W23567  29.436  33.994  13.931
58308W        W23568  19.305   2.325   3.619
58309W        W23569   6.705  20.159   3.652
58310W        W23570   3.114   6.794  13.473
58311W        W23571   2.939  17.372  10.662
58312W        W23572  39.090  44.783  13.372
58313W        W23573  25.463   7.995   3.041
58314W        W23574  13.219  26.303  14.785
58315W        W23575  14.699  11.379  12.397
58316W        W23576  35.362  11.445   2.621
58317W        W23577   3.958  32.465  11.294
58318W        W23578  23.070  30.561   1.343
58319W        W23579  39.590  10.264  14.406
58320W        W23580  12.763  27.199  14.437
58321W        W23581  38.365  32.347   2.460
58322W        W23582  26.698  22.013   2.904
58323W        W23583   1.369  12.667  10.777
58324W        W23584   1.415   5.050  12.873
58325W        W23585  27.125  39.605  14.335
58326W        W23586  28.251   2.832  14.722
58327W        W23587  40.775  28.831   0.483
58328W        W23588  23.744  28.240   1.286
58329W        W23589   2.396  24.503   0.511
58330W        W23590  26.767  19.230   5.124
58331W        W23591  30.895  38.040  12.607
58332W        W23592  39.497  42.259  12.829
58333W        W23593  19.657  17.299   1.201
58334W        W23594  21.284  16.178  13.518
58335W        W23595  16.342  28.009   9.985
58336W        W23596  25.213  13.828   4.661
58337W        W23597  27.030  16.930  10.458
58338W        W23598   0.866   0.969   3.164
58339W        W23599   7.056  26.812  14.493
58340W        W23600   9.019  29.779   1.788
58341W        W23601  37.876   6.739   4.209
58342W        W23602   0.372  32.394  12.115
58343W        W23603  35.869  11.930   1.871
58344W        W23604  34.122  29.227  12.675
58345W        W23605  25.972  13.284  13.817
58346W        W23606   0.363  36.435   4.599
58347W        W23607  27.033  27.532  14.335
58348W        W23608  39.490  29.966   2.368
58349W        W23609  31.585   8.211   0.687
58350W        W23610  17.681  36.442  11.878
58351W        W23611   5.062  13.688  14.350
58352W        W23612  16.681  33.459  11.091
58353W        W23613  23.220  27.130   1.400
58354W        W23614   7.104  14.001   3.805
58355W        W23615  29.900  11.228   2.429
58356W        W23616  43.405  42.538  13.105
58357W        W23617  28.589   2.016   3.426
58358W        W23618  16.664  10.395   4.313
58359W        W23619  18.394   1.583  12.062
58360W        W23620  21.744  11.177   2.278
58361W        W23621  42.373  28.445  10.844
58362W        W23622  23.648   5.782  10.664
58363W        W23623  10.709   9.611  14.196
58364W        W23624  22.854  16.716  14.909
58365W        W23625  30.267  41.972  14.882
58366W        W23626  30.436  36.265  12.571
58367W        W23627  19.239  15.274   1.479
58368W        W23628  36.082   0.277   5.303
58369W        W23629  25.845   3.691   0.245
58370W        W23630  14.039  21.033   3.375
58371W        W23631   8.733  20.768  11.718
58372W        W23632  26.795  23.013  12.386
58373W        W23633  15.654  21.149  13.843
58374W        W23634   1.756  44.101  11.175
58375W        W23635  37.919   8.709   3.630
58376W        W23636  17.185  10.300  11.496
58377W        W23637  42.769   7.103   1.450
58378W        W23638  39.660  23.501   0.215
58379W        W23639   5.791  27.485   0.256
58380W        W23640   9.424  21.957  12.541
58381W        W23641   4.756   1.877  11.619
58382W        W23642  44.783   9.414   0.809
58383W        W23643  31.380   9.400  13.056
58384W        W23644  33.919  16.656   3.612
58385W        W23645  13.329  25.974   0.730
58386W        W23646  27.913   2.312  13.937
58387W        W23647  17.744   6.224  13.469
58388W        W23648  18.333  28.018   1.956
58389W        W23649   9.286  16.860  10.760
58390W        W23650  17.898  14.434  12.509
58391W        W23651  13.043  27.916  12.662
58392W        W23652  32.582  35.066  13.206
58393W        W23653  44.016   6.688  10.685
58394W        W23654  20.519  44.228   4.767
58395W        W23655   8.194  39.937  11.556
58396W        W23656  13.697  16.264   3.160
58397W        W23657  29.506   1.045  13.796
58398W        W23658  21.556  20.765   1.737
58399W        W23659  31.426  30.744   3.206
58400W        W23660  10.250  20.658  10.764
58401W        W23661  26.691  37.241   2.395
58402W        W23662  11.883  17.735  14.076
58403W        W23663  41.216   3.817  14.309
58404W        W23664  19.242  23.477   2.986
58405W        W23665  36.538  35.929  14.378
58406W        W23666  36.974  26.454  10.643
58407W        W23667  23.248  26.172   1.427
58408W        W23668  32.537   3.683  14.508
58409W        W23669  29.137  13.449  12.438
58410W        W23670  33.148  31.602   4.584
58411W        W23671  40.655   9.070   3.630
58412W        W23672  21.135   9.752   1.728
58413W        W23673  30.011  39.980  14.069
58414W        W23674  30.681  11.672   2.300
58415W        W23675  11.943  30.904   0.151
58416W        W23676  30.635  26.415  12.059
58417W        W23677   5.492  18.151  12.619
58418W        W23678  32.043  43.906  13.396
58419W        W23679  11.444  44.880   4.041
58420W        W23680  19.740  22.988   2.356
58421W        W23681  17.614  35.952   0.374
58422W        W23682  28.046  35.320  11.550
58423W        W23683  26.972  26.656   0.424
58424W        W23684  11.366  26.149  11.862
58425W        W23685  12.361   3.889   2.285
58426W        W23686  23.133  21.839   4.292
58427W        W23687   6.612  19.074  11.405
58428W        W23688  12.803  13.863  12.508
58429W        W23689  11.386  14.169   4.013
58430W        W23690   3.165  32.338  12.093
58431W        W23691  29.054  36.092   3.227
58432W        W23692  25.047  21.033   4.552
58433W        W23693  29.039  17.196   0.305
58434W        W23694  17.816  37.605   4.446
58435W        W23695  18.998  41.866   3.699
58436W        W23696  34.093  27.062   0.232
58437W        W23697  39.803  12.317   3.216
58438W        W23698   2.802   4.361  13.898
58439W        W23699  35.232  29.200   1.505
58440W        W23700  42.567  19.337   3.741
58441W        W23701  31.140  18.468   0.387
58442W        W23702  13.779  28.522  14.036
58443W        W23703   5.031  13.342  11.963
58444W        W23704   1.431   0.571  12.155
58445W        W23705  35.120  28.322  10.282
58446W        W23706  32.344  35.988  11.741
58447W        W23707  15.259   2.782  13.953
58448W        W23708   6.271  15.786   4.150
58449W        W23709  44.803   1.248  13.094
58450W        W23710  44.756  35.487   2.738
58451W        W23711  11.059   7.757  14.845
58452W        W23712   9.266  30.423   0.254
58453W        W23713   0.739  28.698  13.142
58454W        W23714   7.693   3.325   4.585
58455W        W23715  24.186   1.158   1.451
58456W        W23716  32.129   7.281   4.622
58457W        W23717  34.109   9.122   2.251
58458W        W23718  18.738  11.211  10.698
58459W        W23719   4.721   8.771  13.856
58460W        W23720  20.265   1.812   5.072
58461W        W23721  21.536  18.099   0.295
58462W        W23722   9.140  21.547   1.390
58463W        W23723   4.732  24.442   4.293
58464W        W23724   7.309  36.505   1.334
58465W        W23725  40.361  24.164   4.162
58466W        W23726  18.642  42.337  11.188
58467W        W23727  20.596  11.323   4.102
58468W        W23728  14.232  22.310   0.373
58469W        W23729  15.316  36.482  14.286
58470W        W23730  26.257  32.560  12.358
58471W        W23731   4.160  24.571   2.716
58472W        W23732   4.171  41.324  14.845
58473W        W23733  30.170   4.278  13.451
58474W        W23734  37.842  39.801  12.387
58475W        W23735  22.093  10.256  10.204
58476W        W23736  31.364  23.262   4.085
58477W        W23737  26.631  30.928  11.461
58478W        W23738   8.188  34.837  11.200
58479W        W23739  41.537  21.860   4.506
58480W        W23740  25.184  10.209  12.466
58481W        W23741   4.420  23.452   1.331
58482W        W23742   4.897  35.689   4.047
58483W        W23743  34.013   6.130  10.603
58484W        W23744  21.483  12.194  14.474
58485W        W23745  21.199  34.935   3.104
58486W        W23746  18.205  16.395  13.601
58487W        W23747  19.720   8.371  12.042
58488W        W23748  12.082  10.801  10.685
58489W        W23749  10.238  11.535   5.088
58490W        W23750  41.617  34.530   2.145
58491W        W23751  25.185  21.534   0.186
58492W        W23752  27.170  40.101   0.219
58493W        W23753  16.932  38.505   3.299
58494W        W23754   5.556  42.409  11.761
58495W        W23755   7.653  12.726   1.742
58496W        W23756  32.691  12.283  11.618
58497W        W23757   3.379  28.411  12.968
58498W        W23758   8.383  38.025  11.973
58499W        W23759  30.975  25.065  13.091
58500W        W23760  40.032  14.502   1.893
58501W        W23761   2.814  28.162   9.718
58502W        W23762   9.870  15.593   4.915
58503W        W23763  22.611   3.139   1.844
58504W        W23764  11.688  25.813  11.629
58505W        W23765  30.714  13.840   3.303
58506W        W23766   7.392  44.710   0.940
58507W        W23767  42.935   0.947   2.112
58508W        W23768  10.145  27.997   3.478
58509W        W23769  33.318   4.309   1.782
58510W        W23770  41.367  11.800  10.213
58511W        W23771   6.830  42.939   0.814
58512W        W23772  28.667  43.356  11.649
58513W        W23773  21.527  33.071  11.050
58514W        W23774  19.072  34.757  11.568
58515W        W23775  24.041  36.640   0.460
58516W        W23776  27.096  33.134  14.938
58517W        W23777  30.723  29.157  14.900
58518W        W23778  21.805  18.598   9.809
58519W        W23779  23.747  18.487   1.138
58520W        W23780   7.149  25.452  12.050
58521W        W23781  43.846   9.103  12.615
58522W        W23782   9.639  18.033  12.204
58523W        W23783  41.215  31.399   0.212
58524W        W23784  15.293  32.064  12.851
58525W        W23785  24.440  35.939  14.954
58526W        W23786  18.627  38.826  13.861
58527W        W23787  15.706   7.136  13.252
58528W        W23788  36.615  16.112   0.949
58529W        W23789   1.759  11.824   4.291
58530W        W23790  37.300  33.435   4.430
58531W        W23791   6.310   1.290   4.359
58532W        W23792  13.654  15.356  12.598
58533W        W23793   0.690   5.465  11.525
58534W        W23794  19.537  44.744  12.035
58535W        W23795  44.928   1.273  14.418
58536W        W23796   5.977   3.386   3.657
58537W        W23797  16.653   2.810  14.278
58538W        W23798   3.802  27.170   4.488
58539W        W23799   8.310  43.871   0.541
58540W        W23800   9.503  25.056   2.221
58541W        W23801  21.297  28.241  12.964
58542W        W23802  26.495  26.916   1.734
58543W        W23803  39.811   6.351   1.529
58544W        W23804  16.208  12.868  14.562
58545W        W23805  11.812  23.677  14.774
58546W        W23806  29.835  21.226  14.818
58547W        W23807  39.008   9.947   3.074
58548W        W23808  12.886  13.189  13.274
58549W        W23809   6.728  34.945  13.118
58550W        W23810  36.215   4.211   3.703
58551W        W23811  39.039  35.883   1.477
58552W        W23812   2.662  18.305   4.107
58553W        W23813  27.396   6.752   4.165
58554W        W23814  44.698  34.127  11.627
58555W        W23815  15.815  10.312   3.344
58556W        W23816  13.083  35.122  12.203
58557W        W23817  27.912  31.575   2.361
58558W        W23818  14.460   2.522   0.483
58559W        W23819  13.188  43.253   2.686
58560W        W23820   4.271  10.449   3.724
58561W        W23821  12.192  40.982   4.161
58562W        W23822  30.223  26.561  13.592
58563W        W23823   3.294   7.334   1.359
58564W        W23824  36.022  27.729  13.335
58565W        W23825  15.126  24.941   2.861
58566W        W23826  31.722  18.497  12.210
58567W        W23827  36.179  23.002   4.878
58568W        W23828  15.083  44.175  10.994
58569W        W23829  44.296   3.876   2.222
58570W        W23830  21.957  32.113  14.460
58571W        W23831   8.186  10.183  12.560
58572W        W23832  17.506  40.381   0.318
58573W        W23833  43.675  18.613   4.083
58574W        W23834  42.856  18.072  13.032
58575W        W23835  23.891  15.185  12.290
58576W        W23836  41.392  32.781   1.667
58577W        W23837   6.475  27.448  12.463
58578W        W23838   9.655  18.786  13.834
58579W        W23839  40.224  14.435   3.656
58580W        W23840  33.889  20.173   4.516
58581W        W23841  33.303   9.373   3.295
58582W        W23842  39.708   7.301  12.554
58583W        W23843   0.252  36.859  11.523
58584W        W23844  26.132  17.878   0.264
58585W        W23845  15.300  15.466  12.586
58586W        W23846   0.971  41.905   0.377
58587W        W23847  26.267  34.072  14.243
58588W        W23848  33.875  38.326   0.885
58589W        W23849  21.630  42.509  10.533
58590W        W23850  16.862  35.183   4.120
58591W        W23851  43.032  33.022  12.093
58592W        W23852  28.718   5.342   0.242
58593W        W23853  43.700  33.518  13.682
58594W        W23854  25.714  25.742  10.334
58595W        W23855  20.937   4.475  10.289
58596W        W23856  10.491  11.138   1.255
58597W        W23857  24.971  10.415   1.722
58598W        W23858  26.785   4.315  12.868
58599W        W23859  10.594  18.944   4.753
58600W        W23860  15.838   4.896  11.474
58601W        W23861  11.644   9.383  13.976
58602W        W23862  24.688   1.134   3.162
58603W        W23863  14.302   9.715   0.895
58604W        W23864  37.866   9.608  11.235
58605W        W23865  30.902  20.576  11.996
58606W        W23866  11.984   3.888   1.472
58607W        W23867  40.349  31.570   0.923
58608W        W23868  25.461  12.668  11.271
58609W        W23869  15.962  12.183   3.289
58610W        W23870  40.759  22.669   1.452
58611W        W23871  42.243  42.860   3.662
58612W        W23872  42.246  22.638   1.273
58613W        W23873  42.616  12.221   1.715
58614W        W23874  22.370  23.429   4.906
58615W        W23875  35.394  26.167  13.455
58616W        W23876  13.086   9.849  11.064
58617W        W23877  29.990   2.674  12.462
58618W        W23878  15.539   5.711  14.428
58619W        W23879   1.741  15.870   3.674
58620W        W23880  18.670  44.849  13.817
58621W        W23881  41.287  42.307  12.014
58622W        W23882   7.418   7.909   4.946
58623W        W23883  37.562  31.986  10.648
58624W        W23884   4.013  34.952  13.536
58625W        W23885  38.761  18.288  12.344
58626W        W23886  43.487  31.680  10.864
58627W        W23887   5.117  28.483   4.528
58628W        W23888   7.574   1.893  11.963
58629W        W23889  10.566  11.136   5.048
58630W        W23890  13.058  15.096   1.224
58631W        W23891  13.674  18.413  10.948
58632W        W23892  32.436  15.526   3.123
58633W        W23893  11.793  39.434   0.659
58634W        W23894  30.160   3.694  14.542
58635W        W23895  27.102  22.061  10.349
58636W        W23896  15.900   2.374  12.909
58637W        W23897   6.779  13.926   2.971
58638W        W23898  25.947   3.237  12.887
58639W        W23899   9.915  26.625  10.997
58640W        W23900  10.687  31.084   3.731
58641W        W23901  28.169  22.728  13.774
58642W        W23902  44.255  35.284   0.734
58643W        W23903  15.308   4.638   4.673
58644W        W23904  35.417  35.173  13.639
58645W        W23905   9.612  33.128  13.612
58646W        W23906  13.042   8.771   3.498
58647W        W23907  14.276   2.879  13.566
58648W        W23908  29.777  13.491  10.681
58649W        W23909  14.710  12.836   2.284
58650W        W23910  34.514  36.076  14.060
58651W        W23911  23.711  26.691  10.444
58652W        W23912   5.492  32.123  14.422
58653W        W23913   2.781  43.769  12.829
58654W        W23914  28.813  24.578   1.057
58655W        W23915  40.487  24.626  10.722
58656W        W23916  42.041  36.444  12.437
58657W        W23917  39.304   3.296   4.624
58658W        W23918  15.614  40.030  12.167
58659W        W23919  43.960  35.626   1.891
58660W        W23920  16.284  39.495   0.395
58661W        W23921  29.280   0.552   4.058
58662W        W23922  35.474  21.276  12.552
58663W        W23923  40.611  40.557  13.208
58664W        W23924  38.859   7.510  11.665
58665W        W23925  42.053   5.301   1.829
58666W        W23926  42.359  42.332   3.858
58667W        W23927  25.623  25.607   3.632
58668W        W23928  36.717   0.484  12.128
58669W        W23929  15.340  10.185  10.652
58670W        W23930  44.523  16.612  10.183
58671W        W23931  14.405  27.737   5.015
58672W        W23932  34.484  36.658  11.188
58673W        W23933  41.102   4.326  11.675
58674W        W23934  19.708  43.285  11.552
58675W        W23935  36.531   2.733   0.949
58676W        W23936   2.990  36.568   1.331
58677W        W23937  29.990  30.912  13.914
58678W        W23938  17.212  22.714  14.641
58679W        W23939  15.747  28.302   0.228
58680W        W23940  43.398  38.229   1.491
58681W        W23941  24.295   9.915  12.421
58682W        W23942  12.677  24.707  14.427
58683W        W23943  39.629  33.709  13.897
58684W        W23944  18.481   5.949  14.525
58685W        W23945  12.703   0.742  13.896
58686W        W23946  42.269  39.359   4.136
58687W        W23947  41.938  30.929   0.396
58688W        W23948  35.844  38.542  11.614
58689W        W23949  26.554  23.240  13.971
58690W        W23950  29.754   7.275  14.816
58691W        W23951  31.068   3.516   1.302
58692W        W23952  25.049  35.010   2.878
58693W        W23953  31.097  40.324  12.345
58694W        W23954   5.357   6.155   1.949
58695W        W23955   2.612  38.281   3.651
58696W        W23956  24.076  21.672   2.223
58697W        W23957  34.088  31.715   4.831
58698W        W23958  31.965  20.118   0.098
58699W        W23959   6.299  26.154   1.225
58700W        W23960  40.451  19.351   3.151
58701W        W23961  15.017  26.049  12.185
58702W        W23962  21.933  38.511  12.013
58703W        W23963  33.618  34.872  11.498
58704W        W23964  35.200  35.010  11.902
58705W        W23965   7.238   0.931  13.184
58706W        W23966  11.656  26.598  13.454
58707W        W23967   1.476   0.703   1.718
58708W        W23968  11.783  26.144   0.755
58709W        W23969  17.341  40.198   3.791
58710W        W23970  19.980  43.867  14.912
58711W        W23971  38.316  26.083  12.328
58712W        W23972  22.242   0.418   0.284
58713W        W23973  26.171  36.824  13.492
58714W        W23974  38.115   7.921   0.463
58715W        W23975  42.537  30.606   1.026
58716W        W23976  16.376  44.401   0.757
58717W        W23977  14.556   2.473   4.685
58718W        W23978   9.093   5.463  12.041
58719W        W23979  35.873  34.553   3.566
58720W        W23980  32.200  43.716   0.228
58721W        W23981  39.776  28.374   3.675
58722W        W23982  43.647  10.343  11.626
58723W        W23983  42.435  42.607   1.766
58724W        W23984  31.690   5.950  11.172
58725W        W23985  20.086  32.398   2.318
58726W        W23986  44.375  17.745   3.644
58727W        W23987  35.161  24.950  10.317
58728W        W23988  18.343  32.393   4.995
58729W        W23989   0.038  34.047   3.260
58730W        W23990  37.060  34.022  11.016
58731W        W23991  41.039  22.922   3.950
58732W        W23992   8.885   4.334  12.501
58733W        W23993  23.384  37.088   4.306
58734W        W23994   4.843   0.179   2.817
58735W        W23995  43.904  28.893   2.321
58736W        W23996  15.328  23.705  10.157
58737W        W23997  16.567  34.026   2.652
58738W        W23998  26.814   4.231   0.776
58739W        W23999  24.207  23.440   4.929
58740W        W24000   4.791  43.091   4.737
58741W        W24001   7.302  10.120   4.434
58742W        W24002  43.918  30.891   2.554
58743W        W24003  44.206   5.346  12.576
58744W        W24004  36.201  37.789   0.884
58745W        W24005  35.517  34.229  10.923
58746W        W24006  15.965   2.527  14.047
58747W        W24007   5.764  16.774  12.627
58748W        W24008  34.026  34.552   3.563
58749W        W24009  17.486  13.291   1.820
58750W        W24010  28.860  24.849  14.032
58751W        W24011  15.061  31.376   0.742
58752W        W24012  44.317   3.617   0.855
58753W        W24013  17.181  24.550  13.337
58754W        W24014  42.209  33.169  11.177
58755W        W24015  21.111   6.366  14.087
58756W        W24016  34.675  30.879  13.562
58757W        W24017   0.339  40.020   2.319
58758W        W24018  12.209  10.365   1.617
58759W        W24019  17.327  32.009  11.251
58760W        W24020  22.030  40.393   0.552
58761W        W24021  34.847   1.152  10.268
58762W        W24022  44.338  39.545  13.068
58763W        W24023  20.216  44.219   0.677
58764W        W24024  39.797   4.724  10.191
58765W        W24025  32.520  14.676  11.672
58766W        W24026   6.607  23.471   2.354
58767W        W24027  37.259  26.983   0.403
58768W        W24028  38.310  18.807   0.011
58769W        W24029  42.052  18.159  10.628
58770W        W24030  21.751  27.848  13.871
58771W        W24031  38.368   6.924  13.826
58772W        W24032  44.218   1.360   2.615
58773W        W24033  17.313  32.647   2.935
58774W        W24034  27.429  28.166  11.727
58775W        W24035  27.930   8.322  14.331
58776W        W24036  13.800  15.012   0.914
58777W        W24037  36.395  38.032   1.302
58778W        W24038   2.661   2.414   1.869
58779W        W24039  35.444  11.389   1.219
58780W        W24040  25.637  41.627   3.686
58781W        W24041  18.021  26.207   0.982
58782W        W24042  43.825  15.134   5.516
58783W        W24043  23.734   9.772   1.814
58784W        W24044  12.138  36.522  12.517
58785W        W24045   6.452  37.445   0.683
58786W        W24046  30.689  44.541  13.264
58787W        W24047  27.794  33.556  10.054
58788W        W24048   9.656  38.558  11.536
58789W        W24049  36.940  21.712   3.511
58790W        W24050  23.150   7.456   2.734
58791W        W24051  24.441  12.254  13.357
58792W        W24052  39.750   2.236   2.595
58793W        W24053  28.091  18.800  11.054
58794W        W24054  23.917  14.158  12.551
58795W        W24055  22.258  34.289   5.084
58796W        W24056  24.618   2.016   1.277
58797W        W24057  19.459  13.773   0.516
58798W        W24058  42.040  15.175  13.867
58799W        W24059   3.038  31.814   0.200
58800W        W24060  13.580  37.066   0.324
58801W        W24061  32.573  41.251   3.770
58802W        W24062  39.487   0.351   4.610
58803W        W24063   6.944  34.568   1.192
58804W        W24064   7.347   1.722   3.673
58805W        W24065  36.485  34.139  12.797
58806W        W24066   7.225  38.077  14.469
58807W        W24067  20.910  11.096   1.729
58808W        W24068   9.416  41.074   2.631
58809W        W24069  29.555  37.437   0.762
58810W        W24070   2.306  39.655   2.339
58811W        W24071  21.109  19.101   4.262
58812W        W24072  38.042   5.710   2.202
58813W        W24073  35.510  38.033  11.541
58814W        W24074  38.685  34.421   3.450
58815W        W24075  37.813  17.100   4.634
58816W        W24076  38.590   1.068   0.311
58817W        W24077  39.834  29.011   0.285
58818W        W24078   2.264  23.720   3.017
58819W        W24079   0.231  36.290  14.093
58820W        W24080  25.436  19.956   0.233
58821W        W24081  36.107  27.180   0.810
58822W        W24082  11.405  36.665   1.440
58823W        W24083  11.648   9.365   2.504
58824W        W24084  18.141  37.376   2.892
58825W        W24085   4.394  30.671   1.223
58826W        W24086  30.453  24.840  10.311
58827W        W24087  34.434   9.133  14.481
58828W        W24088  35.482  26.473   4.445
58829W        W24089   4.832   2.543  12.023
58830W        W24090  31.240   2.657   1.701
58831W        W24091  41.279  27.189   3.644
58832W        W24092  12.553   4.626   0.574
58833W        W24093  41.770  36.125   1.225
58834W        W24094  36.494  10.822  12.093
58835W        W24095  33.832   2.348   2.663
58836W        W24096  33.470  37.080  11.110
58837W        W24097  35.367   5.694   2.382
58838W        W24098  44.855   5.398   2.804
58839W        W24099  35.446  29.177  12.848
58840W        W24100  31.000  29.179   0.384
58841W        W24101  12.760  42.738  13.810
58842W        W24102  31.431   1.841   4.252
58843W        W24103  32.443  32.492   1.466
58844W        W24104  37.676   7.635  12.896
58845W        W24105  21.578  18.875  11.128
58846W        W24106  23.017  10.152  12.627
58847W        W24107   0.651  39.137  13.437
58848W        W24108  15.780  38.267   0.364
58849W        W24109   8.279  31.165   0.272
58850W        W24110  28.099  37.269  10.932
58851W        W24111  15.353  29.450  12.112
58852W        W24112   1.466  40.034   1.851
58853W        W24113  26.131  34.556   4.252
58854W        W24114   4.266  25.075   2.598
58855W        W24115  22.580  36.859  12.115
58856W        W24116   4.729  13.690  11.728
58857W        W24117   5.380   8.731   1.961
58858W        W24118  34.583  11.697   0.772
58859W        W24119  21.454  25.411  14.804
58860W        W24120   3.748  43.538   2.193
58861W        W24121   1.020  37.842  13.582
58862W        W24122  20.899  13.791   0.632
58863W        W24123  29.669   6.565   2.529
58864W        W24124  38.789  20.231   2.857
58865W        W24125  39.633   0.357   4.131
58866W        W24126  37.464  15.151  10.600
58867W        W24127  26.215  34.539   1.461
58868W        W24128  28.502  27.961   4.715
58869W        W24129  15.655  24.076   4.555
58870W        W24130  21.887  40.025   3.611
58871W        W24131  16.212  12.741   4.271
58872W        W24132  33.423  42.376  10.427
58873W        W24133  12.751  26.559  13.914
58874W        W24134  31.035  12.610   1.461
58875W        W24135  12.161  10.273  11.100
58876W        W24136  37.178   2.445   4.535
58877W        W24137   7.754   7.096   1.881
58878W        W24138   5.395  19.231  10.483
58879W        W24139  26.541   2.519   1.246
58880W        W24140   0.931   9.641  13.278
58881W        W24141  42.935  40.914  10.642
58882W        W24142  28.715   8.121  12.573
58883W        W24143   4.809  42.078   4.591
58884W        W24144  39.457  21.331  12.452
58885W        W24145  31.190  14.183   5.104
58886W        W24146  41.943  26.157   4.585
58887W        W24147  18.268  17.366   2.924
58888W        W24148  17.386  25.287   0.764
58889W        W24149  15.531  38.419   2.778
58890W        W24150  35.648  21.702  11.106
58891W        W24151  22.702  44.265   5.086
58892W        W24152   0.997  16.610   0.723
58893W        W24153   5.846   1.426   1.579
58894W        W24154  25.024  16.413   4.036
58895W        W24155  16.736  36.106  10.633
58896W        W24156  35.662  43.953   0.265
58897W        W24157  12.633  26.198  14.418
58898W        W24158   4.854  37.577  13.923
58899W        W24159  40.928   2.697  10.669
58900W        W24160  31.833  31.413  13.868
58901W        W24161  11.210  30.081  12.132
58902W        W24162  41.491  35.424   3.692
58903W        W24163  34.216  44.541  12.381
58904W        W24164  28.518  35.084   3.259
58905W        W24165   0.083   7.763   1.173
58906W        W24166  20.094  30.862   0.258
58907W        W24167  31.017  24.396  10.681
58908W        W24168  39.090  13.684  11.008
58909W        W24169  21.963  44.905   1.860
58910W        W24170  17.745   4.319  10.496
58911W        W24171   3.867   6.607  11.145
58912W        W24172   2.688  34.005  13.525
58913W        W24173   7.862  29.487   3.377
58914W        W24174  27.879  20.133   2.821
58915W        W24175  44.980   7.754  13.475
58916W        W24176  37.858   7.422   0.444
58917W        W24177  14.625   3.055   1.243
58918W        W24178  36.326  15.743  14.484
58919W        W24179   7.063  17.342   4.552
58920W        W24180  30.140  14.378   4.140
58921W        W24181  44.426   3.409   3.505
58922W        W24182  39.225  35.429  13.522
58923W        W24183  30.154  16.265  12.033
58924W        W24184  17.654   7.490   4.914
58925W        W24185  29.540   3.840   2.491
58926W        W24186  23.061  38.971   2.164
58927W        W24187  35.588  42.831   4.923
58928W        W24188  22.563  29.076   2.457
58929W        W24189  31.552  34.832   0.376
58930W        W24190  27.453  29.830   1.865
58931W        W24191  35.508  26.192  14.797
58932W        W24192   3.257  39.453  14.381
58933W        W24193   1.550  44.915  10.801
58934W        W24194  38.260  42.362   5.149
58935W        W24195   9.217  19.284   3.673
58936W        W24196  31.874  21.539   1.734
58937W        W24197  33.594  37.258  10.565
58938W        W24198  10.252  19.277   2.235
58939W        W24199  32.589  16.561   0.640
58940W        W24200  26.611   0.563  14.234
58941W        W24201   8.922  19.298   2.700
58942W        W24202  22.197  25.808   3.260
58943W        W24203  41.466  15.490  13.960
58944W        W24204  28.969  12.605  14.650
58945W        W24205  28.641  24.131  14.312
58946W        W24206  26.516  29.155   4.812
58947W        W24207  15.212   4.239   2.680
58948W        W24208  24.757  16.004  14.990
58949W        W24209  15.184  19.037   0.843
58950W        W24210  24.474  14.751   3.895
58951W        W24211  23.180  41.419   1.827
58952W        W24212  15.338  30.219   4.198
58953W        W24213  15.125   4.314  14.404
58954W        W24214  44.152   9.362   4.686
58955W        W24215  15.979  42.802  12.242
58956W        W24216  20.797  15.793  14.206
58957W        W24217  36.343  17.754   3.137
58958W        W24218  15.710  42.219   1.430
58959W        W24219  25.823  36.941   9.786
58960W        W24220  14.851  10.458  14.854
58961W        W24221  36.471   6.193   3.166
58962W        W24222  11.779   0.977  10.887
58963W        W24223  42.973  15.230  11.567
58964W        W24224  40.479  44.535   4.470
58965W        W24225  13.146  37.100   3.378
58966W        W24226   6.866  21.581  11.164
58967W        W24227  13.207  22.775  13.135
58968W        W24228  27.585  43.051   2.694
58969W        W24229  43.458  35.543  13.915
58970W        W24230  42.261  38.004   4.382
58971W        W24231  42.292  10.593   2.809
58972W        W24232   5.172  27.767  12.079
58973W        W24233   9.690  28.704   9.991
58974W        W24234   5.569   5.696   1.992
58975W        W24235   7.440   9.911  12.440
58976W        W24236  33.487  44.305   4.979
58977W        W24237  19.060  14.382   2.731
58978W        W24238  19.138  38.596  10.995
58979W        W24239  37.963  20.535  11.086
58980W        W24240  19.931  13.207   1.284
58981W        W24241   2.847   5.327  14.065
58982W        W24242  26.059  12.375   4.718
58983W        W24243  20.699   9.296  14.403
58984W        W24244   9.802  12.921   4.631
58985W        W24245  16.605  14.196  13.316
58986W        W24246  16.136  17.208  12.355
58987W        W24247  32.572  24.145   5.354
58988W        W24248   4.692  33.892  10.725
58989W        W24249  13.664  39.836   1.805
58990W        W24250  24.634  29.966  13.920
58991W        W24251  43.189  43.585  12.995
58992W        W24252  40.534  16.206   1.976
58993W        W24253  20.600  12.101  14.823
58994W        W24254  44.485  28.557   2.687
58995W        W24255  14.688  16.227   0.248
58996W        W24256  19.221  42.408  13.340
58997W        W24257  12.182  42.697  10.257
58998W        W24258  14.764   9.679  13.041
58999W        W24259   8.705  39.134  12.862
59000W        W24260  23.945  24.461  10.840
59001W        W24261  14.722  33.108   1.440
59002W        W24262  19.317  23.251   5.486
59003W        W24263  14.429  35.367   4.277
59004W        W24264  29.986  38.126   1.675
59005W        W24265  12.897   9.931   5.414
59006W        W24266  40.078  29.419  12.645
59007W        W24267  28.392  12.253  12.983
59008W        W24268  18.543  25.863  13.649
59009W        W24269  10.907  19.678  12.584
59010W        W24270  38.534  25.599  13.551
59011W        W24271  40.180  37.465   4.795
59012W        W24272  10.217  23.666  11.963
59013W        W24273  16.644  26.038   2.214
59014W        W24274  27.554   5.247   2.369
59015W        W24275  22.065  23.763   0.362
59016W        W24276  44.406  37.089  13.988
59017W        W24277   1.826  25.587  11.803
59018W        W24278  38.855  31.969  11.085
59019W        W24279   6.276   4.485   1.431
59020W        W24280  41.596  24.657  12.584
59021W        W24281  42.688   7.013  13.384
59022W        W24282  36.002  10.653   4.146
59023W        W24283  42.478  25.700  11.146
59024W        W24284  11.297  22.777   4.650
59025W        W24285  14.274  15.775   3.548
59026W        W24286  40.066  16.140   1.715
59027W        W24287  15.654  34.890   0.915
59028W        W24288  43.422  35.080  12.999
59029W        W24289  13.086  35.078  10.460
59030W        W24290   5.433  12.640   3.265
59031W        W24291  32.018  14.653   2.933
59032W        W24292  39.321  24.145  11.413
59033W        W24293  30.213  30.678  11.089
59034W        W24294  37.283  28.966  13.424
59035W        W24295   8.720  10.323   2.782
59036W        W24296  34.403  36.412  14.933
59037W        W24297   5.960  31.103   0.271
59038W        W24298  20.027   7.181  12.959
59039W        W24299  18.573  31.023  12.755
59040W        W24300  15.564  28.010  11.043
59041W        W24301  20.237  26.563  10.231
59042W        W24302  34.992  38.898   0.453
59043W        W24303  29.633   3.848  13.535
59044W        W24304  23.394  21.279  11.568
59045W        W24305   0.574   5.246   2.485
59046W        W24306  18.668  27.803  12.360
59047W        W24307  31.049   3.346   4.982
59048W        W24308  17.610  21.744  11.307
59049W        W24309  41.928   4.808   4.029
59050W        W24310  34.625   8.384   4.570
59051W        W24311  41.355  21.643   3.543
59052W        W24312  15.386  31.790  13.285
59053W        W24313  30.819  26.064   0.173
59054W        W24314  35.294  29.724   1.660
59055W        W24315  26.177  22.093   4.952
59056W        W24316   7.404  24.129   2.345
59057W        W24317  42.927  41.580   1.875
59058W        W24318  19.836   7.334  12.065
59059W        W24319  16.107  16.106   0.439
59060W        W24320  42.238  28.598   4.141
59061W        W24321  23.664  17.812   2.252
59062W        W24322   1.564  27.447  12.553
59063W        W24323  18.812  20.002  12.418
59064W        W24324  33.388  23.067  13.987
59065W        W24325  14.265  44.987   2.285
59066W        W24326   7.720  25.241   1.992
59067W        W24327  42.715  38.101  14.544
59068W        W24328  35.612   7.521   2.200
59069W        W24329   4.869  25.590  13.401
59070W        W24330  35.101  16.725  12.657
59071W        W24331  15.073  21.291   0.377
59072W        W24332  42.890  43.970  12.064
59073W        W24333  31.170  39.080   5.025
59074W        W24334  10.849  33.572  10.994
59075W        W24335  25.209  27.966   2.919
59076W        W24336  17.282   9.156   4.293
59077W        W24337   2.815  35.926   3.399
59078W        W24338   4.920  40.087   4.875
59079W        W24339  29.559  36.880  11.447
59080W        W24340  34.911   7.115   5.027
59081W        W24341  42.028  17.450   3.623
59082W        W24342  44.462  12.415   4.129
59083W        W24343  20.556   0.770   4.772
59084W        W24344   4.763   4.528  12.850
59085W        W24345  25.536  25.967   4.153
59086W        W24346  17.244  38.063   4.074
59087W        W24347  22.695  30.723  11.162
59088W        W24348  27.007  31.896  12.128
59089W        W24349   8.143  33.482  13.764
59090W        W24350  32.876   0.965  12.034
59091W        W24351  42.501  11.215   5.315
59092W        W24352   5.250  30.253   2.134
59093W        W24353   6.288   9.345  14.966
59094W        W24354  28.605   5.306  13.807
59095W        W24355  21.683  27.768  12.344
59096W        W24356  14.695  44.318  13.918
59097W        W24357   7.363  23.543  12.190
59098W        W24358  38.946  41.491  14.417
59099W        W24359  26.787   5.935   1.224
59100W        W24360  29.750  15.192  11.350
59101W        W24361   7.838  11.379   4.952
59102W        W24362  14.820  27.084  14.876
59103W        W24363  15.125   6.578   9.850
59104W        W24364  38.104  42.968  14.508
59105W        W24365  39.515  25.777  12.283
59106W        W24366  13.840  29.235  10.749
59107W        W24367   5.734  14.136  14.048
59108W        W24368  15.679  10.934  13.273
59109W        W24369  14.004   2.423   1.638
59110W        W24370  23.187   0.918   2.719
59111W        W24371  12.785  43.821   4.779
59112W        W24372  11.639   6.682   4.565
59113W        W24373  34.104  24.637  13.955
59114W        W24374  23.677  40.448   2.564
59115W        W24375  41.667   2.789  13.757
59116W        W24376  38.764  38.799  10.680
59117W        W24377   1.697   5.103  13.520
59118W        W24378  37.342  35.351  12.049
59119W        W24379   1.883   5.633   1.378
59120W        W24380   9.127  30.943   3.030
59121W        W24381  42.542  42.884   2.240
59122W        W24382   2.248   0.742  12.360
59123W        W24383  34.033  20.146  11.678
59124W        W24384  37.695  30.988  10.727
59125W        W24385  41.023  11.392  11.559
59126W        W24386   2.662  35.992  12.296
59127W        W24387  32.423   5.486   2.744
59128W        W24388  13.183  21.230  10.788
59129W        W24389   2.881  16.645   3.596
59130W        W24390  17.977  25.690  11.476
59131W        W24391  40.838  14.317  10.734
59132W        W24392   8.131  27.106   0.850
59133W        W24393  44.587  19.752  13.223
59134W        W24394  15.805  23.555   0.297
59135W        W24395   1.062  20.940   2.188
59136W        W24396  36.851  17.796  11.833
59137W        W24397   1.742  21.081   1.350
59138W        W24398  39.340  10.198   2.763
59139W        W24399   0.550  11.142   1.774
59140W        W24400  41.072  14.717  14.713
59141W        W24401  19.334  37.594   3.869
59142W        W24402  41.208  36.356   0.774
59143W        W24403  18.018  17.922  11.920
59144W        W24404  40.556   1.191   4.122
59145W        W24405   5.783  32.369  12.364
59146W        W24406  44.393  18.981  12.045
59147W        W24407  32.302  37.395   0.794
59148W        W24408  38.012  12.331  11.580
59149W        W24409  21.503   9.731   3.279
59150W        W24410  39.709   0.868   3.542
59151W        W24411  19.066  14.211   3.364
59152W        W24412  13.738  33.603  10.681
59153W        W24413  17.561  27.736   1.403
59154W        W24414  34.090  31.488   1.069
59155W        W24415  32.111  36.531   0.233
59156W        W24416  27.406  19.192  12.146
59157W        W24417   9.070  28.172  12.463
59158W        W24418   3.268  44.203  12.463
59159W        W24419  27.227  20.275  11.142
59160W        W24420   7.606  16.876   4.179
59161W        W24421  21.518  31.924  13.121
59162W        W24422  25.733  39.031  13.034
59163W        W24423  24.458   1.140  14.499
59164W        W24424  40.505  29.884   4.489
59165W        W24425  20.098  41.474   3.158
59166W        W24426  31.065  42.749   0.703
59167W        W24427  39.561   8.637  12.977
59168W        W24428  12.208  19.901   2.882
59169W        W24429  15.084  21.491   0.837
59170W        W24430  10.266   2.791   2.389
59171W        W24431   5.840  38.340   4.408
59172W        W24432   0.927  28.405   4.088
59173W        W24433  13.513  40.934  12.175
59174W        W24434  30.263   8.451  12.597
59175W        W24435  15.197  14.178  10.887
59176W        W24436  29.588  24.497  14.388
59177W        W24437  21.946  39.823  11.581
59178W        W24438   8.824  42.750   3.713
59179W        W24439  30.645  28.042  11.605
59180W        W24440   3.623  26.726   2.133
59181W        W24441  27.255  11.234   1.697
59182W        W24442  41.349  29.987  12.925
59183W        W24443  32.554  43.245  11.147
59184W        W24444  18.204   2.345   4.663
59185W        W24445  15.217  28.993  10.673
59186W        W24446  14.782  17.440  11.489
59187W        W24447  12.658  15.257  11.651
59188W        W24448  25.823  21.991   4.584
59189W        W24449  10.696  35.240   3.413
59190W        W24450  29.176  39.442  11.597
59191W        W24451  31.170  12.576   0.972
59192W        W24452  25.091   2.803  11.531
59193W        W24453   9.069  37.425   4.162
59194W        W24454  42.746   1.491  11.074
59195W        W24455  11.237   4.227  14.406
59196W        W24456  11.805  44.291  10.191
59197W        W24457  22.559   2.348  12.589
59198W        W24458  34.510  33.616  10.424
59199W        W24459  29.095   9.907   0.078
59200W        W24460   4.085  28.791  14.086
59201W        W24461   8.939  15.080   3.645
59202W        W24462  33.438  11.074   1.305
59203W        W24463  28.745  32.001  11.068
59204W        W24464   4.220  13.778   1.919
59205W        W24465   1.203  10.750   0.638
59206W        W24466   1.957  10.704  11.336
59207W        W24467   5.152   8.637   2.778
59208W        W24468   3.794  12.608   1.905
59209W        W24469  16.058   8.089  11.430
59210W        W24470  38.488   8.287   1.114
59211W        W24471  27.166   3.177   4.764
59212W        W24472  10.150  35.160   2.370
59213W        W24473  43.809  22.024  10.688
59214W        W24474  43.898  30.601  13.588
59215W        W24475  14.795  40.901   3.915
59216W        W24476  38.663  43.720   3.373
59217W        W24477   3.929  41.185   1.855
59218W        W24478  29.518  29.814   2.347
59219W        W24479   5.797   4.287   1.418
59220W        W24480   4.245  30.195   3.930
59221W        W24481  41.417  22.536  14.720
59222W        W24482  21.807  44.475  11.569
59223W        W24483  10.632  37.441   1.350
59224W        W24484  33.842  33.087   3.607
59225W        W24485  43.466  38.904   4.686
59226W        W24486  23.097  34.599   0.499
59227W        W24487   9.363  22.016   1.250
59228W        W24488  13.194  42.085  14.006
59229W        W24489  19.568   0.900   0.263
59230W        W24490   4.343  17.712   3.347
59231W        W24491  27.570  18.169  12.543
59232W        W24492  36.541  29.760   2.686
59233W        W24493  26.149   5.411  11.276
59234W        W24494  23.622  20.920  11.916
59235W        W24495  37.050   0.553  13.021
59236W        W24496  28.477  39.498  11.011
59237W        W24497   8.313  23.232  12.966
59238W        W24498   9.404  37.309  13.990
59239W        W24499  43.042  19.547  13.975
59240W        W24500  41.328  18.626  12.961
59241W        W24501  44.597  41.082  11.614
59242W        W24502   4.212  37.859   4.934
59243W        W24503  39.566   7.353   3.765
59244W        W24504  16.707  10.315  11.687
59245W        W24505  24.094  11.623   4.574
59246W        W24506   9.367  40.567  11.256
59247W        W24507  35.452  41.316  13.990
59248W        W24508  20.230   6.684   4.860
59249W        W24509   9.221  11.527  12.963
59250W        W24510  11.458  39.000  14.831
59251W        W24511  14.198  30.390   3.170
59252W        W24512  21.888  37.456  10.632
59253W        W24513  16.882   1.456  14.722
59254W        W24514   7.199  44.253   2.368
59255W        W24515  17.236  40.925   3.308
59256W        W24516  13.085   8.994   4.473
59257W        W24517  28.431  43.019   0.759
59258W        W24518  20.739  32.983  13.149
59259W        W24519   5.740  30.510  10.618
59260W        W24520  16.049   4.308   0.953
59261W        W24521  12.773  22.887   2.906
59262W        W24522  16.262  15.089   4.539
59263W        W24523  25.884  44.159   2.394
59264W        W24524  14.803  11.354  14.005
59265W        W24525  20.438  36.468  11.344
59266W        W24526  32.481  43.963  10.640
59267W        W24527  44.080   5.406   4.578
59268W        W24528  26.968  21.574   2.808
59269W        W24529  25.269  43.948   3.051
59270W        W24530  15.795   4.611   4.494
59271W        W24531  29.525  42.823  14.740
59272W        W24532  43.816  32.339   2.878
59273W        W24533  37.329  20.588   1.127
59274W        W24534   3.637  40.625  14.512
59275W        W24535   9.326   0.076  12.301
59276W        W24536  43.945  15.138   1.285
59277W        W24537   5.549  22.409   1.647
59278W        W24538  31.593   2.556  13.473
59279W        W24539  36.474  42.947   0.857
59280W        W24540  44.348  19.279  13.060
59281W        W24541   6.192  10.587  11.975
59282W        W24542  33.935  14.896   3.150
59283W        W24543   6.212  15.828  13.809
59284W        W24544  12.677  39.084  14.429
59285W        W24545  36.205  30.031  10.545
59286W        W24546   2.992   1.740  11.157
59287W        W24547  20.260   6.201   0.813
59288W        W24548  14.283  42.910   1.095
59289W        W24549  32.985  33.515  14.222
59290W        W24550  20.153  23.665  11.152
59291W        W24551  34.451  34.443   0.019
59292W        W24552  43.721  38.461  14.790
59293W        W24553  10.650   2.393   1.204
59294W        W24554   1.412   0.779  13.468
59295W        W24555  20.171  10.745  11.402
59296W        W24556  21.676  15.760   1.411
59297W        W24557  31.756   1.714   2.816
59298W        W24558   4.087  43.560  13.200
59299W        W24559  24.089  19.105  12.115
59300W        W24560  23.580  40.780  12.842
59301W        W24561  17.827  20.265  12.601
59302W        W24562   3.725   9.422  13.133
59303W        W24563  41.517  10.596   3.249
59304W        W24564  17.702  38.570   2.228
59305W        W24565  28.391  22.086   0.330
59306W        W24566   5.752  43.107  14.853
59307W        W24567  34.664  40.652  10.558
59308W        W24568  24.660  14.834   2.790
59309W        W24569  28.630  22.471  12.528
59310W        W24570  22.627  13.936   3.213
59311W        W24571  34.574   4.672   0.665
59312W        W24572  33.756  17.345  11.080
59313W        W24573  30.947  41.877  11.496
59314W        W24574   4.996  28.775  13.323
59315W        W24575  43.329  43.191  10.918
59316W        W24576  18.659  34.640  11.941
59317W        W24577  27.879  26.984  12.009
59318W        W24578  34.100  13.960   1.370
59319W        W24579  40.498  32.494  14.596
59320W        W24580  19.075  19.136  14.401
59321W        W24581  25.647   6.452   2.934
59322W        W24582   6.285  40.294   4.162
59323W        W24583  40.248   7.572  10.531
59324W        W24584  11.537  18.090   5.038
59325W        W24585  19.997   0.997  12.908
59326W        W24586   4.854  17.214  14.468
59327W        W24587  34.941  33.315   4.197
59328W        W24588   8.355  41.310  12.084
59329W        W24589  10.267  31.587  12.860
59330W        W24590  24.475  20.363   0.374
59331W        W24591  27.309   4.867   3.943
59332W        W24592   9.585   9.771   1.014
59333W        W24593  27.647   6.912  14.106
59334W        W24594  34.376  13.330  13.974
59335W        W24595  19.568  13.965  14.037
59336W        W24596  33.552  18.325   3.763
59337W        W24597  15.230   9.592  11.660
59338W        W24598  24.124  25.398  11.528
59339W        W24599   5.470  25.250   5.139
59340W        W24600   4.138   3.342  10.575
59341W        W24601   4.035   5.958  13.432
59342W        W24602  34.588  11.879  14.128
59343W        W24603  15.264  38.438  12.383
59344W        W24604  12.262  13.807  11.650
59345W        W24605  20.137  23.775  11.943
59346W        W24606  14.334  15.606   4.586
59347W        W24607  32.143  34.497   3.325
59348W        W24608  14.645  43.380   4.877
59349W        W24609  38.750   2.830   3.680
59350W        W24610  17.461  13.835  11.178
59351W        W24611  36.149  30.437   3.178
59352W        W24612   6.477  14.869  14.988
59353W        W24613   7.140  11.994  11.047
59354W        W24614  21.091   2.853   0.838
59355W        W24615  27.742  18.139   4.686
59356W        W24616  19.199  18.869  10.951
59357W        W24617  13.228  29.913   0.283
59358W        W24618  14.892  18.226  14.367
59359W        W24619  25.130  15.012   1.869
59360W        W24620  31.545  30.307  10.913
59361W        W24621  22.507  34.329  11.976
59362W        W24622  13.013  34.980   3.975
59363W        W24623  36.796  43.828  12.323
59364W        W24624  12.650   2.040   4.639
59365W        W24625  21.557  17.050  12.549
59366W        W24626  14.381  12.834   4.356
59367W        W24627  15.856  13.487   3.699
59368W        W24628   7.297   1.380   2.829
59369W        W24629   4.706  12.691   3.730
59370W        W24630  36.725  35.511  14.116
59371W        W24631   6.649  32.427   0.349
59372W        W24632  20.122  29.146   4.377
59373W        W24633   9.195   5.253  13.005
59374W        W24634  44.132  44.499   4.606
59375W        W24635  24.576  29.367  11.591
59376W        W24636  24.993  12.091   3.669
59377W        W24637  35.811  27.073  10.709
59378W        W24638   6.456  33.119  11.119
59379W        W24639  31.951  15.773   0.280
59380W        W24640  14.336  44.183   2.751
59381W        W24641  29.932  22.073   4.116
59382W        W24642  16.998  43.465   3.376
59383W        W24643  42.768  30.356  14.523
59384W        W24644   3.312  18.799   2.915
59385W        W24645  28.869  30.370   2.744
59386W        W24646  11.741  38.418   2.320
59387W        W24647  20.112  27.710   1.492
59388W        W24648  29.041  44.982  14.777
59389W        W24649  31.436   9.109  12.005
59390W        W24650   6.147  25.235   0.093
59391W        W24651  26.651  40.716  11.974
59392W        W24652  42.203  43.753   1.308
59393W        W24653   0.508  31.967  14.570
59394W        W24654  10.128  10.517   1.333
59395W        W24655  24.432  27.624  11.925
59396W        W24656  44.967  16.078  11.936
59397W        W24657   1.797  38.191  11.614
59398W        W24658   3.198  10.263  13.399
59399W        W24659  29.874   8.968  10.897
59400W        W24660   4.695  17.158  12.974
59401W        W24661  30.963  15.902   1.895
59402W        W24662   8.176  22.468   2.294
59403W        W24663  38.459  19.583  10.749
59404W        W24664  36.006  23.739  10.435
59405W        W24665  31.936  19.647  14.025
59406W        W24666  37.523  29.561   2.411
59407W        W24667   3.527   5.344   0.393
59408W        W24668  24.624   6.322   2.759
59409W        W24669   8.796   0.553   3.588
59410W        W24670   6.840   5.397   0.768
59411W        W24671  33.959  40.041  13.488
59412W        W24672  16.074  24.517  12.155
59413W        W24673  11.740  31.938  13.324
59414W        W24674  20.631   0.746  12.116
59415W        W24675  41.450  35.863  13.516
59416W        W24676  30.614   1.032   2.850
59417W        W24677  32.153  28.392  14.919
59418W        W24678   0.802  40.566  14.394
59419W        W24679  21.491  37.100   0.515
59420W        W24680  42.457  25.062  13.550
59421W        W24681   1.882  43.286  10.785
59422W        W24682  11.316  26.822   3.156
59423W        W24683  39.518  24.764   2.573
59424W        W24684  32.946  35.010   3.386
59425W        W24685  37.426  28.167   2.706
59426W        W24686   7.651   6.207   5.005
59427W        W24687  16.806  15.086   0.273
59428W        W24688  12.161  21.109   4.503
59429W        W24689  20.579  40.818  12.769
59430W        W24690   9.639  25.044  10.202
59431W        W24691   0.973  14.149   4.108
59432W        W24692  22.689  31.086   3.427
59433W        W24693  14.789   7.233   4.197
59434W        W24694  13.807  23.458  10.683
59435W        W24695  12.419   5.158   3.731
59436W        W24696  44.846  17.241   0.933
59437W        W24697  41.132  43.512  12.124
59438W        W24698  27.136  17.202  13.298
59439W        W24699  26.351  17.441   4.956
59440W        W24700  33.789   1.294   2.386
59441W        W24701  29.099  42.992  12.468
59442W        W24702   6.288  24.888  14.255
59443W        W24703   5.467  11.269  14.146
59444W        W24704   5.686   6.848  11.130
59445W        W24705  29.179  26.183  13.939
59446W        W24706  15.459  40.955   4.716
59447W        W24707  15.463   4.690   2.763
59448W        W24708  19.493   6.215  10.735
59449W        W24709  24.657  36.067  13.101
59450W        W24710  16.644  40.515  13.451
59451W        W24711  21.858  13.524  11.662
59452W        W24712  20.614  23.993  11.983
59453W        W24713  42.187  21.261   2.785
59454W        W24714   5.533  41.449   2.308
59455W        W24715  31.521  40.583   0.356
59456W        W24716  18.357  33.461  14.205
59457W        W24717  14.784  38.114   2.729
59458W        W24718  27.927  24.072  11.434
59459W        W24719  34.772  34.758   4.198
59460W        W24720  36.863  39.550   3.903
59461W        W24721  26.922  22.499   2.772
59462W        W24722  38.178  35.416  14.615
59463W        W24723  13.052   3.222   4.941
59464W        W24724  25.946  19.573   1.003
59465W        W24725  15.783  25.995   4.578
59466W        W24726  25.284  11.863   4.924
59467W        W24727  22.811  38.961   3.569
59468W        W24728  39.412  25.150   2.935
59469W        W24729  23.814  36.337   1.243
59470W        W24730   9.899  23.147   1.242
59471W        W24731  44.953  23.768  12.518
59472W        W24732   7.614  44.252   0.862
59473W        W24733  30.132   3.764   4.778
59474W        W24734   1.262  32.605   0.858
59475W        W24735  17.346  33.862   3.294
59476W        W24736  40.537  31.030   2.171
59477W        W24737  42.010  18.025  14.049
59478W        W24738  13.804  21.295   2.394
59479W        W24739  43.728  39.547   3.050
59480W        W24740  38.413  14.693   0.891
59481W        W24741  17.972  14.393  11.655
59482W        W24742  25.641  44.900   2.153
59483W        W24743   1.835  33.530   1.646
59484W        W24744  12.344  44.894   3.829
59485W        W24745  41.873  25.697  12.426
59486W        W24746  43.915  19.275  13.342
59487W        W24747   4.706  25.300  13.898
59488W        W24748  27.379  21.491   2.341
59489W        W24749  33.655  29.877   2.763
59490W        W24750  44.276  44.259   3.300
59491W        W24751   4.044  22.811  10.701
59492W        W24752   2.055  14.756  14.397
59493W        W24753  14.788  21.455  12.879
59494W        W24754   5.899  34.114   3.734
59495W        W24755   6.121  29.597   1.310
59496W        W24756   8.062  31.671   2.705
59497W        W24757  44.835  38.933  14.476
59498W        W24758  25.010  21.013  12.934
59499W        W24759  32.616  25.429  12.971
59500W        W24760  42.500   5.801   4.223
59501W        W24761  38.344  32.611   3.209
59502W        W24762  35.477  16.326  13.815
59503W        W24763  15.605  25.530  13.468
59504W        W24764  44.511  27.929   0.885
59505W        W24765  38.082   6.328  11.653
59506W        W24766   4.854   0.551   4.983
59507W        W24767   5.464  27.460  12.460
59508W        W24768  43.558  28.861  11.042
59509W        W24769  39.977   7.203  13.553
59510W        W24770  21.243  18.892  11.596
59511W        W24771  21.363  19.643   2.640
59512W        W24772  19.226  37.068   1.814
59513W        W24773  14.154  14.415   2.630
59514W        W24774  42.650  17.644  11.139
59515W        W24775  11.902  12.221   1.339
59516W        W24776  13.938  44.048  10.882
59517W        W24777  43.435  30.834   1.183
59518W        W24778  13.436   6.178  12.850
59519W        W24779  22.709  33.187  10.972
59520W        W24780  16.101  43.115   1.389
59521W        W24781  24.536  11.881   4.496
59522W        W24782  40.361  41.274   1.836
59523W        W24783  24.693   1.905   0.367
59524W        W24784  25.011  34.861  10.577
59525W        W24785  10.271  10.846  12.378
59526W        W24786  39.888   0.252  12.478
59527W        W24787  17.249  31.869   0.693
59528W        W24788  37.997  41.110   0.843
59529W        W24789  37.741   6.312  10.767
59530W        W24790  15.714  41.806   4.047
59531W        W24791  32.651  34.131  13.171
59532W        W24792  33.263   0.827   3.700
59533W        W24793  17.572  35.044  12.541
59534W        W24794   2.458   8.583  12.079
59535W        W24795  43.320  24.249   1.314
59536W        W24796   6.766  29.887   0.279
59537W        W24797  22.065  30.927  14.779
59538W        W24798  16.041  27.278   2.745
59539W        W24799  23.818  16.140   0.403
59540W        W24800  40.511   9.995  10.851
59541W        W24801  23.449  24.963  12.522
59542W        W24802  28.196   2.024  11.229
59543W        W24803  23.256  27.500   2.742
59544W        W24804  36.532  16.097   3.244
59545W        W24805  33.039   1.253   2.861
59546W        W24806   6.952  18.316  12.316
59547W        W24807  13.204  14.325   2.806
59548W        W24808  40.788  31.699  11.646
59549W        W24809  26.578  30.042   1.492
59550W        W24810  42.878  20.186  12.900
59551W        W24811  28.663   8.969   0.275
59552W        W24812  17.099  40.741   0.010
59553W        W24813   2.974   6.689   1.451
59554W        W24814  25.643   9.792  13.099
59555W        W24815   4.485  38.328  12.024
59556W        W24816  41.485  16.590   1.332
59557W        W24817  15.844  20.805   0.842
59558W        W24818   7.617   6.353  11.622
59559W        W24819  28.208  20.776  13.766
59560W        W24820   3.943  27.213   1.236
59561W        W24821  26.610  27.954   2.604
59562W        W24822   9.448  35.362   2.826
59563W        W24823  16.597  37.490   4.682
59564W        W24824   5.118  39.579  14.912
59565W        W24825  31.465   1.302  12.043
59566W        W24826   0.439  41.368   4.688
59567W        W24827  30.537  43.048  12.399
59568W        W24828   4.859  44.608  14.153
59569W        W24829  12.279  16.298  14.136
59570W        W24830  20.733  43.235   4.578
59571W        W24831  26.956  22.087  11.863
59572W        W24832   0.588  34.449   0.522
59573W        W24833   2.724  13.385  14.376
59574W        W24834   6.760  29.513  13.887
59575W        W24835  42.471   0.247   1.627
59576W        W24836   9.741  15.581   4.262
59577W        W24837  23.017  31.217  13.452
59578W        W24838  36.583  43.321  13.463
59579W        W24839   1.369  42.606   1.295
59580W        W24840  16.822  11.431  14.969
59581W        W24841  26.574  31.127  11.939
59582W        W24842  13.283  20.719   0.441
59583W        W24843  22.154  31.904   0.703
59584W        W24844  21.104  11.762   0.307
59585W        W24845  16.710  10.832  10.719
59586W        W24846  21.137  15.788   2.680
59587W        W24847  42.583   0.720   3.806
59588W        W24848  40.707   3.169   1.433
59589W        W24849  19.167   4.364   1.493
59590W        W24850   7.892  25.732   1.855
59591W        W24851  28.588  27.904  12.206
59592W        W24852  29.973   9.318  10.503
59593W        W24853  40.506   9.812  11.952
59594W        W24854  36.056  13.224   3.392
59595W        W24855  21.995   0.665  13.153
59596W        W24856  27.632  36.840  10.004
59597W        W24857  16.835  33.347   3.736
59598W        W24858   4.559  16.313   1.557
59599W        W24859  22.051  38.534  14.292
59600W        W24860  14.922  26.012  14.874
59601W        W24861  41.479  11.990  12.992
59602W        W24862  13.066  41.010   3.361
59603W        W24863  13.600  40.166   1.366
59604W        W24864  19.259  15.268  12.022
59605W        W24865  19.192  11.446   3.213
59606W        W24866  42.447  39.357   2.180
59607W        W24867  18.634  35.560   4.082
59608W        W24868  16.778  41.331   1.365
59609W        W24869  13.020   4.712  11.215
59610W        W24870  11.823   7.778  11.533
59611W        W24871  10.910  14.204  12.242
59612W        W24872  17.719  24.971  12.582
59613W        W24873  22.542  26.777  13.807
59614W        W24874   4.106  16.634   0.045
59615W        W24875   3.714  29.814   0.561
59616W        W24876  33.455   4.251  11.617
59617W        W24877  39.583  27.581   3.339
59618W        W24878  23.749  38.721   4.960
59619W        W24879   6.746  30.430  10.558
59620W        W24880  15.818  28.118  11.496
59621W        W24881  42.398  13.253  12.407
59622W        W24882   0.454   8.951  14.550
59623W        W24883   5.315  19.246  11.486
59624W        W24884  21.456  10.209   1.661
59625W        W24885   1.057   0.234  12.155
59626W        W24886  28.991  26.713   2.837
59627W        W24887  31.639   0.446   0.933
59628W        W24888  22.001   4.007   2.165
59629W        W24889  33.912  10.291   1.633
59630W        W24890  40.434  23.430   3.728
59631W        W24891  12.121   3.390   1.372
59632W        W24892  30.111  23.220  11.009
59633W        W24893  25.565  29.610   3.182
59634W        W24894  16.302  28.986   3.234
59635W        W24895  19.301  14.778  11.965
59636W        W24896   9.314   7.853  11.914
59637W        W24897  44.632  40.243  11.979
59638W        W24898   8.998  24.672  14.072
59639W        W24899   0.860  30.156  14.582
59640W        W24900   1.012   0.384  13.179
59641W        W24901   1.463  22.740   0.883
59642W        W24902  20.733  10.329   2.883
59643W        W24903  10.784   7.684   2.196
59644W        W24904  33.185   3.699   2.266
59645W        W24905   9.334  11.173  10.866
59646W        W24906  41.184   7.857   4.211
59647W        W24907   4.897  30.980  11.511
59648W        W24908   4.154  35.971   0.342
59649W        W24909  27.623  16.138  10.397
59650W        W24910  20.810  38.814   0.748
59651W        W24911  24.123   1.918   5.020
59652W        W24912  44.032  33.023   3.220
59653W        W24913   5.985  24.454  12.729
59654W        W24914  33.051  10.183   4.673
59655W        W24915  34.552  13.546  13.534
59656W        W24916  16.692  30.653  13.747
59657W        W24917  19.305  24.029  11.921
59658W        W24918  21.262  34.379  13.211
59659W        W24919  25.234   7.667   0.216
59660W        W24920   9.182  43.078  13.291
59661W        W24921   2.411  24.312  12.013
59662W        W24922  18.872  24.134   0.341
59663W        W24923  40.102  30.532   0.333
59664W        W24924   9.150  30.735  11.148
59665W        W24925  34.865  29.018   4.675
59666W        W24926  42.843   9.294   0.990
59667W        W24927  40.928   6.839   3.337
59668W        W24928  23.644  20.951   2.174
59669W        W24929  10.522   8.743   4.152
59670W        W24930  41.226  42.960   3.681
59671W        W24931  29.278  33.526   0.280
59672W        W24932  21.113  34.473  14.164
59673W        W24933   3.577  15.074  12.323
59674W        W24934  43.038   7.822  14.843
59675W        W24935  22.129  12.361   0.850
59676W        W24936   9.188  35.667  11.715
59677W        W24937  38.400  33.093   4.537
59678W        W24938  23.283  10.971  11.101
59679W        W24939  33.994  34.611  11.720
59680W        W24940  41.699  11.396  13.788
59681W        W24941  38.106   7.543   1.313
59682W        W24942   0.669  15.673  14.349
59683W        W24943  19.861  32.809   1.322
59684W        W24944  14.328  24.092   1.921
59685W        W24945  32.091  12.782  11.210
59686W        W24946  30.005  27.187  11.887
59687W        W24947   7.185  23.623   3.217
59688W        W24948   4.182   2.326  14.367
59689W        W24949  13.225   0.730   3.148
59690W        W24950  39.015  23.814  10.652
59691W        W24951   3.336  36.580   4.131
59692W        W24952  11.594  28.635  14.604
59693W        W24953  37.004   5.748  12.391
59694W        W24954   6.349  12.193   5.090
59695W        W24955  33.998  32.449   2.763
59696W        W24956  21.688  35.086   1.384
59697W        W24957  41.226   5.154   3.111
59698W        W24958  14.279  17.572   1.370
59699W        W24959   4.568   8.886  11.877
59700W        W24960   7.345  10.188   2.965
59701W        W24961  25.510  39.877  12.589
59702W        W24962  38.646   7.395   3.256
59703W        W24963   6.449  15.583  11.147
59704W        W24964   9.863   3.502  13.188
59705W        W24965  17.619  15.705   3.561
59706W        W24966  19.789  17.291   3.580
59707W        W24967  14.485  40.265  10.995
59708W        W24968   7.742   2.700   0.800
59709W        W24969  34.497  34.077  13.420
59710W        W24970  42.340   7.387  13.480
59711W        W24971  35.570  44.810  14.484
59712W        W24972  35.553  39.309   3.614
59713W        W24973  39.904  18.278   1.215
59714W        W24974  25.023  10.292  11.037
59715W        W24975  26.507   2.233  10.668
59716W        W24976  37.532  11.675   2.193
59717W        W24977  44.561  16.825  13.875
59718W        W24978   8.498  21.073   0.391
59719W        W24979  24.549  23.660   0.428
59720W        W24980  29.646  38.742  11.049
59721W        W24981   1.009  17.481   1.175
59722W        W24982  35.491  31.568  14.546
59723W        W24983  35.387  33.619   1.965
59724W        W24984  34.334  28.679   3.289
59725W        W24985  41.975  27.175   0.282
59726W        W24986   1.972  19.701   4.470
59727W        W24987   3.516   5.377   1.264
59728W        W24988  19.512  24.783  14.092
59729W        W24989  19.091   8.680  14.119
59730W        W24990  25.407  41.943  10.629
59731W        W24991  18.101  32.319   2.565
59732W        W24992   0.907  17.599  13.138
59733W        W24993   7.345   6.529  13.301
59734W        W24994  36.774  11.815   4.578
59735W        W24995  40.298  11.393   3.242
59736W        W24996  29.112  42.801   0.434
59737W        W24997  41.940  42.924  11.217
59738W        W24998  23.248  19.390  13.809
59739W        W24999  26.477  40.036   2.755
59740W        W25000  33.516  30.796  10.700
59741W        W25001  15.201  21.374  12.533
59742W        W25002  34.030  28.659  13.364
59743W        W25003  12.617  26.263  13.482
59744W        W25004  43.503  19.354   2.447
59745W        W25005   1.097  24.871   2.319
59746W        W25006  37.994  38.071  12.032
59747W        W25007  39.518  10.933  11.966
59748W        W25008  20.670  15.092   1.700
59749W        W25009  26.576  11.787  14.788
59750W        W25010  23.184   3.214  12.048
59751W        W25011   6.904  16.761   2.696
59752W        W25012  36.252   3.695   3.755
59753W        W25013  36.409   0.450  13.508
59754W        W25014   0.948  29.743  11.498
59755W        W25015  24.518  10.606  14.370
59756W        W25016   9.272  34.467   4.742
59757W        W25017   7.777   3.798  13.479
59758W        W25018  10.841  38.047   3.162
59759W        W25019  36.942  28.613  13.836
59760W        W25020  23.669  36.615  14.890
59761W        W25021  20.997  36.346   2.016
59762W        W25022   6.647  30.458  11.392
59763W        W25023  29.128  17.957  14.758
59764W        W25024  23.646  32.461   1.446
59765W        W25025  31.867   1.185   2.809
59766W        W25026   7.323   8.369   2.131
59767W        W25027  38.563  40.382   2.158
59768W        W25028  15.083  34.922   4.575
59769W        W25029  43.838  41.024  13.641
59770W        W25030  15.755  31.792   1.426
59771W        W25031  38.649  44.732   4.549
59772W        W25032  24.464  42.995  14.418
59773W        W25033  13.664   8.518  10.663
59774W        W25034  42.544  24.764   4.051
59775W        W25035  33.472  38.872  10.291
59776W        W25036  34.575  26.852   0.227
59777W        W25037  10.385   4.436  13.311
59778W        W25038  16.523  27.857  14.302
59779W        W25039  16.274   4.942   3.231
59780W        W25040  22.848  23.897  11.605
59781W        W25041  34.464  21.277  14.953
59782W        W25042  13.761  30.532   4.923
59783W        W25043  18.824   6.453  13.056
59784W        W25044  39.554  13.415  12.141
59785W        W25045  20.136  26.625   1.467
59786W        W25046  15.288  35.904  13.401
59787W        W25047  43.315   2.157  11.469
59788W        W25048   2.669   9.709  14.066
59789W        W25049  40.428  36.325   1.238
59790W        W25050  44.730  38.320   1.679
59791W        W25051  30.356   4.802  12.138
59792W        W25052   8.809   4.682   1.278
59793W        W25053   0.914  19.925  10.876
59794W        W25054  26.556   3.110  14.731
59795W        W25055  34.643  21.156   0.887
59796W        W25056   3.701   0.106  14.846
59797W        W25057  25.868   2.432  11.598
59798W        W25058  37.724   9.853  14.961
59799W        W25059  36.990   8.270   4.597
59800W        W25060  11.407  25.526   4.586
59801W        W25061   5.747   2.371   1.307
59802W        W25062  30.471  33.084   2.630
59803W        W25063   2.418  33.881  13.069
59804W        W25064  26.642  17.004  14.588
59805W        W25065  24.186  34.420  14.799
59806W        W25066  28.143  27.584   4.560
59807W        W25067  16.643   3.734   1.344
59808W        W25068  23.154   9.332   2.422
59809W        W25069  13.192  22.769   4.449
59810W        W25070  37.524  17.673   4.066
59811W        W25071  42.007   1.070   2.586
59812W        W25072  17.022  29.696  11.499
59813W        W25073  13.368   1.751  13.340
59814W        W25074  15.653   2.303   4.207
59815W        W25075  16.168  10.249  13.656
59816W        W25076   9.714  44.762   1.768
59817W        W25077  10.195  43.375  14.813
59818W        W25078  15.251  35.645  14.061
59819W        W25079  12.583   1.309   2.836
59820W        W25080   6.859  37.390   1.591
59821W        W25081  18.014   7.721   4.136
59822W        W25082  41.941  15.604   1.199
59823W        W25083  11.311  10.785  10.226
59824W        W25084  16.220  44.242   0.155
59825W        W25085  21.794  40.881   4.878
59826W        W25086   3.983  26.286  11.596
59827W        W25087  30.534  36.335  10.749
59828W        W25088   3.580  28.121  11.891
59829W        W25089  15.834  43.711  12.148
59830W        W25090  30.839  26.707   5.202
59831W        W25091  40.795  43.506   3.812
59832W        W25092  39.385  36.039   0.706
59833W        W25093  16.969  17.090  12.010
59834W        W25094   0.873   4.355   4.563
59835W        W25095  20.727  12.249  12.023
59836W        W25096  27.790  33.221   1.311
59837W        W25097  40.100  40.081   3.266
59838W        W25098   1.067  35.678  11.182
59839W        W25099  19.261   5.476   4.109
59840W        W25100  27.432  37.041  13.341
59841W        W25101  41.314  40.047  10.726
59842W        W25102  34.994  28.698   0.727
59843W        W25103  13.135   5.284   3.169
59844W        W25104  28.423  29.066   0.380
59845W        W25105  38.888  29.447  12.012
59846W        W25106  22.288  44.723  11.113
59847W        W25107  25.006   6.428   1.248
59848W        W25108  11.305  29.880  12.750
59849W        W25109  34.954  42.840  10.712
59850W        W25110  28.019  16.647  12.036
59851W        W25111  27.717   3.910  14.520
59852W        W25112  22.573  10.202  10.928
59853W        W25113   9.697  33.334  12.030
59854W        W25114  35.056   1.152   2.826
59855W        W25115   8.709  41.327   2.365
59856W        W25116  15.558   1.057   1.797
59857W        W25117  19.618  28.655   3.379
59858W        W25118  16.810  26.201  12.505
59859W        W25119  35.806  31.108   4.537
59860W        W25120   8.664   3.197   4.741
59861W        W25121   2.347  12.186  12.475
59862W        W25122  12.551  20.084   2.546
59863W        W25123  21.753  36.580  14.706
59864W        W25124   7.834  10.579   0.761
59865W        W25125  21.037  41.068   1.840
59866W        W25126   0.255  22.635   2.249
59867W        W25127  14.105  30.782  13.476
59868W        W25128  14.775  40.597   3.510
59869W        W25129  36.459  11.129   0.231
59870W        W25130  19.027  26.859   1.826
59871W        W25131  10.808  29.935   3.393
59872W        W25132  37.473  42.853  10.923
59873W        W25133  20.265  27.076  14.153
59874W        W25134  32.310  35.551   3.283
59875W        W25135  18.612  38.928   2.275
59876W        W25136  40.048   0.846   1.239
59877W        W25137  43.321  39.716   4.517
59878W        W25138  11.524   4.747   0.259
59879W        W25139  25.999   4.872   1.761
59880W        W25140  13.570  28.001  12.562
59881W        W25141  43.251  40.531   2.984
59882W        W25142  24.541  22.483   4.998
59883W        W25143  31.552   9.672  10.757
59884W        W25144   2.766  12.446  12.578
59885W        W25145  35.230  36.646   1.506
59886W        W25146  34.717  17.101  10.818
59887W        W25147   7.980  32.882   3.707
59888W        W25148  32.077  30.843  13.432
59889W        W25149  44.783  39.823   0.362
59890W        W25150  30.181  44.716   3.758
59891W        W25151  10.710  25.171   2.658
59892W        W25152  29.463   2.510  11.563
59893W        W25153  23.519  33.443  10.262
59894W        W25154   7.251  33.480   2.889
59895W        W25155   4.250  11.410   1.445
59896W        W25156  44.803  19.478  14.021
59897W        W25157  18.258  32.128  13.983
59898W        W25158  44.745   4.222  12.592
59899W        W25159  10.621  35.061  13.370
59900W        W25160  24.302   5.845   0.497
59901W        W25161  28.149  42.910  13.531
59902W        W25162   6.185  22.656  10.738
59903W        W25163  25.210  31.588  10.705
59904W        W25164  41.047  41.239   1.100
59905W        W25165   6.646   0.378  14.426
59906W        W25166  24.667  41.036   3.625
59907W        W25167  19.713   2.854   0.572
59908W        W25168  33.896   2.039   3.438
59909W        W25169  38.087  27.502   3.715
59910W        W25170   1.452  24.193   0.687
59911W        W25171  19.694  24.546   1.655
59912W        W25172   7.284  37.413   0.263
59913W        W25173   1.620   3.892  11.628
59914W        W25174  18.678  22.066   4.175
59915W        W25175  19.072   7.661   0.364
59916W        W25176  23.338  15.674  12.554
59917W        W25177  13.764  34.550   4.292
59918W        W25178  11.055  17.328   0.549
59919W        W25179   4.956   8.676   4.092
59920W        W25180   9.144  12.293   3.232
59921W        W25181  23.993   8.720  11.419
59922W        W25182  18.390  35.395  12.456
59923W        W25183  18.296  19.251   2.986
59924W        W25184   9.763  24.796   4.942
59925W        W25185  29.657  10.797  11.965
59926W        W25186  42.472  22.878  14.289
59927W        W25187  40.437  31.564   1.430
59928W        W25188  12.765  29.884   5.023
59929W        W25189  11.669  14.885  14.430
59930W        W25190  44.995  31.808   3.608
59931W        W25191  30.389  20.258   3.183
59932W        W25192  15.268  33.085  13.078
59933W        W25193  43.864   6.297  12.146
59934W        W25194  41.871  17.626   4.071
59935W        W25195  26.452   0.415   2.716
59936W        W25196  25.014  42.657   2.398
59937W        W25197  40.121  43.337  11.119
59938W        W25198  39.598  11.819  13.045
59939W        W25199  13.709  21.572   4.053
59940W        W25200  38.971   3.213   0.948
59941W        W25201  28.611  10.253   1.745
59942W        W25202  37.494  19.510   0.756
59943W        W25203  10.918  20.226  12.581
59944W        W25204  22.289  32.821   1.417
59945W        W25205   1.102   3.846   3.457
59946W        W25206  43.808  19.986   0.263
59947W        W25207  29.005  39.317  14.839
59948W        W25208  27.241  12.177  11.196
59949W        W25209  15.111  20.887  13.408
59950W        W25210  28.268  13.788   0.922
59951W        W25211  11.761   5.955  12.568
59952W        W25212  43.758  31.032  12.946
59953W        W25213  32.400  19.176   3.887
59954W        W25214  41.980  44.579  14.392
59955W        W25215  32.839   8.157   3.186
59956W        W25216   0.888  39.455   3.818
59957W        W25217  37.754  20.966   0.492
59958W        W25218  41.387  19.341  11.008
59959W        W25219   5.252  15.243   2.959
59960W        W25220  24.175   1.934  13.496
59961W        W25221   1.749  40.107  14.220
59962W        W25222   6.613  25.214   4.625
59963W        W25223  42.663  36.574   3.596
59964W        W25224   3.955   0.938   0.949
59965W        W25225  12.598  25.021  11.995
59966W        W25226  14.546   6.274  13.468
59967W        W25227  12.823  23.880   2.630
59968W        W25228  17.596  37.450   4.978
59969W        W25229  13.720  42.229   1.370
59970W        W25230   9.353   4.120   3.220
59971W        W25231  13.338  20.253  13.016
59972W        W25232  13.625   2.250  10.757
59973W        W25233   7.440  35.531  13.608
59974W        W25234  14.820  31.316   3.020
59975W        W25235  27.718   3.331  11.137
59976W        W25236  27.435  33.945   4.100
59977W        W25237  25.604   6.198   4.303
59978W        W25238  29.634  15.731   1.812
59979W        W25239  17.618  29.047  11.741
59980W        W25240  18.822  35.283  12.730
59981W        W25241   9.742  38.113   2.949
59982W        W25242  43.782  30.016   0.287
59983W        W25243  35.861  43.128   4.611
59984W        W25244   6.657  38.036  12.531
59985W        W25245   7.298  37.280   1.892
59986W        W25246  23.288   5.824  13.655
59987W        W25247   3.250  23.466  13.316
59988W        W25248   2.728  41.295  13.743
59989W        W25249  13.386   0.305  10.749
59990W        W25250  34.949  21.743  11.833
59991W        W25251   6.152  34.389  13.393
59992W        W25252  24.675  36.609   0.703
59993W        W25253  24.168  31.997  12.073
59994W        W25254  10.382  38.161  11.876
59995W        W25255  12.287   9.356   3.724
59996W        W25256  34.246  17.822  12.646
59997W        W25257   2.391  28.586  13.042
59998W        W25258   3.681  28.673  12.505
59999W        W25259  17.772  44.544   0.065
60000W        W25260  10.636  23.156   1.898
60001W        W25261   6.131  34.374   2.709
60002W        W25262  10.895  34.908   2.087
60003W        W25263  34.648  21.657   1.797
60004W        W25264  38.873  29.645   2.873
60005W        W25265  44.357  14.631  14.336
60006W        W25266  15.380   8.239   0.796
60007W        W25267   5.247  35.183   0.556
60008W        W25268  30.341  31.650   0.910
60009W        W25269  26.520  32.879   4.547
60010W        W25270   2.310  19.125  10.639
60011W        W25271   4.001  34.416  14.292
60012W        W25272   3.826  30.199  11.645
60013W        W25273  19.286  35.133   3.407
60014W        W25274  32.415   2.950   4.179
60015W        W25275   5.896   7.635  14.521
60016W        W25276  19.201  27.543  11.207
60017W        W25277  42.298  36.173   4.530
60018W        W25278   3.394  11.299   4.422
60019W        W25279  43.259  34.999   2.146
60020W        W25280  38.282   1.298   2.957
60021W        W25281  40.432  12.860  11.172
60022W        W25282   1.407  15.435  11.338
60023W        W25283   0.672  19.033  14.279
60024W        W25284   9.621   1.364  14.474
60025W        W25285  15.558   8.177   0.233
60026W        W25286  21.729  20.898   3.249
60027W        W25287  26.435  43.126  10.360
60028W        W25288   5.704  28.085  10.359
60029W        W25289   7.154  38.548   1.299
60030W        W25290   2.606   7.177  12.092
60031W        W25291   3.776   9.382  10.784
60032W        W25292  36.556  30.953  13.446
60033W        W25293  19.572  34.611  12.113
60034W        W25294  35.607  39.084   1.204
60035W        W25295  17.733  18.226  11.557
60036W        W25296  10.179   8.514  14.221
60037W        W25297   3.362  35.422   3.879
60038W        W25298  32.044  21.466   4.406
60039W        W25299  27.898  25.111  12.017
60040W        W25300  27.659   9.862  11.125
60041W        W25301  44.895  23.230  13.967
60042W        W25302  35.799  28.142  12.962
60043W        W25303  37.518  18.959   0.765
60044W        W25304  38.427  21.308  14.923
60045W        W25305  30.352  20.800   4.580
60046W        W25306   7.878  41.344  13.882
60047W        W25307  44.256  43.243  12.133
60048W        W25308  20.723   4.879   0.914
60049W        W25309   8.379  24.224  13.156
60050W        W25310  16.073   0.532  14.858
60051W        W25311   1.310  40.984   1.791
60052W        W25312  10.727  28.439   1.196
60053W        W25313  28.403  23.878   2.354
60054W        W25314  20.432  36.668  10.099
60055W        W25315  15.886  20.107   2.933
60056W        W25316  31.092  33.443  10.645
60057W        W25317  33.205  32.979   1.442
60058W        W25318  13.191   8.999  12.636
60059W        W25319  37.115  32.485  14.079
60060W        W25320  19.673  38.440   0.932
60061W        W25321  15.326   8.230   1.906
60062W        W25322  13.261  42.325   2.310
60063W        W25323  22.206   0.334   1.701
60064W        W25324   1.247  13.848  13.947
60065W        W25325  15.525  42.283  11.866
60066W        W25326  35.050  37.953  12.365
60067W        W25327   6.789  24.435   2.479
60068W        W25328  36.287   4.245  11.066
60069W        W25329  25.806  10.721   3.074
60070W        W25330  12.856  37.544   4.603
60071W        W25331  22.660  38.866  12.710
60072W        W25332  37.734  14.175   1.634
60073W        W25333  26.489  30.880  12.383
60074W        W25334  30.507  25.499   0.002
60075W        W25335  29.588   0.812  12.954
60076W        W25336  17.515  15.793  13.827
60077W        W25337  11.590  44.860   4.562
60078W        W25338   1.202   0.281   1.846
60079W        W25339  26.093  36.152   0.238
60080W        W25340   3.606  31.605   4.846
60081W        W25341  23.529  36.153  14.044
60082W        W25342  11.353  26.037   3.669
60083W        W25343  18.031   7.322   1.666
60084W        W25344  10.736   3.022   2.286
60085W        W25345  22.891  35.645   3.653
60086W        W25346  37.420  43.793  13.536
60087W        W25347  33.390   8.103   5.217
60088W        W25348  28.077  32.155  11.503
60089W        W25349  34.868  11.087   2.278
60090W        W25350   2.939   2.385  11.488
60091W        W25351   5.688   2.894   2.925
60092W        W25352   3.299   1.501  14.853
60093W        W25353  41.166  30.751  12.556
60094W        W25354  34.298  12.263  14.324
60095W        W25355  28.664   8.744   0.731
60096W        W25356   1.965  44.752   1.788
60097W        W25357  16.851  40.930  11.576
60098W        W25358  22.934  23.546  10.738
60099W        W25359  19.627  21.401  14.736
60100W        W25360  22.011  34.500  12.066
60101W        W25361  29.435  32.011   3.722
60102W        W25362   8.750  25.140   2.785
60103W        W25363  25.055  33.137   4.217
60104W        W25364  23.659  14.745  14.208
60105W        W25365  42.792  37.839   3.582
60106W        W25366  31.365  19.449  14.810
60107W        W25367  30.689   8.268  13.552
60108W        W25368  17.729  20.539  14.322
60109W        W25369  20.537  27.104  11.576
60110W        W25370  35.933  31.739  14.291
60111W        W25371  13.528  43.470   4.822
60112W        W25372  22.243  36.633  14.912
60113W        W25373  40.437   0.061  14.688
60114W        W25374  37.587  21.159   5.043
60115W        W25375  36.188  16.996   0.769
60116W        W25376   3.720  44.300   3.774
60117W        W25377  35.535  34.896   2.589
60118W        W25378   0.463  15.223   4.231
60119W        W25379  25.711  44.701   0.748
60120W        W25380  37.851  29.822  12.524
60121W        W25381  26.110   1.382   5.044
60122W        W25382  22.626  28.653  13.130
60123W        W25383  26.692   3.361   4.955
60124W        W25384  22.608   0.712   1.346
60125W        W25385  42.944   9.642  11.126
60126W        W25386  14.637  20.292   5.113
60127W        W25387  39.348  14.158   1.814
60128W        W25388   0.280  21.699   2.123
60129W        W25389  15.709  35.335   4.656
60130W        W25390  10.595  43.804   1.953
60131W        W25391  13.300  10.243   1.507
60132W        W25392  17.315   1.557   1.025
60133W        W25393  34.107  32.824  13.942
60134W        W25394  10.223  26.121  12.483
60135W        W25395  39.964   0.829   3.096
60136W        W25396  38.452  30.568   3.675
60137W        W25397  36.273  43.958   0.979
60138W        W25398  12.490  42.893   1.714
60139W        W25399  10.870  10.470   1.072
60140W        W25400  11.880  38.491   0.543
60141W        W25401  44.314  18.945  14.475
60142W        W25402  18.303  11.367   2.262
60143W        W25403  14.361  31.058  12.931
60144W        W25404  34.036   6.128  12.359
60145W        W25405  41.282  26.057  13.517
60146W        W25406  28.569   0.014   4.434
60147W        W25407  32.492  30.635   1.861
60148W        W25408   1.995  33.767  10.625
60149W        W25409  25.761  28.565  14.381
60150W        W25410  11.598  28.497   1.272
60151W        W25411  17.124  11.927  14.251
60152W        W25412  32.628   9.307   0.773
60153W        W25413  10.348  30.248  10.467
60154W        W25414  23.278  15.878  13.388
60155W        W25415  36.812  31.149  13.830
60156W        W25416  26.312   4.700  12.898
60157W        W25417  34.136  32.675  13.437
60158W        W25418  30.470  11.572  13.480
60159W        W25419  21.972  17.696  11.553
60160W        W25420  23.457  43.286   1.396
60161W        W25421  13.362  25.952  13.969
60162W        W25422  16.505   6.353  13.285
60163W        W25423  15.746   7.920   1.013
60164W        W25424  15.880   3.658   3.749
60165W        W25425  28.101   9.756   2.570
60166W        W25426  19.699  14.590  14.706
60167W        W25427  14.317  25.562  13.894
60168W        W25428   9.153  41.885   0.632
60169W        W25429  36.410  29.916   3.180
60170W        W25430  34.104  42.940  12.622
60171W        W25431  31.991  43.286   0.003
60172W        W25432  32.763  33.286  12.946
60173W        W25433  31.834  18.320  10.678
60174W        W25434  33.999   2.846  13.794
60175W        W25435   8.565  14.319   0.773
60176W        W25436  14.530  18.237  11.050
60177W        W25437  44.250  17.970  14.318
60178W        W25438  35.744  44.498   1.392
60179W        W25439  16.281   0.394  13.446
60180W        W25440   2.955  17.096  12.616
60181W        W25441   2.146  22.620   4.791
60182W        W25442  25.711  27.747   4.643
60183W        W25443  41.813  43.689  14.050
60184W        W25444  10.789  17.952  12.426
60185W        W25445  30.609  41.753  11.139
60186W        W25446   4.587  26.115   5.591
60187W        W25447  39.474  43.575   4.003
60188W        W25448  18.258   1.982   2.703
60189W        W25449  13.899  29.493   1.353
60190W        W25450  15.696  25.786  12.226
60191W        W25451  11.630   1.791  14.896
60192W        W25452   0.524  19.541  10.822
60193W        W25453  35.086  42.317  13.404
60194W        W25454  15.143  42.896  14.499
60195W        W25455  26.304  23.075  12.510
60196W        W25456  19.742  14.082  14.672
60197W        W25457  43.010  31.607  12.971
60198W        W25458  32.433   7.635  10.951
60199W        W25459  22.050  31.193   3.791
60200W        W25460  26.447  44.697   0.596
60201W        W25461   0.471   1.359   2.482
60202W        W25462  14.188  16.359   0.345
60203W        W25463  33.112  35.035  13.275
60204W        W25464  26.448  42.950  11.622
60205W        W25465  11.651  29.578  10.979
60206W        W25466  18.306   0.192   4.240
60207W        W25467   2.475  44.800   1.663
60208W        W25468  26.602  27.525   3.358
60209W        W25469  22.469  30.008  14.780
60210W        W25470  15.809  10.383  11.524
60211W        W25471  17.745  16.788  13.821
60212W        W25472  20.199  32.196  11.930
60213W        W25473   3.953  38.981  14.179
60214W        W25474  18.120  36.629   4.190
60215W        W25475  35.840   0.774  12.599
60216W        W25476  22.728  24.190  13.111
60217W        W25477  13.144   0.136  12.625
60218W        W25478  30.500  41.850   0.975
60219W        W25479  16.001  20.674  13.340
60220W        W25480  36.823  27.185  14.500
60221W        W25481   5.253  11.555  12.180
60222W        W25482  11.760   8.007   0.368
60223W        W25483   3.414   3.098   1.022
60224W        W25484  32.127  21.647  11.115
60225W        W25485  11.772  30.906  11.811
60226W        W25486  28.181  18.262  12.633
60227W        W25487  16.079   7.850   3.687
60228W        W25488  36.538   8.324   4.359
60229W        W25489  24.774  43.836  12.657
60230W        W25490  34.992  34.616  14.271
60231W        W25491  39.285  19.700   3.660
60232W        W25492  41.371  35.479  10.939
60233W        W25493  10.654  12.881   2.174
60234W        W25494  12.208  34.309   2.659
60235W        W25495   5.652  43.946  11.673
60236W        W25496  32.938  16.606   1.768
60237W        W25497   6.228   4.223  14.945
60238W        W25498   2.525  26.603  13.747
60239W        W25499  33.335  17.056   3.584
60240W        W25500  26.143  36.933  10.441
60241W        W25501   5.248  22.624  12.365
60242W        W25502  35.471  38.805   3.745
60243W        W25503  39.371  11.815   4.586
60244W        W25504  40.405  11.373   2.248
60245W        W25505  37.367  44.781  14.876
60246W        W25506   4.790  39.705  12.953
60247W        W25507  29.908  22.240  10.760
60248W        W25508   7.615   0.954   1.292
60249W        W25509  21.049  14.672   0.410
60250W        W25510  17.227   4.271  13.796
60251W        W25511  12.171  43.447  12.829
60252W        W25512  19.213  43.800  11.199
60253W        W25513  27.914  10.731   2.320
60254W        W25514  33.674  19.548   4.201
60255W        W25515   3.035  23.156  11.627
60256W        W25516  31.106  41.322   3.599
60257W        W25517  21.646  43.793   3.674
60258W        W25518  27.041  23.915  12.398
60259W        W25519   5.072  34.476   2.169
60260W        W25520  14.076  33.577  12.103
60261W        W25521   7.947  11.320  11.022
60262W        W25522  36.853  15.004  11.231
60263W        W25523  29.833  18.935   3.750
60264W        W25524   4.286  13.575  13.896
60265W        W25525  28.193  18.858  13.883
60266W        W25526   8.778  16.199   2.752
60267W        W25527  33.637  27.937  12.514
60268W        W25528   3.890  27.181   2.098
60269W        W25529   7.872  16.604  14.761
60270W        W25530  40.582  39.208   0.874
60271W        W25531  20.613  19.215   3.686
60272W        W25532   3.969   2.524  13.946
60273W        W25533  12.299   3.945   3.138
60274W        W25534  34.535  42.912  11.065
60275W        W25535  20.908  31.305   4.510
60276W        W25536  18.991  30.580   0.841
60277W        W25537  43.019  24.598   1.791
60278W        W25538  33.633  30.039   4.086
60279W        W25539  25.636  10.236   0.186
60280W        W25540  23.511  31.429   1.746
60281W        W25541  34.688  38.568   4.973
60282W        W25542  22.606  27.397  11.983
60283W        W25543  22.239   9.707   2.762
60284W        W25544   0.733  30.642  14.744
60285W        W25545  17.554  29.543  11.563
60286W        W25546  13.689  19.703  13.352
60287W        W25547  15.389   0.302   0.344
60288W        W25548  43.380  41.759   4.815
60289W        W25549  20.405  24.806  10.990
60290W        W25550   9.138   0.424  11.175
60291W        W25551   6.581  19.374  13.315
60292W        W25552  27.109  41.788  10.667
60293W        W25553  15.040  36.602   1.758
60294W        W25554  17.736  37.757  11.470
60295W        W25555  32.475  44.762  12.860
60296W        W25556   8.626  40.098  13.004
60297W        W25557  28.957   9.230   0.710
60298W        W25558  38.798  30.266  11.592
60299W        W25559  19.678   4.696   1.678
60300W        W25560   4.487   3.804  14.326
60301W        W25561   8.783  34.969   2.333
60302W        W25562   7.265   0.544   1.262
60303W        W25563  11.093  44.474   4.124
60304W        W25564  23.448  16.859  11.864
60305W        W25565   1.978  20.551  13.907
60306W        W25566  36.425  43.237  10.634
60307W        W25567  14.430  42.433  12.110
60308W        W25568  28.735  28.227   3.816
60309W        W25569   2.986  29.703   2.455
60310W        W25570  10.386  14.197   4.111
60311W        W25571  18.167   4.516  14.918
60312W        W25572   3.460   1.159  10.592
60313W        W25573  38.375  10.152  12.165
60314W        W25574   0.499  17.101   3.858
60315W        W25575  39.794  37.046  13.082
60316W        W25576   1.462  37.383  12.559
60317W        W25577   6.240  37.884  13.991
60318W        W25578  13.122  44.834   0.023
60319W        W25579   6.596  36.506   1.659
60320W        W25580  16.125  40.821   0.862
60321W        W25581  19.778  29.495   1.153
60322W        W25582   3.173  43.779   1.849
60323W        W25583  10.231   3.809   3.723
60324W        W25584  40.944  39.005   1.372
60325W        W25585  37.099  26.529  11.477
60326W        W25586  16.561  12.615   1.220
60327W        W25587  15.726  36.006   0.206
60328W        W25588   6.458  42.467  10.685
60329W        W25589  38.610   4.116   3.604
60330W        W25590  40.404  20.219  12.594
60331W        W25591  33.836   1.033   0.993
60332W        W25592  14.065  17.037   4.087
60333W        W25593   8.806  31.886  11.535
60334W        W25594  24.986  40.773  13.470
60335W        W25595   3.811  42.016   0.815
60336W        W25596  41.737   0.902  13.180
60337W        W25597  44.832   0.442   4.257
60338W        W25598   8.407  31.501   1.787
60339W        W25599  40.849   3.306   0.942
60340W        W25600  18.687  40.559   3.180
60341W        W25601  40.894   3.199   0.401
60342W        W25602   6.218   0.923  12.326
60343W        W25603   5.956   1.753   3.659
60344W        W25604  37.582  30.697   4.293
60345W        W25605  15.214  10.717   2.298
60346W        W25606  13.166   5.901   0.492
60347W        W25607  34.208  18.462  11.601
60348W        W25608   6.240  13.365   4.630
60349W        W25609  33.555   5.802  13.484
60350W        W25610  33.930  38.347   2.899
60351W        W25611  34.628  28.113   3.328
60352W        W25612  23.106  22.274   3.552
60353W        W25613   5.443   1.688  13.367
60354W        W25614   2.988  37.407   2.899
60355W        W25615  20.747   6.293   0.684
60356W        W25616  22.272  21.071   0.751
60357W        W25617  20.658  24.443   4.526
60358W        W25618  18.521  18.694  14.951
60359W        W25619   6.310   7.446  10.673
60360W        W25620  21.757  29.922  11.148
60361W        W25621  44.909  20.771   2.327
60362W        W25622   5.019  23.334  11.533
60363W        W25623  37.084  17.369  14.799
60364W        W25624  37.053  23.621   0.379
60365W        W25625  39.147  42.963  14.839
60366W        W25626   7.874  13.861   4.862
60367W        W25627  10.680  17.361  14.253
60368W        W25628  30.968  43.321   4.600
60369W        W25629  23.178  25.905  12.811
60370W        W25630  25.564  37.414  12.510
60371W        W25631  15.842  44.855  12.953
60372W        W25632  12.397  36.429   4.262
60373W        W25633   1.888  43.097   0.196
60374W        W25634  25.241  42.455  11.676
60375W        W25635  43.316   0.323  11.965
60376W        W25636  10.189  31.058   0.080
60377W        W25637  16.653  35.155  10.377
60378W        W25638  37.022  23.236   4.614
60379W        W25639  35.114  13.201   3.589
60380W        W25640   8.962   0.232  10.741
60381W        W25641   5.137   0.401  10.780
60382W        W25642  25.077   4.523   2.025
60383W        W25643  16.141  19.223   0.781
60384W        W25644  33.035  10.546  13.145
60385W        W25645  43.439   3.377   2.253
60386W        W25646  18.683  16.174   0.921
60387W        W25647  20.744   2.324   3.630
60388W        W25648  38.371  26.063   2.618
60389W        W25649  29.849  20.541  11.192
60390W        W25650  40.409  18.485   0.507
60391W        W25651  32.588  20.854  12.034
60392W        W25652  22.985   1.379  10.674
60393W        W25653  37.862  12.417  14.951
60394W        W25654  16.560   7.273   0.305
60395W        W25655  30.415  35.526   4.716
60396W        W25656  22.316  26.974  10.501
60397W        W25657  12.719  23.973   1.649
60398W        W25658  37.467  27.964   0.290
60399W        W25659  33.659  16.214   0.064
60400W        W25660  41.602  44.254  11.138
60401W        W25661  10.354   3.073   0.592
60402W        W25662  16.461  36.119   3.368
60403W        W25663   6.798  26.972   1.374
60404W        W25664  37.750  18.237   4.769
60405W        W25665  12.390  35.029   2.330
60406W        W25666  29.118  10.060   4.324
60407W        W25667  29.654  31.696   1.308
60408W        W25668   6.488   3.061  11.896
60409W        W25669  40.160  42.962   4.472
60410W        W25670  21.876  39.819   4.073
60411W        W25671  32.969  36.092   1.856
60412W        W25672  14.846  33.552  10.685
60413W        W25673  25.655  37.360   1.544
60414W        W25674  18.958  16.261   2.342
60415W        W25675  34.845  28.060   4.130
60416W        W25676  34.372  21.637  10.700
60417W        W25677  29.595  16.130  12.293
60418W        W25678  39.515  20.601  14.002
60419W        W25679  16.770  38.572  12.525
60420W        W25680  41.006  36.750   4.488
60421W        W25681  18.776  33.754   5.187
60422W        W25682  22.727  24.179  12.017
60423W        W25683  41.812  20.319   0.437
60424W        W25684  15.332  41.474   4.100
60425W        W25685   9.343  29.994   3.177
60426W        W25686  31.511  14.338  12.903
60427W        W25687  34.885  40.909  14.507
60428W        W25688   8.343  14.400  13.510
60429W        W25689  29.860  30.474  10.767
60430W        W25690   2.739  38.535   4.229
60431W        W25691  25.472  18.649  13.020
60432W        W25692  32.340  42.461   1.833
60433W        W25693  34.133  31.557  10.327
60434W        W25694  11.117  15.896  13.104
60435W        W25695  28.546  43.369  14.529
60436W        W25696  31.526  44.563   4.685
60437W        W25697  29.098  11.571  14.708
60438W        W25698  25.122  27.689  10.728
60439W        W25699  38.960   9.757   4.737
60440W        W25700   0.516  32.094   2.279
60441W        W25701  27.482  21.231   0.320
60442W        W25702  27.713  35.551   3.300
60443W        W25703  36.405   8.936   2.536
60444W        W25704  28.003  10.484  11.662
60445W        W25705  16.241  18.307   1.928
60446W        W25706  13.615  24.230  11.152
60447W        W25707  33.645  28.061   1.566
60448W        W25708  21.766  24.201   0.340
60449W        W25709   0.763  29.221   1.782
60450W        W25710  17.950  37.278  11.058
60451W        W25711   7.485   9.219   1.177
60452W        W25712  27.995   8.469  10.523
60453W        W25713   8.154  44.322  14.275
60454W        W25714  32.633   8.730  11.698
60455W        W25715  35.424  35.654  12.425
60456W        W25716  40.508   2.568   3.763
60457W        W25717   4.871  13.817  11.269
60458W        W25718  24.026  20.623   0.535
60459W        W25719  37.560  43.988  14.506
60460W        W25720   4.988  18.113  12.625
60461W        W25721  10.359  30.094   1.316
60462W        W25722  15.974   7.519  11.151
60463W        W25723  32.362   0.734  13.395
60464W        W25724  30.910   1.315  14.368
60465W        W25725  18.051  35.819  11.332
60466W        W25726   5.999  10.936   4.141
60467W        W25727  28.895  14.593   3.155
60468W        W25728  37.801  13.856  12.174
60469W        W25729  30.947  20.783  14.772
60470W        W25730  37.462  19.339  14.838
60471W        W25731  42.992   6.125  14.559
60472W        W25732  25.801   4.767  14.328
60473W        W25733  38.553  18.265   3.189
60474W        W25734  21.502  43.039  13.978
60475W        W25735  20.052  28.207  14.247
60476W        W25736  21.497  34.016  13.493
60477W        W25737  15.532  36.477  12.439
60478W        W25738  39.597  14.347  13.140
60479W        W25739  22.186  42.736   0.226
60480W        W25740  37.815  26.380  14.083
60481W        W25741   6.903  37.072   4.185
60482W        W25742  23.021  38.118  14.390
60483W        W25743  29.114  37.080  12.693
60484W        W25744  13.577  36.378  13.923
60485W        W25745  31.183  30.881  12.562
60486W        W25746  16.191  18.054  12.479
60487W        W25747   3.247   5.344   2.042
60488W        W25748  40.229  31.095   1.739
60489W        W25749  11.533   5.245   9.700
60490W        W25750  37.381  24.550   1.700
60491W        W25751  34.364  34.949  14.678
60492W        W25752   2.980  38.137  11.222
60493W        W25753  36.059  32.184  13.404
60494W        W25754  22.002  31.445   0.939
60495W        W25755  26.913   0.565  14.680
60496W        W25756  41.353   2.410   3.674
60497W        W25757  30.885  35.612   2.896
60498W        W25758   9.749   1.968  13.445
60499W        W25759  37.266  41.840   3.292
60500W        W25760  19.545  43.499  14.013
60501W        W25761  22.704  39.035  14.304
60502W        W25762  12.052  41.326   1.785
60503W        W25763  15.679  13.962  10.735
60504W        W25764  24.278  32.367  14.088
60505W        W25765  24.736  31.186  12.975
60506W        W25766   5.848   5.475  11.136
60507W        W25767   7.334  14.335  14.310
60508W        W25768  14.135  37.098   0.315
60509W        W25769  11.381  10.876   4.076
60510W        W25770  22.811  29.896   1.487
60511W        W25771  44.585  42.797   2.858
60512W        W25772  29.041  42.206  13.008
60513W        W25773  16.168  41.452   3.100
60514W        W25774  40.843  37.472  14.736
60515W        W25775  37.617  40.006   2.165
60516W        W25776  34.401  21.132  11.542
60517W        W25777  21.168  18.271  10.922
60518W        W25778  12.810  14.627   4.629
60519W        W25779  25.045  36.617   2.132
60520W        W25780  42.042  43.061   4.294
60521W        W25781   2.256  34.338  14.936
60522W        W25782  30.122  15.188   0.215
60523W        W25783  43.075  17.328   3.755
60524W        W25784   3.360  13.071   1.250
60525W        W25785  11.902  38.005  13.405
60526W        W25786  18.667  17.522   1.399
60527W        W25787  43.427   0.220   0.337
60528W        W25788  37.628  25.403   3.564
60529W        W25789  31.661   6.176  14.704
60530W        W25790  43.526  44.425   0.833
60531W        W25791  22.135  43.138   3.743
60532W        W25792   2.467  16.760   0.790
60533W        W25793  39.236  11.896  13.922
60534W        W25794  11.881  31.023  14.020
60535W        W25795   1.355  23.767   2.332
60536W        W25796  24.741  32.997  14.720
60537W        W25797  38.727  33.604   0.811
60538W        W25798  11.636  14.906  11.959
60539W        W25799  10.716   6.209  13.220
60540W        W25800   4.412  11.411   4.560
60541W        W25801  13.712  18.537   4.625
60542W        W25802  19.736  25.764   4.012
60543W        W25803  27.456  18.026  13.418
60544W        W25804  34.013  43.269  10.588
60545W        W25805  43.679   1.311   2.452
60546W        W25806  12.317   4.373  10.893
60547W        W25807  15.679  21.641  12.526
60548W        W25808  28.855  32.573  14.629
60549W        W25809  13.693  36.633   1.241
60550W        W25810   0.376  35.417  12.547
60551W        W25811  18.985  28.383   0.779
60552W        W25812  15.205  21.966  12.119
60553W        W25813  42.084  13.526  13.427
60554W        W25814  25.845  39.037   0.539
60555W        W25815  19.481  12.630   0.673
60556W        W25816  13.380  37.361   0.722
60557W        W25817  37.907  32.709  12.242
60558W        W25818   2.867  37.429  13.887
60559W        W25819  29.638  20.996   4.089
60560W        W25820  34.443  31.435   2.132
60561W        W25821  22.207   8.166  13.029
60562W        W25822  32.866  10.220   4.178
60563W        W25823  25.471  17.074  11.162
60564W        W25824  18.931   5.180   1.213
60565W        W25825   0.224   5.972  12.993
60566W        W25826  42.902  21.600  12.862
60567W        W25827  13.774   3.173   4.454
60568W        W25828   4.750   8.235   2.826
60569W        W25829  36.449   5.319   3.733
60570W        W25830  19.695  27.619   3.657
60571W        W25831   3.997   6.945   1.367
60572W        W25832  40.099  21.725   0.259
60573W        W25833  16.079  12.881   1.883
60574W        W25834  28.408  43.981   0.752
60575W        W25835  18.235  39.376   4.360
60576W        W25836   7.628   4.264   1.415
60577W        W25837  16.121  38.879  11.096
60578W        W25838  31.616  41.498  10.391
60579W        W25839  27.199   4.741   3.197
60580W        W25840  21.507  31.487  11.058
60581W        W25841  29.431  29.985  13.498
60582W        W25842  15.132   1.482   3.078
60583W        W25843  42.378   7.080  12.050
60584W        W25844   0.769  15.736  13.027
60585W        W25845  20.546  31.139  11.879
60586W        W25846  42.961  16.338   0.361
60587W        W25847  41.301  25.907  14.914
60588W        W25848   1.204   3.459   3.772
60589W        W25849  41.502  35.026   0.917
60590W        W25850  41.927  30.878   4.189
60591W        W25851   6.302  11.075  13.479
60592W        W25852  27.125  10.589   1.067
60593W        W25853  28.239  20.262   3.181
60594W        W25854   7.805  17.610   4.832
60595W        W25855  42.732  22.965   3.721
60596W        W25856  19.996  30.510   0.646
60597W        W25857  12.664  29.562   2.768
60598W        W25858  34.386   2.121   3.296
60599W        W25859   3.869   5.321   4.737
60600W        W25860  29.738  35.586  14.444
60601W        W25861  11.475  25.503  13.978
60602W        W25862  19.708  29.096  12.052
60603W        W25863  37.737  39.055  13.052
60604W        W25864  33.819  10.976  11.940
60605W        W25865   5.856   2.758  10.711
60606W        W25866  22.649  25.453  14.397
60607W        W25867   2.901  11.262  11.439
60608W        W25868  32.797  32.376   4.163
60609W        W25869   0.357  42.562   2.518
60610W        W25870  34.486  33.101  10.623
60611W        W25871  22.509  13.756   1.882
60612W        W25872  23.861  38.577   4.073
60613W        W25873  34.077   6.329   0.797
60614W        W25874   5.957   3.942  12.436
60615W        W25875  21.663  16.985   3.592
60616W        W25876  44.962   0.100   2.388
60617W        W25877  13.935  15.355   3.279
60618W        W25878  42.002   9.616   0.409
60619W        W25879  12.833  29.220   3.160
60620W        W25880  27.088  24.464   1.826
60621W        W25881   8.292  41.121   1.319
60622W        W25882  17.508   2.956  14.286
60623W        W25883   7.917  36.666   2.098
60624W        W25884   8.864  14.781   0.879
60625W        W25885  19.046  23.619   0.468
60626W        W25886  13.033  32.791   1.772
60627W        W25887   2.924  13.076   3.213
60628W        W25888  23.785  40.830  12.002
60629W        W25889  24.642  21.803  12.549
60630W        W25890  13.506  25.263  11.117
60631W        W25891  20.168  34.636   0.874
60632W        W25892  33.576  25.178  12.122
60633W        W25893  34.317  23.602  12.066
60634W        W25894  43.627  15.424  10.289
60635W        W25895   5.330   9.816   4.131
60636W        W25896  30.080  16.455   2.635
60637W        W25897  34.423  19.814   2.221
60638W        W25898  44.872   7.949  12.020
60639W        W25899  41.229  29.428  14.959
60640W        W25900  42.798  31.954  11.321
60641W        W25901   8.337  34.900   0.407
60642W        W25902   8.139   2.115  12.864
60643W        W25903  16.896  24.193   4.458
60644W        W25904  40.264   2.253   2.736
60645W        W25905   9.147  11.763   3.322
60646W        W25906  17.053  43.684   2.495
60647W        W25907  39.491  24.382   0.297
60648W        W25908  13.128  34.598   1.450
60649W        W25909  41.241   3.870   2.677
60650W        W25910  25.186  33.107   1.979
60651W        W25911  13.255  42.517   3.300
60652W        W25912  31.032   7.656   4.573
60653W        W25913  40.673  28.091   0.145
60654W        W25914  30.110  11.785  10.468
60655W        W25915  23.202   9.303   1.038
60656W        W25916  39.266   1.516  12.322
60657W        W25917  34.238  29.326  14.428
60658W        W25918  38.036  23.794   1.357
60659W        W25919  18.906  10.812   0.787
60660W        W25920  13.658  42.580  11.466
60661W        W25921  40.638  16.387   4.955
60662W        W25922  12.546  32.496  14.853
60663W        W25923  42.743  33.548   3.321
60664W        W25924  34.774   1.904   1.291
60665W        W25925  28.156  41.618   4.109
60666W        W25926  20.582  10.519   3.728
60667W        W25927  36.001  29.609   2.255
60668W        W25928  32.104  40.339   3.379
60669W        W25929  21.347  22.209  14.828
60670W        W25930  16.771  15.552   1.253
60671W        W25931  26.427  43.866  13.976
60672W        W25932  30.768  10.882  14.028
60673W        W25933  30.051  30.965  10.706
60674W        W25934  12.849  11.314  13.814
60675W        W25935  31.489   1.773   1.181
60676W        W25936  43.512  19.578  10.677
60677W        W25937  43.792  43.329   3.606
60678W        W25938  41.838  20.102  10.736
60679W        W25939  39.150   5.679  10.973
60680W        W25940   7.223  27.012   0.785
60681W        W25941  16.585  19.521   0.894
60682W        W25942  28.847  39.033  14.421
60683W        W25943  44.460  13.552  13.510
60684W        W25944  28.192  44.974  13.892
60685W        W25945  35.591  20.704   3.655
60686W        W25946   0.566  20.743  11.216
60687W        W25947  15.690   9.600  12.973
60688W        W25948  17.610  40.524   2.258
60689W        W25949  23.310  13.424  13.831
60690W        W25950  34.678   4.997   2.711
60691W        W25951   1.385   6.090  13.439
60692W        W25952   7.121  22.998   3.654
60693W        W25953  39.924  33.827   3.189
60694W        W25954  39.359  26.648  10.945
60695W        W25955  16.751   5.953   4.124
60696W        W25956   0.741  39.410  10.723
60697W        W25957   6.947  30.084  11.580
60698W        W25958  21.610  25.433  13.500
60699W        W25959  14.631  12.468  13.491
60700W        W25960  34.034  35.956  11.999
60701W        W25961   6.484   9.790  12.352
60702W        W25962  39.014  16.202  11.428
60703W        W25963  22.128   3.429   0.260
60704W        W25964  25.592   8.603  13.169
60705W        W25965  35.088   4.687   1.788
60706W        W25966   2.999  23.629   1.275
60707W        W25967   5.767  44.553  14.654
60708W        W25968  23.927  43.779   2.802
60709W        W25969  24.596   9.167  13.979
60710W        W25970  31.341   8.319   3.248
60711W        W25971  27.045  40.862  11.153
60712W        W25972  44.041  23.189  14.528
60713W        W25973  44.468  11.390   3.078
60714W        W25974  32.979   7.381   1.942
60715W        W25975  40.328  34.853   1.387
60716W        W25976  21.045   1.552  13.312
60717W        W25977  18.502  31.582   2.189
60718W        W25978   7.905  40.428  13.005
60719W        W25979  25.476  11.395   0.363
60720W        W25980  14.925   2.069   1.148
60721W        W25981   1.842   4.935   2.108
60722W        W25982  27.332  17.946   4.145
60723W        W25983  33.612  38.188   1.692
60724W        W25984  29.441  20.582   0.269
60725W        W25985   2.597  19.560   4.512
60726W        W25986   8.296  40.608   1.236
60727W        W25987  26.286  41.331  13.830
60728W        W25988  25.558  13.337   2.424
60729W        W25989   2.285  33.024  10.783
60730W        W25990   3.495  21.811   0.474
60731W        W25991  24.028  31.223   0.667
60732W        W25992  11.808  32.079  10.818
60733W        W25993  29.017  23.090  14.282
60734W        W25994   7.697  20.138   3.619
60735W        W25995  14.614  26.367  12.077
60736W        W25996  19.649  32.358   0.797
60737W        W25997  39.394  19.426   0.234
60738W        W25998   0.694  37.513  12.002
60739W        W25999   3.340  14.642  12.064
60740W        W26000  25.233  35.370  14.085
60741W        W26001  18.289   2.263   3.665
60742W        W26002  24.081  25.162  11.079
60743W        W26003  11.092  37.600  14.973
60744W        W26004  29.035  34.507   3.916
60745W        W26005   6.215   9.343  12.489
60746W        W26006   4.966  42.293   0.332
60747W        W26007  27.402  24.947   0.865
60748W        W26008   7.589  14.887  13.913
60749W        W26009  28.125  43.370   3.586
60750W        W26010  18.506  31.687  10.932
60751W        W26011  16.107  11.169   1.260
60752W        W26012  38.215  12.335  11.099
60753W        W26013  36.965   7.909  12.459
60754W        W26014  24.584  12.609   1.034
60755W        W26015  12.223  34.683   0.492
60756W        W26016  15.272  11.275   4.652
60757W        W26017   3.257   6.359   3.225
60758W        W26018  40.915  38.862   0.018
60759W        W26019  38.315  38.563   1.455
60760W        W26020  37.109  23.585  11.984
60761W        W26021  38.390  36.958   1.935
60762W        W26022   6.531  29.659  11.868
60763W        W26023  21.727  32.473  11.281
60764W        W26024  36.293  29.984   0.393
60765W        W26025   3.522  14.536   2.592
60766W        W26026  14.409  33.585   1.429
60767W        W26027   4.737  30.953  14.406
60768W        W26028  30.474   0.839  13.403
60769W        W26029  10.152  10.140  13.332
60770W        W26030  31.642   6.794  12.981
60771W        W26031  10.437   0.752  12.426
60772W        W26032  13.496  44.501   3.786
60773W        W26033  44.528   5.692   4.364
60774W        W26034  20.002  30.942  14.380
60775W        W26035  10.859   4.656   2.922
60776W        W26036  39.868  29.712  12.128
60777W        W26037   6.214  15.071   2.809
60778W        W26038  44.202  41.701   0.699
60779W        W26039   6.826  23.298  12.594
60780W        W26040  26.619  16.847  12.650
60781W        W26041  12.255  39.347   1.514
60782W        W26042  13.801  12.754  14.045
60783W        W26043   3.532  36.190   3.353
60784W        W26044   7.770  28.014   3.133
60785W        W26045  16.588   8.673   3.797
60786W        W26046  28.000  44.438  14.460
60787W        W26047  13.210  16.080   0.473
60788W        W26048  43.824  44.015  11.063
60789W        W26049   3.689  23.912  12.987
60790W        W26050  36.572   4.239  11.502
60791W        W26051  22.625  31.959  13.831
60792W        W26052  27.167  14.383  12.803
60793W        W26053  32.660  34.215  13.721
60794W        W26054  20.284  13.679   2.615
60795W        W26055   4.058  40.385   1.424
60796W        W26056  25.408  18.834   3.088
60797W        W26057  23.307  37.358  10.636
60798W        W26058  21.023  15.975   3.341
60799W        W26059  22.736  29.563  13.869
60800W        W26060   3.250  44.297   1.631
60801W        W26061  26.228  25.943   1.713
60802W        W26062  12.084  37.133   5.047
60803W        W26063  43.802  11.279  11.985
60804W        W26064  30.412  41.239   0.431
60805W        W26065  28.831   5.014  12.007
60806W        W26066  18.042  19.831  13.387
60807W        W26067  41.179  17.728   0.738
60808W        W26068  35.509  27.639  11.420
60809W        W26069  11.247  25.207  12.099
60810W        W26070  33.556  20.663   2.748
60811W        W26071  35.659  15.391  14.837
60812W        W26072  39.435  37.120  11.722
60813W        W26073  12.000  10.658   3.282
60814W        W26074  22.561  43.820   3.238
60815W        W26075   8.608  20.756  12.217
60816W        W26076   9.318  25.629  14.861
60817W        W26077   7.739  39.446   0.919
60818W        W26078  22.537  34.882   3.679
60819W        W26079  34.847  33.858  10.737
60820W        W26080  42.557  43.286   4.932
60821W        W26081  40.235   9.700  11.180
60822W        W26082  39.086  29.389   1.045
60823W        W26083  11.783  19.563  10.714
60824W        W26084  19.947  42.661  11.625
60825W        W26085  30.176  12.090  11.746
60826W        W26086   9.397  11.650  14.298
60827W        W26087   5.707   0.936   3.472
60828W        W26088  28.767  11.872   2.791
60829W        W26089  31.027  17.022  12.083
60830W        W26090  39.555  32.305   3.714
60831W        W26091  25.857   3.819   4.652
60832W        W26092  30.502  32.404   4.758
60833W        W26093  13.681   7.963  14.021
60834W        W26094  26.659  15.009  14.438
60835W        W26095  10.698  38.783  11.120
60836W        W26096   9.321   2.327  13.334
60837W        W26097  31.740  14.174   3.354
60838W        W26098  20.096  35.210  11.718
60839W        W26099  27.702  35.531   0.368
60840W        W26100  15.124  22.090   3.326
60841W        W26101  28.628  18.773   2.118
60842W        W26102   0.734  17.583   2.382
60843W        W26103  18.688  27.029  10.642
60844W        W26104  37.353   1.965  14.460
60845W        W26105  42.942   9.897   0.272
60846W        W26106  37.479  28.079  13.011
60847W        W26107   6.421  31.756  12.072
60848W        W26108  13.336  35.939   9.802
60849W        W26109  21.669  15.689  10.315
60850W        W26110  41.350   7.862   2.653
60851W        W26111  35.203  19.040   4.200
60852W        W26112  41.324  23.223   4.334
60853W        W26113  43.404  13.709   1.868
60854W        W26114  14.110   7.653  14.962
60855W        W26115  37.389  26.022   4.116
60856W        W26116   1.329  26.471   2.789
60857W        W26117  32.587  39.454   3.700
60858W        W26118  18.794  12.784  11.235
60859W        W26119  25.173  43.369   4.912
60860W        W26120  34.540  33.733   1.547
60861W        W26121  44.386  20.192   0.900
60862W        W26122  23.548  30.604  11.182
60863W        W26123  17.322  42.755  10.812
60864W        W26124  15.826  23.423  12.743
60865W        W26125  29.057   9.191   3.653
60866W        W26126  18.586   4.263  12.987
60867W        W26127  10.392  41.480   2.905
60868W        W26128   3.220   2.191  11.093
60869W        W26129  41.844  39.267  13.401
60870W        W26130   4.730  33.180   1.863
60871W        W26131  31.922  41.485  11.205
60872W        W26132  35.921   4.920   0.221
60873W        W26133  23.203  38.455   1.731
60874W        W26134  29.867  21.234  10.583
60875W        W26135  35.904  20.074  14.375
60876W        W26136  15.230  22.758  11.608
60877W        W26137  29.454   3.487  10.584
60878W        W26138   0.146  35.447  12.071
60879W        W26139  38.882  37.649   4.717
60880W        W26140  18.384  24.313  11.471
60881W        W26141  44.808  11.166   3.461
60882W        W26142   6.596  15.222  13.857
60883W        W26143  13.923  27.418   4.150
60884W        W26144   8.642   1.009   3.779
60885W        W26145  44.313  14.335  13.922
60886W        W26146  11.885   8.181   1.836
60887W        W26147   4.165  22.211  13.329
60888W        W26148   2.383  20.062   3.735
60889W        W26149  13.981  15.462   0.267
60890W        W26150  36.412  41.462   3.163
60891W        W26151  30.265  14.107  11.656
60892W        W26152  39.363  43.989   4.309
60893W        W26153  27.957  24.521   4.179
60894W        W26154   4.030   1.919  13.422
60895W        W26155  16.760  27.201  13.857
60896W        W26156  41.472  12.796  11.242
60897W        W26157  13.369  29.488   0.582
60898W        W26158  27.579  43.876  14.992
60899W        W26159  36.837  32.225  12.704
60900W        W26160   9.602  14.283   0.880
60901W        W26161   9.632   6.149  11.651
60902W        W26162  37.537  12.507   4.170
60903W        W26163  18.768  37.508   0.256
60904W        W26164  26.555  12.818   3.363
60905W        W26165  30.707  18.211   0.273
60906W        W26166  41.465   2.768  14.289
60907W        W26167  37.239  43.874   4.514
60908W        W26168   9.339  28.260   1.412
60909W        W26169  19.397  37.311  10.851
60910W        W26170   8.343  14.421  14.296
60911W        W26171  20.871  42.138  13.108
60912W        W26172  18.254  22.666   1.796
60913W        W26173  38.888  26.541   4.078
60914W        W26174  39.249   5.280  10.663
60915W        W26175  31.450  43.500   3.757
60916W        W26176   9.267   6.695  13.353
60917W        W26177   7.745  29.475  14.566
60918W        W26178  17.407  44.706  11.535
60919W        W26179  10.030   8.417   1.002
60920W        W26180   5.531  17.334   0.450
60921W        W26181   1.004  10.297   1.889
60922W        W26182  36.293   0.274   0.037
60923W        W26183  21.541   3.696  12.365
60924W        W26184   9.107  20.277   4.394
60925W        W26185  41.565  31.594  13.427
60926W        W26186  41.829  43.018   1.551
60927W        W26187  40.357  27.979   2.873
60928W        W26188  35.859  23.259  10.703
60929W        W26189   1.954   7.808  13.565
60930W        W26190  29.684  17.209   5.103
60931W        W26191   1.440  15.418  11.862
60932W        W26192  41.510   4.643  10.756
60933W        W26193  21.043  31.627   4.137
60934W        W26194   1.662  29.008  14.837
60935W        W26195  30.581  31.077  11.965
60936W        W26196  19.238  26.453  13.591
60937W        W26197  28.703  32.607   0.156
60938W        W26198  17.261   0.375   2.189
60939W        W26199   7.880  23.476  12.033
60940W        W26200  39.136  16.626   0.947
60941W        W26201  32.819   4.458  11.969
60942W        W26202   1.214  37.424  13.060
60943W        W26203   8.359  35.156  10.739
60944W        W26204   2.617   4.369   3.208
60945W        W26205  43.437  34.429   4.164
60946W        W26206  32.139  35.536   1.424
60947W        W26207  37.569  29.455  11.608
60948W        W26208  23.041   2.477  12.475
60949W        W26209  23.339   2.619   5.068
60950W        W26210  43.235  44.382   1.650
60951W        W26211  13.615  39.893   0.873
60952W        W26212  29.599  29.451  14.528
60953W        W26213  24.324   2.546   0.369
60954W        W26214  29.035  38.550  14.372
60955W        W26215   1.925  33.289  13.508
60956W        W26216  30.066  18.257  14.777
60957W        W26217  41.879  29.331  13.483
60958W        W26218  15.844  26.476  11.143
60959W        W26219   6.822  15.730  14.473
60960W        W26220  17.462   5.734   3.683
60961W        W26221  12.963   3.267  11.169
60962W        W26222  39.927  38.519   1.912
60963W        W26223  17.676  16.779   2.214
60964W        W26224  10.806  19.173  12.383
60965W        W26225  38.000  19.007   3.322
60966W        W26226  37.985  26.721   1.396
60967W        W26227  27.417  39.571  13.909
60968W        W26228  12.572  23.044  11.226
60969W        W26229  11.084  13.421   1.097
60970W        W26230   2.687  41.865   0.922
60971W        W26231   7.357   0.018  12.989
60972W        W26232  15.241   1.648  11.211
60973W        W26233  35.050  27.247   3.430
60974W        W26234  40.235   6.206  11.177
60975W        W26235  26.470  27.538  13.778
60976W        W26236  19.125  23.040  13.031
60977W        W26237  36.375  16.562   0.981
60978W        W26238   9.187  42.818  14.235
60979W        W26239  39.221  16.523   3.210
60980W        W26240   4.597   5.327   2.785
60981W        W26241   2.534  15.388  10.921
60982W        W26242  38.360  34.513  10.702
60983W        W26243   5.331  44.424  14.922
60984W        W26244  31.556  27.065  12.096
60985W        W26245  11.640   8.139  13.518
60986W        W26246  26.586  24.624  14.737
60987W        W26247  41.461  11.027  11.742
60988W        W26248  12.186  41.964   3.989
60989W        W26249  44.199  18.251  13.468
60990W        W26250   9.199  16.234   4.692
60991W        W26251  11.716  11.615   0.473
60992W        W26252  18.288  35.559   0.793
60993W        W26253  42.889  21.733   4.801
60994W        W26254   7.587  36.007  13.457
60995W        W26255   7.769   6.105  13.928
60996W        W26256  36.023  27.660   4.293
60997W        W26257  36.996  26.937   2.452
60998W        W26258   7.092   8.917  14.005
60999W        W26259  37.579  10.405  10.696
61000W        W26260  35.462  36.518  11.871
61001W        W26261   8.645  29.171  12.627
61002W        W26262  37.283  30.802  12.106
61003W        W26263  30.125  10.344  10.605
61004W        W26264  26.605  43.589  13.356
61005W        W26265  11.398  23.003  11.896
61006W        W26266  33.919  37.307   4.642
61007W        W26267  23.019  24.505   1.768
61008W        W26268   4.642  42.636   3.543
61009W        W26269  23.515  41.287  12.773
61010W        W26270  17.018  13.637   4.900
61011W        W26271  31.825  21.046  14.217
61012W        W26272  42.318  13.490  11.050
61013W        W26273   0.020  21.157   3.206
61014W        W26274  10.820  14.357   2.352
61015W        W26275  31.244  21.150  12.432
61016W        W26276  14.579  26.104   2.271
61017W        W26277   9.919  18.143  12.630
61018W        W26278   8.259  39.018  12.018
61019W        W26279  24.086   6.064   4.972
61020W        W26280  19.170  31.695   4.617
61021W        W26281  26.685  29.578   1.249
61022W        W26282  38.849  26.266   2.601
61023W        W26283  13.272  40.760   1.782
61024W        W26284  17.287   6.798   1.446
61025W        W26285   7.932  22.949   0.409
61026W        W26286   7.161  34.297   0.641
61027W        W26287   1.292  25.566  12.095
61028W        W26288  32.668  20.113  13.861
61029W        W26289   8.981  32.963   2.856
61030W        W26290  25.239  15.792  13.621
61031W        W26291  21.696  40.926   4.370
61032W        W26292   7.750   2.857   1.307
61033W        W26293  18.067   8.483  14.387
61034W        W26294  15.815  29.347   1.422
61035W        W26295  29.400   4.220   4.551
61036W        W26296  33.432  22.346  14.798
61037W        W26297  40.782  12.757   1.821
61038W        W26298  17.304  31.074  10.683
61039W        W26299  22.769   1.253   4.137
61040W        W26300  24.057  44.396  11.397
61041W        W26301  32.886  18.182  12.590
61042W        W26302   4.248  10.626  14.222
61043W        W26303  42.998  32.912   4.148
61044W        W26304  29.692  15.754   4.591
61045W        W26305  39.725   9.715   3.583
61046W        W26306  16.517  28.101  14.758
61047W        W26307  33.909   2.460   1.848
61048W        W26308  34.879  28.202  11.476
61049W        W26309   0.754  41.543   0.950
61050W        W26310   9.958  24.980   1.349
61051W        W26311  15.402   0.362  10.634
61052W        W26312  13.535  18.122   1.293
61053W        W26313   6.197  35.901  10.344
61054W        W26314  39.841   8.212   1.269
61055W        W26315   5.396   0.721  14.482
61056W        W26316  15.592  30.569   1.852
61057W        W26317  32.511  31.671   4.618
61058W        W26318   1.876   3.675  11.247
61059W        W26319  25.602  22.919   1.194
61060W        W26320  22.514  12.361  12.462
61061W        W26321   8.180  32.995   4.165
61062W        W26322  21.806  37.030  14.044
61063W        W26323   1.537   3.167   0.939
61064W        W26324  43.046   1.399   3.426
61065W        W26325  25.505  34.308   4.241
61066W        W26326  38.899  37.834  11.932
61067W        W26327  20.119   9.859  13.415
61068W        W26328  18.159  41.761   2.665
61069W        W26329  13.103  13.554   1.488
61070W        W26330  27.916  41.374  14.957
61071W        W26331   0.436  32.718  14.955
61072W        W26332  25.385   2.651  14.388
61073W        W26333  19.589  21.161   0.210
61074W        W26334  25.031  18.152   3.773
61075W        W26335  31.702  37.445   3.377
61076W        W26336  44.231   2.141   5.198
61077W        W26337  15.650  15.256   4.631
61078W        W26338  21.736  20.921   2.252
61079W        W26339   4.006  29.095  12.471
61080W        W26340  31.690  19.886   3.602
61081W        W26341  43.016  32.396   4.214
61082W        W26342  14.514  19.256  14.503
61083W        W26343   0.209  18.661   3.191
61084W        W26344   9.170  20.179  14.760
61085W        W26345  44.628   3.664  13.121
61086W        W26346   4.391  39.247  14.210
61087W        W26347  27.800  17.605   2.596
61088W        W26348  40.397  21.559   0.801
61089W        W26349   5.796   7.617  11.689
61090W        W26350  21.192  35.443  12.835
61091W        W26351   3.579  21.884   4.036
61092W        W26352  34.690  23.611  10.242
61093W        W26353  36.729  43.982   9.981
61094W        W26354   1.970   3.177  11.239
61095W        W26355  15.903  34.682  12.574
61096W        W26356  11.715  20.511  13.916
61097W        W26357   3.613   1.817  12.477
61098W        W26358   3.421  38.782   2.432
61099W        W26359  16.022  14.077   4.362
61100W        W26360  34.803  14.304   3.831
61101W        W26361  32.124   7.124   3.346
61102W        W26362   9.798   5.656  11.723
61103W        W26363  22.420  39.751   2.803
61104W        W26364  20.689  40.117  14.563
61105W        W26365   2.189   3.267  11.814
61106W        W26366  24.729   6.760   2.469
61107W        W26367  32.920   7.702  11.552
61108W        W26368   4.428  11.832   2.248
61109W        W26369  42.882  44.952  14.454
61110W        W26370  42.532   4.832   0.461
61111W        W26371  19.153  41.713   0.820
61112W        W26372  14.091  26.810  11.521
61113W        W26373   9.439  38.037  11.046
61114W        W26374  27.181   9.725   1.988
61115W        W26375  15.561  14.276   1.181
61116W        W26376  40.333  42.522   4.748
61117W        W26377   9.399  15.125   0.460
61118W        W26378  25.015  42.557  13.832
61119W        W26379  36.786  18.666  12.123
61120W        W26380  14.187   8.631  10.677
61121W        W26381  23.009  40.309   0.965
61122W        W26382  43.961  33.160   3.701
61123W        W26383  18.796  20.765  11.924
61124W        W26384   6.341  22.345   0.246
61125W        W26385   6.001  18.701   3.122
61126W        W26386  11.856   4.730   5.033
61127W        W26387  41.445  22.733   0.737
61128W        W26388   5.959  43.449   2.800
61129W        W26389  43.523  15.265   4.160
61130W        W26390  44.502  34.333  12.666
61131W        W26391  28.664  44.948   2.292
61132W        W26392  16.807  31.355   1.231
61133W        W26393   1.548  18.522   2.645
61134W        W26394  31.374   4.656  14.429
61135W        W26395  15.856   8.140  13.846
61136W        W26396  43.512   1.305  10.920
61137W        W26397  12.454  19.900   3.914
61138W        W26398  11.157   1.337  11.672
61139W        W26399  18.197  37.207  11.952
61140W        W26400  34.483  35.569  13.880
61141W        W26401  12.877  40.828  11.382
61142W        W26402  25.279  19.305   2.216
61143W        W26403  39.976  35.326  12.602
61144W        W26404  18.985  38.413   3.342
61145W        W26405  21.904  29.332  11.712
61146W        W26406  24.148   5.820   1.007
61147W        W26407  24.448  39.579   4.520
61148W        W26408  17.099  30.530   2.764
61149W        W26409  27.691   9.863  12.019
61150W        W26410  38.667   2.279  10.272
61151W        W26411  29.630  18.617   1.811
61152W        W26412   7.871   0.809   2.292
61153W        W26413  17.996  18.522  11.878
61154W        W26414  25.725  41.043   3.155
61155W        W26415   9.299  33.601   2.895
61156W        W26416  34.567  32.053  11.964
61157W        W26417  17.376   8.844   0.777
61158W        W26418  16.448  37.944   2.811
61159W        W26419   9.254  32.835  13.367
61160W        W26420   9.764   2.828   0.388
61161W        W26421  13.353  28.513  10.642
61162W        W26422   4.917  12.503   4.171
61163W        W26423  36.929  32.193  13.229
61164W        W26424  19.039  10.884   4.531
61165W        W26425   2.932  20.462  14.067
61166W        W26426  42.879  41.907   3.174
61167W        W26427  36.882  26.684   3.692
61168W        W26428  17.001   6.725  13.487
61169W        W26429  40.967  16.654  13.032
61170W        W26430   1.740  38.019   0.822
61171W        W26431  43.141  24.500  11.120
61172W        W26432  18.149  13.794  14.520
61173W        W26433  10.941  18.056   4.582
61174W        W26434   5.193  26.123  10.514
61175W        W26435  29.907  21.585  13.056
61176W        W26436  19.485  32.908  13.672
61177W        W26437  30.679   9.664  11.127
61178W        W26438  34.446   5.202  12.842
61179W        W26439  20.243  30.033   0.686
61180W        W26440   4.325  44.353   4.513
61181W        W26441  24.111   9.380  10.222
61182W        W26442  36.046  40.106  14.956
61183W        W26443   0.435  18.152  12.498
61184W        W26444  25.300  19.205  14.762
61185W        W26445  39.458  43.278  14.447
61186W        W26446  38.870   5.934   1.785
61187W        W26447  25.915  29.326   2.364
61188W        W26448  36.274  20.779  12.461
61189W        W26449   1.217  32.105  11.329
61190W        W26450   7.690  36.278  11.204
61191W        W26451  36.053   9.162   1.660
61192W        W26452  40.977   2.797   3.646
61193W        W26453  13.609  17.685   2.147
61194W        W26454  32.052  13.050   0.867
61195W        W26455   6.659  25.096   3.712
61196W        W26456  38.914  31.439  11.112
61197W        W26457  32.584  35.467  10.932
61198W        W26458  43.964   4.722   0.689
61199W        W26459  25.495  22.754  11.599
61200W        W26460  10.350  35.477   1.704
61201W        W26461   0.273  32.167   3.810
61202W        W26462  37.459  23.044  11.160
61203W        W26463  32.253  24.216   3.851
61204W        W26464  18.972  19.058  13.875
61205W        W26465  20.960  27.993  14.734
61206W        W26466   8.925  35.759  12.941
61207W        W26467  43.503  43.866   3.233
61208W        W26468  11.070   5.429   4.138
61209W        W26469   6.297  38.081  11.465
61210W        W26470  20.605  11.741   2.959
61211W        W26471  31.952  37.920  13.970
61212W        W26472  23.710  21.302   0.908
61213W        W26473  11.616  18.470  13.665
61214W        W26474  19.599  41.552   4.216
61215W        W26475  26.098  14.994   2.894
61216W        W26476  36.444  41.954  14.690
61217W        W26477  41.718   3.413   4.707
61218W        W26478  25.096  30.409  12.946
61219W        W26479  21.686  30.829   4.067
61220W        W26480  13.178  40.334   4.725
61221W        W26481   4.163  35.374  14.740
61222W        W26482  22.658  14.845  10.725
61223W        W26483   1.335  38.414   4.581
61224W        W26484   8.641  20.296   1.868
61225W        W26485  18.955  32.531   1.316
61226W        W26486  41.476  17.628   1.251
61227W        W26487   3.629  27.082  12.418
61228W        W26488  25.192   7.243   3.359
61229W        W26489   5.327  12.181  14.400
61230W        W26490  44.876  23.462   1.577
61231W        W26491  25.089   7.645   3.064
61232W        W26492  18.707  44.382   3.638
61233W        W26493  41.176   3.342   2.782
61234W        W26494  35.951  21.181   0.494
61235W        W26495   0.725  21.244  13.941
61236W        W26496  40.990  15.688  11.220
61237W        W26497  30.632   4.235   2.290
61238W        W26498  17.975  13.648  12.966
61239W        W26499  23.231  20.785  14.016
61240W        W26500  35.306  18.771  13.002
61241W        W26501  37.820  26.159   4.399
61242W        W26502  11.253  36.999   2.747
61243W        W26503  12.263  25.955   0.795
61244W        W26504  33.124  11.628   3.417
61245W        W26505  20.632   0.296   4.328
61246W        W26506  42.875  40.818   3.209
61247W        W26507  27.120  19.024   1.757
61248W        W26508  12.499   0.402  13.019
61249W        W26509  27.579  27.307  13.107
61250W        W26510  32.977  41.947  10.359
61251W        W26511  19.286  30.141   0.830
61252W        W26512  27.337  23.468   0.814
61253W        W26513   3.887  14.205   1.693
61254W        W26514  43.501   9.757   2.105
61255W        W26515  10.968   1.089   3.956
61256W        W26516  22.451  32.213   4.172
61257W        W26517  32.071   1.678  12.113
61258W        W26518  16.684  43.242   4.397
61259W        W26519  12.083   5.800   0.011
61260W        W26520  41.954  21.247   4.690
61261W        W26521  31.531   7.973  11.798
61262W        W26522  38.605  36.376  13.075
61263W        W26523  19.013  20.668   0.743
61264W        W26524  24.472  18.277   2.502
61265W        W26525  41.950  18.525   0.298
61266W        W26526  41.261  38.913   3.933
61267W        W26527  28.929  25.779   4.734
61268W        W26528   1.421  24.580  13.012
61269W        W26529  28.154  22.092  12.829
61270W        W26530  43.023   3.924  11.520
61271W        W26531  35.525  28.694  12.677
61272W        W26532  11.888  29.940   2.691
61273W        W26533  21.066  11.194   4.793
61274W        W26534  36.560  10.237  14.890
61275W        W26535  21.939  21.202  10.303
61276W        W26536  43.325  36.227   4.102
61277W        W26537   1.275  28.734   2.494
61278W        W26538  12.732  12.646   3.626
61279W        W26539  36.364   1.790  13.134
61280W        W26540  44.544   1.726   4.336
61281W        W26541   4.520  39.010  11.539
61282W        W26542   2.862  35.957   1.203
61283W        W26543   8.874  31.158  11.113
61284W        W26544  34.963  43.305  14.752
61285W        W26545  17.217  18.469  13.358
61286W        W26546   6.306  38.517   4.582
61287W        W26547  18.758  38.343  14.832
61288W        W26548  13.076  22.413  12.207
61289W        W26549  15.572   6.391  10.500
61290W        W26550  16.781  22.189   1.333
61291W        W26551  44.268   3.142   2.573
61292W        W26552  34.563  33.384   3.814
61293W        W26553  37.321  38.207   0.102
61294W        W26554   7.386  33.878   0.377
61295W        W26555  27.162  38.316   2.667
61296W        W26556  37.057   1.989   3.084
61297W        W26557  21.765  17.188  11.506
61298W        W26558  33.088  14.078  11.528
61299W        W26559  16.535  44.376  11.161
61300W        W26560  26.539  39.760  11.142
61301W        W26561  12.185   6.074   4.106
61302W        W26562  26.704  29.152   0.657
61303W        W26563  35.905  17.639   4.505
61304W        W26564  14.351   0.799   4.050
61305W        W26565   3.322  13.546  13.044
61306W        W26566  15.117  20.765   4.015
61307W        W26567  12.712   2.330  10.918
61308W        W26568   5.249  43.210   0.623
61309W        W26569  22.377   2.541   9.485
61310W        W26570  14.617  41.260   2.276
61311W        W26571  13.167  40.534   0.176
61312W        W26572   4.652   6.263  13.983
61313W        W26573  17.186  15.841   4.862
61314W        W26574   0.442  42.481   4.196
61315W        W26575  43.813   5.790  13.273
61316W        W26576  21.806  28.085  10.753
61317W        W26577  18.308  19.310   1.034
61318W        W26578   4.849  37.491   2.272
61319W        W26579  43.675   9.976  10.466
61320W        W26580  33.512   7.950   4.386
61321W        W26581  33.025  18.729  12.519
61322W        W26582  16.150  29.395  10.797
61323W        W26583   8.964   3.844   1.492
61324W        W26584  43.579  29.111  13.143
61325W        W26585  17.114  24.682   1.724
61326W        W26586  34.447  11.899  14.817
61327W        W26587   4.344  13.123   3.423
61328W        W26588  38.051  33.653   1.449
61329W        W26589  37.904  22.684  10.335
61330W        W26590   8.768  13.688  14.854
61331W        W26591   6.719  15.268  12.435
61332W        W26592  39.192  21.998  13.789
61333W        W26593   9.245   0.565   2.290
61334W        W26594  22.993  21.346  11.935
61335W        W26595  11.333  35.483   3.139
61336W        W26596  13.907   6.243  14.747
61337W        W26597   9.891  36.494   4.103
61338W        W26598  29.949  34.203   2.341
61339W        W26599   5.436   0.206   1.448
61340W        W26600   2.975  30.452  10.994
61341W        W26601   5.008   0.591  11.465
61342W        W26602  15.211  44.930   2.198
61343W        W26603  34.499  16.970  11.722
61344W        W26604  34.830  20.942  14.702
61345W        W26605   7.437   7.690  12.097
61346W        W26606   0.983   7.026   1.748
61347W        W26607   0.796  21.105   1.390
61348W        W26608  23.648  26.600  11.428
61349W        W26609  29.417  40.901  10.447
61350W        W26610  10.188  12.798   1.991
61351W        W26611  17.771  34.469   4.682
61352W        W26612  26.573   0.754   4.604
61353W        W26613  22.826  22.515   0.943
61354W        W26614  25.062  26.658  10.703
61355W        W26615  42.889  39.943   4.678
61356W        W26616  27.813   8.920   4.946
61357W        W26617  43.362  25.174   1.646
61358W        W26618  21.827  26.703  13.362
61359W        W26619  21.478  37.675   2.891
61360W        W26620  37.928  34.367   3.931
61361W        W26621   9.349  16.344  11.058
61362W        W26622  22.765  39.121   4.977
61363W        W26623  36.854  38.899  12.112
61364W        W26624  38.699  26.432  14.391
61365W        W26625  27.066  12.296  12.111
61366W        W26626  21.098  19.527  10.698
61367W        W26627   4.359   0.675   0.785
61368W        W26628  41.933   8.857  13.354
61369W        W26629  40.821  41.076   0.657
61370W        W26630  37.179  11.739  14.712
61371W        W26631  28.608  33.533   3.185
61372W        W26632  10.243  33.389   2.752
61373W        W26633   4.229  34.414   1.878
61374W        W26634  42.745  27.381  14.931
61375W        W26635   3.246  37.657   3.334
61376W        W26636   4.371  17.697  14.308
61377W        W26637   6.912  22.671   0.228
61378W        W26638  15.728   3.899   3.269
61379W        W26639   1.433  28.258  10.681
61380W        W26640  21.023  39.775   1.980
61381W        W26641  39.304  43.599  11.974
61382W        W26642  11.000  22.090  14.065
61383W        W26643  17.645  44.034  14.953
61384W        W26644  18.381   1.851  11.549
61385W        W26645  12.428  24.459  11.584
61386W        W26646  22.266  17.308  11.416
61387W        W26647  38.558  35.558  11.521
61388W        W26648   5.658  13.814  12.520
61389W        W26649  24.543   2.398  14.034
61390W        W26650  43.255  13.660   3.578
61391W        W26651  27.087  17.477   0.453
61392W        W26652   2.811  38.831  12.434
61393W        W26653  43.440  24.230  10.712
61394W        W26654  13.554  28.895  11.020
61395W        W26655  40.124  19.011  14.732
61396W        W26656  15.611   0.190   1.313
61397W        W26657  38.979  18.443  14.495
61398W        W26658   5.379  33.936   1.703
61399W        W26659  23.560  23.178  14.019
61400W        W26660  26.372  15.164  14.027
61401W        W26661  21.575  37.577   0.748
61402W        W26662  42.925  22.672   1.915
61403W        W26663  33.679  15.707  12.414
61404W        W26664  35.682  21.721  14.069
61405W        W26665   7.010  41.922  13.751
61406W        W26666  39.987  29.033  11.591
61407W        W26667  44.964  17.958  12.436
61408W        W26668   8.122  24.174  14.174
61409W        W26669  14.808  39.027  11.509
61410W        W26670  12.967   6.266   0.034
61411W        W26671   5.206   5.013   0.242
61412W        W26672  15.067  16.678   0.337
61413W        W26673  11.351   8.922  11.173
61414W        W26674  13.326   5.364  11.420
61415W        W26675   0.724   2.832   0.903
61416W        W26676  26.509   5.413   3.276
61417W        W26677   0.813  31.538  14.430
61418W        W26678  35.865  15.456   5.155
61419W        W26679  33.974  34.865   1.500
61420W        W26680   0.290  43.384  12.067
61421W        W26681  43.852  44.923  10.924
61422W        W26682  14.847  28.038  13.087
61423W        W26683  40.380  31.168  13.428
61424W        W26684  30.377  17.263   4.011
61425W        W26685  26.015  21.988  14.948
61426W        W26686  28.473  33.753  14.049
61427W        W26687  21.668  44.792   2.780
61428W        W26688  15.146  44.618   3.831
61429W        W26689  43.960  23.640   3.500
61430W        W26690  29.091  32.408  11.616
61431W        W26691   9.998  26.771   3.201
61432W        W26692   2.734   5.370   2.764
61433W        W26693  37.806  42.312  12.983
61434W        W26694  13.033  18.137   1.179
61435W        W26695   8.462  36.344  12.094
61436W        W26696   4.744  44.790  11.976
61437W        W26697  28.621  27.485  11.366
61438W        W26698   4.973   0.247   0.265
61439W        W26699  18.999  20.621  13.501
61440W        W26700  13.218  41.041   1.338
61441W        W26701  32.415  29.949  13.460
61442W        W26702  20.409  32.981  13.539
61443W        W26703  20.744  38.986   3.490
61444W        W26704  31.840   4.694  11.946
61445W        W26705  33.975  15.272   0.462
61446W        W26706   0.495  35.965  13.797
61447W        W26707  11.142  12.443  13.050
61448W        W26708   2.507  28.914   2.182
61449W        W26709  33.914  28.536  13.849
61450W        W26710  34.503  14.499   0.126
61451W        W26711  33.452  40.146  11.642
61452W        W26712  40.652  23.986   4.724
61453W        W26713  34.914  23.197   5.025
61454W        W26714  19.066  26.962   3.707
61455W        W26715  27.447   3.477  10.431
61456W        W26716  10.604  35.468   0.728
61457W        W26717  34.905  19.792   1.325
61458W        W26718  32.625  40.885  14.142
61459W        W26719  28.139  44.834   4.768
61460W        W26720   5.190  14.125   2.236
61461W        W26721  41.626  24.317  13.436
61462W        W26722  29.548  12.955   3.123
61463W        W26723  43.505  25.514  10.870
61464W        W26724  39.383  44.575   0.004
61465W        W26725  21.258  20.963   4.546
61466W        W26726   1.004  44.064  14.037
61467W        W26727  43.149  22.252  11.261
61468W        W26728  21.740  12.995  14.396
61469W        W26729  26.527  26.110  13.280
61470W        W26730  17.162  42.454  12.862
61471W        W26731  18.374  32.458   0.321
61472W        W26732  37.134  43.854   2.723
61473W        W26733  31.498  14.866  13.488
61474W        W26734  37.779  10.796  11.486
61475W        W26735  37.566  15.586   9.663
61476W        W26736  36.864   5.926   4.332
61477W        W26737  43.368  35.838   2.227
61478W        W26738  33.589  18.191   1.865
61479W        W26739   6.280  13.748   1.663
61480W        W26740  19.929  35.575   2.700
61481W        W26741  29.491  11.229   2.101
61482W        W26742   5.853  34.869  11.038
61483W        W26743  31.426   4.300   2.813
61484W        W26744   4.668  34.942  11.579
61485W        W26745  11.213  12.679  14.340
61486W        W26746   9.461  29.640   4.685
61487W        W26747  32.272  40.019  14.053
61488W        W26748  18.136  30.148   4.176
61489W        W26749  18.839  17.987  12.914
61490W        W26750  39.957   4.915   4.741
61491W        W26751  20.686  22.734   0.398
61492W        W26752  18.596   2.814   2.468
61493W        W26753  36.547  15.360  13.480
61494W        W26754  39.542  10.860   1.716
61495W        W26755  14.201   0.161   2.779
61496W        W26756  32.112  10.915  13.581
61497W        W26757  18.964  30.112  14.544
61498W        W26758  36.148   9.062   5.065
61499W        W26759  25.429  17.589  14.233
61500W        W26760  17.801  40.461  12.842
61501W        W26761   6.362  38.030   0.024
61502W        W26762  36.562  21.963  12.985
61503W        W26763  26.694  16.995   4.083
61504W        W26764   9.883  10.308  12.004
61505W        W26765  13.982  35.167   1.509
61506W        W26766  31.697  20.678  12.588
61507W        W26767  42.808   7.892  12.069
61508W        W26768  16.304  40.870  12.476
61509W        W26769  40.984   4.844   4.721
61510W        W26770  30.735  25.695  13.407
61511W        W26771  33.692  22.177   4.904
61512W        W26772  27.445  11.700   2.958
61513W        W26773   0.958  18.513  10.799
61514W        W26774  24.008   5.542  10.341
61515W        W26775   9.025  25.246   2.311
61516W        W26776  41.527  39.526   1.719
61517W        W26777  29.244   1.968   4.787
61518W        W26778  23.429  40.975   2.004
61519W        W26779  28.960  13.652  11.609
61520W        W26780  26.727   0.298  12.948
61521W        W26781  20.053   0.471  12.939
61522W        W26782  28.685   4.852  10.387
61523W        W26783  13.885  36.926   2.223
61524W        W26784  10.127   1.459  14.428
61525W        W26785  20.721  24.519  14.512
61526W        W26786   7.681   0.462   0.483
61527W        W26787  36.397   2.889  14.457
61528W        W26788   6.760  44.934   2.762
61529W        W26789  17.075  22.790   0.199
61530W        W26790  35.029   5.287   4.421
61531W        W26791  40.148  40.403   2.794
61532W        W26792  22.668  23.549  10.287
61533W        W26793  37.940  26.923  13.789
61534W        W26794  29.698  13.900  13.829
61535W        W26795  19.144  38.325  11.456
61536W        W26796  35.364  41.811  13.541
61537W        W26797  27.461  42.476   4.910
61538W        W26798   1.454  17.349   3.441
61539W        W26799  28.216  31.956  11.064
61540W        W26800  38.340  25.201   4.665
61541W        W26801   5.724   5.972   2.416
61542W        W26802   0.263  41.045   2.305
61543W        W26803  15.531  24.972  14.019
61544W        W26804  27.546  21.500   4.460
61545W        W26805  30.948  20.029  13.627
61546W        W26806  36.210  33.349  14.967
61547W        W26807  21.637   3.374  11.416
61548W        W26808   6.551  20.970   1.316
61549W        W26809  23.953  37.738   2.658
61550W        W26810  22.236  35.994   1.821
61551W        W26811  40.342   3.531   3.847
61552W        W26812  33.415  35.528   0.935
61553W        W26813  11.005  13.141   1.918
61554W        W26814  39.163  36.753  11.943
61555W        W26815  27.082  36.313   0.994
61556W        W26816  21.382  20.657   3.546
61557W        W26817  10.096  30.578   1.597
61558W        W26818   3.488   5.184  12.397
61559W        W26819   3.842  26.488  11.124
61560W        W26820  20.966   9.107  12.618
61561W        W26821  42.045  26.571   3.193
61562W        W26822  26.963  29.148   1.333
61563W        W26823   3.461  29.706   2.784
61564W        W26824  23.077   8.837   2.132
61565W        W26825   3.549   0.753  14.446
61566W        W26826  23.392   7.429  11.159
61567W        W26827  18.089  29.116  12.566
61568W        W26828  28.681  38.172  11.922
61569W        W26829  13.760   2.771  11.688
61570W        W26830  36.415  26.378   0.408
61571W        W26831  39.025  18.767  14.080
61572W        W26832  14.525   3.732  10.468
61573W        W26833  11.151  26.737  13.863
61574W        W26834  40.234   8.628  10.360
61575W        W26835  42.277  34.468  11.162
61576W        W26836  33.597  16.583  13.441
61577W        W26837   0.474   2.323   2.422
61578W        W26838  43.095  25.243  11.410
61579W        W26839  20.703  12.596  15.000
61580W        W26840  25.159  14.799  14.333
61581W        W26841  11.406   9.890   3.227
61582W        W26842  39.654  25.964   2.509
61583W        W26843  38.051  11.343  10.600
61584W        W26844  23.754   9.137   9.899
61585W        W26845  34.919  21.248  14.294
61586W        W26846  14.996   8.044   5.452
61587W        W26847  15.080  40.096  14.493
61588W        W26848  17.644   0.784   0.260
61589W        W26849  20.692  15.399   1.286
61590W        W26850  32.571  29.138   4.094
61591W        W26851  10.737  10.746  13.634
61592W        W26852  30.961  34.238   2.883
61593W        W26853  15.562  17.783   4.197
61594W        W26854  17.587  35.191   2.794
61595W        W26855  25.238  15.239  11.105
61596W        W26856  39.570  15.673   3.726
61597W        W26857  33.712  20.938  11.093
61598W        W26858  38.409   7.829  10.447
61599W        W26859   5.308  40.922  13.512
61600W        W26860  17.833  28.162   2.748
61601W        W26861  27.178  19.655  11.931
61602W        W26862  19.277  17.331  11.639
61603W        W26863  21.049   7.445  10.344
61604W        W26864  33.423   6.325   2.617
61605W        W26865   0.247  18.274  14.364
61606W        W26866  21.127  41.868  11.162
61607W        W26867  18.970  22.938   2.671
61608W        W26868   2.353   6.385  14.345
61609W        W26869  30.403  43.228  11.950
61610W        W26870  27.923   6.336  10.635
61611W        W26871  22.504  37.117   0.026
61612W        W26872  20.124   8.865  10.569
61613W        W26873  41.230  31.078   0.914
61614W        W26874  12.888  17.542   4.614
61615W        W26875  20.099  25.623   0.270
61616W        W26876  12.770  13.340  12.405
61617W        W26877   4.510  43.279  14.284
61618W        W26878  16.493  37.560  13.014
61619W        W26879   9.172  12.444  13.758
61620W        W26880  33.822  34.416   1.907
61621W        W26881  24.841  32.294   1.926
61622W        W26882   6.188  34.977   0.975
61623W        W26883  40.625  43.995  11.614
61624W        W26884  36.567  23.147   0.312
61625W        W26885  44.052  24.741   1.921
61626W        W26886  24.152  16.140   3.607
61627W        W26887  37.643  38.387   0.478
61628W        W26888  33.025   5.885   0.042
61629W        W26889  12.587   0.442  11.191
61630W        W26890  40.959   1.213   4.939
61631W        W26891  30.609  29.135  13.963
61632W        W26892  15.119  12.687   0.975
61633W        W26893  24.538  39.576  14.957
61634W        W26894  39.858  29.694   2.596
61635W        W26895   1.303  15.796  14.959
61636W        W26896  31.729  25.565   3.056
61637W        W26897  39.122   0.513  11.154
61638W        W26898  35.902   0.663   1.741
61639W        W26899  17.660   4.204  10.988
61640W        W26900  42.060   8.741  10.700
61641W        W26901  38.880   5.467   4.908
61642W        W26902  31.149  32.488  12.125
61643W        W26903  15.266  19.218   1.314
61644W        W26904   0.425   3.247  11.561
61645W        W26905  41.687  41.805   0.399
61646W        W26906  27.885  20.204  12.417
61647W        W26907  24.535  37.123  14.831
61648W        W26908  32.897   2.681   0.300
61649W        W26909  19.725  44.051   3.625
61650W        W26910  15.691   2.827   4.620
61651W        W26911  35.521   5.967  13.290
61652W        W26912  26.511  21.671  14.196
61653W        W26913  23.378  11.803  12.556
61654W        W26914  12.897  37.075   2.532
61655W        W26915  43.036  14.798   3.698
61656W        W26916  30.920  43.810  12.647
61657W        W26917  31.121  24.113  13.441
61658W        W26918   4.410  15.631  11.239
61659W        W26919  37.950  13.339  14.878
61660W        W26920  29.076  42.895  11.463
61661W        W26921  40.956   1.909  11.039
61662W        W26922  10.033  35.355  14.920
61663W        W26923  31.922  17.118   0.317
61664W        W26924   4.935  33.811  11.190
61665W        W26925  42.896   4.812   5.005
61666W        W26926  19.350   8.681   3.236
61667W        W26927  27.187  18.097   1.735
61668W        W26928  12.785  30.506   1.222
61669W        W26929  14.686  31.620   2.050
61670W        W26930  24.262   7.890   1.137
61671W        W26931   2.236   2.416  14.258
61672W        W26932  33.594   6.533   1.337
61673W        W26933  40.395  27.925   0.853
61674W        W26934  21.230  29.123  14.833
61675W        W26935  23.549  28.629  12.692
61676W        W26936  39.828  12.636   3.617
61677W        W26937  27.744   2.288  11.059
61678W        W26938  16.075  16.238  12.798
61679W        W26939  16.743  14.543   1.321
61680W        W26940  31.813  12.962   1.847
61681W        W26941  15.152   3.044  12.405
61682W        W26942   6.238  27.742   1.361
61683W        W26943  29.047  34.374  14.917
61684W        W26944  28.005  34.616   2.312
61685W        W26945  39.581  31.690   0.841
61686W        W26946   0.372  23.194  14.707
61687W        W26947  26.260   2.311  11.965
61688W        W26948  35.935  36.338  10.489
61689W        W26949  41.836  29.990   3.696
61690W        W26950  15.969  37.966   4.580
61691W        W26951  11.516  37.384  14.743
61692W        W26952  34.027  13.504   1.162
61693W        W26953  26.234  30.282   3.356
61694W        W26954  32.069  15.068  13.983
61695W        W26955  26.823  12.886  10.300
61696W        W26956  18.684  11.406   1.787
61697W        W26957  41.300   3.374   1.190
61698W        W26958  37.275  17.255  12.502
61699W        W26959   1.413   2.227  11.519
61700W        W26960  24.349   2.908   3.711
61701W        W26961  26.940  43.790  12.201
61702W        W26962   1.326  24.054  10.797
61703W        W26963  31.106   9.320   4.240
61704W        W26964  35.295  35.931   0.859
61705W        W26965  10.613  24.084   3.558
61706W        W26966   8.695  43.726  13.898
61707W        W26967   1.807  21.216   4.506
61708W        W26968  35.388  37.387  14.873
61709W        W26969  43.343  41.645  12.647
61710W        W26970  44.000   5.419  14.085
61711W        W26971   2.873  44.497   3.665
61712W        W26972  40.081  33.108  13.460
61713W        W26973  18.316  27.603  10.817
61714W        W26974  39.016  25.593  12.319
61715W        W26975   1.181  16.859   1.123
61716W        W26976  36.799   9.866   1.864
61717W        W26977  26.645   0.032   0.223
61718W        W26978  41.297  39.516  11.397
61719W        W26979  26.951   3.160  14.329
61720W        W26980  32.919  36.599   2.006
61721W        W26981   0.453   0.715  12.585
61722W        W26982   8.318  13.113   0.451
61723W        W26983  34.532  38.007   4.305
61724W        W26984   9.675  31.320   4.229
61725W        W26985  40.103  40.399   4.518
61726W        W26986  27.734  33.329  12.912
61727W        W26987  21.413  40.019   2.210
61728W        W26988  39.220  31.299   3.659
61729W        W26989  23.904  24.699  12.466
61730W        W26990  19.175  16.114   4.531
61731W        W26991  27.146  40.889   3.074
61732W        W26992  39.509  16.616  14.824
61733W        W26993  37.452  22.837  13.930
61734W        W26994  21.650  25.738  12.938
61735W        W26995   4.907   0.447   3.940
61736W        W26996   4.410   2.382  13.000
61737W        W26997  28.119  11.202  14.264
61738W        W26998  21.360  44.282   5.040
61739W        W26999  11.470   2.882   4.114
61740W        W27000  35.247  11.335   1.723
61741W        W27001  28.437  17.188  10.232
61742W        W27002  13.616  19.844  14.418
61743W        W27003   5.261   2.205   1.339
61744W        W27004   2.482   1.874   2.331
61745W        W27005  30.443   6.925   4.136
61746W        W27006  23.684  25.630  11.657
61747W        W27007  39.319  23.945   2.223
61748W        W27008  17.583  41.853   4.987
61749W        W27009  14.618  18.452  10.581
61750W        W27010  20.284  24.068  11.490
61751W        W27011  20.003  24.605  13.923
61752W        W27012  37.511  42.521  14.869
61753W        W27013   0.235  16.507  12.029
61754W        W27014  30.160  17.619  12.033
61755W        W27015  28.351   3.223   3.341
61756W        W27016  24.729  43.169  12.471
61757W        W27017  10.116  39.493  11.648
61758W        W27018   9.477  29.993  10.700
61759W        W27019  34.454   1.888   4.639
61760W        W27020  14.668   3.977   0.937
61761W        W27021  18.065  27.061   0.743
61762W        W27022  40.930  33.995   2.216
61763W        W27023  26.758  41.134  13.831
61764W        W27024  17.348  38.441  10.651
61765W        W27025  23.065  37.398   4.048
61766W        W27026  15.157  19.618   2.524
61767W        W27027   5.352  34.943   2.862
61768W        W27028  41.798  38.954   0.258
61769W        W27029  41.747  20.712   1.153
61770W        W27030  34.477  32.542  11.564
61771W        W27031  11.267  32.151   1.452
61772W        W27032   3.192  23.617  12.384
61773W        W27033  27.965  15.540   2.894
61774W        W27034  27.664  10.883  10.940
61775W        W27035  10.429  36.018   2.345
61776W        W27036  40.509  34.866   2.858
61777W        W27037   0.588  34.586  12.950
61778W        W27038  32.070  16.479  11.883
61779W        W27039  10.755   2.781   3.241
61780W        W27040  38.084  14.240  11.410
61781W        W27041  32.872  32.251  12.128
61782W        W27042  42.567   3.018   4.561
61783W        W27043  38.813  12.664  13.764
61784W        W27044  25.620  22.383   2.760
61785W        W27045  20.165  21.438  14.565
61786W        W27046  38.818  36.012  14.955
61787W        W27047  18.229   6.925  12.418
61788W        W27048  24.568   6.412  13.028
61789W        W27049  18.685  23.816   4.298
61790W        W27050  29.592  20.499   3.971
61791W        W27051  21.875  26.006  11.996
61792W        W27052  41.131   5.787  13.642
61793W        W27053  44.612   9.666  11.961
61794W        W27054  24.868  17.708   3.996
61795W        W27055  37.506  44.444  11.375
61796W        W27056   1.034  30.489  11.163
61797W        W27057   3.660  20.630   1.671
61798W        W27058   1.462  41.360  13.371
61799W        W27059  33.995   5.881  13.164
61800W        W27060   2.831  24.053   4.524
61801W        W27061  14.486  40.874  12.049
61802W        W27062  25.264  29.978   0.672
61803W        W27063  23.148  21.500   3.877
61804W        W27064  26.679  24.959   3.080
61805W        W27065  42.367  21.222  12.152
61806W        W27066  30.621  26.226   0.627
61807W        W27067  32.349  25.694  12.599
61808W        W27068  42.448  44.391  14.493
61809W        W27069  29.693  20.655  11.669
61810W        W27070  23.072  21.172  13.709
61811W        W27071  19.603   7.849  11.178
61812W        W27072  36.897  37.376  10.946
61813W        W27073   4.760   5.677  14.009
61814W        W27074  33.169   1.944   2.340
61815W        W27075  41.455  39.589  12.641
61816W        W27076  21.762  44.483  13.364
61817W        W27077   7.630  12.136   2.837
61818W        W27078  21.998  30.398   3.242
61819W        W27079  21.099   9.035   4.182
61820W        W27080   9.836   4.721   1.297
61821W        W27081  15.992  31.618  11.934
61822W        W27082   1.476  32.204   1.781
61823W        W27083  30.130  35.163  13.564
61824W        W27084  29.933   3.270   4.675
61825W        W27085  12.594  32.278   3.315
61826W        W27086   8.898  33.008   3.773
61827W        W27087  44.351  26.567   0.871
61828W        W27088  26.691  33.502   2.878
61829W        W27089   8.169   4.182  13.407
61830W        W27090  16.033  38.331   4.946
61831W        W27091  13.289  14.198   5.036
61832W        W27092  35.078  11.547   0.861
61833W        W27093  34.056  12.422   3.775
61834W        W27094   9.189  10.301   1.009
61835W        W27095   6.569  26.067  12.452
61836W        W27096  23.203  36.920   0.010
61837W        W27097  32.923  21.151   3.687
61838W        W27098  10.757  10.793  13.117
61839W        W27099  39.056  31.495  12.943
61840W        W27100  38.014  41.371   4.414
61841W        W27101  21.664  10.562  13.920
61842W        W27102  22.278  10.899  14.433
61843W        W27103   9.559  38.379  12.445
61844W        W27104  25.520  34.638   4.645
61845W        W27105  34.086  25.131   0.210
61846W        W27106   9.279  19.785   4.968
61847W        W27107  43.975   0.098   2.339
61848W        W27108  16.171  35.392  13.026
61849W        W27109   5.418   3.005   4.213
61850W        W27110  41.989   3.648  12.147
61851W        W27111  16.606  35.758  12.412
61852W        W27112  43.724  40.923   1.791
61853W        W27113  42.405   5.766   0.300
61854W        W27114   9.595   7.777  14.951
61855W        W27115  29.974  30.358   4.107
61856W        W27116   1.653  14.690  11.717
61857W        W27117  12.813  37.484  14.419
61858W        W27118  34.673  33.947  13.866
61859W        W27119   8.735  32.871  10.409
61860W        W27120  22.785  20.075  14.484
61861W        W27121  27.002   8.386   3.816
61862W        W27122  29.194  21.643   2.378
61863W        W27123  41.028  26.543  13.489
61864W        W27124  33.056  20.581   0.890
61865W        W27125   5.728  29.905   4.208
61866W        W27126  22.272  16.345   2.322
61867W        W27127  21.823  13.804  13.994
61868W        W27128  40.048   5.886  11.988
61869W        W27129  33.381   2.016   0.322
61870W        W27130  23.097   8.897   2.688
61871W        W27131  20.466  32.934   3.093
61872W        W27132   1.797  22.773   3.063
61873W        W27133   8.141  17.338   3.152
61874W        W27134  21.494  28.072   0.275
61875W        W27135  20.965  16.635  13.824
61876W        W27136  22.142  24.294  13.732
61877W        W27137   3.526   1.961  14.842
61878W        W27138  28.839  20.564   1.253
61879W        W27139  21.758   4.089  13.880
61880W        W27140  18.721   8.440   5.154
61881W        W27141  23.498  19.102   0.342
61882W        W27142  14.336  27.499   2.266
61883W        W27143  13.149  24.510  14.277
61884W        W27144  23.995  30.474   0.297
61885W        W27145   7.201  33.420  10.718
61886W        W27146  32.569  15.612   2.188
61887W        W27147  37.098  34.389  14.514
61888W        W27148  39.487   2.721   2.611
61889W        W27149  29.351   4.491   5.003
61890W        W27150  31.084  34.566  12.911
61891W        W27151  29.152  29.890  12.357
61892W        W27152  44.223  17.139  12.445
61893W        W27153  22.481  17.585   2.740
61894W        W27154  37.562   0.365  11.625
61895W        W27155  22.527   8.827   4.630
61896W        W27156  21.185   7.380  12.132
61897W        W27157  22.781  17.494  11.099
61898W        W27158  30.619   9.209  12.684
61899W        W27159  37.062  19.380   4.731
61900W        W27160   6.364  32.403  14.054
61901W        W27161   9.183  20.548  11.628
61902W        W27162  35.535   4.384   2.380
61903W        W27163   9.454  24.949   5.334
61904W        W27164  44.016  33.523   0.906
61905W        W27165  12.032  40.215   1.277
61906W        W27166  23.020  42.015   1.682
61907W        W27167  11.812  25.761  13.077
61908W        W27168  25.553  14.093   4.038
61909W        W27169  27.473  31.608  12.148
61910W        W27170  39.203  42.782  10.814
61911W        W27171   8.388  21.413  11.076
61912W        W27172  22.497  16.713   0.745
61913W        W27173  38.253  44.958  14.704
61914W        W27174  42.925  17.234  14.282
61915W        W27175  35.859  36.135   3.627
61916W        W27176  41.812  15.762  11.601
61917W        W27177  43.586   4.263  14.328
61918W        W27178  31.025  22.230   1.128
61919W        W27179  29.528  24.248   3.587
61920W        W27180  41.648  41.904  11.802
61921W        W27181  38.762  33.900   0.337
61922W        W27182  44.958  23.589   2.081
61923W        W27183  40.362   0.709  12.080
61924W        W27184  14.280  13.658  12.948
61925W        W27185  35.402  42.554   1.264
61926W        W27186   7.770  22.484  14.520
61927W        W27187  25.215   1.668  11.561
61928W        W27188  39.509  33.425   1.796
61929W        W27189  29.845  13.329   0.320
61930W        W27190  34.195   5.319  11.384
61931W        W27191  37.732  15.301  10.089
61932W        W27192  23.012  42.584   2.553
61933W        W27193  24.643   6.178   1.834
61934W        W27194  11.156  33.636   2.578
61935W        W27195  24.071  36.349   3.608
61936W        W27196  35.265  43.861  11.664
61937W        W27197   9.620  34.586  12.054
61938W        W27198   9.600   4.536   2.493
61939W        W27199  22.465  32.666  14.395
61940W        W27200  32.634  43.936  11.496
61941W        W27201  36.778  26.679  11.095
61942W        W27202  42.351  33.608  11.435
61943W        W27203   9.587  32.523  10.562
61944W        W27204  27.613  16.785  14.010
61945W        W27205  40.366   5.514   1.070
61946W        W27206   4.890  33.798  10.249
61947W        W27207   3.416  23.510  12.838
61948W        W27208  38.689  36.162  10.361
61949W        W27209  26.188  36.757  11.502
61950W        W27210  27.014  41.328   0.073
61951W        W27211  32.197  38.439  12.631
61952W        W27212   9.941  25.398   3.575
61953W        W27213   2.233   8.430  14.395
61954W        W27214   9.798   4.116  13.960
61955W        W27215  21.525  30.193  14.759
61956W        W27216   1.716  18.651  14.686
61957W        W27217  22.575  41.451  11.231
61958W        W27218  19.301  23.474   3.786
61959W        W27219   5.859  20.302   1.905
61960W        W27220  13.459  22.775   3.586
61961W        W27221  23.885   9.517   1.188
61962W        W27222  24.544  29.656   2.942
61963W        W27223   8.411  28.190  13.883
61964W        W27224  38.429  10.161  14.933
61965W        W27225   7.406  24.106  10.788
61966W        W27226  25.637  22.900  12.072
61967W        W27227   5.313  14.820   0.108
61968W        W27228   5.532  34.672   2.116
61969W        W27229  28.326   7.461   0.292
61970W        W27230  29.120   6.239   4.481
61971W        W27231  19.327  41.460   3.777
61972W        W27232  25.544  30.975  10.438
61973W        W27233  11.242   0.270   2.895
61974W        W27234  31.182  26.598  13.239
61975W        W27235  44.335  10.426  10.684
61976W        W27236  22.991   1.497  13.990
61977W        W27237  36.550   0.252  13.010
61978W        W27238  43.081   9.435  12.935
61979W        W27239   4.158  10.538  11.464
61980W        W27240  31.103  42.554   2.483
61981W        W27241  22.940  18.979  13.905
61982W        W27242  11.706  33.283  11.499
61983W        W27243  33.143  32.674   0.735
61984W        W27244  23.023  32.402  10.422
61985W        W27245   3.885  22.123   2.584
61986W        W27246   3.304  10.650  10.941
61987W        W27247  41.532  40.426   0.491
61988W        W27248  10.222  39.492   3.849
61989W        W27249   8.981  26.523  14.409
61990W        W27250  18.134  16.816   2.920
61991W        W27251  24.117   2.395  13.265
61992W        W27252   6.017  33.514   0.607
61993W        W27253  44.779  42.840  12.776
61994W        W27254  20.518  27.980   0.016
61995W        W27255  23.606  34.323   0.704
61996W        W27256  19.999  32.487  14.547
61997W        W27257   9.102  15.109  13.287
61998W        W27258   5.931  42.873   0.296
61999W        W27259  30.925  16.010  14.452
62000W        W27260  32.410  19.968   1.016
62001W        W27261  17.061  16.707  12.894
62002W        W27262  40.856  17.602   4.048
62003W        W27263  29.687   1.880  12.170
62004W        W27264   6.406   3.385  13.529
62005W        W27265  44.433   2.600   1.743
62006W        W27266  22.828  28.890   4.900
62007W        W27267  42.164  30.930   3.747
62008W        W27268  35.126   2.329  14.507
62009W        W27269  21.844  24.193  12.948
62010W        W27270  29.460   5.564   0.225
62011W        W27271   8.809  21.979   0.704
62012W        W27272  32.561  36.379   1.661
62013W        W27273  30.043  18.673   2.842
62014W        W27274  13.095   0.079  14.150
62015W        W27275   1.510  11.824  11.579
62016W        W27276  41.102  23.729  10.644
62017W        W27277  38.191  34.629   2.171
62018W        W27278  38.315  25.968  11.447
62019W        W27279   7.273  42.195  14.815
62020W        W27280   7.885  38.224   2.500
62021W        W27281  17.300   0.063   3.714
62022W        W27282  11.216   4.591  11.066
62023W        W27283  30.499  21.873   2.646
62024W        W27284  42.561  11.488   3.626
62025W        W27285  21.448  23.765   4.989
62026W        W27286  41.475  25.676   3.598
62027W        W27287  32.592  42.383  12.514
62028W        W27288  40.223  15.073  14.950
62029W        W27289  12.253  25.545  12.913
62030W        W27290  27.660  29.455  12.914
62031W        W27291  25.538  28.005  12.278
62032W        W27292  41.327  40.962   3.332
62033W        W27293  14.849  31.465  14.017
62034W        W27294   4.598  44.046  14.750
62035W        W27295  27.769  41.984   4.162
62036W        W27296  43.738  33.986   0.873
62037W        W27297  44.563  34.015   1.253
62038W        W27298  17.271  12.676  13.956
62039W        W27299  42.461  31.531   0.861
62040W        W27300   6.636   1.592  11.364
62041W        W27301  32.546  44.225  11.910
62042W        W27302  25.002  25.480  11.077
62043W        W27303  37.917  37.808   1.638
62044W        W27304  10.931  39.852   3.885
62045W        W27305  12.098   4.809   4.589
62046W        W27306  17.558  26.202  14.721
62047W        W27307  38.880  21.574   3.674
62048W        W27308  17.600  44.959  12.378
62049W        W27309  20.285  25.509   3.329
62050W        W27310  23.362  25.179   2.281
62051W        W27311  39.776  14.171   3.563
62052W        W27312  27.436  31.998   2.607
62053W        W27313  31.897  10.234  14.033
62054W        W27314  27.074  28.913   1.843
62055W        W27315  33.975  35.964   0.493
62056W        W27316  17.832  20.639  14.837
62057W        W27317  38.121  42.396  13.365
62058W        W27318  27.447  26.065   3.457
62059W        W27319   5.484  29.430  14.828
62060W        W27320  27.040  31.416  11.929
62061W        W27321  40.506  41.227  12.989
62062W        W27322  43.372  30.682  11.949
62063W        W27323  38.848   4.899  14.924
62064W        W27324  26.445   4.998   1.254
62065W        W27325   4.479  26.051   0.843
62066W        W27326   1.699  27.767   1.781
62067W        W27327  24.651   8.898  13.487
62068W        W27328   7.398  29.820   3.297
62069W        W27329  35.127   4.858  12.406
62070W        W27330  19.906  27.171   0.874
62071W        W27331  22.493  24.439   1.689
62072W        W27332   2.526  23.652  14.406
62073W        W27333   4.769  16.006   2.842
62074W        W27334  28.921  18.270  14.417
62075W        W27335   5.408  25.961   3.725
62076W        W27336   2.028  34.431   1.659
62077W        W27337  40.468   7.474   0.782
62078W        W27338   9.168  21.350   3.204
62079W        W27339   5.798  19.803   1.977
62080W        W27340  33.081  13.608   4.636
62081W        W27341   3.701  13.866   2.025
62082W        W27342  33.370   7.779   2.008
62083W        W27343  10.277   3.772  10.597
62084W        W27344  10.731  43.944  12.019
62085W        W27345  22.730   7.899  13.835
62086W        W27346  39.947  36.971  10.627
62087W        W27347  13.195   4.670  14.383
62088W        W27348   9.179  34.367   1.296
62089W        W27349  16.658  40.536   1.733
62090W        W27350  27.683  16.827  12.382
62091W        W27351  39.323  21.191  10.070
62092W        W27352  38.324   3.309   4.516
62093W        W27353   5.674   7.204  12.027
62094W        W27354   4.445  19.809  11.955
62095W        W27355  35.941   9.219   4.614
62096W        W27356  27.896  12.895   5.019
62097W        W27357  22.642  30.897  11.655
62098W        W27358  22.816  15.002  12.181
62099W        W27359  23.611   4.474   3.199
62100W        W27360  10.201  42.201   2.005
62101W        W27361  18.106  16.323   4.818
62102W        W27362  25.409  11.933  14.818
62103W        W27363   4.824  22.305   2.267
62104W        W27364  10.306  29.080   2.641
62105W        W27365  14.535  27.978  11.095
62106W        W27366  16.536  21.236  13.605
62107W        W27367  27.256  32.731  11.571
62108W        W27368  35.179  16.811  11.499
62109W        W27369   0.029   0.359   3.687
62110W        W27370   4.414  43.245   0.792
62111W        W27371  34.103  25.965   3.091
62112W        W27372  37.641  41.122  11.206
62113W        W27373  22.374  39.035  11.467
62114W        W27374  22.120  25.149   0.043
62115W        W27375  33.115  35.755   4.687
62116W        W27376  27.240  35.543  10.637
62117W        W27377  16.592  43.792   1.834
62118W        W27378  18.202  36.695  11.842
62119W        W27379  40.346   5.782  11.464
62120W        W27380  10.089   0.820   1.230
62121W        W27381  26.526  11.316   1.305
62122W        W27382   8.897  12.097   2.366
62123W        W27383  31.452  14.185  10.710
62124W        W27384   0.390  37.287  13.830
62125W        W27385  35.480  11.251  10.762
62126W        W27386  26.038  32.349  10.421
62127W        W27387  27.471  35.578  12.385
62128W        W27388  29.973  10.096  13.507
62129W        W27389  44.983  34.613   2.690
62130W        W27390  30.928  32.628  13.144
62131W        W27391  22.990  19.253   3.393
62132W        W27392  30.721  39.941   0.784
62133W        W27393  12.415   5.818   3.168
62134W        W27394   3.727  13.333   2.078
62135W        W27395  32.241   5.985  13.747
62136W        W27396  28.600  26.379  13.096
62137W        W27397  38.140  20.768  13.993
62138W        W27398   7.064   8.373  12.444
62139W        W27399  40.250  43.283  12.969
62140W        W27400  39.034  37.531  12.330
62141W        W27401  33.573   9.852  14.007
62142W        W27402  13.258  37.945   1.969
62143W        W27403  28.158   3.948  12.519
62144W        W27404  30.021  42.743   2.888
62145W        W27405   9.189  13.201  13.404
62146W        W27406  12.216  35.929   3.842
62147W        W27407  18.455   6.910  13.556
62148W        W27408  25.971  14.082   0.028
62149W        W27409   9.201  28.688  11.169
62150W        W27410  41.329  22.702   3.573
62151W        W27411  17.954  25.355   0.705
62152W        W27412  19.695  31.141  13.959
62153W        W27413  37.578  17.157   0.498
62154W        W27414   3.563  19.606  11.189
62155W        W27415   2.283  24.674   2.733
62156W        W27416  42.241  43.926  14.802
62157W        W27417  21.797  16.759   1.500
62158W        W27418  13.507  14.839  12.531
62159W        W27419  23.523  43.076   0.906
62160W        W27420  32.094  35.204  14.717
62161W        W27421  28.621  32.590   0.687
62162W        W27422  11.319   4.682   2.695
62163W        W27423  17.013  42.817   2.419
62164W        W27424  24.217  30.006   3.115
62165W        W27425  29.636   4.796   2.148
62166W        W27426  30.874  22.839   3.226
62167W        W27427  25.997   8.615  11.129
62168W        W27428  36.185  29.740  11.211
62169W        W27429  11.734  15.018   3.915
62170W        W27430  26.799  27.163   0.608
62171W        W27431  41.257  11.324   1.418
62172W        W27432  10.370  19.474  11.542
62173W        W27433  42.715  44.980  11.710
62174W        W27434  30.983  19.607  10.237
62175W        W27435  40.447  10.340  11.221
62176W        W27436  30.167  39.882   2.317
62177W        W27437   6.403  27.480  14.985
62178W        W27438  30.333  19.700  10.723
62179W        W27439  39.817  20.969  12.573
62180W        W27440   2.976  35.310   1.744
62181W        W27441  24.694  18.219  13.035
62182W        W27442  28.454  15.504   2.204
62183W        W27443  17.019  34.240  12.981
62184W        W27444  41.974  28.254   5.024
62185W        W27445  39.561  16.766  10.884
62186W        W27446  42.013  42.411   1.011
62187W        W27447  39.576  32.017  13.772
62188W        W27448  27.926  34.560  13.449
62189W        W27449  15.755   9.132   1.745
62190W        W27450  22.755  25.752  10.676
62191W        W27451   3.426   3.485   4.515
62192W        W27452   6.415  28.461  13.071
62193W        W27453  11.902   0.529  10.635
62194W        W27454  36.917  35.352  11.200
62195W        W27455   8.826  21.854   2.355
62196W        W27456  15.007  33.999  14.445
62197W        W27457  38.966  22.090   4.879
62198W        W27458  40.020  15.701  10.719
62199W        W27459   2.847   5.630   2.297
62200W        W27460   7.921  43.536   1.452
62201W        W27461  27.496   2.329   2.120
62202W        W27462  34.717  29.997   0.315
62203W        W27463  39.341   5.754  12.839
62204W        W27464  29.652   6.917  11.326
62205W        W27465  27.943  34.819  11.543
62206W        W27466  30.267  13.465   1.148
62207W        W27467  34.101  32.740  11.253
62208W        W27468  12.691   6.824  12.985
62209W        W27469  28.088  32.644  14.037
62210W        W27470  36.190  33.695  12.885
62211W        W27471  29.538  25.058   3.204
62212W        W27472   6.797  42.000  14.836
62213W        W27473  23.207   2.516   3.282
62214W        W27474  23.009  40.396   1.490
62215W        W27475  14.566  30.675  14.472
62216W        W27476   4.554  34.446   2.295
62217W        W27477  43.894  40.410   1.884
62218W        W27478  43.769  17.128  13.502
62219W        W27479  30.940  30.002  14.402
62220W        W27480  21.607  16.014  13.893
62221W        W27481  12.356  39.523  10.724
62222W        W27482   3.298  41.657   3.758
62223W        W27483  40.044  40.810   1.000
62224W        W27484   6.697  26.152   1.843
62225W        W27485   3.444  38.953  14.250
62226W        W27486  36.826   5.568   0.933
62227W        W27487  36.431   1.955   0.430
62228W        W27488  22.811   0.911  11.249
62229W        W27489  34.207   2.908  10.195
62230W        W27490  27.197  34.796  11.153
62231W        W27491   7.382  24.243   1.593
62232W        W27492  33.682   5.366  11.186
62233W        W27493  28.664   6.260  14.192
62234W        W27494  21.741  37.115  11.617
62235W        W27495  22.989  38.398  14.841
62236W        W27496   6.847  32.466   4.104
62237W        W27497  11.309  20.748   3.610
62238W        W27498  29.663  12.850  14.942
62239W        W27499  44.791  28.374  14.831
62240W        W27500   0.298  36.314  14.860
62241W        W27501  33.214  28.584  12.759
62242W        W27502   8.338  18.329  13.449
62243W        W27503  28.264   5.989  14.407
62244W        W27504  23.991   9.418   5.547
62245W        W27505  25.590  16.100  14.765
62246W        W27506   5.263  36.235   3.110
62247W        W27507  20.805  30.704   2.637
62248W        W27508  25.126  14.440  10.179
62249W        W27509  40.912  19.177   2.952
62250W        W27510  44.086  39.547   0.792
62251W        W27511  26.005  21.740   0.463
62252W        W27512   7.767  18.043  10.669
62253W        W27513   7.952  10.379   2.310
62254W        W27514  26.761  32.424   4.649
62255W        W27515  42.702  26.585  14.384
62256W        W27516  24.438  31.903   1.211
62257W        W27517  15.856   1.969   4.731
62258W        W27518  30.117   6.795  11.189
62259W        W27519  37.598  32.897   1.071
62260W        W27520  18.339  32.827  12.531
62261W        W27521   3.406  22.746   2.536
62262W        W27522  13.673  30.482   4.350
62263W        W27523  37.540  41.502  10.840
62264W        W27524  31.981  13.134  12.222
62265W        W27525   1.935  16.565   1.666
62266W        W27526  35.022  32.805   4.179
62267W        W27527   3.901  37.518   1.214
62268W        W27528  44.452  22.883   9.866
62269W        W27529  35.436  17.805   3.769
62270W        W27530  40.434  26.452   4.813
62271W        W27531  40.463   0.020   4.625
62272W        W27532  34.066  37.414   3.849
62273W        W27533  42.748   8.311  13.468
62274W        W27534  26.184  13.834  10.950
62275W        W27535  18.745  14.536   3.125
62276W        W27536   5.895  29.984  10.658
62277W        W27537  11.342  32.589   4.140
62278W        W27538  15.992   4.322  14.968
62279W        W27539   3.445  34.117   3.770
62280W        W27540   3.890  35.885  10.710
62281W        W27541  31.271  39.322  14.810
62282W        W27542   0.779  22.033   0.629
62283W        W27543  15.283   3.377   2.273
62284W        W27544  43.980  42.984   1.727
62285W        W27545  10.808  36.803   0.085
62286W        W27546  13.750  20.254  11.076
62287W        W27547  16.555  15.575  11.561
62288W        W27548   2.882  20.295   0.353
62289W        W27549  31.289  22.371  14.378
62290W        W27550   4.221  18.616   3.831
62291W        W27551  27.455   6.396  11.567
62292W        W27552  16.267  33.675   4.568
62293W        W27553   2.385  40.258  13.989
62294W        W27554  23.701   0.838  10.693
62295W        W27555  15.800  10.498   1.756
62296W        W27556   4.297  21.906   2.886
62297W        W27557   0.151   2.773  14.702
62298W        W27558  30.540   3.171  13.893
62299W        W27559  41.432  22.777   4.595
62300W        W27560  27.088   6.467   0.619
62301W        W27561  10.623  17.461  12.538
62302W        W27562   9.737   0.985   2.184
62303W        W27563  40.898  31.000  10.459
62304W        W27564   0.426  36.313  11.984
62305W        W27565  15.617  26.549   3.480
62306W        W27566  37.440  13.727  13.990
62307W        W27567  36.251   6.742   0.749
62308W        W27568   9.903  37.941   4.175
62309W        W27569  43.928  36.965   4.517
62310W        W27570  40.869   7.028  13.735
62311W        W27571   2.788  40.812   4.113
62312W        W27572  25.658  44.748   3.584
62313W        W27573   7.773   5.625   1.683
62314W        W27574  41.586   3.969  11.593
62315W        W27575  34.574  32.502   2.805
62316W        W27576  13.547   0.714  14.494
62317W        W27577  19.790   3.206  11.972
62318W        W27578  36.354  40.397   3.146
62319W        W27579  29.469  17.659  14.513
62320W        W27580  35.984  13.304  12.115
62321W        W27581  36.819  18.676   4.702
62322W        W27582  25.030  24.180  12.676
62323W        W27583   3.262   6.588   0.986
62324W        W27584  15.399  34.943  14.352
62325W        W27585  36.220  15.078   2.008
62326W        W27586  22.978  25.704  12.378
62327W        W27587  27.142   0.698   3.586
62328W        W27588   1.407  23.282  13.812
62329W        W27589  20.526   8.985  12.135
62330W        W27590  11.889   1.779   3.027
62331W        W27591  27.891   0.792   4.953
62332W        W27592  11.313  23.198   1.761
62333W        W27593  32.488  10.971  14.884
62334W        W27594   6.661  20.595  14.049
62335W        W27595  19.744  19.070   4.027
62336W        W27596  41.779   1.739  12.491
62337W        W27597  14.898  25.079  14.992
62338W        W27598  28.546  11.543  12.480
62339W        W27599  42.649  22.403   3.718
62340W        W27600  14.610  21.034  11.454
62341W        W27601   1.069  33.102   0.844
62342W        W27602  32.449  21.748   0.471
62343W        W27603  41.945  28.183  10.712
62344W        W27604  13.936  42.256  12.105
62345W        W27605  14.166  14.868   3.085
62346W        W27606  27.887  16.363  13.344
62347W        W27607  25.568  21.066   2.222
62348W        W27608  43.768  30.501  14.591
62349W        W27609  17.150   5.230  10.302
62350W        W27610  35.299  24.412  13.365
62351W        W27611  34.877   9.362   1.196
62352W        W27612  40.710  13.688   3.730
62353W        W27613   2.336   5.340  10.855
62354W        W27614   0.657  27.271   4.436
62355W        W27615  37.869  16.016   2.902
62356W        W27616  19.821  26.224  12.839
62357W        W27617  18.358  13.311  14.364
62358W        W27618  22.584  25.193   5.398
62359W        W27619  38.291  33.109  12.385
62360W        W27620  27.035  38.466  10.982
62361W        W27621  11.617   8.047  14.105
62362W        W27622   6.269   2.915  13.343
62363W        W27623   7.386  29.881   3.825
62364W        W27624  19.520   7.305   3.220
62365W        W27625  20.816  41.937  10.743
62366W        W27626  38.482  21.051  11.464
62367W        W27627  25.593  32.143   2.149
62368W        W27628  24.094  31.975   3.863
62369W        W27629  12.144  33.019   1.433
62370W        W27630   8.393  39.378  14.021
62371W        W27631   2.358  23.437  10.296
62372W        W27632   2.959   0.795  14.470
62373W        W27633   5.216  27.573  11.606
62374W        W27634  41.916  29.024   0.886
62375W        W27635  14.366  18.541   2.322
62376W        W27636   3.511   5.907  12.609
62377W        W27637  10.659  21.250   3.134
62378W        W27638  42.633  12.888   5.131
62379W        W27639  25.242  23.713  12.577
62380W        W27640  10.858  10.568  14.090
62381W        W27641  12.342  41.710   0.521
62382W        W27642  34.130  33.251  11.153
62383W        W27643   2.355  37.013   1.242
62384W        W27644   1.408  17.103   1.904
62385W        W27645   7.220  37.042   3.151
62386W        W27646  32.910  22.117   2.324
62387W        W27647  28.740  15.850  14.840
62388W        W27648  43.566   7.847  13.164
62389W        W27649   5.501  13.944  13.447
62390W        W27650  12.310  29.957  14.902
62391W        W27651   4.758  41.007   4.488
62392W        W27652  11.043  27.228  13.744
62393W        W27653  27.127  12.085   0.078
62394W        W27654  35.361  26.903   1.777
62395W        W27655  43.967   4.087  13.980
62396W        W27656  24.400  31.491   1.930
62397W        W27657  14.486   4.605   4.589
62398W        W27658   5.181   3.157  11.063
62399W        W27659   5.570   1.072   1.307
62400W        W27660   8.842  28.654  12.505
62401W        W27661  36.525  15.105   0.123
62402W        W27662  32.551  44.838   0.214
62403W        W27663  20.809  41.621  12.265
62404W        W27664  29.219  32.516  12.126
62405W        W27665  24.108  39.862  14.937
62406W        W27666  37.287  35.559   4.131
62407W        W27667   5.521  37.878   2.242
62408W        W27668  26.888   9.388  13.954
62409W        W27669   9.242   9.416   2.893
62410W        W27670  17.181  31.987  10.233
62411W        W27671   3.294  21.278  14.726
62412W        W27672  12.796  12.085  11.907
62413W        W27673  17.341  43.789  13.464
62414W        W27674  26.243   4.917  11.089
62415W        W27675  28.880  39.380  13.707
62416W        W27676  34.023  11.541   4.250
62417W        W27677  33.005  18.631   2.426
62418W        W27678  33.050  30.672   1.256
62419W        W27679  43.453  30.044   4.570
62420W        W27680  30.843  24.454  13.921
62421W        W27681  22.062  34.934  13.934
62422W        W27682  23.200   8.933  12.247
62423W        W27683   6.515  30.656   2.206
62424W        W27684  26.138  40.360  14.801
62425W        W27685  27.017  23.088   3.604
62426W        W27686  29.469  42.797  11.132
62427W        W27687  22.541  24.704   3.134
62428W        W27688  21.762  21.028   0.908
62429W        W27689  42.372   9.729   3.777
62430W        W27690  21.688   1.698   2.351
62431W        W27691   5.191  13.860   1.214
62432W        W27692  35.916  38.860  12.949
62433W        W27693  22.267   4.039   3.139
62434W        W27694  24.032  24.576   0.769
62435W        W27695   5.803  37.085  13.020
62436W        W27696  14.833  28.915   0.919
62437W        W27697  28.434  42.053  13.874
62438W        W27698  15.111  25.130  12.052
62439W        W27699  25.719  21.104  12.052
62440W        W27700  43.429  25.607  14.862
62441W        W27701  25.518  41.538  14.785
62442W        W27702  33.902   0.381   3.282
62443W        W27703  15.819  28.366  13.393
62444W        W27704  37.496   3.748  11.768
62445W        W27705  19.115   0.562   4.751
62446W        W27706   3.722  30.090   3.917
62447W        W27707   8.937  27.638   2.868
62448W        W27708  42.932  16.858   0.406
62449W        W27709  16.632  20.811  13.924
62450W        W27710  24.591   9.006   4.617
62451W        W27711   2.584  29.020  12.073
62452W        W27712  36.474  26.153   4.569
62453W        W27713   4.807  36.047  11.247
62454W        W27714  31.903   0.456  10.754
62455W        W27715  35.931  22.276  11.630
62456W        W27716  10.227   8.610   0.574
62457W        W27717   0.540  33.409   2.999
62458W        W27718  34.962  13.414   4.072
62459W        W27719  43.166  39.586   3.687
62460W        W27720  43.728  13.403  12.111
62461W        W27721  35.015  15.214   1.446
62462W        W27722  42.971  11.709   0.231
62463W        W27723  41.992  27.733  13.977
62464W        W27724  12.340  11.593   4.125
62465W        W27725  19.795  37.363  13.010
62466W        W27726  15.183  18.096   3.556
62467W        W27727  26.619   2.235   1.702
62468W        W27728  10.226  20.060  10.959
62469W        W27729  42.053   9.273  10.658
62470W        W27730   2.438  14.585  11.076
62471W        W27731  41.019  19.635   0.467
62472W        W27732  26.177  27.534  11.521
62473W        W27733   8.867  21.171  12.012
62474W        W27734  42.544  26.636  11.510
62475W        W27735  10.709  40.327   4.101
62476W        W27736  29.085  13.809   0.441
62477W        W27737  20.336  34.285   2.625
62478W        W27738  41.744  44.852  10.523
62479W        W27739  22.865  31.442   0.483
62480W        W27740  21.492  11.637  14.886
62481W        W27741  30.340  25.149   9.889
62482W        W27742  15.608   9.365  12.513
62483W        W27743  41.350   2.696  13.352
62484W        W27744  24.990   5.958   1.446
62485W        W27745  40.562  39.965  11.468
62486W        W27746  11.107   2.652   2.286
62487W        W27747  42.666   2.345   3.987
62488W        W27748  17.098  25.749  11.483
62489W        W27749  24.945  35.855  14.089
62490W        W27750  43.314  40.067  11.019
62491W        W27751  10.922  42.716  12.926
62492W        W27752  35.442  23.027   3.562
62493W        W27753  14.166   8.625   2.042
62494W        W27754  39.523   6.668   1.256
62495W        W27755  30.615  12.158   2.501
62496W        W27756   5.120  43.263  14.342
62497W        W27757  17.031  26.011  12.077
62498W        W27758  37.535   7.715  13.402
62499W        W27759  17.046  38.525  12.982
62500W        W27760  22.202   6.981   0.512
62501W        W27761  30.435  22.093  14.297
62502W        W27762   5.744  29.399   4.178
62503W        W27763  21.624  41.982  11.210
62504W        W27764  29.147  15.136  14.315
62505W        W27765  42.266   1.678  14.054
62506W        W27766  15.212  43.591   4.036
62507W        W27767  16.616  29.044  13.504
62508W        W27768  36.318  25.804  12.472
62509W        W27769  36.475  25.480  13.075
62510W        W27770  29.100  23.080  14.806
62511W        W27771   1.852  16.619   0.267
62512W        W27772  27.723  28.985  14.863
62513W        W27773   9.246  17.601   1.460
62514W        W27774  21.054  11.781  12.108
62515W        W27775  22.283  24.449  12.917
62516W        W27776  17.667  12.511   4.068
62517W        W27777  29.150  37.478  11.772
62518W        W27778  42.807  16.607  13.293
62519W        W27779   5.476  19.470   1.754
62520W        W27780   1.176  13.714   3.912
62521W        W27781  15.102   3.623  11.569
62522W        W27782  25.425  10.178   3.626
62523W        W27783  29.466   2.854  11.162
62524W        W27784  44.771  13.903   1.394
62525W        W27785   0.671   8.564   5.317
62526W        W27786  22.659  11.667   1.767
62527W        W27787   3.546  15.108  10.966
62528W        W27788  27.354   3.473  11.656
62529W        W27789  19.163  21.241  14.911
62530W        W27790  40.417   0.360  13.070
62531W        W27791  19.442  23.500   0.143
62532W        W27792  15.261  23.235   4.886
62533W        W27793  38.477  18.805  13.074
62534W        W27794  35.885   3.778  14.225
62535W        W27795  17.782  39.926  12.510
62536W        W27796  35.658  15.537  11.296
62537W        W27797  17.640  18.443  13.039
62538W        W27798  40.500  31.068   2.771
62539W        W27799  10.853  25.770   3.554
62540W        W27800   1.074  34.409  14.407
62541W        W27801  37.781  13.672  10.781
62542W        W27802  43.272  39.423  12.561
62543W        W27803   3.277  34.827  10.889
62544W        W27804  29.080  10.269   0.465
62545W        W27805  27.079  10.207  11.131
62546W        W27806  31.347  40.122  11.859
62547W        W27807   2.788  31.533   4.749
62548W        W27808  41.254  10.089   4.180
62549W        W27809  33.123  28.697  13.286
62550W        W27810  23.541  23.803   1.868
62551W        W27811  44.081  31.611  12.567
62552W        W27812  17.831  22.352   0.383
62553W        W27813  41.839  23.996   0.728
62554W        W27814   3.929  25.030  10.453
62555W        W27815  19.925  38.535   3.293
62556W        W27816   9.737  24.105  13.040
62557W        W27817   4.227   1.246   3.184
62558W        W27818  31.763  22.781   0.435
62559W        W27819  21.274  22.811  13.790
62560W        W27820   4.891  21.792   0.148
62561W        W27821  22.194  25.571  11.995
62562W        W27822  36.843   9.160   4.696
62563W        W27823  41.390  36.909  12.511
62564W        W27824  31.595  14.882  14.276
62565W        W27825  29.039  43.675   2.392
62566W        W27826   6.168  25.588  11.456
62567W        W27827  23.471  27.893   4.085
62568W        W27828   2.334  41.708  12.862
62569W        W27829   8.209  28.445  13.034
62570W        W27830  16.204  25.614  14.332
62571W        W27831  17.684  18.253   3.875
62572W        W27832  21.832  15.610  14.102
62573W        W27833  23.145  22.970  12.871
62574W        W27834  31.869  41.862   1.354
62575W        W27835  18.538  40.995   3.407
62576W        W27836  39.819  41.263   4.589
62577W        W27837  17.942  33.529  11.562
62578W        W27838   1.314   7.343  14.465
62579W        W27839   4.223  27.578  10.756
62580W        W27840  18.947  26.212   5.011
62581W        W27841  24.188  42.457   4.186
62582W        W27842  40.299  20.181   4.366
62583W        W27843  23.512  25.708   0.803
62584W        W27844  40.347  13.064  10.701
62585W        W27845  15.039  30.292  12.027
62586W        W27846   1.234   1.937  12.329
62587W        W27847  42.408  36.072  12.565
62588W        W27848   9.666  42.884  12.031
62589W        W27849  33.405  12.850  11.271
62590W        W27850  30.055   5.457  13.980
62591W        W27851   0.275  15.900  10.738
62592W        W27852  30.013   5.354  12.030
62593W        W27853  26.766  15.128   3.365
62594W        W27854   6.295   9.064   3.109
62595W        W27855   8.674  13.031  13.378
62596W        W27856  24.893  36.839   2.798
62597W        W27857  35.142  25.393  13.853
62598W        W27858  16.665  40.807   2.207
62599W        W27859   4.845  41.556  12.394
62600W        W27860  22.134  39.991  11.121
62601W        W27861   9.150  36.408  11.034
62602W        W27862  21.151  15.478   3.300
62603W        W27863   3.519  21.403   4.196
62604W        W27864  11.670  13.511  11.453
62605W        W27865  26.928  28.795   0.004
62606W        W27866  32.457   2.412   0.244
62607W        W27867  27.201  18.497   1.291
62608W        W27868  16.399  20.186   3.073
62609W        W27869  29.703  29.992  10.881
62610W        W27870  42.994   3.792  12.019
62611W        W27871   1.353   1.027  12.439
62612W        W27872   7.218  29.121   0.769
62613W        W27873  15.800  30.470   3.286
62614W        W27874   9.666  34.935   3.246
62615W        W27875  22.521  18.551   0.786
62616W        W27876  39.545   3.177   4.189
62617W        W27877  33.753   9.702   1.625
62618W        W27878  43.640  22.090   1.726
62619W        W27879  25.996  42.071   0.448
62620W        W27880  22.503  21.572  12.505
62621W        W27881  31.725   9.708   0.815
62622W        W27882  13.190  24.141  10.664
62623W        W27883  10.589   0.545   9.887
62624W        W27884  28.988  29.896   1.469
62625W        W27885  30.531  10.390  13.895
62626W        W27886  42.522  37.491   4.606
62627W        W27887  29.429   7.938   3.258
62628W        W27888  27.653  25.511   3.662
62629W        W27889  32.488  44.812   0.742
62630W        W27890  29.601  23.601   2.628
62631W        W27891  29.151   2.495   1.133
62632W        W27892   4.237  42.308  14.811
62633W        W27893   2.232  12.571   3.691
62634W        W27894   9.907  24.985  13.788
62635W        W27895  18.279  37.427   1.017
62636W        W27896  35.620  19.746   1.806
62637W        W27897  18.134  31.612   4.522
62638W        W27898  18.534  12.863  11.673
62639W        W27899  26.969   4.595   0.395
62640W        W27900  31.976   8.492  10.718
62641W        W27901   6.762  39.157  13.972
62642W        W27902  26.173  25.895  10.552
62643W        W27903  23.075  26.589  13.871
62644W        W27904   9.355   5.187   2.694
62645W        W27905  38.246  32.449  11.895
62646W        W27906  15.327  18.299   0.193
62647W        W27907  32.100  44.261  14.619
62648W        W27908  43.167  12.124  14.954
62649W        W27909  41.353   0.758  12.814
62650W        W27910  13.709  39.248  10.729
62651W        W27911   6.227  32.431   1.823
62652W        W27912  39.032  21.141  12.978
62653W        W27913  33.895  31.940   0.892
62654W        W27914  35.936  33.353   4.987
62655W        W27915  18.538  28.917  14.892
62656W        W27916   8.792  38.377   3.312
62657W        W27917  22.568   0.715  14.974
62658W        W27918  34.149   5.286   1.372
62659W        W27919   4.124  31.940   3.202
62660W        W27920  23.226  29.418  14.817
62661W        W27921  16.284  27.291  13.967
62662W        W27922  30.672  44.851   3.693
62663W        W27923  21.405  23.200  11.223
62664W        W27924   1.869  43.820  10.753
62665W        W27925  21.727   1.659   4.571
62666W        W27926   9.589  31.796  12.487
62667W        W27927  36.940  38.657   0.655
62668W        W27928  33.769  29.051  11.819
62669W        W27929  32.617   1.321   3.135
62670W        W27930  30.484   8.944   0.845
62671W        W27931  43.874  19.280   1.621
62672W        W27932  24.577  28.690   0.400
62673W        W27933   5.403  10.242   0.222
62674W        W27934  38.342  44.540  14.998
62675W        W27935   3.234  17.042  11.161
62676W        W27936  24.137   7.408   2.155
62677W        W27937   9.452  15.109   2.799
62678W        W27938  37.670   1.013  13.967
62679W        W27939   2.429   1.063  11.976
62680W        W27940  26.034   9.427  14.059
62681W        W27941  33.515  40.231   4.358
62682W        W27942  22.778  32.592   3.105
62683W        W27943  10.226  10.861   2.876
62684W        W27944  16.409  43.551   0.642
62685W        W27945  18.008   2.341   1.435
62686W        W27946   8.837  38.094   2.853
62687W        W27947   1.908   5.107  13.049
62688W        W27948   8.361  28.630   3.303
62689W        W27949  32.890  39.613   2.395
62690W        W27950  19.199  30.624  13.010
62691W        W27951  15.111  44.923  13.482
62692W        W27952  28.142  32.505   0.901
62693W        W27953  12.529  13.385  14.693
62694W        W27954  31.695  27.101   2.349
62695W        W27955  31.706  43.099   2.825
62696W        W27956  34.984  41.788  11.217
62697W        W27957  32.484  33.837   3.466
62698W        W27958  37.271  32.905  12.840
62699W        W27959  11.287  24.929  11.672
62700W        W27960   4.955  26.584  10.433
62701W        W27961  13.628  40.371  14.945
62702W        W27962   1.790  33.929  13.572
62703W        W27963  22.543   3.643   1.856
62704W        W27964   6.336  42.909   0.940
62705W        W27965   8.662  25.134  13.256
62706W        W27966  32.708  35.597   2.622
62707W        W27967  15.226  13.241   4.402
62708W        W27968  25.698   9.450  12.677
62709W        W27969  43.419  33.954  11.429
62710W        W27970  39.394  23.656  11.278
62711W        W27971   7.323   7.870  13.099
62712W        W27972  44.854   5.283   4.200
62713W        W27973  37.944   4.965   4.815
62714W        W27974  30.126  39.761   2.839
62715W        W27975  34.629  20.865  12.057
62716W        W27976  29.337  37.803   4.040
62717W        W27977   6.225  24.563  11.469
62718W        W27978  21.155  14.055  14.782
62719W        W27979  44.475  21.686   2.746
62720W        W27980  23.659   4.209   3.663
62721W        W27981  31.597  16.148   4.628
62722W        W27982  37.788  35.607   4.148
62723W        W27983  44.249   0.563   2.386
62724W        W27984   4.356   7.367   1.314
62725W        W27985  29.624  10.635  14.783
62726W        W27986  38.977  40.691   2.277
62727W        W27987  20.306  37.346  13.033
62728W        W27988  20.096  23.341   1.944
62729W        W27989  36.100   9.639   4.344
62730W        W27990  27.438  12.769   3.865
62731W        W27991  11.723   3.690  10.922
62732W        W27992  16.124   7.784   2.683
62733W        W27993  41.357  35.051  12.000
62734W        W27994  42.639  32.633   1.189
62735W        W27995  44.240   0.205  14.941
62736W        W27996  26.958   7.703  10.262
62737W        W27997   6.322  39.630   1.191
62738W        W27998  19.608  33.633   0.418
62739W        W27999   2.467  41.468  13.294
62740W        W28000  36.089   9.724   1.415
62741W        W28001  13.479   8.444  14.044
62742W        W28002  20.104  38.817   2.455
62743W        W28003  33.136  14.280   2.374
62744W        W28004   1.808  11.211  10.661
62745W        W28005  37.500   5.317   3.782
62746W        W28006  38.556   4.864   3.197
62747W        W28007  34.314  18.662   1.755
62748W        W28008  22.590  25.269  10.548
62749W        W28009  25.253   1.388   0.874
62750W        W28010   7.620  23.070   1.259
62751W        W28011  34.832   0.826   1.891
62752W        W28012   4.739   1.060   3.745
62753W        W28013   3.797   1.773   0.386
62754W        W28014  30.481  24.947  12.954
62755W        W28015  23.274  37.349  12.607
62756W        W28016  32.038   0.858   2.351
62757W        W28017  37.807  20.472  13.524
62758W        W28018  33.456   9.721  12.029
62759W        W28019  11.890  13.049   2.486
62760W        W28020  25.969  24.711   1.388
62761W        W28021  26.128   5.228  12.595
62762W        W28022  38.831   2.710   0.995
62763W        W28023  35.897   7.941   1.319
62764W        W28024   1.313   1.960  14.534
62765W        W28025  41.980  28.787   1.421
62766W        W28026  33.123  31.901   4.140
62767W        W28027  39.617  43.394  11.003
62768W        W28028   0.821  23.412  14.588
62769W        W28029  42.992  18.894  13.394
62770W        W28030   1.317   3.321  13.896
62771W        W28031  28.769  33.924   0.957
62772W        W28032   0.356   9.619  11.515
62773W        W28033   7.872  23.308   3.406
62774W        W28034  16.235  12.147   1.184
62775W        W28035  17.845  38.346   0.726
62776W        W28036  27.576  40.638   3.005
62777W        W28037  21.834  42.354   0.057
62778W        W28038  26.775   1.020  14.465
62779W        W28039  42.410  29.696   2.688
62780W        W28040  25.564  39.551   3.741
62781W        W28041  39.512  10.251   5.012
62782W        W28042  15.787  12.981   5.026
62783W        W28043  10.810  26.472   1.327
62784W        W28044   3.946  14.239  14.965
62785W        W28045  12.401   1.954   3.929
62786W        W28046  44.992   8.166   9.849
62787W        W28047  39.591  23.737  14.747
62788W        W28048  21.276  41.466  12.426
62789W        W28049  12.265  40.434  12.044
62790W        W28050  16.062  10.111   1.541
62791W        W28051  27.608  23.955  10.652
62792W        W28052  39.832  30.408  14.451
62793W        W28053  22.688  21.582   3.141
62794W        W28054  38.376  44.177   4.095
62795W        W28055  22.043   0.922   2.097
62796W        W28056  38.219  17.750  14.356
62797W        W28057  21.211   9.303  14.346
62798W        W28058   7.302  40.213   4.837
62799W        W28059  37.708   4.281  11.107
62800W        W28060  38.714  38.294  14.611
62801W        W28061  26.654  37.571   2.847
62802W        W28062  14.852   2.029  13.473
62803W        W28063  15.184  38.128  12.804
62804W        W28064  24.517  15.312  10.641
62805W        W28065  26.123   8.698   4.626
62806W        W28066  24.735   8.947  11.001
62807W        W28067   6.827   8.708  13.058
62808W        W28068  36.458  15.611   1.786
62809W        W28069   4.749  38.063  13.677
62810W        W28070  40.367  10.527   5.199
62811W        W28071  28.029  39.565   1.803
62812W        W28072  13.291  20.660  11.566
62813W        W28073   0.434  28.236   3.823
62814W        W28074  40.725  44.445  11.333
62815W        W28075  30.604  38.972  13.869
62816W        W28076   3.808  26.207   0.892
62817W        W28077  22.882  12.575  11.317
62818W        W28078  42.559  11.562   2.828
62819W        W28079  31.504  18.207   4.376
62820W        W28080  44.465  43.800   3.406
62821W        W28081  23.477   8.694   0.881
62822W        W28082   0.500  15.824  13.857
62823W        W28083   2.253  21.293  10.806
62824W        W28084   3.488  36.600  11.117
62825W        W28085   0.561   6.699  12.052
62826W        W28086  27.277   4.587   5.776
62827W        W28087  37.448  25.510  12.337
62828W        W28088  41.743  37.979   0.545
62829W        W28089   3.672   0.472   3.149
62830W        W28090  12.320   3.611   4.098
62831W        W28091  10.881  32.905   4.161
62832W        W28092   3.900  38.508   3.668
62833W        W28093  38.543   2.967   2.263
62834W        W28094  17.835  25.227  13.592
62835W        W28095   5.860  26.476   0.357
62836W        W28096  28.597  37.347   0.013
62837W        W28097  29.578   6.133  14.344
62838W        W28098  11.929   6.335  13.892
62839W        W28099  19.517   8.079  12.418
62840W        W28100  27.846   5.177  13.334
62841W        W28101  12.823  33.108   3.452
62842W        W28102  21.021  25.548   4.116
62843W        W28103   2.263   4.510   2.864
62844W        W28104  13.200   9.283  11.158
62845W        W28105  10.364  41.944   4.715
62846W        W28106  32.526  32.043  14.242
62847W        W28107  37.422  31.610  13.321
62848W        W28108   6.561   0.714  13.041
62849W        W28109  14.418  22.111   1.342
62850W        W28110   9.757  35.914  10.488
62851W        W28111  28.678   5.806  13.939
62852W        W28112   0.958  35.828   2.267
62853W        W28113  22.987   2.768  12.916
62854W        W28114  41.173  11.817   3.297
62855W        W28115  29.495  39.837   1.406
62856W        W28116  18.824   7.284  13.493
62857W        W28117  40.391  16.802  11.098
62858W        W28118  14.850  39.211   0.360
62859W        W28119  39.846  15.017   4.206
62860W        W28120  26.809  37.503  10.986
62861W        W28121   3.383  28.624   1.267
62862W        W28122  24.564   9.119   0.911
62863W        W28123  27.671  16.962  11.069
62864W        W28124  21.264  37.333   2.543
62865W        W28125  19.776  16.232  13.495
62866W        W28126  22.619  42.755  12.990
62867W        W28127  24.170  11.154   0.297
62868W        W28128  15.371  20.580   0.877
62869W        W28129   4.115   2.196   4.458
62870W        W28130  43.970  34.325   4.301
62871W        W28131  32.098  38.572  13.859
62872W        W28132  38.545  16.255  13.326
62873W        W28133  36.397  14.721  10.767
62874W        W28134  30.715  18.208   1.683
62875W        W28135   0.185  22.661   4.451
62876W        W28136  42.551  43.560  14.109
62877W        W28137  18.037  33.962  12.739
62878W        W28138  39.350  13.849  12.919
62879W        W28139  24.161   0.747  14.322
62880W        W28140   1.136  37.013  10.997
62881W        W28141  13.751   2.404   1.000
62882W        W28142  23.517  21.774   3.049
62883W        W28143  40.369  25.447   4.401
62884W        W28144  33.115  27.402   1.340
62885W        W28145  27.550  39.121  12.048
62886W        W28146  25.015  13.155  13.843
62887W        W28147  35.028  30.437   1.729
62888W        W28148   2.818  24.241   0.268
62889W        W28149  40.011  25.011   0.874
62890W        W28150   1.033  26.586  13.986
62891W        W28151  42.823  39.268   0.428
62892W        W28152  22.742  38.983   1.164
62893W        W28153  35.904  14.110   3.915
62894W        W28154   8.799  13.835   3.860
62895W        W28155  36.856  33.402  13.443
62896W        W28156  37.195  37.809  10.893
62897W        W28157  43.219  35.513   1.440
62898W        W28158  26.708  38.604   2.791
62899W        W28159  14.546  44.620  14.368
62900W        W28160  35.298  31.181   4.602
62901W        W28161  19.723  20.318  13.920
62902W        W28162   1.372  43.757   4.879
62903W        W28163  20.397  17.489   3.937
62904W        W28164  23.683  20.325   3.861
62905W        W28165   0.575  31.059  14.386
62906W        W28166  21.038   4.948   5.038
62907W        W28167  41.381  31.940   1.462
62908W        W28168  43.495  44.591  14.970
62909W        W28169  38.931  26.360   0.279
62910W        W28170  33.289  19.556  12.822
62911W        W28171  43.302   7.442   4.975
62912W        W28172   7.443  29.442  13.022
62913W        W28173  16.077  22.626  13.542
62914W        W28174   4.259   4.616  10.668
62915W        W28175  21.575  19.805   5.019
62916W        W28176  11.862  42.992   4.516
62917W        W28177  24.097  33.044   2.785
62918W        W28178  27.684  42.953   1.377
62919W        W28179  42.271   1.288  11.005
62920W        W28180  37.622  25.663  11.870
62921W        W28181  31.170  20.798  11.623
62922W        W28182  35.811  40.882  11.466
62923W        W28183  28.879  16.142  11.556
62924W        W28184  12.276  31.990   1.664
62925W        W28185   2.395  10.632   4.646
62926W        W28186  36.881   3.131  12.378
62927W        W28187   1.947  28.752   1.327
62928W        W28188  37.618  33.136  14.469
62929W        W28189  32.959  30.331  14.467
62930W        W28190  44.768  12.168  11.570
62931W        W28191  12.340  31.531   4.883
62932W        W28192   2.817  43.910   0.829
62933W        W28193  36.678  23.229  14.388
62934W        W28194  14.359  42.983   4.613
62935W        W28195  37.829  18.737   4.930
62936W        W28196  27.463  43.582   3.040
62937W        W28197   8.174  29.771  11.140
62938W        W28198   4.883  10.154  12.088
62939W        W28199  21.318  25.231   4.992
62940W        W28200  13.261  42.339  12.338
62941W        W28201   8.088  36.600  14.073
62942W        W28202  17.134  17.579   0.538
62943W        W28203  20.566  25.820  11.124
62944W        W28204   1.313  21.090  12.548
62945W        W28205  42.326  16.119   3.436
62946W        W28206  24.322  38.561  10.679
62947W        W28207  11.530  14.510  13.621
62948W        W28208  38.867  10.404   2.826
62949W        W28209   2.911  16.245   4.943
62950W        W28210  17.612  35.094   1.918
62951W        W28211   7.928  34.656   3.221
62952W        W28212  27.899  19.222  11.936
62953W        W28213  11.386  42.574   4.106
62954W        W28214  43.427   2.342   3.363
62955W        W28215  12.267  14.779   1.946
62956W        W28216  29.569  19.051  13.495
62957W        W28217   8.800  18.256  10.558
62958W        W28218  30.953  22.039  14.180
62959W        W28219  26.606  19.092   1.056
62960W        W28220   8.859  33.774  12.111
62961W        W28221   0.694  10.213  11.125
62962W        W28222  22.662  15.248   0.848
62963W        W28223  37.651  18.024  14.321
62964W        W28224  26.537   8.358   0.290
62965W        W28225  11.593  30.628  13.824
62966W        W28226  32.663  26.262   0.252
62967W        W28227  11.659  22.104   4.638
62968W        W28228   8.979  32.441  12.628
62969W        W28229   5.098  30.113  11.073
62970W        W28230  12.389  30.798   2.432
62971W        W28231  19.736  36.910  14.922
62972W        W28232  41.528  32.237  10.710
62973W        W28233   0.904  43.193   3.642
62974W        W28234  35.033  38.048   1.929
62975W        W28235   2.535  12.183  12.960
62976W        W28236   1.849   8.145  10.744
62977W        W28237  26.128  13.755  11.452
62978W        W28238  44.807  37.270  11.086
62979W        W28239  35.447  24.752   5.502
62980W        W28240  15.075  37.983  13.698
62981W        W28241  36.271  22.668   1.303
62982W        W28242  13.587  39.266   1.111
62983W        W28243   4.141  44.853  13.921
62984W        W28244  25.471  29.049  11.615
62985W        W28245   0.864   2.384  12.820
62986W        W28246  40.975  36.175  14.904
62987W        W28247  18.648  30.152   2.347
62988W        W28248  38.889  30.482  10.178
62989W        W28249  20.313  29.317  10.305
62990W        W28250  24.884  15.047   1.024
62991W        W28251  40.522  44.758  13.047
62992W        W28252  10.367  42.299   3.239
62993W        W28253   3.094   4.273   2.331
62994W        W28254   5.438  11.728  12.634
62995W        W28255  24.668  34.030   3.748
62996W        W28256  32.371   9.633   0.461
62997W        W28257  17.797   9.766   1.825
62998W        W28258  15.338  24.235   1.858
62999W        W28259   4.984   5.444  11.371
63000W        W28260  29.543  20.208   1.428
63001W        W28261   0.849  26.888   4.120
63002W        W28262  27.036   0.920   0.648
63003W        W28263  23.929  29.631   1.352
63004W        W28264  33.286  15.170  13.049
63005W        W28265  21.241  19.664   2.119
63006W        W28266  22.838   9.814   4.555
63007W        W28267  14.199  15.545   1.240
63008W        W28268  15.630  15.807  13.399
63009W        W28269   9.795   0.882   0.807
63010W        W28270  30.566  41.930   4.298
63011W        W28271   4.695  15.772  10.764
63012W        W28272  10.952  24.732   0.000
63013W        W28273  13.827  31.866  14.335
63014W        W28274   3.387  10.368   2.754
63015W        W28275  38.000  35.096  13.993
63016W        W28276   4.207  42.863   3.817
63017W        W28277  32.381  39.297  12.047
63018W        W28278  24.106  23.630  11.314
63019W        W28279  29.611  40.340  12.766
63020W        W28280  22.629  27.024   3.816
63021W        W28281  37.753  19.570  11.332
63022W        W28282  26.039  32.756   1.025
63023W        W28283   3.470  27.650  11.210
63024W        W28284  12.567  21.624  10.891
63025W        W28285   9.681  43.474   1.539
63026W        W28286  36.082   9.586  13.591
63027W        W28287  27.202  17.628  12.080
63028W        W28288  39.963  43.376  10.616
63029W        W28289  37.829  17.623   4.473
63030W        W28290  39.354  21.327   0.960
63031W        W28291   4.109   5.488   2.737
63032W        W28292   0.236   1.015  10.892
63033W        W28293  23.440  14.384  11.216
63034W        W28294  25.908  11.570  11.930
63035W        W28295  14.752  23.600   2.431
63036W        W28296   2.406  26.633   0.245
63037W        W28297  13.650  26.975  11.330
63038W        W28298  28.708  17.641  10.303
63039W        W28299  38.610  14.286   4.139
63040W        W28300  41.441   4.599  12.535
63041W        W28301  11.608  22.513   2.444
63042W        W28302  24.700  31.851   2.152
63043W        W28303  11.073  28.954  13.969
63044W        W28304  31.005  32.027  14.903
63045W        W28305  13.467  38.872  12.076
63046W        W28306  44.746  43.968   2.132
63047W        W28307  27.376  23.077  14.532
63048W        W28308  18.231   7.466   3.726
63049W        W28309   8.613  36.887   3.300
63050W        W28310   3.500  39.667   1.813
63051W        W28311  34.528  16.660   1.012
63052W        W28312  36.972   9.319   3.675
63053W        W28313  27.477   9.394  12.058
63054W        W28314  30.786  40.552  14.223
63055W        W28315   2.118  39.569   4.071
63056W        W28316  35.619  25.137  14.010
63057W        W28317  37.625  10.786  13.354
63058W        W28318   3.870   5.227   0.031
63059W        W28319  25.211  30.950  14.382
63060W        W28320  37.349  20.526  14.312
63061W        W28321  33.746   0.708   3.636
63062W        W28322  32.868  34.407   2.820
63063W        W28323  25.900  26.068   3.762
63064W        W28324  16.305   0.412  11.129
63065W        W28325  22.795  14.217   3.695
63066W        W28326  13.796   9.776  12.899
63067W        W28327   4.048  31.157   2.486
63068W        W28328  38.018  34.754   2.645
63069W        W28329  41.694  44.645   1.793
63070W        W28330   9.860   5.917  12.951
63071W        W28331  41.736  26.904   3.476
63072W        W28332  25.567  15.639   9.661
63073W        W28333   2.333  38.114   0.017
63074W        W28334  19.059  42.307  13.824
63075W        W28335  29.946  22.578   0.860
63076W        W28336  14.246  20.020  11.969
63077W        W28337  33.646  30.136  11.975
63078W        W28338   1.649  24.074   2.660
63079W        W28339  44.403  17.451   1.795
63080W        W28340   7.097   6.833   2.774
63081W        W28341  40.363  14.240   3.195
63082W        W28342  27.473  23.979  13.514
63083W        W28343  24.083  42.258   0.960
63084W        W28344  24.588  17.757   2.438
63085W        W28345  25.647  39.104   4.769
63086W        W28346  32.607  28.552   2.258
63087W        W28347  41.548  21.552   1.222
63088W        W28348  31.121  37.638   4.165
63089W        W28349   8.101  42.937   3.212
63090W        W28350   1.152  41.681   5.006
63091W        W28351  26.414  25.031   1.406
63092W        W28352  21.295   7.789  10.642
63093W        W28353  27.736  33.107   3.611
63094W        W28354  33.654   8.418  13.426
63095W        W28355  31.814   9.389  13.411
63096W        W28356  12.051  24.975   3.268
63097W        W28357  33.005  23.135   1.910
63098W        W28358  28.100   5.219  12.897
63099W        W28359   2.923  44.268  14.993
63100W        W28360   7.700  20.727  13.939
63101W        W28361  29.157  37.528   3.170
63102W        W28362  24.619  21.022   3.278
63103W        W28363   0.390   2.182   0.882
63104W        W28364   0.776  16.739   2.393
63105W        W28365  37.281  43.882  12.153
63106W        W28366  13.755  41.726   3.426
63107W        W28367   3.790  27.754  13.576
63108W        W28368  14.272  30.483   0.439
63109W        W28369   7.871  31.606  12.186
63110W        W28370  44.919  31.327   3.781
63111W        W28371  14.029  44.911   4.564
63112W        W28372   4.280  20.700   0.824
63113W        W28373  28.566  22.127   4.068
63114W        W28374  38.961  15.185   2.070
63115W        W28375  19.737  43.312  10.656
63116W        W28376  35.946  35.435   1.818
63117W        W28377  42.177   8.342  13.434
63118W        W28378  38.523  39.544   0.350
63119W        W28379   1.261  17.572   4.469
63120W        W28380  32.475   5.373   4.571
63121W        W28381   3.880  39.889  13.407
63122W        W28382  11.381  42.929   0.890
63123W        W28383  20.546  34.968  10.699
63124W        W28384  30.744  27.213  11.487
63125W        W28385   0.953  23.138   0.029
63126W        W28386   9.035  44.479  13.363
63127W        W28387  13.136  11.887   4.574
63128W        W28388  42.557   3.686  11.617
63129W        W28389  42.721  40.707   2.357
63130W        W28390   8.206  20.217   3.612
63131W        W28391  29.887   8.915   4.120
63132W        W28392  34.542  14.075  13.485
63133W        W28393  21.991  36.445   1.699
63134W        W28394  18.066  14.677  12.082
63135W        W28395  28.545  38.439   4.311
63136W        W28396   4.348   9.410   0.363
63137W        W28397  29.203  22.535   1.363
63138W        W28398  31.220  22.415  10.344
63139W        W28399  25.472   9.122   3.797
63140W        W28400  32.090  39.357  12.465
63141W        W28401  22.481  43.296  11.234
63142W        W28402  43.600  23.741  10.535
63143W        W28403  42.353  32.411  13.197
63144W        W28404  21.592   6.348   2.229
63145W        W28405  30.495  12.031   3.953
63146W        W28406  30.399  16.815  12.561
63147W        W28407  30.470  10.818   1.228
63148W        W28408  20.158  27.587   1.010
63149W        W28409   8.051  31.169  13.780
63150W        W28410   3.811   2.872  10.577
63151W        W28411  24.214  12.760   3.387
63152W        W28412  21.495  20.060   2.339
63153W        W28413  18.248  17.073   2.491
63154W        W28414  24.388  19.146  12.561
63155W        W28415   1.114  19.278  14.080
63156W        W28416   0.754   9.309  11.612
63157W        W28417   4.610  11.664   4.136
63158W        W28418  18.235  17.579  12.890
63159W        W28419  17.727  34.377  13.322
63160W        W28420  33.563  21.755  10.758
63161W        W28421  37.382  15.765   0.315
63162W        W28422  14.645  41.861   2.630
63163W        W28423  41.676  40.380  10.895
63164W        W28424  39.559  22.199   2.657
63165W        W28425  32.931  22.993  13.264
63166W        W28426  31.567   3.152   3.115
63167W        W28427  32.442  22.596  11.610
63168W        W28428  21.809  28.793  12.421
63169W        W28429  33.568  26.676   0.898
63170W        W28430   2.822   8.305   4.697
63171W        W28431  37.762   5.989  11.179
63172W        W28432   1.404  44.818   0.043
63173W        W28433  39.266  20.638  11.999
63174W        W28434  27.927   7.650   4.304
63175W        W28435  17.875  30.545  10.724
63176W        W28436  39.015  20.053   4.607
63177W        W28437   9.376  30.526  10.680
63178W        W28438   0.937  27.992  11.536
63179W        W28439   6.174  23.197   0.845
63180W        W28440  42.875  35.597  14.498
63181W        W28441   6.227   7.138  11.882
63182W        W28442  18.547  15.839  12.722
63183W        W28443  31.018  16.090   0.877
63184W        W28444  38.279  42.016  14.927
63185W        W28445   9.722  24.761   0.425
63186W        W28446  44.398   5.123  12.103
63187W        W28447  43.441  31.123  11.320
63188W        W28448   0.359  29.595  13.494
63189W        W28449  32.897  11.585   4.566
63190W        W28450  43.546  37.605   4.367
63191W        W28451  38.111  27.715  14.523
63192W        W28452   5.907  31.365   3.268
63193W        W28453  38.893   7.773  14.095
63194W        W28454  20.688   7.337   0.892
63195W        W28455  34.696  22.412   3.726
63196W        W28456  16.979  44.975   4.161
63197W        W28457  24.696   2.485   2.185
63198W        W28458   1.416  42.556  12.113
63199W        W28459  38.724  22.722   1.718
63200W        W28460  10.655  14.857  13.243
63201W        W28461  17.967  34.335  14.899
63202W        W28462  15.126  39.838   2.854
63203W        W28463  32.613  24.495  11.199
63204W        W28464  18.006  21.813   4.662
63205W        W28465   1.538   9.737  11.585
63206W        W28466  13.658  23.944   1.394
63207W        W28467   1.014  24.449  13.327
63208W        W28468  42.872   3.335  11.805
63209W        W28469   3.305  35.302   4.384
63210W        W28470  10.600  38.458   2.527
63211W        W28471  31.674  39.516  11.537
63212W        W28472  43.097   6.791   2.872
63213W        W28473  17.599  14.810  12.329
63214W        W28474  28.503  23.643  11.086
63215W        W28475   4.210  33.322  12.471
63216W        W28476  19.460   9.149   3.833
63217W        W28477   0.938   9.028  14.732
63218W        W28478   6.777   7.414   0.960
63219W        W28479  28.888   6.586   3.626
63220W        W28480   5.570  39.438  11.495
63221W        W28481  26.533  14.735   2.709
63222W        W28482  41.010   7.855   0.413
63223W        W28483  26.058  23.047  13.897
63224W        W28484  18.218  14.315  13.377
63225W        W28485  24.659   6.848  14.328
63226W        W28486  21.230  19.085   5.174
63227W        W28487  30.569  34.048   2.227
63228W        W28488  33.009  38.570   2.436
63229W        W28489   3.307  41.372  12.834
63230W        W28490  14.265  27.402  14.895
63231W        W28491  11.880   4.889  12.053
63232W        W28492  32.434   4.160  12.199
63233W        W28493  16.480  30.593   4.581
63234W        W28494   8.262  12.268   3.166
63235W        W28495  42.975  10.673  11.079
63236W        W28496   9.719  28.041  13.467
63237W        W28497  40.635   5.952   4.178
63238W        W28498  17.320  18.253  13.799
63239W        W28499   5.347  32.645   3.425
63240W        W28500  20.792   1.522  14.709
63241W        W28501  19.342  23.086  13.494
63242W        W28502   7.848   5.594  13.864
63243W        W28503  18.173   6.486   2.616
63244W        W28504  27.752  25.525   1.237
63245W        W28505   0.817  40.516   5.011
63246W        W28506   1.076  36.522  12.590
63247W        W28507  41.502  20.715   3.209
63248W        W28508  16.314  18.830   1.937
63249W        W28509  30.166  33.466   4.277
63250W        W28510   9.478  13.682  10.602
63251W        W28511  40.251   4.860  14.437
63252W        W28512  43.523   2.634   2.771
63253W        W28513  17.999  40.731  14.040
63254W        W28514  30.045  15.000   2.505
63255W        W28515  41.912  17.415   4.970
63256W        W28516  43.057  12.286  13.598
63257W        W28517   8.357   4.227   3.127
63258W        W28518  43.374   8.175   2.818
63259W        W28519  32.328  25.099  12.013
63260W        W28520  42.075  14.806  14.983
63261W        W28521  42.566  44.403   2.690
63262W        W28522  32.120  30.241   1.916
63263W        W28523  25.304   4.189   4.103
63264W        W28524   5.324  29.111  10.743
63265W        W28525  24.131  36.715  10.374
63266W        W28526  44.642  31.914   4.952
63267W        W28527   3.101  28.160  12.052
63268W        W28528  16.612  18.922   0.090
63269W        W28529  32.973   0.692   4.455
63270W        W28530   4.513   3.884  11.231
63271W        W28531  28.227  44.374   2.604
63272W        W28532  15.816   8.697  14.897
63273W        W28533  32.440  28.954  11.612
63274W        W28534  13.694  39.304  13.308
63275W        W28535  36.044  43.395  12.559
63276W        W28536   8.355  36.363   2.935
63277W        W28537  14.210  19.503  11.987
63278W        W28538  42.746  42.322  12.723
63279W        W28539  31.853  23.038  12.042
63280W        W28540  31.841  36.583  13.824
63281W        W28541  21.368  38.380   1.507
63282W        W28542  13.583  29.964   2.698
63283W        W28543  29.535  10.197   0.221
63284W        W28544  20.772   0.419   1.945
63285W        W28545  11.180   3.659  14.004
63286W        W28546  15.666  40.831   3.610
63287W        W28547  14.849   6.480  12.609
63288W        W28548  41.609   8.298   1.793
63289W        W28549   2.510  13.600  13.133
63290W        W28550  24.662  41.753   2.315
63291W        W28551  26.584  35.814   5.456
63292W        W28552  37.871   6.719  13.836
63293W        W28553  13.527  22.662  10.919
63294W        W28554  14.671  39.396   1.276
63295W        W28555  36.471  25.658   4.927
63296W        W28556   7.350  24.718  14.778
63297W        W28557  31.419  16.875  13.873
63298W        W28558  32.895  21.261  10.773
63299W        W28559  22.182   4.468   0.927
63300W        W28560   9.146   0.945  11.155
63301W        W28561  16.283  39.360  13.918
63302W        W28562  12.546  30.422  10.575
63303W        W28563  12.766  31.883   1.836
63304W        W28564   4.247  22.498   0.301
63305W        W28565   8.455  21.136  11.499
63306W        W28566  36.350  17.251   1.224
63307W        W28567   6.618  27.040   4.995
63308W        W28568  36.929  26.694  11.929
63309W        W28569  10.716   7.173   2.187
63310W        W28570  25.823  21.553  10.429
63311W        W28571  18.014  36.772  10.996
63312W        W28572  44.058  28.614   4.503
63313W        W28573  41.122  17.771  14.318
63314W        W28574  26.294  38.130   4.333
63315W        W28575  12.861  31.398  12.558
63316W        W28576   9.205  42.406   0.758
63317W        W28577  34.697  32.877   4.609
63318W        W28578  34.542  40.780  14.121
63319W        W28579   2.334  32.134  14.460
63320W        W28580  32.961  31.006   0.821
63321W        W28581   9.174   7.246  10.419
63322W        W28582  40.848  34.303   0.955
63323W        W28583  12.360  35.638  12.722
63324W        W28584  10.342  32.397  13.383
63325W        W28585   7.002  26.964  12.935
63326W        W28586  33.232   1.774  12.337
63327W        W28587   3.676   2.442   4.385
63328W        W28588  32.700   8.220  13.472
63329W        W28589  41.305  23.291   2.383
63330W        W28590  35.692  17.210   3.315
63331W        W28591  41.294  13.820  14.566
63332W        W28592  15.749   2.869   3.314
63333W        W28593   4.759  38.784   3.120
63334W        W28594  28.098  18.571   4.890
63335W        W28595  31.513  24.811   1.379
63336W        W28596  14.895  17.550  13.743
63337W        W28597  21.935  40.305   4.214
63338W        W28598   9.494  42.825   0.909
63339W        W28599  33.779  17.932  12.451
63340W        W28600  25.549  17.568   2.795
63341W        W28601   6.693  20.250   1.648
63342W        W28602  40.397  43.605   2.568
63343W        W28603  38.675   1.476  12.969
63344W        W28604  19.127  10.934   3.282
63345W        W28605  26.998  21.099  13.047
63346W        W28606  10.410   1.268   5.195
63347W        W28607  12.144   5.632  12.405
63348W        W28608   9.195  26.596  11.657
63349W        W28609  27.011  15.138  12.092
63350W        W28610  19.360  42.508  14.207
63351W        W28611   3.418  43.094  13.062
63352W        W28612  39.752  18.615   2.448
63353W        W28613  44.232  38.111   3.631
63354W        W28614  20.551  33.379   2.831
63355W        W28615   7.351  40.364  12.993
63356W        W28616  18.812  21.534   1.145
63357W        W28617  14.265   8.979  13.670
63358W        W28618  38.891   7.461   1.578
63359W        W28619  16.260  21.756  11.503
63360W        W28620   7.864  32.956  11.130
63361W        W28621  36.025  29.208   0.769
63362W        W28622   5.365  43.375  11.050
63363W        W28623  21.081   5.737   1.898
63364W        W28624  24.927  13.919  11.072
63365W        W28625  24.793  10.888  14.015
63366W        W28626  33.213   1.280   2.000
63367W        W28627   7.510  28.170  12.538
63368W        W28628   5.268  40.721   1.487
63369W        W28629  36.497  33.736   2.715
63370W        W28630  23.731   8.909  14.019
63371W        W28631  12.942  31.039   0.477
63372W        W28632  43.524  29.583   0.418
63373W        W28633  33.446   2.833   4.413
63374W        W28634  15.441  21.110  14.465
63375W        W28635   4.972   4.611   3.873
63376W        W28636  24.236  34.506  13.304
63377W        W28637   5.247  35.938  12.457
63378W        W28638  38.582  44.200  13.972
63379W        W28639  14.975  30.326  13.372
63380W        W28640  22.708   6.462  13.309
63381W        W28641  35.415  42.500  11.417
63382W        W28642  36.950   5.460   3.710
63383W        W28643  36.274   1.036  12.517
63384W        W28644   2.084  25.906   0.487
63385W        W28645  12.214  31.418  12.880
63386W        W28646  39.087   2.943   2.873
63387W        W28647   1.508   6.460  11.776
63388W        W28648  25.213  41.227  13.424
63389W        W28649  13.192  30.442  13.455
63390W        W28650  40.681  34.693   1.720
63391W        W28651  26.963  18.007  14.067
63392W        W28652  18.147  18.593   5.587
63393W        W28653  33.299   7.639  11.190
63394W        W28654  16.325  38.352   4.500
63395W        W28655  32.324  16.819  10.177
63396W        W28656  28.350  38.182  14.760
63397W        W28657  44.936   4.499  11.576
63398W        W28658  22.959   5.746  14.844
63399W        W28659   3.040  43.465  13.196
63400W        W28660  31.734  43.412   0.432
63401W        W28661  36.432   9.206   4.399
63402W        W28662  39.413   8.128  14.941
63403W        W28663   7.739  14.755   3.742
63404W        W28664  40.474   9.739  12.890
63405W        W28665  25.589  40.087   2.256
63406W        W28666  44.803  10.956  11.190
63407W        W28667  35.470  31.969  14.218
63408W        W28668  17.107  18.240   2.785
63409W        W28669  43.838  11.713  13.443
63410W        W28670  10.759  40.589  13.310
63411W        W28671   5.557  44.791  11.326
63412W        W28672  31.511   4.517  11.197
63413W        W28673  19.622  37.921  14.183
63414W        W28674   8.422  40.753  13.673
63415W        W28675  27.867  22.506  12.797
63416W        W28676  39.299  16.480  10.544
63417W        W28677  21.251  23.155  12.458
63418W        W28678  34.860  11.818   1.747
63419W        W28679  20.802   4.099  12.448
63420W        W28680  44.209  36.404  14.410
63421W        W28681  12.612  26.718  14.397
63422W        W28682  13.142  18.073  14.687
63423W        W28683  28.714  34.030   3.332
63424W        W28684  30.566  14.434  11.128
63425W        W28685  24.664  10.119  12.058
63426W        W28686  37.910  11.142  11.101
63427W        W28687  26.837  11.337  14.435
63428W        W28688  22.191  39.454   0.597
63429W        W28689  42.756  30.520   0.018
63430W        W28690  21.067  12.771  11.164
63431W        W28691   7.813   6.177   0.371
63432W        W28692  41.452  39.971   0.774
63433W        W28693  44.146  15.348  14.767
63434W        W28694  36.810  13.235   2.888
63435W        W28695   9.792  15.624   1.464
63436W        W28696  24.285  29.389   3.766
63437W        W28697  37.898   9.254   0.828
63438W        W28698  13.541  25.016   4.229
63439W        W28699  23.198  20.747   3.420
63440W        W28700  42.762  23.174   1.375
63441W        W28701  40.502  20.864  10.987
63442W        W28702   9.401  14.634   1.763
63443W        W28703  30.987  36.610  11.626
63444W        W28704  40.997  31.577   3.569
63445W        W28705  44.238  26.529  12.461
63446W        W28706  27.406  22.709  10.634
63447W        W28707  25.024  16.984   9.505
63448W        W28708  11.764   8.632  13.354
63449W        W28709  44.803  43.936  11.908
63450W        W28710   2.713  37.076   4.821
63451W        W28711  28.696  20.463   4.346
63452W        W28712  11.777   0.023  11.375
63453W        W28713  19.668   3.360  13.466
63454W        W28714  17.841   9.615  12.414
63455W        W28715  13.290  30.726   4.554
63456W        W28716   3.865  11.567  12.381
63457W        W28717  25.517  19.706   2.437
63458W        W28718  37.447  35.229  13.445
63459W        W28719  10.789  24.545   3.866
63460W        W28720  42.973   3.413  13.098
63461W        W28721  31.395   9.741  13.437
63462W        W28722  15.501  21.186   0.766
63463W        W28723  18.619  27.067   3.949
63464W        W28724  19.236  29.065   3.973
63465W        W28725  44.285   7.781  14.932
63466W        W28726  42.894  43.305  10.647
63467W        W28727  22.156  16.154   2.798
63468W        W28728  18.840  39.594   2.698
63469W        W28729  24.682  13.674   1.921
63470W        W28730  29.911  33.868   2.786
63471W        W28731  14.667  44.395  11.677
63472W        W28732  14.188  23.576   0.229
63473W        W28733   9.964  44.266  10.534
63474W        W28734  15.723  12.160   3.766
63475W        W28735   0.436  31.024   3.299
63476W        W28736  35.995  19.817  11.651
63477W        W28737  43.035  16.907   4.947
63478W        W28738   4.783  10.947  12.942
63479W        W28739  13.656  22.776  12.860
63480W        W28740  21.307  29.728   2.259
63481W        W28741  18.446  42.806   4.319
63482W        W28742  21.169  42.499  13.341
63483W        W28743   1.560  26.969   3.622
63484W        W28744  34.510   0.262   3.865
63485W        W28745   8.225  36.943  14.877
63486W        W28746  22.220  27.244   1.870
63487W        W28747  36.104  14.620   2.260
63488W        W28748  29.627  22.987   0.965
63489W        W28749  37.160  37.141  13.577
63490W        W28750   0.843   3.478   4.187
63491W        W28751  11.216   5.207  13.851
63492W        W28752  36.405   7.895  11.556
63493W        W28753   3.849  20.985   0.942
63494W        W28754  36.659  34.455   2.266
63495W        W28755   3.536  37.788  10.642
63496W        W28756   0.074   4.376   1.765
63497W        W28757  17.328  39.639  11.596
63498W        W28758  34.591   1.318   2.744
63499W        W28759  35.110  24.668  14.942
63500W        W28760  20.381  22.642  12.611
63501W        W28761  24.704  16.656  12.868
63502W        W28762  29.251  11.747  12.022
63503W        W28763  41.437   7.862   0.712
63504W        W28764  31.821   2.924  11.490
63505W        W28765   2.478  30.678   4.143
63506W        W28766  23.242  22.045  13.483
63507W        W28767  25.211  32.906   1.024
63508W        W28768  26.181   3.431   4.753
63509W        W28769  43.372  42.256  13.524
63510W        W28770  10.146  37.076  10.596
63511W        W28771  13.860  35.594  10.699
63512W        W28772  39.508  29.910  14.900
63513W        W28773  14.950  38.862  14.653
63514W        W28774  32.112   3.655  11.123
63515W        W28775  14.322  39.799   1.412
63516W        W28776  33.135  43.248  14.383
63517W        W28777  13.152  18.596   1.439
63518W        W28778  24.625  34.039   2.836
63519W        W28779  37.807  29.514   0.833
63520W        W28780  14.640  27.948  11.912
63521W        W28781  22.301  29.462   5.046
63522W        W28782  35.480  12.407   3.512
63523W        W28783  31.307  16.655  11.141
63524W        W28784  17.667  42.975   3.111
63525W        W28785   9.913  37.527  14.965
63526W        W28786  15.293   4.646   1.866
63527W        W28787  43.057  36.041  10.022
63528W        W28788  27.668  18.672   2.839
63529W        W28789  16.064  44.265  14.676
63530W        W28790  16.242  36.072   4.648
63531W        W28791  11.372   9.392   3.253
63532W        W28792   5.955  28.776  12.793
63533W        W28793   9.870  22.264   2.985
63534W        W28794  35.460   7.668   1.491
63535W        W28795  16.149  35.037   4.561
63536W        W28796  18.686  24.659  11.700
63537W        W28797   8.823  17.839   1.676
63538W        W28798  21.301   2.583   1.229
63539W        W28799  17.819  35.450   3.258
63540W        W28800  12.453  37.541  12.899
63541W        W28801  43.688  35.847   4.124
63542W        W28802   6.707  22.986   1.423
63543W        W28803   5.773  16.068   1.712
63544W        W28804  11.393  14.768  14.852
63545W        W28805  21.167  25.684  10.735
63546W        W28806   2.165  34.449  11.976
63547W        W28807  14.907   8.310  12.192
63548W        W28808  34.681  26.689   2.288
63549W        W28809   9.670  14.673  12.972
63550W        W28810  10.386  39.698  11.229
63551W        W28811   1.562  35.290   2.451
63552W        W28812  18.647  37.087  10.591
63553W        W28813  41.919   7.379   3.172
63554W        W28814  34.955  33.546   0.176
63555W        W28815  14.713  14.789  11.230
63556W        W28816  11.682  23.533  10.333
63557W        W28817  36.388   7.854   1.849
63558W        W28818  18.354   9.359  13.462
63559W        W28819   5.866  18.565  11.422
63560W        W28820  14.641  15.153   2.849
63561W        W28821  20.545  16.695  13.286
63562W        W28822  25.003   8.765   3.810
63563W        W28823  37.336  20.060  11.968
63564W        W28824   6.763  22.530  12.981
63565W        W28825  19.615  17.018   3.122
63566W        W28826  39.062  40.463   4.043
63567W        W28827  42.912  17.761   3.983
63568W        W28828  13.022  17.473  11.643
63569W        W28829  11.672  31.502   3.598
63570W        W28830  44.271  34.449  10.653
63571W        W28831  14.175  13.413  11.427
63572W        W28832  44.232  43.059   3.783
63573W        W28833  34.978  42.239   4.335
63574W        W28834   8.741  38.816  13.251
63575W        W28835  20.058  34.166   4.780
63576W        W28836   2.729  22.453  13.903
63577W        W28837  13.154  37.466   1.796
63578W        W28838  29.553  43.898  12.106
63579W        W28839  30.338   3.328  13.424
63580W        W28840  14.756  34.346  13.092
63581W        W28841  41.060   8.781   2.247
63582W        W28842   8.866  32.398   0.200
63583W        W28843   9.215  30.889  13.398
63584W        W28844  38.484  40.525  10.428
63585W        W28845   4.970  17.226  10.623
63586W        W28846   7.827   3.951  12.516
63587W        W28847  22.286   2.453   5.387
63588W        W28848  35.307  17.136  12.978
63589W        W28849  32.022  26.042   0.926
63590W        W28850  27.433   4.896   4.522
63591W        W28851  38.753  31.053  13.014
63592W        W28852  42.013  24.681  13.391
63593W        W28853  41.900   4.502  13.765
63594W        W28854  21.321  17.912  11.287
63595W        W28855  16.750  18.307  11.516
63596W        W28856  32.577  40.869   0.548
63597W        W28857  44.832   1.328  10.715
63598W        W28858   0.620   6.295   3.786
63599W        W28859  22.252  36.863   2.213
63600W        W28860  26.951  28.034   0.415
63601W        W28861  17.350  21.566  12.471
63602W        W28862  39.538  36.572  12.219
63603W        W28863  25.063   6.915  11.893
63604W        W28864  22.074  31.905   3.273
63605W        W28865  27.939   7.638  12.856
63606W        W28866  10.290  31.598   0.805
63607W        W28867  24.601  33.153   2.688
63608W        W28868  35.481  38.776   0.246
63609W        W28869  43.510  41.179   4.465
63610W        W28870  23.887  36.434  14.401
63611W        W28871  29.927   3.939   0.837
63612W        W28872   8.333  33.181  14.497
63613W        W28873  14.290   1.190  14.894
63614W        W28874  34.183  41.862   2.427
63615W        W28875  17.874  26.525   4.237
63616W        W28876  16.537  17.655   0.289
63617W        W28877   1.065  22.374  10.204
63618W        W28878  29.052  33.534  12.583
63619W        W28879   6.954  38.015  13.387
63620W        W28880  35.933   0.365  12.044
63621W        W28881  17.986  19.570   2.709
63622W        W28882  15.278   5.377   3.151
63623W        W28883  21.959  15.662  12.823
63624W        W28884  33.126  28.943  11.926
63625W        W28885  42.828  18.925   3.556
63626W        W28886  34.458  12.743   0.469
63627W        W28887  30.990  15.565   1.015
63628W        W28888  17.739  23.274  11.914
63629W        W28889  37.882  35.378  13.116
63630W        W28890  17.145  35.786   1.346
63631W        W28891  17.918  34.778   4.262
63632W        W28892  13.612  22.600   1.860
63633W        W28893  16.070  28.069  11.056
63634W        W28894  25.156  31.521  12.419
63635W        W28895  41.765  11.511   0.420
63636W        W28896  28.767  23.959  11.570
63637W        W28897  26.017  23.403  14.420
63638W        W28898   5.210  28.465  12.491
63639W        W28899  23.027   7.226   2.204
63640W        W28900  34.513  18.738  13.925
63641W        W28901   5.949  26.706   0.841
63642W        W28902  37.600   3.252  13.595
63643W        W28903  19.992  23.766   3.329
63644W        W28904  42.354  34.104   4.860
63645W        W28905  27.964  43.463   2.250
63646W        W28906   4.769  27.419  12.039
63647W        W28907  13.321  11.774  10.673
63648W        W28908  20.849  14.354   2.168
63649W        W28909  39.135  14.477   0.409
63650W        W28910   2.225  36.132   1.690
63651W        W28911   2.383  31.180  12.567
63652W        W28912   5.360  32.941   4.032
63653W        W28913  11.828  30.638   2.246
63654W        W28914   7.567  37.924  10.783
63655W        W28915  40.696  22.680   1.964
63656W        W28916  41.116  35.163   1.832
63657W        W28917   1.440  39.912   0.927
63658W        W28918  16.180  34.786   0.847
63659W        W28919  27.135  27.245   2.227
63660W        W28920  24.050  34.729  10.169
63661W        W28921  39.462  18.305   4.783
63662W        W28922   0.455  13.006   2.250
63663W        W28923  24.730   6.469   4.640
63664W        W28924  10.619  26.011   0.014
63665W        W28925   3.746  36.890   2.434
63666W        W28926  25.581  31.418   1.266
63667W        W28927  12.324   9.599   4.672
63668W        W28928  38.402   1.678  13.894
63669W        W28929  32.723   4.862  12.894
63670W        W28930  40.402  14.366  14.217
63671W        W28931   0.473   5.734  12.210
63672W        W28932  14.275  19.178   0.334
63673W        W28933  24.021  25.409   4.348
63674W        W28934  32.605   7.430  14.431
63675W        W28935  42.826   9.873  12.873
63676W        W28936  30.178  44.421  14.704
63677W        W28937  14.273  19.139   5.104
63678W        W28938  43.087  22.993   0.960
63679W        W28939  12.315  32.931   2.835
63680W        W28940   5.703  13.430  13.441
63681W        W28941  23.820  33.368   0.980
63682W        W28942  12.166  31.189  11.611
63683W        W28943   8.393   9.729  12.589
63684W        W28944  43.246  33.574  14.847
63685W        W28945  15.943  37.330   3.305
63686W        W28946   2.952  44.656   0.792
63687W        W28947  11.837  28.544   0.715
63688W        W28948  43.752  24.335   4.563
63689W        W28949   6.911  17.218  10.857
63690W        W28950  24.544  24.440  13.981
63691W        W28951  30.179  23.897  14.375
63692W        W28952  10.239  24.731   3.227
63693W        W28953  12.751  12.666  10.687
63694W        W28954  42.039  16.599  11.189
63695W        W28955  32.280   2.422   1.138
63696W        W28956  36.286  25.345   0.895
63697W        W28957  38.873  43.775  12.260
63698W        W28958  15.209  24.119   4.277
63699W        W28959  19.190  37.000  12.120
63700W        W28960  11.736   4.187  10.987
63701W        W28961  33.847  28.676  14.357
63702W        W28962  38.350  12.448  13.893
63703W        W28963  41.167  36.982  12.983
63704W        W28964  28.263  23.261  12.143
63705W        W28965  31.816   5.195  10.954
63706W        W28966  32.062  36.914   0.915
63707W        W28967  40.136  16.380   4.823
63708W        W28968  30.585   3.322   2.644
63709W        W28969   7.466  13.395  10.998
63710W        W28970  18.814  40.106   2.779
63711W        W28971  40.492  39.955   2.324
63712W        W28972  16.787  29.909  13.719
63713W        W28973   1.543   5.340  11.299
63714W        W28974  15.542  34.054  14.456
63715W        W28975  12.645   1.233  13.690
63716W        W28976  25.939  35.344   0.812
63717W        W28977  28.946  37.660  10.810
63718W        W28978  37.441  29.613   2.934
63719W        W28979  15.887  41.445  12.397
63720W        W28980  34.223  24.641  12.138
63721W        W28981  42.976  33.680   2.186
63722W        W28982  12.694  22.715  13.127
63723W        W28983   4.524  40.582   1.430
63724W        W28984   1.593  10.875   1.005
63725W        W28985  15.442   1.189  12.420
63726W        W28986  30.557  41.826  14.273
63727W        W28987  13.380  31.897  11.896
63728W        W28988  38.777  16.142  10.974
63729W        W28989  12.582  25.589   2.104
63730W        W28990  41.492  17.615  11.641
63731W        W28991  43.276  35.602  12.182
63732W        W28992   2.270  10.351   1.240
63733W        W28993  38.782  18.779   4.068
63734W        W28994  42.954  31.851   3.204
63735W        W28995  38.381  21.088   0.482
63736W        W28996  11.483  31.416  13.913
63737W        W28997  20.305  14.567   2.455
63738W        W28998   3.042  16.726   3.117
63739W        W28999   8.547   3.899   4.997
63740W        W29000  44.384  17.458   4.517
63741W        W29001  19.054  12.098   3.935
63742W        W29002  41.199  26.024   4.301
63743W        W29003   9.854  33.774   1.764
63744W        W29004  11.425  11.588  10.875
63745W        W29005  20.823   9.312   0.461
63746W        W29006  39.817  27.574  13.108
63747W        W29007  11.322  10.632   0.858
63748W        W29008   0.507  33.109  10.749
63749W        W29009  23.117  26.604   2.653
63750W        W29010   9.229  35.414   3.835
63751W        W29011  10.706  32.254  13.744
63752W        W29012   4.591   2.903   1.274
63753W        W29013   7.848  36.376   2.716
63754W        W29014  41.413  28.446  14.797
63755W        W29015   8.958  39.356  10.774
63756W        W29016  35.493  33.365  10.947
63757W        W29017  18.777  11.984  13.171
63758W        W29018  25.056  38.267   2.330
63759W        W29019  21.722  15.749   1.938
63760W        W29020  41.953   5.677   2.670
63761W        W29021  33.277  14.767  12.488
63762W        W29022  31.902  38.276  13.473
63763W        W29023  41.852   5.186  13.299
63764W        W29024  30.643  20.512   0.941
63765W        W29025  42.448  33.825  12.887
63766W        W29026   7.851  24.411   4.071
63767W        W29027  14.991  13.581   4.063
63768W        W29028   9.126  25.159   4.981
63769W        W29029  40.069  42.451  11.633
63770W        W29030   8.338  32.577  13.770
63771W        W29031  34.154  17.874  13.627
63772W        W29032  18.289  21.595   3.279
63773W        W29033  24.496  23.577  10.591
63774W        W29034  44.936   1.757   3.871
63775W        W29035  34.279  27.253  12.974
63776W        W29036  27.001   8.146   2.209
63777W        W29037  28.479  44.458  13.499
63778W        W29038  13.205  39.726  12.081
63779W        W29039   2.616  29.069   9.777
63780W        W29040  20.402  12.185   2.645
63781W        W29041  15.742  11.810   2.224
63782W        W29042   9.125   6.235  13.119
63783W        W29043  40.960  34.953   2.644
63784W        W29044  43.622  37.315   0.550
63785W        W29045  31.144   6.471   2.854
63786W        W29046  36.028  38.059  11.506
63787W        W29047  27.582  15.979  13.545
63788W        W29048   4.816  40.681  12.096
63789W        W29049  26.320  37.947   0.821
63790W        W29050  27.474  39.917  11.552
63791W        W29051  15.328   8.410  11.074
63792W        W29052  21.003  38.085  13.854
63793W        W29053  29.079   7.275  10.734
63794W        W29054   6.670   4.196   1.080
63795W        W29055  28.275  10.237   9.803
63796W        W29056  12.827   5.464  11.535
63797W        W29057  13.461   4.948  14.014
63798W        W29058  31.194  13.910  12.570
63799W        W29059  12.145  15.259  12.515
63800W        W29060  41.463  23.679  11.932
63801W        W29061   7.808  41.810   3.947
63802W        W29062  29.708   5.875   3.775
63803W        W29063  11.524  44.531  14.327
63804W        W29064  31.996  19.809  12.497
63805W        W29065   2.522  27.052  13.478
63806W        W29066  13.233  17.417   0.823
63807W        W29067  40.669  23.009  10.904
63808W        W29068  27.541  36.835   3.326
63809W        W29069   7.870  37.503  10.667
63810W        W29070  39.552  13.889   2.297
63811W        W29071   6.659  20.669   2.868
63812W        W29072  11.778   2.804  10.705
63813W        W29073  16.701   6.766   2.996
63814W        W29074  39.036  35.967   4.396
63815W        W29075  33.367  37.419   0.742
63816W        W29076   2.474  31.910  14.005
63817W        W29077  29.693  31.804   3.260
63818W        W29078  13.255   7.222   1.685
63819W        W29079  25.046  13.724   4.196
63820W        W29080  38.794  28.108   1.407
63821W        W29081  39.348   9.179   1.768
63822W        W29082   4.840  31.852   2.532
63823W        W29083  44.787  30.688  14.217
63824W        W29084  23.078   4.448   0.683
63825W        W29085  15.582   7.865   3.668
63826W        W29086  19.729  37.080   0.529
63827W        W29087  40.005  24.461   0.299
63828W        W29088   5.160  38.661  14.957
63829W        W29089  41.010  38.817  12.958
63830W        W29090   9.296  24.679   1.730
63831W        W29091  14.316  43.416  12.011
63832W        W29092   4.997   8.801  10.945
63833W        W29093  43.312  30.535   3.378
63834W        W29094  38.235  19.152   1.643
63835W        W29095  33.040   8.184  14.964
63836W        W29096  35.622  39.765   4.924
63837W        W29097   7.016  34.109   0.130
63838W        W29098   7.736   8.730  10.722
63839W        W29099   7.763  25.445  10.848
63840W        W29100   9.303  44.642   1.025
63841W        W29101  35.915  42.369   1.341
63842W        W29102  22.805  37.108  12.530
63843W        W29103  33.625   1.326   1.669
63844W        W29104  22.910  42.323  12.985
63845W        W29105  33.511   8.452   4.270
63846W        W29106  24.260  39.983  11.085
63847W        W29107   8.386  17.175   1.373
63848W        W29108  42.764  24.630   2.267
63849W        W29109  22.640  18.454  13.170
63850W        W29110  41.363  26.136   2.876
63851W        W29111  22.699  42.849  11.057
63852W        W29112  25.835   4.305   4.963
63853W        W29113  44.442  40.987   4.947
63854W        W29114   0.290  36.089   0.860
63855W        W29115  29.404  43.423  11.975
63856W        W29116   8.181  16.604   0.513
63857W        W29117   4.320  28.118  10.727
63858W        W29118   3.476   6.118   1.847
63859W        W29119  36.928  29.726   3.153
63860W        W29120   4.876  42.061  12.301
63861W        W29121   1.364  17.260   0.847
63862W        W29122  41.100   2.105   5.365
63863W        W29123   3.383  33.645   0.337
63864W        W29124  22.906  17.597   1.935
63865W        W29125  23.035  18.221   3.613
63866W        W29126  20.701  23.043   4.771
63867W        W29127  24.811   2.700  13.284
63868W        W29128  34.926  30.815  12.201
63869W        W29129  18.765  36.924  14.333
63870W        W29130  13.274  28.130   9.801
63871W        W29131  39.028   9.033   3.204
63872W        W29132   4.651  30.414   4.241
63873W        W29133   8.269  12.766  11.195
63874W        W29134   2.728   3.384   1.732
63875W        W29135   0.519   9.200   2.293
63876W        W29136  43.452  39.058  10.661
63877W        W29137   3.803  39.862  10.742
63878W        W29138  36.885  20.235   3.121
63879W        W29139  26.036   8.603   1.227
63880W        W29140  20.444   2.012  11.180
63881W        W29141   7.666   3.749   1.298
63882W        W29142  16.332   1.740   3.139
63883W        W29143   4.926   1.853   2.773
63884W        W29144  11.118  13.874   4.460
63885W        W29145  13.284   1.562   0.838
63886W        W29146  29.149  34.189   1.217
63887W        W29147  40.043  32.277  11.655
63888W        W29148  18.505  29.026   1.189
63889W        W29149  12.574  36.561  11.522
63890W        W29150  10.240   3.513  14.614
63891W        W29151   9.404  36.248   0.925
63892W        W29152  26.789   1.800  13.395
63893W        W29153   2.588  27.938   4.592
63894W        W29154  42.575   9.830  12.440
63895W        W29155   5.186  17.253  13.089
63896W        W29156  17.730  17.289   0.348
63897W        W29157  32.524  16.301  12.095
63898W        W29158   4.682  15.622  11.687
63899W        W29159  30.022  30.192   3.614
63900W        W29160  26.922  37.418  14.944
63901W        W29161  12.435   2.650   2.743
63902W        W29162  25.626  27.672   2.968
63903W        W29163   4.835  20.821  10.656
63904W        W29164  39.853   3.027  14.377
63905W        W29165  28.675  32.801   4.405
63906W        W29166  42.758  26.657   2.706
63907W        W29167  30.912  33.144   0.236
63908W        W29168  34.540  20.102   4.033
63909W        W29169  22.632  44.487  10.798
63910W        W29170   4.662  27.084  12.429
63911W        W29171  30.540   1.332  13.562
63912W        W29172  18.329  35.975  13.055
63913W        W29173   9.955  25.146  11.965
63914W        W29174  28.866  38.521  10.906
63915W        W29175   8.288  39.333  13.074
63916W        W29176  12.854  29.612   0.486
63917W        W29177  23.650  10.866  12.655
63918W        W29178  29.745  32.189   1.373
63919W        W29179  30.518  23.241   2.945
63920W        W29180  10.969  30.945   2.385
63921W        W29181  42.346  18.265   4.659
63922W        W29182  14.027  28.790  12.348
63923W        W29183  39.035  33.051  14.013
63924W        W29184  27.059  22.024   2.546
63925W        W29185  38.825  26.653   3.574
63926W        W29186  21.541   9.109   2.765
63927W        W29187  21.587  31.617  11.918
63928W        W29188  19.822  14.726   2.354
63929W        W29189  35.680  18.201   0.452
63930W        W29190  13.701  29.859  12.049
63931W        W29191  23.768   0.861   3.671
63932W        W29192  12.328   9.946  10.318
63933W        W29193  15.639  13.790  12.452
63934W        W29194  39.072  33.171   1.686
63935W        W29195  40.458  29.959   0.830
63936W        W29196  24.129  40.717  10.739
63937W        W29197  22.938  33.880   5.429
63938W        W29198   5.878  28.502  13.732
63939W        W29199  24.131  28.145  12.217
63940W        W29200  37.499  20.258   2.499
63941W        W29201  17.377  29.717   4.569
63942W        W29202  24.631  12.821   4.029
63943W        W29203  41.517  27.707   3.683
63944W        W29204  10.998  11.787   3.331
63945W        W29205  26.828  35.839   4.137
63946W        W29206  25.665   1.327  10.904
63947W        W29207  18.683  28.158  11.551
63948W        W29208  40.023  38.850  12.864
63949W        W29209  25.679  35.604  12.986
63950W        W29210  44.523  28.630  10.746
63951W        W29211   4.844  44.451   4.541
63952W        W29212  35.089  27.323   1.566
63953W        W29213   9.565  28.361   0.838
63954W        W29214  22.739  11.015   4.009
63955W        W29215   7.902  24.266   2.283
63956W        W29216   4.259  23.668  14.895
63957W        W29217  31.584  11.262   3.324
63958W        W29218  34.917  30.147   0.867
63959W        W29219  39.635  38.961   4.449
63960W        W29220  32.713  41.550   3.368
63961W        W29221   2.983  28.128   3.315
63962W        W29222  24.973  36.589  12.460
63963W        W29223  21.830  36.426   0.198
63964W        W29224  10.620  14.074   4.544
63965W        W29225  31.773   7.602   2.385
63966W        W29226  31.932  40.295  13.380
63967W        W29227  35.788   4.375   1.938
63968W        W29228  13.688  14.750  14.547
63969W        W29229  25.284  33.512   4.528
63970W        W29230   1.912  22.248   3.067
63971W        W29231  41.859  25.047   3.348
63972W        W29232  44.301  25.832  13.855
63973W        W29233   7.859  18.025  11.175
63974W        W29234  42.072  38.691  14.257
63975W        W29235  36.848  18.276  11.608
63976W        W29236   5.306  16.798  13.390
63977W        W29237  44.250  27.048   4.673
63978W        W29238  26.577   1.003   0.382
63979W        W29239  31.881  26.251  11.487
63980W        W29240  11.374  41.381  13.686
63981W        W29241  18.254   9.925  13.030
63982W        W29242  17.076  26.246   3.378
63983W        W29243  24.713   0.840  10.487
63984W        W29244  16.010  33.111   3.745
63985W        W29245  19.950  35.035  14.876
63986W        W29246  28.398  21.166   4.554
63987W        W29247   8.274  22.351   4.925
63988W        W29248   7.378  41.449  12.551
63989W        W29249  36.935   5.699   2.370
63990W        W29250  15.398   2.395   0.307
63991W        W29251  17.130  36.653  12.814
63992W        W29252  41.435  24.943  14.686
63993W        W29253   3.733  42.570  13.847
63994W        W29254  26.004  20.230   4.834
63995W        W29255  30.154  37.293  14.842
63996W        W29256  21.550  21.490   1.024
63997W        W29257   4.479  22.681   0.866
63998W        W29258  21.961  11.726   1.295
63999W        W29259  32.487  44.677   1.647
64000W        W29260  35.065  43.609   1.839
64001W        W29261  16.783  27.536   4.919
64002W        W29262  22.080   2.506   3.196
64003W        W29263  25.117  33.560   1.625
64004W        W29264   3.624  14.459  10.815
64005W        W29265  13.728  21.947  12.896
64006W        W29266  13.970  33.531   1.178
64007W        W29267  25.112  12.249  14.430
64008W        W29268   8.587  37.289  12.975
64009W        W29269  42.349  19.447   1.379
64010W        W29270  37.925   9.927   2.385
64011W        W29271  34.939  43.797   4.482
64012W        W29272  36.552  40.744   4.667
64013W        W29273  34.509  38.499  10.391
64014W        W29274  21.636  29.361  10.224
64015W        W29275  21.522  10.892  11.223
64016W        W29276  43.804  28.511   1.329
64017W        W29277  26.279   4.516   4.916
64018W        W29278  10.808  28.055   2.759
64019W        W29279  22.776  25.255  11.450
64020W        W29280  27.426  42.023  12.427
64021W        W29281  36.255   6.381  11.440
64022W        W29282  17.955   2.886   4.678
64023W        W29283  19.763  29.922   1.979
64024W        W29284   7.791  13.354  14.787
64025W        W29285  21.040   6.842   1.540
64026W        W29286  22.766  11.783  14.673
64027W        W29287   6.329   2.934   2.271
64028W        W29288  14.063  31.457  14.929
64029W        W29289  17.312  36.987   4.959
64030W        W29290  16.697   7.469  13.124
64031W        W29291  14.874   0.747   0.346
64032W        W29292  28.430  36.864   3.039
64033W        W29293   9.165  25.226  10.254
64034W        W29294  14.043  40.362  11.228
64035W        W29295  24.950  18.710  14.582
64036W        W29296  18.211  12.499  13.825
64037W        W29297  17.917   3.299   2.462
64038W        W29298  18.069   7.042  11.044
64039W        W29299   6.549  26.715  14.497
64040W        W29300  27.558  18.821  11.634
64041W        W29301  17.520   4.146   2.202
64042W        W29302  40.235  42.522  14.061
64043W        W29303  25.457  22.468  10.686
64044W        W29304   9.524  22.652  14.975
64045W        W29305   7.775  17.750  13.803
64046W        W29306   9.326  26.000  13.438
64047W        W29307  43.014  23.107  10.992
64048W        W29308   7.842   9.714   1.839
64049W        W29309  25.228   9.666  12.392
64050W        W29310   0.869   5.856   3.578
64051W        W29311  18.517  39.323   3.637
64052W        W29312  20.693   4.868  10.688
64053W        W29313  35.324  24.502   4.696
64054W        W29314  38.407  23.322  14.041
64055W        W29315  24.344  22.766   9.754
64056W        W29316  29.061  10.243  13.816
64057W        W29317  16.783  18.334  13.724
64058W        W29318  25.576   0.704   0.796
64059W        W29319  32.438  33.443   1.869
64060W        W29320   5.634  44.224  11.037
64061W        W29321  44.240  34.135   2.806
64062W        W29322   3.772  36.592  13.454
64063W        W29323  31.014  40.331   3.841
64064W        W29324   7.884  11.436   1.807
64065W        W29325  16.662   8.159  12.675
64066W        W29326  34.976  13.051  10.630
64067W        W29327  34.615  23.556  13.026
64068W        W29328   3.226   1.512  11.970
64069W        W29329   6.171  42.093   1.922
64070W        W29330  23.225  37.153  13.566
64071W        W29331  41.597   7.794   1.660
64072W        W29332   0.048  42.359  14.302
64073W        W29333  43.414  27.332  13.164
64074W        W29334  13.791   2.150   3.440
64075W        W29335  40.307  29.034  14.885
64076W        W29336   1.346  23.750   0.350
64077W        W29337  25.475   9.833   0.492
64078W        W29338   4.022  28.788   3.789
64079W        W29339  24.008  10.760   3.930
64080W        W29340  21.057   2.010  11.977
64081W        W29341  30.429  13.856  14.473
64082W        W29342  30.703  19.189   1.468
64083W        W29343  39.905  37.425   0.969
64084W        W29344  39.898  16.979  14.876
64085W        W29345   0.768  34.573  13.992
64086W        W29346  33.298   6.491  12.023
64087W        W29347   9.850  25.946   2.115
64088W        W29348  24.605  10.642  11.958
64089W        W29349  28.009  12.406   2.321
64090W        W29350  17.330   0.199   1.713
64091W        W29351  12.170  13.191  10.488
64092W        W29352   8.381  30.649   0.195
64093W        W29353  42.411  11.191  14.450
64094W        W29354  20.983  10.099   3.282
64095W        W29355  29.711  40.483   3.529
64096W        W29356  31.311  16.222  13.509
64097W        W29357  37.431  21.549   2.212
64098W        W29358  24.441  35.968   0.893
64099W        W29359  12.098   0.661  14.899
64100W        W29360  36.169  20.498  12.046
64101W        W29361  26.603  17.682   0.387
64102W        W29362  32.566   1.494   0.760
64103W        W29363  31.384  20.734   0.494
64104W        W29364  16.285  37.727  14.897
64105W        W29365  42.326  26.627  14.945
64106W        W29366  32.500  44.824   3.693
64107W        W29367   5.306   1.176   3.673
64108W        W29368  29.454  34.018  13.002
64109W        W29369  11.688  30.814  12.318
64110W        W29370  43.153  23.007  14.653
64111W        W29371  37.600  42.478  12.050
64112W        W29372   3.781  35.899   2.395
64113W        W29373  34.310  27.809   0.348
64114W        W29374  21.257  22.015   0.280
64115W        W29375  10.385  38.022   1.480
64116W        W29376  30.349   3.641   3.845
64117W        W29377  39.885  44.460   3.209
64118W        W29378   6.763  33.104  10.710
64119W        W29379   8.577  20.831  14.930
64120W        W29380  41.823  21.103   3.411
64121W        W29381  29.179  34.430  13.154
64122W        W29382  39.605  10.763   3.990
64123W        W29383   4.276  21.220   0.734
64124W        W29384  11.862  16.009   3.191
64125W        W29385   2.161  22.600   2.211
64126W        W29386  36.775  34.049  11.999
64127W        W29387  37.494  42.201  12.586
64128W        W29388  31.620  34.474  12.806
64129W        W29389  29.021  12.230   4.105
64130W        W29390  17.804  19.544  11.208
64131W        W29391  13.240  40.616   3.074
64132W        W29392   7.237  29.752  13.386
64133W        W29393   9.601  43.075  11.148
64134W        W29394  38.548   3.828  14.729
64135W        W29395  35.079   7.718   3.800
64136W        W29396  15.196  40.082   4.625
64137W        W29397   6.942  17.417   3.706
64138W        W29398   0.998  10.601  12.384
64139W        W29399  12.425  18.637  14.371
64140W        W29400   3.084  14.506   0.153
64141W        W29401   9.725  23.342   2.259
64142W        W29402   1.027  34.488   2.759
64143W        W29403  11.302  29.962   3.252
64144W        W29404  26.991   5.249  12.870
64145W        W29405   9.833   5.656   1.319
64146W        W29406  20.947  37.798  14.904
64147W        W29407  27.078  35.497   1.637
64148W        W29408  12.809  10.775  10.047
64149W        W29409  10.619  44.037  14.803
64150W        W29410  26.969  15.880   0.239
64151W        W29411   3.038  29.023  10.173
64152W        W29412  43.774  43.031  12.480
64153W        W29413  39.566   0.327   1.823
64154W        W29414  39.924   8.350  13.176
64155W        W29415  30.417   8.293   0.347
64156W        W29416  37.631  43.727   3.353
64157W        W29417   4.903  34.043   2.352
64158W        W29418  39.996  18.769  12.516
64159W        W29419  39.935  14.922   1.146
64160W        W29420  44.382  26.051  13.385
64161W        W29421  37.339   3.449  13.207
64162W        W29422  35.340  30.012  12.486
64163W        W29423  32.195   9.868  11.177
64164W        W29424   5.817   1.520  14.535
64165W        W29425  33.711  18.610  11.522
64166W        W29426  38.130  36.867  12.386
64167W        W29427  15.899   9.809  12.421
64168W        W29428  30.021   9.330  11.847
64169W        W29429  27.683   7.864  11.052
64170W        W29430  32.382   6.455  13.971
64171W        W29431  29.246   4.275   1.269
64172W        W29432  44.263   3.361  13.343
64173W        W29433  38.537  39.849   4.278
64174W        W29434  44.442  37.365  11.464
64175W        W29435  31.903  11.075   1.255
64176W        W29436  19.432  28.334   4.295
64177W        W29437  19.167  16.659   1.676
64178W        W29438  25.495  35.659  13.484
64179W        W29439  27.507  42.798   4.169
64180W        W29440  13.710  17.191   2.340
64181W        W29441  25.063   7.236   4.327
64182W        W29442  29.024  17.306  11.085
64183W        W29443  29.154  34.653   2.064
64184W        W29444  42.396  37.938   1.799
64185W        W29445  37.594  19.829  14.791
64186W        W29446  23.796  44.028  10.892
64187W        W29447  25.757  25.172   4.666
64188W        W29448   8.442  17.703   4.591
64189W        W29449  16.364   6.425   0.091
64190W        W29450  41.926  25.424  12.013
64191W        W29451  23.249  13.070  13.423
64192W        W29452  14.075  21.747   2.255
64193W        W29453  19.673  19.531  12.819
64194W        W29454  20.343   1.694  14.438
64195W        W29455  27.447  22.954  13.601
64196W        W29456  38.726  10.655  11.540
64197W        W29457   5.044  18.122  11.657
64198W        W29458  42.106   3.961  11.696
64199W        W29459  40.271  41.930   0.386
64200W        W29460   8.291  14.098  13.070
64201W        W29461  12.670  10.896   2.577
64202W        W29462  18.598   6.468  14.489
64203W        W29463   4.431  26.937  11.140
64204W        W29464  29.043   4.210   1.758
64205W        W29465  12.124  14.351  13.014
64206W        W29466   3.978   2.770   4.648
64207W        W29467  35.973  43.074  13.099
64208W        W29468  19.504  15.287  14.123
64209W        W29469   6.070  23.850  11.946
64210W        W29470  36.997  18.501   2.399
64211W        W29471  12.087  33.549   1.335
64212W        W29472  37.421  36.233  13.529
64213W        W29473  31.063  35.405   4.871
64214W        W29474   3.841  42.384  10.675
64215W        W29475  18.453  43.862   0.443
64216W        W29476  42.751  18.540   2.552
64217W        W29477  24.539   7.696   3.844
64218W        W29478  22.203  27.636   0.116
64219W        W29479  22.762   2.904  14.842
64220W        W29480  43.692  21.629   3.239
64221W        W29481  12.363  19.792  10.773
64222W        W29482  28.179  35.245   1.302
64223W        W29483  23.697  43.710  13.962
64224W        W29484  18.677  13.805  13.397
64225W        W29485  41.005  23.045  11.291
64226W        W29486  19.436   3.432   1.285
64227W        W29487  14.081  38.189  12.481
64228W        W29488  35.866  30.620   2.756
64229W        W29489  38.565  37.580   1.436
64230W        W29490  24.564  11.395   0.517
64231W        W29491  44.137   5.477  13.555
64232W        W29492  36.933  24.519  14.221
64233W        W29493   8.954  38.904   4.177
64234W        W29494  22.353   7.628   1.294
64235W        W29495  39.527   1.516  13.539
64236W        W29496  11.006  39.866  13.035
64237W        W29497   0.163   6.694  14.925
64238W        W29498   0.964   3.336   3.282
64239W        W29499  37.815  40.321  14.798
64240W        W29500  16.334  21.701  13.372
64241W        W29501   3.539  37.544   4.379
64242W        W29502   8.286  21.017   2.271
64243W        W29503  22.247  17.349   0.506
64244W        W29504  37.932  22.929  14.880
64245W        W29505   3.985  14.235  12.896
64246W        W29506  17.147   7.377  12.820
64247W        W29507  36.266   7.360   1.899
64248W        W29508  24.041  27.490   1.346
64249W        W29509  42.378  29.018   0.680
64250W        W29510  14.370  15.772  10.951
64251W        W29511   4.857  15.512   2.755
64252W        W29512   9.697  35.961  12.331
64253W        W29513  33.227  33.488  10.332
64254W        W29514  18.361  36.655  13.434
64255W        W29515   2.942  18.649  11.052
64256W        W29516  27.885  17.597  10.729
64257W        W29517  17.756  22.964   2.715
64258W        W29518  43.327  11.849   0.656
64259W        W29519  35.126  16.718   0.360
64260W        W29520   8.482  15.211  14.763
64261W        W29521  33.858  34.798   2.772
64262W        W29522  15.703  11.319  13.621
64263W        W29523  34.145  24.037   1.350
64264W        W29524  22.122   1.522  11.778
64265W        W29525  33.512  34.484   0.050
64266W        W29526  20.365  24.827   4.800
64267W        W29527   8.712  42.294  14.906
64268W        W29528  19.012  44.965   2.350
64269W        W29529  20.047   1.408   4.454
64270W        W29530   4.625  23.100   2.726
64271W        W29531  22.801  17.648   1.418
64272W        W29532  16.857  16.769  14.269
64273W        W29533   9.300  12.020  12.897
64274W        W29534  17.034  22.642   2.775
64275W        W29535  41.553  43.258  14.376
64276W        W29536   4.565  23.202  13.326
64277W        W29537   4.974  35.582  12.088
64278W        W29538  44.008   4.502   3.628
64279W        W29539  17.730  26.579  11.897
64280W        W29540  26.007  20.555  11.228
64281W        W29541  23.241   5.229  11.934
64282W        W29542  26.068  37.737  11.469
64283W        W29543  14.175  37.832   3.742
64284W        W29544  34.496  18.420  12.038
64285W        W29545   7.402  26.949   1.275
64286W        W29546   1.770   6.120   1.271
64287W        W29547  39.646  32.898   4.316
64288W        W29548  22.506  19.361   3.241
64289W        W29549  44.251   4.212   0.919
64290W        W29550  16.345   2.192  11.274
64291W        W29551   2.234   2.461   4.413
64292W        W29552  36.557  27.326  10.003
64293W        W29553  44.729  20.975  13.046
64294W        W29554   9.825  11.082  10.716
64295W        W29555   4.681  28.561  11.618
64296W        W29556  18.968  33.948   4.109
64297W        W29557  25.790  40.347  13.419
64298W        W29558   9.645   1.636   1.351
64299W        W29559   5.241  13.996  10.554
64300W        W29560  35.311  19.090  14.345
64301W        W29561  14.242  17.492   3.941
64302W        W29562   4.451  11.917  11.132
64303W        W29563  26.146  30.783   3.341
64304W        W29564  13.188  41.888   2.767
64305W        W29565  19.051  22.166   2.635
64306W        W29566  15.435   3.590   1.410
64307W        W29567  18.182  18.975  11.985
64308W        W29568  10.776   9.181   1.305
64309W        W29569  10.114  41.393  14.040
64310W        W29570   6.213   6.306  12.909
64311W        W29571  36.297  20.999  14.878
64312W        W29572   5.760   4.881   3.857
64313W        W29573  27.609  24.153  13.040
64314W        W29574  13.242  11.663  14.515
64315W        W29575  32.018  33.588   3.813
64316W        W29576   6.151   5.456  14.373
64317W        W29577   3.741  35.375  10.715
64318W        W29578  32.667  43.774  14.412
64319W        W29579  13.148  42.391  14.416
64320W        W29580  38.193  42.526  14.272
64321W        W29581  12.538  27.437  10.671
64322W        W29582  35.019  10.965  12.466
64323W        W29583  32.298  43.230  13.496
64324W        W29584  26.880   5.371  13.927
64325W        W29585  11.916   5.947   3.180
64326W        W29586   7.900  37.316  11.475
64327W        W29587  34.443   5.698  12.999
64328W        W29588  25.019  34.925  13.865
64329W        W29589  38.684  43.243  13.366
64330W        W29590  26.232  15.697  13.980
64331W        W29591  32.853  37.405   0.803
64332W        W29592   3.386   7.237  13.414
64333W        W29593  42.217  23.159   1.290
64334W        W29594  12.815  41.383  12.560
64335W        W29595  20.575  11.982  11.024
64336W        W29596  25.337  26.125   2.758
64337W        W29597  33.494  42.418   0.357
64338W        W29598   5.808  32.914  14.300
64339W        W29599  26.961  19.272  11.637
64340W        W29600  24.884  39.783  12.424
64341W        W29601   3.190  23.521  10.855
64342W        W29602  35.056  41.597  10.763
64343W        W29603  21.180   5.836  12.854
64344W        W29604  40.007  24.163   1.673
64345W        W29605  43.207  18.786   1.024
64346W        W29606  29.303  24.730   4.580
64347W        W29607  31.493  34.020  11.824
64348W        W29608  41.372  26.481   1.331
64349W        W29609   2.353  11.198   2.176
64350W        W29610  28.613  13.081  11.194
64351W        W29611   6.428  35.990   4.523
64352W        W29612   5.397  27.686  13.760
64353W        W29613   8.503  24.556  14.057
64354W        W29614  10.226  23.297   3.549
64355W        W29615  22.682  20.762   0.437
64356W        W29616   9.131   7.826   3.166
64357W        W29617  40.662  11.019   5.390
64358W        W29618  31.943  22.454   4.106
64359W        W29619  35.670  15.342   4.252
64360W        W29620   5.427  35.990  11.976
64361W        W29621  26.110   2.993   2.826
64362W        W29622  26.647  36.594  13.523
64363W        W29623  23.464  37.882   0.330
64364W        W29624  17.620  33.540  13.853
64365W        W29625   0.658  30.728  11.672
64366W        W29626  16.533  22.621  13.835
64367W        W29627  31.033  33.522  13.470
64368W        W29628  39.938  10.373  14.017
64369W        W29629   3.781   7.397  10.757
64370W        W29630   4.826  19.820  12.988
64371W        W29631  34.404  16.202   2.453
64372W        W29632  34.601  29.521   0.465
64373W        W29633  42.868  23.692  13.575
64374W        W29634  43.344  20.270  11.161
64375W        W29635  28.251  23.294  10.771
64376W        W29636  13.155  28.177   0.092
64377W        W29637  23.047  38.631  14.357
64378W        W29638  39.035  20.574   0.638
64379W        W29639  41.824  14.465   4.556
64380W        W29640  23.574  14.024   4.097
64381W        W29641  12.806  11.919  14.359
64382W        W29642  32.744   8.799   0.932
64383W        W29643  24.774  26.983   2.171
64384W        W29644   0.669  29.136   4.904
64385W        W29645  12.067  42.562  12.373
64386W        W29646   0.488  23.525   2.288
64387W        W29647  43.749  26.223   2.662
64388W        W29648  37.393  44.005   2.292
64389W        W29649  16.407  10.600  13.946
64390W        W29650  40.100  20.000   1.633
64391W        W29651   0.368   1.663   0.885
64392W        W29652  10.360  41.569  10.362
64393W        W29653  26.173  37.207   4.007
64394W        W29654  35.004  19.029  12.048
64395W        W29655  38.008  28.537   3.175
64396W        W29656  40.099  41.736  12.483
64397W        W29657  12.828   7.327  12.893
64398W        W29658  17.188   8.423   3.014
64399W        W29659  15.228  34.458  14.343
64400W        W29660  28.829  17.589  14.509
64401W        W29661  30.395  23.149  11.416
64402W        W29662  27.090  10.459  10.687
64403W        W29663  21.036  42.320   1.428
64404W        W29664   5.132  23.320  14.861
64405W        W29665  10.887  29.709  12.479
64406W        W29666  13.659  29.326   3.596
64407W        W29667  18.711  33.632   0.022
64408W        W29668   7.151  43.922  13.723
64409W        W29669  42.321  14.488   4.261
64410W        W29670  43.584  17.635   4.532
64411W        W29671  44.059  12.134  12.893
64412W        W29672  17.084  19.258  12.112
64413W        W29673  23.913  34.667   2.227
64414W        W29674   1.678   3.958   0.757
64415W        W29675   7.219   3.997  11.818
64416W        W29676  44.424  36.631  13.041
64417W        W29677  33.588  31.390   0.728
64418W        W29678  40.900  16.710   4.228
64419W        W29679  24.383  34.652   3.549
64420W        W29680  29.371  30.694  11.583
64421W        W29681  13.091  21.232  14.501
64422W        W29682  37.059  10.344   3.713
64423W        W29683   6.980  10.605   3.275
64424W        W29684  32.658   4.386   4.475
64425W        W29685  15.005  35.758  11.608
64426W        W29686  41.466  17.615   0.294
64427W        W29687  29.729   3.470   0.789
64428W        W29688  26.029  43.483   3.629
64429W        W29689  37.371   4.812   3.686
64430W        W29690   4.290   1.182  12.802
64431W        W29691  24.741  30.614   3.700
64432W        W29692   0.740   4.296   2.776
64433W        W29693   4.150  43.438  12.701
64434W        W29694  34.052  11.918   2.911
64435W        W29695   9.596   6.266  12.209
64436W        W29696  25.506   2.348  11.219
64437W        W29697  40.878  16.464   1.305
64438W        W29698  12.322  44.731   0.980
64439W        W29699  21.666  41.414  13.068
64440W        W29700  32.465  21.270   4.162
64441W        W29701   0.181  42.108   4.429
64442W        W29702  18.015  14.234   4.363
64443W        W29703   3.377  16.106   3.836
64444W        W29704  43.210  43.987  14.286
64445W        W29705   1.285  40.027   3.257
64446W        W29706  26.982  36.339  11.033
64447W        W29707  34.578  39.448   4.745
64448W        W29708  27.607  30.529  14.372
64449W        W29709  13.749  22.071   0.254
64450W        W29710  26.313  36.799   4.936
64451W        W29711   9.287  34.909   0.028
64452W        W29712  36.112  19.064  13.939
64453W        W29713  15.277  13.665   0.056
64454W        W29714   4.659   5.459  10.985
64455W        W29715   4.507  42.416   2.681
64456W        W29716  42.276   5.136   1.395
64457W        W29717  31.559   3.507   0.749
64458W        W29718  30.137  31.607   2.524
64459W        W29719   5.202  13.515   1.603
64460W        W29720  25.230  44.926   3.847
64461W        W29721   3.945   6.468  13.295
64462W        W29722  30.225  34.299  12.865
64463W        W29723   8.030   0.433  13.398
64464W        W29724  22.244  40.317  14.615
64465W        W29725  41.039  20.847  12.238
64466W        W29726  24.484  41.913   4.814
64467W        W29727  10.485   1.045  12.022
64468W        W29728  20.411  38.051  11.793
64469W        W29729  42.967   9.205  14.012
64470W        W29730  42.754  32.400  10.992
64471W        W29731  15.342  29.060   2.288
64472W        W29732  15.138  31.878   0.852
64473W        W29733  29.755  42.559   4.149
64474W        W29734  22.189   4.019  13.479
64475W        W29735   1.400  28.244  11.521
64476W        W29736  42.819  19.735   4.730
64477W        W29737   3.404  15.034   2.610
64478W        W29738  11.331  32.963  12.137
64479W        W29739  37.798  21.169   2.347
64480W        W29740  22.703  15.828  11.755
64481W        W29741  26.554  29.219  14.840
64482W        W29742  12.525  14.035  12.930
64483W        W29743  27.008  41.602   3.646
64484W        W29744  12.826  23.097  12.812
64485W        W29745  12.672  31.205   2.271
64486W        W29746  32.303  41.352  11.509
64487W        W29747  22.036  17.524   4.977
64488W        W29748  29.600  16.170   3.762
64489W        W29749   1.518   8.186  11.190
64490W        W29750  43.517   7.652  14.749
64491W        W29751  21.471   0.868  11.061
64492W        W29752   2.940   6.024  12.654
64493W        W29753  20.445  20.739  14.145
64494W        W29754  10.307  15.575  14.414
64495W        W29755  28.045   3.395   0.290
64496W        W29756  26.660  21.806  14.880
64497W        W29757   0.998  33.990   0.454
64498W        W29758  42.362  44.107  12.087
64499W        W29759  22.516  31.720  12.105
64500W        W29760  30.950  23.823   2.861
64501W        W29761  44.988  35.644   0.279
64502W        W29762  19.766  16.193  14.963
64503W        W29763  33.564  22.924   3.617
64504W        W29764  20.805  36.227  12.121
64505W        W29765   3.473  33.079   3.595
64506W        W29766  34.510  42.207   0.039
64507W        W29767  43.264  40.012   2.123
64508W        W29768  12.354  33.050  12.205
64509W        W29769  37.440   3.314   0.881
64510W        W29770   7.291  35.577   2.120
64511W        W29771  14.820  14.308  13.774
64512W        W29772  14.427  11.722  13.998
64513W        W29773  20.848  15.444  11.917
64514W        W29774  20.145  13.778   4.891
64515W        W29775  38.403   8.845  11.700
64516W        W29776  16.300  29.278   1.627
64517W        W29777  20.917  14.740  11.290
64518W        W29778  14.752  35.791   4.192
64519W        W29779   6.703   7.396   4.259
64520W        W29780   7.676  42.984  14.182
64521W        W29781  19.709  39.052   4.275
64522W        W29782  22.575  25.954  14.423
64523W        W29783  12.253  24.726   3.688
64524W        W29784  30.929   8.239   4.614
64525W        W29785  25.427   1.390   0.344
64526W        W29786   8.627  26.736  13.436
64527W        W29787  23.225  41.076  14.102
64528W        W29788  35.748  20.801  10.877
64529W        W29789   0.315  24.704   0.761
64530W        W29790   6.286  19.834   2.717
64531W        W29791  43.354   4.011  11.092
64532W        W29792   8.181  30.392  13.814
64533W        W29793  12.594  17.521  12.533
64534W        W29794  18.039  33.136   2.728
64535W        W29795  20.703  10.635   1.799
64536W        W29796   2.266  36.425  10.604
64537W        W29797  31.767  39.358  14.958
64538W        W29798  17.376  17.179   2.316
64539W        W29799  40.776  23.778   3.876
64540W        W29800  42.391  11.885   0.872
64541W        W29801   2.506  21.040   4.200
64542W        W29802  16.675   7.613   0.809
64543W        W29803  24.490  44.674  10.643
64544W        W29804  43.202   8.713  11.061
64545W        W29805   3.841   2.879   0.781
64546W        W29806  32.391  37.003  13.073
64547W        W29807  20.851  15.762  10.606
64548W        W29808   1.323  44.227  14.422
64549W        W29809   5.244   2.092   0.448
64550W        W29810  42.145  39.240  14.287
64551W        W29811  11.836   0.037  13.714
64552W        W29812  30.979  30.072   3.669
64553W        W29813   9.940  35.655   0.364
64554W        W29814  37.467   4.253   3.194
64555W        W29815  36.850   6.914  13.677
64556W        W29816  33.593   2.365  12.109
64557W        W29817  34.526   6.035   1.453
64558W        W29818  27.414  11.088   3.650
64559W        W29819  41.274  15.095   2.102
64560W        W29820  11.773  42.473  11.117
64561W        W29821  24.189  33.873  14.826
64562W        W29822  11.254   5.828   4.551
64563W        W29823  32.483  29.472   4.492
64564W        W29824  17.099  15.568  10.667
64565W        W29825  43.536   5.935   4.077
64566W        W29826  43.122   1.039   1.651
64567W        W29827  16.673   7.101   0.811
64568W        W29828  11.429  17.634   0.335
64569W        W29829  25.532  19.032  11.541
64570W        W29830  33.442  36.465  10.026
64571W        W29831   3.990   4.796   0.871
64572W        W29832  42.532  15.028   0.141
64573W        W29833   7.196  28.490   0.187
64574W        W29834  44.023  33.316  12.771
64575W        W29835  28.291   1.504   1.688
64576W        W29836  12.359  39.929  11.901
64577W        W29837  14.142   5.741  12.666
64578W        W29838  17.633  34.150  11.049
64579W        W29839  36.419  20.092   1.241
64580W        W29840  37.092  30.261  13.473
64581W        W29841  19.786  19.437  11.131
64582W        W29842  38.273   4.177   2.738
64583W        W29843  23.280  38.965   1.134
64584W        W29844  38.216   8.302   5.016
64585W        W29845  12.395  35.960   2.414
64586W        W29846  11.384  41.614   4.208
64587W        W29847  22.315  24.618  11.990
64588W        W29848  44.669  24.585  10.760
64589W        W29849   3.848   5.835   3.364
64590W        W29850  20.120  20.501  13.372
64591W        W29851   5.595  28.870   5.794
64592W        W29852  19.643  31.919   4.587
64593W        W29853   7.281   4.543   2.238
64594W        W29854   1.456  25.040   3.262
64595W        W29855  28.941  14.959  14.756
64596W        W29856  28.199  29.735  13.918
64597W        W29857  41.931  20.718   4.691
64598W        W29858  18.784   2.633  13.802
64599W        W29859   1.233  32.865  11.794
64600W        W29860  10.654   3.289   2.737
64601W        W29861  28.461   8.574  10.804
64602W        W29862  41.034  19.212   0.757
64603W        W29863  39.906  15.915  12.559
64604W        W29864  32.352  39.899   3.543
64605W        W29865  10.194   1.455   1.920
64606W        W29866  41.218  17.603  10.497
64607W        W29867  18.155  18.275   4.153
64608W        W29868  41.408  21.200  11.343
64609W        W29869  44.711  33.838  11.202
64610W        W29870  41.532  40.960  10.624
64611W        W29871   3.982  23.457   3.722
64612W        W29872  20.260   1.942   4.510
64613W        W29873  34.453   5.795  14.724
64614W        W29874  27.372  32.232   2.149
64615W        W29875  12.866  27.205   4.428
64616W        W29876  27.920   1.392   0.383
64617W        W29877  42.051  39.379  14.984
64618W        W29878  26.869  40.008  10.834
64619W        W29879  43.405  40.471   4.919
64620W        W29880  17.948   7.119   4.657
64621W        W29881  25.560  44.270   3.387
64622W        W29882  31.980  37.440   1.641
64623W        W29883  34.979   6.476  10.784
64624W        W29884  26.393  26.560  12.085
64625W        W29885  36.513  26.888  10.284
64626W        W29886  24.699  13.665  11.934
64627W        W29887  40.808  21.523  12.973
64628W        W29888  19.631   6.897   2.311
64629W        W29889  35.555  34.060  13.800
64630W        W29890  13.597  11.946  13.415
64631W        W29891  27.490  42.505   1.176
64632W        W29892  22.680  24.544   1.223
64633W        W29893  23.986  36.168   0.719
64634W        W29894  26.284  19.231   2.270
64635W        W29895  28.976  34.513   4.926
64636W        W29896  15.252  42.894   0.983
64637W        W29897  36.937  39.855  11.308
64638W        W29898  27.449   6.015  13.371
64639W        W29899  32.183  22.727   3.733
64640W        W29900   9.535   4.316  11.581
64641W        W29901   7.778  42.938   2.787
64642W        W29902  44.564  18.134  11.190
64643W        W29903  25.065  33.011  13.484
64644W        W29904  31.607  12.306  11.451
64645W        W29905  18.412  33.524  10.600
64646W        W29906  21.174   3.514  11.183
64647W        W29907  31.706   5.270   4.145
64648W        W29908  32.162  14.159  14.838
64649W        W29909  38.465  44.791  12.035
64650W        W29910  34.173   3.505   4.659
64651W        W29911  39.030   6.376  11.203
64652W        W29912   2.768   3.113   3.008
64653W        W29913  17.930  44.881  13.431
64654W        W29914  41.474  19.560  12.343
64655W        W29915   9.872  30.936  10.746
64656W        W29916  33.960   7.364   3.645
64657W        W29917  15.320  16.769  10.746
64658W        W29918   1.779  12.301   0.710
64659W        W29919  13.728  30.401   2.388
64660W        W29920  23.086   4.740   3.438
64661W        W29921  44.052   4.570   1.726
64662W        W29922  25.634  31.418   3.038
64663W        W29923   6.900  37.846   3.211
64664W        W29924  16.694  28.419   3.641
64665W        W29925  26.555  28.200   0.712
64666W        W29926  42.531  24.524  13.408
64667W        W29927   4.714  40.193  12.231
64668W        W29928  33.900  15.211  10.597
64669W        W29929  18.166  34.541   0.800
64670W        W29930  18.142   6.333  14.246
64671W        W29931  23.988  12.653  13.797
64672W        W29932  32.321  28.002   4.784
64673W        W29933  41.424  32.618   3.841
64674W        W29934   2.598  44.413   5.150
64675W        W29935  19.734  35.140  12.085
64676W        W29936  11.879  12.789   1.737
64677W        W29937  15.748  39.723   0.309
64678W        W29938  39.100  19.238   3.855
64679W        W29939   8.568   0.875  14.734
64680W        W29940  41.727  37.358  12.037
64681W        W29941  37.617  41.379   1.268
64682W        W29942   1.165  26.063   0.856
64683W        W29943  15.682  44.282   0.020
64684W        W29944   6.752   0.647   0.351
64685W        W29945  28.927  42.534  12.209
64686W        W29946  35.893   9.234   3.610
64687W        W29947  20.708  24.521  13.151
64688W        W29948  44.760  10.493   5.118
64689W        W29949  31.884  31.315  13.338
64690W        W29950   8.086   9.613   3.279
64691W        W29951   9.220  11.455  10.443
64692W        W29952   9.908  39.303   4.414
64693W        W29953   4.803  31.439  14.033
64694W        W29954   5.603  42.054   2.780
64695W        W29955   8.905  28.252  13.861
64696W        W29956  27.503  21.642  12.444
64697W        W29957  41.607  25.701   4.443
64698W        W29958  23.663  17.126  11.199
64699W        W29959  35.955  32.411   0.235
64700W        W29960  26.564  12.159  13.349
64701W        W29961   9.970  36.854  13.873
64702W        W29962  11.643   9.209  10.231
64703W        W29963   9.589   7.413  13.273
64704W        W29964  16.296  32.334  12.385
64705W        W29965   9.359  23.027  12.536
64706W        W29966  26.041  35.517  11.579
64707W        W29967  10.857   8.126   1.283
64708W        W29968  31.076   8.378  11.091
64709W        W29969  11.803  38.040   4.629
64710W        W29970  30.922  41.919  12.889
64711W        W29971  44.488  37.898  13.440
64712W        W29972   9.159  23.195   0.218
64713W        W29973   4.862  21.268   0.012
64714W        W29974   2.187  23.677   0.741
64715W        W29975  28.947  21.747   4.309
64716W        W29976   0.650  34.693  11.973
64717W        W29977   1.150  28.578  13.566
64718W        W29978  13.536  15.922   4.927
64719W        W29979  21.620  35.694  13.662
64720W        W29980  13.311  24.521   1.241
64721W        W29981  20.419  28.151   0.553
64722W        W29982   3.249  37.797   0.696
64723W        W29983  15.386  27.008   3.249
64724W        W29984  11.239  40.866   4.607
64725W        W29985  33.161  10.464  12.375
64726W        W29986  17.243  25.126  14.058
64727W        W29987  26.523  14.554   1.842
64728W        W29988  27.613  33.028  12.487
64729W        W29989  15.554  31.516  11.013
64730W        W29990  41.802  38.442   3.306
64731W        W29991   9.169   6.396  14.020
64732W        W29992  14.541  18.369  13.383
64733W        W29993  21.550  30.424   1.737
64734W        W29994  42.303  44.303   3.151
64735W        W29995  33.792  36.961  14.451
64736W        W29996  28.605   4.851   1.954
64737W        W29997  22.184   1.869   4.551
64738W        W29998  22.287  12.652  14.594
64739W        W29999   5.973   8.754  13.388
64740W        W30000  27.580  30.633  10.739
64741W        W30001  19.678  13.412  10.524
64742W        W30002  34.928  33.911  12.440
64743W        W30003   5.250   7.905   4.809
64744W        W30004  22.063  27.178   3.143
64745W        W30005  15.561   8.678   0.364
64746W        W30006  28.695  42.719   2.739
64747W        W30007  19.912  32.558  12.925
64748W        W30008  44.033   2.439   4.555
64749W        W30009  18.298  31.492  12.692
64750W        W30010  37.363   8.326  14.399
64751W        W30011  41.342  22.217  10.704
64752W        W30012   8.047  27.838   4.492
64753W        W30013  15.900   8.575   4.636
64754W        W30014  34.031  27.531   0.910
64755W        W30015  13.710  18.463   2.699
64756W        W30016  18.187  41.510  11.934
64757W        W30017  12.357  33.657  14.615
64758W        W30018  44.723   3.881  10.622
64759W        W30019   1.757  39.995  11.422
64760W        W30020   5.422  29.519  11.857
64761W        W30021  44.903  18.873   0.762
64762W        W30022   7.181  25.189  14.942
64763W        W30023   0.118   3.791   3.250
64764W        W30024  28.942  23.445   1.434
64765W        W30025  21.786  10.928  14.566
64766W        W30026   3.731   0.512  12.558
64767W        W30027   3.246   4.491  11.992
64768W        W30028   4.012  10.129  12.648
64769W        W30029   5.266  28.702   1.365
64770W        W30030  33.935  17.017   1.706
64771W        W30031  40.526  35.436   0.328
64772W        W30032  24.853   8.318  13.549
64773W        W30033  23.796  30.906   5.136
64774W        W30034  19.517   2.249   3.144
64775W        W30035  40.098   5.778  14.392
64776W        W30036  39.931  36.069  10.595
64777W        W30037  26.047   8.349   1.674
64778W        W30038  44.469  27.589  12.773
64779W        W30039  37.282  28.643  13.002
64780W        W30040  28.573  29.704   4.094
64781W        W30041  36.538   2.014   3.096
64782W        W30042  15.526  15.652   1.741
64783W        W30043  40.565   2.449  10.233
64784W        W30044   9.930   1.388  12.909
64785W        W30045  31.911   4.256  11.033
64786W        W30046  34.983  30.955   1.850
64787W        W30047   9.340   5.204  12.460
64788W        W30048  40.481  24.649   0.364
64789W        W30049  14.600  35.320   3.000
64790W        W30050  38.465  13.041  10.587
64791W        W30051   9.347  20.760   0.907
64792W        W30052  18.407  12.063  14.733
64793W        W30053  26.128  13.690  12.476
64794W        W30054   8.488   2.944  12.959
64795W        W30055  21.582  27.701   3.570
64796W        W30056  31.279  38.009   2.684
64797W        W30057   9.126  33.868   0.600
64798W        W30058   4.698  31.694  11.044
64799W        W30059  39.427  27.469  13.445
64800W        W30060   5.695   7.961  13.838
64801W        W30061  26.556  15.330  11.562
64802W        W30062  25.227  16.715  14.130
64803W        W30063   2.344   0.345  10.342
64804W        W30064  43.439  40.540  12.465
64805W        W30065  40.822   8.346  12.373
64806W        W30066   7.851  17.114   2.660
64807W        W30067   9.592  35.041  10.939
64808W        W30068  32.078  22.644  11.187
64809W        W30069   2.991   1.188  12.296
64810W        W30070   6.189  24.177   3.684
64811W        W30071   5.743   8.737   3.648
64812W        W30072  44.962  12.850   2.340
64813W        W30073  14.896   5.427  12.454
64814W        W30074  38.926  11.290  10.721
64815W        W30075  23.141  33.373   3.877
64816W        W30076  19.693  19.193   0.619
64817W        W30077   1.445  20.753   2.529
64818W        W30078   7.363   2.405  11.654
64819W        W30079   6.880  13.307   0.613
64820W        W30080   0.892   5.177  10.698
64821W        W30081  17.855   1.964   4.543
64822W        W30082  28.091  10.199   0.354
64823W        W30083  13.520   8.613   3.646
64824W        W30084  18.580   1.958   1.400
64825W        W30085   6.866  41.892   2.320
64826W        W30086  44.871  41.737  13.383
64827W        W30087  20.257  14.460   3.689
64828W        W30088   8.631  14.723   3.852
64829W        W30089  35.077   0.783  14.023
64830W        W30090  13.506   0.230   1.278
64831W        W30091  38.192  29.901   0.204
64832W        W30092  13.177  16.258  12.627
64833W        W30093  22.176   0.043   4.184
64834W        W30094  44.217  44.969  13.759
64835W        W30095  33.652   1.329   3.429
64836W        W30096  37.869  40.907   4.608
64837W        W30097   4.407  21.032   0.161
64838W        W30098  23.613  13.907  14.109
64839W        W30099  32.354  25.876   2.070
64840W        W30100  15.502   5.701  11.857
64841W        W30101  29.985  16.417  10.819
64842W        W30102  30.401  37.505   2.442
64843W        W30103  42.496  23.475   1.002
64844W        W30104  27.648  34.402   4.020
64845W        W30105  42.209  19.167  12.093
64846W        W30106  12.391  35.589  11.700
64847W        W30107  29.816   3.346  13.421
64848W        W30108   7.851   6.358   2.659
64849W        W30109  43.284  13.683  12.974
64850W        W30110  29.338  21.062   4.486
64851W        W30111  19.883  21.808   1.812
64852W        W30112   4.742   2.793   3.404
64853W        W30113  20.311   0.828   2.655
64854W        W30114  20.242  17.823   3.018
64855W        W30115  42.922   2.965   0.523
64856W        W30116  23.346  20.212   3.497
64857W        W30117  22.085  33.510  12.035
64858W        W30118  10.814  36.477  14.319
64859W        W30119   1.241  20.482  11.819
64860W        W30120  13.134  18.593   1.975
64861W        W30121  17.885  21.690  11.742
64862W        W30122  36.872  12.725  11.022
64863W        W30123  44.463  12.076  13.640
64864W        W30124   0.962   9.719   0.436
64865W        W30125   3.289   7.026   3.797
64866W        W30126  11.358  18.253  11.568
64867W        W30127  27.579  42.556  14.105
64868W        W30128  22.290  22.843   0.319
64869W        W30129   4.220  33.716   0.107
64870W        W30130  33.164   4.906   2.723
64871W        W30131   8.154  25.152  13.887
64872W        W30132  31.606  13.382  11.966
64873W        W30133  44.027  17.998   1.379
64874W        W30134  21.428  26.418   1.131
64875W        W30135  28.910   1.413   3.159
64876W        W30136  34.970  25.974  10.108
64877W        W30137  44.889  33.382   1.836
64878W        W30138  31.189  17.354   1.410
64879W        W30139  21.316  38.899  11.504
64880W        W30140  29.292  23.175  11.907
64881W        W30141  41.130  10.809   1.480
64882W        W30142  33.289  11.148  13.056
64883W        W30143  20.972   3.184   4.604
64884W        W30144  30.931  25.369  11.751
64885W        W30145  43.825  43.962   0.711
64886W        W30146  37.346   3.824   2.749
64887W        W30147  29.925  12.742  13.000
64888W        W30148  31.202  34.518  13.788
64889W        W30149  44.497  42.618  10.824
64890W        W30150  44.047  31.928   1.759
64891W        W30151   6.318   6.947  13.417
64892W        W30152   1.977   0.912   0.920
64893W        W30153   4.946   0.970   1.706
64894W        W30154  40.829  27.390   1.395
64895W        W30155  17.084  15.345  13.016
64896W        W30156  34.857  15.268   0.922
64897W        W30157  13.359   4.491  13.316
64898W        W30158   4.610  26.801  14.948
64899W        W30159   7.735  19.194   1.303
64900W        W30160  16.696  42.010  12.484
64901W        W30161  36.318  11.360  13.382
64902W        W30162  28.954   6.674  11.630
64903W        W30163   2.731  22.799  13.529
64904W        W30164   1.457  14.850  13.830
64905W        W30165  41.588  40.492   3.275
64906W        W30166   3.223   5.968  12.211
64907W        W30167  43.954  26.550   4.316
64908W        W30168  14.310   9.268   4.524
64909W        W30169  36.374  26.931  14.485
64910W        W30170  34.027  26.657   0.569
64911W        W30171  33.563  11.669   3.677
64912W        W30172  31.939  27.492   3.982
64913W        W30173  39.983   3.680  10.665
64914W        W30174  12.856   6.909   0.772
64915W        W30175  25.043  26.644   1.848
64916W        W30176  15.329  21.204   3.852
64917W        W30177   1.451  10.673  11.462
64918W        W30178  33.841  27.099  13.902
64919W        W30179   0.954   2.356   1.353
64920W        W30180  32.961  13.628  12.160
64921W        W30181  11.755   1.945  13.345
64922W        W30182   3.721  24.129   2.110
64923W        W30183  14.856  22.952  10.716
64924W        W30184  20.215  10.918  14.772
64925W        W30185  32.128  14.398   4.207
64926W        W30186  43.498   7.155  13.964
64927W        W30187  10.139  35.057  13.522
64928W        W30188  31.214  43.036   2.638
64929W        W30189  26.427   3.776   2.365
64930W        W30190  21.771  28.433  12.025
64931W        W30191  22.140  20.702  12.817
64932W        W30192   1.531  15.324  13.477
64933W        W30193  14.366  29.903   2.222
64934W        W30194  29.607  44.220   1.595
64935W        W30195  29.834  19.188  11.495
64936W        W30196  41.460  33.538   2.765
64937W        W30197  20.846  10.334   0.883
64938W        W30198   4.222  38.509  10.693
64939W        W30199   6.539   1.499   3.318
64940W        W30200  42.881  35.292   4.106
64941W        W30201  32.634  42.204   1.446
64942W        W30202  30.209  20.751  12.577
64943W        W30203   1.481  10.468   1.750
64944W        W30204  23.207  17.790  11.123
64945W        W30205  20.000  34.139  13.517
64946W        W30206  10.684   4.934  11.178
64947W        W30207  31.122  18.694  13.341
64948W        W30208  35.557  29.425   2.425
64949W        W30209  34.047   1.725  11.986
64950W        W30210   3.416  11.740  12.551
64951W        W30211  34.046  11.598  13.527
64952W        W30212  43.218  12.284   3.537
64953W        W30213  26.618  27.888  14.334
64954W        W30214  35.660  29.959  13.126
64955W        W30215   7.875  31.118   4.099
64956W        W30216  20.976  23.478   2.529
64957W        W30217  20.658   1.038  13.872
64958W        W30218   8.577  29.925   2.656
64959W        W30219  11.344  29.651   2.416
64960W        W30220  41.067   3.374  14.523
64961W        W30221  13.710  14.011   0.817
64962W        W30222   3.715  42.844  14.315
64963W        W30223  41.132  32.010  13.938
64964W        W30224  24.268   5.457   1.369
64965W        W30225  25.063  17.803   1.111
64966W        W30226  20.577   4.301  11.520
64967W        W30227  32.104  32.178   2.453
64968W        W30228  27.485  12.357  13.900
64969W        W30229  24.102  12.337   1.018
64970W        W30230   1.705   7.367   3.268
64971W        W30231  26.049  30.798  12.658
64972W        W30232  36.481  17.049  11.459
64973W        W30233   4.009  34.938   3.251
64974W        W30234  13.153  27.999   1.121
64975W        W30235  44.407  34.397  12.157
64976W        W30236  18.619  34.088  11.975
64977W        W30237  41.320  39.093  12.545
64978W        W30238  32.030  26.129   3.783
64979W        W30239  28.815  13.827   0.897
64980W        W30240  29.100   0.191  12.932
64981W        W30241  32.147  21.075   0.760
64982W        W30242  41.666   9.591  10.813
64983W        W30243  23.280  16.078   4.026
64984W        W30244  19.748  16.478  12.880
64985W        W30245  32.416  17.620   4.257
64986W        W30246  34.806  34.602   3.643
64987W        W30247   1.806  32.621   0.247
64988W        W30248  15.895  41.997  13.305
64989W        W30249   0.527  31.834   0.874
64990W        W30250  21.550  37.613  12.695
64991W        W30251  28.160  28.922   0.828
64992W        W30252  14.282   7.253   2.674
64993W        W30253  12.564  44.871   2.885
64994W        W30254  37.927   9.920  12.082
64995W        W30255  10.883  24.208   3.063
64996W        W30256  16.256  25.621   2.880
64997W        W30257  44.207  18.641   2.108
64998W        W30258  30.950  14.209  10.844
64999W        W30259   4.018   5.420  11.613
65000W        W30260  37.732  36.021  10.694
65001W        W30261  10.961   0.430  12.865
65002W        W30262   7.695  29.996  13.353
65003W        W30263  36.451   3.922   3.306
65004W        W30264  44.806  32.579  11.037
65005W        W30265   2.261  19.275  14.846
65006W        W30266  40.510  42.046  12.507
65007W        W30267  17.664  37.871   3.461
65008W        W30268  44.021  13.953  10.294
65009W        W30269  27.531  30.705   3.137
65010W        W30270   8.337   8.127  11.963
65011W        W30271   1.260  30.013   2.682
65012W        W30272  27.971  15.304  11.865
65013W        W30273  38.045  17.671   3.958
65014W        W30274  41.432  42.230   0.220
65015W        W30275  20.061  28.222   1.385
65016W        W30276  37.124  41.434   3.627
65017W        W30277  11.200  38.588  12.560
65018W        W30278  44.459  16.259   3.765
65019W        W30279  33.264  19.115  10.790
65020W        W30280  16.793  42.208  11.976
65021W        W30281  15.558  23.774  12.009
65022W        W30282  36.374   7.382  13.080
65023W        W30283  17.632  17.619   3.225
65024W        W30284  43.099  15.024  11.112
65025W        W30285   9.934  40.850  10.654
65026W        W30286  15.629  18.404  12.856
65027W        W30287  18.533   1.471   2.750
65028W        W30288   0.284  36.426  13.596
65029W        W30289  12.551  14.628   1.142
65030W        W30290   5.588  31.283   3.674
65031W        W30291  17.010   3.494   2.677
65032W        W30292  36.694  42.502  11.021
65033W        W30293  12.440  25.429  11.720
65034W        W30294  31.543  22.057   2.721
65035W        W30295  16.811   8.684   2.782
65036W        W30296  22.997  26.693   1.598
65037W        W30297  19.148  33.831   2.743
65038W        W30298  40.207  39.349  12.958
65039W        W30299  15.386   4.358  11.128
65040W        W30300   8.666   3.278  11.177
65041W        W30301  24.603  14.016   1.138
65042W        W30302  38.761  25.088  11.551
65043W        W30303   5.793   1.998  14.760
65044W        W30304  28.732  15.339   4.844
65045W        W30305  21.584   5.325  14.450
65046W        W30306  40.842  22.051  11.543
65047W        W30307  27.704  30.326  12.614
65048W        W30308  32.989  31.567   3.726
65049W        W30309   3.264   7.737   1.735
65050W        W30310   8.830  34.508   1.919
65051W        W30311  22.593  16.112  13.045
65052W        W30312  17.979  39.988  12.035
65053W        W30313  11.570  44.372  13.430
65054W        W30314  19.703  13.765   2.404
65055W        W30315  37.524   4.657   4.158
65056W        W30316  21.194   1.741  11.484
65057W        W30317  19.872  34.331   2.404
65058W        W30318  20.918   3.844  11.596
65059W        W30319  32.399  30.706  14.969
65060W        W30320   0.549   1.854   3.142
65061W        W30321  22.451  35.836   3.280
65062W        W30322  19.538  43.841   2.370
65063W        W30323   6.793  16.888  13.617
65064W        W30324  10.236   1.301   1.163
65065W        W30325  23.186  36.402  14.991
65066W        W30326  36.929   9.229   4.189
65067W        W30327  30.691  11.818   4.669
65068W        W30328  40.956   0.270  14.339
65069W        W30329  44.921  33.120  10.618
65070W        W30330  33.183   8.139   4.033
65071W        W30331  37.877  31.828  12.501
65072W        W30332   8.457  27.588   0.981
65073W        W30333  32.973   5.845   0.906
65074W        W30334  12.158  33.493  12.337
65075W        W30335   0.320  36.792  13.975
65076W        W30336  30.243  13.723  12.326
65077W        W30337  17.063   4.419  14.857
65078W        W30338  32.211  27.528   3.559
65079W        W30339  37.393  17.300   3.721
65080W        W30340  37.825  11.962   1.888
65081W        W30341  44.892  40.395  14.509
65082W        W30342  42.875   2.787  13.488
65083W        W30343   9.032  35.395   4.901
65084W        W30344  30.870  12.658   3.668
65085W        W30345  25.711   1.702   0.690
65086W        W30346  20.106  28.416  12.516
65087W        W30347  24.435  16.712   2.782
65088W        W30348  28.778  37.499  12.705
65089W        W30349  17.507   5.686  14.354
65090W        W30350  31.564  29.977   3.757
65091W        W30351   5.691  22.484  11.952
65092W        W30352  40.475   1.792   0.321
65093W        W30353   9.251  24.089   2.400
65094W        W30354  16.576  29.505  10.536
65095W        W30355  17.092  10.642  11.088
65096W        W30356   6.851  24.019  11.679
65097W        W30357  25.174  35.345  13.147
65098W        W30358  26.564  43.372   0.665
65099W        W30359  26.875   7.883   2.666
65100W        W30360  22.759  14.869  14.101
65101W        W30361   8.312   2.799  13.950
65102W        W30362  41.000  10.765   0.983
65103W        W30363  18.067   1.838   1.242
65104W        W30364  10.357  31.886  11.574
65105W        W30365   4.924  15.574  11.234
65106W        W30366   7.600  32.218  11.642
65107W        W30367  25.021  40.903   0.793
65108W        W30368  44.719  36.314   4.269
65109W        W30369  22.961  42.759   0.298
65110W        W30370  33.084  35.231   4.719
65111W        W30371   9.852  26.477   0.002
65112W        W30372  33.746  25.590  12.529
65113W        W30373  44.162  42.477  11.665
65114W        W30374  28.057  10.728  14.598
65115W        W30375   1.845  25.025   5.079
65116W        W30376   6.718   1.047   2.923
65117W        W30377   5.224  27.009  14.327
65118W        W30378   1.035  37.798   3.070
65119W        W30379  14.872  15.769  14.507
65120W        W30380  19.285  34.170   4.480
65121W        W30381  32.469  33.526  11.238
65122W        W30382  12.944  12.153   0.379
65123W        W30383  33.574   1.446  11.365
65124W        W30384  31.465  19.939   0.012
65125W        W30385  29.792   0.589   4.084
65126W        W30386  24.575   0.558  10.895
65127W        W30387  37.214  35.912  10.779
65128W        W30388  18.160  31.661  11.649
65129W        W30389  32.034   3.954   4.489
65130W        W30390  16.499  41.333   3.842
65131W        W30391  28.237  11.729  12.105
65132W        W30392  26.450  40.676   3.492
65133W        W30393  27.726  31.518  12.587
65134W        W30394  39.741  30.442   1.233
65135W        W30395  24.398   0.845   4.868
65136W        W30396   7.359  38.474   4.221
65137W        W30397  37.453  41.353   3.232
65138W        W30398  10.100  17.946  13.090
65139W        W30399  26.320  35.438   9.810
65140W        W30400  30.036  10.897   4.481
65141W        W30401  18.014  36.192  12.152
65142W        W30402  15.840  20.120   1.942
65143W        W30403  25.584  44.958  14.337
65144W        W30404  37.960  15.286  10.576
65145W        W30405  24.739  37.345   2.903
65146W        W30406  26.437   1.817  14.411
65147W        W30407  24.646  32.807  11.513
65148W        W30408  17.640  26.927   3.118
65149W        W30409   6.644   2.020  11.632
65150W        W30410  22.599  40.446   4.584
65151W        W30411   5.902  43.977   0.933
65152W        W30412   6.561  24.070   0.910
65153W        W30413   6.442  25.944  13.731
65154W        W30414  27.051  17.968   0.392
65155W        W30415  19.563  38.402  13.027
65156W        W30416  25.812  31.217   0.238
65157W        W30417  28.570   5.377   4.219
65158W        W30418  34.027  42.417  12.648
65159W        W30419  22.636   3.392   5.103
65160W        W30420   0.424  24.880  13.451
65161W        W30421  41.962  36.199   1.705
65162W        W30422  35.887  16.656   4.902
65163W        W30423  38.489  23.010   0.892
65164W        W30424  44.984   9.796   0.485
65165W        W30425   7.387  36.497  12.650
65166W        W30426  14.753  29.643  10.608
65167W        W30427   8.670   2.043  13.991
65168W        W30428  22.861  35.297  10.747
65169W        W30429  31.045  44.740   1.770
65170W        W30430   7.094  10.826   1.018
65171W        W30431  13.162   5.787   0.000
65172W        W30432  34.636  26.255  10.378
65173W        W30433  20.236  17.173  14.633
65174W        W30434  16.292  10.892  14.352
65175W        W30435  19.373   4.492   2.453
65176W        W30436   2.429   7.104   2.339
65177W        W30437  20.345  24.123   3.188
65178W        W30438  20.191  20.906  14.617
65179W        W30439  32.620   8.322   2.689
65180W        W30440  36.144   3.328  14.353
65181W        W30441  11.098   2.333   2.721
65182W        W30442  10.307   0.509   4.099
65183W        W30443  17.953   6.229  10.669
65184W        W30444  18.571   4.521  12.075
65185W        W30445  34.308  23.611  14.345
65186W        W30446  22.641  44.847  13.959
65187W        W30447  39.653   7.045  14.893
65188W        W30448  10.801   2.812   1.743
65189W        W30449  36.151   4.934   4.940
65190W        W30450  39.823  12.892  10.743
65191W        W30451  35.013  40.268   2.355
65192W        W30452  26.500   2.455  13.920
65193W        W30453  28.533  30.515   0.896
65194W        W30454  26.062   0.566   3.292
65195W        W30455  18.118  33.896   3.002
65196W        W30456  37.124  14.735  14.497
65197W        W30457   8.688  42.395   0.760
65198W        W30458  20.369   9.216  14.789
65199W        W30459  43.032  29.542  10.522
65200W        W30460   7.596   7.967  14.072
65201W        W30461  35.958   7.972  10.719
65202W        W30462   6.946   3.349   2.752
65203W        W30463  24.968  33.231  13.003
65204W        W30464  15.161  15.163   2.627
65205W        W30465  35.741  21.495   4.218
65206W        W30466  12.301  23.646   1.774
65207W        W30467  29.054  34.470   1.613
65208W        W30468  43.454  22.772  12.463
65209W        W30469  27.927  29.054  13.101
65210W        W30470  21.717   3.851  13.366
65211W        W30471   6.316   4.308   4.099
65212W        W30472  37.459  11.417   3.161
65213W        W30473  26.621  31.130  14.466
65214W        W30474  36.439  15.984   1.415
65215W        W30475   1.797  39.023   1.671
65216W        W30476  43.512  13.281   0.335
65217W        W30477  15.838  14.788   4.456
65218W        W30478   5.681  31.433  14.216
65219W        W30479  27.425  24.185   3.730
65220W        W30480  14.386  13.175   0.927
65221W        W30481  42.702  24.617  10.446
65222W        W30482  38.957  21.730  14.149
65223W        W30483  29.556   3.753  11.018
65224W        W30484  20.143  39.308   2.640
65225W        W30485   6.473  41.060   4.596
65226W        W30486  21.801  22.803   2.813
65227W        W30487   1.641   4.131  12.895
65228W        W30488  12.363  11.024   3.273
65229W        W30489   6.982  12.860  11.555
65230W        W30490  16.598  27.095  12.354
65231W        W30491  41.395  27.237  10.697
65232W        W30492  40.447  18.814   0.095
65233W        W30493   9.301  14.130  14.051
65234W        W30494  24.239  42.715  11.967
65235W        W30495  40.469  15.734   2.763
65236W        W30496   1.723  42.999   4.348
65237W        W30497  31.608  43.014  11.663
65238W        W30498  28.020  22.923  13.060
65239W        W30499  24.167  34.115   0.727
65240W        W30500   7.516   5.827  11.620
65241W        W30501  32.955  39.298   0.543
65242W        W30502  16.767   8.427   1.209
65243W        W30503   6.258  15.306   1.861
65244W        W30504  35.104  10.332  13.925
65245W        W30505  18.159  12.183   3.339
65246W        W30506  41.288  40.419   0.041
65247W        W30507   5.445  19.386  14.295
65248W        W30508  40.836   0.904  12.092
65249W        W30509   9.166  24.200   1.902
65250W        W30510  29.160  31.568   1.277
65251W        W30511  33.485  37.044   4.735
65252W        W30512   6.122  42.060   2.710
65253W        W30513   9.512   0.303  13.624
65254W        W30514  22.123   0.138  14.819
65255W        W30515  35.508  18.311  13.947
65256W        W30516  15.078  30.343   2.790
65257W        W30517  20.600  20.156   3.077
65258W        W30518   0.515  29.807   2.704
65259W        W30519  21.554   0.300  11.968
65260W        W30520   4.890  16.281  10.750
65261W        W30521   7.919  10.584  14.764
65262W        W30522  31.471   7.466   0.346
65263W        W30523  44.926  22.840   3.483
65264W        W30524  37.090  25.156   0.733
65265W        W30525  23.964  29.201   0.749
65266W        W30526  12.852  44.777  11.534
65267W        W30527  26.573   4.703   0.732
65268W        W30528  43.549  26.665   2.835
65269W        W30529  12.926   7.920   2.447
65270W        W30530  17.295  34.590   4.508
65271W        W30531  19.403   5.977   3.568
65272W        W30532  17.521   7.967  11.411
65273W        W30533  15.776   4.926  14.769
65274W        W30534  20.152  22.704   3.917
65275W        W30535  13.137   1.298   1.882
65276W        W30536  35.966  26.581  10.840
65277W        W30537  31.187   8.165   2.303
65278W        W30538  15.401  37.509   0.837
65279W        W30539  40.380  34.889  13.886
65280W        W30540  40.075  12.780   3.183
65281W        W30541  42.597   0.446  11.470
65282W        W30542   1.717  17.354   4.608
65283W        W30543   3.957  32.877   1.377
65284W        W30544  20.066   2.151   4.083
65285W        W30545  26.978  13.216   0.862
65286W        W30546  42.530   0.393   0.295
65287W        W30547  43.657  11.012   4.178
65288W        W30548  34.245  26.713  14.686
65289W        W30549  28.888  29.926  13.264
65290W        W30550  22.818  20.017   0.838
65291W        W30551  18.744  35.115  12.112
65292W        W30552  13.836  41.627   4.000
65293W        W30553  13.781  33.488  13.897
65294W        W30554   8.696  14.092  12.439
65295W        W30555  41.528   5.635  13.346
65296W        W30556  33.383  11.907  11.193
65297W        W30557  41.079  24.496   1.937
65298W        W30558   9.880   3.067   2.183
65299W        W30559  33.136  41.299  11.715
65300W        W30560   2.440  23.299  10.784
65301W        W30561  12.598   2.564  10.476
65302W        W30562  36.161   9.429  12.389
65303W        W30563  30.504  16.030  12.837
65304W        W30564   3.789  25.965   2.094
65305W        W30565  20.523  40.587   0.898
65306W        W30566  28.003  30.069   1.422
65307W        W30567  43.986  37.314   2.925
65308W        W30568  18.440  25.252   0.882
65309W        W30569  15.304  36.153   1.871
65310W        W30570  16.986   3.819  13.860
65311W        W30571  22.270  27.172   4.163
65312W        W30572  36.982   3.507  14.880
65313W        W30573  28.682  25.416   3.610
65314W        W30574  20.130  26.223   0.996
65315W        W30575  32.100  29.745   4.775
65316W        W30576  10.676  31.452   1.368
65317W        W30577  37.729  24.776   2.763
65318W        W30578  37.895  11.263   2.160
65319W        W30579  17.094  28.176   1.445
65320W        W30580  39.364  40.569  13.369
65321W        W30581  44.970  29.385  14.849
65322W        W30582  23.270  32.642  13.981
65323W        W30583  24.168  37.865  12.130
65324W        W30584  32.690  16.212   4.705
65325W        W30585   1.025  11.254  10.248
65326W        W30586  31.721  11.160   0.371
65327W        W30587  15.820  32.400   2.377
65328W        W30588  24.905  31.063   2.631
65329W        W30589  28.621  42.465  10.656
65330W        W30590  32.224  20.508   4.938
65331W        W30591  40.668  16.593   0.831
65332W        W30592  12.608   4.814   4.537
65333W        W30593  21.045   2.016   3.931
65334W        W30594  28.224  44.766   3.690
65335W        W30595  18.240  17.343  10.759
65336W        W30596   4.220  36.871   3.162
65337W        W30597  14.147  22.632  14.972
65338W        W30598  32.430  40.975   1.050
65339W        W30599  29.055  36.995  11.581
65340W        W30600  39.062  10.068   0.712
65341W        W30601  36.969   7.419  11.112
65342W        W30602   2.144  28.282   1.282
65343W        W30603   2.725  43.976   2.757
65344W        W30604  18.215  13.654  12.081
65345W        W30605  19.647  33.151   2.714
65346W        W30606  42.875  25.009   1.453
65347W        W30607  27.979  16.758  10.483
65348W        W30608  20.100  37.915   0.518
65349W        W30609   0.948  38.510  14.045
65350W        W30610  38.373   4.594  14.365
65351W        W30611   7.810  37.392   0.362
65352W        W30612  23.409  26.123  12.104
65353W        W30613   5.017  25.693  12.913
65354W        W30614  35.604  24.686  10.684
65355W        W30615   0.886  39.433  13.084
65356W        W30616  35.069  16.010  13.864
65357W        W30617  18.351  31.526  14.886
65358W        W30618  27.694   5.912  10.826
65359W        W30619  12.308   5.878  11.982
65360W        W30620   3.016  19.729  11.104
65361W        W30621   3.150  28.170   1.369
65362W        W30622  35.448  10.880  12.728
65363W        W30623   6.688  36.033   1.874
65364W        W30624  17.859  27.959   1.778
65365W        W30625  42.068   2.929   0.047
65366W        W30626  41.591  31.672  11.950
65367W        W30627  19.204  30.635   3.139
65368W        W30628  26.611   2.715  10.492
65369W        W30629  12.822  18.126   1.932
65370W        W30630  14.064   3.506  10.479
65371W        W30631  34.896  23.072   3.805
65372W        W30632   9.855   4.745   0.447
65373W        W30633  24.635  13.934  12.875
65374W        W30634  27.501  19.581  10.958
65375W        W30635   2.652  19.307   0.820
65376W        W30636  32.614  13.786   4.454
65377W        W30637  11.639   1.056   4.623
65378W        W30638  44.058  37.611   3.719
65379W        W30639  40.791  17.796   3.198
65380W        W30640  40.540  34.409   3.655
65381W        W30641  35.197  26.778   9.927
65382W        W30642  36.524  18.318  10.975
65383W        W30643   9.262  19.680  14.910
65384W        W30644   5.649  16.581  11.095
65385W        W30645  32.479  13.843  12.968
65386W        W30646   0.540  37.266   1.231
65387W        W30647  36.121  16.685   1.414
65388W        W30648   3.232  29.926   0.314
65389W        W30649   3.141   5.868  14.329
65390W        W30650  37.352   2.831   3.806
65391W        W30651  21.416  10.631  14.373
65392W        W30652  33.208  17.211   0.145
65393W        W30653   4.001  41.558   2.727
65394W        W30654  37.168  41.503   2.258
65395W        W30655  32.642  29.541  14.422
65396W        W30656  22.710  23.855   0.435
65397W        W30657  41.438  41.209  11.109
65398W        W30658  18.087   9.426  13.050
65399W        W30659  12.872  10.400  12.594
65400W        W30660  32.741  21.860  11.935
65401W        W30661  23.184  10.376   1.344
65402W        W30662   2.321  36.415  13.004
65403W        W30663   4.058  22.100   4.047
65404W        W30664  35.642  20.249   2.723
65405W        W30665   7.251  15.758   0.422
65406W        W30666  42.858  37.374  12.551
65407W        W30667   9.277   5.173  11.540
65408W        W30668  29.078  36.376  14.434
65409W        W30669  20.738   3.192   4.096
65410W        W30670   9.880  24.002  14.904
65411W        W30671  15.722  28.484  11.146
65412W        W30672  39.236  34.448   2.110
65413W        W30673   1.775  15.277   0.463
65414W        W30674   0.005   2.307   1.205
65415W        W30675  10.584   7.512   3.015
65416W        W30676  23.549  17.068   1.677
65417W        W30677  44.917  43.923  10.401
65418W        W30678  15.523  19.099  12.209
65419W        W30679   4.091  26.654  14.945
65420W        W30680  28.666   2.737  14.429
65421W        W30681  35.595   5.009  11.646
65422W        W30682  30.693  30.136  14.841
65423W        W30683  34.048  19.674  12.366
65424W        W30684  27.641  28.560  13.677
65425W        W30685  18.561   5.245   2.154
65426W        W30686  10.312  11.720   2.526
65427W        W30687  41.965  17.896  11.446
65428W        W30688   9.081   0.848  14.731
65429W        W30689  22.277   6.811  14.211
65430W        W30690  38.071  38.991   2.716
65431W        W30691  22.235  28.461   3.895
65432W        W30692  40.765  32.028   2.921
65433W        W30693  21.575  29.937   1.869
65434W        W30694  11.377  10.410   3.248
65435W        W30695  31.882  26.094  14.902
65436W        W30696   1.891  21.566   1.349
65437W        W30697  34.873   2.942  14.334
65438W        W30698  25.144  39.956   1.006
65439W        W30699  19.233   1.025  11.172
65440W        W30700  16.128   0.335   4.581
65441W        W30701   6.312  14.785   0.931
65442W        W30702  24.246  15.828   4.141
65443W        W30703  29.608  31.449  13.036
65444W        W30704  11.764  29.350  12.579
65445W        W30705  18.812  23.727  14.079
65446W        W30706  23.131  13.745  12.995
65447W        W30707   9.498  32.473  11.932
65448W        W30708   6.703  23.006  10.635
65449W        W30709  33.063   0.627   5.504
65450W        W30710  17.714  44.060   4.528
65451W        W30711   5.136  39.976  14.543
65452W        W30712   7.676  33.166   4.070
65453W        W30713   2.742   3.399  10.594
65454W        W30714  22.607  16.684  11.274
65455W        W30715   9.730  40.675   2.779
65456W        W30716  23.431  39.956   3.712
65457W        W30717  31.853  23.918  14.866
65458W        W30718  30.480  16.786   1.907
65459W        W30719  14.979  14.624  11.650
65460W        W30720   6.325  18.104  12.051
65461W        W30721   8.874  16.116  14.346
65462W        W30722   0.498  39.730  14.346
65463W        W30723  31.385  13.749  13.392
65464W        W30724  15.607  17.586  10.689
65465W        W30725  11.492  44.671   3.566
65466W        W30726  29.077  24.488   3.524
65467W        W30727   9.826  22.628   3.352
65468W        W30728  26.377  40.304   1.364
65469W        W30729  21.999   1.751  14.007
65470W        W30730   3.319   9.386  12.011
65471W        W30731  19.595  42.440   1.914
65472W        W30732   6.910  33.374  11.134
65473W        W30733  44.809   0.822   0.744
65474W        W30734  40.313  44.527   1.082
65475W        W30735  33.100  15.269   0.875
65476W        W30736  29.376  17.728   3.259
65477W        W30737  26.052   2.237   2.388
65478W        W30738  15.829  40.896  11.582
65479W        W30739  25.559  37.815  14.770
65480W        W30740  35.059   9.953  11.120
65481W        W30741  30.666   7.933   3.640
65482W        W30742  25.559  32.496   3.190
65483W        W30743   7.686  21.417  11.494
65484W        W30744  23.213   9.288   0.517
65485W        W30745  21.039  24.968   4.050
65486W        W30746  41.935  24.283   1.163
65487W        W30747   5.958   7.806  11.237
65488W        W30748  40.826   8.592  14.855
65489W        W30749  18.107  29.946   3.261
65490W        W30750  37.361  19.596  14.385
65491W        W30751  42.918  11.990  13.979
65492W        W30752  37.363  20.063  10.595
65493W        W30753   6.250   4.700   3.751
65494W        W30754  26.521  32.075  14.002
65495W        W30755  13.256   7.316  12.535
65496W        W30756   7.668  35.671  12.996
65497W        W30757  18.129  37.926   3.677
65498W        W30758  31.447  28.519  12.508
65499W        W30759  28.695  21.097  13.550
65500W        W30760  43.776  44.432   4.237
65501W        W30761   9.332   9.161  12.846
65502W        W30762  31.144  14.293   2.905
65503W        W30763  22.751  22.056  12.549
65504W        W30764  43.831  25.021  13.934
65505W        W30765  39.434  36.920  12.695
65506W        W30766  11.729  42.552   2.710
65507W        W30767   6.275   3.504  12.016
65508W        W30768  20.720  21.006   0.793
65509W        W30769  26.157  21.867  10.690
65510W        W30770   0.715   9.500  14.848
65511W        W30771   3.033  16.692  14.084
65512W        W30772  14.749  28.897   3.003
65513W        W30773  27.074  15.554   2.008
65514W        W30774  30.717  20.213   4.056
65515W        W30775   3.760  36.443   0.255
65516W        W30776  38.090  28.022  10.234
65517W        W30777   8.707  14.653  12.557
65518W        W30778  28.981  43.766   0.054
65519W        W30779   5.443  23.974  11.087
65520W        W30780  27.938   5.299  14.233
65521W        W30781  30.151  37.933  14.318
65522W        W30782  34.092   1.121   3.633
65523W        W30783  12.358  21.056  13.592
65524W        W30784  34.873  34.509  12.791
65525W        W30785  22.509  37.925   2.837
65526W        W30786  41.203  23.734   3.563
65527W        W30787  14.502  31.708   1.536
65528W        W30788  39.232  19.318  13.295
65529W        W30789   6.390  21.112   4.478
65530W        W30790   5.396  41.928  14.913
65531W        W30791  24.974  30.554   0.718
65532W        W30792  39.954   5.280   1.300
65533W        W30793  41.909  18.785   4.017
65534W        W30794  42.805  23.005   2.348
65535W        W30795  13.342  13.215  13.521
65536W        W30796  35.358  40.945  13.289
65537W        W30797  34.607  28.236  10.202
65538W        W30798  23.534  16.724   0.739
65539W        W30799  42.086  23.808  12.237
65540W        W30800  18.225  19.648  11.491
65541W        W30801  18.742  43.544  11.638
65542W        W30802  41.980  17.161  13.367
65543W        W30803   7.677  37.322   4.846
65544W        W30804   5.883  32.153  12.874
65545W        W30805  11.103   5.509  11.873
65546W        W30806  30.816  27.736   4.060
65547W        W30807  25.165  44.208   1.289
65548W        W30808   3.244  42.405  12.333
65549W        W30809  35.935  17.200   1.649
65550W        W30810  18.548  26.145   0.981
65551W        W30811  18.822   2.404   1.635
65552W        W30812   9.792  13.819   4.899
65553W        W30813  11.374   2.176   0.596
65554W        W30814  30.531  22.542   4.165
65555W        W30815  42.871  38.379  10.541
65556W        W30816   7.388  11.312   1.842
65557W        W30817  24.929  37.509   4.425
65558W        W30818  17.796  13.324  12.067
65559W        W30819   5.874  30.970   1.844
65560W        W30820  43.371  18.388   4.829
65561W        W30821  35.060  37.233  12.899
65562W        W30822   4.492  14.457   3.724
65563W        W30823   9.066  14.092   4.747
65564W        W30824  44.493  43.936   0.305
65565W        W30825  16.054  43.583   3.815
65566W        W30826  11.931  18.055  10.746
65567W        W30827   6.165  31.146  13.399
65568W        W30828  41.368  31.384  14.394
65569W        W30829  10.872  42.471   4.117
65570W        W30830  37.036  29.524  12.906
65571W        W30831   8.263  22.273   3.829
65572W        W30832  12.788  26.994   2.088
65573W        W30833  21.827  11.152   0.582
65574W        W30834  20.035  26.178   4.106
65575W        W30835  25.709  15.223   2.649
65576W        W30836  26.742  31.624   4.209
65577W        W30837  44.179  12.330   3.697
65578W        W30838  12.803   7.192   0.275
65579W        W30839  33.104  37.830  12.818
65580W        W30840  35.222  19.671  11.288
65581W        W30841   7.213  22.163   4.099
65582W        W30842  33.282  17.088  14.283
65583W        W30843  26.103  42.851  13.452
65584W        W30844  40.996  42.132  14.965
65585W        W30845   8.097  18.713  13.018
65586W        W30846  20.185  22.511   0.369
65587W        W30847  33.101   3.120   0.166
65588W        W30848  16.358  21.205   2.647
65589W        W30849  38.980  25.665  14.742
65590W        W30850   9.065   5.892  12.400
65591W        W30851  25.172  14.050  11.532
65592W        W30852   9.341  22.041  14.416
65593W        W30853  44.334  25.272   4.514
65594W        W30854  27.447  43.470   0.312
65595W        W30855   0.774  40.835   3.599
65596W        W30856  22.335  44.013  14.325
65597W        W30857  31.545  14.218   0.716
65598W        W30858  33.897  16.306   2.354
65599W        W30859  15.793  43.713  11.090
65600W        W30860  43.873  42.826  10.583
65601W        W30861  35.752   5.307   0.984
65602W        W30862  37.877  28.587   1.173
65603W        W30863  18.151   7.827   0.593
65604W        W30864  18.743   9.224  10.651
65605W        W30865   3.031   6.100   4.111
65606W        W30866  10.617  33.988  14.257
65607W        W30867  40.941  34.413  11.672
65608W        W30868  19.953  11.702   0.971
65609W        W30869  17.389  16.595  12.526
65610W        W30870  44.544  29.321  13.248
65611W        W30871  19.855  13.518  13.007
65612W        W30872   4.888  19.598  12.115
65613W        W30873  19.318  44.100   2.767
65614W        W30874   7.248  13.036  11.946
65615W        W30875  23.255   6.874   3.092
65616W        W30876   3.348   1.354   3.012
65617W        W30877  13.338  42.494  11.038
65618W        W30878   6.217   6.284  12.074
65619W        W30879  33.919  21.386  10.704
65620W        W30880  34.370  42.793  13.776
65621W        W30881  15.271  12.454   3.795
65622W        W30882  12.569  18.827  11.996
65623W        W30883  23.185   5.264  12.437
65624W        W30884   2.829  28.170   0.030
65625W        W30885  16.837  10.122  12.982
65626W        W30886  28.009  10.171  13.037
65627W        W30887   3.068  14.151   4.222
65628W        W30888  18.259  29.535   1.129
65629W        W30889  37.835   5.213   1.626
65630W        W30890  23.808  30.110   1.501
65631W        W30891  27.215  39.057  11.212
65632W        W30892   7.423  33.256  11.152
65633W        W30893  40.849  41.380  12.077
65634W        W30894   2.276  37.934   1.804
65635W        W30895  14.418  31.312   4.176
65636W        W30896  31.389  26.955   1.867
65637W        W30897  28.475  16.257   1.766
65638W        W30898  28.312  43.415   1.822
65639W        W30899  27.076  28.105  14.385
65640W        W30900   9.369  35.784  14.219
65641W        W30901  32.702  27.808   1.288
65642W        W30902   5.197   8.763   4.536
65643W        W30903  39.116  19.044  14.950
65644W        W30904   9.271  18.343   2.721
65645W        W30905  17.305  26.559  11.176
65646W        W30906   9.570  31.885   4.949
65647W        W30907   7.829  17.326  14.236
65648W        W30908  16.794   6.996  11.940
65649W        W30909  26.262  42.240  14.399
65650W        W30910  25.176  42.062  12.981
65651W        W30911   9.745  32.856  12.186
65652W        W30912   6.281  44.390   9.887
65653W        W30913   9.249  27.702  12.677
65654W        W30914   9.778  16.727  14.792
65655W        W30915   1.799  13.524   4.461
65656W        W30916  18.646  12.025  10.226
65657W        W30917   7.200  25.576  14.051
65658W        W30918   4.231  17.763  11.241
65659W        W30919   6.848  24.456  14.828
65660W        W30920  27.781   3.226  13.909
65661W        W30921  27.640  28.478  14.530
65662W        W30922  39.998  43.392   4.223
65663W        W30923  21.339  36.530   0.075
65664W        W30924  12.768   4.256  11.129
65665W        W30925  25.787  11.669   4.220
65666W        W30926  22.897  23.789   2.312
65667W        W30927   6.659  11.317  11.573
65668W        W30928   9.757   3.856   4.265
65669W        W30929   3.822   3.252   0.257
65670W        W30930  12.412  41.670   3.627
65671W        W30931   2.901  20.952  13.897
65672W        W30932  23.527   9.173  14.977
65673W        W30933   4.303  33.969  11.980
65674W        W30934   1.424   3.250  14.849
65675W        W30935  26.072   0.898   0.464
65676W        W30936  23.258   2.951  12.489
65677W        W30937  14.840  30.778  12.030
65678W        W30938   8.386   9.696  10.926
65679W        W30939  36.978  44.308  12.201
65680W        W30940  37.664  24.517  10.527
65681W        W30941  10.841  43.746   3.634
65682W        W30942  31.856  31.904   2.839
65683W        W30943  25.794  33.991  13.077
65684W        W30944   0.238  36.064   3.330
65685W        W30945  27.970  13.150  14.312
65686W        W30946  44.463  19.750   4.011
65687W        W30947  23.941  43.603  11.167
65688W        W30948   8.701  14.969  12.965
65689W        W30949  35.459  11.231   4.475
65690W        W30950  34.354  12.211   2.293
65691W        W30951   3.422   7.307  12.527
65692W        W30952  21.813  35.550  14.118
65693W        W30953  15.654  16.993  13.047
65694W        W30954  15.997  30.680   4.768
65695W        W30955  22.030   3.629  12.154
65696W        W30956   4.682  11.344   2.358
65697W        W30957  10.070  14.478   2.859
65698W        W30958  33.219  44.316   0.452
65699W        W30959  35.780   4.397  11.089
65700W        W30960  44.557  29.152   0.034
65701W        W30961  10.847   1.459  10.741
65702W        W30962  28.572  15.638  13.038
65703W        W30963  12.673   0.011   0.292
65704W        W30964  21.144  27.636  12.145
65705W        W30965   0.255   2.798   0.202
65706W        W30966  18.762  12.176   1.261
65707W        W30967  18.039  36.660   2.191
65708W        W30968  36.163  32.374  11.565
65709W        W30969  15.753  32.988   3.284
65710W        W30970  18.774   4.360   1.824
65711W        W30971   1.277  18.791  13.961
65712W        W30972  39.578  11.841  14.864
65713W        W30973  24.140  23.077  13.024
65714W        W30974  11.270   5.310   5.409
65715W        W30975   7.246   5.117   0.951
65716W        W30976  41.303  31.914  14.423
65717W        W30977   5.399   4.367  13.711
65718W        W30978   5.815  42.072  11.040
65719W        W30979  18.389  23.455   1.418
65720W        W30980  34.268   0.776   0.218
65721W        W30981   5.425  34.384  12.568
65722W        W30982  20.782   2.312  14.920
65723W        W30983  38.636  33.111  11.148
65724W        W30984  26.445   0.569  12.610
65725W        W30985  31.043  37.467  11.106
65726W        W30986   4.293  43.441  11.769
65727W        W30987  19.521  28.635   3.870
65728W        W30988  15.824  43.017  11.475
65729W        W30989  25.635  42.710  10.818
65730W        W30990  37.389  28.941   4.531
65731W        W30991  16.637  14.549  12.408
65732W        W30992  35.596  25.617  14.845
65733W        W30993   5.366  35.552  13.259
65734W        W30994  17.210   0.002  13.714
65735W        W30995  30.379  44.045  11.510
65736W        W30996  19.215   9.085   1.849
65737W        W30997  36.960  27.428   4.904
65738W        W30998  15.680  37.928   2.178
65739W        W30999  27.634  14.285   0.373
65740W        W31000  13.817   6.342  11.904
65741W        W31001   9.787   7.563  12.401
65742W        W31002  31.020  34.897   2.127
65743W        W31003  37.391  18.322  11.063
65744W        W31004  38.927  30.877  14.341
65745W        W31005  36.683  36.455  12.533
65746W        W31006  11.388  29.140   3.235
65747W        W31007   6.499  40.518  10.909
65748W        W31008  22.950  16.075   3.529
65749W        W31009  15.669  32.415  12.859
65750W        W31010  20.461  39.235  14.891
65751W        W31011  26.271  10.583  12.883
65752W        W31012  39.458  11.266   2.888
65753W        W31013  19.292   4.845   1.368
65754W        W31014  17.025   3.133  14.453
65755W        W31015  43.515  21.604   0.984
65756W        W31016  40.017  16.546  10.877
65757W        W31017  31.576  23.445  11.948
65758W        W31018   7.582  11.604  12.095
65759W        W31019   3.845  41.594  12.117
65760W        W31020  41.487   0.433  14.526
65761W        W31021   5.645   8.133  14.965
65762W        W31022   2.500   9.970  11.377
65763W        W31023  12.841  13.735  10.731
65764W        W31024  26.738   7.527   4.675
65765W        W31025  42.662  18.169  11.649
65766W        W31026  31.526  27.497  11.556
65767W        W31027  43.894   8.257   2.883
65768W        W31028  16.085   9.645  11.933
65769W        W31029   6.165   1.340  12.018
65770W        W31030  22.965  21.963  13.012
65771W        W31031  32.696   6.898  12.948
65772W        W31032   4.337   0.393   3.634
65773W        W31033  27.884  39.410  14.021
65774W        W31034  17.905  33.061   0.965
65775W        W31035  22.750  36.692   2.184
65776W        W31036  23.719  39.393   2.302
65777W        W31037  30.419  29.975  14.415
65778W        W31038   9.377  36.435  13.522
65779W        W31039  34.998  26.261   3.698
65780W        W31040  30.263  37.276   4.092
65781W        W31041  16.786  22.715  11.206
65782W        W31042   3.863  13.591  10.892
65783W        W31043  29.369  32.435  13.531
65784W        W31044   3.997  39.416  13.888
65785W        W31045  44.841   5.742  11.537
65786W        W31046   3.452  12.798   3.204
65787W        W31047  36.486  43.483   0.900
65788W        W31048   7.515   4.321   0.731
65789W        W31049  11.865  10.312  10.671
65790W        W31050  31.390   9.217   4.657
65791W        W31051   9.355  19.484  10.786
65792W        W31052   6.766   1.556  13.532
65793W        W31053   4.200  43.477  13.899
65794W        W31054   2.038  37.732   4.122
65795W        W31055  28.189  39.535   2.717
65796W        W31056  25.683  17.096   4.189
65797W        W31057  34.803  13.812  11.927
65798W        W31058  20.799  27.030   0.387
65799W        W31059  40.878  25.962  10.392
65800W        W31060  44.492  27.976  11.327
65801W        W31061  31.731  38.800   1.141
65802W        W31062  32.010  21.081   4.047
65803W        W31063   7.682  26.386  11.771
65804W        W31064   6.468  10.453   3.123
65805W        W31065  27.029  12.948  11.490
65806W        W31066   9.267   1.364   2.712
65807W        W31067   2.898  39.452  11.210
65808W        W31068  16.739   4.856  11.372
65809W        W31069  30.141  22.765   1.669
65810W        W31070  23.128  11.550  14.368
65811W        W31071  38.129  33.971  12.965
65812W        W31072  38.881  38.508  10.274
65813W        W31073  39.676  19.692   1.462
65814W        W31074  15.611  10.603  14.882
65815W        W31075  18.619  42.881   3.823
65816W        W31076   7.884  32.941   1.406
65817W        W31077  27.987  30.446   0.286
65818W        W31078  30.276   7.192  10.876
65819W        W31079  40.469  18.266  10.140
65820W        W31080   9.106   2.002   2.083
65821W        W31081   7.771   8.409  14.305
65822W        W31082  31.198  16.148  11.130
65823W        W31083   2.750   2.494  14.321
65824W        W31084  27.041  14.575   1.893
65825W        W31085   9.675  10.897   4.596
65826W        W31086  13.615  10.082   2.735
65827W        W31087  16.248  14.024   4.855
65828W        W31088  10.829  26.780  14.877
65829W        W31089  32.896  38.491  12.093
65830W        W31090  17.757  31.132  14.341
65831W        W31091  10.594  27.161  12.073
65832W        W31092   6.818  43.569  11.154
65833W        W31093   7.779  38.711  12.003
65834W        W31094  22.768  23.599  14.933
65835W        W31095  15.039  35.853   2.208
65836W        W31096  32.931  19.029  12.944
65837W        W31097   4.706  27.483  12.984
65838W        W31098  32.546   1.957  13.016
65839W        W31099  44.965   9.659   3.581
65840W        W31100  21.726   7.910  13.118
65841W        W31101   3.216  30.610   4.120
65842W        W31102  16.834  43.750   1.363
65843W        W31103  23.380  35.317  14.354
65844W        W31104  15.214  44.305   3.413
65845W        W31105  24.438  39.970  12.603
65846W        W31106  29.636   2.242   0.193
65847W        W31107  29.225  31.477   2.621
65848W        W31108  18.526  21.782   4.591
65849W        W31109  17.180   6.164   0.624
65850W        W31110  27.829   7.118  12.175
65851W        W31111   4.513  36.650  14.047
65852W        W31112   8.856  19.086   4.557
65853W        W31113  40.017  33.715   3.780
65854W        W31114  14.615   4.197   2.191
65855W        W31115  35.016  28.515   4.005
65856W        W31116  25.971  42.355  13.434
65857W        W31117   9.022  25.579   3.624
65858W        W31118  36.075   1.806   3.183
65859W        W31119  17.637  21.417   1.766
65860W        W31120   6.297  14.985  12.572
65861W        W31121  35.966  12.272   2.255
65862W        W31122   4.470  26.917  12.875
65863W        W31123  34.992  15.004   0.477
65864W        W31124   9.374  43.350  12.877
65865W        W31125   3.486  14.097   1.206
65866W        W31126   3.467  42.012  10.782
65867W        W31127  17.713  41.990   2.844
65868W        W31128  34.993  43.938   3.143
65869W        W31129   2.998  23.976   2.584
65870W        W31130  43.002  19.605  10.763
65871W        W31131  10.249  33.477   1.902
65872W        W31132  44.897  22.481  14.330
65873W        W31133  28.175  39.347  11.514
65874W        W31134  21.066  32.435  14.095
65875W        W31135   1.470   1.255   3.364
65876W        W31136   6.559  43.043  14.630
65877W        W31137  21.581  18.072  10.678
65878W        W31138  16.754  35.573   0.277
65879W        W31139  16.120   5.975   1.657
65880W        W31140  42.046  14.555  13.423
65881W        W31141   2.173  34.226  12.685
65882W        W31142   6.211  18.540   3.587
65883W        W31143  37.532   5.208  13.923
65884W        W31144   7.391   7.360   2.767
65885W        W31145  31.073  34.869  12.144
65886W        W31146  42.502  10.434  14.884
65887W        W31147  17.472  30.390  12.065
65888W        W31148  35.966   4.181   3.268
65889W        W31149  15.555  27.914   4.517
65890W        W31150  27.092   7.885   0.787
65891W        W31151  41.339  34.371  11.221
65892W        W31152  31.538  35.353  11.575
65893W        W31153  11.371  26.614  13.020
65894W        W31154  15.937  42.442  10.643
65895W        W31155  40.084  14.929   3.741
65896W        W31156  10.742  38.970   3.865
65897W        W31157  38.478  34.055  13.343
65898W        W31158  18.581  18.124  14.361
65899W        W31159  44.225  43.569   3.817
65900W        W31160  17.986  26.138  11.167
65901W        W31161  21.004  14.282  12.489
65902W        W31162  21.452   9.727  14.493
65903W        W31163   1.803  33.517  11.590
65904W        W31164  41.387  11.866  12.090
65905W        W31165  33.489  38.070  11.102
65906W        W31166  32.501  21.064  11.558
65907W        W31167  19.370  24.703   1.263
65908W        W31168  27.280  16.796  12.724
65909W        W31169  37.183  14.521   0.399
65910W        W31170   1.734   3.489   3.754
65911W        W31171  35.321  22.769  12.544
65912W        W31172  27.085  38.308  14.907
65913W        W31173  40.600  29.132  14.445
65914W        W31174  13.898  36.634   0.312
65915W        W31175  27.541  27.543  13.979
65916W        W31176  18.805  25.041  14.852
65917W        W31177  24.630  13.136  11.961
65918W        W31178  31.058   4.719  14.827
65919W        W31179   2.353  25.273   2.148
65920W        W31180  20.751   0.357  10.648
65921W        W31181   7.654  40.237   3.719
65922W        W31182  25.385  12.356   4.972
65923W        W31183  42.102  30.009  11.026
65924W        W31184   6.972   5.902   2.219
65925W        W31185  30.078  18.793   0.032
65926W        W31186  15.692  26.902   2.804
65927W        W31187   3.686   8.012   1.672
65928W        W31188  14.777  39.301  12.532
65929W        W31189  19.336  31.812  12.025
65930W        W31190  18.196   3.238  12.942
65931W        W31191   1.933  35.558   0.038
65932W        W31192   2.985  24.400  10.298
65933W        W31193  38.610  41.512  13.324
65934W        W31194   4.323  35.490  13.260
65935W        W31195  29.538  27.413  11.779
65936W        W31196  30.208  28.331  13.808
65937W        W31197   1.951  17.219   3.139
65938W        W31198   4.425  19.848   3.285
65939W        W31199  19.153  29.485   2.540
65940W        W31200  16.582   1.749  11.998
65941W        W31201   1.719  19.936  12.564
65942W        W31202  44.521  35.385   3.230
65943W        W31203  41.034   0.693   4.931
65944W        W31204  43.294   4.417  13.924
65945W        W31205  37.300  13.127   1.545
65946W        W31206  15.048  32.643  11.197
65947W        W31207  12.441  28.343   0.705
65948W        W31208   6.278  17.335  12.412
65949W        W31209  13.693   7.202  13.335
65950W        W31210  42.844  34.161  13.045
65951W        W31211  15.137  10.794   3.647
65952W        W31212  35.880  19.346  10.798
65953W        W31213  32.096  16.656  13.435
65954W        W31214  21.949   4.669   1.388
65955W        W31215  32.832  43.845   3.156
65956W        W31216  12.818  33.372  13.552
65957W        W31217  33.938  33.541  12.086
65958W        W31218  23.624  41.993   3.618
65959W        W31219  18.590  21.471   2.891
65960W        W31220  14.720  34.132  13.559
65961W        W31221   4.479   3.057   2.845
65962W        W31222   6.973   5.697  10.747
65963W        W31223  15.720  23.477   1.222
65964W        W31224  11.162  40.306   3.836
65965W        W31225  44.011  12.869   2.173
65966W        W31226  19.021  18.571   2.768
65967W        W31227   7.941  13.211   1.761
65968W        W31228  39.294  18.696   1.300
65969W        W31229   6.195  28.261   1.386
65970W        W31230   5.369  22.121   4.474
65971W        W31231   3.906  17.366  12.502
65972W        W31232  39.590  27.112  13.776
65973W        W31233  24.924  41.812   0.534
65974W        W31234  27.718  18.897   4.198
65975W        W31235  44.730  10.819  11.954
65976W        W31236   7.794  30.930   4.561
65977W        W31237  28.562  29.760   1.855
65978W        W31238  15.366  28.095   3.248
65979W        W31239  42.967  29.958   3.182
65980W        W31240  29.996  16.054   2.260
65981W        W31241  11.883  26.299   4.372
65982W        W31242  19.877   4.637   5.403
65983W        W31243  24.150   9.355   3.494
65984W        W31244  12.632  14.345  12.481
65985W        W31245  36.360  27.963  10.602
65986W        W31246  16.847  26.925   1.266
65987W        W31247  20.729  10.387  12.881
65988W        W31248  11.357  12.567  13.504
65989W        W31249   9.772  31.705   3.280
65990W        W31250   4.821  44.263  11.944
65991W        W31251  30.463  35.828  11.652
65992W        W31252  36.310   8.856  14.038
65993W        W31253  17.273  31.738   4.080
65994W        W31254  20.119  26.914  14.626
65995W        W31255   9.101  26.185   1.868
65996W        W31256  41.875  21.544   4.227
65997W        W31257  15.674  26.901  11.369
65998W        W31258  11.573  29.740  13.436
65999W        W31259   7.330  28.650  13.594
66000W        W31260  28.914  22.012  10.785
66001W        W31261  40.877  44.462   2.815
66002W        W31262  40.874   2.369   1.880
66003W        W31263  40.977  16.541  12.066
66004W        W31264  15.130  27.768  12.003
66005W        W31265  23.521   5.201  13.938
66006W        W31266  44.571  24.768   3.258
66007W        W31267  26.208  33.333  10.672
66008W        W31268   8.785  31.298   3.321
66009W        W31269  31.872  27.285   0.753
66010W        W31270  30.339  27.224  10.457
66011W        W31271  15.775   5.745   0.218
66012W        W31272  44.228  32.415  10.826
66013W        W31273  16.579  40.676  11.117
66014W        W31274  19.522  26.183   2.723
66015W        W31275  14.896  19.245   1.751
66016W        W31276  28.891  14.191   1.388
66017W        W31277  39.799   7.122  11.666
66018W        W31278   2.209  42.940   4.151
66019W        W31279  10.366  36.245   4.064
66020W        W31280  32.094  41.467   2.016
66021W        W31281   9.649  29.193   0.182
66022W        W31282   8.047  14.313   0.821
66023W        W31283  43.907   9.674   2.510
66024W        W31284  35.025   9.264   2.545
66025W        W31285  10.660   6.954   0.365
66026W        W31286  19.295  26.278  11.477
66027W        W31287  24.391  42.977   0.586
66028W        W31288  16.836  36.517  11.678
66029W        W31289   1.824  44.271  14.519
66030W        W31290  37.068   6.665  11.319
66031W        W31291  40.433  42.505  14.563
66032W        W31292  44.965  25.031  14.358
66033W        W31293  12.649  32.659   0.371
66034W        W31294  37.017  39.849  12.325
66035W        W31295   8.364  35.063  11.662
66036W        W31296  20.168   9.320  14.307
66037W        W31297  14.991  35.974   3.314
66038W        W31298   1.288  16.139   0.411
66039W        W31299  11.131   3.784  13.503
66040W        W31300  31.288  15.348   3.952
66041W        W31301  31.017  23.074   4.544
66042W        W31302   1.962  23.723   4.532
66043W        W31303  30.686   5.197  13.395
66044W        W31304  11.528  22.538  12.081
66045W        W31305   1.655  29.177  13.361
66046W        W31306   3.818  31.207  14.493
66047W        W31307   2.328   9.149   2.163
66048W        W31308  10.877   5.348   1.806
66049W        W31309  44.250  38.384   2.882
66050W        W31310  24.577  32.549  10.995
66051W        W31311  30.545   5.716  13.228
66052W        W31312  17.226  11.310  12.601
66053W        W31313  26.051  23.898  14.559
66054W        W31314  15.670  28.689  14.863
66055W        W31315  19.970  34.252   1.340
66056W        W31316  31.859  36.999  14.532
66057W        W31317  16.506  28.205  13.880
66058W        W31318  30.106  41.602  11.242
66059W        W31319  19.596   4.176   3.302
66060W        W31320  23.445  27.359   4.098
66061W        W31321  26.280  37.409  14.048
66062W        W31322   4.781   9.760  13.173
66063W        W31323  37.433  15.721   1.679
66064W        W31324  16.003   2.421   3.260
66065W        W31325   7.267  29.609   4.991
66066W        W31326   2.337  35.896   1.239
66067W        W31327   2.347  20.554   3.986
66068W        W31328  35.605  37.820   3.515
66069W        W31329  36.220   6.146  14.493
66070W        W31330  42.874  27.841  13.516
66071W        W31331  37.568   5.229   4.295
66072W        W31332  38.791  35.483   0.780
66073W        W31333  19.265  39.468  14.282
66074W        W31334  15.970  15.365   2.261
66075W        W31335  17.850   4.867  14.064
66076W        W31336  11.428  29.460  13.006
66077W        W31337  26.222  29.639   1.506
66078W        W31338   6.538  20.188  12.857
66079W        W31339  33.990  10.435   3.741
66080W        W31340  20.049  42.221  12.081
66081W        W31341  31.305  42.963   1.319
66082W        W31342  43.390  23.789  12.364
66083W        W31343  16.557   5.778  10.906
66084W        W31344  15.604  27.399   1.680
66085W        W31345  25.078  32.615  12.105
66086W        W31346  15.735  26.178  14.773
66087W        W31347  23.003  44.248   1.352
66088W        W31348  14.327  17.200  12.508
66089W        W31349  43.940  30.842   1.847
66090W        W31350  14.907  40.900   2.498
66091W        W31351   7.968   8.836  12.315
66092W        W31352  10.658   7.826  12.600
66093W        W31353   4.792  21.111   0.523
66094W        W31354  44.971  28.341   0.370
66095W        W31355  27.573  37.784   2.002
66096W        W31356  40.776  13.144  13.934
66097W        W31357  34.806  43.967  11.817
66098W        W31358  14.174  12.350   4.464
66099W        W31359   2.930  30.887  11.513
66100W        W31360  28.213  35.209   4.610
66101W        W31361  44.785  32.914  11.475
66102W        W31362   7.912  42.835  12.680
66103W        W31363   0.141  28.079   4.221
66104W        W31364  31.015  36.922  11.214
66105W        W31365  27.470  15.740  14.305
66106W        W31366   7.298   3.665   4.563
66107W        W31367  34.476  19.913  10.486
66108W        W31368  38.093  19.772  13.893
66109W        W31369  12.076  13.799  13.054
66110W        W31370   6.620  12.706   3.548
66111W        W31371  30.824  18.143  10.753
66112W        W31372  18.114   2.833   2.289
66113W        W31373  14.277  41.106   0.949
66114W        W31374  28.097  11.326  10.334
66115W        W31375  27.945  11.577  12.497
66116W        W31376  16.894  37.332   3.845
66117W        W31377  23.837  15.689  14.067
66118W        W31378  20.808   1.601  11.138
66119W        W31379  23.741  39.764   1.270
66120W        W31380  27.163   8.816   0.721
66121W        W31381  11.377  27.206  12.501
66122W        W31382  40.317   2.990   2.419
66123W        W31383   9.762  28.000   1.188
66124W        W31384  28.548  28.585  11.184
66125W        W31385  37.967  34.407  11.507
66126W        W31386  21.645  17.832  10.243
66127W        W31387  20.556  20.638   3.759
66128W        W31388  38.587  27.111   3.306
66129W        W31389   4.374  44.415  14.074
66130W        W31390   9.908  40.363  13.571
66131W        W31391   5.142  31.812  12.349
66132W        W31392  33.892  20.986  11.594
66133W        W31393  26.460  33.651  11.061
66134W        W31394   1.510  14.166  12.424
66135W        W31395  29.113  29.110  13.893
66136W        W31396  17.185  21.179   1.981
66137W        W31397  38.586  42.011   2.643
66138W        W31398  37.431  41.482   1.780
66139W        W31399  11.080   8.982  10.730
66140W        W31400  34.819  32.829  14.430
66141W        W31401  30.860  10.364   2.408
66142W        W31402  13.358  24.796  13.307
66143W        W31403  23.434  39.003   0.634
66144W        W31404   0.855   0.302   3.314
66145W        W31405  35.590  25.283   4.297
66146W        W31406  44.510   2.284   1.342
66147W        W31407  10.094  42.927  11.110
66148W        W31408  35.337  20.177   1.874
66149W        W31409   4.730  28.193  13.338
66150W        W31410  28.917  44.880   0.978
66151W        W31411  37.496  44.317   0.832
66152W        W31412  27.886  13.644  11.630
66153W        W31413  44.114  32.523  12.529
66154W        W31414  11.788   1.354  12.518
66155W        W31415  22.783  28.060  12.471
66156W        W31416  19.838   3.016  11.482
66157W        W31417  38.188   3.909  13.853
66158W        W31418  32.347  30.936   4.094
66159W        W31419  37.932  15.614  13.838
66160W        W31420   0.224   8.106   4.263
66161W        W31421  34.833  24.102  10.401
66162W        W31422  42.287  19.728   4.655
66163W        W31423  32.951  14.712   3.870
66164W        W31424  42.837  42.365   4.072
66165W        W31425  10.701  41.223  11.235
66166W        W31426   4.529  18.079  11.632
66167W        W31427  27.602  34.071   3.617
66168W        W31428  26.785  18.171   2.089
66169W        W31429  44.492  29.816   2.091
66170W        W31430  15.614  39.858   4.410
66171W        W31431  11.395  25.396  11.445
66172W        W31432  10.193  14.615   0.468
66173W        W31433   7.880  23.595  10.366
66174W        W31434  28.694  37.189  14.518
66175W        W31435  39.036   5.181  12.323
66176W        W31436   1.835  14.302   2.176
66177W        W31437  11.309  25.711  12.913
66178W        W31438  15.740  36.317  14.509
66179W        W31439  19.279  28.520  14.512
66180W        W31440  27.982  33.155   0.398
66181W        W31441  19.619  41.281   2.429
66182W        W31442  19.698  12.623  13.623
66183W        W31443  24.461  13.733  10.986
66184W        W31444  32.134  31.676   1.693
66185W        W31445   0.368  26.214   3.087
66186W        W31446   5.354  22.432  10.185
66187W        W31447  33.001  18.018  13.062
66188W        W31448   2.451  37.892   2.789
66189W        W31449  12.381  10.165   0.350
66190W        W31450  36.447  10.934  14.338
66191W        W31451  25.296   9.237  10.701
66192W        W31452  32.197  27.982   1.319
66193W        W31453  38.862   5.369   1.828
66194W        W31454  39.024   4.167   2.271
66195W        W31455  17.211   7.455   3.317
66196W        W31456  22.524   0.818  12.524
66197W        W31457  33.070  19.231   4.621
66198W        W31458  30.749  35.502   0.376
66199W        W31459  22.687   3.054  11.159
66200W        W31460  22.083  13.989  11.555
66201W        W31461  23.574  39.090   0.137
66202W        W31462  43.128   7.524  13.919
66203W        W31463  17.179  18.616  11.536
66204W        W31464  23.597  19.806   2.297
66205W        W31465  10.833  42.291   0.820
66206W        W31466  14.753  43.421  14.885
66207W        W31467   0.367   7.757   3.846
66208W        W31468  29.371  14.621  14.910
66209W        W31469  35.800   8.755   4.856
66210W        W31470  11.545  13.282   4.957
66211W        W31471  20.754   4.143   3.516
66212W        W31472  40.518  34.404   4.769
66213W        W31473  11.337  23.883   2.749
66214W        W31474  18.707  39.376  13.470
66215W        W31475   7.373  13.931  12.767
66216W        W31476  25.046  16.924   4.023
66217W        W31477  31.562   1.940  11.067
66218W        W31478  19.201   8.273  12.048
66219W        W31479   5.667   9.348   2.344
66220W        W31480  39.076  33.622   1.975
66221W        W31481  36.156  11.681  14.924
66222W        W31482  36.151   7.382  14.021
66223W        W31483  28.592   7.615  12.564
66224W        W31484  20.067  17.260  13.418
66225W        W31485   7.824  17.582   1.157
66226W        W31486  16.722   9.944   2.821
66227W        W31487  11.370  16.295   4.545
66228W        W31488  23.741  21.160  12.460
66229W        W31489  22.246  16.875   2.285
66230W        W31490  40.232  26.502  11.111
66231W        W31491   4.949   8.380   2.351
66232W        W31492   4.086   5.351   0.479
66233W        W31493  25.601  34.141   2.479
66234W        W31494  27.936  24.102  12.051
66235W        W31495  29.400  21.499  10.650
66236W        W31496  41.997  15.737   4.183
66237W        W31497  28.442  28.163   1.334
66238W        W31498  39.782   6.989   1.664
66239W        W31499   0.919   8.844  12.849
66240W        W31500  15.599  30.862  14.454
66241W        W31501  21.299  24.271  13.748
66242W        W31502  26.495  44.941  14.732
66243W        W31503  44.571   3.241  12.038
66244W        W31504   4.598  15.969   0.783
66245W        W31505  18.992  36.506  12.103
66246W        W31506   3.851  24.648   4.708
66247W        W31507   6.887  33.731   0.462
66248W        W31508   4.569   1.834   3.727
66249W        W31509   6.700  33.269   1.355
66250W        W31510  17.990  13.213  13.931
66251W        W31511  40.833  25.798   0.236
66252W        W31512   6.010  43.650  13.520
66253W        W31513  13.984  37.499  10.949
66254W        W31514  24.832   4.915   2.245
66255W        W31515   1.389  11.351  12.292
66256W        W31516   3.653  23.639  11.483
66257W        W31517  15.395  16.266  13.343
66258W        W31518   1.101  10.942  14.316
66259W        W31519  10.854   8.247  14.868
66260W        W31520  10.880   1.347  14.960
66261W        W31521   7.205   8.897  11.585
66262W        W31522   9.761  42.414  12.214
66263W        W31523   5.762  10.352   0.558
66264W        W31524  13.056  22.659  14.436
66265W        W31525  23.982   6.704  11.552
66266W        W31526   5.243  10.811  10.976
66267W        W31527  24.392  16.660  11.561
66268W        W31528  24.186  33.415  10.716
66269W        W31529  15.615  28.306   3.698
66270W        W31530  23.270  39.495  12.971
66271W        W31531   7.375  25.985  14.789
66272W        W31532  13.572  40.278  13.048
66273W        W31533  10.326  19.349   2.757
66274W        W31534  22.135  12.143  11.507
66275W        W31535  22.662  32.580   4.509
66276W        W31536  43.919  12.920  12.195
66277W        W31537  34.035  30.125  14.764
66278W        W31538  43.355  24.787  13.843
66279W        W31539  30.363   6.825   3.304
66280W        W31540  38.568  34.873  11.960
66281W        W31541  23.596  14.700   2.617
66282W        W31542  30.595   7.289   3.289
66283W        W31543  20.252  28.912  10.699
66284W        W31544  32.418  43.707  11.980
66285W        W31545  43.742   1.473   3.474
66286W        W31546  44.477   2.259  12.023
66287W        W31547  39.033   8.295  13.662
66288W        W31548  13.159  36.058   4.166
66289W        W31549  31.599   7.277  11.049
66290W        W31550   8.778   5.956   4.186
66291W        W31551   3.889  33.380  11.476
66292W        W31552  14.305  27.749   2.740
66293W        W31553  43.146   2.896  11.914
66294W        W31554  43.520  16.036   3.724
66295W        W31555   2.950  22.750  11.321
66296W        W31556  20.675  35.635  12.934
66297W        W31557  37.527   0.310   0.714
66298W        W31558  13.591  32.113  10.310
66299W        W31559   8.431  42.835   1.936
66300W        W31560  39.057   4.677   2.430
66301W        W31561  42.001  24.525  14.292
66302W        W31562  36.110   8.339   4.079
66303W        W31563  19.724  19.600   0.270
66304W        W31564   7.894  10.641  10.628
66305W        W31565  25.472   6.654   1.468
66306W        W31566  31.399  11.775   3.657
66307W        W31567  30.996  16.634  14.900
66308W        W31568  22.342  26.962  11.042
66309W        W31569   8.287   3.717   1.142
66310W        W31570  41.563   0.815   2.395
66311W        W31571   8.682  27.272  13.470
66312W        W31572  41.745  35.226   1.351
66313W        W31573   3.826  11.619  14.803
66314W        W31574  11.326  43.054  10.514
66315W        W31575  26.498  14.799  10.797
66316W        W31576  31.566  26.385  14.622
66317W        W31577   5.231  31.942  10.641
66318W        W31578  37.951  31.705  13.451
66319W        W31579   2.443  38.106   4.102
66320W        W31580   0.899  37.588  14.870
66321W        W31581   1.766   4.331   2.852
66322W        W31582  33.624  24.530  12.940
66323W        W31583  17.268  38.354  11.148
66324W        W31584   2.851  31.276  12.991
66325W        W31585   5.460   5.777  10.589
66326W        W31586  15.060  10.826   4.524
66327W        W31587   0.261   4.946   4.727
66328W        W31588  37.044   8.398   4.091
66329W        W31589  29.137  11.782  13.324
66330W        W31590  41.892  40.336  12.629
66331W        W31591  17.773  21.119  13.176
66332W        W31592   3.726  21.653   0.035
66333W        W31593  33.963   5.157   3.630
66334W        W31594   8.666  26.229   1.222
66335W        W31595  15.745  37.538  12.463
66336W        W31596  19.377  14.330  12.179
66337W        W31597  42.341  10.631   3.680
66338W        W31598  43.452   6.679  14.156
66339W        W31599  20.131  35.443   4.588
66340W        W31600  10.539   0.534  14.531
66341W        W31601  43.713  18.676   3.556
66342W        W31602  19.181  17.504  11.165
66343W        W31603  33.570  23.051   0.355
66344W        W31604  26.795  41.147   5.100
66345W        W31605  36.049  40.204  11.032
66346W        W31606  32.326   3.857   0.423
66347W        W31607  14.772  19.042   1.217
66348W        W31608  11.609   0.257   0.367
66349W        W31609  37.103   1.488  12.992
66350W        W31610   1.925   8.848   2.242
66351W        W31611  34.836   0.792  10.645
66352W        W31612  21.700  25.746  10.723
66353W        W31613   6.473  18.251   0.807
66354W        W31614  18.175  39.561   1.789
66355W        W31615  42.571  30.456   1.918
66356W        W31616  23.360  40.964   3.446
66357W        W31617  34.453  13.637  14.383
66358W        W31618  13.666  20.431   1.872
66359W        W31619   9.957  27.441   4.954
66360W        W31620   4.777  13.839   1.995
66361W        W31621  21.084  35.105  14.739
66362W        W31622  10.229  31.650  14.381
66363W        W31623   5.668  14.243  11.128
66364W        W31624  29.395  15.003   4.121
66365W        W31625   0.092   6.695   0.844
66366W        W31626  36.530   9.150   1.458
66367W        W31627   7.794  28.737  12.890
66368W        W31628   9.423  20.232   2.314
66369W        W31629   6.655  13.381  14.826
66370W        W31630  10.507   4.968   5.072
66371W        W31631  34.836  23.104   0.865
66372W        W31632  32.598  19.899  14.783
66373W        W31633  34.171  43.355  14.403
66374W        W31634  33.455  10.611  10.839
66375W        W31635  27.707  23.027   4.245
66376W        W31636   2.279  28.144  10.586
66377W        W31637  28.641   5.333  11.461
66378W        W31638  29.381  26.054   3.415
66379W        W31639  42.825  39.232   3.504
66380W        W31640  32.359  37.438  12.769
66381W        W31641  38.542  35.548   3.698
66382W        W31642   5.568  39.361  13.094
66383W        W31643   0.031  43.011   3.263
66384W        W31644  12.839   0.260   0.717
66385W        W31645  15.284  26.379  14.077
66386W        W31646  41.511  26.504  13.311
66387W        W31647   7.739  27.392   2.299
66388W        W31648  15.589   3.472   0.929
66389W        W31649   7.394  33.939   0.934
66390W        W31650   6.172   1.723   4.116
66391W        W31651   9.560   8.333   5.103
66392W        W31652  41.984  26.073   4.090
66393W        W31653  34.910   4.927  12.863
66394W        W31654  29.117   9.902  13.012
66395W        W31655  27.562  28.456   2.789
66396W        W31656  21.183  31.994  13.798
66397W        W31657  24.020  36.129   0.212
66398W        W31658  14.204  29.359   3.413
66399W        W31659  40.044   1.801   2.344
66400W        W31660  13.027   8.440  11.305
66401W        W31661  15.619  26.650   4.028
66402W        W31662   5.795  16.053   3.502
66403W        W31663   3.949  35.878   3.306
66404W        W31664  44.349  17.159   0.302
66405W        W31665  41.289  20.398   3.609
66406W        W31666  12.673   8.622  13.444
66407W        W31667   6.105  22.160  14.337
66408W        W31668   5.137  29.259  11.199
66409W        W31669   6.580  14.150   4.420
66410W        W31670  36.429  38.784  12.374
66411W        W31671  36.017  22.474   4.203
66412W        W31672  18.599  39.148   2.778
66413W        W31673   3.851  14.758  11.177
66414W        W31674   2.675  39.924  11.902
66415W        W31675   5.464  17.998  14.922
66416W        W31676  12.921  32.669   3.221
66417W        W31677  36.048   7.250   2.624
66418W        W31678   7.333  10.542  14.673
66419W        W31679   7.187  26.914   1.737
66420W        W31680  42.501  21.657   2.892
66421W        W31681   4.353  11.747  14.826
66422W        W31682  32.598  25.766   4.196
66423W        W31683  16.209  22.135   2.525
66424W        W31684  11.598  14.292  14.835
66425W        W31685  12.708  23.780  13.927
66426W        W31686   1.213  26.987  13.170
66427W        W31687  19.883  25.130  10.806
66428W        W31688  26.183  43.868   0.451
66429W        W31689  20.199   3.872   4.421
66430W        W31690  10.277  35.327  11.159
66431W        W31691  21.240   7.510  11.627
66432W        W31692  15.806  22.600  12.476
66433W        W31693  12.626  31.250  11.913
66434W        W31694   3.140  17.480   3.101
66435W        W31695   7.217   2.874   4.165
66436W        W31696  24.062   4.020   1.810
66437W        W31697  16.195  28.482  11.347
66438W        W31698  15.152  16.350  11.065
66439W        W31699  33.473  41.858  10.530
66440W        W31700  25.174  16.516  12.113
66441W        W31701   4.219  11.678  10.736
66442W        W31702   9.656  19.060   3.854
66443W        W31703  39.888   0.722   1.708
66444W        W31704  10.414  10.111   2.315
66445W        W31705   7.664   7.378  13.327
66446W        W31706  27.102  27.976   0.926
66447W        W31707  10.820  22.681  10.730
66448W        W31708  18.613  23.008   1.229
66449W        W31709  13.723  13.650  13.829
66450W        W31710  23.264  28.913   2.577
66451W        W31711  12.358  37.865   1.453
66452W        W31712  30.065   7.928  14.363
66453W        W31713  19.462  31.482   0.929
66454W        W31714  30.573  33.954   3.633
66455W        W31715  10.862   6.477   3.175
66456W        W31716  15.509   9.517   2.018
66457W        W31717  35.607  18.490  10.785
66458W        W31718   0.286   6.972   3.278
66459W        W31719  43.413  31.011   2.610
66460W        W31720   4.380   2.212   4.010
66461W        W31721  12.921  10.370   3.762
66462W        W31722  10.617  11.173   0.377
66463W        W31723  41.589  16.358  11.132
66464W        W31724  41.178   9.204   2.526
66465W        W31725  20.997  30.055  10.729
66466W        W31726  18.706   9.823   2.918
66467W        W31727  23.288  11.751  14.796
66468W        W31728  14.942  21.009  14.673
66469W        W31729   1.171  20.695   4.871
66470W        W31730  40.932   5.319  13.564
66471W        W31731  32.885  30.339   1.628
66472W        W31732  32.588  10.100   1.440
66473W        W31733  12.396  14.822  11.624
66474W        W31734  31.955  37.861   1.948
66475W        W31735  12.941  32.638   0.828
66476W        W31736  40.367   0.038   1.157
66477W        W31737   6.455   0.188  12.998
66478W        W31738  27.172  43.768  12.660
66479W        W31739  40.813  44.489   0.329
66480W        W31740   8.480  14.769  12.117
66481W        W31741   0.353  40.808   3.292
66482W        W31742  43.557  24.169   0.851
66483W        W31743  31.841  14.194   1.130
66484W        W31744   8.412  25.994  11.818
66485W        W31745  37.775  29.710  14.412
66486W        W31746  26.448  33.891  12.648
66487W        W31747  20.076  44.295   0.191
66488W        W31748  32.748  37.907  14.288
66489W        W31749   5.284   6.834  14.707
66490W        W31750  28.565  36.538  12.424
66491W        W31751  36.130  15.677  11.405
66492W        W31752  25.613  30.573   0.921
66493W        W31753  24.708  31.902   3.205
66494W        W31754  38.380  31.163  12.676
66495W        W31755  21.983   8.204  11.590
66496W        W31756   2.863  22.966  14.942
66497W        W31757  18.823  38.372   2.275
66498W        W31758  44.825  22.599  13.813
66499W        W31759  27.524  24.667   2.755
66500W        W31760  41.354  21.047   1.219
66501W        W31761   7.056  37.262   1.125
66502W        W31762   5.406   7.203   3.577
66503W        W31763  15.123  20.473   3.580
66504W        W31764  16.106  16.781  14.917
66505W        W31765   1.507  43.940  14.022
66506W        W31766  40.353  34.575  11.189
66507W        W31767  19.226  28.971   3.434
66508W        W31768  10.375  24.948  11.174
66509W        W31769  36.575  12.479   1.944
66510W        W31770   5.252  21.559   3.261
66511W        W31771  38.156   4.619   2.986
66512W        W31772  20.045   2.959  13.861
66513W        W31773  20.132  21.737  12.725
66514W        W31774  36.848  22.242   4.373
66515W        W31775  13.438  26.691   5.118
66516W        W31776  12.607  17.126   0.875
66517W        W31777   8.322  11.636  13.020
66518W        W31778  31.676  11.849   0.474
66519W        W31779  35.633   2.949  10.647
66520W        W31780  10.882  15.750  13.555
66521W        W31781   0.449  26.057  12.879
66522W        W31782  28.426  21.982   2.107
66523W        W31783  42.777  31.198  12.109
66524W        W31784  10.599  25.509  14.405
66525W        W31785   6.256  25.364   1.654
66526W        W31786  25.104  40.513  10.329
66527W        W31787  15.615   5.420  14.854
66528W        W31788   8.333  42.968   0.500
66529W        W31789  31.552  21.126   3.804
66530W        W31790  12.358   5.195  11.554
66531W        W31791   3.490  35.759  13.526
66532W        W31792   7.415   4.152  14.406
66533W        W31793  13.853  19.017   0.874
66534W        W31794  14.671  12.519  14.426
66535W        W31795  35.993  19.279  11.631
66536W        W31796  36.880  27.438   2.207
66537W        W31797  22.063  17.208  10.511
66538W        W31798  20.586  24.702   2.645
66539W        W31799  18.512   5.789   4.597
66540W        W31800   4.832  15.288   3.301
66541W        W31801  19.416   7.286   0.406
66542W        W31802  41.453  16.065  10.664
66543W        W31803  42.884   1.484   2.939
66544W        W31804  15.229  10.566   0.562
66545W        W31805   7.118   5.200  11.061
66546W        W31806   3.175   8.157   3.082
66547W        W31807   0.267   7.294   1.246
66548W        W31808   9.011  29.202  11.914
66549W        W31809   2.777  26.247  10.320
66550W        W31810   9.911   4.303  12.534
66551W        W31811  18.109  25.691  14.323
66552W        W31812  42.915  33.032   0.502
66553W        W31813  19.520  31.855  12.567
66554W        W31814  29.034  40.302  12.931
66555W        W31815  23.792   7.697   0.960
66556W        W31816   7.444  22.589   3.562
66557W        W31817  21.955  10.637   0.368
66558W        W31818  44.296  22.320   0.260
66559W        W31819  42.305  12.273   2.273
66560W        W31820  37.431  12.276   4.649
66561W        W31821  33.971  38.558   3.391
66562W        W31822  43.083   4.919   2.226
66563W        W31823  22.268  18.337   9.717
66564W        W31824  26.543  42.691   2.797
66565W        W31825  41.506  33.897  12.770
66566W        W31826  24.902  14.379  12.451
66567W        W31827  33.404   3.693   3.696
66568W        W31828  23.519  21.979   4.693
66569W        W31829  14.611  16.614  11.962
66570W        W31830  42.877  23.896  13.085
66571W        W31831  37.012  14.325   3.375
66572W        W31832  44.834  32.222  12.031
66573W        W31833  37.925  20.173   4.054
66574W        W31834  41.734  39.862  14.421
66575W        W31835  42.231   4.532   4.542
66576W        W31836  39.839  24.082  13.467
66577W        W31837  36.033  35.962   4.071
66578W        W31838  29.706  21.497  14.047
66579W        W31839  22.524  36.771   0.433
66580W        W31840  40.465   9.128  14.345
66581W        W31841  30.689  20.659  11.529
66582W        W31842  24.892  10.265  12.904
66583W        W31843  23.563   3.844   1.793
66584W        W31844  15.812  18.477   1.699
66585W        W31845  34.307   5.299  12.326
66586W        W31846  16.959  10.284  14.292
66587W        W31847   4.533  39.884  14.684
66588W        W31848  32.125  39.106  11.630
66589W        W31849  44.331  22.748   3.751
66590W        W31850   6.893  28.528  13.918
66591W        W31851  11.735  42.965  10.055
66592W        W31852  42.781   8.083  11.046
66593W        W31853  44.412  23.426   3.320
66594W        W31854  43.485  34.599   2.973
66595W        W31855  11.895  38.099  11.252
66596W        W31856   5.136  33.531  12.861
66597W        W31857  27.319  33.551  10.714
66598W        W31858  20.642  44.042   1.444
66599W        W31859  42.558   4.433  13.496
66600W        W31860  17.581  17.130   4.428
66601W        W31861  23.821  24.020  11.069
66602W        W31862  26.164  39.553   1.568
66603W        W31863  29.927  29.032  14.394
66604W        W31864  11.896  13.116   1.261
66605W        W31865  36.414  18.376   4.778
66606W        W31866   5.078  32.160  14.118
66607W        W31867   6.715  26.137   2.752
66608W        W31868  34.511  40.828  13.119
66609W        W31869   1.558   0.718  10.920
66610W        W31870  21.143  44.354   3.980
66611W        W31871   6.399  19.029   4.373
66612W        W31872  33.380  42.764  11.949
66613W        W31873  34.413  24.560   4.422
66614W        W31874  22.648  41.809  13.071
66615W        W31875  44.424  34.434  11.151
66616W        W31876  42.193  18.854   2.417
66617W        W31877  28.475   2.234   0.342
66618W        W31878  21.602  27.433   3.112
66619W        W31879  16.753  32.756   0.803
66620W        W31880  39.363  13.693   0.444
66621W        W31881  20.938  34.127  14.515
66622W        W31882  30.077   7.989  12.531
66623W        W31883  41.814  41.533  12.136
66624W        W31884   4.270  16.079  14.042
66625W        W31885  21.972   1.391  10.317
66626W        W31886  37.449  12.202   3.750
66627W        W31887  15.301  41.105   3.272
66628W        W31888  15.678   3.810  11.949
66629W        W31889  14.818  35.783  14.308
66630W        W31890  22.657  32.916  12.313
66631W        W31891   9.177   0.545   3.175
66632W        W31892  42.032  35.915   0.752
66633W        W31893  29.754  17.571   1.440
66634W        W31894  16.151  25.139   1.363
66635W        W31895   6.501  36.239  11.893
66636W        W31896  10.788  34.220   3.692
66637W        W31897  27.711  33.984  14.957
66638W        W31898  38.899   4.725  12.078
66639W        W31899  16.046   4.133   3.641
66640W        W31900  32.096  32.633  11.178
66641W        W31901   2.343   3.409   3.094
66642W        W31902  29.455   7.106   2.882
66643W        W31903   7.437   1.722  14.932
66644W        W31904  41.233  43.986  14.851
66645W        W31905  37.445  20.536   3.919
66646W        W31906  18.516  25.076  10.382
66647W        W31907  32.877  29.689   0.987
66648W        W31908   8.217  20.933  11.050
66649W        W31909   4.821   7.162   4.407
66650W        W31910  14.033  37.939  10.581
66651W        W31911  24.132  18.576   0.761
66652W        W31912  19.896  32.931  13.313
66653W        W31913  19.867  36.157  14.367
66654W        W31914  24.998  28.119   3.705
66655W        W31915  41.535  19.052   1.483
66656W        W31916  37.425  38.724  13.339
66657W        W31917   7.569  34.674   0.678
66658W        W31918   6.319  15.857   0.918
66659W        W31919  27.480   9.694  13.357
66660W        W31920   5.301  32.049   0.469
66661W        W31921  22.797  40.007  14.819
66662W        W31922  37.577  33.865   1.386
66663W        W31923   0.442  18.050  11.563
66664W        W31924  13.282  29.275  13.746
66665W        W31925  39.434   0.998   2.230
66666W        W31926  17.049   2.356  14.852
66667W        W31927   5.745   7.278   4.482
66668W        W31928   5.240  20.055  10.667
66669W        W31929   0.808  37.045  13.991
66670W        W31930  39.567  12.199   3.693
66671W        W31931  21.261  33.980   0.733
66672W        W31932   0.872  13.960   3.592
66673W        W31933  42.393  25.652   3.604
66674W        W31934  35.119  12.294   1.739
66675W        W31935  30.040  19.203  13.313
66676W        W31936   9.326  41.932  13.993
66677W        W31937  23.260  21.177   2.487
66678W        W31938  29.186  21.548  14.076
66679W        W31939   2.197  27.879   0.292
66680W        W31940   6.770  15.695   0.685
66681W        W31941  20.763  21.001  11.070
66682W        W31942  15.222  19.993   3.450
66683W        W31943  40.534  39.759  13.072
66684W        W31944  28.933   0.754   0.427
66685W        W31945  19.006   3.909  12.943
66686W        W31946  13.644  13.097   4.327
66687W        W31947  34.891  24.230   3.812
66688W        W31948  10.885  23.156   0.980
66689W        W31949   9.463  37.785  13.707
66690W        W31950  22.617  27.451  14.829
66691W        W31951   5.218  38.542  10.502
66692W        W31952  16.109  27.009   1.766
66693W        W31953  42.918  30.100   3.819
66694W        W31954  34.150  38.132  13.988
66695W        W31955  13.256  21.887  13.098
66696W        W31956  40.782  38.842   3.700
66697W        W31957  12.762   1.301  11.095
66698W        W31958   4.983  13.689   2.438
66699W        W31959   1.842  19.075   1.017
66700W        W31960  18.989  16.734   2.599
66701W        W31961  35.291  10.179  14.377
66702W        W31962  30.226  43.473  11.550
66703W        W31963  42.038  23.151  13.547
66704W        W31964  37.988  28.661   3.692
66705W        W31965   8.468   6.833   4.599
66706W        W31966  33.868  20.331   1.562
66707W        W31967   0.258   6.874  14.346
66708W        W31968   5.268  32.469   4.283
66709W        W31969  16.687  14.231   4.282
66710W        W31970  43.868  37.613  13.449
66711W        W31971  41.686  36.001  13.973
66712W        W31972  10.935  24.054   3.950
66713W        W31973  33.693   6.760   2.813
66714W        W31974  31.248  22.547  13.488
66715W        W31975  43.900  18.268  14.556
66716W        W31976  11.626  35.001  11.949
66717W        W31977   3.289   1.773   0.301
66718W        W31978  22.033   2.506   2.168
66719W        W31979   1.061  33.908   1.414
66720W        W31980   9.921  19.009  12.983
66721W        W31981   0.746  12.114   3.142
66722W        W31982   4.791  22.233   1.776
66723W        W31983  10.881  40.997   1.967
66724W        W31984  12.870  38.403   3.897
66725W        W31985  29.008  26.539  11.679
66726W        W31986  39.330   6.919  12.607
66727W        W31987  35.806  42.796  12.174
66728W        W31988   6.829   9.955   4.534
66729W        W31989  14.061  27.317  11.512
66730W        W31990  31.028  34.229  10.033
66731W        W31991  10.461   0.922   3.853
66732W        W31992   2.897  32.049   2.432
66733W        W31993  17.276  13.365  13.345
66734W        W31994  41.244  31.355  10.745
66735W        W31995  21.141  31.914  11.910
66736W        W31996   9.918  15.087   4.183
66737W        W31997  34.857  36.505   0.576
66738W        W31998  20.571  23.579  12.919
66739W        W31999  33.162  17.525   2.811
66740W        W32000  30.615  15.817   1.453
66741W        W32001  13.395  19.537   4.080
66742W        W32002   7.979  34.070   2.836
66743W        W32003   4.156  30.214   1.285
66744W        W32004   7.279   8.570  14.381
66745W        W32005  40.054   5.388  11.131
66746W        W32006  16.873  13.414  13.649
66747W        W32007  44.038   1.543   2.176
66748W        W32008  11.076   8.947  11.622
66749W        W32009  36.437  24.646   2.313
66750W        W32010   5.713   2.202   1.804
66751W        W32011  39.549  23.289  11.621
66752W        W32012  21.171  29.443   1.283
66753W        W32013  34.957  10.087   3.730
66754W        W32014  10.383  35.782   4.277
66755W        W32015  33.394  13.818   3.813
66756W        W32016   6.137  13.305  14.858
66757W        W32017  37.106  33.931  10.480
66758W        W32018  16.817  13.722  11.976
66759W        W32019  20.719   2.858   0.466
66760W        W32020  13.813  36.345  14.415
66761W        W32021  39.072   0.658   2.145
66762W        W32022  15.774   8.203  14.770
66763W        W32023   2.332  17.282  13.914
66764W        W32024  40.026  12.749   2.320
66765W        W32025  31.145  21.225   0.733
66766W        W32026  37.053   4.936  13.819
66767W        W32027  10.669  36.991  12.233
66768W        W32028  44.739  14.455  10.714
66769W        W32029  28.888   8.635  11.144
66770W        W32030   0.779  22.745   4.491
66771W        W32031  16.666   8.550   5.187
66772W        W32032  27.464  42.502  14.738
66773W        W32033   3.510  40.010   2.914
66774W        W32034  29.458  11.273   2.688
66775W        W32035  37.545  12.576  12.424
66776W        W32036  23.134  32.416   4.402
66777W        W32037  44.333  37.185  11.934
66778W        W32038  38.373  34.312   4.165
66779W        W32039  27.630  34.494  11.899
66780W        W32040  26.506  44.418   4.632
66781W        W32041   6.810  24.126  13.045
66782W        W32042  17.292  17.186  12.983
66783W        W32043   5.441  42.305  13.515
66784W        W32044  17.901  23.726  13.271
66785W        W32045  39.985   8.624   0.571
66786W        W32046  42.877  15.320   0.413
66787W        W32047  26.196  11.431  14.894
66788W        W32048  38.571  22.493  14.414
66789W        W32049   3.853  41.137   5.500
66790W        W32050  18.132   5.307   4.246
66791W        W32051  21.594  26.006   1.383
66792W        W32052   4.659  12.914  11.130
66793W        W32053  24.641  38.955  11.871
66794W        W32054  33.522   8.914  14.493
66795W        W32055  11.733  39.560   3.602
66796W        W32056  15.806  25.817   0.330
66797W        W32057  37.533  35.015  11.138
66798W        W32058  18.181  10.844  12.546
66799W        W32059  11.792  41.400  14.222
66800W        W32060  10.418   6.117  10.670
66801W        W32061  44.761  14.647  13.972
66802W        W32062  38.261  24.443   1.741
66803W        W32063   6.388  32.242   2.303
66804W        W32064  27.775   6.250  13.037
66805W        W32065  16.494  43.263   3.446
66806W        W32066  23.285  26.962  14.910
66807W        W32067  10.888   9.780   3.191
66808W        W32068   2.058  26.638  10.658
66809W        W32069  26.581  12.629  13.086
66810W        W32070  43.357   9.460  13.377
66811W        W32071  43.852  27.934   3.238
66812W        W32072  29.055  34.861  12.854
66813W        W32073  22.538  40.798   2.377
66814W        W32074  44.055  22.060   2.093
66815W        W32075  41.787  19.463  11.315
66816W        W32076  42.143  21.472  14.428
66817W        W32077   9.041  44.340   4.027
66818W        W32078  28.021  42.209   0.592
66819W        W32079   8.975   6.741   3.217
66820W        W32080  32.083  43.011  12.312
66821W        W32081  32.735  33.196  13.450
66822W        W32082   4.752  42.399  13.946
66823W        W32083  42.417  12.695   0.180
66824W        W32084  16.884  27.216   0.040
66825W        W32085  23.528   3.104   2.421
66826W        W32086  35.641   6.405   3.677
66827W        W32087  36.920  16.834  12.365
66828W        W32088   1.798   1.102   2.987
66829W        W32089  39.752  17.248  10.371
66830W        W32090   4.733  12.310   2.372
66831W        W32091  13.793  35.106   3.223
66832W        W32092  22.441  20.736  13.243
66833W        W32093  33.564  40.297   2.036
66834W        W32094  37.342  18.196  12.911
66835W        W32095   5.918   0.492  11.803
66836W        W32096  33.098  34.362   1.444
66837W        W32097  23.341  42.619   1.634
66838W        W32098  11.582  25.229   0.109
66839W        W32099  21.214  18.305   2.909
66840W        W32100  23.755  27.390   2.740
66841W        W32101  31.473  42.414   0.259
66842W        W32102  34.883  25.216  12.005
66843W        W32103   2.252  22.246   0.931
66844W        W32104  10.441  38.984  13.213
66845W        W32105   4.475   7.266  11.239
66846W        W32106  23.764  12.903   4.349
66847W        W32107  20.164   8.714   3.852
66848W        W32108  28.238  43.585  12.490
66849W        W32109  28.281  14.506  13.458
66850W        W32110  18.660   3.815   4.577
66851W        W32111  13.080  13.158  12.786
66852W        W32112   0.480  26.714   3.321
66853W        W32113  11.281   1.444   4.543
66854W        W32114  32.280  15.770   1.762
66855W        W32115  24.036  21.131  14.968
66856W        W32116  25.953  25.757   2.385
66857W        W32117  18.961  34.075  13.188
66858W        W32118  21.541   3.783   2.357
66859W        W32119  25.049  21.289  10.796
66860W        W32120   5.940  24.195  11.091
66861W        W32121  18.106   7.334  11.477
66862W        W32122   8.636  27.406  12.034
66863W        W32123  32.589  37.746  13.121
66864W        W32124   3.450  20.117   4.589
66865W        W32125   3.859  34.478  14.890
66866W        W32126  24.135  39.099   4.109
66867W        W32127  44.779  20.065   2.660
66868W        W32128   9.396   3.743  11.568
66869W        W32129  34.420   1.240  13.508
66870W        W32130  29.413  25.388  11.057
66871W        W32131  33.655   1.960  11.040
66872W        W32132   8.924  18.522  11.033
66873W        W32133  28.224   6.388   4.117
66874W        W32134   4.723   6.010   3.151
66875W        W32135  19.760  14.319   1.416
66876W        W32136  31.519  29.612   3.367
66877W        W32137  14.407   0.500   0.359
66878W        W32138  18.620   0.222   4.668
66879W        W32139   4.928  13.505   4.143
66880W        W32140  25.250  26.920   1.368
66881W        W32141  24.481  23.689   1.451
66882W        W32142  11.666  29.867  11.993
66883W        W32143   7.146  31.093   0.737
66884W        W32144  10.825   8.663   1.249
66885W        W32145  21.523  20.573  14.850
66886W        W32146  42.896  41.705   5.047
66887W        W32147  21.439   6.200  14.892
66888W        W32148  18.595  16.093   4.135
66889W        W32149  14.024  43.854  13.410
66890W        W32150   9.613  16.766   2.751
66891W        W32151  20.823   9.857  12.171
66892W        W32152  24.184  15.742   4.987
66893W        W32153  29.381  44.306   4.609
66894W        W32154  40.905  18.291  11.663
66895W        W32155  38.596  19.977  13.441
66896W        W32156  19.115   0.721   0.132
66897W        W32157  22.671  19.284   2.661
66898W        W32158  31.700  25.411  11.896
66899W        W32159  23.069  16.930   0.350
66900W        W32160  20.449  28.007   1.131
66901W        W32161  28.989  40.322  13.953
66902W        W32162  18.276  15.521  14.727
66903W        W32163  14.847  26.108   4.125
66904W        W32164  13.168  26.770   0.010
66905W        W32165  18.992   6.105  14.463
66906W        W32166   8.534   9.947   4.131
66907W        W32167   5.524   4.849   1.946
66908W        W32168  23.832  32.945   0.672
66909W        W32169   9.787  13.304   5.066
66910W        W32170  14.296  26.055   1.419
66911W        W32171   0.764   2.236  11.825
66912W        W32172  15.418  35.074   4.190
66913W        W32173  36.093  39.243  14.012
66914W        W32174  17.828   9.261  10.555
66915W        W32175  26.278  24.992   4.690
66916W        W32176  10.169  31.491   1.305
66917W        W32177  28.167   2.927  12.911
66918W        W32178  39.488  22.649  11.015
66919W        W32179  27.070  40.380   4.711
66920W        W32180  33.746  41.552  11.186
66921W        W32181  39.240   8.033   5.048
66922W        W32182  41.825  18.816   4.513
66923W        W32183  40.123  42.346   2.829
66924W        W32184  12.869  17.277  11.135
66925W        W32185   0.093  14.221  12.038
66926W        W32186  33.065  13.893   2.688
66927W        W32187   4.706  18.818   1.747
66928W        W32188   2.210  29.036   3.040
66929W        W32189  11.798  15.271  12.932
66930W        W32190  19.235   2.264   1.321
66931W        W32191  38.945  34.416  13.062
66932W        W32192  13.071  25.176  13.083
66933W        W32193  36.960  18.576  13.001
66934W        W32194  16.742  35.336  14.817
66935W        W32195   4.254  10.390   4.699
66936W        W32196  40.306  36.399   1.748
66937W        W32197  15.390   3.869   2.322
66938W        W32198  23.133  32.087   3.715
66939W        W32199   3.896   1.439  13.368
66940W        W32200  13.039  43.821  14.769
66941W        W32201   7.776  18.749   4.069
66942W        W32202  43.840  12.708   1.208
66943W        W32203  28.346  14.746   1.724
66944W        W32204  22.546  10.650   0.288
66945W        W32205  30.160   6.847   0.934
66946W        W32206   2.523  20.602   1.123
66947W        W32207  17.779   3.206  11.883
66948W        W32208  22.633   4.697   0.856
66949W        W32209  22.654  28.569   2.646
66950W        W32210  15.758  14.188   0.683
66951W        W32211  10.438  19.551  12.286
66952W        W32212  25.540  35.091   2.725
66953W        W32213  28.516  35.024   0.362
66954W        W32214  23.054  30.153   0.501
66955W        W32215  10.805  15.421   3.709
66956W        W32216  24.328  12.768  14.928
66957W        W32217  22.595  15.816   1.671
66958W        W32218  40.039   1.290   2.837
66959W        W32219  14.643  43.487   0.814
66960W        W32220  10.288   0.457   1.664
66961W        W32221  23.203  26.497   0.187
66962W        W32222  25.238  41.791   1.491
66963W        W32223   6.401   2.210   1.907
66964W        W32224  27.145  11.782   1.845
66965W        W32225  34.270  38.090  10.619
66966W        W32226  20.826  24.428   2.257
66967W        W32227  36.361   7.833  12.457
66968W        W32228  40.384  12.817  12.019
66969W        W32229  40.163  41.434   4.983
66970W        W32230  30.881  17.511  14.460
66971W        W32231   3.030  13.809  14.452
66972W        W32232   0.785  15.626   4.356
66973W        W32233   3.017   5.839   1.833
66974W        W32234  26.979  30.894  12.172
66975W        W32235   9.082   6.255  12.040
66976W        W32236  32.968  44.391   4.905
66977W        W32237  12.913  13.203  11.932
66978W        W32238  25.220  19.671  12.604
66979W        W32239  36.907  40.919  13.362
66980W        W32240   1.215   8.165  13.519
66981W        W32241  21.102  18.585   0.721
66982W        W32242  13.701   3.175  12.090
66983W        W32243   6.729   6.251  12.020
66984W        W32244  18.268  15.872  13.561
66985W        W32245  42.783  18.326  12.127
66986W        W32246  31.810  22.028   9.831
66987W        W32247  44.961  11.294  14.977
66988W        W32248  22.535  27.445  10.568
66989W        W32249  38.804  41.251   1.080
66990W        W32250   5.496  11.710   0.707
66991W        W32251  28.139  10.803   1.035
66992W        W32252  33.870  25.910  11.752
66993W        W32253  42.233  23.064  10.508
66994W        W32254  11.874  16.974   2.487
66995W        W32255   8.737  43.056   4.512
66996W        W32256  36.517  19.626  12.364
66997W        W32257   2.864  28.043  14.105
66998W        W32258  11.755  39.585   1.868
66999W        W32259  44.689   0.521  14.948
67000W        W32260   5.759  40.968   2.559
67001W        W32261  37.826   2.232  14.463
67002W        W32262  17.765  37.655   2.267
67003W        W32263  38.132   2.087  10.291
67004W        W32264   0.611  15.415  10.695
67005W        W32265   8.446  41.393   0.889
67006W        W32266  35.138  28.029   2.230
67007W        W32267  18.594  36.900  11.059
67008W        W32268  23.620  26.405   2.818
67009W        W32269  29.461  40.138  14.532
67010W        W32270  33.449  15.255  13.554
67011W        W32271   4.040  16.074   4.656
67012W        W32272   5.497  30.719   2.129
67013W        W32273  22.008   6.546   1.994
67014W        W32274  25.167  37.485   0.500
67015W        W32275   9.551  23.743   3.256
67016W        W32276  33.551   1.319  13.472
67017W        W32277  42.553   7.116   0.962
67018W        W32278  25.722  17.288  13.032
67019W        W32279  16.952  13.821   4.111
67020W        W32280   1.766  23.640   3.162
67021W        W32281  17.857  27.505   2.455
67022W        W32282  14.624  25.567  14.822
67023W        W32283  16.833   2.290  11.329
67024W        W32284  22.236  24.440  10.698
67025W        W32285  35.499   3.880  12.340
67026W        W32286  25.982  29.929  12.869
67027W        W32287  40.983  18.987  13.892
67028W        W32288   1.410  17.237   1.397
67029W        W32289   6.665  34.385   2.796
67030W        W32290  39.856   1.728   3.785
67031W        W32291  34.557  16.655   0.452
67032W        W32292   6.575  23.957  12.096
67033W        W32293  25.247   0.816  10.405
67034W        W32294  38.277  43.860   3.693
67035W        W32295  38.337  42.480   2.645
67036W        W32296  38.848  18.543  11.123
67037W        W32297  11.148  19.871   0.782
67038W        W32298  15.609   1.125  11.139
67039W        W32299  23.158  16.325  13.018
67040W        W32300  14.391  25.185   1.195
67041W        W32301  38.985  42.872   2.802
67042W        W32302  30.454  10.717   2.152
67043W        W32303  10.676  22.824   0.637
67044W        W32304  38.900  13.040  12.831
67045W        W32305  28.207  28.193   5.102
67046W        W32306   5.668   8.682  12.955
67047W        W32307   5.134  42.820  13.555
67048W        W32308   8.890  17.200   1.465
67049W        W32309   1.446   6.325  13.933
67050W        W32310  37.396   4.389  10.680
67051W        W32311   2.598   7.913   4.924
67052W        W32312  32.653  12.843  14.382
67053W        W32313  23.071  40.837  13.299
67054W        W32314  40.608  43.082  11.630
67055W        W32315  23.043  26.877   0.980
67056W        W32316  30.061   0.736   1.099
67057W        W32317  23.675  28.579  10.697
67058W        W32318   3.786   7.040   2.738
67059W        W32319  38.957  40.204   2.461
67060W        W32320  12.243  42.567   3.281
67061W        W32321  27.469  36.069   2.338
67062W        W32322  21.125  41.261  14.852
67063W        W32323  20.601  38.384  11.451
67064W        W32324  42.303  43.949   2.654
67065W        W32325  24.063  34.912  13.570
67066W        W32326   6.745   1.155   0.571
67067W        W32327  44.808  34.525   3.177
67068W        W32328   6.805  10.805  10.698
67069W        W32329  37.401  42.496   2.681
67070W        W32330  12.922   2.799  14.443
67071W        W32331   9.933  31.063  11.984
67072W        W32332  10.822   1.097  13.343
67073W        W32333  34.969   6.271   0.273
67074W        W32334  42.927   7.668   4.127
67075W        W32335   4.905  28.783  14.440
67076W        W32336  11.553   5.252  11.891
67077W        W32337   7.219  23.746  14.493
67078W        W32338  20.356  15.313  12.590
67079W        W32339  38.452   2.114  10.712
67080W        W32340  14.267  17.638   4.468
67081W        W32341  32.098   3.176  11.959
67082W        W32342   8.893   4.962   4.122
67083W        W32343  20.259  34.151   3.760
67084W        W32344   9.651   4.010   2.486
67085W        W32345   3.447  41.381   4.232
67086W        W32346  23.509  40.589   4.850
67087W        W32347   7.033   6.914  10.890
67088W        W32348  15.607  42.266   2.301
67089W        W32349  15.494  10.719  13.701
67090W        W32350  36.161  42.887  10.370
67091W        W32351   8.228  19.155  14.557
67092W        W32352  23.898   1.762   2.359
67093W        W32353   5.693  34.926   0.750
67094W        W32354   1.736   1.722   0.389
67095W        W32355  20.195  12.329   0.704
67096W        W32356  32.198  13.674  10.690
67097W        W32357  25.444  17.846  12.357
67098W        W32358  42.281  35.091   2.219
67099W        W32359  43.031   7.688   2.112
67100W        W32360  31.889  19.531  12.047
67101W        W32361   6.671  30.739   2.984
67102W        W32362   9.316   8.277   3.370
67103W        W32363  14.442  10.942   4.905
67104W        W32364  30.418  44.092   2.700
67105W        W32365   0.568  13.302  12.023
67106W        W32366  20.850  11.507   3.392
67107W        W32367  20.173  14.303   4.929
67108W        W32368  21.696   9.166   4.083
67109W        W32369  21.069   0.294   0.136
67110W        W32370  16.426  38.532  11.360
67111W        W32371  33.826  37.653   1.691
67112W        W32372  40.956  41.002   1.566
67113W        W32373   9.158  11.194  14.287
67114W        W32374  21.613  38.644   1.902
67115W        W32375  16.285  14.301   2.964
67116W        W32376  23.500  24.236   2.529
67117W        W32377  28.368  15.192  12.683
67118W        W32378  32.706   1.677  14.500
67119W        W32379  36.133  10.884  10.685
67120W        W32380  31.413   4.949   1.876
67121W        W32381  18.741  15.232   0.693
67122W        W32382  10.564  33.470  10.304
67123W        W32383  33.005  36.648  10.246
67124W        W32384  13.290  10.265  12.162
67125W        W32385  13.653  14.589  12.059
67126W        W32386   7.079  14.869  12.425
67127W        W32387  22.688   1.232   1.337
67128W        W32388  33.877  22.762  11.157
67129W        W32389  42.953  20.724  14.864
67130W        W32390  37.378   4.455  12.936
67131W        W32391   5.883  41.070   3.578
67132W        W32392  35.609  10.551   0.418
67133W        W32393  34.833   1.881   0.345
67134W        W32394  44.475  25.521  14.769
67135W        W32395   5.917  25.170   3.355
67136W        W32396  14.335  36.831  11.692
67137W        W32397  31.872  26.666  14.305
67138W        W32398  42.895  23.995   1.114
67139W        W32399  11.930   7.194   2.726
67140W        W32400  31.073  25.898   2.543
67141W        W32401  26.804  31.395  12.378
67142W        W32402  33.347  37.961  10.600
67143W        W32403  41.042  18.693  14.309
67144W        W32404  11.010  12.170   2.625
67145W        W32405  28.686  30.172  12.206
67146W        W32406   3.495  43.208   0.794
67147W        W32407  34.150  16.591   2.713
67148W        W32408   9.662  37.991  10.579
67149W        W32409  28.412  18.911   0.358
67150W        W32410  40.341  12.328   2.339
67151W        W32411  11.899  23.869   3.951
67152W        W32412  33.639  26.403  12.380
67153W        W32413  41.942  14.014   2.665
67154W        W32414  21.259   9.704  11.394
67155W        W32415  13.767  33.087   2.408
67156W        W32416  21.604  23.033  10.770
67157W        W32417  30.182   2.971   1.402
67158W        W32418  37.834  33.589  11.227
67159W        W32419  42.094   6.345  11.626
67160W        W32420  27.942  35.378   0.824
67161W        W32421  23.643   2.265  14.570
67162W        W32422  23.319  26.726  12.639
67163W        W32423  16.508  32.012   0.315
67164W        W32424   3.114  42.331   3.192
67165W        W32425  24.165  40.318   1.828
67166W        W32426  16.041  38.746  14.907
67167W        W32427  35.070  12.721   2.825
67168W        W32428  23.316  20.276   0.834
67169W        W32429  13.263  15.244  14.789
67170W        W32430   7.734  21.052  14.408
67171W        W32431  10.599  42.974  11.104
67172W        W32432  42.816   9.323  12.485
67173W        W32433  40.285  16.718   3.284
67174W        W32434  36.904   7.366   4.250
67175W        W32435  37.364  29.480  12.068
67176W        W32436  42.073  21.609   1.287
67177W        W32437  41.275  31.333   4.864
67178W        W32438   1.349  25.513  11.596
67179W        W32439  30.896  44.780   0.933
67180W        W32440  34.785  36.314   3.217
67181W        W32441  30.390  11.175  14.955
67182W        W32442   0.320   3.887   1.877
67183W        W32443  25.178  15.010   2.659
67184W        W32444  37.158  25.159   1.274
67185W        W32445  12.235  44.117  12.568
67186W        W32446  23.311  42.992  12.921
67187W        W32447  32.068  42.214  11.853
67188W        W32448  13.202  24.084  14.569
67189W        W32449  35.476  29.096  12.363
67190W        W32450  33.462  44.795   4.048
67191W        W32451  36.114  36.575   3.588
67192W        W32452  41.772  31.019  14.495
67193W        W32453   5.276  36.181  11.117
67194W        W32454   7.527  43.372   2.523
67195W        W32455  23.747  40.320   4.059
67196W        W32456   2.775  23.784   3.019
67197W        W32457  23.191  18.119   3.121
67198W        W32458  20.195   5.194   1.257
67199W        W32459  20.667  29.328  10.688
67200W        W32460  16.186  44.962  14.033
67201W        W32461  30.613  39.901  13.476
67202W        W32462  21.612  16.762   1.985
67203W        W32463  17.756  39.335  13.272
67204W        W32464   3.339  39.068   0.253
67205W        W32465   5.978   6.300   2.971
67206W        W32466   3.242  27.705   2.572
67207W        W32467   7.695  35.782   2.532
67208W        W32468   8.668  30.013  11.268
67209W        W32469  18.579  23.068  14.785
67210W        W32470  26.582  35.953   1.361
67211W        W32471   5.459  22.023   1.304
67212W        W32472  26.728  29.067  13.945
67213W        W32473   4.774  21.133  12.039
67214W        W32474   0.958  32.507  11.528
67215W        W32475   0.234  26.721  12.503
67216W        W32476   8.188  39.838   3.097
67217W        W32477  15.435  12.852   2.675
67218W        W32478  34.576  12.360   3.663
67219W        W32479  12.098  34.036   4.632
67220W        W32480   1.318  31.426   4.157
67221W        W32481  29.539  34.536   1.392
67222W        W32482  30.948  24.776  11.573
67223W        W32483   1.631   5.218   2.706
67224W        W32484  12.530   2.295   3.562
67225W        W32485   0.258  30.826   2.855
67226W        W32486  21.486  23.701  11.085
67227W        W32487  21.305  12.486   3.211
67228W        W32488  27.417  20.117  12.107
67229W        W32489  28.490  10.847   0.465
67230W        W32490   7.491   7.133  11.005
67231W        W32491  30.569   0.356   1.733
67232W        W32492   2.351   5.652   2.431
67233W        W32493   2.666  26.191  13.031
67234W        W32494  41.742  18.296  11.650
67235W        W32495  43.794  42.287   0.279
67236W        W32496  37.336  25.862  12.691
67237W        W32497  32.048  42.633   3.120
67238W        W32498   7.899  42.644  10.560
67239W        W32499   9.618  39.292  13.131
67240W        W32500  17.700   1.367  13.210
67241W        W32501  41.480  37.164   0.366
67242W        W32502  25.007  15.119  11.549
67243W        W32503  17.574  35.064  10.889
67244W        W32504  25.750  28.603   2.634
67245W        W32505  41.827  34.400  11.412
67246W        W32506   3.779  42.297   4.426
67247W        W32507  12.889  30.242  12.422
67248W        W32508   6.877  44.885  12.385
67249W        W32509  20.681  38.446   0.410
67250W        W32510  37.925  39.324   1.689
67251W        W32511  40.478  35.315  10.571
67252W        W32512  40.012  29.637  14.006
67253W        W32513  20.645   6.699  10.966
67254W        W32514  18.332   8.759   4.644
67255W        W32515   9.848  41.006   2.329
67256W        W32516  43.404   5.969  12.969
67257W        W32517   5.878  29.159   3.741
67258W        W32518  28.938   4.204   3.626
67259W        W32519  22.320  24.212   0.393
67260W        W32520  24.741  41.086   0.055
67261W        W32521  44.513   5.005   1.306
67262W        W32522  44.799  13.892   4.549
67263W        W32523  40.129  15.711  13.047
67264W        W32524  27.614   0.335   0.896
67265W        W32525  20.601   6.002   1.176
67266W        W32526  21.135   6.416  12.297
67267W        W32527  16.236  19.825   1.711
67268W        W32528  20.558  10.327   2.206
67269W        W32529  40.524   7.599  12.347
67270W        W32530  35.949  32.008   4.674
67271W        W32531   0.243   8.209  13.290
67272W        W32532  20.852  22.253   0.496
67273W        W32533  30.377  32.892  12.480
67274W        W32534  43.297  36.009   0.279
67275W        W32535  18.203  42.294   2.191
67276W        W32536   5.969  41.867   3.175
67277W        W32537  15.513  10.960  14.166
67278W        W32538  21.989   7.410   0.874
67279W        W32539  20.309  17.409  13.846
67280W        W32540  36.743  31.998   0.984
67281W        W32541  28.541   1.059  11.908
67282W        W32542   3.793  24.126  10.771
67283W        W32543  14.074  26.750   0.917
67284W        W32544  31.649  44.442  12.316
67285W        W32545  15.325  13.100  12.525
67286W        W32546  36.407  38.081  13.037
67287W        W32547   0.230  10.916   0.989
67288W        W32548  18.787  11.744   3.096
67289W        W32549  10.718  41.965   4.209
67290W        W32550  41.276  35.453  12.381
67291W        W32551  31.402  30.219   5.159
67292W        W32552   4.407  37.835  11.996
67293W        W32553  29.210  44.411   1.854
67294W        W32554  10.425   3.937   0.963
67295W        W32555   1.454   4.418  10.905
67296W        W32556  32.345  36.534   0.703
67297W        W32557  36.011  26.749  10.360
67298W        W32558  32.837  22.193  13.935
67299W        W32559  20.161  36.970   2.399
67300W        W32560   0.361  14.057  13.426
67301W        W32561  37.991  30.763  14.413
67302W        W32562  29.536  12.743   1.385
67303W        W32563   2.799  24.760   0.288
67304W        W32564  36.992  14.275  10.329
67305W        W32565  30.352  27.370   4.067
67306W        W32566   8.386  42.852  10.721
67307W        W32567  23.266  44.728   1.322
67308W        W32568  20.328  40.349   4.552
67309W        W32569  19.794   4.967   0.226
67310W        W32570  13.555  20.281  14.112
67311W        W32571   1.911   3.650   0.384
67312W        W32572   9.113   5.039  14.321
67313W        W32573  18.450  22.426  10.286
67314W        W32574  22.990  18.046  10.203
67315W        W32575  16.161  21.678  14.225
67316W        W32576  36.934  15.143   4.632
67317W        W32577   5.058  12.296   1.405
67318W        W32578  26.847  35.473   9.835
67319W        W32579  16.871  38.302  11.513
67320W        W32580  24.427  17.364   2.745
67321W        W32581  29.948  23.546  12.077
67322W        W32582   7.706   6.881   3.332
67323W        W32583  14.104  31.089  14.331
67324W        W32584  36.362  34.520   1.825
67325W        W32585  14.313  29.598   1.037
67326W        W32586  32.125   8.709  13.870
67327W        W32587  14.166  35.104  14.071
67328W        W32588  27.423  15.853  12.385
67329W        W32589  21.292  18.084   9.870
67330W        W32590  15.570  17.758   2.310
67331W        W32591   7.550   7.344   2.278
67332W        W32592  42.454  39.158  10.694
67333W        W32593   8.245  27.471   2.268
67334W        W32594  30.460  27.654  11.255
67335W        W32595   9.128  26.060   0.054
67336W        W32596  38.020   5.382   4.524
67337W        W32597   5.370  21.566   0.905
67338W        W32598  28.904   4.922  13.278
67339W        W32599   5.003  17.198  12.514
67340W        W32600  23.535  22.455   3.798
67341W        W32601  41.455  11.822   2.870
67342W        W32602  14.184  32.971   2.654
67343W        W32603  10.846  35.321  12.025
67344W        W32604  14.562  20.150   9.791
67345W        W32605  36.629   8.706  11.023
67346W        W32606   2.700  27.080   0.292
67347W        W32607  37.161  34.582   0.909
67348W        W32608  29.501   6.213  10.691
67349W        W32609  39.658  43.554  14.855
67350W        W32610  43.832   4.981   3.690
67351W        W32611  41.550   0.296  10.761
67352W        W32612  39.019  28.682   2.681
67353W        W32613  33.037  27.906   3.755
67354W        W32614  17.124  39.722  11.136
67355W        W32615  36.981  38.110   2.316
67356W        W32616  38.723   3.460   0.244
67357W        W32617   9.153  28.510   2.499
67358W        W32618  21.834   5.315  12.268
67359W        W32619   9.815   9.397   1.723
67360W        W32620  42.848  15.030   2.332
67361W        W32621  16.391  13.190  13.595
67362W        W32622  41.063  24.545   4.123
67363W        W32623   7.419  18.256  12.552
67364W        W32624  30.085  34.848  14.427
67365W        W32625   6.751  13.219   2.648
67366W        W32626  19.046  13.599   4.167
67367W        W32627  26.744  11.048   2.764
67368W        W32628   2.043  16.089   2.628
67369W        W32629  43.988  39.441  11.766
67370W        W32630   1.725  37.870   1.741
67371W        W32631   6.975  10.096  11.186
67372W        W32632   1.315  25.702   1.201
67373W        W32633  27.195  20.573  11.901
67374W        W32634  38.041  23.052   1.168
67375W        W32635  18.558  36.814   4.720
67376W        W32636  28.046  12.276   1.566
67377W        W32637   4.218   9.368  11.029
67378W        W32638  25.883  20.232   1.176
67379W        W32639  35.943  18.310  12.507
67380W        W32640  30.956  32.008   2.844
67381W        W32641  14.022  41.887   4.468
67382W        W32642  35.288  32.001  13.714
67383W        W32643  23.766  27.547   0.850
67384W        W32644  16.143  15.694  12.679
67385W        W32645  18.297  19.949   2.880
67386W        W32646  42.774  43.719   4.566
67387W        W32647  27.469  24.444  10.749
67388W        W32648  33.744  12.602  10.423
67389W        W32649  41.045  39.348  14.917
67390W        W32650  23.447  13.625   3.776
67391W        W32651  22.426   4.252   2.678
67392W        W32652  33.506  34.667   4.580
67393W        W32653   3.958  14.088  10.658
67394W        W32654   0.943   5.039  10.206
67395W        W32655   0.104  13.825   4.952
67396W        W32656  38.044  14.179   1.178
67397W        W32657  23.802   6.286   3.637
67398W        W32658   8.015  12.692   4.497
67399W        W32659  32.633  38.639   1.422
67400W        W32660  38.358  11.755  12.991
67401W        W32661  34.724  39.807  13.857
67402W        W32662  29.435  13.448   0.585
67403W        W32663  18.138  19.430   3.697
67404W        W32664  22.675  26.129  11.033
67405W        W32665  23.705   0.929   2.820
67406W        W32666  31.933  43.314   0.922
67407W        W32667  39.097  10.817   4.048
67408W        W32668  16.459  20.991   5.056
67409W        W32669  20.698  18.441  11.062
67410W        W32670   8.450  22.919   2.328
67411W        W32671   6.356  16.281  13.105
67412W        W32672  24.000  28.912   3.768
67413W        W32673   1.372  24.773  11.543
67414W        W32674  41.234   6.894   2.745
67415W        W32675  26.509  26.609   5.051
67416W        W32676  11.409   7.273   2.656
67417W        W32677   9.410  12.270  13.339
67418W        W32678  29.234  23.292   0.802
67419W        W32679  42.231   9.245   3.624
67420W        W32680  15.673  19.138   0.435
67421W        W32681  23.203  19.354  10.755
67422W        W32682  22.256  31.962  10.629
67423W        W32683  42.641   2.491   4.472
67424W        W32684   4.338   8.025  10.759
67425W        W32685  42.309  12.602  12.972
67426W        W32686  32.489  33.662  10.747
67427W        W32687  14.246  34.568  11.987
67428W        W32688   7.879  44.736   2.143
67429W        W32689   0.303   3.196   1.908
67430W        W32690   3.037  31.702  13.214
67431W        W32691  19.053  14.101   0.304
67432W        W32692   8.186  26.963  13.342
67433W        W32693  42.809  26.139   0.863
67434W        W32694  12.721  34.153   2.734
67435W        W32695  18.353  39.836   2.759
67436W        W32696   2.619  12.018  12.088
67437W        W32697  39.257  28.408  11.582
67438W        W32698  21.611  35.257   2.428
67439W        W32699   0.931  24.760   3.649
67440W        W32700  34.014  19.589  10.507
67441W        W32701  12.517  33.159   3.871
67442W        W32702  42.828  19.302  14.874
67443W        W32703   2.876  42.085  13.796
67444W        W32704   4.491  42.494  12.070
67445W        W32705   1.683   4.798  10.614
67446W        W32706  34.736   4.203  11.184
67447W        W32707   6.647  25.647  14.861
67448W        W32708  37.493  13.740   1.414
67449W        W32709   0.627  22.382   2.490
67450W        W32710  36.160  33.693   3.647
67451W        W32711  38.863  11.834   4.503
67452W        W32712  19.091   7.668   2.268
67453W        W32713   1.599  40.574  12.920
67454W        W32714  26.176   6.770   4.609
67455W        W32715  15.335   3.315  11.956
67456W        W32716  13.057  23.636   2.234
67457W        W32717  16.827  38.980  14.836
67458W        W32718  21.977  26.962  11.383
67459W        W32719   0.822  41.708   3.383
67460W        W32720  33.511   9.909   0.898
67461W        W32721  32.405  36.332   3.063
67462W        W32722  31.585  36.133   2.343
67463W        W32723  39.067  39.567   4.747
67464W        W32724  23.058  20.582   2.756
67465W        W32725  16.558  33.055   2.816
67466W        W32726  42.560  19.261   4.694
67467W        W32727   6.389   7.095   2.827
67468W        W32728   4.642   6.327  11.559
67469W        W32729  39.392   1.019  13.449
67470W        W32730  33.528   4.976   0.336
67471W        W32731   8.683   1.197  13.622
67472W        W32732  34.180  12.379   0.236
67473W        W32733   1.076  23.736   3.677
67474W        W32734  35.557  25.950  13.017
67475W        W32735   3.254  26.732   5.105
67476W        W32736  25.923   1.833   2.722
67477W        W32737  36.699  13.375  13.636
67478W        W32738  36.265   4.174   2.825
67479W        W32739   9.793  44.948  12.474
67480W        W32740  38.510  43.016   1.463
67481W        W32741  10.432  26.864  14.484
67482W        W32742  29.071  15.672   3.294
67483W        W32743   8.313  13.623  10.783
67484W        W32744  18.437   6.326   5.203
67485W        W32745  38.651  18.602  13.744
67486W        W32746  39.344   5.352   3.627
67487W        W32747  17.552  28.594   2.607
67488W        W32748   0.257  30.780   1.229
67489W        W32749  26.960  27.751   2.227
67490W        W32750  43.804  36.120  13.508
67491W        W32751  12.334  13.616  10.730
67492W        W32752  18.134  17.965  12.536
67493W        W32753  26.048  28.400  12.844
67494W        W32754   8.684  11.777   3.723
67495W        W32755  27.169   1.765   2.248
67496W        W32756  15.632   6.841  14.512
67497W        W32757  44.857  37.375  14.754
67498W        W32758  32.651  25.580  11.072
67499W        W32759  19.086   6.936   3.784
67500W        W32760  35.946   8.759   3.845
67501W        W32761  21.864   5.242   0.687
67502W        W32762  29.148  41.037   1.833
67503W        W32763  30.373   1.956  14.831
67504W        W32764  25.759   9.464  10.839
67505W        W32765  36.914  14.238  13.396
67506W        W32766  10.204  11.913  11.818
67507W        W32767  34.951  22.965   3.308
67508W        W32768  29.606   4.437  12.156
67509W        W32769  17.492  40.998   3.793
67510W        W32770  36.080  21.063  11.211
67511W        W32771  14.560  32.153   0.402
67512W        W32772  19.621  37.475   0.879
67513W        W32773  27.821   5.243   0.906
67514W        W32774  38.585   4.992   3.698
67515W        W32775  21.018  36.234   0.599
67516W        W32776  33.079  37.480  10.595
67517W        W32777  43.879  38.595   4.743
67518W        W32778  16.733  21.270  10.852
67519W        W32779  13.868  35.481  13.118
67520W        W32780  17.155  32.164   4.395
67521W        W32781  34.597   4.184  14.027
67522W        W32782  10.951  39.623  13.504
67523W        W32783   7.584  21.785  14.058
67524W        W32784  44.630   8.811  10.211
67525W        W32785  33.509  39.434  13.832
67526W        W32786  20.724  29.952  11.142
67527W        W32787  31.120  42.934   2.126
67528W        W32788  30.648  32.998  13.357
67529W        W32789   0.328  34.841  14.739
67530W        W32790  23.961  11.143  12.946
67531W        W32791  32.322  40.919  12.088
67532W        W32792  17.036  14.996  14.404
67533W        W32793  19.815  18.176   1.288
67534W        W32794  10.473  34.276  10.379
67535W        W32795  30.004  14.780  12.905
67536W        W32796  31.588   8.929  13.781
67537W        W32797  18.562  41.959  14.443
67538W        W32798  32.693  32.003  12.776
67539W        W32799  19.545  25.300   3.207
67540W        W32800  40.363  44.758  11.959
67541W        W32801  22.757  28.049  10.792
67542W        W32802  26.158  16.181   3.972
67543W        W32803  18.612   7.424   0.063
67544W        W32804  31.009   0.141  11.078
67545W        W32805  41.928  37.396  13.734
67546W        W32806  39.004   6.451  14.338
67547W        W32807  31.677  42.573  13.492
67548W        W32808  27.641  18.179   1.969
67549W        W32809   8.963  40.800   2.392
67550W        W32810  22.277  10.680   4.230
67551W        W32811   4.296  34.095   4.153
67552W        W32812  39.736  27.501   2.166
67553W        W32813  17.340  31.623   9.841
67554W        W32814  23.675  30.135   2.736
67555W        W32815  43.471  17.992   1.375
67556W        W32816  29.197   3.950  13.277
67557W        W32817  37.133  13.244  12.133
67558W        W32818  41.571   2.520   0.782
67559W        W32819  25.560  43.310   3.229
67560W        W32820  37.454   2.316  10.353
67561W        W32821   1.483  30.603  14.673
67562W        W32822   7.658  44.242   3.648
67563W        W32823   7.891  28.530   3.086
67564W        W32824  31.998  32.581   3.780
67565W        W32825  16.478   7.943  13.124
67566W        W32826  19.342  29.762  14.575
67567W        W32827  16.069  26.938  13.634
67568W        W32828  24.330  20.163   2.798
67569W        W32829  37.322  24.491   0.786
67570W        W32830  15.213  38.442  13.207
67571W        W32831  15.403  43.312  14.263
67572W        W32832  43.974  40.998   4.694
67573W        W32833  30.504   5.339   2.335
67574W        W32834  29.624  25.671  13.915
67575W        W32835  28.176  27.128   1.479
67576W        W32836  43.240  25.759  14.001
67577W        W32837  23.289  30.664   4.597
67578W        W32838  24.687  33.394   3.136
67579W        W32839  36.605   0.195  14.593
67580W        W32840  34.865   7.293   4.029
67581W        W32841  25.443   9.301  13.106
67582W        W32842   7.670   3.177   3.208
67583W        W32843  27.488  42.036   0.431
67584W        W32844  10.757   6.694  12.996
67585W        W32845   3.284  22.146  13.576
67586W        W32846  23.232  33.802   3.564
67587W        W32847   1.752  31.885   5.206
67588W        W32848  41.836  25.844   0.015
67589W        W32849  32.515   0.912   0.713
67590W        W32850  21.571   3.259   2.401
67591W        W32851  11.907  40.628  11.499
67592W        W32852  10.852  38.545   2.068
67593W        W32853   6.481  23.673  12.685
67594W        W32854  35.033  13.385   0.749
67595W        W32855  14.179  33.126   3.627
67596W        W32856  32.484   8.925   0.489
67597W        W32857  44.218  33.336   4.130
67598W        W32858  16.752  23.156  12.068
67599W        W32859  16.881   4.786   0.781
67600W        W32860  12.664  18.831   1.381
67601W        W32861  41.883  41.822   1.913
67602W        W32862  31.006  38.431   3.855
67603W        W32863  23.292  39.855   0.905
67604W        W32864   6.876  43.807   0.379
67605W        W32865  18.029   3.030   3.301
67606W        W32866  37.995   4.190   3.218
67607W        W32867   2.321  24.839  12.004
67608W        W32868  12.126  19.119  10.733
67609W        W32869   3.225   8.744   1.279
67610W        W32870  23.139   7.581  11.961
67611W        W32871   2.771  39.875  12.953
67612W        W32872   8.674   4.917  13.564
67613W        W32873  44.720   6.438  14.973
67614W        W32874  18.375  41.949  11.443
67615W        W32875  36.168  17.272   3.069
67616W        W32876  10.322  38.383   0.743
67617W        W32877  44.003  19.868  10.593
67618W        W32878  37.342  34.156   1.787
67619W        W32879  25.493  25.465  13.211
67620W        W32880  36.835   5.163  14.498
67621W        W32881  22.544   6.572   0.315
67622W        W32882   6.820  41.840  14.247
67623W        W32883  16.570   1.545   0.523
67624W        W32884   2.167  43.007   1.554
67625W        W32885   2.367   9.326   1.239
67626W        W32886  30.943  11.561  12.922
67627W        W32887  33.137  34.349  11.416
67628W        W32888   9.362  32.712  13.903
67629W        W32889  20.009   7.507  10.301
67630W        W32890  32.643  37.433   4.878
67631W        W32891  17.980  44.776   2.304
67632W        W32892  18.264   2.718   1.137
67633W        W32893  27.953  38.039  13.429
67634W        W32894  12.821  37.345  13.244
67635W        W32895  31.408  39.966   2.773
67636W        W32896  37.506  34.045  14.448
67637W        W32897  33.659  38.840  14.971
67638W        W32898   1.399  41.003   2.912
67639W        W32899  22.654  10.207  13.446
67640W        W32900   4.947  40.971  14.678
67641W        W32901  12.845  22.856  12.034
67642W        W32902   1.849   9.897   0.894
67643W        W32903  25.183  19.064   4.027
67644W        W32904  15.606  43.242   1.267
67645W        W32905   1.579   5.821  11.023
67646W        W32906  37.026  27.080  14.957
67647W        W32907  32.290  22.128  12.106
67648W        W32908   0.191  37.323  12.011
67649W        W32909  29.218   9.263  12.509
67650W        W32910  23.134  17.587  13.533
67651W        W32911  11.248  12.125   0.756
67652W        W32912   1.903  37.323   3.243
67653W        W32913   5.320  14.922  12.166
67654W        W32914   1.911  33.019   4.448
67655W        W32915  24.160  38.247  13.224
67656W        W32916  28.415  34.152   2.412
67657W        W32917  11.267  38.645  10.482
67658W        W32918  43.542  33.016  12.974
67659W        W32919  28.102  18.400   1.464
67660W        W32920  18.572  15.576  11.128
67661W        W32921  12.191  27.318  11.051
67662W        W32922  38.084  11.400  12.092
67663W        W32923  14.954  41.824   0.624
67664W        W32924   5.945  23.539   3.848
67665W        W32925  35.481  18.997  10.793
67666W        W32926   0.766  17.238   0.018
67667W        W32927  34.437  33.916  11.658
67668W        W32928  35.375   1.001  14.473
67669W        W32929   3.084   5.535  12.594
67670W        W32930  23.966  15.352  13.232
67671W        W32931  29.011  39.143   0.766
67672W        W32932  10.221  28.485   3.168
67673W        W32933   8.271  42.872  13.063
67674W        W32934   1.139  22.507  12.434
67675W        W32935  28.753  44.252  14.955
67676W        W32936  28.245  11.118  12.478
67677W        W32937  25.450  28.226   1.107
67678W        W32938  41.611  40.388   2.758
67679W        W32939  32.359   9.156  13.162
67680W        W32940  43.383  37.501   0.103
67681W        W32941  10.670  37.767   0.268
67682W        W32942  36.949  17.647  13.890
67683W        W32943  14.347   9.341  10.774
67684W        W32944   1.357  27.261   2.311
67685W        W32945  42.008   7.400   2.649
67686W        W32946  17.099  39.413  14.855
67687W        W32947  25.204  25.152   2.738
67688W        W32948  34.561  19.352   3.414
67689W        W32949  14.235  16.264  12.489
67690W        W32950  19.223  27.630   0.033
67691W        W32951  15.734  28.606  12.217
67692W        W32952   2.945  15.424   2.940
67693W        W32953  43.060  20.164   4.534
67694W        W32954   9.258  15.530   1.750
67695W        W32955  39.584  38.798  14.876
67696W        W32956  16.554  43.350  12.418
67697W        W32957  17.333  10.235  12.089
67698W        W32958  43.964  19.780  11.820
67699W        W32959  33.928  40.053   4.618
67700W        W32960  42.550  38.119   1.329
67701W        W32961  40.961   6.279   0.336
67702W        W32962  19.196  27.426   4.594
67703W        W32963  35.856  21.853  14.842
67704W        W32964  19.727  15.361   3.702
67705W        W32965   5.247  12.203  12.663
67706W        W32966  31.173  42.924   4.365
67707W        W32967  26.969  30.089   3.617
67708W        W32968  27.611  41.615   3.293
67709W        W32969  35.379  36.904   0.048
67710W        W32970   7.237  15.907   1.903
67711W        W32971  11.355  21.939   2.956
67712W        W32972  32.591  19.623   2.002
67713W        W32973  34.804  20.154   1.873
67714W        W32974  34.072  41.602  11.596
67715W        W32975  35.052  31.946  12.844
67716W        W32976  37.475  26.026  12.188
67717W        W32977  31.204  25.497  13.285
67718W        W32978  23.651  33.573   2.352
67719W        W32979  18.489  22.785   4.626
67720W        W32980  43.273   7.196   1.409
67721W        W32981  21.068   7.634  11.090
67722W        W32982  36.839  29.034  11.435
67723W        W32983  32.657   6.190   3.271
67724W        W32984   6.662   8.844  11.645
67725W        W32985  43.252  38.685  10.273
67726W        W32986  26.448  26.275  11.340
67727W        W32987  12.906  23.035   2.417
67728W        W32988  24.154   9.374   3.991
67729W        W32989   4.933  11.813   2.351
67730W        W32990  15.897  22.186  13.350
67731W        W32991   0.119  32.632  10.638
67732W        W32992  39.477  23.843   3.874
67733W        W32993   0.222   9.934   1.950
67734W        W32994   1.283  22.030   0.725
67735W        W32995  36.396  11.105  13.835
67736W        W32996  44.057  29.932   4.109
67737W        W32997   5.956  44.489  13.297
67738W        W32998  12.163  22.210   3.196
67739W        W32999   1.487  43.829  14.772
67740W        W33000   9.241  15.600   0.650
67741W        W33001  35.606  14.605   1.162
67742W        W33002   4.750  21.335  10.688
67743W        W33003  36.062   5.418   1.361
67744W        W33004  14.248  12.295   0.913
67745W        W33005   2.472  42.190  12.979
67746W        W33006   4.974   1.003   0.826
67747W        W33007  36.597  13.697   2.753
67748W        W33008   9.312  19.519  13.413
67749W        W33009  37.438   9.879   4.540
67750W        W33010  44.398  42.810   3.348
67751W        W33011   3.085  41.057  12.498
67752W        W33012  18.102   5.242   0.357
67753W        W33013  30.046  23.027  14.197
67754W        W33014  28.119  23.786   4.349
67755W        W33015  12.267  29.862  11.299
67756W        W33016  33.265  14.676   2.036
67757W        W33017   7.779  32.741   3.242
67758W        W33018  30.139  31.346   4.440
67759W        W33019   1.184  43.728  14.365
67760W        W33020   6.935  43.962  14.194
67761W        W33021  36.864   6.648  12.767
67762W        W33022  15.574  37.989  10.604
67763W        W33023  43.446  19.116  13.459
67764W        W33024   1.242  18.646  11.233
67765W        W33025   9.184  19.765   3.472
67766W        W33026   3.217   0.373  14.314
67767W        W33027  36.539  14.562  10.245
67768W        W33028  34.491   9.780   3.759
67769W        W33029   1.354  27.787   1.368
67770W        W33030   6.562  39.828   4.317
67771W        W33031  37.229  34.762  13.480
67772W        W33032  38.633  27.354   0.346
67773W        W33033  13.744  40.334  13.964
67774W        W33034  44.928  28.764  13.398
67775W        W33035  14.559  38.596  13.919
67776W        W33036   1.457  19.061  11.566
67777W        W33037  24.054  43.219  13.079
67778W        W33038  38.845  15.062   4.651
67779W        W33039  32.958  34.156  10.974
67780W        W33040   6.798  20.269  14.816
67781W        W33041   1.015  27.193  11.298
67782W        W33042  44.979  31.701  11.972
67783W        W33043  34.410   3.099   1.459
67784W        W33044  11.250  32.487  12.358
67785W        W33045  39.117  10.404   2.353
67786W        W33046   0.265   1.456  12.842
67787W        W33047  41.936   0.997   2.082
67788W        W33048  23.173  30.609  12.392
67789W        W33049  44.852  41.899   2.639
67790W        W33050  18.346   6.335   3.067
67791W        W33051  38.441  15.486  10.591
67792W        W33052  17.688  37.327  13.904
67793W        W33053  15.730   5.426  11.452
67794W        W33054  20.546   4.842  12.104
67795W        W33055  23.205  41.403  12.076
67796W        W33056  20.990  20.263  11.728
67797W        W33057  12.170   9.441   4.217
67798W        W33058  38.347   3.363  14.864
67799W        W33059  42.197  24.744   3.112
67800W        W33060  10.469  20.941   4.067
67801W        W33061  16.871  35.570  10.652
67802W        W33062  16.961   9.211  12.477
67803W        W33063   4.994  16.467  13.629
67804W        W33064   0.471  42.511   1.193
67805W        W33065  15.811   2.930   0.415
67806W        W33066   4.794  15.126   0.837
67807W        W33067  39.447  42.343  10.798
67808W        W33068  21.616  18.102   3.183
67809W        W33069  44.528  16.455   1.943
67810W        W33070   3.893  31.701  12.882
67811W        W33071   0.026  21.713  11.294
67812W        W33072  14.886  32.615   3.244
67813W        W33073  39.860  12.181  14.585
67814W        W33074  43.823   7.724   1.640
67815W        W33075  34.713  13.770   4.658
67816W        W33076  13.566  37.741  10.705
67817W        W33077   2.733  42.410  12.554
67818W        W33078   8.086  27.506   1.320
67819W        W33079  21.810  30.560  10.763
67820W        W33080  29.406   2.256   3.180
67821W        W33081  26.996  34.906   4.286
67822W        W33082  20.652  23.852   1.250
67823W        W33083  24.112  25.693  11.931
67824W        W33084   1.308  32.875   0.399
67825W        W33085  40.715  39.818  11.949
67826W        W33086  28.824  43.427   1.989
67827W        W33087  21.322  41.508   2.742
67828W        W33088  37.564  16.036   4.152
67829W        W33089  19.597   5.684   1.717
67830W        W33090  17.326  20.735  14.810
67831W        W33091  16.311  39.297   2.847
67832W        W33092  44.859  32.435   1.680
67833W        W33093  24.750  39.039  10.033
67834W        W33094  24.573  38.247   2.508
67835W        W33095   7.112  14.311   0.720
67836W        W33096  31.195   6.981   2.815
67837W        W33097  30.598  25.200  12.504
67838W        W33098  27.355  28.443  14.089
67839W        W33099  27.221   9.744  13.816
67840W        W33100   6.234   5.171   0.290
67841W        W33101  20.767   4.727  14.354
67842W        W33102  18.990  12.463   1.790
67843W        W33103  36.814  32.412   1.824
67844W        W33104   2.184  24.151  13.981
67845W        W33105  32.808  36.472   3.399
67846W        W33106   4.218  30.860  14.437
67847W        W33107  33.550  31.238   2.299
67848W        W33108  42.494   1.330   4.219
67849W        W33109   0.816  32.350   4.931
67850W        W33110   2.300  37.481   1.474
67851W        W33111  33.054   1.508   0.991
67852W        W33112  19.574   2.957   1.387
67853W        W33113  11.109  17.515  14.460
67854W        W33114  44.513  43.544   2.345
67855W        W33115   2.812  32.292  14.327
67856W        W33116  12.609  17.223  14.018
67857W        W33117  15.282   4.730   0.937
67858W        W33118  41.750  31.244  10.730
67859W        W33119  40.983  23.957  13.882
67860W        W33120   4.157  40.257  12.447
67861W        W33121  41.409  44.468  13.598
67862W        W33122  14.243   6.482  12.227
67863W        W33123  25.445   1.657   2.691
67864W        W33124  29.667  27.925   2.703
67865W        W33125  43.909  27.454  11.226
67866W        W33126  30.985  38.317  14.001
67867W        W33127   1.265  12.755  13.631
67868W        W33128   2.927   7.274  12.476
67869W        W33129  36.926  35.797   3.750
67870W        W33130  32.722  39.994   1.416
67871W        W33131  11.195  11.067  12.014
67872W        W33132  18.117   9.055   3.700
67873W        W33133   0.255  18.929  12.617
67874W        W33134   2.430   3.707  13.782
67875W        W33135  19.325  33.446   2.357
67876W        W33136  29.343  38.444  10.746
67877W        W33137  16.342   8.206   0.359
67878W        W33138  36.820   0.298   9.954
67879W        W33139  27.026  21.716  13.442
67880W        W33140  23.650  25.732  14.426
67881W        W33141  17.088   1.067   0.982
67882W        W33142  19.797  38.947  10.270
67883W        W33143   5.408  25.920   1.948
67884W        W33144  23.029   8.489   1.718
67885W        W33145   2.140   3.989  11.567
67886W        W33146  13.317   2.445   3.314
67887W        W33147  22.936  15.108  14.528
67888W        W33148  14.848  36.226  11.509
67889W        W33149  38.024  39.021  11.121
67890W        W33150  18.958  16.238   1.442
67891W        W33151  37.648  44.853  12.579
67892W        W33152  12.862  31.536  10.783
67893W        W33153  10.968   9.413  11.978
67894W        W33154  26.703  25.133  13.464
67895W        W33155   8.591  44.733  12.115
67896W        W33156  14.535   5.869   1.796
67897W        W33157  15.113   3.778  13.541
67898W        W33158  32.717   9.705  14.413
67899W        W33159  31.241  29.535  11.070
67900W        W33160  18.178  21.364   4.533
67901W        W33161  33.014  37.838  11.014
67902W        W33162  30.652   7.924  14.036
67903W        W33163  29.761   7.111  10.855
67904W        W33164  13.227  41.989   0.463
67905W        W33165   8.852  16.386   3.743
67906W        W33166  22.552   1.248   3.281
67907W        W33167  44.041  15.673   0.955
67908W        W33168  11.879  42.699   4.087
67909W        W33169  36.612   3.529   1.396
67910W        W33170  12.394   8.146   1.788
67911W        W33171  13.785  35.458  12.055
67912W        W33172   7.637  27.238  10.296
67913W        W33173  10.703  31.823   0.977
67914W        W33174  37.978  37.784  10.478
67915W        W33175  10.635  42.584  12.070
67916W        W33176   6.763  34.094   0.979
67917W        W33177  42.881  10.118   2.562
67918W        W33178  38.335  34.515   3.090
67919W        W33179  30.633  44.996   2.866
67920W        W33180  31.854  10.232  11.102
67921W        W33181  39.945  35.220  13.108
67922W        W33182  35.516  13.603  11.236
67923W        W33183  28.684  39.475   4.587
67924W        W33184   6.153  17.897  10.250
67925W        W33185  40.413   3.262  13.297
67926W        W33186  13.879  14.099   2.289
67927W        W33187  24.500  16.653  14.483
67928W        W33188  13.383   8.940  13.972
67929W        W33189  25.263  28.512  13.418
67930W        W33190   8.885  35.354  12.158
67931W        W33191  26.267   1.244  14.103
67932W        W33192  43.529  37.120  14.288
67933W        W33193  20.266  25.052  13.869
67934W        W33194   6.611  31.755  11.214
67935W        W33195  11.304   1.079  12.527
67936W        W33196  42.733   7.772   0.742
67937W        W33197  30.879  36.033   4.205
67938W        W33198  31.668  44.547   1.775
67939W        W33199  24.426   0.366   2.357
67940W        W33200   5.945  38.335   0.220
67941W        W33201  16.330  31.891   4.078
67942W        W33202   7.229  39.051   1.266
67943W        W33203  22.992  38.429  11.123
67944W        W33204  14.731  25.001  10.640
67945W        W33205   9.849  11.889  14.397
67946W        W33206  11.670  10.162   4.450
67947W        W33207  11.728  11.234   0.831
67948W        W33208   2.795  43.545  10.505
67949W        W33209  10.526  13.166   2.565
67950W        W33210  38.943   9.250  12.909
67951W        W33211   0.181  36.920  11.028
67952W        W33212   6.935  39.713  12.748
67953W        W33213  13.063  16.686  12.337
67954W        W33214  32.547  10.665  11.526
67955W        W33215   6.809   1.900  10.542
67956W        W33216  39.477  34.586   0.514
67957W        W33217  36.608  35.044  13.895
67958W        W33218   4.246  20.373   4.867
67959W        W33219  11.843  20.529  14.427
67960W        W33220  32.107  43.768  12.407
67961W        W33221  12.684  22.760   4.272
67962W        W33222  32.161  29.446   2.256
67963W        W33223  41.575  15.547   2.039
67964W        W33224  40.016   0.433   3.812
67965W        W33225  37.068   0.058   3.248
67966W        W33226  23.053  10.027  11.624
67967W        W33227  12.910  26.884  12.968
67968W        W33228  29.516  32.606  13.998
67969W        W33229  14.637  14.179   0.037
67970W        W33230  12.862   7.898  10.585
67971W        W33231  41.737  18.911   5.017
67972W        W33232  33.603   1.845   2.620
67973W        W33233   4.254   5.752  11.021
67974W        W33234  28.686  43.887   3.346
67975W        W33235  30.458  40.573   1.752
67976W        W33236  34.586  32.426   3.328
67977W        W33237  36.941  14.617   2.765
67978W        W33238  41.309  25.648   1.457
67979W        W33239  25.646  38.856  10.845
67980W        W33240   7.403  14.588  14.795
67981W        W33241  29.707   1.768   4.787
67982W        W33242  31.473   2.868  12.467
67983W        W33243  25.441   1.868   4.111
67984W        W33244  21.692  18.136  11.658
67985W        W33245  12.996  38.284   2.690
67986W        W33246  30.675  42.363   0.791
67987W        W33247   7.433  22.256   0.801
67988W        W33248  10.858  30.375   3.075
67989W        W33249   5.835  12.083   0.893
67990W        W33250  25.775  21.558  14.834
67991W        W33251  13.073  27.911  13.703
67992W        W33252  25.802  24.821  14.350
67993W        W33253   5.103  30.416   1.656
67994W        W33254  31.863  24.599   0.810
67995W        W33255  40.810   8.085  14.764
67996W        W33256  32.529  23.497   2.717
67997W        W33257  33.780  19.163  10.720
67998W        W33258  36.792  25.246  14.833
67999W        W33259  39.259  15.243   4.898
68000W        W33260  19.611  24.434   3.719
68001W        W33261  38.783  31.647  11.583
68002W        W33262   0.299   2.565  14.251
68003W        W33263   3.906  38.787   1.420
68004W        W33264   6.354  11.084   0.480
68005W        W33265  26.973  12.642  12.490
68006W        W33266  28.700  43.793  12.368
68007W        W33267  34.897  18.092  12.027
68008W        W33268  27.741   0.688  14.847
68009W        W33269   6.356  32.164  14.513
68010W        W33270  37.819  26.568  10.997
68011W        W33271  37.145   9.698   1.536
68012W        W33272  10.670   3.527  13.559
68013W        W33273   3.267  29.672   4.568
68014W        W33274  26.603  10.633   1.998
68015W        W33275   6.438  39.945   3.776
68016W        W33276   5.406  20.170  11.634
68017W        W33277  25.592  38.142  10.659
68018W        W33278  25.161  18.694  11.657
68019W        W33279  27.678  39.142   2.746
68020W        W33280   1.042  38.846   0.425
68021W        W33281   1.014  10.744   4.893
68022W        W33282   7.962  24.026  12.846
68023W        W33283  34.586  14.567   4.495
68024W        W33284  42.498  44.763  14.871
68025W        W33285   7.414   5.919   1.938
68026W        W33286  37.494  19.646   4.119
68027W        W33287  26.918  23.194   0.324
68028W        W33288  12.824  30.570   4.451
68029W        W33289  31.889  43.371  10.567
68030W        W33290  21.518   0.536   0.389
68031W        W33291   9.909   9.329   4.112
68032W        W33292  20.106  23.865   4.575
68033W        W33293   1.764   4.326  13.964
68034W        W33294  40.433   9.875   2.282
68035W        W33295  19.696  34.964  13.890
68036W        W33296  40.144   6.640  11.486
68037W        W33297   4.127  28.124   2.625
68038W        W33298  15.312  14.160   2.287
68039W        W33299  23.660  28.111  12.005
68040W        W33300   6.958  38.494  14.335
68041W        W33301   4.071  16.759   4.175
68042W        W33302  26.700  44.061  13.546
68043W        W33303   0.779  40.979   1.840
68044W        W33304   5.679  27.681  12.040
68045W        W33305  37.823  33.934   3.677
68046W        W33306  31.120  10.806  13.376
68047W        W33307  19.674  20.527   2.272
68048W        W33308   5.950  25.716  10.134
68049W        W33309  11.303  31.855   1.880
68050W        W33310  40.256  22.354  12.095
68051W        W33311  43.119  38.919   2.694
68052W        W33312  33.021  33.641  13.246
68053W        W33313  41.495  36.477  14.083
68054W        W33314  40.457   1.952   4.603
68055W        W33315   0.995  36.544  11.175
68056W        W33316  15.715  41.328   4.411
68057W        W33317  30.967  38.921  14.938
68058W        W33318  42.677   9.104   5.100
68059W        W33319  25.454   4.720  14.746
68060W        W33320  19.039  42.868  14.427
68061W        W33321   4.655  20.298   3.150
68062W        W33322  22.103  44.528  12.969
68063W        W33323  41.332  15.216   2.584
68064W        W33324  13.326  20.085  13.516
68065W        W33325  11.105  14.419   3.667
68066W        W33326   6.103  37.011   2.349
68067W        W33327  10.112  14.621   4.144
68068W        W33328  40.546  26.968  14.560
68069W        W33329  12.902  36.849  13.933
68070W        W33330  19.067  10.913  13.400
68071W        W33331   4.113  14.312  11.111
68072W        W33332  37.879  44.393  13.478
68073W        W33333  21.013  10.192   2.469
68074W        W33334  16.017  15.259   3.608
68075W        W33335  41.346  19.988   1.186
68076W        W33336   6.944  31.971   3.855
68077W        W33337  11.799  28.833  12.390
68078W        W33338  18.288  41.293   2.895
68079W        W33339  25.979  26.648   4.346
68080W        W33340  21.089  30.330   4.476
68081W        W33341  12.155  10.425  13.397
68082W        W33342  44.329  10.178   0.219
68083W        W33343  20.597  17.098   1.737
68084W        W33344  27.420  10.760   1.469
68085W        W33345   0.703  39.420   2.884
68086W        W33346  39.457  17.600  12.995
68087W        W33347  12.432   3.049  11.929
68088W        W33348  42.711  43.937  14.522
68089W        W33349  29.491  22.742  14.980
68090W        W33350  10.766  43.450  11.207
68091W        W33351  18.202  34.457  12.535
68092W        W33352  16.461  28.483   1.097
68093W        W33353  11.724   3.525  11.413
68094W        W33354  15.706  17.660  11.197
68095W        W33355  12.383   4.753  11.866
68096W        W33356  36.866  19.754   3.317
68097W        W33357  13.052  22.203  13.474
68098W        W33358  15.770   4.855   0.746
68099W        W33359   8.984  25.915   2.294
68100W        W33360  22.828  24.486   4.443
68101W        W33361  42.946   7.438   1.076
68102W        W33362  33.544   4.333   0.788
68103W        W33363   3.982  32.155  13.128
68104W        W33364   1.907  30.575  12.148
68105W        W33365  28.063  36.992  11.553
68106W        W33366  37.198  33.014   0.778
68107W        W33367  19.597  22.604   1.009
68108W        W33368  16.665  15.132   2.721
68109W        W33369   4.836  44.303   1.385
68110W        W33370  24.504  26.597   1.918
68111W        W33371  26.502   9.394  14.321
68112W        W33372  28.388  20.763   3.225
68113W        W33373  19.453   6.724  12.016
68114W        W33374  26.488  21.807   3.827
68115W        W33375  41.567  34.485   0.858
68116W        W33376  25.620   4.450  13.951
68117W        W33377   2.328  24.777   2.014
68118W        W33378  25.246   5.882   3.290
68119W        W33379  29.570  13.672   4.426
68120W        W33380   5.828   1.304   3.888
68121W        W33381  19.921  35.164  13.480
68122W        W33382  27.044  31.210   4.148
68123W        W33383  31.461  22.266   4.049
68124W        W33384  40.745  31.138   3.699
68125W        W33385  39.128   7.083  10.010
68126W        W33386  29.058   5.805   2.854
68127W        W33387   9.824  28.966   3.831
68128W        W33388  29.962  11.664  11.479
68129W        W33389  19.197  15.823   2.744
68130W        W33390  27.627  12.771  10.782
68131W        W33391  12.141  33.083  11.736
68132W        W33392  11.283  19.300  12.563
68133W        W33393  20.226   6.301  13.911
68134W        W33394  28.731   3.804  11.531
68135W        W33395   5.432   7.362   0.433
68136W        W33396  28.213  29.592  14.676
68137W        W33397  16.779   9.988   1.181
68138W        W33398  10.257  44.467   4.333
68139W        W33399  36.280  41.300   1.354
68140W        W33400   3.705  11.098   4.010
68141W        W33401  17.975  10.554   0.897
68142W        W33402  23.637  27.166  13.077
68143W        W33403  44.230  33.870  12.806
68144W        W33404  17.678  42.888   0.211
68145W        W33405  34.565  37.840   1.842
68146W        W33406  17.927  44.310  14.079
68147W        W33407  36.619  33.162   4.667
68148W        W33408  33.932  22.546  14.499
68149W        W33409  21.682  38.042  14.471
68150W        W33410  20.304  15.844   4.539
68151W        W33411   5.773  31.391  12.613
68152W        W33412   2.018   8.083   1.258
68153W        W33413  31.430  16.863   1.355
68154W        W33414  42.686  24.869   9.942
68155W        W33415  18.583  31.258   1.292
68156W        W33416  29.681  32.466   2.764
68157W        W33417  31.289   9.751   1.760
68158W        W33418  30.519  39.924  10.706
68159W        W33419  20.842   3.233   1.764
68160W        W33420  28.214  17.660   2.240
68161W        W33421  27.048  25.916   3.152
68162W        W33422  42.504  30.064   2.272
68163W        W33423  24.527  28.979  14.909
68164W        W33424  38.054  23.522  10.445
68165W        W33425  39.762  22.099   4.580
68166W        W33426   0.739   5.854   3.088
68167W        W33427  37.532  43.726  12.576
68168W        W33428  30.012  43.068   0.892
68169W        W33429  41.972  14.067   3.620
68170W        W33430  18.682  38.604  14.375
68171W        W33431  14.306  34.535   3.578
68172W        W33432   8.555  24.415  11.169
68173W        W33433  20.555  42.310   1.618
68174W        W33434  41.018  23.506  13.610
68175W        W33435   4.370  35.082   0.493
68176W        W33436  29.363  15.235  12.358
68177W        W33437  22.016   4.173  14.813
68178W        W33438  23.127  28.543   2.908
68179W        W33439   4.303  44.359   2.568
68180W        W33440  32.581   8.507   3.670
68181W        W33441  28.623  31.937  13.478
68182W        W33442  23.569   7.250   2.933
68183W        W33443  15.067  22.620   2.791
68184W        W33444  31.841   2.710  10.707
68185W        W33445  27.103  27.442   4.506
68186W        W33446  26.428  32.007   4.985
68187W        W33447   0.746  10.633  11.922
68188W        W33448  19.477  43.434   1.316
68189W        W33449  19.246  30.704   4.337
68190W        W33450  11.361  28.143  12.716
68191W        W33451  17.309  14.604  13.480
68192W        W33452  42.221  15.629   2.763
68193W        W33453  18.762  39.971   3.998
68194W        W33454  39.166  21.131  11.949
68195W        W33455  35.937  23.534   1.715
68196W        W33456  36.107  13.514  13.458
68197W        W33457  39.524  42.408  11.669
68198W        W33458  25.588   5.999   0.131
68199W        W33459  18.974  19.162   2.250
68200W        W33460   9.963  30.556   2.117
68201W        W33461  42.118   7.134   1.265
68202W        W33462  33.785  14.151   3.532
68203W        W33463  43.008  32.985  14.170
68204W        W33464  31.086   1.905   0.229
68205W        W33465  11.487  33.452  12.232
68206W        W33466  17.797   8.306   1.853
68207W        W33467  37.839  16.786  11.559
68208W        W33468  28.233  35.344   4.111
68209W        W33469  31.504  42.245  12.822
68210W        W33470  26.892   7.461  12.694
68211W        W33471  41.969  16.056   4.589
68212W        W33472  19.812   3.123   2.613
68213W        W33473   2.819   5.797   0.519
68214W        W33474   9.890  20.041  12.592
68215W        W33475  44.809  35.403   2.189
68216W        W33476   3.684  20.979  14.517
68217W        W33477  37.552   3.974   1.324
68218W        W33478  19.685   2.476   1.509
68219W        W33479  13.324   1.113  14.228
68220W        W33480   4.085  14.600  14.374
68221W        W33481  18.188  21.440   5.460
68222W        W33482  33.394  24.074  11.150
68223W        W33483  38.021  19.349   3.725
68224W        W33484  17.916  22.811  11.731
68225W        W33485  26.699  21.624   4.246
68226W        W33486  16.702  37.704  10.892
68227W        W33487  10.626  16.074  13.039
68228W        W33488  44.503   9.142   0.438
68229W        W33489  25.765  36.026  14.347
68230W        W33490   3.755  25.088   1.211
68231W        W33491  17.185   2.421  10.510
68232W        W33492  37.423  12.106   0.925
68233W        W33493  16.351  41.533  10.482
68234W        W33494  34.138   7.688   4.659
68235W        W33495  12.155  20.783   3.172
68236W        W33496  24.932  28.492   2.373
68237W        W33497  27.188  26.171   2.198
68238W        W33498   0.442  19.030  14.859
68239W        W33499  40.426  35.273   1.096
68240W        W33500   4.730  40.671  13.922
68241W        W33501  22.177  37.511  14.933
68242W        W33502  22.553  13.259   2.734
68243W        W33503  16.038  30.684  11.877
68244W        W33504  43.209  38.999   5.119
68245W        W33505  43.938   1.807  10.445
68246W        W33506  33.300  36.543  11.032
68247W        W33507  13.209  21.125   1.811
68248W        W33508  44.515  13.806   4.118
68249W        W33509  39.048   6.257  13.849
68250W        W33510  30.463  19.019  12.121
68251W        W33511  13.796  39.000  11.702
68252W        W33512  10.113   7.876  12.656
68253W        W33513   2.568  12.217   3.112
68254W        W33514   8.105  11.058   0.388
68255W        W33515  25.117  36.968  14.366
68256W        W33516  16.775  31.521   4.357
68257W        W33517  16.692  21.699  11.150
68258W        W33518  25.527  30.304   0.076
68259W        W33519  23.909   2.713   2.428
68260W        W33520  20.269  12.318   0.193
68261W        W33521  12.276  38.089   0.961
68262W        W33522  30.625  34.507   0.474
68263W        W33523  42.147  20.291   0.844
68264W        W33524  33.187  33.564   0.235
68265W        W33525  30.473  13.287   3.328
68266W        W33526  32.447  14.585  14.731
68267W        W33527   6.922  13.330  14.355
68268W        W33528  41.697  14.913  11.181
68269W        W33529  17.513   2.235   3.240
68270W        W33530  20.991  31.960   2.356
68271W        W33531  33.500  14.787   3.970
68272W        W33532  22.322  36.365   2.155
68273W        W33533  13.200  16.244  13.533
68274W        W33534  10.122  12.767   0.432
68275W        W33535  10.354  10.544  11.908
68276W        W33536  35.325   9.258  12.043
68277W        W33537  41.043  16.402   4.644
68278W        W33538  35.419  42.605  11.908
68279W        W33539  12.854  18.461   3.757
68280W        W33540  39.112  29.337   3.927
68281W        W33541  42.982  28.044   2.705
68282W        W33542   3.715   0.272  12.098
68283W        W33543   8.393  24.086   0.894
68284W        W33544  12.671  17.206  14.982
68285W        W33545   4.942  17.629  13.307
68286W        W33546   6.256  42.705  14.925
68287W        W33547  16.315  28.858  11.676
68288W        W33548  24.440   8.065  13.657
68289W        W33549   3.750  38.336  12.423
68290W        W33550  10.224  30.591   4.197
68291W        W33551  16.638  11.458  11.542
68292W        W33552  35.771  17.142   2.138
68293W        W33553  10.850  43.754   4.647
68294W        W33554  33.039  28.813  10.354
68295W        W33555  34.279  22.856   1.707
68296W        W33556  34.463  39.378   3.331
68297W        W33557  27.700  22.093  13.064
68298W        W33558  40.303  23.267   2.254
68299W        W33559   4.884  26.050   2.047
68300W        W33560  33.587  13.369   0.931
68301W        W33561  25.593  30.637  13.176
68302W        W33562  21.984  30.029  12.856
68303W        W33563  18.586  24.534   0.604
68304W        W33564  18.182  19.214  14.575
68305W        W33565  31.510  24.226  10.684
68306W        W33566   3.356  27.473  13.328
68307W        W33567  40.749  36.244   2.045
68308W        W33568  41.037   9.252  13.622
68309W        W33569  43.013  32.073   2.744
68310W        W33570  42.830  20.638   2.772
68311W        W33571  40.581  27.140  12.525
68312W        W33572  14.653  13.812  13.821
68313W        W33573  32.393  28.993   2.430
68314W        W33574  36.985  22.803   1.039
68315W        W33575  24.959  27.971  14.978
68316W        W33576  25.117  34.101   2.690
68317W        W33577   5.504  28.167  12.125
68318W        W33578   3.913  29.157  10.794
68319W        W33579   8.415  43.770   4.708
68320W        W33580  18.113  18.288   1.216
68321W        W33581   3.453   8.177   0.246
68322W        W33582  30.492  34.535  11.895
68323W        W33583  13.672   4.861   4.087
68324W        W33584  43.356  40.998   3.153
68325W        W33585   2.510  16.422  11.995
68326W        W33586   2.183  39.805  14.140
68327W        W33587  42.898   6.613   3.368
68328W        W33588   0.271   2.676   0.695
68329W        W33589  44.418  25.469   9.859
68330W        W33590  34.644  12.609  11.513
68331W        W33591  27.905  16.686   2.241
68332W        W33592  11.492  29.921   4.186
68333W        W33593  26.660  10.290  12.705
68334W        W33594  34.316   5.909   0.204
68335W        W33595  28.968  44.816   3.150
68336W        W33596   6.372  16.504  12.060
68337W        W33597  38.101  39.909   4.563
68338W        W33598  37.887  14.799   0.900
68339W        W33599   8.909  21.039   0.715
68340W        W33600  34.655  43.888   1.981
68341W        W33601  17.264  22.536   2.324
68342W        W33602   0.903  42.399  12.025
68343W        W33603  41.469  33.081   0.711
68344W        W33604  26.625  34.132  11.127
68345W        W33605   7.823  26.204   4.497
68346W        W33606  25.102  39.458  11.941
68347W        W33607  10.154  35.795   1.314
68348W        W33608  15.074  42.997   1.975
68349W        W33609   2.847  18.074   2.673
68350W        W33610  34.379  18.362   3.771
68351W        W33611   8.932  29.570  12.475
68352W        W33612  18.905  28.511   2.706
68353W        W33613  34.020  17.866   3.067
68354W        W33614  13.212  44.035   2.132
68355W        W33615  38.776  12.863   1.925
68356W        W33616  11.928   5.705   9.751
68357W        W33617  37.969   8.019  12.131
68358W        W33618  11.214  17.284   2.788
68359W        W33619  23.461  11.059   3.106
68360W        W33620  17.299  43.487  12.859
68361W        W33621  42.618   6.304  11.611
68362W        W33622  12.225  26.366  11.260
68363W        W33623   2.201  17.778  14.051
68364W        W33624   1.356  17.064   4.387
68365W        W33625   6.711  30.373   2.608
68366W        W33626   1.299  28.755   3.186
68367W        W33627   4.677   4.949   2.291
68368W        W33628  44.097  32.810   0.380
68369W        W33629   6.664   1.975   2.539
68370W        W33630  36.282  41.913   2.263
68371W        W33631  32.460  42.857  14.567
68372W        W33632  43.065  13.507  14.988
68373W        W33633  31.597  38.376   0.258
68374W        W33634  35.681  33.711  12.584
68375W        W33635   9.885  42.072  10.989
68376W        W33636  40.034   2.805  13.112
68377W        W33637  25.178  35.386   2.536
68378W        W33638  16.751  31.174   0.297
68379W        W33639  43.904  23.508   1.349
68380W        W33640   9.775  23.149  12.136
68381W        W33641  23.632  35.580  12.198
68382W        W33642  25.245  33.118  11.250
68383W        W33643  34.695  17.820  10.602
68384W        W33644  26.730  22.187  13.408
68385W        W33645  40.128  37.562  11.502
68386W        W33646  36.150  24.573  10.612
68387W        W33647  42.945  10.402  10.622
68388W        W33648  19.022  17.679   3.487
68389W        W33649   1.019  20.881  10.925
68390W        W33650  22.636   9.501   4.154
68391W        W33651   2.268   2.256  13.424
68392W        W33652  28.920  40.822  12.998
68393W        W33653  34.953  28.536   2.157
68394W        W33654  11.534  18.954   4.180
68395W        W33655   5.575   5.526   3.191
68396W        W33656  24.048  10.433  14.077
68397W        W33657   3.880  26.404   1.800
68398W        W33658  11.899   5.202   3.737
68399W        W33659  19.052  28.673   4.330
68400W        W33660  15.259  25.319  10.588
68401W        W33661  41.268  43.464   2.951
68402W        W33662   5.157  27.026  11.565
68403W        W33663  37.243  19.651  13.528
68404W        W33664  43.348  36.254  11.170
68405W        W33665   7.784  33.248  11.532
68406W        W33666   4.725  11.359   0.184
68407W        W33667  34.576  25.146  11.599
68408W        W33668  18.658  23.390  10.161
68409W        W33669   5.268   5.010   3.778
68410W        W33670  29.011  16.930   4.118
68411W        W33671  41.875   3.471   3.279
68412W        W33672  17.239  22.405  11.315
68413W        W33673  26.109  29.043  12.838
68414W        W33674  27.121   5.809   9.708
68415W        W33675  37.044  19.206   0.759
68416W        W33676  40.994  13.354  11.600
68417W        W33677   0.202  36.979  12.464
68418W        W33678  41.799  19.916   0.911
68419W        W33679  11.663  24.056  10.436
68420W        W33680  29.160   6.690   2.709
68421W        W33681  19.053  40.033   2.341
68422W        W33682   3.729  16.679   2.664
68423W        W33683  33.705  20.983  12.551
68424W        W33684  11.067   4.816  13.556
68425W        W33685  21.156  21.601   2.169
68426W        W33686  44.919  28.950  13.988
68427W        W33687  30.161   0.179   2.929
68428W        W33688  24.523  42.691  13.947
68429W        W33689  21.305   3.398   2.881
68430W        W33690  18.102  44.466   1.287
68431W        W33691  34.764  25.907  12.594
68432W        W33692  43.305  16.072   1.291
68433W        W33693  14.773  40.394   4.010
68434W        W33694  32.944  44.727  12.578
68435W        W33695  11.716  34.284   0.353
68436W        W33696  27.605  23.299  14.954
68437W        W33697  15.496  25.242  13.058
68438W        W33698  31.025  40.246  13.876
68439W        W33699   5.765  15.244   1.229
68440W        W33700  26.703  30.601  10.513
68441W        W33701   8.405   0.011   4.219
68442W        W33702  13.123   9.506  12.516
68443W        W33703  25.502  17.623  14.757
68444W        W33704  30.408  39.786   0.382
68445W        W33705  27.519   1.476  12.131
68446W        W33706  21.572  14.981   2.089
68447W        W33707   7.626  15.092   1.950
68448W        W33708   0.808  33.771  13.652
68449W        W33709   3.695  12.334   2.341
68450W        W33710  16.202  16.115  10.512
68451W        W33711  16.764  39.545  13.989
68452W        W33712  22.260  19.551   3.866
68453W        W33713   4.596   0.530  14.443
68454W        W33714  20.971   9.476  13.887
68455W        W33715  35.957  28.418  12.549
68456W        W33716  26.423  39.547  13.458
68457W        W33717  37.110  24.906  11.593
68458W        W33718  21.687   1.680  10.932
68459W        W33719  17.069   5.223  11.115
68460W        W33720  38.800   3.309   1.959
68461W        W33721  27.239  31.468   3.727
68462W        W33722  36.972  37.950  11.865
68463W        W33723  36.296  38.522   3.099
68464W        W33724   9.607  20.115   3.668
68465W        W33725   6.667   1.318   4.729
68466W        W33726  30.552  34.922  12.215
68467W        W33727  40.047   6.165   3.400
68468W        W33728  26.059  43.624   4.588
68469W        W33729  25.611  33.898  11.423
68470W        W33730  42.286  35.334   2.695
68471W        W33731  42.765  37.053   0.404
68472W        W33732   7.081  23.476  14.928
68473W        W33733  44.406  37.370   0.732
68474W        W33734  35.002  31.959   4.992
68475W        W33735  14.090  30.333  14.962
68476W        W33736  10.391   5.809   2.302
68477W        W33737  19.904  16.991   0.841
68478W        W33738  28.694   1.917   0.848
68479W        W33739   3.089  27.733  14.892
68480W        W33740  31.174  24.664   2.192
68481W        W33741  12.149  35.427  14.924
68482W        W33742  19.315  34.522  13.014
68483W        W33743  11.234  40.891  13.550
68484W        W33744  22.814  12.815   1.236
68485W        W33745  23.329   1.507  10.289
68486W        W33746  36.529  30.085   0.858
68487W        W33747  43.818  37.579  14.297
68488W        W33748  13.689  31.852   1.336
68489W        W33749   1.960   9.635   1.359
68490W        W33750  16.830  10.296  14.808
68491W        W33751  24.144  39.320   3.650
68492W        W33752  41.973  43.201  14.787
68493W        W33753  44.291  14.690   0.303
68494W        W33754  18.291  26.696  14.477
68495W        W33755  14.357   3.652  14.310
68496W        W33756   6.862  10.425  14.430
68497W        W33757  21.803  23.902  14.923
68498W        W33758  23.281   7.758   0.765
68499W        W33759  36.504  14.806   4.673
68500W        W33760  29.949   6.810  14.946
68501W        W33761  22.642  31.897   3.795
68502W        W33762  23.679  20.206   0.469
68503W        W33763  30.683  35.132   1.272
68504W        W33764  31.976   6.931  11.023
68505W        W33765  33.641  41.210   1.513
68506W        W33766  14.079  38.561  11.603
68507W        W33767   6.650  38.425  14.797
68508W        W33768  14.738  36.817  12.967
68509W        W33769  40.944  30.995  10.978
68510W        W33770  15.231  35.054  11.152
68511W        W33771  34.628   4.413   4.559
68512W        W33772   2.304  21.553   2.627
68513W        W33773  10.973   7.155  13.084
68514W        W33774   8.408   5.420  11.026
68515W        W33775  10.294  17.018   0.468
68516W        W33776   4.411  43.975   4.153
68517W        W33777  41.227  22.775   2.201
68518W        W33778  44.279  30.948  14.939
68519W        W33779   2.655  30.057  12.145
68520W        W33780  29.090  28.958  12.585
68521W        W33781  14.049  41.221  12.973
68522W        W33782   2.388  12.654  11.291
68523W        W33783  29.186  35.528  10.738
68524W        W33784  34.810  18.755   2.749
68525W        W33785  39.496   9.446  13.537
68526W        W33786  31.468   5.738   4.333
68527W        W33787   9.341  16.357  14.388
68528W        W33788   2.849  27.394  14.272
68529W        W33789  12.348  16.232   2.286
68530W        W33790  33.547  21.102   0.331
68531W        W33791  32.956  30.770  11.900
68532W        W33792   3.211   5.759   1.358
68533W        W33793  34.965  22.576   4.577
68534W        W33794  14.940  11.700   4.576
68535W        W33795  41.528   4.479  11.430
68536W        W33796  30.482  19.862  12.881
68537W        W33797  28.301  11.985  12.563
68538W        W33798  34.763  32.950  13.928
68539W        W33799  44.540   9.893  12.493
68540W        W33800  19.936  40.912  13.383
68541W        W33801   0.363  28.995   0.007
68542W        W33802  18.323  34.039   0.892
68543W        W33803  33.024   5.213   3.693
68544W        W33804  36.054  10.632   2.927
68545W        W33805   9.418  18.612  12.363
68546W        W33806  12.795  38.776  13.508
68547W        W33807  29.843  30.711   2.612
68548W        W33808  19.141  14.990  14.947
68549W        W33809  21.773   5.374   1.802
68550W        W33810  30.125  13.592  13.902
68551W        W33811   1.838  43.932   4.145
68552W        W33812   2.606   6.806  13.454
68553W        W33813  10.223  44.524   3.816
68554W        W33814  31.611   4.940   4.545
68555W        W33815  36.856  33.640   4.675
68556W        W33816  18.783  40.333  10.668
68557W        W33817  37.152  39.451   0.424
68558W        W33818  40.011  18.005   3.628
68559W        W33819  29.089  43.685   0.603
68560W        W33820  17.708   5.417  13.944
68561W        W33821  14.745  34.659  13.512
68562W        W33822   8.651  37.813   2.441
68563W        W33823  39.459  28.360  13.732
68564W        W33824  21.521  39.731  13.699
68565W        W33825  17.180   9.429   4.713
68566W        W33826  16.180  19.085  13.831
68567W        W33827  22.735  27.135  13.111
68568W        W33828  38.328   4.861  14.808
68569W        W33829  32.400  34.484   1.396
68570W        W33830  35.621  10.721  13.542
68571W        W33831  21.759  27.279   0.870
68572W        W33832  27.797   6.033   1.236
68573W        W33833  15.245  36.642  12.840
68574W        W33834   8.759  40.852   1.427
68575W        W33835   1.691  20.338   2.377
68576W        W33836  29.880  24.831   1.870
68577W        W33837   4.818  34.807  10.702
68578W        W33838   2.275  42.472   0.068
68579W        W33839   2.829  41.409   3.436
68580W        W33840   7.637  10.132  14.569
68581W        W33841   7.546   8.846  12.002
68582W        W33842  40.836  40.225  10.810
68583W        W33843   4.426   4.862   1.355
68584W        W33844   5.315  41.040   4.390
68585W        W33845  25.934  25.213   3.751
68586W        W33846  19.060   9.731   4.166
68587W        W33847  15.568   6.717  10.974
68588W        W33848  19.434  17.296  14.302
68589W        W33849   4.575   6.755   4.640
68590W        W33850  28.337  28.529   3.661
68591W        W33851  16.031  36.326   2.803
68592W        W33852  42.764  22.456   2.861
68593W        W33853  27.965  10.262  11.198
68594W        W33854  17.140  41.885  12.749
68595W        W33855  29.450   9.243   4.548
68596W        W33856  19.497  40.499  13.396
68597W        W33857  29.892  14.848  14.024
68598W        W33858  40.968   8.174  14.270
68599W        W33859  16.290  19.170   4.937
68600W        W33860  26.468  16.991   4.647
68601W        W33861  29.183  36.074   0.340
68602W        W33862  34.511   4.011  13.538
68603W        W33863  13.125  35.777   0.830
68604W        W33864  10.960   8.786  12.591
68605W        W33865  11.208  33.396   3.590
68606W        W33866   9.742  39.301   1.008
68607W        W33867  39.291   4.073  14.495
68608W        W33868  43.073  25.419   4.227
68609W        W33869  23.913  41.351  11.339
68610W        W33870  12.807  35.712  12.444
68611W        W33871  11.013  38.824   0.373
68612W        W33872   9.869  42.823   2.796
68613W        W33873  23.116  21.540  10.524
68614W        W33874   1.742   7.910   4.329
68615W        W33875  10.880  17.426  10.135
68616W        W33876  34.923   2.559  13.475
68617W        W33877  13.759  42.264   2.181
68618W        W33878  20.573  22.203  11.079
68619W        W33879  41.486  28.089   3.341
68620W        W33880  14.701  29.457   4.807
68621W        W33881   9.936  41.801   0.855
68622W        W33882  35.273  43.724   0.626
68623W        W33883  17.590  33.658  11.185
68624W        W33884  14.333  36.991  14.839
68625W        W33885  35.176  21.683  13.910
68626W        W33886  20.617  21.850  11.498
68627W        W33887   1.710  37.829  12.525
68628W        W33888  39.658  20.757   5.011
68629W        W33889  40.668  15.405   3.117
68630W        W33890  16.206   6.021   0.378
68631W        W33891  38.122   9.545   4.083
68632W        W33892  26.819   0.872  12.449
68633W        W33893  30.204  19.145   1.337
68634W        W33894  21.513   0.882  12.006
68635W        W33895  23.676  15.545   4.914
68636W        W33896  21.554   1.856   0.087
68637W        W33897  25.316  18.208   4.488
68638W        W33898  25.013  31.479   0.012
68639W        W33899  14.381  41.764  14.997
68640W        W33900  43.684  39.364  12.194
68641W        W33901   7.451  21.304   3.672
68642W        W33902  16.834  23.613   3.822
68643W        W33903  10.533  42.855   4.102
68644W        W33904  19.230  12.506  14.421
68645W        W33905  14.300  31.527   0.452
68646W        W33906  24.132  17.141   1.225
68647W        W33907  15.559  31.529   0.768
68648W        W33908  18.624   0.210  11.965
68649W        W33909  10.080   8.782  10.508
68650W        W33910  36.575   5.828  12.079
68651W        W33911  22.888  10.187  14.549
68652W        W33912  34.660   7.128  11.993
68653W        W33913  20.265  20.784  11.983
68654W        W33914  26.992  24.307   1.291
68655W        W33915  24.999  15.542  11.860
68656W        W33916  10.406  31.883  13.481
68657W        W33917   3.929  17.258  13.347
68658W        W33918   0.814  29.893  12.007
68659W        W33919  27.498   7.764   0.504
68660W        W33920   6.645  35.639   0.410
68661W        W33921  34.901   3.851   1.276
68662W        W33922  18.201  20.702  14.484
68663W        W33923  36.524   8.012  10.984
68664W        W33924  19.508   7.333  12.907
68665W        W33925   7.905  42.784   1.918
68666W        W33926  14.228  40.502  13.758
68667W        W33927   7.436   0.210   3.693
68668W        W33928   4.530   8.717  10.692
68669W        W33929  29.284  25.036   5.554
68670W        W33930  43.491  42.570  14.446
68671W        W33931  19.723  14.989  12.893
68672W        W33932  10.686  24.551   3.381
68673W        W33933  40.277  44.095   1.752
68674W        W33934  13.825  18.371  11.932
68675W        W33935   1.772  30.187   4.726
68676W        W33936  22.447  38.530   4.163
68677W        W33937  18.231  33.575   4.043
68678W        W33938  26.042  17.770   3.467
68679W        W33939  32.815  32.550   2.914
68680W        W33940  24.140  16.680   4.415
68681W        W33941   0.190  43.314  11.133
68682W        W33942  19.897   2.380  13.210
68683W        W33943  30.561   7.845   0.557
68684W        W33944  21.089  43.071   1.750
68685W        W33945  31.365  21.596   1.855
68686W        W33946  35.753  40.801  13.023
68687W        W33947  33.000   0.071   2.497
68688W        W33948  40.008   7.361  12.111
68689W        W33949  44.808  34.062  14.338
68690W        W33950  13.624  20.259  12.530
68691W        W33951  39.996   1.925   1.702
68692W        W33952  10.729   3.486  11.690
68693W        W33953  16.601  24.207  11.117
68694W        W33954   8.780  16.857   3.562
68695W        W33955  11.736  36.349  14.861
68696W        W33956  24.501   8.961  12.576
68697W        W33957  28.335  21.610  12.846
68698W        W33958  11.927  18.096  12.403
68699W        W33959  23.416  39.995  10.689
68700W        W33960  35.119  37.914  11.081
68701W        W33961  11.416  34.622   3.140
68702W        W33962   9.241  14.587  11.695
68703W        W33963  19.090  37.317  10.441
68704W        W33964  26.513  19.064   0.541
68705W        W33965  22.819  15.425   0.001
68706W        W33966  26.053  14.332  14.187
68707W        W33967  26.574  29.990   0.455
68708W        W33968  19.521  29.102   2.626
68709W        W33969   1.321   1.433   4.761
68710W        W33970  20.706  20.127   0.798
68711W        W33971  26.776  19.694  13.396
68712W        W33972   2.789  25.137  13.290
68713W        W33973   9.889  34.301   1.791
68714W        W33974  21.017  30.435   1.623
68715W        W33975  16.419   7.748  11.301
68716W        W33976  25.130  17.568   3.137
68717W        W33977   2.178   3.705  12.453
68718W        W33978  43.987  18.719  13.296
68719W        W33979   0.765  32.976  11.648
68720W        W33980  19.714  22.640  11.569
68721W        W33981  13.097   7.849   1.164
68722W        W33982   7.309  43.611  11.488
68723W        W33983  38.769  12.132   3.258
68724W        W33984   2.129  44.007   3.288
68725W        W33985  15.225  44.462   4.321
68726W        W33986  26.510  27.521   2.857
68727W        W33987   5.673  41.071  12.343
68728W        W33988   3.685   6.873   3.209
68729W        W33989  31.169  36.423   1.160
68730W        W33990  22.700   8.827  13.824
68731W        W33991  25.620  24.993   4.201
68732W        W33992   5.303  11.309  11.151
68733W        W33993  20.629  18.590  10.573
68734W        W33994  30.521  17.969  14.777
68735W        W33995  20.983  22.567  13.429
68736W        W33996  12.617  33.573   3.564
68737W        W33997   1.305  29.067  11.078
68738W        W33998  42.907  25.282   3.240
68739W        W33999   0.551  25.616   0.064
68740W        W34000  43.858  15.024   0.419
68741W        W34001  34.068  38.034  13.130
68742W        W34002  20.014  41.471  14.070
68743W        W34003   4.920  43.013  12.801
68744W        W34004   5.210  10.663  12.901
68745W        W34005   0.231  39.038   1.635
68746W        W34006  32.684  10.807   2.006
68747W        W34007  31.263  42.518   4.063
68748W        W34008  31.793  42.063  14.355
68749W        W34009  18.575   2.642   3.912
68750W        W34010  16.161  30.109   0.426
68751W        W34011  19.491  38.542   1.782
68752W        W34012  23.443  37.323   3.278
68753W        W34013  10.179  26.910   3.742
68754W        W34014   2.935  39.362  13.918
68755W        W34015   0.811  30.963   4.046
68756W        W34016   9.930   4.623  13.889
68757W        W34017  19.766  42.987   3.949
68758W        W34018  40.062  26.139   1.195
68759W        W34019  36.942  16.419   3.168
68760W        W34020   2.786  26.514  14.418
68761W        W34021  38.491  12.049  10.772
68762W        W34022  29.008  13.879   4.753
68763W        W34023  39.466  40.811  10.968
68764W        W34024  42.922  36.909   0.885
68765W        W34025  23.697  11.819   2.454
68766W        W34026   3.058  37.006   0.220
68767W        W34027  23.644  23.149  14.537
68768W        W34028   3.316  19.705   3.897
68769W        W34029  35.495  33.469   0.492
68770W        W34030  27.532   3.212  13.448
68771W        W34031  30.796  11.609   9.783
68772W        W34032  11.775  22.207  14.856
68773W        W34033  18.786   2.901   4.300
68774W        W34034  11.601  43.701  13.946
68775W        W34035  11.664  41.759  13.887
68776W        W34036   1.961  38.504  14.945
68777W        W34037  11.369  37.200   2.295
68778W        W34038  37.971  11.308   3.756
68779W        W34039  15.752  27.647   2.141
68780W        W34040  42.425   6.053  12.025
68781W        W34041  39.025  23.520   2.372
68782W        W34042  29.686  22.755   1.417
68783W        W34043  35.333  19.039  12.554
68784W        W34044  17.653   2.869   2.557
68785W        W34045  38.343  11.539  12.522
68786W        W34046  19.857  24.897   3.681
68787W        W34047  43.482  38.359  11.728
68788W        W34048   0.785  20.493   2.120
68789W        W34049  10.484  10.166   1.219
68790W        W34050  27.539  40.289  13.519
68791W        W34051  18.128  10.743  13.579
68792W        W34052  43.251  40.091   3.705
68793W        W34053  17.288  34.046  13.367
68794W        W34054  22.648  35.116  14.737
68795W        W34055  30.146   2.306  13.754
68796W        W34056  20.195  19.055  13.287
68797W        W34057  25.116  10.897   1.601
68798W        W34058  37.113  10.709  13.424
68799W        W34059  16.567  37.804   0.365
68800W        W34060   3.249  11.936   5.136
68801W        W34061   6.093  31.592  11.176
68802W        W34062  29.430  43.865  14.806
68803W        W34063  25.814  36.544  14.956
68804W        W34064   6.735  14.110   3.453
68805W        W34065  41.523   5.962  10.845
68806W        W34066  19.125  26.529   4.498
68807W        W34067  26.277  28.595   1.250
68808W        W34068  24.161   5.605  10.817
68809W        W34069  14.740   3.164   3.034
68810W        W34070   8.591  17.746   2.236
68811W        W34071   7.460  29.024   4.055
68812W        W34072  10.418  24.726   2.397
68813W        W34073  29.863  20.167   1.820
68814W        W34074  31.907  24.685   5.439
68815W        W34075  43.338   2.822   2.311
68816W        W34076  28.304  17.675   4.119
68817W        W34077  31.436  18.342  14.034
68818W        W34078  38.045   4.941  11.688
68819W        W34079  37.908   5.847  11.672
68820W        W34080   3.958   2.979   2.801
68821W        W34081   4.976  26.180   2.998
68822W        W34082  44.825  19.611   1.743
68823W        W34083  30.421   8.154  13.133
68824W        W34084  33.161  30.197   4.996
68825W        W34085   4.929  40.311  14.229
68826W        W34086   7.920   6.738   2.318
68827W        W34087   2.175   2.608  10.548
68828W        W34088  40.467  33.506   3.998
68829W        W34089  13.151  39.064   3.293
68830W        W34090  30.177   4.452   2.269
68831W        W34091  23.266  40.420  13.037
68832W        W34092  39.455  14.266   2.729
68833W        W34093   7.693  14.288  10.915
68834W        W34094   3.928  30.182  14.013
68835W        W34095   2.687  27.937   0.493
68836W        W34096   8.368  34.943  13.347
68837W        W34097  25.444  38.263   4.446
68838W        W34098  32.602  37.835   0.885
68839W        W34099  11.391  31.083   4.511
68840W        W34100  40.635   9.432  13.921
68841W        W34101  22.451  13.373  13.516
68842W        W34102  20.162  29.578  14.739
68843W        W34103  39.057  27.498   4.202
68844W        W34104  44.398   8.221  11.179
68845W        W34105  14.080  35.000   4.861
68846W        W34106  14.910  27.706   3.701
68847W        W34107  23.913  22.176   2.369
68848W        W34108   8.432   4.635   1.632
68849W        W34109   5.450  36.562  14.425
68850W        W34110  38.456  16.001   4.992
68851W        W34111   2.871  16.549  13.592
68852W        W34112   3.960   6.798   0.767
68853W        W34113  43.756  25.924   3.096
68854W        W34114  38.306  25.224   3.708
68855W        W34115   2.304   7.155  14.795
68856W        W34116  22.166   8.157   5.135
68857W        W34117  39.036  26.233  14.028
68858W        W34118   9.134   8.531   0.922
68859W        W34119   8.371  18.593  11.311
68860W        W34120  34.650  24.721  12.447
68861W        W34121  22.317   1.950  14.353
68862W        W34122  15.509   6.212   0.347
68863W        W34123   9.780  33.655  12.446
68864W        W34124  21.201  20.463   0.412
68865W        W34125   8.188  29.631  14.850
68866W        W34126   3.832  27.251  14.915
68867W        W34127  40.382   8.863   0.783
68868W        W34128  15.513  26.861   4.484
68869W        W34129  33.116  22.203  13.501
68870W        W34130  19.741   8.392  13.587
68871W        W34131   4.658  30.860  12.272
68872W        W34132  38.017  23.623   2.711
68873W        W34133   2.989  29.427   5.089
68874W        W34134  11.607  13.889  11.086
68875W        W34135  28.655  29.418   0.840
68876W        W34136  30.328  39.534  14.965
68877W        W34137  33.307   0.730  14.358
68878W        W34138   9.229   2.781  13.816
68879W        W34139  37.387  12.109  14.063
68880W        W34140   5.907  35.553  11.993
68881W        W34141   5.724   1.420  12.977
68882W        W34142  13.851   5.298  11.490
68883W        W34143  15.295   1.829  13.689
68884W        W34144  25.973   3.549  12.436
68885W        W34145  19.883  19.090   4.958
68886W        W34146  43.085   9.061   2.337
68887W        W34147  37.434  41.093  12.211
68888W        W34148  10.750  36.373  10.428
68889W        W34149  19.034  37.112   4.316
68890W        W34150  35.025  11.651  14.290
68891W        W34151   7.913  38.368   0.455
68892W        W34152  26.196  26.486  13.473
68893W        W34153  12.223  17.609   4.058
68894W        W34154  41.596  18.337  14.935
68895W        W34155  28.554  40.488  12.866
68896W        W34156  44.559   5.217   4.611
68897W        W34157  14.900  39.795  12.605
68898W        W34158  39.436  26.206  10.682
68899W        W34159  22.987  15.084   2.114
68900W        W34160  34.320  11.850   4.546
68901W        W34161   6.958  42.200  12.943
68902W        W34162  15.718  22.975  11.608
68903W        W34163  43.543  15.725   0.390
68904W        W34164  20.875  40.233  12.924
68905W        W34165   3.432  30.063   2.250
68906W        W34166  44.765  18.628  14.572
68907W        W34167  36.617  39.018   1.448
68908W        W34168  34.908  13.630   1.185
68909W        W34169  32.606  40.565  14.779
68910W        W34170  13.387  18.625  13.116
68911W        W34171  43.618  28.189   0.441
68912W        W34172  11.617  12.672  13.044
68913W        W34173   1.393  24.104  10.288
68914W        W34174  15.201  34.022   1.301
68915W        W34175  31.574  10.142  10.526
68916W        W34176  37.528  24.021  12.123
68917W        W34177  26.535  35.890  12.163
68918W        W34178  15.194  15.201  13.011
68919W        W34179  43.399   7.104  11.074
68920W        W34180  35.784  38.126  11.971
68921W        W34181  32.934  17.780   2.413
68922W        W34182  32.429  12.306   1.387
68923W        W34183   8.860  18.719  13.384
68924W        W34184  41.986  38.393  10.426
68925W        W34185  32.686  27.773  14.891
68926W        W34186   0.272  43.891  12.173
68927W        W34187  15.138   7.690  10.094
68928W        W34188  28.278  28.773  10.785
68929W        W34189  15.531  39.426   3.639
68930W        W34190  30.912  15.846   2.777
68931W        W34191  31.592  12.218   2.874
68932W        W34192   9.648  35.559   1.145
68933W        W34193  14.633   5.232  13.383
68934W        W34194   9.034  24.546  11.219
68935W        W34195  15.539   0.885   2.639
68936W        W34196  31.980   8.184   1.467
68937W        W34197  14.236  25.456   3.527
68938W        W34198  39.473  38.343   1.691
68939W        W34199  32.890  14.001   3.149
68940W        W34200   2.056   9.670   4.554
68941W        W34201  24.519   0.055   1.766
68942W        W34202  22.605   8.098   2.581
68943W        W34203  38.709   2.144   2.600
68944W        W34204  10.591  34.727  12.939
68945W        W34205  39.481  30.726  10.652
68946W        W34206  27.116   4.356  11.934
68947W        W34207   6.174   2.016   2.356
68948W        W34208  22.547  43.271  12.934
68949W        W34209  14.579   4.844  12.447
68950W        W34210  27.563  30.238   0.513
68951W        W34211  14.590  42.845   4.177
68952W        W34212  31.079   3.227   0.325
68953W        W34213  22.430  21.166  10.191
68954W        W34214   4.839  43.503  11.054
68955W        W34215  18.644  17.028   2.829
68956W        W34216  16.316  22.548   4.101
68957W        W34217  33.913  27.660   1.875
68958W        W34218  15.675  35.312  12.980
68959W        W34219   2.217  11.089   0.355
68960W        W34220  35.541  20.701  13.273
68961W        W34221   2.933   3.482  13.409
68962W        W34222   1.971  32.983   2.618
68963W        W34223  11.403  34.108   3.110
68964W        W34224  24.662  18.637  13.347
68965W        W34225  14.109  31.899   4.984
68966W        W34226  44.498   0.404  14.482
68967W        W34227  26.447  25.342   9.669
68968W        W34228  23.138  41.826  12.901
68969W        W34229   1.313  42.729  13.361
68970W        W34230  35.483  28.905  14.770
68971W        W34231  16.615  18.077  14.809
68972W        W34232  31.434  28.909   0.304
68973W        W34233  27.420  15.600   0.169
68974W        W34234  32.583  42.270  13.493
68975W        W34235   3.204  16.658   2.590
68976W        W34236   0.967  34.019  10.698
68977W        W34237  26.028  26.471  14.969
68978W        W34238  23.078  16.437  11.164
68979W        W34239  42.087   1.375  12.299
68980W        W34240  41.973  32.452  12.468
68981W        W34241  29.545   7.281   4.839
68982W        W34242  15.026   6.346   2.302
68983W        W34243   6.599  42.770  13.797
68984W        W34244  14.063   8.934   4.189
68985W        W34245  39.620  43.385   2.112
68986W        W34246  44.497  16.557  12.620
68987W        W34247  20.065  12.290   4.289
68988W        W34248  15.218  42.924   1.498
68989W        W34249  34.139   4.903  13.640
68990W        W34250  22.157  35.447   2.515
68991W        W34251  23.350  11.011  13.581
68992W        W34252   5.725  34.273  14.893
68993W        W34253  14.368  26.183  13.148
68994W        W34254  36.290  20.304  12.972
68995W        W34255  40.531  29.486  14.813
68996W        W34256  15.224  38.149   1.406
68997W        W34257  32.158  35.743  12.145
68998W        W34258   7.918  43.682   3.232
68999W        W34259  42.482   3.866  14.761
69000W        W34260  23.043  29.240   0.784
69001W        W34261  11.201   7.395   2.196
69002W        W34262  37.399  21.611   3.213
69003W        W34263   8.684  28.572   4.571
69004W        W34264   2.309  43.535  10.692
69005W        W34265  22.995  39.027  10.584
69006W        W34266  25.132  44.582  13.044
69007W        W34267  40.942  13.575   2.290
69008W        W34268  29.042  20.649  10.419
69009W        W34269  36.494  12.305   2.939
69010W        W34270  25.151   2.278   3.944
69011W        W34271  33.522  43.625  11.038
69012W        W34272  15.271  41.599  10.621
69013W        W34273   9.219  28.055   0.475
69014W        W34274   1.433  28.957  14.319
69015W        W34275  33.055  42.987   1.949
69016W        W34276   2.186  18.693  12.522
69017W        W34277   0.958  29.750  14.927
69018W        W34278   8.045  17.790   2.228
69019W        W34279  27.123  20.660   2.586
69020W        W34280   3.184   8.838  14.446
69021W        W34281  30.607  15.020  12.890
69022W        W34282  20.542  41.725   3.267
69023W        W34283   1.468  11.224   3.173
69024W        W34284   2.739  18.854   0.544
69025W        W34285  26.666  14.281   3.305
69026W        W34286  32.075  22.311   3.364
69027W        W34287  10.697  37.987  11.519
69028W        W34288  28.569  12.766   1.617
69029W        W34289   7.149  38.819   3.179
69030W        W34290  11.850  21.334  11.231
69031W        W34291  37.112  30.493   0.261
69032W        W34292  44.366  23.553   0.864
69033W        W34293  29.954   9.799   3.796
69034W        W34294  26.152  17.390   0.386
69035W        W34295  19.770  43.972   0.852
69036W        W34296  37.433  31.330  12.022
69037W        W34297  34.953  27.721   0.300
69038W        W34298  42.807  32.211   4.691
69039W        W34299  22.847   1.508  10.138
69040W        W34300   5.315  22.275   3.982
69041W        W34301  11.431   2.205  11.740
69042W        W34302   4.422  34.059   3.635
69043W        W34303  37.800  35.103  12.126
69044W        W34304  18.395  18.906   4.714
69045W        W34305  35.537  26.654  11.090
69046W        W34306  37.939  11.787  11.453
69047W        W34307  20.225  21.778   0.005
69048W        W34308  21.208  35.387  13.528
69049W        W34309   8.700  39.395  11.208
69050W        W34310  29.038   7.963   3.989
69051W        W34311  39.350  12.284  14.711
69052W        W34312  18.119  25.600   1.674
69053W        W34313  39.489   7.704  13.896
69054W        W34314  37.044   2.491  14.861
69055W        W34315   1.232  34.458  10.751
69056W        W34316  12.579  34.535   0.095
69057W        W34317  40.671  32.406   1.360
69058W        W34318  12.746  16.834  11.959
69059W        W34319  25.384  34.553   2.187
69060W        W34320   9.319  38.525  11.150
69061W        W34321  21.351   5.268  13.042
69062W        W34322   6.573  12.607   0.993
69063W        W34323   2.642  11.414   5.021
69064W        W34324  31.052  13.540   2.402
69065W        W34325  21.535   1.106  10.228
69066W        W34326  22.600  37.833  14.262
69067W        W34327  21.850   2.011   4.169
69068W        W34328  15.912  28.801  12.652
69069W        W34329  37.246  32.668   2.043
69070W        W34330   4.714   5.178   0.358
69071W        W34331  42.889  39.620   2.009
69072W        W34332  16.050   0.740   3.411
69073W        W34333  10.837  11.597   0.238
69074W        W34334  16.782   0.823  10.713
69075W        W34335  38.094  32.345  12.564
69076W        W34336  12.955  43.889   1.008
69077W        W34337   9.167   0.516  12.086
69078W        W34338  38.723  19.552   1.298
69079W        W34339  19.208  10.940  10.580
69080W        W34340  23.512  39.097   1.880
69081W        W34341  42.567  44.707   3.865
69082W        W34342  10.896   2.026   0.832
69083W        W34343  23.730  31.114  13.080
69084W        W34344  25.484  41.867  11.159
69085W        W34345   2.987   9.162   0.277
69086W        W34346  34.252  20.334  11.211
69087W        W34347  37.298   9.280   3.258
69088W        W34348  32.480  37.263   1.713
69089W        W34349   2.653   9.075   1.770
69090W        W34350   7.308  15.322  13.156
69091W        W34351  42.883   2.938  11.484
69092W        W34352  37.511   0.768   3.756
69093W        W34353  23.189  27.267  11.054
69094W        W34354  44.191  23.150  11.526
69095W        W34355  16.529   8.667   2.337
69096W        W34356  29.449  40.022   3.261
69097W        W34357  25.295   0.465   0.357
69098W        W34358  29.560  16.555   1.904
69099W        W34359   4.263  13.659  12.561
69100W        W34360   5.420  14.688  11.171
69101W        W34361  40.103  14.786   0.344
69102W        W34362  26.215  42.880   2.414
69103W        W34363  32.473  32.087  11.851
69104W        W34364  39.441   2.489   3.109
69105W        W34365  42.989   8.482   4.553
69106W        W34366  38.525  34.939   1.896
69107W        W34367  28.670   3.873   1.840
69108W        W34368  24.354  19.134   0.019
69109W        W34369  27.139  34.518  12.906
69110W        W34370  32.185  24.697   3.696
69111W        W34371  18.635  10.290  10.023
69112W        W34372  36.405  28.942  13.377
69113W        W34373  23.539  33.019   0.220
69114W        W34374  27.137   3.845   2.857
69115W        W34375  28.976  23.061  11.540
69116W        W34376   5.169  15.682   3.214
69117W        W34377   6.251  12.612   9.723
69118W        W34378  21.896   4.879   1.918
69119W        W34379  18.843  18.109  10.709
69120W        W34380  25.101  39.568  14.310
69121W        W34381   0.414  39.631   1.977
69122W        W34382  18.446   5.827   0.824
69123W        W34383  15.102  24.038  11.983
69124W        W34384  21.951   0.355  11.653
69125W        W34385   0.946   9.823  10.866
69126W        W34386  29.769  11.908   3.276
69127W        W34387  24.669   3.243   2.834
69128W        W34388  17.439  16.716   3.585
69129W        W34389  18.293   8.855   2.398
69130W        W34390  14.109  16.973  12.062
69131W        W34391  27.393   1.992  10.732
69132W        W34392  24.961  30.620  12.348
69133W        W34393  29.773   2.538   1.934
69134W        W34394  37.810  33.897   1.857
69135W        W34395  35.861  18.574   1.701
69136W        W34396  42.251  19.302  13.580
69137W        W34397   7.645  10.133   0.533
69138W        W34398  28.514  29.049   2.698
69139W        W34399  12.247   1.429   3.229
69140W        W34400  11.151  23.403  13.458
69141W        W34401  21.570  12.709   0.259
69142W        W34402  17.354   0.848   4.885
69143W        W34403   8.830  32.017  12.037
69144W        W34404  28.709  34.843   3.702
69145W        W34405   7.713  39.972   3.279
69146W        W34406   9.914  20.784  13.427
69147W        W34407  27.169  28.514   4.582
69148W        W34408  18.031  17.210  13.812
69149W        W34409  27.013  34.192  13.492
69150W        W34410  35.097  41.886  14.498
69151W        W34411   8.279   5.879   0.477
69152W        W34412  21.156   3.357  11.674
69153W        W34413  33.414  43.505  13.398
69154W        W34414  26.027  35.601  12.532
69155W        W34415   8.129   7.234   4.600
69156W        W34416   7.673  34.587   1.918
69157W        W34417   8.710  10.379   0.218
69158W        W34418   8.283  34.342  13.467
69159W        W34419  14.802  16.900  10.734
69160W        W34420  19.946  31.083   1.363
69161W        W34421  19.010  26.677  11.723
69162W        W34422  44.725  35.499   4.675
69163W        W34423  41.488   3.757  13.877
69164W        W34424  18.635  40.464   4.655
69165W        W34425   2.619  35.172   0.546
69166W        W34426  29.463  39.324   2.088
69167W        W34427   7.904  17.164  13.716
69168W        W34428  24.147  33.022   1.441
69169W        W34429  21.257  21.469   4.528
69170W        W34430  10.599   4.771   0.009
69171W        W34431  28.412  10.943   1.453
69172W        W34432  42.374  22.381  10.980
69173W        W34433  44.873  36.931   2.300
69174W        W34434   8.758  24.287  10.346
69175W        W34435  15.206  42.043  10.355
69176W        W34436   7.165  33.686   4.593
69177W        W34437   5.328  23.462  11.116
69178W        W34438   5.217  23.066  13.918
69179W        W34439   4.703   2.419  13.474
69180W        W34440  19.506  33.456  11.584
69181W        W34441  16.633  30.576   1.837
69182W        W34442  19.522   7.587  11.655
69183W        W34443  14.664  33.363  11.129
69184W        W34444   2.311  14.513  12.939
69185W        W34445  24.682  24.155   0.260
69186W        W34446  36.401   9.746   3.728
69187W        W34447  23.275  33.833  10.517
69188W        W34448  42.474  13.461  12.922
69189W        W34449   3.619   9.996   0.518
69190W        W34450  16.186  31.990  14.876
69191W        W34451   2.213  37.495  12.067
69192W        W34452   8.853  44.526   1.590
69193W        W34453  17.204  42.061   4.550
69194W        W34454  41.439  15.669   4.322
69195W        W34455   3.127   7.244  12.958
69196W        W34456   9.354  38.052   0.146
69197W        W34457  44.811  21.304   2.749
69198W        W34458  25.714  43.049  11.189
69199W        W34459  23.720  21.763   2.587
69200W        W34460   8.358   9.171  11.005
69201W        W34461  18.448   6.102   1.252
69202W        W34462  42.756  11.020  11.398
69203W        W34463  37.832   0.780  13.467
69204W        W34464  34.588  44.849  12.180
69205W        W34465  25.167  16.018  11.995
69206W        W34466  20.921  22.220   2.543
69207W        W34467  16.583  10.721   2.187
69208W        W34468   3.685   0.178  11.207
69209W        W34469   5.688  30.904   3.293
69210W        W34470  19.722  19.805   3.762
69211W        W34471  14.873   1.679  10.261
69212W        W34472  44.355  28.047   2.548
69213W        W34473   7.080  26.927   5.168
69214W        W34474   3.234   5.335   3.051
69215W        W34475  28.113  19.138   4.958
69216W        W34476   3.443  41.301   1.700
69217W        W34477  32.984   4.179  10.461
69218W        W34478  28.828  40.108  10.136
69219W        W34479  14.372  25.633   2.388
69220W        W34480   2.058   5.142   1.280
69221W        W34481  27.473  31.439  11.142
69222W        W34482  44.465  15.712   0.309
69223W        W34483   8.748  38.331   2.349
69224W        W34484  18.699  23.038  11.068
69225W        W34485  38.512   1.447  14.358
69226W        W34486  37.244   7.309  11.577
69227W        W34487  30.115  41.911  13.582
69228W        W34488  16.223  14.821  13.923
69229W        W34489   1.897  25.555   4.978
69230W        W34490  39.187  42.059   0.856
69231W        W34491  23.294   2.266  12.044
69232W        W34492   4.906  10.667   4.209
69233W        W34493  34.647  13.802   3.841
69234W        W34494  15.390  22.096  13.427
69235W        W34495  19.537  29.533   4.604
69236W        W34496   5.825   4.670   1.085
69237W        W34497  35.349  14.673   0.686
69238W        W34498  14.163  20.592  11.818
69239W        W34499  40.233  43.235   1.488
69240W        W34500  27.394  32.964  13.786
69241W        W34501   7.767  21.485   0.422
69242W        W34502  13.887  40.691  12.987
69243W        W34503   4.725   1.003  11.427
69244W        W34504  28.071   1.909   5.095
69245W        W34505  38.899  19.311   0.352
69246W        W34506   6.105  25.814  13.337
69247W        W34507  24.749  37.561   1.914
69248W        W34508   8.470  18.576  10.800
69249W        W34509   3.257  31.309   2.907
69250W        W34510  19.877   1.273   0.085
69251W        W34511  28.836   9.832   1.973
69252W        W34512  13.378  17.346   4.598
69253W        W34513  22.349  44.446   3.491
69254W        W34514  14.496  15.526  11.916
69255W        W34515   3.588   6.354  11.523
69256W        W34516   6.390  35.604   1.905
69257W        W34517  17.180  11.623   0.935
69258W        W34518  22.505  22.544   1.374
69259W        W34519   5.347   8.264  14.066
69260W        W34520  28.672  15.325  11.655
69261W        W34521  33.064   4.067   3.598
69262W        W34522   9.657  21.808   0.335
69263W        W34523  39.794  23.983   2.861
69264W        W34524  43.293   0.763   4.599
69265W        W34525  43.776   1.917   3.216
69266W        W34526  31.242  26.609  14.288
69267W        W34527   2.509  26.088   1.712
69268W        W34528  36.460  32.517   0.389
69269W        W34529  33.954   6.933  12.603
69270W        W34530  18.951  28.534   4.866
69271W        W34531   0.451  32.115  10.795
69272W        W34532   6.329  12.125   2.742
69273W        W34533  10.891  12.416   3.631
69274W        W34534  39.775  40.517   4.119
69275W        W34535  16.835  24.687   4.509
69276W        W34536  36.595  40.253  11.155
69277W        W34537  26.085  36.027   1.304
69278W        W34538  30.569  20.739  14.339
69279W        W34539  18.532  36.569   3.869
69280W        W34540  40.065  29.494   3.586
69281W        W34541   2.218  35.454   3.323
69282W        W34542  29.818  12.083  14.126
69283W        W34543  37.571  34.046  11.171
69284W        W34544  35.513  36.034  14.558
69285W        W34545  40.636   8.169   2.791
69286W        W34546  30.840  44.123  11.264
69287W        W34547   1.510  37.159  10.691
69288W        W34548  39.922  40.011   4.113
69289W        W34549   9.114  11.013  12.939
69290W        W34550  26.984  11.548   1.382
69291W        W34551  31.190  19.576   0.285
69292W        W34552  16.843  21.054   2.811
69293W        W34553  42.575  21.248   1.818
69294W        W34554   0.612   3.719   3.376
69295W        W34555  41.946  22.651  12.836
69296W        W34556  18.281   2.640  13.610
69297W        W34557  10.396  30.801   1.969
69298W        W34558  25.778  42.863   4.975
69299W        W34559  36.640   8.655   1.239
69300W        W34560  41.084  31.802   2.572
69301W        W34561  20.483  20.984  12.444
69302W        W34562   9.094  29.940   0.336
69303W        W34563  42.635   7.141   4.324
69304W        W34564  33.978  11.730   3.373
69305W        W34565   2.392  28.407   4.066
69306W        W34566  14.673  12.868   3.214
69307W        W34567  39.774  14.806  12.939
69308W        W34568  27.166  35.143  13.493
69309W        W34569  35.564  12.659  12.539
69310W        W34570  41.429  26.794   0.925
69311W        W34571  37.189  10.210   1.374
69312W        W34572  30.063   1.460  13.405
69313W        W34573   0.935  13.817   2.307
69314W        W34574   5.308   8.663  12.574
69315W        W34575  16.496  41.489  14.652
69316W        W34576  27.888   3.299  10.228
69317W        W34577  26.561  31.118   3.346
69318W        W34578  11.169  15.374  12.513
69319W        W34579  41.952  25.703  11.125
69320W        W34580  42.206  29.657  11.732
69321W        W34581  30.152   5.963  14.884
69322W        W34582   1.403   4.254  13.599
69323W        W34583  43.939  34.861  14.828
69324W        W34584   6.713  39.275   4.787
69325W        W34585  27.040  25.416   1.786
69326W        W34586  19.038  33.886   1.376
69327W        W34587  31.864  39.758   1.704
69328W        W34588  40.957   0.191   2.115
69329W        W34589   6.787   3.839   2.899
69330W        W34590  29.131   0.960   1.918
69331W        W34591  40.531  21.338   1.333
69332W        W34592  12.455   0.400   3.038
69333W        W34593  21.449  11.221   2.695
69334W        W34594  16.489  12.349   4.498
69335W        W34595  38.494  23.061   1.421
69336W        W34596  28.143  16.150  12.113
69337W        W34597  21.288  40.030  11.136
69338W        W34598  10.699  33.627   2.838
69339W        W34599   2.019  29.109   2.174
69340W        W34600   6.405  32.591  11.129
69341W        W34601  44.201  28.747  10.351
69342W        W34602   8.028   0.891   0.762
69343W        W34603  27.556  29.438  13.921
69344W        W34604  40.672  43.658  13.025
69345W        W34605  39.112   4.918   3.744
69346W        W34606  40.069  21.400  11.596
69347W        W34607   7.650  40.667   2.848
69348W        W34608  24.251  17.598   1.443
69349W        W34609  32.532  13.073   2.335
69350W        W34610  26.116  13.693  13.492
69351W        W34611  24.995   2.235  13.783
69352W        W34612  15.189   0.585  14.936
69353W        W34613  16.334  31.400  14.237
69354W        W34614  25.581  25.160   0.497
69355W        W34615  23.899  35.776  12.753
69356W        W34616  29.533   4.249  11.219
69357W        W34617  37.973  25.779   2.689
69358W        W34618   9.674   1.650   2.839
69359W        W34619  35.974  11.385  10.682
69360W        W34620  32.080  35.559  14.360
69361W        W34621  22.491  14.338  13.605
69362W        W34622  23.665  40.074  11.142
69363W        W34623  15.504  16.553   4.200
69364W        W34624   4.186  24.795   0.395
69365W        W34625  20.664  14.134  13.442
69366W        W34626  19.363   6.894  11.025
69367W        W34627  11.687  16.233  12.895
69368W        W34628  38.986  12.202   1.953
69369W        W34629  10.237  43.244   3.245
69370W        W34630  38.894  23.779   0.627
69371W        W34631  36.759  13.676  10.604
69372W        W34632  24.631  36.441   2.394
69373W        W34633  44.282  25.883   1.248
69374W        W34634  40.178  30.425  11.629
69375W        W34635  18.214  11.283  13.138
69376W        W34636   6.149  14.200   1.876
69377W        W34637  21.508  10.745  13.464
69378W        W34638  41.375  31.876   0.326
69379W        W34639  12.022   9.132   0.975
69380W        W34640  41.282  42.006   0.668
69381W        W34641  12.023  28.572  12.002
69382W        W34642   0.675  38.346  14.488
69383W        W34643  22.504  38.976  10.438
69384W        W34644  35.384   9.937   2.610
69385W        W34645  12.135  43.748   1.355
69386W        W34646   4.997  25.787   1.643
69387W        W34647  33.187  30.082  13.060
69388W        W34648  37.405  14.574  14.936
69389W        W34649   6.643  11.600  12.043
69390W        W34650  20.795  39.925  12.520
69391W        W34651   9.915  33.724   3.582
69392W        W34652  22.526  44.247   4.225
69393W        W34653  17.589  13.555  12.529
69394W        W34654  20.715  23.493  13.425
69395W        W34655  42.718  31.035  10.795
69396W        W34656  22.844  42.166   2.265
69397W        W34657  20.121  36.566   1.767
69398W        W34658   2.480  18.812  12.058
69399W        W34659  20.219  33.455  10.137
69400W        W34660   6.649  29.851  10.155
69401W        W34661  13.074   1.448  13.932
69402W        W34662  18.028  40.057   0.843
69403W        W34663  13.577  19.543   9.953
69404W        W34664  41.752  17.715  10.650
69405W        W34665  14.097  30.110   2.679
69406W        W34666  25.953  41.530   4.808
69407W        W34667  12.729  40.865   1.360
69408W        W34668  38.524  39.922   1.261
69409W        W34669  22.481   2.083  11.187
69410W        W34670  43.617   3.854   1.403
69411W        W34671  41.423  33.573   4.847
69412W        W34672  36.950  27.907   4.609
69413W        W34673  42.976  34.596   1.860
69414W        W34674   9.716   8.416   1.863
69415W        W34675  17.843  31.901   2.397
69416W        W34676  39.278  37.341  14.018
69417W        W34677  32.982  34.961   0.173
69418W        W34678  29.550  10.413   1.725
69419W        W34679  14.890  13.123   0.773
69420W        W34680  24.667  13.402  12.403
69421W        W34681  40.090  39.050  11.589
69422W        W34682  14.058  41.622  11.687
69423W        W34683  41.303   6.825   1.784
69424W        W34684  27.528  44.207  14.583
69425W        W34685  23.580  16.782  14.311
69426W        W34686  21.522  16.321   0.325
69427W        W34687  27.272  31.926   1.176
69428W        W34688   5.549  20.569   3.265
69429W        W34689  35.338   8.709  11.627
69430W        W34690  33.578  15.532   3.607
69431W        W34691  11.381  37.131   1.183
69432W        W34692  31.119  15.197  12.040
69433W        W34693   5.228  36.969   1.683
69434W        W34694  34.839  26.157   2.363
69435W        W34695  22.066  24.770   2.065
69436W        W34696  33.693  31.445  12.357
69437W        W34697   5.811  41.485  12.612
69438W        W34698  24.688  17.124  14.362
69439W        W34699  15.841   6.122  14.547
69440W        W34700  13.823   7.922   0.844
69441W        W34701  29.558   6.809   4.034
69442W        W34702   2.363  39.359   3.674
69443W        W34703  19.334  40.175   4.046
69444W        W34704   2.376   0.260   4.404
69445W        W34705  17.654  13.080  13.526
69446W        W34706  22.595  33.608   4.598
69447W        W34707  31.982   3.024  12.442
69448W        W34708  23.755  25.019   2.852
69449W        W34709   0.685  25.587   1.853
69450W        W34710  21.271  28.507  13.442
69451W        W34711  24.220  37.317  13.875
69452W        W34712  35.911  26.245  13.512
69453W        W34713   7.265   3.850   4.073
69454W        W34714  11.133  38.967   0.850
69455W        W34715  14.186  21.806   5.016
69456W        W34716  39.011   1.012   3.035
69457W        W34717  24.313  24.724  11.068
69458W        W34718  15.065  22.725  10.314
69459W        W34719  26.780  16.707  14.986
69460W        W34720  42.439   6.974  14.857
69461W        W34721  12.247  29.917   2.306
69462W        W34722  34.917   2.431  10.835
69463W        W34723  20.564  39.302  14.061
69464W        W34724  15.753  17.877  12.753
69465W        W34725  31.047   2.753  11.114
69466W        W34726   3.890  26.112  10.265
69467W        W34727  26.638  36.186   0.001
69468W        W34728  43.784  22.442   1.326
69469W        W34729  38.526   2.793   3.174
69470W        W34730  34.096   4.927  13.143
69471W        W34731  16.041  14.254  14.661
69472W        W34732   5.154  18.510   1.838
69473W        W34733  33.058   2.938  12.764
69474W        W34734   2.959  25.540  12.063
69475W        W34735  29.430  43.081  13.075
69476W        W34736  15.389   7.418   3.852
69477W        W34737  17.285   8.107  13.784
69478W        W34738  12.740   8.080  11.053
69479W        W34739   6.760  12.088   4.810
69480W        W34740   0.276  29.199   1.362
69481W        W34741  33.360  15.697   1.730
69482W        W34742   1.507  37.141  14.432
69483W        W34743  28.222  35.871  10.648
69484W        W34744  43.089   3.419   0.368
69485W        W34745  31.486   4.323  11.666
69486W        W34746  20.314  40.279   5.048
69487W        W34747  22.214  22.109   2.121
69488W        W34748  44.431  21.711  14.395
69489W        W34749  21.946   8.720   3.976
69490W        W34750  34.470  12.111   3.202
69491W        W34751  40.290  23.676  11.397
69492W        W34752   5.331   2.156   2.653
69493W        W34753   5.679  23.697   0.298
69494W        W34754  14.613  25.941  11.777
69495W        W34755  42.052  42.311  14.090
69496W        W34756   7.861   4.666   2.242
69497W        W34757  19.336  17.302  12.954
69498W        W34758  13.673   7.998  14.520
69499W        W34759   6.328  11.050  14.225
69500W        W34760  38.553  42.826   4.669
69501W        W34761  23.047  44.926   4.011
69502W        W34762  31.934  11.173  12.065
69503W        W34763   5.597  38.858  10.662
69504W        W34764  40.565  30.189  10.756
69505W        W34765   4.722  44.361   3.185
69506W        W34766  24.559   6.541   1.463
69507W        W34767  44.482  28.800  12.024
69508W        W34768  39.345  32.126   2.368
69509W        W34769   9.014  44.071  11.719
69510W        W34770  36.889  39.899   2.686
69511W        W34771   9.137  10.022   4.625
69512W        W34772  31.033   3.928   2.199
69513W        W34773  13.035  42.857  13.382
69514W        W34774  35.078  30.076  14.915
69515W        W34775   7.596   9.723  14.884
69516W        W34776  17.490   0.836   2.376
69517W        W34777  36.203  33.498   2.318
69518W        W34778  10.897   5.747   2.170
69519W        W34779  22.050  19.286   0.338
69520W        W34780  27.074  14.385   3.649
69521W        W34781  33.907   0.705   2.357
69522W        W34782  32.466   0.483   4.614
69523W        W34783  21.296  20.173  11.296
69524W        W34784  41.925  37.070   1.122
69525W        W34785  10.011  13.639   1.293
69526W        W34786   6.869  19.261  13.741
69527W        W34787  12.905  40.050  11.070
69528W        W34788  41.843  10.178   3.325
69529W        W34789  39.580   0.873  14.034
69530W        W34790  24.876  35.085  14.354
69531W        W34791  16.712  37.202   2.191
69532W        W34792  21.086  14.908   2.311
69533W        W34793  10.714   7.868   0.805
69534W        W34794  37.714  35.544  14.472
69535W        W34795  34.708  28.886  14.295
69536W        W34796  41.038  18.272   2.318
69537W        W34797   5.682  13.935   0.987
69538W        W34798  32.358  31.322  11.486
69539W        W34799   7.256  40.548   3.870
69540W        W34800  37.102  25.462  13.053
69541W        W34801  14.370  26.235   2.756
69542W        W34802  16.702  13.368  11.530
69543W        W34803  15.199  27.306  12.587
69544W        W34804  33.502  40.338   0.058
69545W        W34805  28.464  29.557  11.149
69546W        W34806   5.945  11.280  10.399
69547W        W34807  19.541   7.333  11.204
69548W        W34808  23.517  21.607   0.523
69549W        W34809  42.406  10.075  13.089
69550W        W34810   2.763  32.529  13.027
69551W        W34811  41.345  10.860   2.774
69552W        W34812  19.033  28.063   0.357
69553W        W34813   4.345  28.735   1.238
69554W        W34814  12.228  39.536   0.010
69555W        W34815  35.627  38.863   2.330
69556W        W34816  30.710  17.599  11.121
69557W        W34817  21.450  37.152  10.693
69558W        W34818  34.825  38.614  14.531
69559W        W34819  23.693  19.578   1.280
69560W        W34820  30.595   4.519   0.874
69561W        W34821  20.856  25.871  14.067
69562W        W34822  41.402  16.110  11.564
69563W        W34823  22.285  11.777  14.474
69564W        W34824  30.168  37.386  13.324
69565W        W34825  31.431   5.297  12.345
69566W        W34826  26.501  24.739   2.640
69567W        W34827  44.510  26.543  10.478
69568W        W34828  30.815  22.598   4.588
69569W        W34829  36.393   9.930   4.638
69570W        W34830  35.070  17.191  14.922
69571W        W34831  13.257  17.258   2.128
69572W        W34832  38.371  35.278  13.316
69573W        W34833  13.059  29.076   0.427
69574W        W34834  43.673  27.198   1.391
69575W        W34835   2.444  10.068  13.760
69576W        W34836  27.087  18.234  13.116
69577W        W34837  14.879   2.320  10.695
69578W        W34838  17.513  35.855  13.958
69579W        W34839  33.824   1.698   0.377
69580W        W34840  37.916  25.487   2.276
69581W        W34841  42.863   8.776   1.010
69582W        W34842  21.050  39.794   2.531
69583W        W34843  29.689  13.693  12.473
69584W        W34844   8.466  41.009   4.380
69585W        W34845  39.502  39.837   1.758
69586W        W34846  39.959   4.181   2.324
69587W        W34847  34.462  12.189  11.228
69588W        W34848  27.776   1.562   2.780
69589W        W34849  32.456  36.750  11.067
69590W        W34850  15.058   8.923  14.719
69591W        W34851   6.903  33.504  13.299
69592W        W34852  29.903   4.260  11.604
69593W        W34853  20.614   1.470   0.823
69594W        W34854  39.970  43.931   3.301
69595W        W34855  22.770  21.069   3.207
69596W        W34856   0.666  10.705   2.085
69597W        W34857  14.138  32.265   3.549
69598W        W34858   3.134  30.949  14.935
69599W        W34859  33.346  26.015  12.539
69600W        W34860  21.493   9.572  13.072
69601W        W34861  16.151  24.517  11.208
69602W        W34862  38.032  30.814  12.588
69603W        W34863  26.823  15.659  10.457
69604W        W34864   1.178  43.880   3.388
69605W        W34865  26.194  10.914   0.016
69606W        W34866  26.290  31.687  12.416
69607W        W34867  35.232   5.738  11.887
69608W        W34868  31.349  37.170   4.208
69609W        W34869  32.026   0.724   4.719
69610W        W34870  12.408  35.525   4.109
69611W        W34871  16.984  12.165   4.348
69612W        W34872  15.038  44.877  12.578
69613W        W34873   4.408  43.378   1.756
69614W        W34874   0.166  23.503  14.318
69615W        W34875  20.064   2.169  14.304
69616W        W34876  34.567   4.699   1.853
69617W        W34877  15.079  44.703  11.011
69618W        W34878  35.699  23.561  10.014
69619W        W34879  44.228  35.839  14.345
69620W        W34880  40.396  19.632  11.678
69621W        W34881   3.685  36.970   2.944
69622W        W34882  42.008  26.466  12.813
69623W        W34883   7.131  35.316   3.199
69624W        W34884   0.676   4.182  12.485
69625W        W34885  42.841  11.777  12.484
69626W        W34886  30.101  11.615  14.981
69627W        W34887  19.648   2.406  14.540
69628W        W34888  26.690   9.384   4.644
69629W        W34889  16.032   8.659   2.303
69630W        W34890  15.183  10.054   4.082
69631W        W34891  37.554  25.261  13.336
69632W        W34892  24.987  39.430   2.134
69633W        W34893  43.435  15.513   4.620
69634W        W34894  36.564  25.001  13.430
69635W        W34895  14.237  37.969  11.041
69636W        W34896  34.407  44.083  12.476
69637W        W34897  44.507  34.118   4.099
69638W        W34898  18.672  37.748   0.704
69639W        W34899  43.706   7.149  13.497
69640W        W34900  31.185   0.195   0.860
69641W        W34901  15.972   7.146   2.049
69642W        W34902  44.455   6.983   3.913
69643W        W34903   7.842   0.899   5.069
69644W        W34904  31.161   6.351  14.550
69645W        W34905   8.837  23.598  13.901
69646W        W34906  35.714  23.520  12.519
69647W        W34907  24.558  40.342   3.192
69648W        W34908  11.274   9.882   4.018
69649W        W34909   7.318  10.615   1.459
69650W        W34910  31.690  33.999  13.163
69651W        W34911  37.306   5.834  12.808
69652W        W34912  11.887  17.219  12.356
69653W        W34913  20.239   8.383   2.380
69654W        W34914  40.084  14.304   0.493
69655W        W34915  41.603  23.204   0.869
69656W        W34916  42.085  29.543  10.711
69657W        W34917   3.063   9.340  10.993
69658W        W34918  16.332  27.046   1.273
69659W        W34919   1.063   6.615  12.051
69660W        W34920  34.178  15.848   3.238
69661W        W34921   8.184   0.024  11.968
69662W        W34922  27.921  18.175   0.476
69663W        W34923  43.395  32.066  12.088
69664W        W34924  34.822  15.261   3.761
69665W        W34925  41.549  12.797   4.274
69666W        W34926  19.461  29.610   1.709
69667W        W34927  43.985  31.624   3.665
69668W        W34928  44.076  19.755  13.409
69669W        W34929  44.494   0.697   1.852
69670W        W34930   3.484   7.738  13.351
69671W        W34931  42.440  30.833   0.301
69672W        W34932   3.322  16.694  13.409
69673W        W34933   0.417   1.403   0.321
69674W        W34934  38.346  44.725   1.726
69675W        W34935   4.459  42.243  11.274
69676W        W34936  13.205  41.846  12.193
69677W        W34937   2.407  10.962   2.659
69678W        W34938   6.386  37.031   4.411
69679W        W34939  14.227  23.237   1.954
69680W        W34940  28.484   5.769   0.470
69681W        W34941  34.523  11.614   4.113
69682W        W34942  38.345  43.274   4.797
69683W        W34943  38.008  27.226   1.271
69684W        W34944  19.736  21.593   2.273
69685W        W34945  27.057  41.330  10.880
69686W        W34946   9.218  20.224  12.854
69687W        W34947  14.836  10.401  12.441
69688W        W34948  11.925   3.889  14.396
69689W        W34949  35.811  14.769  11.953
69690W        W34950  36.125  12.351  11.686
69691W        W34951  20.578  41.361   1.396
69692W        W34952  10.689  23.450  11.191
69693W        W34953   9.533   3.243  10.650
69694W        W34954  35.868   0.199   1.903
69695W        W34955  10.326  17.642  11.742
69696W        W34956  44.049  24.075   3.766
69697W        W34957  42.875  27.918   1.352
69698W        W34958  18.660  31.554   4.566
69699W        W34959  40.586  43.371   2.130
69700W        W34960  24.150  11.108  10.599
69701W        W34961  35.524  27.062   2.269
69702W        W34962  16.989  37.044  11.946
69703W        W34963  13.237  25.004   2.324
69704W        W34964  37.564  28.346   3.783
69705W        W34965  26.732  15.775  14.013
69706W        W34966  36.360  11.258  10.990
69707W        W34967  15.264  29.025  14.892
69708W        W34968  25.074  41.766  14.259
69709W        W34969  36.920  11.634  12.451
69710W        W34970  39.586  28.175   4.608
69711W        W34971   3.304  43.186  14.972
69712W        W34972  33.834  31.172  10.595
69713W        W34973  44.406  30.276   1.340
69714W        W34974   1.567  40.521  12.066
69715W        W34975  21.766  44.423   4.706
69716W        W34976  22.967   1.241  13.543
69717W        W34977  42.527  32.743  14.269
69718W        W34978  44.946   6.815   4.104
69719W        W34979  12.531  21.534  12.085
69720W        W34980  24.758  39.814   0.348
69721W        W34981   9.770   2.001  11.535
69722W        W34982  26.137   7.487   2.130
69723W        W34983  30.625  34.614   2.840
69724W        W34984  30.169  33.302   4.836
69725W        W34985  26.054   2.487   9.917
69726W        W34986  37.456   9.131  12.953
69727W        W34987  26.231   8.755   0.310
69728W        W34988  41.501  16.042   1.884
69729W        W34989   2.962  10.655  14.266
69730W        W34990  33.674  31.670  10.607
69731W        W34991  39.187  13.827   2.668
69732W        W34992  43.779  42.265  13.856
69733W        W34993  19.056  13.703  11.623
69734W        W34994   2.913   0.530   1.875
69735W        W34995  31.065   7.167   1.895
69736W        W34996  28.432  21.259  10.716
69737W        W34997  23.214  26.434  11.682
69738W        W34998   8.251  13.291   2.324
69739W        W34999  22.957   0.896  12.257
69740W        W35000   5.071  36.759  10.727
69741W        W35001   8.081   1.402  14.497
69742W        W35002  42.489  20.748  11.898
69743W        W35003   9.846  25.667  11.944
69744W        W35004  32.689  26.642  13.480
69745W        W35005  23.143   2.770   5.534
69746W        W35006  22.772   0.995  10.217
69747W        W35007  30.724   0.652  11.958
69748W        W35008  32.417  18.127   4.076
69749W        W35009  18.093  36.992  13.734
69750W        W35010  23.539  10.398  12.830
69751W        W35011  16.497  37.342  11.229
69752W        W35012   8.332  13.231   3.220
69753W        W35013   3.167   2.258  13.573
69754W        W35014   8.304   6.206   2.878
69755W        W35015   4.808  21.589  11.118
69756W        W35016  39.778  40.786   2.929
69757W        W35017   9.190  26.054  14.509
69758W        W35018   3.663  41.995  14.356
69759W        W35019  35.126  27.881   2.728
69760W        W35020  24.705  12.651  11.443
69761W        W35021  34.794  25.389  11.181
69762W        W35022  22.926  18.122   1.208
69763W        W35023  44.730   3.524  11.607
69764W        W35024  15.717   3.016  13.929
69765W        W35025  38.497  18.159  11.920
69766W        W35026  23.577  29.448   1.010
69767W        W35027  19.464  23.005   2.787
69768W        W35028  14.811  34.051   4.152
69769W        W35029  35.899  36.949   3.139
69770W        W35030  37.403   2.955  12.426
69771W        W35031  38.982  39.816   3.237
69772W        W35032   3.947   6.213   0.140
69773W        W35033  11.728  13.653  12.602
69774W        W35034  38.465  41.596   4.625
69775W        W35035  13.724  44.440   1.855
69776W        W35036  12.219   3.123   2.740
69777W        W35037  40.101  13.234  13.387
69778W        W35038  16.122  42.019  10.391
69779W        W35039  23.513  29.453   4.222
69780W        W35040  27.298  24.958   4.818
69781W        W35041  34.340   5.938  11.141
69782W        W35042  13.977  27.411   1.285
69783W        W35043  10.607  39.878   0.826
69784W        W35044  23.179   8.784   3.219
69785W        W35045  40.275  16.983  11.583
69786W        W35046  22.076   7.635  14.939
69787W        W35047  19.235  23.981   5.005
69788W        W35048  42.893  18.652  12.956
69789W        W35049  19.174  18.587   5.167
69790W        W35050  14.125  43.320   2.610
69791W        W35051  26.222  41.888   1.464
69792W        W35052  28.719  42.055  14.350
69793W        W35053  11.788  20.542  10.594
69794W        W35054  25.554  38.874  11.354
69795W        W35055   5.670  22.158   3.156
69796W        W35056   5.648   9.871  14.422
69797W        W35057  22.692  39.527   4.048
69798W        W35058   4.232  41.212  12.314
69799W        W35059  32.593  22.505  11.138
69800W        W35060  29.010  24.689  10.438
69801W        W35061  41.975  16.797  12.976
69802W        W35062  31.262  18.613   0.877
69803W        W35063   9.370  10.290  12.005
69804W        W35064  44.694  31.820   2.316
69805W        W35065   3.689   6.364   4.523
69806W        W35066  17.062  41.501   0.381
69807W        W35067   1.103  32.982   3.308
69808W        W35068  41.761   4.034   0.292
69809W        W35069   4.328  33.235   0.301
69810W        W35070  21.969  18.420   5.486
69811W        W35071   5.944   5.581  13.351
69812W        W35072  37.065   2.753   1.296
69813W        W35073   1.064  20.562  11.316
69814W        W35074  21.560  14.662   4.018
69815W        W35075  17.752  35.865   2.376
69816W        W35076  25.400  42.303   1.286
69817W        W35077  12.038  40.465   4.874
69818W        W35078  40.097   2.772  10.532
69819W        W35079  37.459   6.321  13.015
69820W        W35080   6.854  12.844  13.648
69821W        W35081  10.750  11.683   5.065
69822W        W35082  10.915  31.098   4.691
69823W        W35083  23.943   9.401   5.028
69824W        W35084  24.986   6.737  13.034
69825W        W35085  23.075  23.566   2.757
69826W        W35086  17.735  12.262  11.443
69827W        W35087  32.359   7.859  12.794
69828W        W35088  25.927  17.232  12.078
69829W        W35089  19.748  38.945   0.799
69830W        W35090  25.267   6.868  10.878
69831W        W35091  18.019  10.887   4.524
69832W        W35092  31.989  11.720  14.746
69833W        W35093  29.959  35.100  10.725
69834W        W35094   3.406  28.240  12.463
69835W        W35095  11.675  26.731   9.856
69836W        W35096  14.190  22.228  10.286
69837W        W35097   2.275  15.895   1.754
69838W        W35098  35.922  38.055   3.143
69839W        W35099  31.032  19.282  12.467
69840W        W35100  23.707  32.911   1.185
69841W        W35101  43.272  37.106  14.744
69842W        W35102  21.927  40.253   0.022
69843W        W35103  42.785  22.728   4.574
69844W        W35104  16.229   7.357   4.482
69845W        W35105  13.682  41.329   2.575
69846W        W35106  15.873  36.627  11.556
69847W        W35107  38.462   6.773   1.994
69848W        W35108  26.490  36.024   4.983
69849W        W35109  24.518  22.343   2.822
69850W        W35110  13.123  43.808  11.473
69851W        W35111  43.067  27.598  11.125
69852W        W35112  19.053  25.676   2.740
69853W        W35113  38.760  35.355  11.938
69854W        W35114  40.859  22.557   4.738
69855W        W35115   2.000  13.839  14.419
69856W        W35116  12.170   9.694   0.277
69857W        W35117  24.058  30.810  14.827
69858W        W35118  20.163  38.753   4.143
69859W        W35119  13.188   0.638  12.454
69860W        W35120  36.303   4.853  12.155
69861W        W35121  20.711   9.513   3.872
69862W        W35122  38.553  41.862   3.826
69863W        W35123  25.045  24.937  11.660
69864W        W35124   0.922   0.460   1.436
69865W        W35125  22.599  35.140   2.596
69866W        W35126  10.044  42.927   4.201
69867W        W35127  19.787   8.170  10.712
69868W        W35128  14.325  35.429   1.228
69869W        W35129  18.846  19.967   3.458
69870W        W35130  41.572  28.577  10.558
69871W        W35131   4.425  32.508  10.737
69872W        W35132  29.111   2.478  12.650
69873W        W35133  14.506  28.963   3.863
69874W        W35134  18.493  16.927   0.880
69875W        W35135  14.034  28.372   3.321
69876W        W35136  27.587  36.445  12.092
69877W        W35137  33.844  34.936   3.823
69878W        W35138  32.859  13.644   0.670
69879W        W35139  38.204  28.467   4.804
69880W        W35140   2.822   1.911   1.819
69881W        W35141   0.860  11.405  13.955
69882W        W35142  32.507  30.812  11.504
69883W        W35143   5.295   1.101  11.922
69884W        W35144  44.843   4.271   0.377
69885W        W35145   3.706  42.235   4.942
69886W        W35146  15.304  25.169   1.463
69887W        W35147  40.092  33.416  13.873
69888W        W35148  37.657  34.682   2.281
69889W        W35149  33.366   4.342  12.159
69890W        W35150  14.046  33.092  11.544
69891W        W35151  36.983  12.387   3.752
69892W        W35152  43.398  32.340  13.440
69893W        W35153  33.367  15.479   4.479
69894W        W35154  12.923  13.852   3.646
69895W        W35155  43.965  44.349  14.872
69896W        W35156  42.617   0.704  13.959
69897W        W35157  15.724  40.039  14.864
69898W        W35158  22.520  25.453  12.378
69899W        W35159   8.738  18.548  14.736
69900W        W35160  30.465  38.238  10.527
69901W        W35161  13.620  40.543  10.959
69902W        W35162  12.819  40.345   3.799
69903W        W35163  39.970  39.830   2.413
69904W        W35164  11.643  18.445   4.102
69905W        W35165  13.904  12.263   3.331
69906W        W35166  27.704  15.205   3.313
69907W        W35167  32.138   3.813  14.950
69908W        W35168  35.956  26.051  10.927
69909W        W35169  40.953   2.054   0.360
69910W        W35170   3.024  38.998  11.592
69911W        W35171   6.069  29.256  12.642
69912W        W35172  22.258  33.576  14.321
69913W        W35173  11.534  30.381   4.444
69914W        W35174  34.839  28.688  12.157
69915W        W35175   5.380   1.949  10.743
69916W        W35176  17.856  17.662   1.878
69917W        W35177  13.731   4.427   1.218
69918W        W35178  25.086  13.413   1.738
69919W        W35179  21.512  25.668   4.532
69920W        W35180  44.725  28.426  11.184
69921W        W35181  21.946  35.545   1.421
69922W        W35182   9.658  11.967  11.116
69923W        W35183  42.912  35.002  12.995
69924W        W35184  12.156  12.376  11.579
69925W        W35185  20.869  36.175   4.847
69926W        W35186  25.748  35.514  12.060
69927W        W35187  24.397  25.528   5.118
69928W        W35188  14.492  17.104   3.667
69929W        W35189  10.076  15.846  12.068
69930W        W35190  30.017  10.736  12.326
69931W        W35191  39.621  38.367  12.156
69932W        W35192  22.548  31.588   2.159
69933W        W35193  21.209  34.491   3.742
69934W        W35194  44.517  20.617  13.823
69935W        W35195   9.682  36.080   4.793
69936W        W35196  38.046  10.166  10.700
69937W        W35197  17.693  30.246  14.792
69938W        W35198  34.977  36.029   0.417
69939W        W35199   9.420   9.797  12.463
69940W        W35200  22.909  44.071   2.879
69941W        W35201  22.041   1.866  10.584
69942W        W35202   8.625  26.235  13.290
69943W        W35203  32.210  10.853   1.776
69944W        W35204  18.531  43.972  10.498
69945W        W35205  33.683  18.102  13.600
69946W        W35206  31.448   2.290   2.464
69947W        W35207   9.301   9.928   3.733
69948W        W35208  43.636  11.092   0.719
69949W        W35209   6.482   2.423   3.239
69950W        W35210  14.696   3.470   1.892
69951W        W35211  30.096  36.590   2.882
69952W        W35212  26.148  13.405   0.661
69953W        W35213   0.203   8.576  11.039
69954W        W35214  26.453  12.657   0.859
69955W        W35215   3.742   1.773   5.271
69956W        W35216  22.459  41.176   0.031
69957W        W35217  10.461  41.302  12.046
69958W        W35218   9.288  41.458  13.082
69959W        W35219  44.196  28.296   4.098
69960W        W35220  30.001  36.261  13.938
69961W        W35221  17.708  41.814  12.008
69962W        W35222  15.121  41.094   0.772
69963W        W35223  32.834  24.581   0.880
69964W        W35224  17.194  13.252  11.584
69965W        W35225   3.370  34.331  12.116
69966W        W35226  18.939  41.574   1.280
69967W        W35227  27.616   4.254  13.210
69968W        W35228  35.902  17.656   2.225
69969W        W35229  18.662   2.849   1.430
69970W        W35230  40.882  11.655   1.082
69971W        W35231  16.651  39.866   0.325
69972W        W35232  39.866   3.490   3.638
69973W        W35233   5.928  24.777  10.286
69974W        W35234  39.711   6.133  13.764
69975W        W35235  19.379  42.530   3.110
69976W        W35236   3.001  20.158  13.571
69977W        W35237  27.588  34.473  10.382
69978W        W35238  31.967  27.190  10.868
69979W        W35239  18.086  26.485  13.172
69980W        W35240  38.204  11.263  13.895
69981W        W35241   5.120   0.390   2.412
69982W        W35242  42.786  16.735   3.105
69983W        W35243  11.852  14.037   2.240
69984W        W35244  42.198  36.352  12.928
69985W        W35245  44.192  43.085   0.454
69986W        W35246  27.825   7.803   2.279
69987W        W35247  34.625  42.459  10.792
69988W        W35248  29.176  42.748   2.454
69989W        W35249  39.531  16.125   1.570
69990W        W35250  13.583   9.140   4.307
69991W        W35251  20.000  17.758  13.617
69992W        W35252  14.564  42.326   4.070
69993W        W35253  28.970  26.220   3.749
69994W        W35254   2.666  38.794   1.222
69995W        W35255  16.194  16.166  14.390
69996W        W35256  42.230   6.150  12.907
69997W        W35257  14.173   0.319  11.674
69998W        W35258  28.542  16.590   4.051
69999W        W35259  35.436  39.394   3.119
70000W        W35260  37.478  29.235   3.285
70001W        W35261  13.178  44.827  11.951
70002W        W35262  21.042   8.809  13.476
70003W        W35263  30.886  35.043  13.123
70004W        W35264  38.860  10.331  10.417
70005W        W35265  22.705  28.967   1.729
70006W        W35266  12.105  30.510  11.919
70007W        W35267  41.936   6.465   3.999
70008W        W35268  13.895   7.228  11.764
70009W        W35269  15.755  34.541  14.436
70010W        W35270  25.791  18.660  12.611
70011W        W35271  35.518  16.192  13.307
70012W        W35272  31.554   4.652   2.300
70013W        W35273  20.853  15.779   2.225
70014W        W35274  23.680  26.206   4.703
70015W        W35275   6.147   8.846  14.865
70016W        W35276  28.511  24.459   4.682
70017W        W35277  43.501  14.634   3.385
70018W        W35278  22.241  42.505  14.247
70019W        W35279   4.231  28.129   2.121
70020W        W35280  17.579  19.843   1.851
70021W        W35281   2.942  31.994   4.550
70022W        W35282  26.708  38.359   0.301
70023W        W35283   1.851   2.857   2.875
70024W        W35284   8.350  16.375  14.813
70025W        W35285  42.699  32.870   1.970
70026W        W35286  10.092  31.431  11.621
70027W        W35287  36.381  17.783   3.682
70028W        W35288  27.584  15.780   2.633
70029W        W35289   5.534  23.974  11.981
70030W        W35290  20.106  32.991  14.332
70031W        W35291   6.155  41.994  11.568
70032W        W35292   0.894  20.329   0.778
70033W        W35293   3.762  36.008   3.786
70034W        W35294  22.542  14.129   4.128
70035W        W35295  41.455  28.910  10.933
70036W        W35296  36.815  41.537   0.857
70037W        W35297  42.845  16.181   4.676
70038W        W35298  10.300  29.868  14.407
70039W        W35299  43.796  29.161   0.516
70040W        W35300  11.653  17.617  13.634
70041W        W35301  17.889  28.161   1.280
70042W        W35302  26.697   1.361   0.019
70043W        W35303  28.600  43.349   1.127
70044W        W35304  25.015  36.865  12.924
70045W        W35305  41.291  32.379   0.224
70046W        W35306  25.673  27.114   1.889
70047W        W35307  11.598  18.821  13.272
70048W        W35308  28.246   4.431   1.188
70049W        W35309  36.462  43.713  10.771
70050W        W35310  21.999  25.271   1.376
70051W        W35311  16.784  34.652  14.526
70052W        W35312  30.061  32.197  14.680
70053W        W35313  11.784  17.220  12.875
70054W        W35314  14.574  13.289   4.216
70055W        W35315  13.230  29.941  13.372
70056W        W35316   7.020  27.127   2.597
70057W        W35317  39.585  44.030  11.681
70058W        W35318  13.303  20.902  12.263
70059W        W35319  37.357  33.095   4.028
70060W        W35320  36.035  13.705   3.627
70061W        W35321  25.191  37.341  13.879
70062W        W35322  20.031  17.667  11.506
70063W        W35323   7.922   2.709   4.702
70064W        W35324  43.835   3.485  11.952
70065W        W35325  31.882  39.219   0.872
70066W        W35326  30.059  25.027   1.439
70067W        W35327  36.969  41.946  14.537
70068W        W35328  18.972   3.908   0.600
70069W        W35329  27.615  19.224   3.796
70070W        W35330  29.931  11.845   0.408
70071W        W35331   1.714   9.676  14.892
70072W        W35332  41.633  33.399   2.285
70073W        W35333  18.888  30.961   2.612
70074W        W35334  22.687  10.623  14.309
70075W        W35335  17.292  14.892  11.148
70076W        W35336  25.632  37.817  11.943
70077W        W35337  17.544  12.007  14.568
70078W        W35338  36.912   9.355  13.657
70079W        W35339  27.545  25.212   0.456
70080W        W35340   4.897  30.626   3.327
70081W        W35341  37.525  32.484   2.888
70082W        W35342  11.227  10.152   2.810
70083W        W35343  21.601  19.484   1.734
70084W        W35344  23.659  30.730  11.675
70085W        W35345  13.288   4.418   1.485
70086W        W35346  39.112  20.806   5.004
70087W        W35347  39.077  37.410  11.446
70088W        W35348   7.639  37.705   4.496
70089W        W35349  37.080  43.345   2.762
70090W        W35350  35.429  25.209   5.138
70091W        W35351   2.021   4.220  14.443
70092W        W35352  42.138  40.258  13.496
70093W        W35353  42.915   2.340   1.794
70094W        W35354  34.084   9.325   1.752
70095W        W35355  18.902  25.114   4.608
70096W        W35356  15.228  12.128   3.387
70097W        W35357  22.728  19.344  12.026
70098W        W35358  36.520  31.976  10.105
70099W        W35359  20.816  27.397  13.851
70100W        W35360  10.791  22.442   4.795
70101W        W35361  28.972  23.004   3.653
70102W        W35362  15.436  37.368   0.242
70103W        W35363  18.768  38.486  13.460
70104W        W35364  25.289  17.678  13.263
70105W        W35365   0.862   4.241   1.301
70106W        W35366  33.790   9.228  13.178
70107W        W35367  37.817   0.841   1.700
70108W        W35368   7.804   4.801  13.424
70109W        W35369  17.636  44.813   0.492
70110W        W35370  32.600  17.284  13.287
70111W        W35371  30.831  36.418  11.191
70112W        W35372  27.866  24.033  13.853
70113W        W35373  35.882  22.152  13.840
70114W        W35374  37.254  43.895   3.684
70115W        W35375  28.946  12.222   1.032
70116W        W35376   6.613  43.399   0.629
70117W        W35377  14.316  41.094  10.794
70118W        W35378  14.118   2.207   4.523
70119W        W35379   1.367  20.420   2.898
70120W        W35380  41.054  15.062  13.966
70121W        W35381  41.830  43.489  10.669
70122W        W35382  18.587  44.490   2.668
70123W        W35383  18.168  22.993   4.150
70124W        W35384  32.018   0.223   4.575
70125W        W35385  18.950  17.158   0.912
70126W        W35386   5.936  42.502  10.707
70127W        W35387  24.093  19.328   1.479
70128W        W35388  24.553  44.070   0.413
70129W        W35389  10.571  24.091  12.461
70130W        W35390  16.804  25.724  13.917
70131W        W35391   1.230  11.014   9.818
70132W        W35392  42.278   7.857  12.461
70133W        W35393  30.390   5.337  14.774
70134W        W35394  15.469  38.487   0.811
70135W        W35395   1.829  11.654   2.905
70136W        W35396  41.588  42.714   0.272
70137W        W35397  34.511  35.184   2.415
70138W        W35398  32.802  39.900   0.482
70139W        W35399  31.511  14.677   2.829
70140W        W35400  16.052   6.740   2.381
70141W        W35401  28.409   3.371  14.907
70142W        W35402  40.291   0.207  12.184
70143W        W35403  24.758  38.497  11.642
70144W        W35404  37.104  19.213  11.471
70145W        W35405  39.966  17.067  14.373
70146W        W35406   7.006  44.349  12.449
70147W        W35407   2.721  15.149   0.799
70148W        W35408  29.800  35.005  12.685
70149W        W35409  36.367  10.093   1.683
70150W        W35410  32.371  18.579  14.727
70151W        W35411  11.832  36.972  13.427
70152W        W35412  35.642  41.332  13.503
70153W        W35413  33.535  24.600  10.268
70154W        W35414  14.238  19.371   4.624
70155W        W35415  16.945  33.532  12.559
70156W        W35416  27.753  44.545   2.679
70157W        W35417   0.040  10.209  12.508
70158W        W35418   8.838  10.406   1.392
70159W        W35419   9.187  14.707   3.108
70160W        W35420  25.369   1.315  14.570
70161W        W35421  18.596  24.659   2.959
70162W        W35422  21.276   0.846   3.218
70163W        W35423   6.251  12.917  12.020
70164W        W35424  12.546  15.398  13.476
70165W        W35425  12.897   9.828   9.769
70166W        W35426  42.195  25.076   4.291
70167W        W35427   2.006  27.071  10.353
70168W        W35428  28.455  36.127  14.323
70169W        W35429  33.394   1.027   1.263
70170W        W35430  14.932  36.933  12.508
70171W        W35431   9.878  15.310  14.282
70172W        W35432  11.583   1.480   0.477
70173W        W35433   7.235  21.025  14.620
70174W        W35434  39.395  44.964  10.847
70175W        W35435   6.949  44.900  11.432
70176W        W35436   7.291   1.845  13.753
70177W        W35437   8.290   7.710   4.468
70178W        W35438  43.345  41.276   1.861
70179W        W35439  12.082  12.442   0.480
70180W        W35440  10.584  11.273  13.020
70181W        W35441   0.852  15.756   3.862
70182W        W35442  36.304  42.736  12.172
70183W        W35443  29.883   4.721  13.512
70184W        W35444   3.707  22.239   0.732
70185W        W35445  34.444  44.088   3.752
70186W        W35446   7.743  25.936  14.010
70187W        W35447  41.804  25.204  11.224
70188W        W35448  41.011  17.534  12.974
70189W        W35449  42.780   1.375   0.541
70190W        W35450  18.275   5.689  12.858
70191W        W35451  31.933  12.245   0.692
70192W        W35452  25.258  19.545  14.041
70193W        W35453   2.138  43.450  14.239
70194W        W35454  14.343  38.743   3.793
70195W        W35455  33.432  16.799  11.993
70196W        W35456  27.226  18.411   2.182
70197W        W35457   7.607  42.921   2.301
70198W        W35458  27.113  26.749  14.898
70199W        W35459  23.946  24.321   4.530
70200W        W35460  44.962  43.035  11.899
70201W        W35461  14.173   0.380   4.860
70202W        W35462  32.830   3.237  13.555
70203W        W35463  30.880  27.110   1.856
70204W        W35464   8.263  18.532  12.571
70205W        W35465  20.434  17.816  12.875
70206W        W35466  37.927  12.202  10.686
70207W        W35467  26.263  12.314  14.071
70208W        W35468  10.246  27.427  11.738
70209W        W35469  12.294  18.130  14.314
70210W        W35470   0.362  24.490  12.542
70211W        W35471  24.247  23.619   3.266
70212W        W35472  35.479  38.576   4.229
70213W        W35473  24.597  44.047  13.589
70214W        W35474   4.680  23.529   4.996
70215W        W35475  43.062  35.958   0.741
70216W        W35476  13.133   8.400   2.423
70217W        W35477   1.224  13.270   2.802
70218W        W35478  37.446  32.748  10.774
70219W        W35479  28.470   8.632   1.206
70220W        W35480  18.633   7.238  14.571
70221W        W35481  38.946  12.673   0.148
70222W        W35482  42.409  23.802   2.900
70223W        W35483  24.502  40.956  12.550
70224W        W35484   6.938   0.817   4.453
70225W        W35485  34.415  19.695   1.222
70226W        W35486  29.427  15.708   1.321
70227W        W35487  37.649  30.167  12.866
70228W        W35488  20.035  35.593   9.759
70229W        W35489  28.893  21.217   3.676
70230W        W35490  14.680  12.291  12.520
70231W        W35491  32.495  27.178  12.599
70232W        W35492   6.554  33.353   0.311
70233W        W35493  26.024  36.552  12.514
70234W        W35494  21.251  28.213   2.303
70235W        W35495  27.583  19.464   5.013
70236W        W35496  43.881  40.260  12.429
70237W        W35497  33.062  30.232   2.688
70238W        W35498   3.829  13.751  14.839
70239W        W35499  18.050   7.256   3.133
70240W        W35500  21.569   5.954   3.085
70241W        W35501  39.413  27.999   3.673
70242W        W35502   7.465  30.628  11.158
70243W        W35503   2.756  17.143  12.121
70244W        W35504  39.485   5.144  14.873
70245W        W35505  23.251  35.859  11.661
70246W        W35506   9.729   8.992  13.885
70247W        W35507  41.360  12.493  12.929
70248W        W35508  33.654  10.881  13.293
70249W        W35509  20.420   6.631  12.011
70250W        W35510  30.496  34.864   3.279
70251W        W35511  29.954  39.645  11.155
70252W        W35512   1.892  30.456   2.051
70253W        W35513  39.825  37.723  14.093
70254W        W35514  15.472  33.468   3.264
70255W        W35515  39.524  14.143   1.241
70256W        W35516   8.859  30.606   4.128
70257W        W35517  29.142  13.657  13.821
70258W        W35518  36.966  29.130   3.245
70259W        W35519  38.071  43.451   0.806
70260W        W35520  12.558   3.940  12.039
70261W        W35521  10.250  11.593   1.111
70262W        W35522  43.374   9.252   4.635
70263W        W35523   0.749  17.714  14.006
70264W        W35524  19.271  22.119   2.175
70265W        W35525  21.173   2.500   2.279
70266W        W35526  39.988  43.775  13.550
70267W        W35527  21.892  33.111   3.613
70268W        W35528  34.643   9.874  13.008
70269W        W35529  36.073   6.410   3.387
70270W        W35530  25.738  11.758   0.700
70271W        W35531  41.392  35.246   2.650
70272W        W35532   0.827  12.126   0.973
70273W        W35533   7.594  23.083  12.932
70274W        W35534  31.032  29.512   0.804
70275W        W35535  23.808  35.009   3.097
70276W        W35536   0.514   9.874   1.182
70277W        W35537  18.148  20.548  13.986
70278W        W35538   2.834  13.349   2.773
70279W        W35539  17.728  34.832   2.374
70280W        W35540   1.455  39.903  14.594
70281W        W35541  40.204   3.599   2.735
70282W        W35542  26.228  38.771   1.916
70283W        W35543  17.508  27.090   0.680
70284W        W35544  41.516  35.207   3.158
70285W        W35545  21.759  33.358   0.729
70286W        W35546  28.559  22.996   3.101
70287W        W35547  40.353   3.888   1.414
70288W        W35548  10.446  20.611   3.176
70289W        W35549  14.325  28.331  10.775
70290W        W35550  21.662  31.540   3.658
70291W        W35551  34.127  11.485  12.753
70292W        W35552  21.221   0.548  13.269
70293W        W35553  37.265  34.063   0.327
70294W        W35554  28.506  12.367  14.631
70295W        W35555  27.057  12.037  13.466
70296W        W35556  32.040   9.637  13.858
70297W        W35557  21.065  37.959   1.359
70298W        W35558  29.146  31.000   4.014
70299W        W35559  22.601   2.939   4.849
70300W        W35560  24.663  42.479   3.968
70301W        W35561  16.692  21.584   2.714
70302W        W35562  38.145   5.416  10.705
70303W        W35563  32.741  40.017  12.163
70304W        W35564  11.798  37.438  10.743
70305W        W35565  34.320  38.547  11.920
70306W        W35566   0.635   6.892  14.992
70307W        W35567  41.318  19.033   4.233
70308W        W35568   9.993  29.838   3.499
70309W        W35569   0.444  14.008   0.466
70310W        W35570  17.852  12.786  12.116
70311W        W35571  14.366   8.217   2.335
70312W        W35572  39.484  36.033   0.197
70313W        W35573  38.560  37.624  13.514
70314W        W35574  31.706  28.594   3.132
70315W        W35575  20.577  17.691   0.870
70316W        W35576  34.858  17.329   3.111
70317W        W35577   6.204  44.076  13.775
70318W        W35578  25.404  24.099   2.020
70319W        W35579  31.048  29.568  12.862
70320W        W35580  23.014  19.682  12.285
70321W        W35581  13.229  29.332  10.106
70322W        W35582  43.005  23.713   0.192
70323W        W35583  35.069  36.456  13.350
70324W        W35584  34.551   8.628  12.269
70325W        W35585  22.632  24.039  10.724
70326W        W35586  27.068  13.639   4.144
70327W        W35587   7.834  34.809   0.258
70328W        W35588  31.041  18.438   4.118
70329W        W35589   8.960  18.690  12.079
70330W        W35590  38.314  22.610  13.455
70331W        W35591   7.444  42.752   1.225
70332W        W35592  30.163   7.208   1.654
70333W        W35593  44.059  42.816   4.196
70334W        W35594  34.083  44.825   4.096
70335W        W35595  35.149  33.394   3.720
70336W        W35596  41.017  25.213  14.115
70337W        W35597   9.858  28.444   3.566
70338W        W35598   1.139  34.986  12.494
70339W        W35599  15.743  24.557  10.444
70340W        W35600   0.075  41.583   0.166
70341W        W35601  30.473  23.756  14.772
70342W        W35602  22.289  33.385   1.166
70343W        W35603   7.207  26.618  13.337
70344W        W35604  23.974  27.709  13.983
70345W        W35605  14.168  41.364  13.472
70346W        W35606  22.998  15.317  14.042
70347W        W35607  32.410  43.760   1.915
70348W        W35608  40.810   2.396   9.767
70349W        W35609  43.244  26.107  12.984
70350W        W35610  35.656  12.539  11.623
70351W        W35611  14.781   1.763   3.339
70352W        W35612  43.204  30.392  12.371
70353W        W35613  28.990  30.620   1.593
70354W        W35614   4.941  23.118  10.306
70355W        W35615  44.426  10.151  12.052
70356W        W35616  32.596   8.784   5.032
70357W        W35617  13.800   9.341   2.392
70358W        W35618  23.625  36.622   4.246
70359W        W35619  22.475   8.949   5.146
70360W        W35620  27.092  17.368   2.299
70361W        W35621  22.047   9.333  12.336
70362W        W35622  43.059   9.692   0.758
70363W        W35623  25.676  20.750  10.374
70364W        W35624  14.360  26.054   4.317
70365W        W35625  32.647  38.546   0.424
70366W        W35626  44.961  40.721   2.621
70367W        W35627  40.049   1.809   2.857
70368W        W35628  23.475  25.191  12.053
70369W        W35629  10.285  36.602   4.760
70370W        W35630  27.716  34.067  13.541
70371W        W35631  14.768  19.864   5.386
70372W        W35632   5.234   0.254   4.760
70373W        W35633  17.715  42.956  14.058
70374W        W35634   8.838   3.475   2.926
70375W        W35635  15.107  23.517  11.996
70376W        W35636  13.644  10.849  12.367
70377W        W35637  40.541  16.061   0.800
70378W        W35638  39.963  37.054  13.581
70379W        W35639  14.004   8.171  10.841
70380W        W35640  43.906  37.318   4.117
70381W        W35641   3.673  12.686  12.971
70382W        W35642  11.931  35.755  12.447
70383W        W35643  26.671   2.292  13.456
70384W        W35644  32.486  42.970   2.646
70385W        W35645  28.726   5.509  12.509
70386W        W35646  37.766  38.832  12.570
70387W        W35647   3.684  39.027   0.665
70388W        W35648  29.518  17.771   4.699
70389W        W35649  41.469  22.053  12.492
70390W        W35650  12.538  38.826   3.710
70391W        W35651  44.714  25.066  14.837
70392W        W35652  35.136  40.881   2.713
70393W        W35653  37.060  42.769  11.231
70394W        W35654   5.750  27.947   4.005
70395W        W35655  11.602  33.233   2.162
70396W        W35656  27.677  21.309   4.926
70397W        W35657   4.209  23.376   5.140
70398W        W35658   3.719   1.397   1.725
70399W        W35659  14.720  29.407   0.770
70400W        W35660  25.469  22.257  14.918
70401W        W35661   1.233  27.647  13.470
70402W        W35662  44.392  43.919  10.306
70403W        W35663  13.274  43.347   4.360
70404W        W35664  25.779   4.649   2.163
70405W        W35665  33.578  36.412  11.445
70406W        W35666  43.303   7.356  11.499
70407W        W35667  40.386   5.696   3.416
70408W        W35668  36.412  17.869   4.611
70409W        W35669  16.648  42.481  14.798
70410W        W35670   5.802  30.798  13.556
70411W        W35671  14.243  29.911  12.958
70412W        W35672  12.481  34.493   3.472
70413W        W35673  28.600  21.241   3.241
70414W        W35674   5.788  44.568  10.688
70415W        W35675   2.987  17.386   1.375
70416W        W35676  25.862   8.928   4.240
70417W        W35677  20.873  16.184  12.501
70418W        W35678   9.165  14.287   2.743
70419W        W35679   4.496  42.790   0.521
70420W        W35680  21.140  28.882  14.344
70421W        W35681   2.295  12.055   3.610
70422W        W35682  18.119  34.520   1.705
70423W        W35683  36.136  34.429   3.153
70424W        W35684  42.317  44.849  12.608
70425W        W35685  42.790  35.017   3.036
70426W        W35686  13.631  19.971   1.352
70427W        W35687  33.072  44.562  10.474
70428W        W35688  31.225   2.201   0.980
70429W        W35689  19.273  29.452   1.255
70430W        W35690  11.780  38.513  13.366
70431W        W35691  32.392   5.264  12.916
70432W        W35692  40.408  23.219   0.766
70433W        W35693  24.109  38.460   0.747
70434W        W35694  18.642  41.784  14.921
70435W        W35695  36.399  25.971   1.907
70436W        W35696  14.806  35.349  11.111
70437W        W35697  33.129  35.881   2.774
70438W        W35698  25.815  27.542  12.435
70439W        W35699  21.520  26.907  13.739
70440W        W35700  28.520  10.341  13.821
70441W        W35701  29.120  25.118   2.900
70442W        W35702  23.563  40.951   2.523
70443W        W35703  17.742  26.264   4.648
70444W        W35704  27.444  12.352  13.395
70445W        W35705  10.709   5.205  11.625
70446W        W35706  33.816  14.689   2.658
70447W        W35707  12.121  19.618  13.026
70448W        W35708   4.227  31.059  10.793
70449ION    NA+35709  32.422  12.729  11.607
70450ION    NA+35710  18.521  28.953  13.967
70451ION    NA+35711  25.078  38.511   0.764
70452ION    NA+35712   9.773  11.332   0.165
70453ION    NA+35713  21.396   1.739   4.194
70454ION    NA+35714  27.658  28.562   0.428
70455ION    NA+35715   3.926  29.041   3.280
70456ION    NA+35716  44.179   1.483   3.791
70457ION    NA+35717  39.893   3.388  11.105
70458ION    NA+35718  35.635  14.553   4.092
70459ION    NA+35719  13.283  17.661  12.084
70460ION    NA+35720  38.163   7.528  12.365
70461ION    NA+35721  19.644   5.838   4.016
70462ION    NA+35722  10.189  12.087  10.260
70463ION    NA+35723  43.064   7.181   0.627
70464ION    NA+35724  22.039  30.347   2.378
70465ION    NA+35725  33.241  24.165  10.303
70466ION    NA+35726  25.347  43.587   0.206
70467ION    NA+35727  40.085  22.825   4.394
70468ION    NA+35728   2.652   1.398   1.571
70469ION    NA+35729  42.961  43.847  10.791
70470ION    NA+35730  11.322  38.249   3.235
70471ION    NA+35731   4.859   8.152   4.145
70472ION    NA+35732   5.659  36.293  13.742
70473ION    NA+35733  29.552  17.029   1.715
70474ION    NA+35734  27.646  20.579   3.717
70475ION    NA+35735  34.874  30.369  11.276
70476ION    NA+35736   7.644  39.293   0.070
70477ION    NA+35737  14.390   4.440   2.911
70478ION    NA+35738  16.208  23.059   2.311
70479ION    NA+35739   0.222  22.619  10.589
70480ION    NA+35740  12.598  41.226  11.203
70481ION    NA+35741  11.573   9.589   3.703
70482ION    NA+35742  40.055  34.348   2.388
70483ION    NA+35743  22.172  30.848  11.191
70484ION    NA+35744  15.568   6.390   2.238
70485ION    NA+35745   6.296  14.464   1.390
70486ION    NA+35746   3.476   1.009   0.773
70487ION    NA+35747  27.368  14.989  12.758
70488ION    NA+35748  31.592   0.296  13.817
70489ION    NA+35749  40.828  43.832  10.617
70490ION    NA+35750  27.942  11.955  11.564
70491ION    NA+35751  17.710  43.922  10.944
70492ION    NA+35752  33.929  19.267  14.304
70493ION    NA+35753  12.252  14.339   0.747
70494ION    NA+35754  14.726   2.896  14.767
70495ION    NA+35755  19.710  29.719  13.996
70496ION    NA+35756   0.450  17.158   2.399
70497ION    NA+35757  42.630  15.081  12.406
70498ION    NA+35758  13.678  41.860  13.858
70499ION    NA+35759  39.983   0.274   1.454
70500ION    NA+35760  19.359  43.324   3.951
70501ION    NA+35761  21.421   1.284  11.662
70502ION    NA+35762  36.628   9.603  12.138
70503ION    NA+35763  21.976  16.493   4.178
70504ION    NA+35764  32.941  11.255  14.876
70505ION    NA+35765   1.253  22.567  14.283
70506ION    NA+35766  27.723  13.801  10.737
70507ION    NA+35767  10.135   1.714   1.458
70508ION    NA+35768  17.349  25.689   3.766
70509ION    NA+35769   8.239  30.114  11.570
70510ION    NA+35770   5.726  40.109  12.342
70511ION    NA+35771  16.360  21.625  10.732
70512ION    NA+35772   2.277  19.633   2.309
70513ION    NA+35773  13.121  16.323   4.833
70514ION    NA+35774  42.939  25.065  13.763
70515ION    NA+35775  38.545   5.843  12.034
70516ION    NA+35776  22.133   3.718  13.058
70517ION    NA+35777  21.238  30.051  11.732
70518ION    NA+35778  31.632  23.989  11.110
70519ION    NA+35779  43.456  39.996   3.228
70520ION    NA+35780  43.409  22.721   2.862
70521ION    NA+35781  31.609  32.473  11.396
70522ION    NA+35782  30.122  43.685  12.645
70523ION    NA+35783  26.730  31.425  13.443
70524ION    NA+35784   3.226  18.706  12.564
70525ION    NA+35785  22.346   2.301  13.062
70526ION    NA+35786  25.279  38.883  12.644
70527ION    NA+35787  26.155  10.893   2.179
70528ION    NA+35788   7.428  16.964  12.760
70529ION    NA+35789  38.935   1.125   2.321
70530ION    NA+35790   5.614  25.533   3.140
70531ION    NA+35791  30.297  18.081   1.992
70532ION    NA+35792  14.593  21.282  12.426
70533ION    NA+35793   3.255  39.111  12.487
70534ION    NA+35794  24.205  37.266  12.871
70535ION    NA+35795   7.828  19.791  10.296
70536ION    NA+35796  11.726  17.100   0.787
70537ION    NA+35797   5.735  34.626   0.285
70538ION    NA+35798  10.626  24.571  13.307
70539ION    NA+35799  41.413   8.396   4.992
70540ION    NA+35800  20.784  20.380   5.774
70541ION    NA+35801  33.378  29.120   2.460
70542ION    NA+35802  39.623  19.094  14.852
70543ION    NA+35803   2.673  15.825  10.680
70544ION    NA+35804   5.172   0.739  12.900
70545ION    NA+35805  28.241  41.285  14.548
70546ION    NA+35806  22.728   0.070   4.652
70547ION    NA+35807  16.504  32.312   3.808
70548ION    NA+35808  35.085   6.771   0.286
70549ION    NA+35809  34.429  43.248   1.484
70550ION    NA+35810  14.898  41.662   4.241
70551ION    NA+35811  32.958  28.988   0.386
70552ION    NA+35812  20.159  40.065  11.957
70553ION    NA+35813  39.331  30.786   1.236
70554ION    NA+35814   4.481  32.889  12.537
70555ION    NA+35815   6.232  10.962  14.987
70556ION    NA+35816  38.595   6.080   4.412
70557ION    NA+35817  21.917   6.472   3.017
70558ION    NA+35818  33.198  32.209   1.613
70559ION    NA+35819  36.057   4.064  12.714
70560ION    NA+35820   8.386   4.918  14.985
70561ION    NA+35821   0.087  18.518   1.618
70562ION    NA+35822  43.363  33.324  14.380
70563ION    NA+35823  17.808  35.191  12.108
70564ION    NA+35824  25.224   4.227  14.878
70565ION    NA+35825  42.920  31.284  13.956
70566ION    NA+35826  31.876  10.776  12.782
70567ION    NA+35827  29.912  32.880  10.802
70568ION    NA+35828  12.545   3.503   0.395
70569ION    NA+35829   7.770  34.066  10.967
70570ION    NA+35830  32.168  21.918  12.602
70571ION    NA+35831   0.311  43.495  13.026
70572ION    NA+35832  15.030  33.701   3.069
70573ION    NA+35833  23.823  29.688   2.976
70574ION    NA+35834   4.252   6.096   5.062
70575ION    NA+35835  28.135  39.517   5.329
70576ION    NA+35836  28.427  26.187   1.265
70577ION    NA+35837  35.037   5.293  13.627
70578ION    NA+35838  28.228   5.532  13.410
70579ION    NA+35839  25.533   0.365  10.545
70580ION    NA+35840  35.632  23.916  12.158
70581ION    NA+35841  18.018  40.840   4.561
70582ION    NA+35842  30.753  41.900   0.045
70583ION    NA+35843  13.387   7.236   2.536
70584ION    NA+35844  10.748  10.819   2.845
70585ION    NA+35845  39.209  30.129  13.021
70586ION    NA+35846  37.468  16.820   2.811
70587ION    NA+35847   2.327  44.199  13.251
70588ION    NA+35848  40.230  41.308   1.150
70589ION    NA+35849  28.838  37.141  13.118
70590ION    NA+35850  36.444  43.257   0.422
70591ION    NA+35851  18.666   3.413  14.054
70592ION    NA+35852  10.162  34.512   9.764
70593ION    NA+35853  38.843  21.450  13.381
70594ION    NA+35854  39.131  25.216  14.932
70595ION    NA+35855  23.222  31.401   2.597
70596ION    NA+35856  43.451  14.330  14.749
70597ION    NA+35857  16.810   6.501   3.435
70598ION    NA+35858   1.123   9.716  13.946
70599ION    NA+35859  19.479   2.678   4.501
70600ION    NA+35860  37.104  11.055  10.758
70601ION    NA+35861  26.882   6.385  10.747
70602ION    NA+35862  14.383  11.863   3.704
70603ION    NA+35863  27.666  25.674   0.272
70604ION    NA+35864  35.880  10.788  11.923
70605ION    NA+35865  17.604  36.390  12.807
70606ION    NA+35866  37.421   3.486   2.358
70607ION    NA+35867  15.588   3.670   4.604
70608ION    NA+35868  13.741  16.805  13.459
70609ION    NA+35869  22.083  24.933   3.067
70610ION    NA+35870  23.934  25.211   5.015
70611ION    NA+35871  19.808  13.498  13.891
70612ION    NA+35872  22.434  37.678  11.815
70613ION    NA+35873  24.798   8.604   0.375
70614ION    NA+35874  38.671  17.395   3.375
70615ION    NA+35875  33.981  31.202  14.784
70616ION    NA+35876  44.406  24.863   4.162
70617ION    NA+35877  43.722  41.412   4.067
70618ION    NA+35878   0.846  38.606   3.214
70619ION    NA+35879  10.682  23.264   3.288
70620ION    NA+35880  19.961  14.063   5.345
70621ION    NA+35881  31.601   3.379  13.080
70622ION    NA+35882  26.931  29.033  13.463
70623ION    NA+35883  20.511  37.949   0.195
70624ION    NA+35884  39.052  20.641   2.047
70625ION    NA+35885   9.905  21.700   1.745
70626ION    NA+35886   9.129  42.397   2.972
70627ION    NA+35887  25.449  38.192  14.407
70628ION    NA+35888  43.317  23.210  13.901
70629ION    NA+35889  25.233   9.690  13.402
70630ION    NA+35890   2.769   4.473   2.718
70631ION    NA+35891  12.623  13.060  11.520
70632ION    NA+35892  15.698  33.840   1.274
70633ION    NA+35893  10.037  32.922  14.922
70634ION    NA+35894  28.859  32.159   0.422
70635ION    NA+35895  10.258  14.760   2.430
70636ION    NA+35896  31.059  21.249   2.397
70637ION    NA+35897  28.873  26.218  12.088
70638ION    NA+35898  16.646  33.794  11.485
70639ION    NA+35899  44.512  15.856  10.888
70640ION    NA+35900   5.587  12.745   2.011
70641ION    NA+35901   7.873  43.184   5.392
70642ION    NA+35902  40.555   0.935   1.364
70643ION    NA+35903  27.291   0.511   0.045
70644ION    NA+35904  29.206  20.472  11.804
70645ION    NA+35905  22.943   0.359  13.369
70646ION    NA+35906  37.501   9.056   3.671
70647ION    NA+35907  14.029   5.234  10.648
70648ION    NA+35908  17.421  12.741   1.769
70649ION    NA+35909  26.716  14.768  13.528
70650ION    NA+35910  32.420  25.620   1.617
70651ION    NA+35911  18.826  24.066  12.303
70652ION    NA+35912   0.237  10.464  10.501
70653ION    NA+35913  29.118  34.386  14.031
70654ION    NA+35914  11.117  16.314   3.620
70655ION    NA+35915   9.213   0.685  10.702
70656ION    NA+35916  25.016  41.756   1.952
70657ION    NA+35917  29.230  41.228   5.042
70658ION    NA+35918  28.589  27.161  13.611
70659ION    NA+35919   7.976  40.816  12.605
70660ION    NA+35920  11.721  29.477   4.009
70661ION    NA+35921  23.158  42.026   0.768
70662ION    NA+35922   3.998   5.748  12.693
70663ION    NA+35923  32.314  37.151   3.673
70664ION    NA+35924  13.349  19.078   0.276
70665ION    NA+35925  40.230  28.448   1.016
70666ION    NA+35926   9.888  21.888   4.394
70667ION    NA+35927  16.849  20.601  13.092
70668ION    NA+35928  22.060  16.369  14.581
70669ION    NA+35929  33.564  40.787   1.821
70670ION    NA+35930  22.239   9.266   0.574
70671ION    NA+35931  27.621  37.169   1.956
70672ION    NA+35932   8.158  40.697  10.989
70673ION    NA+35933   1.580   0.154   4.536
70674ION    NA+35934   6.996   5.948   2.726
70675ION    NA+35935   8.734  20.887   4.579
70676ION    NA+35936  30.516  41.583   1.884
70677ION    NA+35937  19.811  16.610   2.327
70678ION    NA+35938  32.437  25.377  14.987
70679ION    NA+35939  33.426   9.883  14.917
70680ION    NA+35940   5.419  26.525  12.356
70681ION    NA+35941  42.020  35.770   2.020
70682ION    NA+35942  26.910   9.027  11.670
70683ION    NA+35943   7.086  36.355  13.993
70684ION    NA+35944  11.192  32.564  11.844
70685ION    NA+35945  20.551  22.452   3.183
70686ION    NA+35946  10.224   3.599  11.617
70687ION    NA+35947   9.424  42.290   2.022
70688ION    NA+35948   5.207  34.381   2.711
70689ION    NA+35949  15.810  33.563  14.393
70690ION    NA+35950  31.361  37.527   0.942
70691ION    NA+35951  28.099  25.634  14.372
70692ION    NA+35952  32.624  11.165  12.641
70693ION    NA+35953  33.491  36.045   1.946
70694ION    NA+35954  22.094   3.856   1.660
70695ION    NA+35955  40.861   4.251   2.202
70696ION    NA+35956  36.409  11.931   2.566
70697ION    NA+35957  32.386  35.523  11.409
70698ION    NA+35958  42.105  39.755   2.987
70699ION    NA+35959  39.385   0.271   2.800
70700ION    NA+35960  30.670  32.676   0.910
70701ION    NA+35961  31.049  12.788  14.985
70702ION    NA+35962  21.901   3.765   4.791
70703ION    NA+35963  42.569  43.118  12.326
70704ION    NA+35964  27.700  33.069  11.507
70705ION    NA+35965  34.516  15.170  13.364
70706ION    NA+35966  41.217   6.433  13.054
70707ION    NA+35967   7.792  43.341   4.120
70708ION    NA+35968  18.761  27.976  10.686
70709ION    NA+35969  21.714  23.410  14.780
70710ION    NA+35970   7.402  18.867   2.751
70711ION    NA+35971  42.167   6.395  13.363
70712ION    NA+35972  29.800  16.919   2.563
70713ION    NA+35973  40.599  28.688  10.784
70714ION    NA+35974  42.483  10.564  13.167
70715ION    NA+35975  17.351   9.106  12.096
70716ION    NA+35976  17.885  20.831  10.510
70717ION    NA+35977  32.501  11.258   4.413
70718ION    NA+35978  29.691   5.185  13.709
70719ION    NA+35979  42.464   2.677   1.773
70720ION    NA+35980  13.667  12.468  13.416
70721ION    NA+35981  33.396   7.982   0.276
70722ION    NA+35982  39.147  32.823   2.851
70723ION    NA+35983  23.467   5.689  14.918
70724ION    NA+35984   4.855   1.452  11.914
70725ION    NA+35985  22.590  30.412  10.161
70726ION    NA+35986  39.576  11.671   3.190
70727ION    NA+35987  41.906   1.877   3.716
70728ION    NA+35988  32.683  18.699   3.378
70729ION    NA+35989  32.565  42.925  11.643
70730ION    NA+35990  17.765  27.541  14.291
70731ION    NA+35991  26.861  18.719   0.775
70732ION    NA+35992  22.799  16.680  13.910
70733ION    NA+35993  23.408   3.435   5.284
70734ION    NA+35994   6.373  38.101  10.090
70735ION    NA+35995  43.445  19.738  12.033
70736ION    NA+35996   7.588  34.992  14.849
70737ION    NA+35997  23.970  13.730   0.887
70738ION    NA+35998  27.768  16.001   3.106
70739ION    NA+35999  32.654  19.373   0.102
70740ION    NA+36000   9.817  35.162   4.508
70741ION    NA+36001  36.840  11.122  12.430
70742ION    NA+36002   7.396  13.929  12.234
70743ION    NA+36003  31.592  35.381  14.348
70744ION    NA+36004  36.275  38.679  13.678
70745ION    NA+36005  17.086  24.548   0.544
70746ION    NA+36006  11.629  31.163   0.534
70747ION    NA+36007  18.966   2.055   3.856
70748ION    NA+36008  29.717  25.837   4.945
70749ION    NA+36009  25.586  27.157  14.918
70750ION    NA+36010  26.948  20.810   3.040
70751ION    NA+36011  34.437  33.789   2.087
70752ION    NA+36012  33.602  30.117  14.447
70753ION    NA+36013  32.985  10.861   1.170
70754ION    NA+36014  23.477  15.885   1.861
70755ION    NA+36015  22.393   3.230   4.104
70756ION    NA+36016  29.707  11.988  11.149
70757ION    NA+36017  14.413   8.443  11.999
70758ION    NA+36018  27.574   0.190  10.570
70759ION    NA+36019  32.794  40.912  12.346
70760ION    NA+36020  24.886  21.774  10.920
70761ION    NA+36021  14.212  42.680  11.239
70762ION    NA+36022  14.555   0.584  13.723
70763ION    NA+36023   1.285  11.089  13.869
70764ION    NA+36024  44.363  43.992   0.811
70765ION    NA+36025  17.152  42.870   1.439
70766ION    NA+36026   6.252  24.088  12.470
70767ION    NA+36027  27.968  21.724  13.762
70768ION    NA+36028   5.786  20.549  11.028
70769ION    NA+36029  20.472  42.286  11.806
70770ION    NA+36030  26.428  34.901  12.612
70771ION    NA+36031  17.523  40.165  10.888
70772ION    NA+36032  42.283  18.424   2.725
70773ION    NA+36033   2.698   4.770   0.280
70774ION    NA+36034   4.190  21.664   4.743
70775ION    NA+36035  24.543  26.680  10.876
70776ION    NA+36036  30.695  16.257  11.194
70777ION    NA+36037  31.973   5.997  10.714
70778ION    NA+36038  34.569   1.699   3.083
70779ION    NA+36039  36.563  32.015   2.289
70780ION    NA+36040   7.783  23.518  13.602
70781ION    NA+36041  19.343  32.404  13.603
70782ION    NA+36042   3.695  20.720   4.324
70783ION    NA+36043  17.674   3.009   2.053
70784ION    NA+36044  43.300  28.325  14.097
70785ION    NA+36045  37.474  23.292   2.404
70786ION    NA+36046  22.480  15.308  14.162
70787ION    NA+36047   8.582  15.005   1.856
70788ION    NA+36048  39.713  21.410  13.244
70789ION    NA+36049  39.885  13.970   2.706
70790ION    NA+36050  22.201   1.832   3.609
70791ION    NA+36051  10.816  44.895   0.708
70792ION    NA+36052  19.715  13.082  14.738
70793ION    NA+36053  31.041  40.063   1.242
70794ION    NA+36054  13.329  27.711   5.417
70795ION    NA+36055  34.567  14.301   0.607
70796ION    NA+36056  17.574  23.808   1.888
70797ION    NA+36057  23.961  18.653  13.027
70798ION    NA+36058  11.151  24.135  10.815
70799ION    NA+36059  17.940  10.288   2.959
70800ION    NA+36060  25.716  21.222   0.836
70801ION    NA+36061  39.161   8.769  12.701
70802ION    NA+36062  24.322  14.173  14.176
70803ION    NA+36063  44.502  13.325   3.945
70804ION    NA+36064  26.419  16.740   1.348
70805ION    NA+36065   6.617  36.450   2.909
70806ION    NA+36066  16.737  33.352   2.201
70807ION    NA+36067  12.803  44.886   2.428
70808ION    NA+36068  39.104  39.397   0.799
70809ION    NA+36069  44.511  29.830  12.021
70810ION    NA+36070  10.100  18.980  14.039
70811ION    NA+36071   7.032  13.632  11.185
70812ION    NA+36072  34.550  18.729  12.622
70813ION    NA+36073   0.692  33.158  14.861
70814ION    NA+36074   1.346  38.000  10.357
70815ION    NA+36075  20.339   3.764   0.198
70816ION    NA+36076  11.256  13.065  13.993
70817ION    NA+36077  23.626  11.061   4.109
70818ION    NA+36078  19.333   6.949  10.509
70819ION    NA+36079  24.494  38.540  12.109
70820ION    NA+36080  29.248  29.872   1.919
70821ION    NA+36081  32.500  21.659  11.510
70822ION    NA+36082  30.083  40.872   2.444
70823ION    NA+36083  16.573   9.741  11.694
70824ION    NA+36084  29.941  31.992   0.940
70825ION    NA+36085  39.605  13.658  10.994
70826ION    NA+36086  13.551  25.656  13.332
70827ION    NA+36087  36.243  32.407   1.387
70828ION    NA+36088  26.387   5.216  13.851
70829ION    NA+36089  19.844  20.995   2.543
70830ION    NA+36090  28.676   9.726  10.827
70831ION    NA+36091  35.421  38.243   4.847
70832ION    NA+36092  30.645   4.756   2.223
70833ION    NA+36093   5.388  20.272   4.161
70834ION    NA+36094  22.150  31.705   3.751
70835ION    NA+36095  35.424  12.644  11.174
70836ION    NA+36096  28.680   4.427  10.072
70837ION    NA+36097  31.610  34.166  12.360
70838ION    NA+36098  11.885  33.522  11.908
70839ION    NA+36099  38.045  23.740   0.500
70840ION    NA+36100  30.016   1.313  13.895
70841ION    NA+36101  37.092   2.452  11.814
70842ION    NA+36102   5.350  23.046   0.324
70843ION    NA+36103   2.757  26.477  11.877
70844ION    NA+36104   1.009   2.906   4.797
70845ION    NA+36105  12.058  29.875  13.502
70846ION    NA+36106  18.595   4.639   3.329
70847ION    NA+36107  42.969  29.624  12.893
70848ION    NA+36108  44.862   5.912  11.046
70849ION    NA+36109   7.560  42.554   3.906
70850ION    NA+36110  23.614  23.930  14.655
70851ION    NA+36111  12.534   8.425  11.927
70852ION    NA+36112  44.926  28.865   0.278
70853ION    NA+36113   5.841  36.114   0.046
70854ION    NA+36114   0.726  42.797  14.466
70855ION    NA+36115   4.990  30.950  13.887
70856ION    NA+36116  44.941  17.618  13.334
70857ION    NA+36117  16.415  39.039   0.163
70858ION    NA+36118  19.760   5.852   2.214
70859ION    NA+36119   1.443  17.272   2.389
70860ION    NA+36120  31.170  42.685  13.517
70861ION    NA+36121  26.162   3.821   1.579
70862ION    NA+36122  41.335  11.817   0.395
70863ION    NA+36123  22.574  30.605   5.254
70864ION    NA+36124  16.458  16.337   4.503
70865ION    NA+36125   5.311   4.417   2.619
70866ION    NA+36126  38.420  20.504   1.237
70867ION    NA+36127   6.404   9.136  14.488
70868ION    NA+36128  24.884  20.866  12.090
70869ION    NA+36129   3.702   9.389   2.318
70870ION    NA+36130  42.220  30.530  13.835
70871ION    NA+36131  20.141  10.095   3.705
70872ION    NA+36132  40.344  23.644   4.173
70873ION    NA+36133  14.101  41.783  12.195
70874ION    NA+36134  22.477   8.622  12.042
70875ION    NA+36135  24.662   3.606  12.109
70876ION    NA+36136  16.870  13.604   1.236
70877ION    NA+36137  12.155   1.222   3.702
70878ION    NA+36138  25.112   6.461   4.187
70879ION    NA+36139  30.157  38.681   1.719
70880ION    NA+36140  33.151  40.161   4.699
70881ION    NA+36141  27.318  41.105   1.302
70882ION    NA+36142  12.581  22.220  13.274
70883ION    NA+36143  31.166  41.344   3.096
70884ION    NA+36144   6.690  43.509  14.311
70885ION    NA+36145  33.080   4.637  10.699
70886ION    NA+36146  15.041  44.879   1.722
70887ION    NA+36147  12.604  24.678   2.656
70888ION    NA+36148  13.158  19.854   3.673
70889ION    NA+36149  33.717   5.581   2.165
70890ION    NA+36150   6.499  14.319  11.729
70891ION    NA+36151  32.843  14.821   2.855
70892ION    NA+36152  14.525  44.813  10.684
70893ION    NA+36153   2.920  28.504   1.021
70894ION    NA+36154  25.450  26.735  11.890
70895ION    NA+36155  15.829  31.472   0.329
70896ION    NA+36156   0.323   5.010   0.638
70897ION    NA+36157  17.935  38.243  13.322
70898ION    NA+36158   8.707  23.140   1.864
70899ION    NA+36159  34.960  35.962  13.824
70900ION    NA+36160  12.193   5.427   0.402
70901ION    NA+36161  31.570   9.880  13.886
70902ION    NA+36162   5.777  19.626   0.982
70903ION    NA+36163  40.439  13.738  12.088
70904ION    NA+36164  22.238  25.804   4.311
70905ION    NA+36165  37.963  30.549  13.027
70906ION    NA+36166  35.803   8.284   2.109
70907ION    NA+36167   0.993  19.404  11.021
70908ION    NA+36168  25.032  44.073  13.066
70909ION    NA+36169  19.949  13.549   0.412
70910ION    NA+36170  18.023  15.982  14.752
70911ION    NA+36171  37.341   1.978  13.094
70912ION    NA+36172   6.536  25.951  10.860
70913ION    NA+36173  41.346   2.007   4.725
70914ION    NA+36174   0.081  42.754   0.942
70915ION    NA+36175  42.846  15.390  10.696
70916ION    NA+36176  37.505  32.107  11.482
70917ION    NA+36177  16.877   3.261   1.337
70918ION    NA+36178  12.323  10.110  12.099
70919ION    NA+36179   1.974  13.021  14.823
70920ION    NA+36180  16.649  27.936   3.775
70921ION    NA+36181  28.973   1.525  13.060
70922ION    NA+36182  44.315  23.360  11.067
70923ION    NA+36183  40.730  13.340   4.106
70924ION    NA+36184  41.968  43.536   3.587
70925ION    NA+36185  26.178  37.373   1.730
70926ION    NA+36186  43.922   2.893   3.752
70927ION    NA+36187  34.640  15.094   1.877
70928ION    NA+36188   3.859   8.741   3.078
70929ION    NA+36189  29.726  37.591  12.994
70930ION    NA+36190  27.640  27.506  11.202
70931ION    NA+36191  18.711  37.759   2.072
70932ION    NA+36192  27.870   8.689   3.457
70933ION    NA+36193  22.954  40.024  14.153
70934ION    NA+36194  31.597   9.667   4.486
70935ION    NA+36195   0.959  28.060   3.083
70936ION    NA+36196  36.886  31.873   4.712
70937ION    NA+36197   6.345  24.247  14.881
70938ION    NA+36198   3.046   2.736   1.188
70939ION    NA+36199  13.608  38.885   2.098
70940ION    NA+36200  17.614  37.425   1.025
70941ION    NA+36201  31.199   3.349   3.416
70942ION    NA+36202  13.269   6.182   1.743
70943ION    NA+36203  29.104  24.924  13.105
70944ION    NA+36204  14.780  22.152  11.124
70945ION    NA+36205  42.118  26.202  11.134
70946ION    NA+36206  14.956   0.934  12.875
70947ION    NA+36207  24.583  12.868  10.678
70948ION    NA+36208  18.309  10.320  13.823
70949ION    NA+36209  21.169  21.194   4.107
70950ION    NA+36210  22.839  37.541  10.805
70951ION    NA+36211  40.074  39.111   1.020
70952ION    NA+36212  11.404   1.489  12.872
70953ION    NA+36213  20.850  33.831   4.489
70954ION    NA+36214   7.291  37.491  13.114
70955ION    NA+36215  39.102  24.461   3.285
70956ION    NA+36216  14.079   5.656  13.488
70957ION    NA+36217  30.429  41.330  14.410
70958ION    NA+36218  25.999  32.106  12.280
70959ION    NA+36219  36.694  23.660  14.685
70960ION    NA+36220  40.565  20.742  12.666
70961ION    NA+36221  36.316  25.041   2.673
70962ION    NA+36222   6.689  12.576   4.943
70963ION    NA+36223  26.342  23.955   1.746
70964ION    NA+36224  32.961  23.643  11.109
70965ION    NA+36225  11.285   9.856   2.340
70966ION    NA+36226  28.087  24.214   1.073
70967ION    NA+36227  31.852  11.822  10.909
70968ION    NA+36228  16.467  44.742   1.899
70969ION    NA+36229   5.077   9.883   3.277
70970ION    NA+36230  39.360  15.522  11.997
70971ION    NA+36231  40.110  44.278   4.708
70972ION    NA+36232  16.079  13.565   1.434
70973ION    NA+36233  12.735  21.810   1.058
70974ION    NA+36234  22.067  21.783   0.300
70975ION    NA+36235  41.118  36.635   2.049
70976ION    NA+36236  19.898   6.604   4.432
70977ION    NA+36237  34.408  39.806   2.756
70978ION    NA+36238  34.711   6.518   1.876
70979ION    NA+36239   0.444   7.380  11.567
70980ION    NA+36240  32.134   8.926   0.960
70981ION    NA+36241  42.938  19.735   1.330
70982ION    NA+36242  25.447  34.612   1.684
70983ION    NA+36243  19.501   4.749  10.919
70984ION    NA+36244   5.450  25.888  13.126
70985ION    NA+36245  38.725   1.886   5.185
70986ION    NA+36246  38.759  33.244   2.122
70987ION    NA+36247  18.356  20.149  11.564
70988ION    NA+36248  43.501  18.185   1.870
70989ION    NA+36249  31.786   2.219   1.055
70990ION    NA+36250  21.973  33.174   2.883
70991ION    NA+36251   9.687  32.463  11.460
70992ION    NA+36252   1.312  31.557   3.169
70993ION    NA+36253  44.272  21.584   4.571
70994ION    NA+36254  28.458  36.523  11.406
70995ION    NA+36255  16.012  33.091   2.839
70996ION    NA+36256   1.942  26.916   0.900
70997ION    NA+36257  20.265   4.246  12.806
70998ION    NA+36258  28.830  16.977  13.047
70999ION    NA+36259  42.691  18.131   3.726
71000ION    NA+36260  35.278  33.502  13.418
71001ION    NA+36261   9.620   2.413  12.929
71002ION    NA+36262  42.605  43.639  11.473
71003ION    NA+36263   7.242   3.210  14.540
71004ION    NA+36264  30.050  28.983   4.137
71005ION    NA+36265  31.354  41.643   4.603
71006ION    NA+36266  10.596  24.222   0.670
71007ION    NA+36267  17.699  30.577  12.490
71008ION    NA+36268   0.713  37.878  12.641
71009ION    NA+36269  16.118  14.492  12.435
71010ION    NA+36270  38.366  24.951   1.733
71011ION    NA+36271  36.043  25.586   1.880
71012ION    NA+36272  30.522  22.100  11.734
71013ION    NA+36273  41.807  44.532   2.280
71014ION    NA+36274  13.123  34.564  14.894
71015ION    NA+36275  12.992  44.222   3.743
71016ION    NA+36276  13.715  25.230   4.646
71017ION    NA+36277  21.732  16.865   2.491
71018ION    NA+36278  22.929  26.211   1.835
71019ION    NA+36279   7.016  28.963   0.291
71020ION    NA+36280   1.050  10.483   2.359
71021ION    NA+36281  17.662  30.365   2.424
71022ION    NA+36282  38.368   9.338   1.027
71023ION    NA+36283   9.170  22.845   3.070
71024ION    NA+36284  20.834   7.290  11.375
71025ION    NA+36285  21.391  25.775   2.792
71026ION    NA+36286  42.855  44.594  11.374
71027ION    NA+36287   2.290  10.139   0.770
71028ION    NA+36288  42.366  27.134   2.184
71029ION    NA+36289   0.635  36.841  13.563
71030ION    NA+36290   7.174   3.274   3.224
71031ION    NA+36291  29.702  44.431   0.608
71032ION    NA+36292  14.866  26.435   3.715
71033ION    NA+36293  35.714  34.451  14.152
71034ION    NA+36294  35.337   8.155   3.254
71035ION    NA+36295  23.069  32.611  12.310
71036ION    NA+36296  22.747  38.363  14.006
71037ION    NA+36297   1.651   1.171   1.862
71038ION    NA+36298  41.365  37.942  10.676
71039ION    NA+36299   1.652   7.242  11.976
71040ION    NA+36300   1.805  11.378  14.548
71041ION    NA+36301  41.418  36.244   2.786
71042ION    NA+36302  38.214   8.723   0.232
71043ION    NA+36303  16.997   5.061   1.554
71044ION    NA+36304   9.474   2.426  10.651
71045ION    NA+36305  19.052  25.488   3.230
71046ION    NA+36306  34.281  33.863  13.009
71047ION    NA+36307   8.132  33.320  12.367
71048ION    NA+36308   1.695   2.817  14.999
71049ION    NA+36309  25.459  12.761   9.678
71050ION    NA+36310  11.767  20.378   4.707
71051ION    NA+36311  37.619  40.479   4.055
71052ION    NA+36312  18.794  41.440   2.154
71053ION    NA+36313   5.284  38.302   3.593
71054ION    NA+36314   1.051  42.478  13.035
71055ION    NA+36315  37.992  22.844   3.264
71056ION    NA+36316  21.573  10.147   4.367
71057ION    NA+36317  16.257  13.660   0.674
71058ION    NA+36318  42.023   8.444   1.204
71059ION    NA+36319  25.306  22.380  13.721
71060ION    NA+36320   0.423   5.656  14.878
71061ION    NA+36321  26.521   6.630  11.851
71062ION    NA+36322  20.651  20.508  12.223
71063ION    NA+36323   2.188  18.735  14.910
71064ION    NA+36324  17.113  29.451   4.204
71065ION    NA+36325  41.248  22.217  12.930
71066ION    NA+36326  36.641  43.511  10.220
71067ION    NA+36327  32.372  18.288  12.987
71068ION    NA+36328  27.582   6.839   0.523
71069ION    NA+36329  42.201  22.648  11.957
71070ION    NA+36330  13.407  29.458   2.684
71071ION    NA+36331   7.358  14.891  11.963
71072ION    NA+36332  42.514  33.597   1.116
71073ION    NA+36333  44.980  13.215  14.093
71074ION    NA+36334   7.250  22.990  14.949
71075ION    NA+36335  43.120  15.773   3.934
71076ION    NA+36336  29.033  41.693  14.737
71077ION    NA+36337  36.405  21.286  14.033
71078ION    NA+36338  35.384  44.629  12.397
71079ION    NA+36339   9.821   1.477  10.755
71080ION    NA+36340   9.864  13.637   2.661
71081ION    NA+36341   7.159  26.596   3.258
71082ION    NA+36342  43.506   6.251  14.460
71083ION    NA+36343  33.583   9.192   1.632
71084ION    NA+36344  21.536  29.095   3.673
71085ION    NA+36345  13.312  10.009   0.999
71086ION    NA+36346  41.056  28.180   0.500
71087ION    NA+36347  43.193   2.833  12.412
71088ION    NA+36348  40.069  24.569  13.400
71089ION    NA+36349   2.445  14.234   1.658
71090ION    NA+36350  14.885  10.376   4.450
71091ION    NA+36351  16.120   2.109   4.038
71092ION    NA+36352   1.113  26.863   0.344
71093ION    NA+36353  42.262  43.852  13.791
71094ION    NA+36354  22.609   8.377   0.019
71095ION    NA+36355  38.671  30.094   0.269
71096ION    NA+36356  18.771   1.892   2.889
71097ION    NA+36357   4.442  31.403  11.563
71098ION    NA+36358  36.065   3.494   0.795
71099ION    NA+36359  26.939  30.595   0.973
71100ION    NA+36360   1.918   8.154   2.890
71101ION    NA+36361  19.627  42.983   3.153
71102ION    NA+36362  27.442   6.381  14.194
71103ION    NA+36363  20.531  17.398   2.180
71104ION    NA+36364   5.374  29.239   2.187
71105ION    NA+36365  38.611  14.427  14.416
71106ION    NA+36366  35.961  32.593  11.131
71107ION    NA+36367  32.377  40.447   4.134
71108ION    NA+36368   2.171   7.143   3.189
71109ION    NA+36369  23.487  22.737  13.367
71110ION    NA+36370   0.251  10.261   3.192
71111ION    NA+36371  36.275   9.893  11.452
71112ION    NA+36372   7.266  39.596   2.187
71113ION    NA+36373  43.524  41.103  12.795
71114ION    NA+36374  15.345  21.148  14.971
71115ION    NA+36375  19.909  15.172  12.411
71116ION    NA+36376  43.546   1.735  11.675
71117ION    NA+36377  16.662  25.880  14.400
71118ION    NA+36378   0.084   1.610   3.385
71119ION    NA+36379  18.535  33.107   2.862
71120ION    NA+36380  31.006  44.234  13.568
71121ION    NA+36381  44.124  42.688  12.160
71122ION    NA+36382  19.100  16.334  14.334
71123ION    NA+36383  15.478  34.313  11.728
71124ION    NA+36384  43.202  38.510   0.549
71125ION    NA+36385  25.145  12.319   4.121
71126ION    NA+36386  24.752   6.674   1.969
71127ION    NA+36387  33.354  33.876  11.455
71128ION    NA+36388   7.785  12.665   3.517
71129ION    NA+36389  21.866  24.007  14.081
71130ION    NA+36390  28.863  12.148   1.926
71131ION    NA+36391   1.447  19.375   2.169
71132ION    NA+36392   8.703  29.513   1.456
71133ION    NA+36393  39.133   9.204  13.852
71134ION    NA+36394  43.845  41.640  12.134
71135ION    NA+36395  42.680  20.375  11.397
71136ION    NA+36396  31.031   3.495   9.948
71137ION    NA+36397   2.665  25.223   0.108
71138ION    NA+36398  29.430  15.830   0.371
71139ION    NA+36399  31.516  11.920   1.446
71140ION    NA+36400  44.290  12.318  11.736
71141ION    NA+36401  40.673  36.459  10.817
71142ION    NA+36402  36.362  28.058   3.412
71143ION    NA+36403  30.120  26.996   3.193
71144ION    NA+36404  35.023   1.732   1.721
71145ION    NA+36405  13.079  44.129  12.921
71146ION    NA+36406  11.847   3.105  12.001
71147ION    NA+36407  21.348  18.442   3.753
71148ION    NA+36408  43.838   1.425  14.979
71149ION    NA+36409  27.018  18.196  13.603
71150ION    NA+36410  23.530  13.812  10.679
71151ION    NA+36411   4.026   2.904   1.296
71152ION    NA+36412  17.293  10.719  14.370
71153ION    NA+36413  13.921  18.446  14.595
71154ION    NA+36414  16.566   2.718  13.776
71155ION    NA+36415  21.377   3.850   0.439
71156ION    NA+36416  27.868  33.105  13.901
71157ION    NA+36417  18.676  11.201  14.416
71158ION    NA+36418  26.930  35.880   3.100
71159ION    NA+36419  20.531  38.974   2.746
71160ION    NA+36420  16.324  16.049  13.663
71161ION    NA+36421  29.912  35.789  14.898
71162ION    NA+36422   2.899   2.967   0.209
71163ION    NA+36423   6.618   3.770  11.168
71164ION    NA+36424  33.649   0.110  10.681
71165ION    NA+36425  41.117  28.808   3.913
71166ION    NA+36426  21.707  12.075   2.093
71167ION    NA+36427  20.413  19.413   1.522
71168ION    NA+36428  21.271  28.182  10.726
71169ION    NA+36429  34.465  43.321   4.296
71170ION    NA+36430  18.519  14.149  14.992
71171ION    NA+36431  11.630  37.783  13.790
71172ION    NA+36432  38.514  19.470   2.497
71173ION    NA+36433  14.970  15.869  12.618
71174ION    NA+36434  17.801  19.510  12.114
71175ION    NA+36435   7.269  29.986   5.340
71176ION    NA+36436  44.745  32.032   9.693
71177ION    NA+36437   7.127   0.221   4.536
71178ION    NA+36438  20.413  30.326  11.408
71179ION    NA+36439  29.229  13.169   3.818
71180ION    NA+36440  26.118  22.352   9.863
71181ION    NA+36441  39.396  30.325   4.015
71182ION    NA+36442  13.250   2.039  12.917
71183ION    NA+36443   0.140  27.091   0.386
71184ION    NA+36444  10.240  24.097   1.768
71185ION    NA+36445  17.751  42.528  14.846
71186ION    NA+36446  15.063  27.535  10.681
71187ION    NA+36447   8.954  17.143  14.570
71188ION    NA+36448  13.156  14.947   4.362
71189ION    NA+36449  35.576  16.639  12.973
71190ION    NA+36450  38.754  29.116  10.955
71191ION    NA+36451  33.051  39.369  14.512
71192ION    NA+36452  29.868  32.553  14.369
71193ION    NA+36453  24.719  13.704   0.225
71194ION    NA+36454  36.275  31.919  13.906
71195ION    NA+36455  39.835  43.677  11.396
71196ION    NA+36456   6.641  20.748  10.550
71197ION    NA+36457   2.852  22.268  11.148
71198ION    NA+36458  14.578  41.207  14.193
71199ION    NA+36459  35.889  31.418   1.855
71200ION    NA+36460  24.853  28.191  13.437
71201ION    NA+36461  25.998   5.554   2.853
71202ION    NA+36462  40.940   9.750   1.393
71203ION    NA+36463  28.081  30.552  12.348
71204ION    NA+36464  26.998  26.918   1.828
71205ION    NA+36465   3.345   8.202  11.313
71206ION    NA+36466   1.297  13.002   1.128
71207ION    NA+36467   8.509  17.432   1.817
71208ION    NA+36468   7.236  27.251  10.673
71209ION    NA+36469  11.827  44.739   0.824
71210ION    NA+36470   9.347  28.538   3.500
71211ION    NA+36471  15.640   7.283  11.802
71212ION    NA+36472  27.455  31.966  13.950
71213ION    NA+36473  24.272  42.232  13.269
71214ION    NA+36474  35.517  15.827  13.675
71215ION    NA+36475   0.089  10.106   1.417
71216ION    NA+36476  27.078  13.527   0.115
71217ION    NA+36477  24.569  24.077  12.461
71218ION    NA+36478  13.180  26.427   4.120
71219ION    NA+36479  39.877  35.823  12.460
71220ION    NA+36480  38.925  13.709  13.971
71221ION    NA+36481  32.094  23.042   0.836
71222ION    NA+36482  38.751  19.503  11.169
71223ION    NA+36483  41.579   3.874   4.113
71224ION    NA+36484  12.444  30.122   0.582
71225ION    NA+36485   7.156  13.913   5.252
71226ION    NA+36486  30.837  44.918  11.997
71227ION    NA+36487   4.910   6.723  12.034
71228ION    NA+36488  18.693   8.448   3.607
71229ION    NA+36489  36.286  44.083  13.743
71230ION    NA+36490   2.317   8.380  10.794
71231ION    NA+36491  33.530  28.165  13.870
71232ION    NA+36492  42.539  38.677   1.027
71233ION    NA+36493   1.204   5.893  12.865
71234ION    NA+36494   8.297   5.856   0.994
71235ION    NA+36495  42.005   8.423   2.096
71236ION    NA+36496   8.048  35.350   2.667
71237ION    NA+36497  39.245   0.771   0.825
71238ION    NA+36498  44.882   1.828   2.430
71239ION    NA+36499  38.150  16.977  11.930
71240ION    NA+36500  41.470   9.567  13.551
71241ION    NA+36501  28.684  24.903  10.090
71242ION    NA+36502  23.558  20.722  11.040
71243ION    NA+36503  44.757  24.105   3.781
71244ION    NA+36504  38.494  11.541  10.793
71245ION    NA+36505  33.453  32.329   3.690
71246ION    NA+36506  22.901  11.495  12.568
71247ION    NA+36507  19.660   8.715  10.790
71248ION    NA+36508  20.435  32.788   2.312
71249ION    NA+36509  11.583  23.121   3.874
71250ION    NA+36510  16.453  26.790  13.942
71251ION    NA+36511  27.226  36.538  12.535
71252ION    NA+36512  22.850  13.658   2.853
71253ION    NA+36513  22.047   2.087  11.679
71254ION    NA+36514  16.732  14.694  11.450
71255ION    NA+36515  24.447  28.578  10.095
71256ION    NA+36516  37.921  18.736   0.986
71257ION    NA+36517  28.199  32.893   1.245
71258ION    NA+36518  39.142  17.977  14.335
71259ION    NA+36519  21.838  19.267  10.188
71260ION    NA+36520  17.340  15.417  11.122
71261ION    NA+36521  33.346   2.970   9.749
71262ION    NA+36522   2.286  26.559   1.631
71263ION    NA+36523  33.222  36.734   3.715
71264ION    NA+36524   0.612  14.503   1.308
71265ION    NA+36525  30.476  33.427  12.400
71266ION    NA+36526  38.830   0.643   9.863
71267ION    NA+36527   8.233  28.108  14.374
71268ION    NA+36528   9.200  15.512  11.612
71269ION    NA+36529  37.559  28.974   1.630
71270ION    NA+36530  35.482  43.300   1.953
71271ION    NA+36531  37.219  28.623   2.502
71272ION    NA+36532  38.172   1.465  12.880
71273ION    NA+36533  18.937  25.974  12.574
71274ION    NA+36534  16.656  18.261  12.353
71275ION    NA+36535  30.607  33.638  10.695
71276ION    NA+36536  30.057  10.249  14.031
71277ION    NA+36537  38.732  23.721   4.332
71278ION    NA+36538  30.263   6.590   3.757
71279ION    NA+36539  29.047  15.337   1.412
71280ION    NA+36540  44.083  14.136   1.378
71281ION    NA+36541  17.155  32.133   1.132
71282ION    NA+36542   6.160  36.544  11.647
71283ION    NA+36543   0.370  21.090   4.512
71284ION    NA+36544  16.232  13.492  12.615
71285ION    NA+36545  29.846  34.703   4.889
71286ION    NA+36546  15.072  14.744  13.929
71287ION    NA+36547  40.010  25.219   3.296
71288ION    NA+36548   1.219  23.609   9.591
71289ION    NA+36549  10.633  22.735   1.157
71290ION    NA+36550  15.098   3.161   1.853
71291ION    NA+36551   2.494  11.675   2.290
71292ION    NA+36552  27.708  35.765  10.626
71293ION    NA+36553  26.571  16.950  10.700
71294ION    NA+36554  31.346   1.620   0.571
71295ION    NA+36555   1.053  27.443  13.916
71296ION    NA+36556  28.652  36.017   0.274
71297ION    NA+36557  39.463   9.463   2.235
71298ION    NA+36558  44.874  11.017   1.923
71299ION    NA+36559   3.933  20.832  14.091
71300ION    NA+36560  34.332   9.744  11.541
71301ION    NA+36561  35.148  12.909   4.148
71302ION    NA+36562   8.697  31.685  13.500
71303ION    NA+36563  14.454  36.243   0.843
71304ION    NA+36564  21.222  21.407   2.790
71305ION    NA+36565  22.274   9.142  14.001
71306ION    NA+36566  24.881  23.810   1.786
71307ION    NA+36567   8.126  37.871   4.580
71308ION    NA+36568   1.853   9.579  10.878
71309ION    NA+36569  16.338  21.969   1.481
71310ION    NA+36570  24.231  25.215  12.023
71311ION    NA+36571  12.387  22.970   2.589
71312ION    NA+36572  33.700  20.420   1.053
71313ION    NA+36573  24.242  39.298   2.809
71314ION    NA+36574   6.433  43.821  10.909
71315ION    NA+36575  11.588   5.479  10.549
71316ION    NA+36576  33.778  14.037   0.962
71317ION    NA+36577   0.974  38.594   4.221
71318ION    NA+36578  24.204   8.125  10.905
71319ION    NA+36579  17.917  42.725  13.091
71320ION    NA+36580  26.035  21.213  11.668
71321ION    NA+36581  38.993  28.383  12.965
71322ION    NA+36582  35.695  27.503  13.700
71323ION    NA+36583  20.190  12.789  13.298
71324ION    NA+36584  38.663  15.485   2.360
71325ION    NA+36585   4.562   3.536   1.855
71326ION    NA+36586  17.482   8.506   2.197
71327ION    NA+36587  34.895   7.814   0.961
71328ION    NA+36588  34.980  40.418   3.371
71329ION    NA+36589  38.789   8.298   5.242
71330ION    NA+36590  15.669   1.748  12.127
71331ION    NA+36591  20.580  19.606  14.700
71332ION    NA+36592  29.480   5.249  14.781
71333ION    NA+36593  38.896   7.889  12.667
71334ION    NA+36594  33.834   5.347   0.934
71335ION    NA+36595  29.930  14.100   3.064
71336ION    NA+36596  28.679   0.311   0.258
71337ION    NA+36597   0.835  28.239  13.352
71338ION    NA+36598  32.517  39.328   2.150
71339ION    NA+36599   5.966   7.004   4.847
71340ION    NA+36600  21.623  28.341  13.805
71341ION    NA+36601   1.517  36.693  13.720
71342ION    NA+36602  24.361  25.725   4.610
71343ION    NA+36603   3.536   9.826   3.609
71344ION    NA+36604   8.352  14.107   1.285
71345ION    NA+36605  26.403   3.277  12.407
71346ION    NA+36606  42.863  10.794   1.822
71347ION    NA+36607  37.379  35.888   0.117
71348ION    NA+36608  30.135  35.520  11.892
71349ION    NA+36609  36.586  22.341   3.483
71350ION    NA+36610  29.869  22.491  12.075
71351ION    NA+36611   6.006  39.663  13.071
71352ION    NA+36612  37.745  32.437   4.570
71353ION    NA+36613  36.079  16.785   2.913
71354ION    NA+36614  43.937  38.766   2.176
71355ION    NA+36615  11.837  18.009   0.385
71356ION    NA+36616  43.765  21.642  11.033
71357ION    NA+36617   8.681   8.427  11.716
71358ION    NA+36618  22.098   3.015   3.172
71359ION    NA+36619  12.661  28.081   0.288
71360ION    NA+36620   2.693  17.732  10.933
71361ION    NA+36621  42.034  16.320  12.643
71362ION    NA+36622  33.662  11.635   2.730
71363ION    NA+36623  23.851  35.353   2.468
71364ION    NA+36624  21.672   5.684  13.044
71365ION    NA+36625  15.997  12.212   0.158
71366ION    NA+36626  19.846  10.452  11.686
71367ION    NA+36627  21.107   9.978  10.028
71368ION    NA+36628  12.542  23.160  12.384
71369ION    NA+36629  36.796   1.742   3.456
71370ION    NA+36630  40.507  42.356   0.569
71371ION    NA+36631   6.290  29.363  14.079
71372ION    NA+36632  20.807  16.229   0.985
71373ION    NA+36633  21.473  38.122  11.882
71374ION    NA+36634  39.286   1.763   3.566
71375ION    NA+36635  10.473  29.954   5.336
71376ION    NA+36636  18.973   0.606   1.480
71377ION    NA+36637  15.991  20.993   3.771
71378ION    NA+36638  14.169  42.925   0.206
71379ION    NA+36639  12.668   9.927   4.449
71380ION    NA+36640  24.971  16.954  11.056
71381ION    NA+36641  40.778   0.765  10.737
71382ION    NA+36642  28.224  44.315   1.731
71383ION    NA+36643  16.336  13.267   4.238
71384ION    NA+36644  19.819   1.966  13.523
71385ION    NA+36645   9.705  23.845  10.709
71386ION    NA+36646  10.571  18.638   2.907
71387ION    NA+36647  36.315  36.829   1.697
71388ION    NA+36648  40.373  22.254  10.335
71389ION    NA+36649  23.581   7.421  13.103
71390ION    NA+36650  44.474  34.609   2.765
71391ION    NA+36651   8.463  34.457  14.792
71392ION    NA+36652   7.879  25.292  12.930
71393ION    NA+36653  25.185  33.707  10.708
71394ION    NA+36654  43.162  20.546   1.362
71395ION    NA+36655  31.146  34.607   4.131
71396ION    NA+36656  28.423  36.231  13.133
71397ION    NA+36657  10.628  17.649  10.545
71398ION    NA+36658  30.668  10.185   1.285
71399ION    NA+36659  20.398   4.123  11.065
71400ION    NA+36660   9.512  20.974   0.077
71401ION    NA+36661   2.429  38.613   0.116
71402ION    NA+36662  29.299  11.771   2.772
71403ION    NA+36663  32.554   3.855   1.871
71404ION    NA+36664  12.325  30.135   3.406
71405ION    NA+36665  18.655  30.372  11.544
71406ION    NA+36666   1.289   5.269   0.042
71407ION    NA+36667  14.143   0.922  10.726
71408ION    NA+36668  10.701  34.803  14.620
71409ION    NA+36669  44.883  30.468   2.728
71410ION    NA+36670  21.088  26.986   3.101
71411ION    NA+36671   5.111  43.889   1.579
71412ION    NA+36672   6.499  26.972  14.961
71413ION    NA+36673   2.843  29.027  10.680
71414ION    NA+36674  11.198  30.296  13.833
71415ION    NA+36675   1.301  15.668   4.152
71416ION    NA+36676  31.883  29.021   2.338
71417ION    NA+36677  10.933  33.059   0.141
71418ION    NA+36678  38.485   8.568  14.282
71419ION    NA+36679  31.406   6.750  14.279
71420ION    NA+36680  36.729  19.974  14.582
71421ION    NA+36681  38.962  42.523  14.258
71422ION    NA+36682  11.898  39.263  13.501
71423ION    NA+36683  21.374  24.271  11.544
71424ION    NA+36684  11.269  41.369  14.275
71425ION    NA+36685  17.142  23.639  14.730
71426ION    NA+36686  29.909  28.025   4.410
71427ION    NA+36687   6.464  30.705  14.383
71428ION    NA+36688   1.069  36.685   3.490
71429ION    NA+36689  27.912   0.393  14.043
71430ION    NA+36690   8.906  38.201  11.286
71431ION    NA+36691  35.291  32.710   1.430
71432ION    NA+36692  28.560  24.213   1.848
71433ION    NA+36693  41.763  19.690   4.564
71434ION    NA+36694  19.370  25.190  10.278
71435ION    NA+36695   6.041  30.280   4.363
71436ION    NA+36696  11.762  14.096  13.873
71437ION    NA+36697  12.781  17.436   3.833
71438ION    NA+36698  24.263  30.645   1.884
71439ION    NA+36699   8.143  18.564   2.886
71440ION    NA+36700   9.914  42.126  14.532
71441ION    NA+36701  19.820   7.350   2.781
71442ION    NA+36702  33.435   3.716  14.454
71443ION    NA+36703  26.209  15.865   1.785
71444ION    NA+36704  42.087   5.371  10.694
71445ION    NA+36705  28.621  22.996  12.486
71446ION    NA+36706   1.239   4.824   4.422
71447ION    NA+36707   7.730  31.411   0.415
71448ION    NA+36708  37.968  15.394   3.572
71449ION    NA+36709  24.801  34.264  11.474
71450ION    NA+36710   2.039   5.511  13.395
71451ION    NA+36711  25.965   8.890  13.398
71452ION    NA+36712  29.246   6.390   4.006
71453ION    NA+36713  39.790   6.794   0.833
71454ION    NA+36714   4.401  16.827  11.958
71455ION    NA+36715   6.846  10.360   4.189
71456ION    NA+36716  14.855  43.936  14.870
71457ION    NA+36717  12.891  38.732  14.812
71458ION    NA+36718  11.210  36.501   0.550
71459ION    NA+36719  42.018   1.869  13.409
71460ION    NA+36720  19.131   3.831  12.136
71461ION    NA+36721  15.798  28.216  10.634
71462ION    NA+36722   0.265  23.855  11.101
71463ION    NA+36723  42.035  19.339   0.270
71464ION    NA+36724  14.317  26.669   4.579
71465ION    NA+36725   7.638  18.064   4.604
71466ION    NA+36726   0.982  13.291   5.023
71467ION    NA+36727   2.658   3.799   0.517
71468ION    NA+36728  22.027  39.001   3.894
71469ION    NA+36729  35.574  32.730   4.866
71470ION    NA+36730   1.708  21.635  11.834
71471ION    NA+36731  43.120   2.477   4.181
71472ION    NA+36732   4.162  25.769  14.483
71473ION    NA+36733  21.807  29.185  12.791
71474ION    NA+36734  40.208  42.966   3.454
71475ION    NA+36735  23.519   6.874  11.708
71476ION    NA+36736  33.372  20.146  10.212
71477ION    NA+36737  27.430   5.055   1.195
71478ION    NA+36738  25.556   5.107  13.304
71479ION    NA+36739  34.532  14.247   2.554
71480ION    NA+36740  16.974  29.829  14.319
71481ION    NA+36741  27.588  39.296   1.827
71482ION    NA+36742  22.368  32.837   2.126
71483ION    NA+36743  26.503   0.200   1.821
71484ION    NA+36744  34.475  21.691  11.583
71485ION    NA+36745  37.018  40.367  11.460
71486ION    NA+36746  39.786  27.319   0.408
71487ION    NA+36747  21.611   1.378   0.820
71488ION    NA+36748  34.321  43.427   0.506
71489ION    NA+36749  26.675   9.707   1.861
71490ION    NA+36750  29.921  19.291   4.614
71491ION    NA+36751  17.625   6.363  14.918
71492ION    NA+36752  20.028  19.564  10.161
71493ION    NA+36753   9.692  43.764   2.859
71494ION    NA+36754  43.956   2.240  12.669
71495ION    NA+36755  13.661   2.232   1.973
71496ION    NA+36756   2.218  19.303  12.052
71497ION    NA+36757  41.298  40.485   4.209
71498ION    NA+36758  19.618  37.973   3.611
71499ION    NA+36759   5.021  24.873  13.992
71500ION    NA+36760   0.960  42.781   3.244
71501ION    NA+36761  26.675  27.675   0.689
71502ION    NA+36762  19.342  14.264   3.835
71503ION    NA+36763   9.216  36.013   4.519
71504ION    NA+36764  41.532  29.689   1.872
71505ION    NA+36765  34.154  21.377   1.836
71506ION    NA+36766  41.909  22.695   4.431
71507ION    NA+36767  17.905  28.265   0.765
71508ION    NA+36768  23.120  42.986  14.433
71509ION    NA+36769  16.627  20.133  14.535
71510ION    NA+36770  43.053  27.383   3.717
71511ION    NA+36771   6.507  25.393   0.822
71512ION    NA+36772  13.482   8.121  12.172
71513ION    NA+36773   3.464  31.629  14.313
71514ION    NA+36774  15.759  37.259   1.130
71515ION    NA+36775   4.049   8.476  10.808
71516ION    NA+36776  14.014  26.581  10.259
71517ION    NA+36777  10.195  37.987  10.566
71518ION    NA+36778  41.948  12.520  12.094
71519ION    NA+36779  32.363  19.202  13.534
71520ION    NA+36780   3.095   3.446   2.635
71521ION    NA+36781  23.793  38.930   4.486
71522ION    NA+36782  27.449  15.500   4.766
71523ION    NA+36783  20.679  29.460  13.735
71524ION    NA+36784   8.618   2.389  14.974
71525ION    NA+36785  17.136   5.752   0.963
71526ION    NA+36786   1.613  39.361   4.176
71527ION    NA+36787  34.157   7.326  11.134
71528ION    NA+36788   6.639  24.368  11.054
71529ION    NA+36789  16.543  27.385   0.374
71530ION    NA+36790  11.088  25.493  12.503
71531ION    NA+36791  26.431  32.031   1.068
71532ION    NA+36792  38.960  22.452  12.050
71533ION    NA+36793  41.526  38.961  11.724
71534ION    NA+36794   7.259   9.009   1.614
71535ION    NA+36795  40.293   7.794  11.937
71536ION    NA+36796  44.966   5.226   2.335
71537ION    NA+36797  25.173  37.913  11.727
71538ION    NA+36798   7.283  40.034  14.024
71539ION    NA+36799   4.910  12.229   0.221
71540ION    NA+36800  16.959  16.323   0.076
71541ION    NA+36801  31.267  24.244  12.950
71542ION    NA+36802  18.826  15.536  11.833
71543ION    NA+36803  10.936  11.608  10.723
71544ION    NA+36804   1.353   4.077   1.298
71545ION    NA+36805  10.442  18.188   3.675
71546ION    NA+36806  28.175  39.746   0.788
71547ION    NA+36807  38.117  33.972   3.220
71548ION    NA+36808   3.268  15.733   3.269
71549ION    NA+36809  37.466  15.830  13.804
71550ION    NA+36810  29.870   5.062   4.176
71551ION    NA+36811  40.776  32.331  12.125
71552ION    NA+36812   6.468  12.877  11.563
71553ION    NA+36813  39.458  28.433   2.897
71554ION    NA+36814  15.276  27.344   3.630
71555ION    NA+36815  11.359   8.001  11.499
71556ION    NA+36816  30.902   8.653   2.184
71557ION    NA+36817  38.114  31.804  14.921
71558ION    NA+36818  15.851  36.996   2.162
71559ION    NA+36819  28.228   9.097   1.992
71560ION    NA+36820  21.098  42.311   4.215
71561ION    NA+36821  30.376  21.011   1.571
71562ION    NA+36822  40.726  24.933   2.826
71563ION    NA+36823  17.938  17.373   4.113
71564ION    NA+36824  39.408  15.836   4.603
71565ION    NA+36825   0.775   4.796  14.590
71566ION    NA+36826  34.685  43.321  14.315
71567ION    NA+36827  42.940  34.089   2.501
71568ION    NA+36828   9.978   3.460  13.726
71569ION    NA+36829  44.988  44.188   2.598
71570ION    NA+36830  13.895  22.788   3.890
71571ION    NA+36831   4.875  44.102   0.630
71572ION    NA+36832  13.376  18.889   4.514
71573ION    NA+36833   4.688  15.271  14.103
71574ION    NA+36834  41.036  37.215   1.712
71575ION    NA+36835  36.803  34.868   4.596
71576ION    NA+36836   1.693  39.161  11.785
71577ION    NA+36837   2.115  20.517   4.460
71578ION    NA+36838  14.821  44.827  13.040
71579ION    NA+36839   4.401  44.377   3.591
71580ION    NA+36840  18.429  24.761   1.576
71581ION    NA+36841  38.380  15.344  11.906
71582ION    NA+36842   1.240   1.923   0.411
71583ION    NA+36843  29.396  14.073   1.412
71584ION    NA+36844  35.700  24.780   1.930
71585ION    NA+36845   4.131  19.128   0.076
71586ION    NA+36846  29.899  11.580  14.098
71587ION    NA+36847  21.547   1.533  13.441
71588ION    NA+36848  28.190  40.526  11.947
71589ION    NA+36849   7.202   1.833   3.137
71590ION    NA+36850  14.501  11.974   4.691
71591ION    NA+36851  34.215  23.924  13.019
71592ION    NA+36852  34.398  38.293  14.465
71593ION    NA+36853   6.291   6.499   3.981
71594ION    NA+36854  16.031  20.397  12.257
71595ION    NA+36855  37.507  44.637  10.887
71596ION    NA+36856  32.440  29.728  11.983
71597ION    NA+36857  40.465  18.996   2.723
71598ION    NA+36858  31.660  37.362  14.849
71599ION    NA+36859  37.939  22.733  11.730
71600ION    NA+36860  28.814  17.622   1.393
71601ION    NA+36861  15.363  19.720  14.585
71602ION    NA+36862  44.385   1.892  14.284
71603ION    NA+36863  20.783  20.185  11.244
71604ION    NA+36864  38.140  42.634   0.293
71605ION    NA+36865  15.577  22.415   0.893
71606ION    NA+36866  24.652  30.238  14.524
71607ION    NA+36867   7.448  43.724   0.342
71608ION    NA+36868   8.795  31.115   0.212
71609ION    NA+36869  26.540  41.754  12.911
71610ION    NA+36870  15.964   8.536  10.525
71611ION    NA+36871  44.260  24.035  13.405
71612ION    NA+36872  33.209  34.472   0.940
71613ION    NA+36873  35.176  10.459  12.552
71614ION    NA+36874  12.956  27.928   5.073
71615ION    NA+36875  41.504  10.120   2.131
71616ION    NA+36876  22.235   9.360   2.340
71617ION    NA+36877  17.180  28.977  12.618
71618ION    NA+36878  28.387  34.777  11.261
71619ION    NA+36879  17.120  28.882   0.715
71620ION    NA+36880   6.801  14.083   0.351
71621ION    NA+36881  11.965   2.396   1.351
71622ION    NA+36882  14.464  17.652  12.904
71623ION    NA+36883  11.135   0.196   3.772
71624ION    NA+36884  11.730  10.665   0.002
71625ION    NA+36885  28.645  33.587  13.111
71626ION    NA+36886  22.141  41.162  11.083
71627ION    NA+36887  16.281  23.933   1.708
71628ION    NA+36888  10.299  27.348   1.406
71629ION    NA+36889   3.278  40.007  11.892
71630ION    NA+36890   6.724  14.888   2.888
71631ION    NA+36891  43.088  39.246   0.894
71632ION    NA+36892  34.380  44.250   1.737
71633ION    NA+36893  11.864   8.789  11.148
71634ION    NA+36894  13.517   9.842  14.074
71635ION    NA+36895   7.216   3.136   4.695
71636ION    NA+36896  39.590  10.090  11.672
71637ION    NA+36897  21.158  18.320  14.343
71638ION    NA+36898  44.591  19.984  12.370
71639ION    NA+36899  33.172  38.663   9.927
71640ION    NA+36900  39.714  19.674  10.963
71641ION    NA+36901  13.883  34.559  10.758
71642ION    NA+36902  34.365  19.584  10.873
71643ION    NA+36903   1.656  16.428   3.608
71644ION    NA+36904   7.634  37.989  11.706
71645ION    NA+36905  12.859   0.007  13.082
71646ION    NA+36906  34.264  13.669   4.873
71647ION    NA+36907  16.028  16.762  12.645
71648ION    NA+36908   7.613  23.464   2.464
71649ION    NA+36909  19.380  11.831   4.696
71650ION    NA+36910  27.825  38.128  12.252
71651ION    NA+36911   6.231  37.396   5.394
71652ION    NA+36912  35.536  11.737  12.159
71653ION    NA+36913   1.794  15.248  10.672
71654ION    NA+36914   3.475   7.240  14.324
71655ION    NA+36915  18.277   9.508   1.688
71656ION    NA+36916   2.914  44.184   3.218
71657ION    NA+36917   7.627  19.480  13.288
71658ION    NA+36918  27.429  31.703   3.296
71659ION    NA+36919  43.342  23.469  11.925
71660ION    NA+36920  41.531  33.978  11.493
71661ION    NA+36921  16.168   8.128  14.458
71662ION    NA+36922  11.887   3.669   3.311
71663ION    NA+36923   4.760  35.073   1.453
71664ION    NA+36924   4.166  40.853   2.321
71665ION    NA+36925  41.046   5.881   1.884
71666ION    NA+36926   8.379  37.301  11.696
71667ION    NA+36927   2.559  39.056   4.049
71668ION    NA+36928  10.958  11.666   5.551
71669ION    NA+36929  26.646  20.342  12.852
71670ION    NA+36930  30.441  28.939  11.346
71671ION    NA+36931  22.077  24.078   2.711
71672ION    NA+36932  43.468  36.639  13.953
71673ION    NA+36933  35.065  43.990   1.056
71674ION    NA+36934  23.888  20.790   4.060
71675ION    NA+36935  15.465  21.423  11.130
71676ION    NA+36936  44.892  12.769   0.246
71677ION    NA+36937   9.737  38.034  11.500
71678ION    NA+36938  37.995  20.378  11.660
71679ION    NA+36939   0.048  30.432   4.047
71680ION    NA+36940  37.287  30.353   4.504
71681ION    NA+36941  24.797  18.657  12.371
71682ION    NA+36942  19.999   7.805  11.569
71683ION    NA+36943   7.439  31.760   1.681
71684ION    NA+36944   7.759  13.186   2.267
71685ION    NA+36945   1.379   3.005   3.158
71686ION    NA+36946  35.914  22.943   2.364
71687ION    NA+36947  41.997  15.150   1.435
71688ION    NA+36948  22.308  28.145   3.273
71689ION    NA+36949  13.060  26.957  14.048
71690ION    NA+36950  15.493   6.291  14.272
71691ION    NA+36951  23.973   3.357   2.595
71692ION    NA+36952  25.914  42.970  13.924
71693ION    NA+36953  16.293  14.311   3.963
71694ION    NA+36954  31.516  38.502  10.627
71695ION    NA+36955  33.669  35.258   1.352
71696ION    NA+36956  36.723  28.687   1.637
71697ION    NA+36957  29.761  37.244  11.125
71698ION    NA+36958  32.382  41.142   3.305
71699ION    NA+36959  14.989   2.466   3.065
71700ION    NA+36960  16.140   6.402  12.923
71701ION    NA+36961  34.325   7.449   1.883
71702ION    NA+36962   6.210  23.814  13.530
71703ION    NA+36963  24.019  32.474  12.030
71704ION    NA+36964   7.062  41.675   1.131
71705ION    NA+36965  29.100   6.563  14.046
71706ION    NA+36966  17.062  12.784   0.453
71707ION    NA+36967   6.263  28.458  12.550
71708ION    NA+36968  30.478  25.225  13.411
71709ION    NA+36969  11.154  33.520  13.486
71710ION    NA+36970   6.969  34.405   5.179
71711ION    NA+36971  14.734  22.168   2.953
71712ION    NA+36972   6.962  22.250  13.393
71713ION    NA+36973  31.080  15.534  10.619
71714ION    NA+36974  21.125   2.086   1.332
71715ION    NA+36975  11.627  10.185  11.114
71716ION    NA+36976  28.738  19.526   3.856
71717ION    NA+36977  22.680  27.555  12.816
71718ION    NA+36978  11.930  39.811  14.684
71719ION    NA+36979  34.503  11.838  13.629
71720ION    NA+36980  32.171  17.047  13.110
71721ION    NA+36981  12.972  32.499  13.118
71722ION    NA+36982  41.342  41.430  10.567
71723ION    NA+36983   6.804  31.031   1.938
71724ION    NA+36984  16.040  38.385   1.829
71725ION    NA+36985   1.936  38.240   4.139
71726ION    NA+36986   8.509  10.821  11.944
71727ION    NA+36987  36.801   8.339  10.712
71728ION    NA+36988  30.572  15.864   0.940
71729ION    NA+36989  13.229  13.809   2.803
71730ION    NA+36990   9.215   1.433  12.543
71731ION    NA+36991  17.828  18.087   3.421
71732ION    NA+36992  42.842  26.404  12.445
71733ION    NA+36993  32.164  19.637   3.702
71734ION    NA+36994  27.916   4.385  12.328
71735ION    NA+36995   6.145  39.841  14.385
71736ION    NA+36996   1.463  31.680   1.883
71737ION    NA+36997  28.175  17.006   1.902
71738ION    NA+36998  23.509  37.227   3.797
71739ION    NA+36999  21.091  15.981   4.195
71740ION    NA+37000  26.344  33.926   0.263
71741ION    NA+37001   2.766  36.448   0.504
71742ION    NA+37002  42.993  20.143   2.035
71743ION    NA+37003  17.406  16.651   4.554
71744ION    NA+37004  26.725  23.110  10.803
71745ION    NA+37005  28.519  16.025   2.222
71746ION    NA+37006  26.825  14.401  10.691
71747ION    NA+37007  18.214  39.009  12.965
71748ION    NA+37008  44.803   9.621   2.069
71749ION    NA+37009   3.256  38.509  14.519
71750ION    NA+37010  20.010  21.942  13.197
71751ION    NA+37011  29.064  34.775   2.546
71752ION    NA+37012  14.079  16.554  14.221
71753ION    NA+37013   0.342  23.605  11.936
71754ION    NA+37014   6.295  10.089   2.037
71755ION    NA+37015  28.051  23.730   4.847
71756ION    NA+37016  35.562   0.307   4.080
71757ION    NA+37017  12.452   7.237  12.128
71758ION    NA+37018  36.083  10.224  12.902
71759ION    NA+37019  13.973  40.801  12.005
71760ION    NA+37020  17.411  41.416  12.587
71761ION    NA+37021  35.555  32.422  13.428
71762ION    NA+37022  23.812  39.327  11.548
71763ION    NA+37023   5.220  42.204  12.704
71764ION    NA+37024  20.487   4.765   4.141
71765ION    NA+37025  13.625  24.900  13.786
71766ION    NA+37026  40.121  32.901   0.296
71767ION    NA+37027  35.367  37.041   2.090
71768ION    NA+37028  35.427  19.992   0.400
71769ION    NA+37029  18.245  23.870   1.150
71770ION    NA+37030  15.567  15.664  10.716
71771ION    NA+37031  22.787  19.590   3.745
71772ION    NA+37032  27.837  36.726  10.811
71773ION    NA+37033  36.142  36.824  11.218
71774ION    NA+37034  14.471   4.105  12.581
71775ION    NA+37035  16.766  25.169   4.390
71776ION    NA+37036  44.606  42.898   4.163
71777ION    NA+37037   2.504  23.078  11.621
71778ION    NA+37038  34.643  25.592  13.927
71779ION    NA+37039  22.753  30.226  14.385
71780ION    NA+37040  10.212  30.710  14.099
71781ION    NA+37041   0.701  11.900  13.911
71782ION    NA+37042  10.890  42.839  10.693
71783ION    NA+37043  26.370   4.693  12.039
71784ION    NA+37044  35.680   4.797   2.860
71785ION    NA+37045  33.004  36.755   4.740
71786ION    NA+37046  42.771   7.884  13.813
71787ION    NA+37047  28.447  13.273   1.595
71788ION    NA+37048  33.068  20.089   0.469
71789ION    NA+37049  29.549  13.095   0.957
71790ION    NA+37050  11.811   6.243   2.316
71791ION    NA+37051  20.123  36.014  11.332
71792ION    NA+37052  32.200   9.784   9.908
71793ION    NA+37053   1.451   4.712  13.274
71794ION    NA+37054  17.650  14.358  12.057
71795ION    NA+37055  42.287  22.289  12.978
71796ION    NA+37056   4.665   9.131   4.082
71797ION    NA+37057  32.961  37.747   4.625
71798ION    NA+37058   3.967  10.802   4.871
71799ION    NA+37059  31.314  12.733  13.326
71800ION    NA+37060  13.897   0.888  13.033
71801ION    NA+37061  27.881   7.381  14.839
71802ION    NA+37062  32.412  24.789  11.570
71803ION    NA+37063  28.702  22.672  14.489
71804ION    NA+37064  11.586  29.220  12.099
71805ION    NA+37065  17.333  29.437   3.228
71806ION    NA+37066   9.394  26.651   0.939
71807ION    NA+37067  34.568  14.049   1.575
71808ION    NA+37068  24.369   2.312   1.799
71809ION    NA+37069  40.166   2.978   0.711
71810ION    NA+37070  42.780  37.363  13.916
71811ION    NA+37071  18.690  42.023  10.624
71812ION    NA+37072   7.480  12.239   0.546
71813ION    NA+37073   3.309  31.989   2.167
71814ION    NA+37074  38.539  33.626   1.297
71815ION    NA+37075   8.066  24.074   3.736
71816ION    NA+37076  11.870   7.940  10.620
71817ION    NA+37077  19.288  39.804   1.966
71818ION    NA+37078  12.089  37.087   3.212
71819ION    NA+37079   0.272  13.148  12.453
71820ION    NA+37080   9.127  32.732  14.843
71821ION    NA+37081  27.128  41.788   0.740
71822ION    NA+37082  25.207  22.897   2.033
71823ION    NA+37083  43.604   8.068  12.680
71824ION    NA+37084  28.764  43.060   2.345
71825ION    NA+37085  40.213  41.659   2.660
71826ION    NA+37086  18.679  16.073  10.963
71827ION    NA+37087  21.541  43.103   1.992
71828ION    NA+37088  16.078  22.162  12.476
71829ION    NA+37089  35.459  28.210  14.012
71830ION    NA+37090  44.831  28.710  11.590
71831ION    NA+37091   7.144  13.257   4.082
71832ION    NA+37092  43.963  26.502  10.445
71833ION    NA+37093   0.923  14.326   2.241
71834ION    NA+37094  22.202  12.340  13.975
71835ION    NA+37095  13.649  43.775  13.747
71836ION    NA+37096  21.908  36.932  10.682
71837ION    NA+37097  13.326  25.531   0.385
71838ION    NA+37098  11.726  40.182  10.715
71839ION    NA+37099  43.180  44.196   0.275
71840ION    NA+37100   9.391  14.764   0.873
71841ION    NA+37101  33.717  21.170   4.380
71842ION    NA+37102  18.543   4.371  11.174
71843ION    NA+37103  33.716  35.381   3.583
71844ION    NA+37104  32.927  20.423  10.981
71845ION    NA+37105  43.303  17.148   1.657
71846ION    NA+37106  36.537  25.684  13.950
71847ION    NA+37107  39.441   3.794  11.899
71848ION    NA+37108  24.707  44.547   4.474
71849ION    NA+37109  22.130   9.289   4.602
71850ION    NA+37110   1.988  16.361  12.749
71851ION    NA+37111  12.078  35.360   2.090
71852ION    NA+37112  23.768  27.092   2.235
71853ION    NA+37113  44.937  44.588  14.151
71854ION    NA+37114  32.299  39.024   3.714
71855ION    NA+37115  40.421   1.203  11.906
71856ION    NA+37116  28.503  12.357  13.714
71857ION    NA+37117  22.623  31.786   9.997
71858ION    NA+37118  40.617  35.311  11.800
71859ION    NA+37119  13.808  15.211   2.393
71860ION    NA+37120  32.071   3.360   4.667
71861ION    NA+37121   1.608  10.441  11.034
71862ION    NA+37122   3.028   7.484   4.691
71863ION    NA+37123  39.805   5.379  14.551
71864ION    NA+37124  38.180  41.107   1.933
71865ION    NA+37125  41.918  27.832  12.106
71866ION    NA+37126  39.725  25.487   1.764
71867ION    NA+37127  35.928  20.756   1.482
71868ION    NA+37128  20.156  16.362   4.665
71869ION    NA+37129  26.738  13.006  13.395
71870ION    NA+37130  40.822  30.145  14.330
71871ION    NA+37131  17.384  35.086   3.254
71872ION    NA+37132  19.336  13.849  14.498
71873ION    NA+37133   0.654   2.776  14.845
71874ION    NA+37134   3.385  27.126   1.916
71875ION    NA+37135  42.802  26.276   3.439
71876ION    NA+37136  38.073   0.635  12.306
71877ION    NA+37137  37.786   2.568   2.629
71878ION    NA+37138  19.799  16.796   1.326
71879ION    NA+37139   5.193  34.348  13.528
71880ION    NA+37140  43.517   3.931  14.751
71881ION    NA+37141  38.559  19.267  14.925
71882ION    NA+37142  42.150  32.765   1.274
71883ION    NA+37143  37.985  12.927   1.996
71884ION    NA+37144  13.987  25.970   3.611
71885ION    NA+37145  42.753  34.112   3.483
71886ION    NA+37146  39.476  26.200  12.605
71887ION    NA+37147  34.083  24.922  12.974
71888ION    NA+37148  37.425   2.393   4.089
71889ION    NA+37149   6.244  44.799  10.794
71890ION    NA+37150   4.972   0.048  13.492
71891ION    NA+37151  21.072  41.936  12.624
71892ION    NA+37152  30.586   8.066   2.799
71893ION    NA+37153  35.572  17.654   0.471
71894ION    NA+37154   1.724  39.450   2.764
71895ION    NA+37155  29.343   0.171   0.993
71896ION    NA+37156  19.798  30.627   1.130
71897ION    NA+37157  20.431  43.933   4.181
71898ION    NA+37158  32.207  33.809  12.963
71899ION    NA+37159  32.349  18.154  10.780
71900ION    NA+37160  27.773   9.970   2.172
71901ION    NA+37161  32.404   5.121  14.878
71902ION    NA+37162   4.043   3.969   2.633
71903ION    NA+37163  42.785   0.735   5.394
71904ION    NA+37164  27.644  35.558   2.386
71905ION    NA+37165  37.521   8.253   0.794
71906ION    NA+37166   5.692  42.307   3.251
71907ION    NA+37167  11.410  35.839  12.432
71908ION    NA+37168  22.422  33.637  11.051
71909ION    NA+37169  14.888   7.273  14.489
71910ION    NA+37170  20.705  10.050  14.888
71911ION    NA+37171  33.164   6.633  11.539
71912ION    NA+37172  34.227  37.473  12.622
71913ION    NA+37173  31.404  32.123   0.261
71914ION    NA+37174  11.755  35.591   4.432
71915ION    NA+37175   7.930  32.156   2.652
71916ION    NA+37176  16.747  42.287  14.317
71917ION    NA+37177  23.167  22.187  11.547
71918ION    NA+37178  16.594  32.280  13.114
71919ION    NA+37179  17.302  37.814   3.093
71920ION    NA+37180  26.177  15.675   3.786
71921ION    NA+37181  39.567  38.284  14.929
71922ION    NA+37182  12.833  42.063  11.376
71923ION    NA+37183  17.108  23.734  11.543
71924ION    NA+37184  14.934  21.183   3.085
71925ION    NA+37185  36.753   6.217  11.235
71926ION    NA+37186  15.026  19.013  12.339
71927ION    NA+37187  41.991  42.632   4.045
71928ION    NA+37188  41.490   7.339   4.006
71929ION    NA+37189  24.499  14.532   4.913
71930ION    NA+37190  20.278  19.351  11.025
71931ION    NA+37191  33.159  10.624   2.140
71932ION    NA+37192   5.205  43.734  12.531
71933ION    NA+37193  20.519  44.582   0.348
71934ION    NA+37194  29.297  38.478   1.467
71935ION    NA+37195   7.344  18.659   0.145
71936ION    NA+37196  42.394  43.074   0.709
71937ION    NA+37197  41.981  38.646  12.954
71938ION    NA+37198  14.836  40.401   2.683
71939ION    NA+37199  23.361  11.467  11.779
71940ION    NA+37200  11.471   1.487   5.031
71941ION    NA+37201  26.578  36.985  13.876
71942ION    NA+37202  23.027  30.094   1.029
71943ION    NA+37203  33.889  27.970   0.645
71944ION    NA+37204  42.514  23.695   0.090
71945ION    NA+37205  16.331  23.929  13.832
71946ION    NA+37206   4.811  30.534   5.055
71947ION    NA+37207   3.566  13.536   0.262
71948ION    NA+37208  16.409   4.269   2.934
71949ION    NA+37209  28.524   5.352   1.194
71950ION    NA+37210   5.332   8.756  14.410
71951ION    NA+37211   5.196   6.023  11.380
71952ION    NA+37212  22.530  23.937  14.599
71953ION    NA+37213  32.398  31.573  11.039
71954ION    NA+37214  27.518  44.012  13.508
71955ION    NA+37215   3.553   8.900  12.081
71956ION    NA+37216   1.958  12.258   1.679
71957ION    NA+37217  30.870   4.970   4.060
71958ION    NA+37218   5.744  43.808  13.960
71959ION    NA+37219  35.133  19.622   3.581
71960ION    NA+37220  39.588  32.841  12.132
71961ION    NA+37221   8.515  40.741   3.922
71962ION    NA+37222  28.486   8.353  11.270
71963ION    NA+37223  13.268  24.033   1.898
71964ION    NA+37224   4.109  35.954   4.173
71965ION    NA+37225  18.505   7.439   1.504
71966ION    NA+37226   6.727   1.718  14.428
71967ION    NA+37227  36.275  41.417   2.610
71968ION    NA+37228  13.570   7.721  14.930
71969ION    NA+37229  28.455  39.929   4.475
71970ION    NA+37230   0.291  27.580  11.840
71971ION    NA+37231  36.239   6.268  12.770
71972ION    NA+37232  29.566  40.674  11.794
71973ION    NA+37233  14.589   5.891   2.798
71974ION    NA+37234  44.017  40.376   0.281
71975ION    NA+37235   9.439  15.822  12.533
71976ION    NA+37236  41.528  15.673   3.369
71977ION    NA+37237  42.380  42.724  11.011
71978ION    NA+37238  44.058  27.960  13.947
71979ION    NA+37239  32.070  42.380   4.741
71980ION    NA+37240  30.849  28.152   9.724
71981ION    NA+37241  30.439   1.477   2.563
71982ION    NA+37242  42.864  44.402   1.266
71983ION    NA+37243   9.498   8.317   0.159
71984ION    NA+37244  14.070  19.890  14.718
71985ION    NA+37245  17.487  24.565  11.135
71986ION    NA+37246  19.406  27.025   0.847
71987ION    NA+37247   0.412  31.062  13.479
71988ION    NA+37248  42.872  15.411  13.766
71989ION    NA+37249  40.601  17.129   4.332
71990ION    NA+37250   1.523  30.409   5.128
71991ION    NA+37251   8.235  27.741  11.978
71992ION    NA+37252   9.059   0.447  12.596
71993ION    NA+37253  34.522  19.137   1.913
71994ION    NA+37254   3.048   1.951   3.682
71995ION    NA+37255  29.507  42.587  14.249
71996ION    NA+37256  18.513  36.017   5.251
71997ION    NA+37257  17.059   4.396   2.188
71998ION    NA+37258  22.112  35.139   1.714
71999ION    NA+37259   5.198  18.098   1.235
72000ION    NA+37260  42.482  13.838  13.290
72001ION    NA+37261  23.003  35.112   3.583
72002ION    NA+37262  22.864  40.248  12.766
72003ION    NA+37263  15.839  20.244   2.440
72004ION    NA+37264  42.287  27.878   2.948
72005ION    NA+37265  11.836  21.107  11.810
72006ION    NA+37266   7.892  11.675   3.160
72007ION    NA+37267  28.847  20.064  12.531
72008ION    NA+37268   2.695  15.502  13.603
72009ION    NA+37269  36.762  31.010   2.798
72010ION    NA+37270  41.313  29.450   5.393
72011ION    NA+37271  39.250  32.368   1.137
72012ION    NA+37272   2.744  16.092   1.378
72013ION    NA+37273  22.280  19.524  11.696
72014ION    NA+37274   0.354  17.584  14.559
72015ION    NA+37275  33.561  39.847  11.245
72016ION    NA+37276   4.913  14.009   4.332
72017ION    NA+37277  32.215  21.967  14.527
72018ION    NA+37278   2.249  20.744  11.971
72019ION    NA+37279  31.510   8.898   3.088
72020ION    NA+37280   7.657  32.554  10.840
72021ION    NA+37281  23.468  15.063  14.547
72022ION    NA+37282   9.235   8.408   3.860
72023ION    NA+37283  38.384  18.298  13.022
72024ION    NA+37284  15.845  26.929  10.883
72025ION    NA+37285  16.457   1.487   0.010
72026ION    NA+37286  26.040  10.333   4.317
72027ION    NA+37287   3.382  12.630  13.852
72028ION    NA+37288  18.745   5.418   2.883
72029ION    NA+37289  25.833  36.986  12.287
72030ION    NA+37290  22.956  22.481   5.071
72031ION    NA+37291  34.887  27.650  13.819
72032ION    NA+37292  42.908   6.693   4.241
72033ION    NA+37293  28.161  18.980   4.464
72034ION    NA+37294  25.042  22.076   1.434
72035ION    NA+37295  39.339  20.811   0.988
72036ION    NA+37296  41.280  12.273  10.007
72037ION    NA+37297  26.486  27.764   1.667
72038ION    NA+37298  32.053  32.150   5.062
72039ION    NA+37299  44.007  28.954  13.850
72040ION    NA+37300   2.483  40.866   1.818
72041ION    NA+37301  15.085  29.033  12.428
72042ION    NA+37302   6.283   9.688   0.399
72043ION    NA+37303  44.704  43.123  11.471
72044ION    NA+37304   9.133  23.005  10.660
72045ION    NA+37305  37.466  19.176  12.125
72046ION    NA+37306  18.995  25.121  13.417
72047ION    NA+37307  29.410  25.097   1.778
72048ION    NA+37308  23.532  44.055   0.101
72049ION    NA+37309  12.259  22.419  12.453
72050ION    NA+37310  22.800   7.783   1.011
72051ION    NA+37311  17.113  43.828  11.798
72052ION    NA+37312  40.845  19.044  11.181
72053ION    NA+37313   1.514  43.038  11.914
72054ION    NA+37314   4.485  16.461   0.912
72055ION    NA+37315  41.167  16.183  12.428
72056ION    NA+37316  38.935   4.244  11.300
72057ION    NA+37317   5.452   3.467   4.493
72058ION    NA+37318  43.092  30.042  13.793
72059ION    NA+37319  20.928   7.996  14.427
72060ION    NA+37320   6.398  25.960   3.126
72061ION    NA+37321  14.074  39.186   0.571
72062ION    NA+37322   0.120  18.875   4.344
72063ION    NA+37323  21.159  20.144   5.078
72064ION    NA+37324  39.037  14.798   1.737
72065ION    NA+37325  43.021  40.943   2.718
72066ION    NA+37326  12.530  38.952   2.141
72067ION    NA+37327   5.926   7.334  12.613
72068ION    NA+37328  12.979  25.434   2.403
72069ION    NA+37329   0.577  10.302   4.137
72070ION    NA+37330  18.290  38.142  12.800
72071ION    NA+37331   7.981  41.622  11.932
72072ION    NA+37332   7.845  32.397   3.619
72073ION    NA+37333   7.966   3.329   1.285
72074ION    NA+37334   0.622  27.775  14.838
72075ION    NA+37335  23.139   5.682  10.677
72076ION    NA+37336  14.307  37.604   4.272
72077ION    NA+37337   0.561  23.031   1.436
72078ION    NA+37338  38.662   0.152  10.750
72079ION    NA+37339  44.064  24.263  12.002
72080ION    NA+37340   3.343  34.645   2.326
72081ION    NA+37341  28.192  10.690   2.779
72082ION    NA+37342  25.208   2.275   1.255
72083ION    NA+37343  19.973  20.445  14.764
72084ION    NA+37344  35.575  41.371   4.942
72085ION    NA+37345   7.451   6.835  10.571
72086ION    NA+37346  32.964  17.644  12.501
72087ION    NA+37347   9.311  23.094  11.640
72088ION    NA+37348  16.343   1.935   4.912
72089ION    NA+37349   2.782   7.633  12.835
72090ION    NA+37350  10.788  10.806  11.724
72091ION    NA+37351  26.255  11.933  12.089
72092ION    NA+37352  18.782   5.855  11.220
72093ION    NA+37353  12.717  36.588   2.614
72094ION    NA+37354  35.516  24.569   3.366
72095ION    NA+37355  19.006   7.149   3.326
72096ION    NA+37356  38.308  34.925  14.947
72097ION    NA+37357  29.094   8.483   4.043
72098ION    NA+37358  25.466  16.408   2.177
72099ION    NA+37359  27.201  10.655   3.898
72100ION    NA+37360  23.560   7.564   0.051
72101ION    NA+37361  13.303   1.636   3.578
72102ION    NA+37362  10.169   4.491   0.125
72103ION    NA+37363  39.288  17.239  11.527
72104ION    NA+37364  39.752  21.164   4.389
72105ION    NA+37365  43.850   9.632  13.628
72106ION    NA+37366   9.622  28.024  14.414
72107ION    NA+37367  40.559  23.625   1.872
72108ION    NA+37368  33.450  43.635   1.489
72109ION    NA+37369  16.095   1.143   3.749
72110ION    NA+37370  37.811  25.431  14.608
72111ION    NA+37371   4.498  15.710   1.897
72112ION    NA+37372   3.811  13.093   4.544
72113ION    NA+37373  19.604  31.243  12.645
72114ION    NA+37374  44.542  18.321   9.919
72115ION    NA+37375  32.434  43.017   0.060
72116ION    NA+37376  12.809  33.689  11.564
72117ION    NA+37377  12.611   8.920   3.248
72118ION    NA+37378  27.500  22.609   0.925
72119ION    NA+37379  35.630  27.889   1.918
72120ION    NA+37380  29.050  25.344   5.213
72121ION    NA+37381  32.192   1.705  13.329
72122ION    NA+37382  17.625  39.437   3.634
72123ION    NA+37383  17.127  43.253   0.187
72124ION    NA+37384  25.333   5.728   0.507
72125ION    NA+37385   2.484  11.904  11.406
72126ION    NA+37386   7.216  10.427   0.412
72127ION    NA+37387  13.852   4.705  12.825
72128ION    NA+37388  17.649   8.628   3.068
72129ION    NA+37389  33.962  31.554  11.936
72130ION    NA+37390  34.272  28.972  11.948
72131ION    NA+37391   6.718  41.261   0.289
72132ION    NA+37392  34.970  11.127   3.558
72133ION    NA+37393  43.573  16.099  10.613
72134ION    NA+37394  33.169  14.531   4.287
72135ION    NA+37395  15.639  20.185   5.821
72136ION    NA+37396  34.903  39.633  10.828
72137ION    NA+37397  15.813  36.033   1.836
72138ION    NA+37398  21.783  39.324   4.808
72139ION    NA+37399  22.475   1.191  11.562
72140ION    NA+37400   3.492  31.315   5.275
72141ION    NA+37401   2.720  39.161   1.617
72142ION    NA+37402   2.389  39.458   0.650
72143ION    NA+37403  13.026  35.684   2.320
72144ION    NA+37404  17.512  27.220   2.718
72145ION    NA+37405  16.430  18.446  13.309
72146ION    NA+37406  32.913  39.190  10.860
72147ION    NA+37407  19.330  36.060  14.505
72148ION    NA+37408   3.393   6.449  11.054
72149ION    NA+37409  10.244   3.200   1.378
72150ION    NA+37410  35.071  16.690  14.418
72151ION    NA+37411  18.636  23.186  12.862
72152ION    NA+37412  44.306  14.209   2.897
72153ION    NA+37413   7.869  15.706  10.310
72154ION    NA+37414  15.092  36.715   2.749
72155ION    NA+37415   2.793  13.739   0.862
72156ION    NA+37416  15.813  34.034   5.252
72157ION    NA+37417   9.144  21.886   0.295
72158ION    NA+37418   8.250  11.169  12.733
72159ION    NA+37419  12.481  31.260   0.312
72160ION    NA+37420  36.565  26.559  11.570
72161ION    NA+37421   1.749   8.217  14.470
72162ION    NA+37422  12.303  18.588  10.744
72163ION    NA+37423  29.627  42.912   5.082
72164ION    NA+37424  34.550  27.188   2.215
72165ION    NA+37425  25.841  37.818  10.989
72166ION    NA+37426  40.020  15.518  14.774
72167ION    NA+37427   9.693   6.607  12.603
72168ION    NA+37428  40.247   9.442   3.693
72169ION    NA+37429  11.385   4.283  11.967
72170ION    NA+37430  15.894  11.529  14.575
72171ION    NA+37431  29.018  31.296   4.398
72172ION    NA+37432   3.628  39.197   1.642
72173ION    NA+37433   7.053  11.643   1.532
72174ION    NA+37434  19.551  36.286   2.395
72175ION    NA+37435  34.131  37.863   3.040
72176ION    NA+37436  21.157   3.596  13.641
72177ION    NA+37437  12.009  25.118  12.615
72178ION    NA+37438  26.454  20.692   3.902
72179ION    NA+37439  42.726   0.025  13.141
72180ION    NA+37440  18.450   7.433  11.093
72181ION    NA+37441   4.854  30.672   2.818
72182ION    NA+37442  44.074   7.862  10.937
72183ION    NA+37443  29.083  18.613   1.747
72184ION    NA+37444  17.626  40.460  14.291
72185ION    NA+37445  38.992  16.458  12.077
72186ION    NA+37446  20.781   6.460   1.303
72187ION    NA+37447  22.980  10.763   3.096
72188ION    NA+37448  11.306  39.455  12.390
72189ION    NA+37449  32.059  21.033  12.788
72190ION    NA+37450  24.084  18.316  14.923
72191ION    NA+37451  19.793   7.836   0.212
72192ION    NA+37452  10.441  11.719   0.620
72193ION    NA+37453  32.079  20.516   1.846
72194ION    NA+37454  35.613   4.696   4.212
72195ION    NA+37455  34.512   6.854  14.423
72196ION    NA+37456  14.629  20.523   0.469
72197ION    NA+37457  31.002  30.465  13.260
72198ION    NA+37458   3.833  21.770  13.533
72199ION    NA+37459  22.207   6.896   2.316
72200ION    NA+37460  27.660  15.345   1.269
72201ION    NA+37461   2.234   1.503   2.603
72202ION    NA+37462  29.414  39.113  13.311
72203ION    NA+37463  27.103  13.795  13.406
72204ION    NA+37464   7.803   9.021  13.153
72205ION    NA+37465  24.580  30.560  13.571
72206ION    NA+37466  44.645  32.135   0.310
72207ION    NA+37467  34.880   4.797   2.259
72208ION    NA+37468  12.328  29.606   1.431
72209ION    NA+37469   1.693  41.833  14.805
72210ION    NA+37470  34.686  17.642   3.475
72211ION    NA+37471  19.596   7.570  12.454
72212ION    NA+37472   6.195   6.844  11.213
72213ION    NA+37473  12.585  41.532   0.093
72214ION    NA+37474   4.724   4.998  12.011
72215ION    NA+37475  36.347   5.382  12.969
72216ION    NA+37476  22.830  10.903  11.550
72217ION    NA+37477  14.716  42.381   3.570
72218ION    NA+37478  10.003  44.574  13.622
72219ION    NA+37479   6.024  10.355   2.842
72220ION    NA+37480  28.721   9.913  11.888
72221ION    NA+37481   7.346   7.663  14.426
72222ION    NA+37482  21.842  16.871  13.693
72223ION    NA+37483  39.134  42.017   2.694
72224ION    NA+37484  26.077  22.982   1.418
72225ION    NA+37485  44.765  31.556  14.447
72226ION    NA+37486   6.653  12.409  13.856
72227ION    NA+37487   8.096  23.304   1.214
72228ION    NA+37488  36.283   7.148   3.545
72229ION    NA+37489   7.294  27.494   2.840
72230ION    NA+37490  26.620   8.328  12.893
72231ION    NA+37491   9.321   1.177  11.582
72232ION    NA+37492  36.608  25.916   3.147
72233ION    NA+37493  27.131  36.429  11.546
72234ION    NA+37494  13.269  20.977   0.911
72235ION    NA+37495  21.961  21.159   5.620
72236ION    NA+37496  44.020  21.704  12.868
72237ION    NA+37497   5.690  18.087  13.081
72238ION    NA+37498   3.672   8.791  14.318
72239ION    NA+37499   9.868  44.465  11.420
72240ION    NA+37500  33.082  34.369   4.426
72241ION    NA+37501  12.736   7.843  13.962
72242ION    NA+37502  40.804  12.337   4.093
72243ION    NA+37503  36.818  17.354  12.223
72244ION    NA+37504  44.243  12.398   1.313
72245ION    NA+37505   2.988  32.832   0.438
72246ION    NA+37506  36.826  22.769   0.549
72247ION    NA+37507  25.034  30.012   1.950
72248ION    NA+37508   8.580  33.113   9.845
72249ION    NA+37509  42.418   6.821  12.494
72250ION    NA+37510  28.671  41.071  13.431
72251ION    NA+37511  10.739  19.156  10.921
72252ION    NA+37512  14.824  21.385  10.484
72253ION    NA+37513  22.833  34.147   1.665
72254ION    NA+37514   6.383  34.910   3.706
72255ION    NA+37515   2.271  11.798   4.101
72256ION    NA+37516  41.341   6.418   3.542
72257ION    NA+37517  29.559  36.471  12.569
72258ION    NA+37518   7.457  40.933   1.223
72259ION    NA+37519   2.841  11.144  14.448
72260ION    NA+37520  11.634  32.386  14.073
72261ION    NA+37521  42.532  11.378  12.589
72262ION    NA+37522  43.464   9.898   0.118
72263ION    NA+37523   7.605  18.130   2.421
72264ION    NA+37524  21.862  31.119   4.590
72265ION    NA+37525  35.870  26.909   1.678
72266ION    CL-37526  20.445  42.722  11.722
72267ION    CL-37527  17.650   8.799  14.322
72268ION    CL-37528   4.264  14.231   0.625
72269ION    CL-37529  42.842  43.960  11.226
72270ION    CL-37530  34.952  17.868  11.060
72271ION    CL-37531  14.678   3.299  14.563
72272ION    CL-37532  13.097  37.693   5.041
72273ION    CL-37533  39.214  40.247  13.748
72274ION    CL-37534  22.443  30.377   2.192
72275ION    CL-37535  15.921  35.013  14.354
72276ION    CL-37536  23.358  36.810   3.860
72277ION    CL-37537  12.321  29.996   2.981
72278ION    CL-37538  17.851  18.957   9.862
72279ION    CL-37539  28.212  22.832  12.562
72280ION    CL-37540  18.839   4.302   3.510
72281ION    CL-37541  43.535  33.085   3.369
72282ION    CL-37542  39.406  13.490  11.357
72283ION    CL-37543  11.568   1.401   3.935
72284ION    CL-37544   3.194   0.020   0.525
72285ION    CL-37545   9.140  12.151  11.126
72286ION    CL-37546   7.801  13.065  13.417
72287ION    CL-37547  30.322  33.487  14.572
72288ION    CL-37548   7.785   4.943  11.587
72289ION    CL-37549   4.410  10.814   0.452
72290ION    CL-37550  25.603   0.020   3.127
72291ION    CL-37551   9.050  20.769   4.278
72292ION    CL-37552  18.895  14.268   3.829
72293ION    CL-37553   1.953  29.433  14.940
72294ION    CL-37554  16.608  36.732  12.096
72295ION    CL-37555  28.805  20.479   3.112
72296ION    CL-37556  39.333  30.260   3.578
72297ION    CL-37557  14.093  28.094  12.546
72298ION    CL-37558  11.939  29.529  13.760
72299ION    CL-37559   2.216  12.374   2.030
72300ION    CL-37560  27.118  38.051   3.163
72301ION    CL-37561  39.214   4.051  11.603
72302ION    CL-37562  25.472  20.069  14.366
72303ION    CL-37563   1.655   8.367   4.551
72304ION    CL-37564  40.633  41.539   2.767
72305ION    CL-37565  32.625  41.335  12.358
72306ION    CL-37566  32.675  21.816  11.128
72307ION    CL-37567  15.056  34.045   2.780
72308ION    CL-37568  44.942  43.738   2.589
72309ION    CL-37569  26.755  24.440   2.976
72310ION    CL-37570  18.207  15.838   0.134
72311ION    CL-37571   5.802   7.744   1.341
72312ION    CL-37572  28.073   6.215  12.547
72313ION    CL-37573  29.221  38.542  11.264
72314ION    CL-37574  16.327  39.412  10.703
72315ION    CL-37575  26.453  10.735   2.474
72316ION    CL-37576  23.651  15.112  11.853
72317ION    CL-37577  36.973  18.792  10.717
72318ION    CL-37578  29.495   1.626  11.249
72319ION    CL-37579  41.413  16.533  13.787
72320ION    CL-37580  35.732  14.937   3.886
72321ION    CL-37581  37.081  37.664  13.488
72322ION    CL-37582   5.042   0.412  13.190
72323ION    CL-37583  42.201  32.313   1.252
72324ION    CL-37584   9.366  32.148   2.530
72325ION    CL-37585  15.009  18.107  11.179
72326ION    CL-37586   6.917  30.677  14.414
72327ION    CL-37587  37.993  43.944  12.566
72328ION    CL-37588  39.276  25.044   0.318
72329ION    CL-37589  34.528  28.657   4.136
72330ION    CL-37590   7.696  30.710  12.660
72331ION    CL-37591  36.890  20.727   4.956
72332ION    CL-37592  35.327  38.550   2.810
72333ION    CL-37593   2.743  12.970  12.580
72334ION    CL-37594  38.035  11.801  13.391
72335ION    CL-37595   3.379   0.248   1.481
72336ION    CL-37596   1.691   9.998  10.963
72337ION    CL-37597  28.188  38.501  13.368
72338ION    CL-37598  38.047  41.185   1.510
72339ION    CL-37599  10.817   0.503   3.846
72340ION    CL-37600  16.892  17.265  14.489
72341ION    CL-37601  17.556  10.499   2.866
72342ION    CL-37602  37.036   2.405  13.999
72343ION    CL-37603  38.304  12.140  14.831
72344ION    CL-37604  12.160   0.759   3.725
72345ION    CL-37605  25.394  27.005  13.384
72346ION    CL-37606   9.143   1.819  13.905
72347ION    CL-37607  20.352   3.081   2.639
72348ION    CL-37608  23.921   5.083   1.011
72349ION    CL-37609   5.408   3.862  14.592
72350ION    CL-37610  17.389  22.700  14.159
72351ION    CL-37611   1.775   2.626  12.565
72352ION    CL-37612   7.676  23.775   4.732
72353ION    CL-37613  20.386   4.049  14.858
72354ION    CL-37614  27.643  36.998   0.330
72355ION    CL-37615  12.670  32.130   1.365
72356ION    CL-37616  42.356   6.487  11.207
72357ION    CL-37617  33.142   7.122  13.485
72358ION    CL-37618   1.893  35.376   1.995
72359ION    CL-37619  36.069   7.977  14.424
72360ION    CL-37620  44.994  44.651  14.591
72361ION    CL-37621  27.560   2.813   2.287
72362ION    CL-37622  23.884  38.877  13.619
72363ION    CL-37623  36.105   4.705   2.753
72364ION    CL-37624  25.789  36.907  11.850
72365ION    CL-37625  14.315  23.577   1.128
72366ION    CL-37626  31.272  22.933  12.801
72367ION    CL-37627  24.183  16.277  12.342
72368ION    CL-37628  24.059   5.976  13.777
72369ION    CL-37629  32.155   3.873   1.639
72370ION    CL-37630  39.088  24.580  11.282
72371ION    CL-37631  13.966  38.496   4.710
72372ION    CL-37632  34.551  15.570  13.163
72373ION    CL-37633  40.723  35.607   0.813
72374ION    CL-37634  26.642  40.129  13.557
72375ION    CL-37635  38.839  14.082  14.222
72376ION    CL-37636  33.608  19.478  14.075
72377ION    CL-37637  26.206  42.412   3.182
72378ION    CL-37638   1.516   4.997   4.106
72379ION    CL-37639  43.434   8.348   1.895
72380ION    CL-37640  42.841  41.755  14.116
72381ION    CL-37641  40.830  22.064  12.897
72382ION    CL-37642  13.396  32.084   5.025
72383ION    CL-37643  13.766  34.938  13.794
72384ION    CL-37644  40.439   7.972   3.644
72385ION    CL-37645   6.905  10.843  11.547
72386ION    CL-37646   2.353  32.649  11.482
72387ION    CL-37647  33.306   7.736  14.912
72388ION    CL-37648   1.509   6.865   0.521
72389ION    CL-37649  19.979  30.455  11.462
72390ION    CL-37650  36.300  37.394   5.196
72391ION    CL-37651  15.586  17.699   4.707
72392ION    CL-37652  35.882   3.675  12.852
72393ION    CL-37653  28.239  42.563   0.922
72394ION    CL-37654  18.644  14.403   0.338
72395ION    CL-37655  32.589  30.907   1.168
72396ION    CL-37656  40.934  11.582  11.053
72397ION    CL-37657   3.685  24.435  12.088
72398ION    CL-37658  13.065  21.224   3.125
72399ION    CL-37659  24.232   1.045   0.756
72400ION    CL-37660  11.765   4.907   1.887
72401ION    CL-37661   4.947  24.456   1.767
72402ION    CL-37662  27.936  28.203   2.538
72403ION    CL-37663  10.186   3.223  11.856
72404ION    CL-37664  10.063  26.566  13.572
72405ION    CL-37665  26.291  16.011   3.513
72406ION    CL-37666  25.685  25.042   2.840
72407ION    CL-37667  30.172  13.364   5.008
72408ION    CL-37668  29.541  44.815   0.792
72409ION    CL-37669  19.478  31.989  10.755
72410ION    CL-37670   7.394  37.531  12.682
72411ION    CL-37671  34.028   0.287  10.851
72412ION    CL-37672  27.456  12.056  14.328
72413ION    CL-37673   9.299  38.160  11.512
72414ION    CL-37674  34.381   4.299   4.101
72415ION    CL-37675   4.166  16.245   0.680
72416ION    CL-37676  30.001  19.288  14.925
72417ION    CL-37677  16.523   6.607  12.792
72418ION    CL-37678  22.620  40.600   1.761
72419ION    CL-37679  37.795   0.767   0.690
72420ION    CL-37680  40.893  22.478   3.366
72421ION    CL-37681  44.702   8.555   4.975
72422ION    CL-37682   2.191  35.893   3.064
72423ION    CL-37683  40.260   8.370   0.949
72424ION    CL-37684  33.214   0.836   4.885
72425ION    CL-37685  23.002  31.530  14.968
72426ION    CL-37686  39.552   2.830   4.617
72427ION    CL-37687  10.978   4.508   2.358
72428ION    CL-37688   0.342  18.838   1.815
72429ION    CL-37689  22.888  38.771  13.883
72430ION    CL-37690   2.808   2.033   4.046
72431ION    CL-37691   4.833  33.003  11.557
72432ION    CL-37692  25.577  16.845  12.054
72433ION    CL-37693  15.289   5.078   0.552
72434ION    CL-37694  35.337  13.358  13.924
72435ION    CL-37695  30.195  22.426  11.741
72436ION    CL-37696  29.586  16.994   2.168
72437ION    CL-37697  24.917  28.827   2.826
72438ION    CL-37698  10.118  18.751   9.844
72439ION    CL-37699  30.966  10.287  14.740
72440ION    CL-37700   1.213  13.210   1.514
72441ION    CL-37701  28.231  36.771  11.100
72442ION    CL-37702  41.092   1.076   2.406
72443ION    CL-37703  14.768  30.697   0.473
72444ION    CL-37704  25.151  32.449   0.215
72445ION    CL-37705  42.770  26.197   2.999
72446ION    CL-37706   6.043  25.681   3.134
72447ION    CL-37707  17.943  27.066   2.707
72448ION    CL-37708   6.761  42.143   4.515
72449ION    CL-37709  23.340  15.240   4.631
72450ION    CL-37710  33.542  37.374  13.398
72451ION    CL-37711  34.401  17.477  11.797
72452ION    CL-37712   1.790  39.199  12.218
72453ION    CL-37713  31.254  28.757   3.440
72454ION    CL-37714  40.290  21.873   1.904
72455ION    CL-37715   8.950  31.104  12.021
72456ION    CL-37716  26.553  24.248  11.016
72457ION    CL-37717  36.974   0.581   0.150
72458ION    CL-37718  19.125  35.579  13.023
72459ION    CL-37719  22.011  36.814  12.743
72460ION    CL-37720   2.349  23.122  14.904
72461ION    CL-37721   0.045  42.979   4.113
72462ION    CL-37722  13.596  22.846   0.717
72463ION    CL-37723  43.273  34.002  11.911
72464ION    CL-37724  36.399  33.849   0.733
72465ION    CL-37725  33.225  29.898  14.538
72466ION    CL-37726   8.584  19.722  11.513
72467ION    CL-37727  22.158  39.463  11.261
72468ION    CL-37728   2.163  26.654   1.201
72469ION    CL-37729  29.606   7.917   0.506
72470ION    CL-37730   9.706  37.468   4.052
72471ION    CL-37731  42.369   1.541   0.964
72472ION    CL-37732  38.885   5.622   0.845
72473ION    CL-37733  38.043  23.091   3.633
72474ION    CL-37734  11.734  21.966   3.336
72475ION    CL-37735   1.901  19.415   2.164
72476ION    CL-37736  34.997   9.850   1.278
72477ION    CL-37737  44.920   5.950   4.614
72478ION    CL-37738  31.081  13.180  11.512
72479ION    CL-37739  11.096  43.109  10.985
72480ION    CL-37740  26.523   4.329   0.352
72481ION    CL-37741  18.707  10.843   1.754
72482ION    CL-37742   2.655  22.462   1.936
72483ION    CL-37743  21.609  38.238  12.296
72484ION    CL-37744  24.543  25.529  12.108
72485ION    CL-37745  33.410  16.541   2.317
72486ION    CL-37746  10.221   4.048   0.077
72487ION    CL-37747   9.731  41.954   4.330
72488ION    CL-37748  17.163  23.256  14.959
72489ION    CL-37749  28.884  24.780   4.969
72490ION    CL-37750  23.522   0.390   1.015
72491ION    CL-37751  40.424   8.253  13.933
72492ION    CL-37752   8.395  29.473  12.964
72493ION    CL-37753  42.479   9.786   2.401
72494ION    CL-37754   0.024  44.638   2.637
72495ION    CL-37755  10.597  12.009   0.932
72496ION    CL-37756  19.539  13.500  14.270
72497ION    CL-37757  25.842  24.199  13.226
72498ION    CL-37758   5.932  30.290   4.815
72499ION    CL-37759  17.703  38.949   1.842
72500ION    CL-37760  41.326   8.376  11.080
72501ION    CL-37761  35.341  27.785  13.841
72502ION    CL-37762  35.356  38.788  14.625
72503ION    CL-37763  28.582  28.215   3.302
72504ION    CL-37764  11.425   9.797  11.205
72505ION    CL-37765  32.387  31.439  13.194
72506ION    CL-37766  28.435   2.885   0.728
72507ION    CL-37767  43.799  14.137  14.549
72508ION    CL-37768  37.852  15.195  12.956
72509ION    CL-37769   5.677  28.818  14.651
72510ION    CL-37770   7.544  43.371   0.593
72511ION    CL-37771  21.232  43.452  13.094
72512ION    CL-37772   8.261  37.303   1.769
72513ION    CL-37773  24.478  31.002   1.720
72514ION    CL-37774  24.107  12.627   2.886
72515ION    CL-37775  31.507  30.720  14.813
72516ION    CL-37776  10.163  11.474   0.340
72517ION    CL-37777   1.827   0.470  11.525
72518ION    CL-37778  10.491  18.762  14.022
72519ION    CL-37779  35.118  34.962   1.709
72520ION    CL-37780  13.084  32.069  13.171
72521ION    CL-37781  40.832  28.465   3.871
72522ION    CL-37782  43.511   7.149   2.869
72523ION    CL-37783   1.133  28.399   2.851
72524ION    CL-37784  23.730  25.726   0.296
72525ION    CL-37785  33.580   1.013   9.985
72526ION    CL-37786  25.654  26.541   3.763
72527ION    CL-37787   1.930  16.230  13.173
72528ION    CL-37788   4.652   7.189   1.721
72529ION    CL-37789   3.103   1.677  12.442
72530ION    CL-37790  12.529   2.689   4.977
72531ION    CL-37791  17.099  22.129   2.709
72532ION    CL-37792  44.677  24.000  13.564
72533ION    CL-37793  24.102  36.871  14.224
72534ION    CL-37794   0.501  35.034   4.052
72535ION    CL-37795   2.227  11.715  12.718
72536ION    CL-37796  37.889  22.929  13.413
72537ION    CL-37797  20.646  42.520   1.149
72538ION    CL-37798  32.430  43.173  11.987
72539ION    CL-37799  30.022  36.214  14.994
72540ION    CL-37800  32.783  25.101   0.038
72541ION    CL-37801  23.030  11.111   2.822
72542ION    CL-37802  33.181  24.007   4.204
72543ION    CL-37803  32.210  12.877   2.689
72544ION    CL-37804  41.549  21.402  11.779
72545ION    CL-37805   5.421  16.180   0.465
72546ION    CL-37806  18.209  40.825   1.189
72547ION    CL-37807   8.354  17.994  11.048
72548ION    CL-37808  18.824   0.189   1.409
72549ION    CL-37809   7.643  21.740  10.791
72550ION    CL-37810   1.623   4.093   1.668
72551ION    CL-37811  35.821  17.293   0.377
72552ION    CL-37812  23.934  34.221  10.212
72553ION    CL-37813   2.870   3.390   0.371
72554ION    CL-37814  40.351   0.540   1.466
72555ION    CL-37815  26.647  14.581   0.405
72556ION    CL-37816  33.185  13.904  10.102
72557ION    CL-37817  39.135   2.195   3.545
72558ION    CL-37818   3.995  40.214   3.375
72559ION    CL-37819  20.557   5.410   0.310
72560ION    CL-37820  28.552  40.097  14.454
72561ION    CL-37821  26.243  33.603   4.120
72562ION    CL-37822  14.390  26.497  14.372
72563ION    CL-37823   9.335   7.972   3.840
72564ION    CL-37824  26.562  23.123   4.147
72565ION    CL-37825  27.471  14.016  13.570
72566ION    CL-37826   6.127  27.147   4.859
72567ION    CL-37827  27.865  35.956   3.568
72568ION    CL-37828  28.711  31.250   4.067
72569ION    CL-37829  40.886  36.267  12.846
72570ION    CL-37830  18.850   9.401  13.510
72571ION    CL-37831  11.425  13.183  13.586
72572ION    CL-37832   0.380   9.881  14.703
72573ION    CL-37833  10.047   3.354  14.155
72574ION    CL-37834  23.511   1.443  14.088
72575ION    CL-37835  20.702  34.253   4.500
72576ION    CL-37836  12.663  40.882  10.913
72577ION    CL-37837  28.035  19.994   1.033
72578ION    CL-37838  30.597  44.081  13.464
72579ION    CL-37839  18.714  34.656  11.177
72580ION    CL-37840  38.925  38.288  11.564
72581ION    CL-37841  15.120   7.246   4.801
72582ION    CL-37842   5.493  13.726   0.275
72583ION    CL-37843  11.373  21.477   4.130
72584ION    CL-37844   6.455  25.992  11.297
72585ION    CL-37845   3.808  37.537  11.483
72586ION    CL-37846  19.898  41.484  10.824
72587ION    CL-37847  43.546  34.821  12.562
72588ION    CL-37848   6.185  32.474   0.936
72589ION    CL-37849  36.502  19.717   0.895
72590ION    CL-37850   2.639  10.327   0.565
72591ION    CL-37851   3.421   7.280   4.841
72592ION    CL-37852   6.193  10.143   2.476
72593ION    CL-37853  13.136  10.286   1.987
72594ION    CL-37854   0.149  26.523  11.144
72595ION    CL-37855  30.611  41.603  14.729
72596ION    CL-37856   6.886   4.243  14.354
72597ION    CL-37857  28.346  32.068  12.175
72598ION    CL-37858  17.455  40.043  10.451
72599ION    CL-37859  36.150  42.922   0.448
72600ION    CL-37860  13.521  29.629  10.406
72601ION    CL-37861  34.485  41.055  12.578
72602ION    CL-37862  30.167   3.031  12.121
72603ION    CL-37863   8.385  41.828  11.933
72604ION    CL-37864   9.627  40.392  14.993
72605ION    CL-37865  35.400  33.772  11.733
72606ION    CL-37866  42.789  33.955   1.167
72607ION    CL-37867  36.145   7.204   3.126
72608ION    CL-37868   4.254  25.645   3.445
72609ION    CL-37869  13.122  27.391  13.957
72610ION    CL-37870  20.123  28.934  12.580
72611ION    CL-37871  17.036   4.673   1.821
72612ION    CL-37872  17.781  12.482   1.828
72613ION    CL-37873  38.801  20.821   3.309
72614ION    CL-37874  34.680   6.954  14.023
72615ION    CL-37875   9.379   8.483   1.457
72616ION    CL-37876   9.553  25.445   5.438
72617ION    CL-37877  24.144  41.321  12.168
72618ION    CL-37878  14.491  41.960  12.320
72619ION    CL-37879  25.709  28.842   2.153
72620ION    CL-37880  32.056  23.952  13.992
72621ION    CL-37881  13.689  29.112   2.720
72622ION    CL-37882  28.337  24.257   1.452
72623ION    CL-37883  41.807  44.113   2.436
72624ION    CL-37884  16.644  23.496  12.880
72625ION    CL-37885  17.156   0.902  14.096
72626ION    CL-37886  35.050  26.748   4.580
72627ION    CL-37887  15.325  32.231  11.083
72628ION    CL-37888  17.578  36.492  12.375
72629ION    CL-37889  15.277  22.594   1.172
72630ION    CL-37890  29.105  38.234   3.224
72631ION    CL-37891  20.150  30.620   1.417
72632ION    CL-37892  30.465  10.955   9.918
72633ION    CL-37893  23.072  25.899  10.249
72634ION    CL-37894  31.238  32.481   0.050
72635ION    CL-37895  24.471  14.700  11.197
72636ION    CL-37896   8.364  25.586   0.938
72637ION    CL-37897  37.946  12.807   2.432
72638ION    CL-37898   6.659  41.985  11.938
72639ION    CL-37899  42.068  23.406  10.843
72640ION    CL-37900  14.987  24.044  13.485
72641ION    CL-37901   9.374  18.867   1.002
72642ION    CL-37902   0.215  18.550   4.052
72643ION    CL-37903  43.795   1.297   5.056
72644ION    CL-37904   3.287  35.609  11.566
72645ION    CL-37905  39.507  35.536  14.542
72646ION    CL-37906   8.213  20.118  14.425
72647ION    CL-37907  39.286  21.326  13.385
72648ION    CL-37908  38.592   7.547  12.571
72649ION    CL-37909  13.978  15.350   9.868
72650ION    CL-37910  37.442  32.521   0.733
72651ION    CL-37911  29.577  22.564   1.887
72652ION    CL-37912  24.632  37.630  14.772
72653ION    CL-37913  18.476   8.068   3.707
72654ION    CL-37914  32.535  12.666   3.611
72655ION    CL-37915   7.491   8.332   4.582
72656ION    CL-37916  35.798  30.620  11.794
72657ION    CL-37917  36.877  11.806  14.274
72658ION    CL-37918  42.981  41.836  10.386
72659ION    CL-37919   2.300  20.766  10.792
72660ION    CL-37920  20.035  35.919   4.763
72661ION    CL-37921  38.196  25.567   0.947
72662ION    CL-37922   1.505   6.861  10.860
72663ION    CL-37923  28.932  20.292  12.127
72664ION    CL-37924   1.836  36.171   1.369
72665ION    CL-37925  22.757  21.072   2.119
72666ION    CL-37926  17.471  42.273  11.508
72667ION    CL-37927  24.200   2.498   3.416
72668ION    CL-37928  38.935   0.053  11.088
72669ION    CL-37929  31.511  41.010  12.271
72670ION    CL-37930  32.349  29.954  11.609
72671ION    CL-37931  40.723  30.410  10.252
72672ION    CL-37932  35.482  18.607   1.257
72673ION    CL-37933  17.310   0.380   4.122
72674ION    CL-37934  41.726  38.097   1.862
72675ION    CL-37935  37.578   1.412   1.423
72676ION    CL-37936  38.814  23.788   1.819
72677ION    CL-37937  22.700   3.017   4.344
72678ION    CL-37938  39.162  22.059  11.967
72679ION    CL-37939  31.038  31.126   3.838
72680ION    CL-37940  36.581  21.716  12.514
72681ION    CL-37941  31.397  41.578  11.456
72682ION    CL-37942  38.019   9.446   1.289
72683ION    CL-37943  21.270  23.426  14.851
72684ION    CL-37944   6.570   8.271  11.028
72685ION    CL-37945  34.090  29.330  12.148
72686ION    CL-37946  20.074  19.476  10.638
72687ION    CL-37947  19.002  24.930  10.390
72688ION    CL-37948  29.573  22.184   2.812
72689ION    CL-37949  28.079   8.994   1.583
72690ION    CL-37950  24.980   8.957   0.168
72691ION    CL-37951  28.772  42.253   4.082
72692ION    CL-37952  27.780  44.447  14.994
72693ION    CL-37953  43.400  18.751  13.865
72694ION    CL-37954   9.281  16.839  14.607
72695ION    CL-37955  32.781  43.009   0.339
72696ION    CL-37956   1.062  12.425   9.858
72697ION    CL-37957   8.381  27.964  14.773
72698ION    CL-37958  38.335  42.247   0.404
72699ION    CL-37959  32.709  26.561  11.444
72700ION    CL-37960  21.731  21.901   0.028
72701ION    CL-37961  15.096   5.900  11.552
72702ION    CL-37962  29.930  39.036   0.745
72703ION    CL-37963  15.870  13.556  12.866
72704ION    CL-37964  44.473  26.118  14.288
72705ION    CL-37965  28.376   2.159   3.895
72706ION    CL-37966  34.225  19.249  11.133
72707ION    CL-37967  32.266  23.567   4.148
72708ION    CL-37968  27.167  13.587   0.549
72709ION    CL-37969  22.325  16.877  11.697
72710ION    CL-37970  13.182  15.187   3.985
72711ION    CL-37971   1.512   7.337  12.389
72712ION    CL-37972  38.054  37.438  13.452
72713ION    CL-37973  31.023  19.029  12.943
72714ION    CL-37974  44.740   8.224  13.421
72715ION    CL-37975  11.785  23.168   1.556
72716ION    CL-37976  13.333  41.877  13.575
72717ION    CL-37977  25.730   5.555   0.393
72718ION    CL-37978  20.007  34.565  12.659
72719ION    CL-37979  11.702  39.672   0.044
72720ION    CL-37980  28.478  27.227   4.012
72721ION    CL-37981  43.728  41.354  12.470
72722ION    CL-37982  22.770  31.527  12.529
72723ION    CL-37983  13.750  16.206   2.245
72724ION    CL-37984   2.911  29.205   2.332
72725ION    CL-37985  23.760  23.991  14.234
72726ION    CL-37986  33.446   4.158  14.399
72727ION    CL-37987   2.281  11.381   1.225
72728ION    CL-37988  10.270  17.605  14.507
72729ION    CL-37989  21.843   3.785   5.232
72730ION    CL-37990  32.185   8.707  12.950
72731ION    CL-37991   0.079  23.784   3.911
72732ION    CL-37992  44.594  31.969   1.831
72733ION    CL-37993  28.382   5.116  13.348
72734ION    CL-37994  41.902  33.390   3.717
72735ION    CL-37995  26.478  30.723  14.769
72736ION    CL-37996  43.352  13.473  10.801
72737ION    CL-37997  44.003  35.218   0.266
72738ION    CL-37998  40.399  23.137  13.497
72739ION    CL-37999  44.374  15.995   0.725
72740ION    CL-38000  35.288   2.328  13.157
72741ION    CL-38001  25.815  32.363  12.595
72742ION    CL-38002  40.443  32.988  13.843
72743ION    CL-38003  24.770   6.675  13.855
72744ION    CL-38004  44.234  42.052  14.409
72745ION    CL-38005  30.394  26.861   2.867
72746ION    CL-38006  14.725  43.722   3.913
72747ION    CL-38007  23.198  11.422  12.211
72748ION    CL-38008  36.826  11.401  10.792
72749ION    CL-38009  40.603  23.185   1.805
72750ION    CL-38010   1.003  33.391   9.952
72751ION    CL-38011  39.519   1.373   3.589
72752ION    CL-38012  32.213   5.822   2.353
72753ION    CL-38013   1.869   8.718  13.287
72754ION    CL-38014  14.226  33.187   4.629
72755ION    CL-38015  17.748   8.773   4.456
72756ION    CL-38016  32.158  25.613   1.256
72757ION    CL-38017  42.970  28.390  14.400
72758ION    CL-38018  31.964  28.010   1.840
72759ION    CL-38019   2.734  23.784  12.547
72760ION    CL-38020  11.173  27.922   4.725
72761ION    CL-38021  19.483  40.470   0.830
72762ION    CL-38022   6.700  19.308   9.917
72763ION    CL-38023  35.745  39.632   2.758
72764ION    CL-38024  24.728  11.648  11.183
72765ION    CL-38025   8.816  24.465   4.970
72766ION    CL-38026  15.257   5.950  14.077
72767ION    CL-38027  40.988  37.082   2.145
72768ION    CL-38028   0.021  28.477   2.579
72769ION    CL-38029  18.056  33.904  11.220
72770ION    CL-38030  11.008  41.166  13.974
72771ION    CL-38031  28.406  30.627  11.100
72772ION    CL-38032  37.501  40.288  14.381
72773ION    CL-38033  37.336  24.258   5.012
72774ION    CL-38034  29.981   3.250  10.483
72775ION    CL-38035  23.494  37.998  10.050
72776ION    CL-38036  27.142  36.270  14.863
72777ION    CL-38037  10.496  32.984   0.026
72778ION    CL-38038  35.925   9.195  13.906
72779ION    CL-38039  35.008   7.798  13.069
72780ION    CL-38040   7.962  25.618   3.676
72781ION    CL-38041   4.849  35.680   2.677
72782ION    CL-38042   7.476  11.773   1.646
72783ION    CL-38043   4.426  39.328  12.949
72784ION    CL-38044  20.359  20.068   2.596
72785ION    CL-38045  37.619  10.143   0.494
72786ION    CL-38046  37.715  41.472   2.409
72787ION    CL-38047  29.724  38.570   1.605
72788ION    CL-38048  11.453  20.224   0.379
72789ION    CL-38049  25.894  19.979  12.046
72790ION    CL-38050  35.399   1.973   1.717
72791ION    CL-38051   9.104  43.780  12.880
72792ION    CL-38052  38.051  42.950  13.991
72793ION    CL-38053  39.650  22.675   0.674
72794ION    CL-38054  15.949  42.879   9.739
72795ION    CL-38055  41.959  35.706   1.568
72796ION    CL-38056  25.326  27.114   0.281
72797ION    CL-38057  27.200  41.403   0.974
72798ION    CL-38058  41.415  24.375   3.781
72799ION    CL-38059   5.467  38.111   4.720
72800ION    CL-38060  27.191  20.501   0.785
72801ION    CL-38061  22.140  33.043   2.477
72802ION    CL-38062  15.559   6.844   2.212
72803ION    CL-38063   0.589  21.298   4.854
72804ION    CL-38064   4.280  44.759  10.830
72805ION    CL-38065  13.834  29.969  14.068
72806ION    CL-38066  23.532  14.706  14.808
72807ION    CL-38067  21.355  21.588   4.017
72808ION    CL-38068   7.733  42.970   3.849
72809ION    CL-38069  30.690  30.184  13.099
72810ION    CL-38070  19.592  20.690   2.756
72811ION    CL-38071   1.065  36.715  13.659
72812ION    CL-38072  38.028  42.072  14.468
72813ION    CL-38073   8.846  12.680   1.376
72814ION    CL-38074  21.814  43.954  14.236
72815ION    CL-38075   2.487  44.413  12.239
72816ION    CL-38076  37.091   8.365   0.850
72817ION    CL-38077  12.753  37.824  13.595
72818ION    CL-38078  10.919  15.916   3.654
72819ION    CL-38079   4.518  32.050  14.853
72820ION    CL-38080  15.711  44.414  14.344
72821ION    CL-38081  41.977  34.119  12.790
72822ION    CL-38082   1.425   1.523  14.132
72823ION    CL-38083   1.897  10.944   3.368
72824ION    CL-38084  31.594  42.849   2.345
72825ION    CL-38085  28.898   3.901   1.313
72826ION    CL-38086  43.903  21.281  10.792
72827ION    CL-38087  15.537  39.839  13.053
72828ION    CL-38088  34.131  20.092  13.138
72829ION    CL-38089  35.805   1.190   2.616
72830ION    CL-38090  32.814  31.474   4.219
72831ION    CL-38091  20.039   7.506   0.037
72832ION    CL-38092  34.788  18.879  12.971
72833ION    CL-38093  14.415  38.905   0.504
72834ION    CL-38094  42.154  19.238  10.242
72835ION    CL-38095  38.679  29.523  11.114
72836ION    CL-38096  38.299   7.178  11.688
72837ION    CL-38097  12.511  27.434   9.832
72838ION    CL-38098  35.952   2.962  13.553
72839ION    CL-38099  29.230  16.644  14.327
72840ION    CL-38100  16.631  44.880   1.498
72841ION    CL-38101  16.809   7.183   5.101
72842ION    CL-38102   1.746  43.286  12.207
72843ION    CL-38103  38.614   5.673  11.628
72844ION    CL-38104  25.111  26.568   2.924
72845ION    CL-38105  27.756  37.722  12.070
72846ION    CL-38106  19.800  36.399  12.583
72847ION    CL-38107  15.606  33.354  14.052
72848ION    CL-38108  37.896  25.402  14.170
72849ION    CL-38109  32.851  15.084   1.307
72850ION    CL-38110   0.681  36.721  10.418
72851ION    CL-38111  19.533  31.592   4.192
72852ION    CL-38112   3.635  24.121   1.614
72853ION    CL-38113  37.038  14.079  11.815
72854ION    CL-38114   6.432  13.583   2.821
72855ION    CL-38115  17.516  15.592   4.504
72856ION    CL-38116  37.052   9.446  12.199
72857ION    CL-38117  20.985  10.628  13.533
72858ION    CL-38118  18.665  44.463  12.529
72859ION    CL-38119  15.757  24.960   4.579
72860ION    CL-38120   7.919  12.325   0.599
72861ION    CL-38121  36.912   1.313   3.488
72862ION    CL-38122  19.643  21.992  13.446
72863ION    CL-38123   3.380  11.091  11.262
72864ION    CL-38124  43.819  13.962   1.693
72865ION    CL-38125  40.139   1.484  12.109
72866ION    CL-38126  32.321  10.876  12.819
72867ION    CL-38127  25.904   1.560   0.240
72868ION    CL-38128  17.590  11.637   1.322
72869ION    CL-38129  12.721  24.310   2.898
72870ION    CL-38130  41.222   6.354  11.032
72871ION    CL-38131  32.252  29.408   3.523
72872ION    CL-38132  15.420   8.069   5.148
72873ION    CL-38133  12.105   6.862  14.081
72874ION    CL-38134  15.736  44.319  12.971
72875ION    CL-38135   9.943  20.909  14.971
72876ION    CL-38136   4.931  21.943   4.082
72877ION    CL-38137  22.177  28.896   2.175
72878ION    CL-38138  13.221  16.647  11.835
72879ION    CL-38139  15.723   5.987   2.385
72880ION    CL-38140   4.331  24.167  10.821
72881ION    CL-38141  34.052  12.211  10.925
72882ION    CL-38142  10.183  37.736  12.629
72883ION    CL-38143   7.702  24.931  13.127
72884ION    CL-38144  19.486  31.062  13.034
72885ION    CL-38145  39.962  22.222  14.406
72886ION    CL-38146  28.011  28.290  13.386
72887ION    CL-38147  27.309  23.781   4.051
72888ION    CL-38148  14.302  25.082   3.141
72889ION    CL-38149  22.173  41.868   0.498
72890ION    CL-38150  41.502  26.027   1.153
72891ION    CL-38151  16.280   1.975   4.443
72892ION    CL-38152  15.287   5.213   1.868
72893ION    CL-38153  42.262  33.216   1.210
72894ION    CL-38154   5.955  19.223   0.901
72895ION    CL-38155  44.115   7.761   3.379
72896ION    CL-38156   1.061   4.761   4.857
72897ION    CL-38157  38.471  12.866  11.954
72898ION    CL-38158  10.559  13.252  12.913
72899ION    CL-38159  17.200  18.880   1.959
72900ION    CL-38160  14.183   9.896   0.197
72901ION    CL-38161  32.390  20.348  12.059
72902ION    CL-38162   0.567  35.954  11.572
72903ION    CL-38163  10.845  41.370  10.402
72904ION    CL-38164  36.924  23.676  14.290
72905ION    CL-38165  38.439  35.368   1.619
72906ION    CL-38166  41.246  28.582   0.549
72907ION    CL-38167  41.404  16.436   4.308
72908ION    CL-38168  31.092   0.104   4.875
72909ION    CL-38169   2.948  23.451   3.773
72910ION    CL-38170   5.819  25.142   1.931
72911ION    CL-38171  29.072  13.094   3.373
72912ION    CL-38172   6.730  41.722   0.282
72913ION    CL-38173  36.397  27.721   3.109
72914ION    CL-38174  39.357  20.980   0.572
72915ION    CL-38175  29.664   5.117  13.267
72916ION    CL-38176  14.534   8.209  10.717
72917ION    CL-38177   7.179   8.069  14.344
72918ION    CL-38178   1.493  28.681   1.538
72919ION    CL-38179  19.132  12.133  14.074
72920ION    CL-38180   7.388  10.789   0.607
72921ION    CL-38181  20.098  13.499   0.855
72922ION    CL-38182  36.219  38.709  14.121
72923ION    CL-38183  12.113   6.193  11.553
72924ION    CL-38184  43.246   4.720   3.531
72925ION    CL-38185  26.919   7.944   5.038
72926ION    CL-38186  14.697  36.009   0.550
72927ION    CL-38187  14.752  35.418   2.501
72928ION    CL-38188  12.825  29.424  11.428
72929ION    CL-38189  18.563  43.563   0.014
72930ION    CL-38190  30.108  43.243  12.596
72931ION    CL-38191  21.602  10.284  12.813
72932ION    CL-38192  16.654  32.645  12.131
72933ION    CL-38193  20.520  16.190   0.645
72934ION    CL-38194  37.320   6.877  14.389
72935ION    CL-38195  33.529  25.698  12.076
72936ION    CL-38196   7.209  41.924   1.484
72937ION    CL-38197   6.404  15.579   3.704
72938ION    CL-38198  33.537  32.956  11.966
72939ION    CL-38199   8.966  20.574  12.562
72940ION    CL-38200  10.629  44.854   2.094
72941ION    CL-38201  43.375  11.441   0.971
72942ION    CL-38202  38.562  33.947   3.239
72943ION    CL-38203   8.199  12.742   3.368
72944ION    CL-38204  15.236  40.470  11.363
72945ION    CL-38205  13.659  34.462   2.824
72946ION    CL-38206  38.920  24.221  10.363
72947ION    CL-38207  34.479  40.009  12.509
72948ION    CL-38208  26.417  22.701   1.499
72949ION    CL-38209  40.682   4.078  10.271
72950ION    CL-38210  35.833  25.124  14.974
72951ION    CL-38211  34.375  34.199   2.261
72952ION    CL-38212  13.468  35.402   0.875
72953ION    CL-38213  12.319  27.183   2.192
72954ION    CL-38214  40.296  23.191   4.191
72955ION    CL-38215   2.377   3.762   0.884
72956ION    CL-38216  29.984  35.803   1.298
72957ION    CL-38217  22.006   6.587   2.583
72958ION    CL-38218  29.082   4.559  10.281
72959ION    CL-38219  29.771  35.193   4.959
72960ION    CL-38220   9.270  29.048  13.387
72961ION    CL-38221   7.411  18.643  14.695
72962ION    CL-38222   3.690  25.660  12.519
72963ION    CL-38223   6.917   9.162   3.309
72964ION    CL-38224  41.004  39.814   2.342
72965ION    CL-38225  24.332  14.726  12.967
72966ION    CL-38226  25.437  43.906   3.727
72967ION    CL-38227   2.817  43.371   0.072
72968ION    CL-38228  25.932   4.631  11.946
72969ION    CL-38229  36.975   2.385  11.389
72970ION    CL-38230  29.644   2.149  10.402
72971ION    CL-38231   4.002  19.100   3.803
72972ION    CL-38232   9.066  28.216   3.620
72973ION    CL-38233  40.080  41.948  11.110
72974ION    CL-38234   8.299  29.333   1.338
72975ION    CL-38235  13.169  10.382   0.797
72976ION    CL-38236   6.556  40.839   0.213
72977ION    CL-38237   8.110  33.603   2.012
72978ION    CL-38238  26.215  12.700   1.355
72979ION    CL-38239   0.371  12.835  12.138
72980ION    CL-38240  35.538  18.462   3.121
72981ION    CL-38241   3.630  27.557  14.044
72982ION    CL-38242  12.444  24.729  14.894
72983ION    CL-38243  24.720  13.553   3.533
72984ION    CL-38244  31.101   1.169  10.969
72985ION    CL-38245   5.752  42.567  11.188
72986ION    CL-38246  26.499  33.584   0.022
72987ION    CL-38247  29.904  41.453  13.515
72988ION    CL-38248  30.264  29.916  10.146
72989ION    CL-38249  24.908  24.254  13.661
72990ION    CL-38250  39.543   5.394  11.173
72991ION    CL-38251   4.655  15.322  14.556
72992ION    CL-38252  43.063  18.240   3.960
72993ION    CL-38253   5.590   4.962   4.489
72994ION    CL-38254  37.083  25.062   0.219
72995ION    CL-38255   2.684  19.127  13.853
72996ION    CL-38256  24.302  33.479   0.425
72997ION    CL-38257  12.869  17.039   3.655
72998ION    CL-38258  21.089  29.014  12.026
72999ION    CL-38259  35.537  20.897   1.302
73000ION    CL-38260  44.738  24.237   3.263
73001ION    CL-38261  28.792  40.178   4.320
73002ION    CL-38262  23.463  44.538   2.235
73003ION    CL-38263  42.387  22.526   0.759
73004ION    CL-38264  20.802  37.537  13.089
73005ION    CL-38265  30.965  43.918   4.258
73006ION    CL-38266  42.004  34.019  13.785
73007ION    CL-38267  43.932  30.695   4.983
73008ION    CL-38268  22.594  32.624   1.793
73009ION    CL-38269  38.700  29.695   0.470
73010ION    CL-38270  22.084  23.865  14.470
73011ION    CL-38271  18.321  29.293  14.176
73012ION    CL-38272  20.748  44.644   2.358
73013ION    CL-38273  14.804  25.507  10.738
73014ION    CL-38274  43.126   2.263   4.581
73015ION    CL-38275  44.020  20.805  14.787
73016ION    CL-38276  40.928  33.339   4.181
73017ION    CL-38277   4.758  20.947  13.610
73018ION    CL-38278  24.974  18.411   0.854
73019ION    CL-38279  28.690  20.883   0.836
73020ION    CL-38280  32.018  10.628  11.379
73021ION    CL-38281  41.530  14.235  14.309
73022ION    CL-38282  31.012   4.543  11.032
73023ION    CL-38283   1.361  29.616  11.177
73024ION    CL-38284  13.959  16.795  13.857
73025ION    CL-38285  18.932  36.184   4.118
73026ION    CL-38286  20.927  17.082   3.269
73027ION    CL-38287  18.853   3.711  12.464
73028ION    CL-38288   0.692  39.635  14.860
73029ION    CL-38289   9.674  36.570   1.977
73030ION    CL-38290   8.480   0.593   0.520
73031ION    CL-38291  32.819   6.701  11.813
73032ION    CL-38292  13.988  12.857  11.503
73033ION    CL-38293   3.747  25.428   5.519
73034ION    CL-38294  22.608  37.104   2.486
73035ION    CL-38295  15.365  20.696   4.918
73036ION    CL-38296  24.766  43.625  11.492
73037ION    CL-38297  35.666  32.926  11.171
73038ION    CL-38298   2.388  15.351  13.890
73039ION    CL-38299   5.621  40.129  11.900
73040ION    CL-38300  44.351  40.487  12.366
73041ION    CL-38301   3.552  16.805   2.182
73042ION    CL-38302  19.528  17.061  10.726
73043ION    CL-38303  10.971  20.956  14.716
73044ION    CL-38304   3.186  35.980   3.011
73045ION    CL-38305  14.878  40.295   3.116
73046ION    CL-38306  43.341  26.037  11.588
73047ION    CL-38307  19.721   3.342   1.749
73048ION    CL-38308  40.685  28.852  10.373
73049ION    CL-38309   2.687   4.319   0.250
73050ION    CL-38310  22.572  34.859  11.904
73051ION    CL-38311  39.669  22.836   4.593
73052ION    CL-38312  22.510  11.399  12.778
73053ION    CL-38313   9.117  39.802  11.059
73054ION    CL-38314   6.432  36.103   3.123
73055ION    CL-38315  12.336  17.292  11.042
73056ION    CL-38316  17.064  27.289   2.683
73057ION    CL-38317   0.891   5.184  14.820
73058ION    CL-38318   9.745   8.418   0.529
73059ION    CL-38319  24.499   7.649  13.947
73060ION    CL-38320  33.099  24.701   1.309
73061ION    CL-38321  11.821  40.637   0.274
73062ION    CL-38322  44.845   7.890   2.610
73063ION    CL-38323  15.418  33.599   1.025
73064ION    CL-38324  18.986  18.793  13.213
73065ION    CL-38325   0.912  23.472   0.441
73066ION    CL-38326  34.842  40.947  11.598
73067ION    CL-38327  24.865  16.661  11.374
73068ION    CL-38328  36.869  30.538   9.925
73069ION    CL-38329  16.332  17.217   4.897
73070ION    CL-38330  32.756  19.804   0.258
73071ION    CL-38331   0.980  36.538   3.072
73072ION    CL-38332  23.652  11.884   0.121
73073ION    CL-38333  17.500  41.602  12.984
73074ION    CL-38334  43.740  33.198   4.829
73075ION    CL-38335  36.217  21.313  13.625
73076ION    CL-38336  10.259  22.209  13.508
73077ION    CL-38337  44.185  39.731  11.308
73078ION    CL-38338  29.261  31.193   4.787
73079ION    CL-38339  17.356  29.598  14.302
73080ION    CL-38340  11.997  23.219   4.012
73081ION    CL-38341  26.924  20.373   2.967
73082ION    CL-38342  32.263  44.264   0.701
73083ION    CL-38343  16.935   9.078   0.376
73084ION    CL-38344  14.825  12.352  12.015
73085ION    CL-38345   1.334   1.290  10.640
73086ION    CL-38346   8.561  41.179   3.864
73087ION    CL-38347  31.559  25.760  13.949
73088ION    CL-38348  21.388  33.685   1.407
73089ION    CL-38349  21.545   2.170   1.459
73090ION    CL-38350  33.205   9.683  12.945
73091ION    CL-38351  19.483  21.969  12.052
73092ION    CL-38352  29.211   3.475   2.234
73093ION    CL-38353  38.859  29.355   1.505
73094ION    CL-38354  32.900  25.934   3.782
73095ION    CL-38355  31.349  21.695   9.797
73096ION    CL-38356   0.238  10.454  10.949
73097ION    CL-38357   6.201  11.397   0.088
73098ION    CL-38358  24.022  29.364   2.740
73099ION    CL-38359   7.151  41.218   1.036
73100ION    CL-38360  36.556  23.634   0.118
73101ION    CL-38361  27.659   7.087   0.128
73102ION    CL-38362   2.937  22.895  14.113
73103ION    CL-38363   2.407  40.427   1.904
73104ION    CL-38364  24.792  28.417  12.463
73105ION    CL-38365  40.366  40.364  11.733
73106ION    CL-38366  20.929  17.577   2.280
73107ION    CL-38367  39.037  37.272  12.777
73108ION    CL-38368  38.252  31.480   0.198
73109ION    CL-38369  35.738  24.189  13.545
73110ION    CL-38370   8.085   8.679  13.199
73111ION    CL-38371  36.886  17.217   1.725
73112ION    CL-38372  16.941  37.459   1.811
73113ION    CL-38373  20.748   7.731   1.707
73114ION    CL-38374   2.931  32.402   4.190
73115ION    CL-38375  22.107  34.130   0.497
73116ION    CL-38376  11.891  28.426  13.727
73117ION    CL-38377  24.219   2.029  14.570
73118ION    CL-38378  10.727  40.686   2.846
73119ION    CL-38379   7.560  17.045  13.181
73120ION    CL-38380  25.609  24.694  12.113
73121ION    CL-38381   3.123  28.214   2.585
73122ION    CL-38382  16.009  21.435   3.722
73123ION    CL-38383  39.266  21.221  11.040
73124ION    CL-38384  12.539  35.835  11.229
73125ION    CL-38385  39.453   6.342  11.479
73126ION    CL-38386  19.044  34.530  10.241
73127ION    CL-38387  25.168  27.958   2.399
73128ION    CL-38388   1.804  43.224   3.644
73129ION    CL-38389   0.438  16.619   0.021
73130ION    CL-38390  10.366   5.681   1.371
73131ION    CL-38391  21.873  17.245   2.279
73132ION    CL-38392  40.379  37.786   4.025
73133ION    CL-38393  16.368   6.475   3.368
73134ION    CL-38394  22.650  13.354  12.623
73135ION    CL-38395   2.454  21.637  13.434
73136ION    CL-38396  43.977  26.919   3.022
73137ION    CL-38397   2.440  37.402  13.518
73138ION    CL-38398  35.181  41.562  13.092
73139ION    CL-38399  30.390   8.036   3.210
73140ION    CL-38400  26.032  18.781   2.247
73141ION    CL-38401   9.190   8.247  14.829
73142ION    CL-38402  13.792  43.985  14.115
73143ION    CL-38403  16.947  25.800   3.605
73144ION    CL-38404  31.719  30.419   1.235
73145ION    CL-38405  39.993   0.223  13.825
73146ION    CL-38406  42.253  20.404  11.266
73147ION    CL-38407  32.411  38.737   3.391
73148ION    CL-38408   3.887  41.068   0.573
73149ION    CL-38409   7.587  41.679  12.149
73150ION    CL-38410  13.001  28.528  11.974
73151ION    CL-38411  15.949  14.554  12.846
73152ION    CL-38412  13.038  27.470   5.099
73153ION    CL-38413  25.384  40.581  11.568
73154ION    CL-38414   6.107  44.796  11.218
73155ION    CL-38415  29.644  22.380  12.457
73156ION    CL-38416  44.243  20.772   1.653
73157ION    CL-38417   7.941  41.046  10.812
73158ION    CL-38418  13.698  25.294  13.568
73159ION    CL-38419   1.337  42.126  13.048
73160ION    CL-38420  26.344  31.210  13.515
73161ION    CL-38421  18.043  27.585  13.943
73162ION    CL-38422  26.105   0.926   0.990
73163ION    CL-38423  31.090  11.915   4.967
73164ION    CL-38424  23.973  22.175   3.922
73165ION    CL-38425  34.964  35.008  12.860
73166ION    CL-38426  11.187   5.826  11.456
73167ION    CL-38427  23.207   5.242  10.639
73168ION    CL-38428   9.593  37.381   1.396
73169ION    CL-38429  22.381  37.604  12.252
73170ION    CL-38430  14.486   0.570  14.162
73171ION    CL-38431  31.193  23.164  11.773
73172ION    CL-38432   5.705  36.555   4.130
73173ION    CL-38433   9.321  27.903  10.790
73174ION    CL-38434  21.434   1.878  13.163
73175ION    CL-38435  25.579  12.807  14.734
73176ION    CL-38436   5.014   4.008  13.685
73177ION    CL-38437   5.465   3.108  13.920
73178ION    CL-38438  32.576  24.310   3.084
73179ION    CL-38439  25.490   2.940   3.251
73180ION    CL-38440  15.523   3.363   4.955
73181ION    CL-38441  34.011  23.686   3.702
73182ION    CL-38442  30.133  29.259  11.276
73183ION    CL-38443  20.249  14.936  12.234
73184ION    CL-38444   5.875   1.489  11.403
73185ION    CL-38445  39.056  18.019   0.823
73186ION    CL-38446  13.259  19.143   4.873
73187ION    CL-38447   0.911  22.795   1.584
73188ION    CL-38448  44.349  33.640   1.911
73189ION    CL-38449  31.137  33.539  13.994
73190ION    CL-38450  29.508  37.459   0.201
73191ION    CL-38451  11.432  19.715  13.464
73192ION    CL-38452   8.165   5.393   2.347
73193ION    CL-38453  36.192  40.052  12.882
73194ION    CL-38454  12.751   4.637   1.448
73195ION    CL-38455  12.595   3.663  14.979
73196ION    CL-38456   1.964   0.350   4.700
73197ION    CL-38457   6.818  26.142  13.075
73198ION    CL-38458  39.492  17.221  11.132
73199ION    CL-38459  23.453  15.888  11.254
73200ION    CL-38460  16.952   1.385  12.455
73201ION    CL-38461  26.794  21.877  12.972
73202ION    CL-38462  25.047  22.738   4.544
73203ION    CL-38463  42.051  30.364  13.455
73204ION    CL-38464  22.174  33.920  13.909
73205ION    CL-38465  11.418   2.258   0.065
73206ION    CL-38466  40.902  18.593   4.963
73207ION    CL-38467  15.063  21.741  13.742
73208ION    CL-38468   5.483   4.987   1.353
73209ION    CL-38469  29.058  27.710  12.074
73210ION    CL-38470   6.678  11.652   1.275
73211ION    CL-38471  24.060  14.674   4.894
73212ION    CL-38472  13.472  32.535  14.971
73213ION    CL-38473  35.678  40.370  14.719
73214ION    CL-38474   5.431  15.436  12.092
73215ION    CL-38475   8.912   8.392  12.716
73216ION    CL-38476  28.046   4.287  14.786
73217ION    CL-38477  15.857  43.413  14.519
73218ION    CL-38478  35.641  17.555  11.713
73219ION    CL-38479  31.432  40.407  13.067
73220ION    CL-38480  40.839  21.093  12.660
73221ION    CL-38481  31.347  10.227   2.436
73222ION    CL-38482  37.203  41.445  11.213
73223ION    CL-38483   3.380  24.049   4.448
73224ION    CL-38484  13.376  18.162   4.740
73225ION    CL-38485  15.455   6.995  12.089
73226ION    CL-38486  36.277   5.813  12.833
73227ION    CL-38487  30.531  24.782  13.435
73228ION    CL-38488  36.374  28.692  12.595
73229ION    CL-38489   9.644  42.277  14.853
73230ION    CL-38490  24.153  26.425  13.121
73231ION    CL-38491  16.851   4.287   2.864
73232ION    CL-38492  40.905  34.989   0.048
73233ION    CL-38493  12.951  44.566  12.956
73234ION    CL-38494  23.562  35.845   4.027
73235ION    CL-38495   7.072  24.474  10.982
73236ION    CL-38496  37.648   6.510  10.302
73237ION    CL-38497   0.467  22.298  12.930
73238ION    CL-38498  20.690  21.641   1.318
73239ION    CL-38499  15.408  19.236   1.794
73240ION    CL-38500  10.444  31.613   4.961
73241ION    CL-38501  12.046  31.318   0.440
73242ION    CL-38502   2.691  11.650  11.724
73243ION    CL-38503  28.312  43.960   1.475
73244ION    CL-38504  20.036  37.181   1.009
73245ION    CL-38505   3.134  32.927   1.836
73246ION    CL-38506  13.539  42.925   1.674
73247ION    CL-38507   0.484  15.342   5.318
73248ION    CL-38508   9.884  34.537  14.039
73249ION    CL-38509  43.024  27.722   5.083
73250ION    CL-38510   8.311  31.883  12.089
73251ION    CL-38511  17.586   9.780  14.756
73252ION    CL-38512  16.349  16.218   4.934
73253ION    CL-38513  26.057  11.428  12.990
73254ION    CL-38514  38.809  20.627  14.375
73255ION    CL-38515  19.423  32.633  13.226
73256ION    CL-38516  24.159   1.557  10.301
73257ION    CL-38517  44.531  30.330   2.969
73258ION    CL-38518  14.174  44.689  10.410
73259ION    CL-38519  13.340  25.696   2.479
73260ION    CL-38520  20.445   7.952   4.158
73261ION    CL-38521  42.051  35.832   2.474
73262ION    CL-38522  36.689   0.338   3.514
73263ION    CL-38523  33.879  31.860  11.624
73264ION    CL-38524  43.022  20.138   1.568
73265ION    CL-38525   3.789  31.292   0.323
73266ION    CL-38526  33.031  42.923  13.813
73267ION    CL-38527  19.727  39.255  14.396
73268ION    CL-38528  36.021   2.824   2.418
73269ION    CL-38529  37.170  20.088  14.578
73270ION    CL-38530  19.162   0.063  11.890
73271ION    CL-38531   6.677  38.424  11.624
73272ION    CL-38532  16.450   1.901   0.172
73273ION    CL-38533   4.842   3.227   2.013
73274ION    CL-38534  22.961   9.527  11.616
73275ION    CL-38535  33.165  43.470   1.787
73276ION    CL-38536  42.083  22.478   4.084
73277ION    CL-38537  12.444  22.350  12.865
73278ION    CL-38538  13.130  19.410  14.063
73279ION    CL-38539  21.848  12.069  13.994
73280ION    CL-38540  39.380  27.182   4.452
73281ION    CL-38541  40.807  36.965  12.028
73282ION    CL-38542  15.012  38.855  13.869
73283ION    CL-38543  43.462  22.788  13.901
73284ION    CL-38544  32.572  16.129   0.936
73285ION    CL-38545  41.608  28.142   4.643
73286ION    CL-38546  43.974   7.879  12.878
73287ION    CL-38547  35.521  35.414  11.419
73288ION    CL-38548  31.987  43.885   1.645
73289ION    CL-38549  16.073  26.814  10.509
73290ION    CL-38550  32.145  29.066  11.197
73291ION    CL-38551  18.301  33.403   3.104
73292ION    CL-38552  36.579  20.336  11.287
73293ION    CL-38553   0.339  23.848  11.552
73294ION    CL-38554  23.006   2.176   1.707
73295ION    CL-38555  23.946  25.650   4.811
73296ION    CL-38556  41.104  33.305  12.904
73297ION    CL-38557  40.574  41.024   1.121
73298ION    CL-38558   7.713  18.503   2.698
73299ION    CL-38559  42.652  41.200   9.923
73300ION    CL-38560  39.443  43.119  12.719
73301ION    CL-38561  13.728  15.319  14.065
73302ION    CL-38562  38.250  17.411  11.978
73303ION    CL-38563  35.977  42.914   3.706
73304ION    CL-38564  36.511  36.924  11.448
73305ION    CL-38565  17.807  37.210   1.376
73306ION    CL-38566   4.442  17.492   2.872
73307ION    CL-38567  36.245  20.461   1.626
73308ION    CL-38568   3.936  23.122   1.861
73309ION    CL-38569  39.304   8.096   4.214
73310ION    CL-38570  28.501  42.431  11.917
73311ION    CL-38571  28.500  31.604  11.289
73312ION    CL-38572  20.124  32.970  10.970
73313ION    CL-38573  26.175  11.101   5.039
73314ION    CL-38574  44.779  33.506   3.300
73315ION    CL-38575  29.029  44.107  11.051
73316ION    CL-38576  16.578  33.371   4.203
73317ION    CL-38577   8.754  25.585  10.827
73318ION    CL-38578  19.511  30.605   0.776
73319ION    CL-38579  27.776  15.761   1.140
73320ION    CL-38580  42.100   8.390   1.649
73321ION    CL-38581  33.046  26.019   2.796
73322ION    CL-38582  14.557  20.978   2.947
73323ION    CL-38583  20.183  28.027   4.269
73324ION    CL-38584  38.001   7.116   1.870
73325ION    CL-38585   2.302  22.235   4.485
73326ION    CL-38586  11.194  18.499  13.361
73327ION    CL-38587  37.343  26.202   4.618
73328ION    CL-38588   1.336  19.124  11.075
73329ION    CL-38589  29.605  19.702   3.372
73330ION    CL-38590  31.796   8.786   0.684
73331ION    CL-38591  30.030  22.673   4.269
73332ION    CL-38592  20.636  37.966   0.622
73333ION    CL-38593  26.780  36.436   1.429
73334ION    CL-38594  38.931  33.021   2.500
73335ION    CL-38595  26.711  20.775  12.747
73336ION    CL-38596  22.440  16.358  14.815
73337ION    CL-38597  41.579   3.894  13.052
73338ION    CL-38598  19.121   2.751   1.194
73339ION    CL-38599  11.061  34.589  14.779
73340ION    CL-38600  18.572  43.307   0.981
73341ION    CL-38601  34.825  29.436   1.764
73342ION    CL-38602  36.263   9.759  11.889
73343ION    CL-38603  15.763   6.273  13.146
73344ION    CL-38604   0.486  33.993  10.462
73345ION    CL-38605  39.879  10.340  11.901
73346ION    CL-38606  21.152  26.579   2.927
73347ION    CL-38607   6.278  39.431   3.714
73348ION    CL-38608  41.540  36.309   3.220
73349ION    CL-38609  21.474  12.979   3.325
73350ION    CL-38610  44.508   1.480  14.154
73351ION    CL-38611  28.611   8.151   1.378
73352ION    CL-38612  18.665  21.592   2.402
73353ION    CL-38613  28.301   1.876   1.212
73354ION    CL-38614  43.788   1.996  13.005
73355ION    CL-38615   9.400  34.134  11.989
73356ION    CL-38616  21.350   1.375  12.093
73357ION    CL-38617  21.483  34.877   4.476
73358ION    CL-38618  31.501  29.414   4.183
73359ION    CL-38619   5.716  17.291   0.930
73360ION    CL-38620  29.805   5.111  11.145
73361ION    CL-38621  14.245   4.477  12.711
73362ION    CL-38622   0.250   5.961   3.301
73363ION    CL-38623  24.273  35.374   2.615
73364ION    CL-38624  38.406  33.982   1.048
73365ION    CL-38625  18.041   3.394   4.564
73366ION    CL-38626  31.723  38.377  11.000
73367ION    CL-38627   9.265  37.027  12.116
73368ION    CL-38628  31.664  37.775   1.155
73369ION    CL-38629  37.979  27.662  11.544
73370ION    CL-38630  42.936  42.261   0.010
73371ION    CL-38631  21.302   5.062   1.939
73372ION    CL-38632  23.820  32.558   0.325
73373ION    CL-38633   2.581  41.219   1.548
73374ION    CL-38634  44.621  24.462   4.070
73375ION    CL-38635  14.658  40.774  14.116
73376ION    CL-38636  37.398   8.391  11.558
73377ION    CL-38637  41.862   8.529   5.076
73378ION    CL-38638  14.619   2.527   0.006
73379ION    CL-38639  25.080  18.906  12.128
73380ION    CL-38640  33.068  15.615   2.156
73381ION    CL-38641  12.247  21.602  14.306
73382ION    CL-38642  36.016  17.711   1.734
73383ION    CL-38643  18.129  12.042   0.504
73384ION    CL-38644   2.636  24.894  14.804
73385ION    CL-38645  24.627  37.196  13.003
73386ION    CL-38646  11.865  39.683  13.348
73387ION    CL-38647   2.573   6.951   3.204
73388ION    CL-38648  36.695  12.126   0.401
73389ION    CL-38649  23.098  36.044   1.203
73390ION    CL-38650  25.577  35.933   1.327
73391ION    CL-38651  29.900   2.591  11.263
73392ION    CL-38652  25.773  21.548  11.807
73393ION    CL-38653  17.823  35.148   1.443
73394ION    CL-38654  39.392  17.681   4.084
73395ION    CL-38655  23.621   3.048  13.398
73396ION    CL-38656  19.486  43.169   3.544
73397ION    CL-38657  38.585   0.890   2.173
73398ION    CL-38658  15.124  21.452  10.822
73399ION    CL-38659  23.426  41.978   0.415
73400ION    CL-38660  33.776  29.762  13.062
73401ION    CL-38661  31.393  35.642   2.258
73402ION    CL-38662  30.507  13.139  12.463
73403ION    CL-38663   1.169   3.978   0.893
73404ION    CL-38664  18.242  32.138   0.740
73405ION    CL-38665  35.328  37.136   1.656
73406ION    CL-38666  34.441  33.734   0.244
73407ION    CL-38667  41.505   7.096   4.396
73408ION    CL-38668  36.691  37.832  11.068
73409ION    CL-38669  17.155  27.944   5.305
73410ION    CL-38670  17.615   8.498   2.633
73411ION    CL-38671   2.731  42.070   5.082
73412ION    CL-38672  37.340  27.211  10.693
73413ION    CL-38673  23.263  42.829  10.999
73414ION    CL-38674   8.938  17.419   1.947
73415ION    CL-38675  14.840  14.528  14.243
73416ION    CL-38676  44.344  27.473  10.921
73417ION    CL-38677   9.220  30.612   4.526
73418ION    CL-38678   1.988  34.153  13.156
73419ION    CL-38679  36.556  35.233   4.782
73420ION    CL-38680  31.673  28.678   2.535
73421ION    CL-38681  41.336   5.698   2.170
73422ION    CL-38682  39.238  16.184   4.360
73423ION    CL-38683  11.594  16.903   1.165
73424ION    CL-38684  43.270  35.512   0.879
73425ION    CL-38685  32.446   9.083   1.252
73426ION    CL-38686   4.293  41.017  13.887
73427ION    CL-38687   5.372  34.748  13.433
73428ION    CL-38688  27.028  32.736   2.862
73429ION    CL-38689  43.752  28.307  13.956
73430ION    CL-38690  14.841   4.527   2.956
73431ION    CL-38691   4.375  14.740  11.167
73432ION    CL-38692   4.984  12.868   3.307
73433ION    CL-38693  35.373  15.959   0.981
73434ION    CL-38694  18.299   2.512  14.525
73435ION    CL-38695  19.057  24.420  12.154
73436ION    CL-38696  19.946  13.169   0.121
73437ION    CL-38697  17.920  21.248   3.569
73438ION    CL-38698  14.606  28.225   1.465
73439ION    CL-38699  43.054   6.934   0.999
73440ION    CL-38700  33.034  14.419   2.887
73441ION    CL-38701  37.427  26.595  14.682
73442ION    CL-38702  11.360  19.385   4.570
73443ION    CL-38703  12.835   0.338  13.393
73444ION    CL-38704  40.075   5.893   4.197
73445ION    CL-38705   8.593   3.673   0.484
73446ION    CL-38706  39.884  11.377  10.705
73447ION    CL-38707  11.346  28.842  12.086
73448ION    CL-38708   3.715  42.923  11.154
73449ION    CL-38709  21.161  16.662  12.437
73450ION    CL-38710  39.266  36.602  11.068
73451ION    CL-38711  10.419  14.437  12.578
73452ION    CL-38712  36.404  33.590   3.202
73453ION    CL-38713  32.781  41.068   3.116
73454ION    CL-38714   1.960  23.664   2.583
73455ION    CL-38715  40.632   7.995  11.723
73456ION    CL-38716  40.941  35.623  11.836
73457ION    CL-38717  22.149  21.118  13.436
73458ION    CL-38718   2.878  22.053   2.821
73459ION    CL-38719  26.074  35.948  11.855
73460ION    CL-38720  33.160  20.267  10.616
73461ION    CL-38721  30.231  39.336  14.513
73462ION    CL-38722   3.262  29.922   3.738
73463ION    CL-38723  23.977   5.509   1.914
73464ION    CL-38724  35.097  15.679   3.629
73465ION    CL-38725  12.743  11.881   4.253
73466ION    CL-38726  42.585  35.100  12.576
73467ION    CL-38727  40.092  44.229  13.791
73468ION    CL-38728  30.522  42.573  11.518
73469ION    CL-38729   7.169  11.972   5.085
73470ION    CL-38730  10.100  35.517   0.853
73471ION    CL-38731   5.187  33.451  14.889
73472ION    CL-38732   4.873  40.960   0.180
73473ION    CL-38733   3.992   5.340   1.827
73474ION    CL-38734  43.828  32.584   2.016
73475ION    CL-38735  33.426  20.261   0.724
73476ION    CL-38736  38.267  17.523   3.519
73477ION    CL-38737   5.814   8.838   2.268
73478ION    CL-38738  16.467  18.123   4.495
73479ION    CL-38739   4.948  14.377   1.396
73480ION    CL-38740  18.600   5.050   3.107
73481ION    CL-38741  42.278   7.970   4.979
73482ION    CL-38742   3.410  30.364  11.946
73483ION    CL-38743  32.017  38.494   5.039
73484ION    CL-38744  44.521  35.949   3.782
73485ION    CL-38745  20.974  12.272  14.435
73486ION    CL-38746  26.779  44.589  14.973
73487ION    CL-38747  15.675  15.800   2.198
73488ION    CL-38748  13.847  27.054   2.972
73489ION    CL-38749   4.475  29.077  11.555
73490ION    CL-38750  12.166   6.769   0.074
73491ION    CL-38751  31.342   3.563   3.780
73492ION    CL-38752  43.454   5.591  11.828
73493ION    CL-38753   6.078  33.442   9.773
73494ION    CL-38754  34.594   6.153  12.406
73495ION    CL-38755   5.137   0.006  13.922
73496ION    CL-38756  21.614   7.059   0.804
73497ION    CL-38757   0.301  15.681  14.702
73498ION    CL-38758   5.028   8.281   4.544
73499ION    CL-38759  33.532  17.544   4.349
73500ION    CL-38760  39.535   5.161  10.201
73501ION    CL-38761  34.099  41.941   0.260
73502ION    CL-38762  18.485   3.200   3.192
73503ION    CL-38763  32.399  28.040  13.573
73504ION    CL-38764   4.401  37.420  10.672
73505ION    CL-38765  26.388  28.856   2.891
73506ION    CL-38766  37.392  16.295  11.360
73507ION    CL-38767   9.875  36.678   0.160
73508ION    CL-38768  40.805  23.561   0.901
73509ION    CL-38769  18.890  22.693  10.693
73510ION    CL-38770  17.134  28.052  13.127
73511ION    CL-38771  41.157  38.667   4.561
73512ION    CL-38772  23.992  29.726   0.847
73513ION    CL-38773  28.281  12.745  13.629
73514ION    CL-38774  31.068  17.473  12.957
73515ION    CL-38775  38.857  25.224  13.780
73516ION    CL-38776  38.486  14.160   0.865
73517ION    CL-38777  44.456  41.708   2.925
73518ION    CL-38778  32.950  32.577   1.659
73519ION    CL-38779  12.711  41.627  11.410
73520ION    CL-38780   5.999  44.708  12.455
73521ION    CL-38781  18.317  28.297   0.593
73522ION    CL-38782   8.325  11.037  12.300
73523ION    CL-38783   7.884  19.829  10.743
73524ION    CL-38784  31.942  26.600   1.672
73525ION    CL-38785  44.712  43.721   0.743
73526ION    CL-38786   6.951  36.405  12.380
73527ION    CL-38787  19.267  37.459  14.785
73528ION    CL-38788  27.602   8.120   1.390
73529ION    CL-38789  38.254   3.833  12.932
73530ION    CL-38790  40.245  42.805   3.869
73531ION    CL-38791   7.750   7.552   5.152
73532ION    CL-38792  20.437   4.491  12.442
73533ION    CL-38793  24.426  32.614  14.532
73534ION    CL-38794  19.282   1.750   3.738
73535ION    CL-38795  19.316  25.730  12.576
73536ION    CL-38796  28.227   7.666  14.751
73537ION    CL-38797  27.471   0.831   0.300
73538ION    CL-38798  35.894  43.756   3.092
73539ION    CL-38799  36.971   7.144  12.844
73540ION    CL-38800  17.419  37.629   0.668
73541ION    CL-38801  35.877  17.651  10.746
73542ION    CL-38802  11.463  43.346  13.395
73543ION    CL-38803   3.569  28.067   3.468
73544ION    CL-38804   1.141  19.929  12.435
73545ION    CL-38805  24.191  41.564   3.165
73546ION    CL-38806  25.743   5.187   2.833
73547ION    CL-38807  26.232  42.698   1.292
73548ION    CL-38808  41.520  26.186   3.904
73549ION    CL-38809  44.486   7.890  10.767
73550ION    CL-38810  36.611   6.071  11.633
73551ION    CL-38811   8.091  35.173   3.085
73552ION    CL-38812  19.273  31.568   3.178
73553ION    CL-38813  19.785  21.617   0.894
73554ION    CL-38814   1.566  11.182  14.216
73555ION    CL-38815   4.684  24.516  12.123
73556ION    CL-38816   3.398  12.351  12.009
73557ION    CL-38817  37.589  23.724  12.885
73558ION    CL-38818  39.751  14.211   4.697
73559ION    CL-38819  35.354  10.445   4.532
73560ION    CL-38820  15.673  13.734   1.533
73561ION    CL-38821  16.775  22.618  13.366
73562ION    CL-38822  10.627  24.455  13.742
73563ION    CL-38823  25.736   1.649  12.418
73564ION    CL-38824  15.895  20.787  12.420
73565ION    CL-38825  17.042  12.419  13.381
73566ION    CL-38826  23.856  34.884   5.136
73567ION    CL-38827   5.783  31.592  11.629
73568ION    CL-38828   6.500  17.512   5.141
73569ION    CL-38829  34.560  31.143   3.807
73570ION    CL-38830   8.214  36.011   1.251
73571ION    CL-38831   9.576  32.836  14.859
73572ION    CL-38832  32.916  36.929   1.588
73573ION    CL-38833  15.931   6.522  14.291
73574ION    CL-38834   3.731  12.422  13.665
73575ION    CL-38835  35.134  39.052   1.417
73576ION    CL-38836  37.613  35.813  12.859
73577ION    CL-38837   9.132  11.951  12.423
73578ION    CL-38838  10.189  38.902   3.106
73579ION    CL-38839   7.120  21.501   2.854
73580ION    CL-38840  37.458  16.674  13.079
73581ION    CL-38841  44.571  35.862  11.573
73582ION    CL-38842  28.916  27.182  13.916
73583ION    CL-38843  23.889  11.839   1.092
73584ION    CL-38844  35.582  24.272  12.418
73585ION    CL-38845  37.915  16.331   0.535
73586ION    CL-38846  29.644  20.020   0.956
73587ION    CL-38847  11.948  22.923   2.512
73588ION    CL-38848  12.162   3.918  11.112
73589ION    CL-38849  23.781  20.070   1.352
73590ION    CL-38850  23.125   3.603  14.608
73591ION    CL-38851  20.511   9.288  12.901
73592ION    CL-38852  11.695  19.454   3.299
73593ION    CL-38853   3.657  10.340   0.939
73594ION    CL-38854   9.793  38.122   0.745
73595ION    CL-38855  20.534   4.242  13.186
73596ION    CL-38856  11.865  15.674  11.506
73597ION    CL-38857  12.178  37.362   0.551
73598ION    CL-38858  19.810   3.672   3.263
73599ION    CL-38859   8.605  14.256   3.626
73600ION    CL-38860   4.230  26.109  13.231
73601ION    CL-38861  14.207  10.484   5.016
73602ION    CL-38862  32.929  40.482  12.428
73603ION    CL-38863  28.102   2.835  12.401
73604ION    CL-38864  28.919  19.859  12.940
73605ION    CL-38865  14.121  21.803   1.715
73606ION    CL-38866  27.685  15.729   4.453
73607ION    CL-38867  10.597  23.147  10.665
73608ION    CL-38868  16.641   2.855   2.247
73609ION    CL-38869   6.824  22.003  11.518
73610ION    CL-38870  26.583  32.517  10.990
73611ION    CL-38871   1.763   8.619  14.277
73612ION    CL-38872  37.147  16.910   4.055
73613ION    CL-38873   0.134   1.170   3.313
73614ION    CL-38874  40.373  25.034   3.092
73615ION    CL-38875  42.764  30.496   2.410
73616ION    CL-38876  13.882  28.998  11.916
73617ION    CL-38877  41.254  11.392   0.275
73618ION    CL-38878  38.637  33.425   1.706
73619ION    CL-38879  22.934  11.239   1.596
73620ION    CL-38880  17.163  32.420   0.791
73621ION    CL-38881  24.359  22.019   4.832
73622ION    CL-38882  36.324  19.774  14.512
73623ION    CL-38883   8.476  16.386   3.344
73624ION    CL-38884  24.625   3.313  11.772
73625ION    CL-38885  43.616  22.044  11.183
73626ION    CL-38886  37.714   7.617  12.371
73627ION    CL-38887  39.956   3.306   0.490
73628ION    CL-38888  17.539  36.795  10.679
73629ION    CL-38889  38.640  35.735   4.636
73630ION    CL-38890  41.309  39.589   0.440
73631ION    CL-38891  31.502  18.380   2.433
73632ION    CL-38892  33.883  39.249  12.767
73633ION    CL-38893  28.669  34.558  11.527
73634ION    CL-38894  43.621  25.458   5.466
73635ION    CL-38895  41.434  28.629  12.882
73636ION    CL-38896  35.944  25.163   2.030
73637ION    CL-38897  25.905   2.917   4.768
73638ION    CL-38898  36.579  27.602  12.886
73639ION    CL-38899  41.042   8.890  12.078
73640ION    CL-38900  18.567   0.536  13.197
73641ION    CL-38901  33.649  15.682  11.474
73642ION    CL-38902   3.025   3.303   2.213
73643ION    CL-38903  21.670  15.144  12.624
73644ION    CL-38904  44.972  42.626   1.356
73645ION    CL-38905  39.447  43.813  14.432
73646ION    CL-38906  20.240   6.909   4.397
73647ION    CL-38907  26.087  20.403   2.055
73648ION    CL-38908  18.126  38.548  13.012
73649ION    CL-38909  37.638  28.652   2.656
73650ION    CL-38910   6.596  14.239   1.634
73651ION    CL-38911   1.439   1.845  11.871
73652ION    CL-38912  15.099  29.440  14.611
73653ION    CL-38913  20.999  15.467  14.558
73654ION    CL-38914   7.636  29.947   1.767
73655ION    CL-38915  44.811   9.855   1.680
73656ION    CL-38916   5.046  20.489   3.965
73657ION    CL-38917  27.191   8.962  12.012
73658ION    CL-38918  11.997  17.642  13.127
73659ION    CL-38919   8.543   2.438   4.187
73660ION    CL-38920  38.586  12.751   3.256
73661ION    CL-38921  43.880   3.318   0.783
73662ION    CL-38922   6.854  14.950   4.360
73663ION    CL-38923  42.957  38.799   0.835
73664ION    CL-38924  21.211  34.782  12.890
73665ION    CL-38925  20.334  32.617   2.713
73666ION    CL-38926   8.643  33.725   0.673
73667ION    CL-38927  24.807  19.335   3.773
73668ION    CL-38928  12.487  10.495  12.257
73669ION    CL-38929  35.064   4.894  14.791
73670ION    CL-38930   0.341   7.684  11.876
73671ION    CL-38931   7.262   8.263   3.610
73672ION    CL-38932  30.707   8.311   2.416
73673ION    CL-38933  16.194  24.329   1.514
73674ION    CL-38934  37.939   5.527   3.527
73675ION    CL-38935  25.492  33.983   4.660
73676ION    CL-38936   7.726  22.313   3.227
73677ION    CL-38937   4.248  26.515   0.826
73678ION    CL-38938  12.696   0.792  10.283
73679ION    CL-38939   1.860  14.321   0.410
73680ION    CL-38940  44.864  18.158   1.453
73681ION    CL-38941  43.118   3.543   5.183
73682ION    CL-38942  23.510  31.500   2.268
73683ION    CL-38943  34.481  26.718  12.489
73684ION    CL-38944  18.082  30.566   3.745
73685ION    CL-38945  17.227  40.124   5.060
73686ION    CL-38946  15.917  11.897  14.842
73687ION    CL-38947  31.843  18.593  14.829
73688ION    CL-38948   6.926  23.564   0.826
73689ION    CL-38949  19.948  26.435  14.746
73690ION    CL-38950  41.231  34.129   3.572
73691ION    CL-38951  28.100   8.519  11.418
73692ION    CL-38952  11.416  28.426  11.014
73693ION    CL-38953   6.384   1.359   3.840
73694ION    CL-38954  16.174   2.743  12.642
73695ION    CL-38955  16.541   9.983  11.317
73696ION    CL-38956  13.402   4.750  12.766
73697ION    CL-38957  26.154  42.490  12.094
73698ION    CL-38958  14.524  36.625  13.895
73699ION    CL-38959  41.287   9.975  13.592
73700ION    CL-38960   0.173  33.969  11.456
73701ION    CL-38961  37.142  28.833   1.772
73702ION    CL-38962  26.010  35.702  14.976
73703ION    CL-38963  36.397  43.655  13.803
73704ION    CL-38964   5.567  12.612   2.438
73705ION    CL-38965  34.225  14.126   0.896
73706ION    CL-38966  13.097  10.328  13.059
73707ION    CL-38967   2.037  14.132  13.766
73708ION    CL-38968   6.564  34.267   4.982
73709ION    CL-38969  18.632   0.844   4.685
73710ION    CL-38970  32.924   4.273  12.432
73711ION    CL-38971   1.068  42.932   2.836
73712ION    CL-38972  25.897   3.465   1.528
73713ION    CL-38973   2.671  10.312  13.340
73714ION    CL-38974  35.835  34.284  14.548
73715ION    CL-38975   9.661  16.035  12.855
73716ION    CL-38976  15.744  39.815   1.268
73717ION    CL-38977   9.286   3.737   2.878
73718ION    CL-38978  30.915   2.397   5.232
73719ION    CL-38979  35.404   4.810  11.132
73720ION    CL-38980  28.109  23.605  13.680
73721ION    CL-38981  15.085  27.491   3.252
73722ION    CL-38982  40.053   2.404  14.400
73723ION    CL-38983   4.520  30.898   2.626
73724ION    CL-38984   6.379   2.837  14.933
73725ION    CL-38985  17.692  37.619   3.000
73726ION    CL-38986  22.325  13.641  14.058
73727ION    CL-38987  27.011  33.865  12.003
73728ION    CL-38988   6.632  32.531   2.690
73729ION    CL-38989  23.428  19.387   4.777
73730ION    CL-38990   8.891   1.453   0.821
73731ION    CL-38991  27.144  26.709   2.197
73732ION    CL-38992  37.023  22.604  14.116
73733ION    CL-38993  23.437  21.467   1.330
73734ION    CL-38994   0.737   1.165  12.087
73735ION    CL-38995  34.283  12.848  13.056
73736ION    CL-38996  38.992  42.653  13.832
73737ION    CL-38997  34.447  18.007   3.388
73738ION    CL-38998  23.599  43.052   1.842
73739ION    CL-38999   7.378  38.367   0.395
73740ION    CL-39000   2.140  12.203  11.387
73741ION    CL-39001  24.098   8.883   3.768
73742ION    CL-39002   5.325  27.422   3.666
73743ION    CL-39003  13.486   1.250   3.742
73744ION    CL-39004  33.412  43.351   4.086
73745ION    CL-39005   6.149  25.466   0.565
73746ION    CL-39006  26.982   7.678   4.076
73747ION    CL-39007  28.703  17.158  12.661
73748ION    CL-39008  12.564   6.325  13.103
73749ION    CL-39009  33.277   0.034  10.416
73750ION    CL-39010  41.596  16.237  12.563
73751ION    CL-39011  41.123  36.779   1.598
73752ION    CL-39012  12.864   7.443  13.789
73753ION    CL-39013  33.020  33.939   4.549
73754ION    CL-39014  19.646  39.053   4.884
73755ION    CL-39015  39.866  23.495  11.178
73756ION    CL-39016  27.051  35.058   1.272
73757ION    CL-39017   3.683   8.383  11.065
73758ION    CL-39018  16.541  20.379  14.900
73759ION    CL-39019  14.367  27.549  14.410
73760ION    CL-39020  28.266  13.344   1.191
73761ION    CL-39021  34.524  24.569   2.445
73762ION    CL-39022  17.635  33.106  13.616
73763ION    CL-39023  34.592  29.885   3.838
73764ION    CL-39024  17.939  44.305  10.978
73765ION    CL-39025  42.936  18.136  14.504
73766ION    CL-39026  27.080   6.068  10.995
73767ION    CL-39027   5.186  38.612   3.901
73768ION    CL-39028  23.054  33.787   1.518
73769ION    CL-39029   1.946  13.869   3.208
73770ION    CL-39030  32.140  21.472  12.700
73771ION    CL-39031  38.229  13.038   1.631
73772ION    CL-39032   7.083  35.600  10.776
73773ION    CL-39033  24.459  29.866  11.529
73774ION    CL-39034  43.071  43.039   2.701
73775ION    CL-39035  36.924  33.256  12.955
73776ION    CL-39036  27.741  12.387   4.560
73777ION    CL-39037   9.666  37.320  13.495
73778ION    CL-39038  43.496  15.772   4.172
73779ION    CL-39039  21.936  40.455   3.209
73780ION    CL-39040  19.578  36.620   0.318
73781ION    CL-39041  18.595   3.113  13.726
73782ION    CL-39042  28.303  33.323   1.295
73783ION    CL-39043   5.452  41.930   3.259
73784ION    CL-39044  18.631  37.321   2.040
73785ION    CL-39045  44.041   4.660   4.134
73786ION    CL-39046  22.615  41.376  12.171
73787ION    CL-39047  13.936  35.459   4.153
73788ION    CL-39048  32.598   7.461   3.744
73789ION    CL-39049  10.836  23.794  12.130
73790ION    CL-39050  20.840  30.193  11.560
73791ION    CL-39051  37.051  39.776  13.315
73792ION    CL-39052  35.100  44.758  12.080
73793ION    CL-39053  16.626  25.432   4.730
73794ION    CL-39054  42.832  34.715   0.276
73795ION    CL-39055  23.888  33.363  11.136
73796ION    CL-39056  34.846  44.782  14.034
73797ION    CL-39057  40.960   3.262  12.538
73798ION    CL-39058  33.096   3.296   3.869
73799ION    CL-39059  39.802  43.542  11.822
73800ION    CL-39060  21.552  16.519   2.729
73801ION    CL-39061  36.863   8.794   2.775
73802ION    CL-39062  19.341  30.302   2.764
73803ION    CL-39063  38.143  23.162  14.458
73804ION    CL-39064  38.882  22.052   0.821
73805ION    CL-39065   5.635  38.767   0.338
73806ION    CL-39066  21.992  30.645  13.462
73807ION    CL-39067   0.495  25.465   2.321
73808ION    CL-39068   8.052   0.918  14.676
73809ION    CL-39069  29.527  37.491   2.304
73810ION    CL-39070  38.574   8.338  13.910
73811ION    CL-39071  27.087   2.612  13.641
73812ION    CL-39072  25.913  44.819  13.095
73813ION    CL-39073  13.336   1.929   3.233
73814ION    CL-39074  12.280   7.625   1.024
73815ION    CL-39075  30.391  21.091   1.132
73816ION    CL-39076  28.633  41.495  14.654
73817ION    CL-39077   4.403   4.163  10.338
73818ION    CL-39078  23.961  27.019   0.741
73819ION    CL-39079  27.880   8.654   3.903
73820ION    CL-39080  22.073  24.512   2.890
73821ION    CL-39081  19.271  29.681  14.079
73822ION    CL-39082  12.666   8.184  14.257
73823ION    CL-39083  40.485  26.144  10.644
73824ION    CL-39084   9.543   5.437   2.225
73825ION    CL-39085  29.722  28.032   4.005
73826ION    CL-39086   6.326  32.887  12.797
73827ION    CL-39087  21.117  29.838   4.620
73828ION    CL-39088  41.982  25.493  14.239
73829ION    CL-39089  27.735  36.217  10.675
73830ION    CL-39090  34.935  14.493   0.423
73831ION    CL-39091   1.742  44.474  11.547
73832ION    CL-39092  21.102   7.924   0.777
73833ION    CL-39093  33.422  16.539   4.735
73834ION    CL-39094  40.215  35.435   2.162
73835ION    CL-39095   4.392  41.705  12.196
73836ION    CL-39096  13.932   4.394   2.897
73837ION    CL-39097  13.131  14.573  12.097
73838ION    CL-39098   5.932  22.239   1.319
73839ION    CL-39099  33.686  21.411   4.004
73840ION    CL-39100  37.260  15.853  12.491
73841ION    CL-39101  13.025  38.438   4.378
73842ION    CL-39102  19.139  25.695   0.506
73843ION    CL-39103  32.767  18.945  14.976
73844ION    CL-39104   1.835  41.356   2.875
73845ION    CL-39105  35.935   1.674  14.588
73846ION    CL-39106  22.128  14.195  13.249
73847ION    CL-39107  40.271   5.261   3.142
73848ION    CL-39108  19.671  38.041  10.637
73849ION    CL-39109   9.051   8.211  11.586
73850ION    CL-39110   9.023  33.399   1.539
73851ION    CL-39111   1.776  14.850   3.099
73852ION    CL-39112  26.284   9.354  10.695
73853ION    CL-39113  39.557  26.201  14.025
73854ION    CL-39114  30.245  16.106   1.123
73855ION    CL-39115   3.034  14.181  13.821
73856ION    CL-39116  27.440   6.667   0.921
73857ION    CL-39117  33.522  17.107  10.655
73858ION    CL-39118   7.890  39.584  12.537
73859ION    CL-39119  24.222  19.054   5.881
73860ION    CL-39120  36.593  18.706  14.776
73861ION    CL-39121   3.176  39.158   1.603
73862ION    CL-39122  20.048  12.895   3.787
73863ION    CL-39123  44.809  40.899   4.063
73864ION    CL-39124   5.307  31.508   4.750
73865ION    CL-39125  12.327  22.807  12.204
73866ION    CL-39126  28.686  36.143  13.485
73867ION    CL-39127  13.375  15.198   2.507
73868ION    CL-39128  22.956  37.132  10.942
73869ION    CL-39129  18.675   7.532   4.842
73870ION    CL-39130  41.174  36.306   2.392
73871ION    CL-39131  36.568  29.432   3.389
73872ION    CL-39132  43.670  18.460   2.179
73873ION    CL-39133   8.104  33.205  11.926
73874ION    CL-39134  16.073  26.893  14.164
73875ION    CL-39135  31.888  34.008  12.684
73876ION    CL-39136  12.475  43.383   4.043
73877ION    CL-39137  23.103  11.256  11.466
73878ION    CL-39138  37.390   4.801  14.869
73879ION    CL-39139   4.711  15.211  13.652
73880ION    CL-39140  32.350  30.297   5.117
73881ION    CL-39141  31.608   1.959   0.725
73882ION    CL-39142   6.185  21.182   2.332
73883ION    CL-39143  16.178  32.246  13.281
73884ION    CL-39144  15.420  23.543  12.437
73885ION    CL-39145  41.608  38.675  11.380
73886ION    CL-39146  25.197  22.531  14.128
73887ION    CL-39147  12.641  34.433  13.676
73888ION    CL-39148   4.936   9.182  12.089
73889ION    CL-39149  24.292   3.908  13.393
73890ION    CL-39150  37.022  34.596   4.295
73891ION    CL-39151  25.211  27.081  12.031
73892ION    CL-39152  21.071  19.146  12.843
73893ION    CL-39153  43.801  22.552   0.274
73894ION    CL-39154  19.834   4.063  12.870
73895ION    CL-39155  43.818  38.380  13.954
73896ION    CL-39156   5.933   7.460   4.957
73897ION    CL-39157  39.567   7.618   3.305
73898ION    CL-39158  38.736   5.653   4.384
73899ION    CL-39159  32.918  12.638   4.853
73900ION    CL-39160   8.793  33.544   5.076
73901ION    CL-39161  18.181  37.887  13.165
73902ION    CL-39162  41.079   7.341  11.113
73903ION    CL-39163   9.129  29.574   1.303
73904ION    CL-39164  15.781   5.393  10.546
73905ION    CL-39165  19.806  13.907   0.144
73906ION    CL-39166  41.600  41.861   5.281
73907ION    CL-39167   3.200  27.453   1.675
73908ION    CL-39168   6.551  18.575  10.713
73909ION    CL-39169  22.091  23.645   2.576
73910ION    CL-39170  25.619  42.608   3.967
73911ION    CL-39171   8.426  33.278  12.718
73912ION    CL-39172  33.006   3.890   1.840
73913ION    CL-39173   4.685  11.645   2.783
73914ION    CL-39174  30.747   5.532  11.044
73915ION    CL-39175  44.439  25.882   2.104
73916ION    CL-39176   5.808  39.959  12.782
73917ION    CL-39177  34.937   1.684   2.826
73918ION    CL-39178  10.336  36.716   4.247
73919ION    CL-39179   3.616  22.028  12.487
73920ION    CL-39180   8.029  41.852   5.000
73921ION    CL-39181   9.568  44.671  13.646
73922ION    CL-39182   2.668  33.192  14.147
73923ION    CL-39183  29.529  26.260   5.010
73924ION    CL-39184   4.663  44.034   3.712
73925ION    CL-39185  29.927  36.894   3.298
73926ION    CL-39186   7.410   8.444  10.419
73927ION    CL-39187   3.020  17.337   4.280
73928ION    CL-39188  34.501  36.830   0.221
73929ION    CL-39189   5.037   5.705   1.913
73930ION    CL-39190  10.877  29.066   3.301
73931ION    CL-39191  28.963  11.712   1.933
73932ION    CL-39192   6.045  30.702  14.204
73933ION    CL-39193  43.457  23.088   3.112
73934ION    CL-39194  26.784  13.454  13.327
73935ION    CL-39195  11.580  29.027   0.403
73936ION    CL-39196  30.481  18.455  13.558
73937ION    CL-39197  44.737  11.390   2.131
73938ION    CL-39198  24.826  19.750  11.620
73939ION    CL-39199  27.007   9.360   0.043
73940ION    CL-39200   8.985   9.877   2.834
73941ION    CL-39201   3.381   2.409  13.078
73942ION    CL-39202  40.867  10.928   4.548
73943ION    CL-39203  41.412   3.703  11.195
73944ION    CL-39204  41.317  29.718  11.401
73945ION    CL-39205  24.693  23.245  14.615
73946ION    CL-39206  18.788  26.319   1.400
73947ION    CL-39207  18.394  44.454   4.057
73948ION    CL-39208  21.620  35.584   0.533
73949ION    CL-39209  12.693  25.066   2.410
73950ION    CL-39210  18.065  19.520  13.814
73951ION    CL-39211   9.116  43.704   5.110
73952ION    CL-39212  40.089  15.610  11.228
73953ION    CL-39213  30.824  10.993   4.815
73954ION    CL-39214  34.304  16.661   1.884
73955ION    CL-39215  26.659   7.676   0.975
73956ION    CL-39216  30.722   0.413  10.383
73957ION    CL-39217  26.271   3.954  13.457
73958ION    CL-39218  32.496  33.619  13.258
73959ION    CL-39219  27.922  17.806  12.586
73960ION    CL-39220  36.247   1.824  13.649
73961ION    CL-39221   3.211  41.270  14.754
73962ION    CL-39222  21.040   0.827  12.873
73963ION    CL-39223   0.640  16.697  12.364
73964ION    CL-39224  18.836   6.235  11.448
73965ION    CL-39225   6.389  28.194   2.298
73966ION    CL-39226  21.674   1.207  13.730
73967ION    CL-39227   0.181   1.846   1.368
73968ION    CL-39228  36.061  11.739   2.362
73969ION    CL-39229  44.000  25.070   4.181
73970ION    CL-39230   0.152  13.484  12.734
73971ION    CL-39231  37.504  25.614   2.706
73972ION    CL-39232  42.326   2.943  13.449
73973ION    CL-39233   2.542  26.159  11.651
73974ION    CL-39234  20.940  29.059   1.825
73975ION    CL-39235  37.290  18.259   3.874
73976ION    CL-39236  36.414  28.468   3.602
73977ION    CL-39237  25.955  29.149  14.407
73978ION    CL-39238  10.465  18.465   3.314
73979ION    CL-39239  29.189   2.893  14.649
73980ION    CL-39240  15.840  17.550   2.731
73981ION    CL-39241  20.769   7.132  13.566
73982ION    CL-39242  17.058  10.875   2.084
73983ION    CL-39243  15.028  19.796  10.742
73984ION    CL-39244  16.214  44.579   2.251
73985ION    CL-39245  13.268  15.678   9.997
73986ION    CL-39246  33.650  28.103   0.999
73987ION    CL-39247   6.684  28.667   0.246
73988ION    CL-39248  17.574  19.698   2.395
73989ION    CL-39249  40.318  18.722   2.399
73990ION    CL-39250  12.731  12.316  14.911
73991ION    CL-39251  16.428  13.567   1.100
73992ION    CL-39252  41.401  30.817   5.053
73993ION    CL-39253  41.515  28.498   1.508
73994ION    CL-39254  36.811  25.800  14.284
73995ION    CL-39255   7.840  38.023   1.213
73996ION    CL-39256  23.594  32.380  11.107
73997ION    CL-39257  37.161   3.346   2.695
73998ION    CL-39258  44.399  22.840  13.094
73999ION    CL-39259  35.153  27.614  10.606
74000ION    CL-39260  26.399  11.507  12.053
74001ION    CL-39261  44.386  38.037  11.898
74002ION    CL-39262   6.985  18.656   0.423
74003ION    CL-39263  30.682   6.254   5.237
74004ION    CL-39264  41.827  11.145  10.192
74005ION    CL-39265  17.249   2.831  13.014
74006ION    CL-39266   8.702  19.543   4.927
74007ION    CL-39267  28.644  28.157  14.570
74008ION    CL-39268  11.436  39.069  12.576
74009ION    CL-39269   9.847  44.018  11.392
74010ION    CL-39270  19.503  21.629   3.798
74011ION    CL-39271  40.499  19.676  13.482
74012ION    CL-39272  31.865  17.741  14.306
74013ION    CL-39273  39.579  17.901  14.278
74014ION    CL-39274  10.877  43.007   0.815
74015ION    CL-39275  19.587  41.990   0.815
74016ION    CL-39276   4.707   4.571  12.142
74017ION    CL-39277  20.731   3.836  11.128
74018ION    CL-39278  12.186  42.809   1.289
74019ION    CL-39279  10.307   1.697   3.626
74020ION    CL-39280  32.893  32.826  12.757
74021ION    CL-39281  12.745  40.884  13.299
74022ION    CL-39282   3.961  20.522  14.413
74023ION    CL-39283  16.259  34.561   0.342
74024ION    CL-39284  38.787  23.137  10.624
74025ION    CL-39285  38.362  31.867   2.640
74026ION    CL-39286  43.303  14.235   2.505
74027ION    CL-39287  43.543  41.537   3.680
74028ION    CL-39288  26.907   2.290  14.909
74029ION    CL-39289  17.194  24.564   2.627
74030ION    CL-39290  41.610   2.909  14.849
74031ION    CL-39291   7.761  43.055   1.517
74032ION    CL-39292  28.585  11.933  13.862
74033ION    CL-39293  19.982  24.793  12.090
74034ION    CL-39294  16.427  16.631  12.805
74035ION    CL-39295  28.149  43.782   3.264
74036ION    CL-39296  19.734  36.679   2.514
74037ION    CL-39297  12.524   1.517   3.665
74038ION    CL-39298  24.153  42.492  13.615
74039ION    CL-39299  19.691   6.202   4.290
74040ION    CL-39300  39.053   8.327  12.729
74041ION    CL-39301  35.362  25.231  12.157
74042ION    CL-39302   8.396  10.107  10.189
74043ION    CL-39303  31.117   3.175   2.326
74044ION    CL-39304   2.559  30.999   2.255
74045ION    CL-39305  27.707  24.946   4.336
74046ION    CL-39306  11.594  33.597  13.533
74047ION    CL-39307  34.613  25.110   0.167
74048ION    CL-39308  34.563  31.703   5.028
74049ION    CL-39309  10.728  18.806  11.195
74050ION    CL-39310  40.473  32.707   0.098
74051ION    CL-39311  41.478  39.264  12.066
74052ION    CL-39312  15.737  41.783  11.569
74053ION    CL-39313  21.182  33.928  14.040
74054ION    CL-39314  32.935  36.517  12.118
74055ION    CL-39315  37.923  41.457   3.407
74056ION    CL-39316   8.406  30.320   1.220
74057ION    CL-39317  38.077  15.757   3.334
74058ION    CL-39318   4.064  17.129   0.200
74059ION    CL-39319   8.432  23.222   1.509
74060ION    CL-39320  26.817   4.759  12.068
74061ION    CL-39321  41.750  20.160  13.967
74062ION    CL-39322  30.938  21.529  13.427
74063ION    CL-39323  41.378  27.484   4.876
74064ION    CL-39324   9.373  40.193  12.528
74065ION    CL-39325   8.120   9.629  11.939
74066ION    CL-39326   4.088  15.718   2.080
74067ION    CL-39327  27.062   9.143   4.348
74068ION    CL-39328  36.625   8.281  12.451
74069ION    CL-39329  17.036   5.431   1.270
74070ION    CL-39330  38.571  27.300   3.821
74071ION    CL-39331  24.738  42.806  12.066
74072ION    CL-39332  10.947  13.123  14.323
74073ION    CL-39333   2.706  23.560   0.759
74074ION    CL-39334   3.924  41.576  11.048
74075ION    CL-39335  32.703  35.636  11.707
74076ION    CL-39336   3.383  36.477  12.059
74077ION    CL-39337  16.250  14.003  13.799
74078ION    CL-39338  40.342  12.112   1.477
74079ION    CL-39339  27.589  37.094  10.671
74080ION    CL-39340   3.868  21.023   4.044
74081ION    CL-39341  43.457  37.015   3.655
74082ION    CL-39342  43.263   7.981  12.385
  45.00000  45.00000  15.00000
